PNi mol in water
12752
    1PNI    CH1    1   0.693   2.317   2.560
    1PNI    CH2    2   0.807   2.342   2.460
    1PNI    CH1    3   0.868   2.482   2.471
    1PNI    CH2    4   1.018   2.491   2.433
    1PNI    CH1    5   1.081   2.630   2.432
    1PNI    CH2    6   1.215   2.629   2.354
    1PNI    CH1    7   1.326   2.726   2.394
    1PNI    CH2    8   1.462   2.653   2.406
    1PNI    CH1    9   1.587   2.731   2.443
    1PNI    CH2   10   1.688   2.644   2.522
    1PNI    CH1   11   1.835   2.679   2.497
    1PNI    CH2   12   1.938   2.580   2.556
    1PNI    CH1   13   2.080   2.637   2.564
    1PNI    CH2   14   2.189   2.529   2.581
    1PNI    CH1   15   2.330   2.585   2.597
    1PNI    CH2   16   2.442   2.479   2.593
    1PNI    CH1   17   2.582   2.538   2.611
    1PNI    CH2   18   2.700   2.448   2.569
    1PNI    CH1   19   2.837   2.512   2.593
    1PNI    CH2   20   2.956   2.416   2.582
    1PNI    CH1   21   3.088   2.482   2.542
    1PNI    CH2   22   3.203   2.387   2.505
    1PNI    CH1   23   3.313   2.456   2.424
    1PNI    CH2   24   3.448   2.383   2.412
    1PNI    CH1   25   3.559   2.478   2.367
    1PNI    CH2   26   3.702   2.433   2.403
    1PNI    CH1   27   3.794   2.534   2.472
    1PNI    CH2   28   3.922   2.459   2.514
    1PNI    CH1   29   4.038   2.537   2.578
    1PNI    CH2   30   4.135   2.437   2.643
    1PNI    CH1   31   4.275   2.483   2.682
    1PNI    CH2   32   4.375   2.370   2.655
    2SOL     OW   33   0.298   2.117   0.082
    2SOL    HW1   34   0.235   2.042   0.104
    2SOL    HW2   35   0.392   2.083   0.087
    3SOL     OW   36   0.740   1.471   3.575
    3SOL    HW1   37   0.837   1.493   3.588
    3SOL    HW2   38   0.705   1.520   3.496
    4SOL     OW   39   1.602   4.976   4.761
    4SOL    HW1   40   1.701   4.964   4.769
    4SOL    HW2   41   1.557   4.888   4.769
    5SOL     OW   42   4.806   0.087   0.749
    5SOL    HW1   43   4.799   0.065   0.846
    5SOL    HW2   44   4.715   0.087   0.708
    6SOL     OW   45   2.910   4.629   4.205
    6SOL    HW1   46   2.932   4.565   4.279
    6SOL    HW2   47   2.810   4.636   4.197
    7SOL     OW   48   1.247   3.746   1.838
    7SOL    HW1   49   1.171   3.811   1.830
    7SOL    HW2   50   1.236   3.691   1.921
    8SOL     OW   51   0.978   1.889   3.992
    8SOL    HW1   52   1.005   1.961   4.056
    8SOL    HW2   53   1.040   1.888   3.914
    9SOL     OW   54   0.355   3.780   0.068
    9SOL    HW1   55   0.322   3.760   0.160
    9SOL    HW2   56   0.421   3.710   0.040
   10SOL     OW   57   3.153   1.391   1.267
   10SOL    HW1   58   3.236   1.431   1.307
   10SOL    HW2   59   3.094   1.356   1.339
   11SOL     OW   60   0.625   2.499   3.390
   11SOL    HW1   61   0.615   2.460   3.481
   11SOL    HW2   62   0.586   2.436   3.322
   12SOL     OW   63   4.994   4.773   2.157
   12SOL    HW1   64   4.894   4.777   2.154
   12SOL    HW2   65   5.032   4.807   2.071
   13SOL     OW   66   2.354   0.314   0.184
   13SOL    HW1   67   2.393   0.388   0.238
   13SOL    HW2   68   2.258   0.333   0.164
   14SOL     OW   69   3.469   0.553   3.515
   14SOL    HW1   70   3.425   0.488   3.576
   14SOL    HW2   71   3.553   0.512   3.478
   15SOL     OW   72   4.781   0.823   3.730
   15SOL    HW1   73   4.873   0.814   3.692
   15SOL    HW2   74   4.786   0.869   3.819
   16SOL     OW   75   0.649   3.887   3.742
   16SOL    HW1   76   0.682   3.977   3.713
   16SOL    HW2   77   0.698   3.858   3.824
   17SOL     OW   78   4.872   3.308   0.881
   17SOL    HW1   79   4.809   3.374   0.920
   17SOL    HW2   80   4.851   3.295   0.784
   18SOL     OW   81   1.634   4.766   1.094
   18SOL    HW1   82   1.709   4.829   1.113
   18SOL    HW2   83   1.552   4.817   1.068
   19SOL     OW   84   4.018   3.453   0.100
   19SOL    HW1   85   4.045   3.421   0.190
   19SOL    HW2   86   4.050   3.389   0.030
   20SOL     OW   87   2.312   3.328   0.771
   20SOL    HW1   88   2.327   3.229   0.777
   20SOL    HW2   89   2.243   3.355   0.838
   21SOL     OW   90   3.716   3.383   4.178
   21SOL    HW1   91   3.770   3.451   4.128
   21SOL    HW2   92   3.620   3.410   4.177
   22SOL     OW   93   4.643   0.674   0.887
   22SOL    HW1   94   4.685   0.607   0.826
   22SOL    HW2   95   4.599   0.627   0.963
   23SOL     OW   96   3.317   0.075   4.703
   23SOL    HW1   97   3.290   0.120   4.788
   23SOL    HW2   98   3.266   0.117   4.627
   24SOL     OW   99   0.761   2.232   2.919
   24SOL    HW1  100   0.684   2.235   2.854
   24SOL    HW2  101   0.732   2.272   3.006
   25SOL     OW  102   3.475   0.936   4.435
   25SOL    HW1  103   3.506   0.981   4.519
   25SOL    HW2  104   3.375   0.942   4.428
   26SOL     OW  105   3.796   2.439   0.239
   26SOL    HW1  106   3.866   2.510   0.239
   26SOL    HW2  107   3.806   2.381   0.320
   27SOL     OW  108   4.586   1.278   4.608
   27SOL    HW1  109   4.502   1.309   4.564
   27SOL    HW2  110   4.587   1.308   4.703
   28SOL     OW  111   2.213   0.612   2.939
   28SOL    HW1  112   2.151   0.641   3.012
   28SOL    HW2  113   2.165   0.549   2.877
   29SOL     OW  114   3.143   0.861   1.060
   29SOL    HW1  115   3.139   0.863   1.160
   29SOL    HW2  116   3.054   0.833   1.024
   30SOL     OW  117   0.694   4.490   4.981
   30SOL    HW1  118   0.681   4.405   5.033
   30SOL    HW2  119   0.721   4.563   0.009
   31SOL     OW  120   3.296   0.788   0.246
   31SOL    HW1  121   3.375   0.746   0.204
   31SOL    HW2  122   3.212   0.754   0.203
   32SOL     OW  123   1.159   3.556   2.397
   32SOL    HW1  124   1.169   3.547   2.496
   32SOL    HW2  125   1.207   3.638   2.366
   33SOL     OW  126   1.371   3.013   4.565
   33SOL    HW1  127   1.332   2.952   4.633
   33SOL    HW2  128   1.377   2.966   4.477
   34SOL     OW  129   0.388   1.841   3.807
   34SOL    HW1  130   0.327   1.830   3.885
   34SOL    HW2  131   0.392   1.755   3.755
   35SOL     OW  132   2.910   0.492   0.583
   35SOL    HW1  133   2.978   0.555   0.546
   35SOL    HW2  134   2.929   0.399   0.550
   36SOL     OW  135   3.403   3.981   3.672
   36SOL    HW1  136   3.492   3.982   3.718
   36SOL    HW2  137   3.337   4.032   3.726
   37SOL     OW  138   0.382   2.620   0.338
   37SOL    HW1  139   0.354   2.672   0.257
   37SOL    HW2  140   0.386   2.522   0.316
   38SOL     OW  141   4.634   4.471   1.856
   38SOL    HW1  142   4.734   4.470   1.854
   38SOL    HW2  143   4.603   4.479   1.951
   39SOL     OW  144   1.760   2.558   0.930
   39SOL    HW1  145   1.857   2.542   0.949
   39SOL    HW2  146   1.751   2.619   0.851
   40SOL     OW  147   3.903   0.842   2.006
   40SOL    HW1  148   3.854   0.769   2.052
   40SOL    HW2  149   3.877   0.844   1.909
   41SOL     OW  150   3.453   0.793   2.387
   41SOL    HW1  151   3.464   0.859   2.461
   41SOL    HW2  152   3.469   0.838   2.299
   42SOL     OW  153   4.982   1.773   0.534
   42SOL    HW1  154   4.914   1.839   0.565
   42SOL    HW2  155   0.007   1.749   0.611
   43SOL     OW  156   3.465   3.347   0.688
   43SOL    HW1  157   3.542   3.403   0.659
   43SOL    HW2  158   3.417   3.311   0.608
   44SOL     OW  159   4.589   3.671   4.155
   44SOL    HW1  160   4.522   3.637   4.222
   44SOL    HW2  161   4.661   3.603   4.143
   45SOL     OW  162   0.580   1.764   4.057
   45SOL    HW1  163   0.622   1.849   4.091
   45SOL    HW2  164   0.605   1.751   3.961
   46SOL     OW  165   0.149   0.712   4.159
   46SOL    HW1  166   0.122   0.663   4.076
   46SOL    HW2  167   0.069   0.761   4.195
   47SOL     OW  168   2.967   1.824   1.284
   47SOL    HW1  169   3.059   1.822   1.245
   47SOL    HW2  170   2.972   1.803   1.382
   48SOL     OW  171   2.713   2.574   0.085
   48SOL    HW1  172   2.681   2.622   0.166
   48SOL    HW2  173   2.689   2.626   0.003
   49SOL     OW  174   3.801   0.643   4.054
   49SOL    HW1  175   3.742   0.635   3.974
   49SOL    HW2  176   3.772   0.577   4.123
   50SOL     OW  177   4.537   2.047   2.907
   50SOL    HW1  178   4.584   2.135   2.909
   50SOL    HW2  179   4.598   1.977   2.868
   51SOL     OW  180   0.422   4.784   0.366
   51SOL    HW1  181   0.381   4.842   0.436
   51SOL    HW2  182   0.395   4.816   0.275
   52SOL     OW  183   2.137   0.423   0.460
   52SOL    HW1  184   2.134   0.324   0.469
   52SOL    HW2  185   2.130   0.465   0.550
   53SOL     OW  186   4.661   4.907   3.269
   53SOL    HW1  187   4.733   4.940   3.208
   53SOL    HW2  188   4.689   4.920   3.364
   54SOL     OW  189   2.183   4.056   0.682
   54SOL    HW1  190   2.120   4.132   0.663
   54SOL    HW2  191   2.172   3.986   0.612
   55SOL     OW  192   0.640   0.361   0.952
   55SOL    HW1  193   0.733   0.337   0.924
   55SOL    HW2  194   0.644   0.439   1.014
   56SOL     OW  195   0.473   2.809   3.650
   56SOL    HW1  196   0.472   2.908   3.650
   56SOL    HW2  197   0.544   2.776   3.713
   57SOL     OW  198   0.011   3.649   3.599
   57SOL    HW1  199   4.986   3.627   3.676
   57SOL    HW2  200   0.008   3.574   3.532
   58SOL     OW  201   0.967   2.456   1.016
   58SOL    HW1  202   0.896   2.476   1.083
   58SOL    HW2  203   0.927   2.445   0.925
   59SOL     OW  204   1.733   0.618   2.307
   59SOL    HW1  205   1.690   0.672   2.235
   59SOL    HW2  206   1.666   0.596   2.378
   60SOL     OW  207   1.609   1.650   3.140
   60SOL    HW1  208   1.682   1.690   3.084
   60SOL    HW2  209   1.566   1.574   3.089
   61SOL     OW  210   3.184   2.575   0.922
   61SOL    HW1  211   3.239   2.617   0.849
   61SOL    HW2  212   3.242   2.551   0.999
   62SOL     OW  213   4.630   1.918   2.448
   62SOL    HW1  214   4.541   1.872   2.456
   62SOL    HW2  215   4.697   1.874   2.507
   63SOL     OW  216   0.679   3.108   1.828
   63SOL    HW1  217   0.631   3.093   1.742
   63SOL    HW2  218   0.649   3.039   1.895
   64SOL     OW  219   4.003   2.020   3.330
   64SOL    HW1  220   4.074   2.042   3.263
   64SOL    HW2  221   4.002   1.921   3.346
   65SOL     OW  222   2.286   3.353   2.016
   65SOL    HW1  223   2.372   3.388   2.054
   65SOL    HW2  224   2.211   3.374   2.079
   66SOL     OW  225   1.182   0.922   1.173
   66SOL    HW1  226   1.274   0.894   1.146
   66SOL    HW2  227   1.188   0.989   1.247
   67SOL     OW  228   2.729   4.101   1.375
   67SOL    HW1  229   2.695   4.016   1.413
   67SOL    HW2  230   2.823   4.088   1.342
   68SOL     OW  231   4.285   0.644   1.775
   68SOL    HW1  232   4.337   0.659   1.692
   68SOL    HW2  233   4.203   0.702   1.775
   69SOL     OW  234   4.916   4.554   4.954
   69SOL    HW1  235   4.913   4.467   4.904
   69SOL    HW2  236   5.005   4.565   4.997
   70SOL     OW  237   2.278   4.452   0.212
   70SOL    HW1  238   2.261   4.364   0.257
   70SOL    HW2  239   2.288   4.438   0.114
   71SOL     OW  240   3.602   3.605   3.368
   71SOL    HW1  241   3.697   3.617   3.341
   71SOL    HW2  242   3.542   3.647   3.301
   72SOL     OW  243   2.315   1.255   3.030
   72SOL    HW1  244   2.282   1.320   3.097
   72SOL    HW2  245   2.259   1.260   2.948
   73SOL     OW  246   2.615   1.708   1.440
   73SOL    HW1  247   2.560   1.624   1.432
   73SOL    HW2  248   2.693   1.691   1.500
   74SOL     OW  249   2.608   3.348   1.027
   74SOL    HW1  250   2.555   3.341   1.111
   74SOL    HW2  251   2.560   3.408   0.963
   75SOL     OW  252   3.561   4.795   3.882
   75SOL    HW1  253   3.639   4.851   3.910
   75SOL    HW2  254   3.476   4.845   3.900
   76SOL     OW  255   3.554   2.651   4.298
   76SOL    HW1  256   3.503   2.578   4.344
   76SOL    HW2  257   3.623   2.611   4.238
   77SOL     OW  258   0.961   0.029   2.217
   77SOL    HW1  259   0.995   5.035   2.306
   77SOL    HW2  260   0.901   4.993   2.180
   78SOL     OW  261   0.741   1.956   0.960
   78SOL    HW1  262   0.754   2.001   0.872
   78SOL    HW2  263   0.807   1.992   1.026
   79SOL     OW  264   3.795   2.998   2.784
   79SOL    HW1  265   3.779   2.973   2.879
   79SOL    HW2  266   3.841   2.923   2.737
   80SOL     OW  267   3.988   1.672   1.137
   80SOL    HW1  268   3.914   1.674   1.205
   80SOL    HW2  269   4.027   1.580   1.134
   81SOL     OW  270   2.057   3.243   2.759
   81SOL    HW1  271   1.980   3.235   2.823
   81SOL    HW2  272   2.054   3.332   2.714
   82SOL     OW  273   3.420   0.120   0.933
   82SOL    HW1  274   3.512   0.081   0.936
   82SOL    HW2  275   3.413   0.182   0.854
   83SOL     OW  276   0.325   3.969   2.914
   83SOL    HW1  277   0.266   3.934   2.987
   83SOL    HW2  278   0.386   3.896   2.883
   84SOL     OW  279   1.453   0.102   1.588
   84SOL    HW1  280   1.465   0.197   1.562
   84SOL    HW2  281   1.395   0.097   1.670
   85SOL     OW  282   3.555   0.278   0.292
   85SOL    HW1  283   3.633   0.293   0.352
   85SOL    HW2  284   3.487   0.220   0.338
   86SOL     OW  285   0.793   3.819   2.003
   86SOL    HW1  286   0.830   3.907   2.034
   86SOL    HW2  287   0.833   3.796   1.914
   87SOL     OW  288   3.886   1.983   2.727
   87SOL    HW1  289   3.865   1.897   2.772
   87SOL    HW2  290   3.915   2.051   2.795
   88SOL     OW  291   4.352   0.910   4.514
   88SOL    HW1  292   4.400   0.874   4.594
   88SOL    HW2  293   4.371   0.852   4.435
   89SOL     OW  294   4.722   1.914   0.498
   89SOL    HW1  295   4.695   1.862   0.416
   89SOL    HW2  296   4.731   2.010   0.474
   90SOL     OW  297   4.989   4.426   0.385
   90SOL    HW1  298   4.989   4.521   0.353
   90SOL    HW2  299   4.958   4.422   0.480
   91SOL     OW  300   2.388   0.649   1.507
   91SOL    HW1  301   2.394   0.642   1.606
   91SOL    HW2  302   2.301   0.609   1.476
   92SOL     OW  303   2.656   0.143   1.882
   92SOL    HW1  304   2.641   0.205   1.806
   92SOL    HW2  305   2.641   0.049   1.853
   93SOL     OW  306   1.768   0.456   2.909
   93SOL    HW1  307   1.758   0.555   2.919
   93SOL    HW2  308   1.744   0.429   2.816
   94SOL     OW  309   0.592   4.845   3.112
   94SOL    HW1  310   0.642   4.915   3.061
   94SOL    HW2  311   0.580   4.875   3.207
   95SOL     OW  312   0.364   1.596   3.677
   95SOL    HW1  313   0.434   1.554   3.735
   95SOL    HW2  314   0.315   1.525   3.627
   96SOL     OW  315   0.803   2.529   1.229
   96SOL    HW1  316   0.812   2.577   1.317
   96SOL    HW2  317   0.762   2.439   1.244
   97SOL     OW  318   1.979   4.780   4.163
   97SOL    HW1  319   2.041   4.845   4.206
   97SOL    HW2  320   1.958   4.706   4.227
   98SOL     OW  321   1.207   4.350   0.375
   98SOL    HW1  322   1.275   4.344   0.447
   98SOL    HW2  323   1.250   4.383   0.291
   99SOL     OW  324   2.818   3.491   0.558
   99SOL    HW1  325   2.818   3.523   0.653
   99SOL    HW2  326   2.767   3.555   0.501
  100SOL     OW  327   0.607   2.128   1.653
  100SOL    HW1  328   0.515   2.090   1.664
  100SOL    HW2  329   0.627   2.140   1.556
  101SOL     OW  330   3.723   0.796   4.530
  101SOL    HW1  331   3.768   0.884   4.517
  101SOL    HW2  332   3.724   0.772   4.627
  102SOL     OW  333   1.708   0.186   4.657
  102SOL    HW1  334   1.803   0.202   4.632
  102SOL    HW2  335   1.683   0.091   4.637
  103SOL     OW  336   4.292   2.131   4.475
  103SOL    HW1  337   4.235   2.049   4.485
  103SOL    HW2  338   4.335   2.152   4.563
  104SOL     OW  339   4.845   1.046   3.231
  104SOL    HW1  340   4.869   1.031   3.326
  104SOL    HW2  341   4.863   1.141   3.206
  105SOL     OW  342   0.652   3.979   1.058
  105SOL    HW1  343   0.556   3.982   1.030
  105SOL    HW2  344   0.658   3.945   1.152
  106SOL     OW  345   1.871   4.512   0.560
  106SOL    HW1  346   1.943   4.578   0.580
  106SOL    HW2  347   1.790   4.533   0.614
  107SOL     OW  348   3.288   3.537   0.818
  107SOL    HW1  349   3.226   3.474   0.864
  107SOL    HW2  350   3.358   3.485   0.769
  108SOL     OW  351   1.606   4.492   2.898
  108SOL    HW1  352   1.583   4.415   2.957
  108SOL    HW2  353   1.601   4.463   2.802
  109SOL     OW  354   1.008   2.297   2.120
  109SOL    HW1  355   0.955   2.212   2.119
  109SOL    HW2  356   1.018   2.330   2.026
  110SOL     OW  357   4.066   4.578   1.137
  110SOL    HW1  358   4.108   4.549   1.223
  110SOL    HW2  359   4.085   4.510   1.066
  111SOL     OW  360   4.340   1.183   4.495
  111SOL    HW1  361   4.368   1.211   4.403
  111SOL    HW2  362   4.335   1.084   4.500
  112SOL     OW  363   4.534   1.081   2.088
  112SOL    HW1  364   4.624   1.120   2.070
  112SOL    HW2  365   4.542   1.004   2.151
  113SOL     OW  366   3.402   2.820   3.380
  113SOL    HW1  367   3.465   2.743   3.380
  113SOL    HW2  368   3.331   2.805   3.312
  114SOL     OW  369   3.228   4.303   1.443
  114SOL    HW1  370   3.261   4.235   1.508
  114SOL    HW2  371   3.224   4.392   1.486
  115SOL     OW  372   1.282   4.707   0.358
  115SOL    HW1  373   1.324   4.730   0.446
  115SOL    HW2  374   1.347   4.725   0.284
  116SOL     OW  375   3.465   1.472   4.291
  116SOL    HW1  376   3.560   1.446   4.309
  116SOL    HW2  377   3.404   1.398   4.318
  117SOL     OW  378   0.715   0.417   3.489
  117SOL    HW1  379   0.689   0.449   3.398
  117SOL    HW2  380   0.643   0.359   3.526
  118SOL     OW  381   0.140   2.872   2.155
  118SOL    HW1  382   0.206   2.947   2.150
  118SOL    HW2  383   0.162   2.803   2.087
  119SOL     OW  384   1.974   1.875   4.993
  119SOL    HW1  385   2.035   1.944   5.032
  119SOL    HW2  386   1.947   1.902   4.901
  120SOL     OW  387   4.438   3.967   3.233
  120SOL    HW1  388   4.389   3.887   3.197
  120SOL    HW2  389   4.519   3.936   3.283
  121SOL     OW  390   3.040   4.334   4.125
  121SOL    HW1  391   3.080   4.351   4.215
  121SOL    HW2  392   3.076   4.399   4.059
  122SOL     OW  393   4.366   2.382   3.950
  122SOL    HW1  394   4.329   2.321   3.880
  122SOL    HW2  395   4.321   2.471   3.944
  123SOL     OW  396   1.863   1.320   2.885
  123SOL    HW1  397   1.808   1.367   2.816
  123SOL    HW2  398   1.957   1.352   2.880
  124SOL     OW  399   1.417   1.595   4.210
  124SOL    HW1  400   1.506   1.551   4.198
  124SOL    HW2  401   1.349   1.526   4.235
  125SOL     OW  402   0.025   3.670   1.301
  125SOL    HW1  403   0.123   3.651   1.313
  125SOL    HW2  404   0.006   3.764   1.329
  126SOL     OW  405   3.471   4.039   3.968
  126SOL    HW1  406   3.571   4.043   3.970
  126SOL    HW2  407   3.440   3.955   4.012
  127SOL     OW  408   2.753   2.245   3.730
  127SOL    HW1  409   2.773   2.189   3.650
  127SOL    HW2  410   2.739   2.187   3.810
  128SOL     OW  411   2.482   3.880   2.443
  128SOL    HW1  412   2.443   3.949   2.383
  128SOL    HW2  413   2.490   3.917   2.536
  129SOL     OW  414   1.381   1.023   2.504
  129SOL    HW1  415   1.455   0.956   2.513
  129SOL    HW2  416   1.420   1.114   2.490
  130SOL     OW  417   3.335   3.266   0.472
  130SOL    HW1  418   3.243   3.260   0.509
  130SOL    HW2  419   3.338   3.228   0.380
  131SOL     OW  420   0.342   4.347   4.120
  131SOL    HW1  421   0.403   4.273   4.093
  131SOL    HW2  422   0.255   4.309   4.151
  132SOL     OW  423   2.421   0.154   2.818
  132SOL    HW1  424   2.424   0.156   2.918
  132SOL    HW2  425   2.502   0.199   2.781
  133SOL     OW  426   2.445   3.456   1.795
  133SOL    HW1  427   2.398   3.415   1.874
  133SOL    HW2  428   2.520   3.397   1.766
  134SOL     OW  429   1.590   0.445   1.159
  134SOL    HW1  430   1.639   0.362   1.184
  134SOL    HW2  431   1.497   0.422   1.132
  135SOL     OW  432   2.598   2.702   0.291
  135SOL    HW1  433   2.585   2.786   0.342
  135SOL    HW2  434   2.518   2.644   0.300
  136SOL     OW  435   2.806   3.871   1.203
  136SOL    HW1  436   2.719   3.901   1.165
  136SOL    HW2  437   2.794   3.846   1.299
  137SOL     OW  438   1.268   2.459   0.812
  137SOL    HW1  439   1.263   2.453   0.912
  137SOL    HW2  440   1.364   2.466   0.784
  138SOL     OW  441   2.246   4.479   3.019
  138SOL    HW1  442   2.278   4.458   3.111
  138SOL    HW2  443   2.305   4.549   2.978
  139SOL     OW  444   0.544   4.889   2.789
  139SOL    HW1  445   0.470   4.881   2.855
  139SOL    HW2  446   0.624   4.930   2.833
  140SOL     OW  447   1.802   2.492   3.798
  140SOL    HW1  448   1.829   2.434   3.874
  140SOL    HW2  449   1.801   2.438   3.714
  141SOL     OW  450   4.072   3.069   4.564
  141SOL    HW1  451   4.005   3.011   4.517
  141SOL    HW2  452   4.138   3.105   4.497
  142SOL     OW  453   3.104   0.298   3.652
  142SOL    HW1  454   3.020   0.343   3.620
  142SOL    HW2  455   3.176   0.366   3.663
  143SOL     OW  456   0.793   3.658   4.920
  143SOL    HW1  457   0.804   3.756   4.904
  143SOL    HW2  458   0.881   3.619   4.948
  144SOL     OW  459   0.809   1.959   2.890
  144SOL    HW1  460   0.793   2.056   2.903
  144SOL    HW2  461   0.726   1.908   2.913
  145SOL     OW  462   0.691   4.986   0.088
  145SOL    HW1  463   0.753   0.019   0.049
  145SOL    HW2  464   0.677   5.005   0.185
  146SOL     OW  465   3.563   4.299   0.549
  146SOL    HW1  466   3.551   4.361   0.472
  146SOL    HW2  467   3.621   4.223   0.522
  147SOL     OW  468   2.960   3.840   2.468
  147SOL    HW1  469   2.994   3.928   2.501
  147SOL    HW2  470   2.930   3.785   2.547
  148SOL     OW  471   1.145   1.955   0.426
  148SOL    HW1  472   1.053   1.941   0.462
  148SOL    HW2  473   1.208   1.891   0.470
  149SOL     OW  474   3.039   2.839   0.117
  149SOL    HW1  475   2.992   2.924   0.092
  149SOL    HW2  476   3.137   2.850   0.108
  150SOL     OW  477   2.516   1.620   0.860
  150SOL    HW1  478   2.449   1.620   0.786
  150SOL    HW2  479   2.529   1.526   0.893
  151SOL     OW  480   3.353   3.956   2.831
  151SOL    HW1  481   3.405   3.973   2.914
  151SOL    HW2  482   3.319   4.043   2.795
  152SOL     OW  483   2.392   3.569   1.548
  152SOL    HW1  484   2.366   3.659   1.585
  152SOL    HW2  485   2.429   3.512   1.622
  153SOL     OW  486   1.045   3.559   1.032
  153SOL    HW1  487   1.069   3.498   1.107
  153SOL    HW2  488   1.009   3.505   0.955
  154SOL     OW  489   1.657   4.481   0.763
  154SOL    HW1  490   1.668   4.397   0.710
  154SOL    HW2  491   1.561   4.510   0.758
  155SOL     OW  492   4.570   0.094   4.731
  155SOL    HW1  493   4.620   0.131   4.652
  155SOL    HW2  494   4.634   0.045   4.790
  156SOL     OW  495   2.010   0.498   4.632
  156SOL    HW1  496   2.089   0.558   4.640
  156SOL    HW2  497   1.971   0.507   4.540
  157SOL     OW  498   3.077   4.405   3.091
  157SOL    HW1  499   2.987   4.422   3.132
  157SOL    HW2  500   3.145   4.395   3.164
  158SOL     OW  501   0.719   2.835   3.868
  158SOL    HW1  502   0.691   2.770   3.938
  158SOL    HW2  503   0.741   2.923   3.910
  159SOL     OW  504   4.643   1.480   0.203
  159SOL    HW1  505   4.565   1.476   0.141
  159SOL    HW2  506   4.610   1.494   0.297
  160SOL     OW  507   3.863   1.186   1.550
  160SOL    HW1  508   3.937   1.210   1.612
  160SOL    HW2  509   3.824   1.269   1.510
  161SOL     OW  510   0.252   2.404   0.861
  161SOL    HW1  511   0.318   2.364   0.925
  161SOL    HW2  512   0.161   2.399   0.901
  162SOL     OW  513   4.070   0.272   0.476
  162SOL    HW1  514   4.080   0.265   0.575
  162SOL    HW2  515   4.154   0.309   0.436
  163SOL     OW  516   1.979   3.460   3.498
  163SOL    HW1  517   2.048   3.447   3.427
  163SOL    HW2  518   1.938   3.373   3.521
  164SOL     OW  519   4.943   1.237   0.527
  164SOL    HW1  520   4.995   1.256   0.443
  164SOL    HW2  521   4.992   1.274   0.606
  165SOL     OW  522   4.375   0.967   2.802
  165SOL    HW1  523   4.352   1.003   2.892
  165SOL    HW2  524   4.394   1.042   2.740
  166SOL     OW  525   3.983   3.617   1.964
  166SOL    HW1  526   3.991   3.528   1.919
  166SOL    HW2  527   3.911   3.614   2.033
  167SOL     OW  528   3.079   3.917   3.050
  167SOL    HW1  529   3.126   3.916   3.138
  167SOL    HW2  530   3.088   4.007   3.008
  168SOL     OW  531   1.552   1.241   2.469
  168SOL    HW1  532   1.552   1.231   2.568
  168SOL    HW2  533   1.641   1.212   2.432
  169SOL     OW  534   2.082   3.595   2.017
  169SOL    HW1  535   2.003   3.657   2.013
  169SOL    HW2  536   2.101   3.560   1.926
  170SOL     OW  537   2.135   4.866   1.014
  170SOL    HW1  538   2.148   4.790   1.078
  170SOL    HW2  539   2.187   4.848   0.930
  171SOL     OW  540   3.299   4.194   3.484
  171SOL    HW1  541   3.273   4.115   3.429
  171SOL    HW2  542   3.306   4.167   3.580
  172SOL     OW  543   2.978   3.082   0.460
  172SOL    HW1  544   2.890   3.126   0.476
  172SOL    HW2  545   3.052   3.147   0.478
  173SOL     OW  546   3.402   3.376   4.427
  173SOL    HW1  547   3.431   3.330   4.344
  173SOL    HW2  548   3.320   3.331   4.463
  174SOL     OW  549   0.747   1.717   4.941
  174SOL    HW1  550   0.810   1.719   4.863
  174SOL    HW2  551   0.785   1.770   5.017
  175SOL     OW  552   0.380   4.402   1.025
  175SOL    HW1  553   0.464   4.361   0.992
  175SOL    HW2  554   0.400   4.465   1.100
  176SOL     OW  555   0.795   3.881   0.807
  176SOL    HW1  556   0.819   3.935   0.887
  176SOL    HW2  557   0.724   3.815   0.831
  177SOL     OW  558   1.329   0.980   0.598
  177SOL    HW1  559   1.291   0.990   0.690
  177SOL    HW2  560   1.332   1.069   0.553
  178SOL     OW  561   3.157   3.618   4.518
  178SOL    HW1  562   3.191   3.678   4.591
  178SOL    HW2  563   3.088   3.667   4.465
  179SOL     OW  564   4.737   1.790   0.061
  179SOL    HW1  565   4.679   1.796   0.141
  179SOL    HW2  566   4.681   1.795   5.013
  180SOL     OW  567   0.273   3.394   1.895
  180SOL    HW1  568   0.253   3.379   1.798
  180SOL    HW2  569   0.356   3.450   1.904
  181SOL     OW  570   1.911   3.596   1.267
  181SOL    HW1  571   1.962   3.662   1.323
  181SOL    HW2  572   1.843   3.645   1.212
  182SOL     OW  573   4.970   4.398   1.259
  182SOL    HW1  574   0.025   4.440   1.262
  182SOL    HW2  575   4.921   4.415   1.344
  183SOL     OW  576   3.201   3.414   0.033
  183SOL    HW1  577   3.276   3.357   5.034
  183SOL    HW2  578   3.115   3.364   0.025
  184SOL     OW  579   3.942   0.110   2.871
  184SOL    HW1  580   4.021   0.159   2.909
  184SOL    HW2  581   3.932   0.022   2.917
  185SOL     OW  582   4.218   1.210   4.125
  185SOL    HW1  583   4.143   1.276   4.117
  185SOL    HW2  584   4.211   1.162   4.213
  186SOL     OW  585   2.709   2.999   2.163
  186SOL    HW1  586   2.751   3.080   2.121
  186SOL    HW2  587   2.777   2.953   2.221
  187SOL     OW  588   1.017   4.036   2.286
  187SOL    HW1  589   0.967   3.950   2.293
  187SOL    HW2  590   0.959   4.111   2.316
  188SOL     OW  591   1.323   0.803   1.796
  188SOL    HW1  592   1.289   0.792   1.703
  188SOL    HW2  593   1.353   0.897   1.810
  189SOL     OW  594   1.926   2.048   0.886
  189SOL    HW1  595   2.009   2.012   0.841
  189SOL    HW2  596   1.943   2.142   0.917
  190SOL     OW  597   4.113   4.202   2.123
  190SOL    HW1  598   4.081   4.149   2.045
  190SOL    HW2  599   4.074   4.165   2.207
  191SOL     OW  600   3.078   0.823   2.872
  191SOL    HW1  601   3.109   0.776   2.955
  191SOL    HW2  602   3.097   0.766   2.792
  192SOL     OW  603   3.092   3.841   4.317
  192SOL    HW1  604   3.162   3.913   4.322
  192SOL    HW2  605   3.003   3.880   4.339
  193SOL     OW  606   4.810   3.812   1.151
  193SOL    HW1  607   4.739   3.833   1.083
  193SOL    HW2  608   4.900   3.827   1.110
  194SOL     OW  609   0.685   4.019   1.621
  194SOL    HW1  610   0.596   4.035   1.579
  194SOL    HW2  611   0.684   3.930   1.667
  195SOL     OW  612   4.431   1.072   4.248
  195SOL    HW1  613   4.529   1.072   4.265
  195SOL    HW2  614   4.414   1.097   4.152
  196SOL     OW  615   3.285   2.719   0.709
  196SOL    HW1  616   3.295   2.627   0.671
  196SOL    HW2  617   3.229   2.775   0.648
  197SOL     OW  618   4.462   3.986   4.376
  197SOL    HW1  619   4.554   3.963   4.409
  197SOL    HW2  620   4.466   4.073   4.326
  198SOL     OW  621   2.592   2.792   4.379
  198SOL    HW1  622   2.535   2.778   4.461
  198SOL    HW2  623   2.620   2.704   4.343
  199SOL     OW  624   2.944   1.035   2.684
  199SOL    HW1  625   3.005   1.004   2.757
  199SOL    HW2  626   2.873   0.967   2.668
  200SOL     OW  627   4.480   0.532   4.900
  200SOL    HW1  628   4.490   0.597   4.824
  200SOL    HW2  629   4.542   0.455   4.885
  201SOL     OW  630   3.318   2.092   3.597
  201SOL    HW1  631   3.337   2.153   3.520
  201SOL    HW2  632   3.254   2.020   3.567
  202SOL     OW  633   4.322   2.353   0.790
  202SOL    HW1  634   4.248   2.331   0.726
  202SOL    HW2  635   4.284   2.397   0.871
  203SOL     OW  636   3.112   4.739   1.086
  203SOL    HW1  637   3.082   4.742   0.991
  203SOL    HW2  638   3.212   4.737   1.089
  204SOL     OW  639   3.841   4.201   2.947
  204SOL    HW1  640   3.804   4.229   2.858
  204SOL    HW2  641   3.838   4.278   3.010
  205SOL     OW  642   1.533   2.629   0.519
  205SOL    HW1  643   1.437   2.635   0.492
  205SOL    HW2  644   1.550   2.541   0.562
  206SOL     OW  645   4.439   4.725   4.774
  206SOL    HW1  646   4.408   4.817   4.748
  206SOL    HW2  647   4.470   4.726   4.869
  207SOL     OW  648   2.661   4.539   4.091
  207SOL    HW1  649   2.623   4.497   4.173
  207SOL    HW2  650   2.746   4.493   4.065
  208SOL     OW  651   3.410   1.023   0.137
  208SOL    HW1  652   3.370   0.932   0.151
  208SOL    HW2  653   3.498   1.028   0.184
  209SOL     OW  654   4.528   3.165   4.372
  209SOL    HW1  655   4.625   3.184   4.386
  209SOL    HW2  656   4.490   3.232   4.308
  210SOL     OW  657   0.878   3.712   4.659
  210SOL    HW1  658   0.866   3.647   4.733
  210SOL    HW2  659   0.846   3.802   4.687
  211SOL     OW  660   4.673   2.800   4.109
  211SOL    HW1  661   4.645   2.704   4.098
  211SOL    HW2  662   4.630   2.839   4.190
  212SOL     OW  663   2.512   0.344   2.460
  212SOL    HW1  664   2.426   0.394   2.447
  212SOL    HW2  665   2.540   0.350   2.556
  213SOL     OW  666   2.659   2.354   2.929
  213SOL    HW1  667   2.626   2.295   2.856
  213SOL    HW2  668   2.584   2.373   2.993
  214SOL     OW  669   1.375   0.583   3.231
  214SOL    HW1  670   1.303   0.543   3.288
  214SOL    HW2  671   1.346   0.672   3.198
  215SOL     OW  672   4.009   1.379   4.122
  215SOL    HW1  673   4.032   1.455   4.061
  215SOL    HW2  674   3.932   1.405   4.180
  216SOL     OW  675   4.923   2.136   2.401
  216SOL    HW1  676   5.011   2.113   2.359
  216SOL    HW2  677   4.870   2.052   2.413
  217SOL     OW  678   3.931   4.566   3.301
  217SOL    HW1  679   3.881   4.494   3.252
  217SOL    HW2  680   4.029   4.557   3.283
  218SOL     OW  681   3.716   2.464   4.447
  218SOL    HW1  682   3.621   2.447   4.473
  218SOL    HW2  683   3.745   2.553   4.483
  219SOL     OW  684   3.862   0.977   0.688
  219SOL    HW1  685   3.901   0.976   0.596
  219SOL    HW2  686   3.762   0.974   0.682
  220SOL     OW  687   2.328   3.087   3.930
  220SOL    HW1  688   2.258   3.028   3.889
  220SOL    HW2  689   2.283   3.167   3.971
  221SOL     OW  690   4.939   1.922   0.248
  221SOL    HW1  691   5.008   1.876   0.303
  221SOL    HW2  692   4.896   1.856   0.186
  222SOL     OW  693   3.850   1.411   4.371
  222SOL    HW1  694   3.932   1.369   4.411
  222SOL    HW2  695   3.781   1.423   4.443
  223SOL     OW  696   0.841   0.795   3.873
  223SOL    HW1  697   0.940   0.780   3.873
  223SOL    HW2  698   0.798   0.728   3.812
  224SOL     OW  699   2.811   0.683   3.143
  224SOL    HW1  700   2.867   0.624   3.084
  224SOL    HW2  701   2.827   0.659   3.239
  225SOL     OW  702   0.224   0.405   0.634
  225SOL    HW1  703   0.173   0.489   0.614
  225SOL    HW2  704   0.165   0.326   0.623
  226SOL     OW  705   3.391   1.703   3.502
  226SOL    HW1  706   3.441   1.758   3.569
  226SOL    HW2  707   3.314   1.756   3.466
  227SOL     OW  708   2.086   3.972   3.030
  227SOL    HW1  709   1.993   3.937   3.019
  227SOL    HW2  710   2.094   4.019   3.118
  228SOL     OW  711   2.618   0.758   4.554
  228SOL    HW1  712   2.548   0.732   4.621
  228SOL    HW2  713   2.698   0.794   4.602
  229SOL     OW  714   0.330   3.158   3.535
  229SOL    HW1  715   0.370   3.217   3.465
  229SOL    HW2  716   0.250   3.204   3.575
  230SOL     OW  717   0.422   3.213   2.367
  230SOL    HW1  718   0.518   3.188   2.380
  230SOL    HW2  719   0.416   3.300   2.318
  231SOL     OW  720   3.297   2.957   4.820
  231SOL    HW1  721   3.294   3.007   4.734
  231SOL    HW2  722   3.280   2.860   4.804
  232SOL     OW  723   4.688   0.469   4.357
  232SOL    HW1  724   4.674   0.413   4.439
  232SOL    HW2  725   4.726   0.412   4.285
  233SOL     OW  726   4.509   4.867   2.232
  233SOL    HW1  727   4.436   4.838   2.294
  233SOL    HW2  728   4.486   4.840   2.139
  234SOL     OW  729   3.459   2.201   4.242
  234SOL    HW1  730   3.425   2.287   4.204
  234SOL    HW2  731   3.559   2.200   4.238
  235SOL     OW  732   4.823   4.609   4.642
  235SOL    HW1  733   4.809   4.702   4.609
  235SOL    HW2  734   4.830   4.609   4.741
  236SOL     OW  735   0.129   3.848   2.576
  236SOL    HW1  736   0.080   3.919   2.527
  236SOL    HW2  737   0.207   3.888   2.625
  237SOL     OW  738   4.605   3.128   3.618
  237SOL    HW1  739   4.657   3.059   3.567
  237SOL    HW2  740   4.532   3.083   3.669
  238SOL     OW  741   4.777   1.204   2.042
  238SOL    HW1  742   4.830   1.262   2.103
  238SOL    HW2  743   4.792   1.233   1.947
  239SOL     OW  744   1.518   3.184   1.869
  239SOL    HW1  745   1.478   3.094   1.854
  239SOL    HW2  746   1.514   3.237   1.784
  240SOL     OW  747   0.746   0.527   3.238
  240SOL    HW1  748   0.807   0.605   3.251
  240SOL    HW2  749   0.763   0.486   3.149
  241SOL     OW  750   0.821   1.638   1.380
  241SOL    HW1  751   0.803   1.567   1.448
  241SOL    HW2  752   0.811   1.599   1.288
  242SOL     OW  753   4.004   0.764   3.928
  242SOL    HW1  754   3.951   0.817   3.862
  242SOL    HW2  755   3.943   0.701   3.977
  243SOL     OW  756   2.939   2.047   2.443
  243SOL    HW1  757   2.940   1.952   2.472
  243SOL    HW2  758   2.846   2.073   2.415
  244SOL     OW  759   4.645   1.821   2.781
  244SOL    HW1  760   4.636   1.736   2.832
  244SOL    HW2  761   4.559   1.842   2.734
  245SOL     OW  762   1.942   4.017   2.667
  245SOL    HW1  763   1.901   4.107   2.678
  245SOL    HW2  764   1.934   3.988   2.571
  246SOL     OW  765   3.216   2.585   0.410
  246SOL    HW1  766   3.240   2.678   0.384
  246SOL    HW2  767   3.286   2.548   0.471
  247SOL     OW  768   0.819   4.693   2.697
  247SOL    HW1  769   0.752   4.724   2.630
  247SOL    HW2  770   0.782   4.706   2.789
  248SOL     OW  771   2.982   0.988   3.115
  248SOL    HW1  772   2.986   0.906   3.058
  248SOL    HW2  773   2.978   1.069   3.057
  249SOL     OW  774   0.022   4.477   4.550
  249SOL    HW1  775   4.992   4.553   4.551
  249SOL    HW2  776   0.115   4.512   4.558
  250SOL     OW  777   3.682   3.711   4.637
  250SOL    HW1  778   3.672   3.612   4.631
  250SOL    HW2  779   3.718   3.746   4.550
  251SOL     OW  780   1.479   4.639   4.110
  251SOL    HW1  781   1.402   4.688   4.069
  251SOL    HW2  782   1.563   4.690   4.093
  252SOL     OW  783   3.786   2.636   0.472
  252SOL    HW1  784   3.702   2.610   0.426
  252SOL    HW2  785   3.790   2.592   0.562
  253SOL     OW  786   4.798   2.583   4.615
  253SOL    HW1  787   4.857   2.630   4.682
  253SOL    HW2  788   4.705   2.618   4.622
  254SOL     OW  789   4.495   4.620   3.236
  254SOL    HW1  790   4.558   4.542   3.232
  254SOL    HW2  791   4.451   4.623   3.325
  255SOL     OW  792   1.798   2.124   2.261
  255SOL    HW1  793   1.856   2.088   2.334
  255SOL    HW2  794   1.767   2.048   2.203
  256SOL     OW  795   1.480   3.686   2.368
  256SOL    HW1  796   1.487   3.772   2.317
  256SOL    HW2  797   1.471   3.611   2.303
  257SOL     OW  798   2.239   2.393   2.173
  257SOL    HW1  799   2.175   2.457   2.214
  257SOL    HW2  800   2.192   2.307   2.152
  258SOL     OW  801   3.576   2.607   3.358
  258SOL    HW1  802   3.653   2.607   3.422
  258SOL    HW2  803   3.524   2.522   3.368
  259SOL     OW  804   1.164   4.399   3.224
  259SOL    HW1  805   1.115   4.444   3.298
  259SOL    HW2  806   1.256   4.375   3.254
  260SOL     OW  807   4.971   2.559   1.843
  260SOL    HW1  808   0.005   2.596   1.905
  260SOL    HW2  809   4.881   2.566   1.885
  261SOL     OW  810   4.187   5.000   2.568
  261SOL    HW1  811   4.213   0.026   2.493
  261SOL    HW2  812   4.091   5.013   2.589
  262SOL     OW  813   0.964   2.156   1.680
  262SOL    HW1  814   1.000   2.180   1.770
  262SOL    HW2  815   0.867   2.177   1.676
  263SOL     OW  816   3.209   4.658   0.609
  263SOL    HW1  817   3.239   4.648   0.704
  263SOL    HW2  818   3.210   4.569   0.564
  264SOL     OW  819   2.659   0.103   4.948
  264SOL    HW1  820   2.611   0.024   4.910
  264SOL    HW2  821   2.610   0.187   4.923
  265SOL     OW  822   3.832   4.718   3.893
  265SOL    HW1  823   3.821   4.749   3.799
  265SOL    HW2  824   3.747   4.674   3.924
  266SOL     OW  825   1.791   4.003   3.517
  266SOL    HW1  826   1.791   4.045   3.426
  266SOL    HW2  827   1.808   3.904   3.508
  267SOL     OW  828   4.316   3.496   3.999
  267SOL    HW1  829   4.268   3.582   3.982
  267SOL    HW2  830   4.254   3.432   4.045
  268SOL     OW  831   4.263   0.803   0.606
  268SOL    HW1  832   4.195   0.766   0.543
  268SOL    HW2  833   4.355   0.776   0.576
  269SOL     OW  834   4.167   1.780   3.288
  269SOL    HW1  835   4.207   1.871   3.274
  269SOL    HW2  836   4.238   1.717   3.320
  270SOL     OW  837   0.652   4.265   1.744
  270SOL    HW1  838   0.556   4.295   1.750
  270SOL    HW2  839   0.657   4.181   1.690
  271SOL     OW  840   1.071   3.448   0.765
  271SOL    HW1  841   1.045   3.364   0.812
  271SOL    HW2  842   1.169   3.446   0.746
  272SOL     OW  843   1.941   4.718   4.574
  272SOL    HW1  844   1.937   4.687   4.669
  272SOL    HW2  845   1.864   4.679   4.523
  273SOL     OW  846   0.650   2.705   0.551
  273SOL    HW1  847   0.690   2.614   0.536
  273SOL    HW2  848   0.669   2.735   0.644
  274SOL     OW  849   1.186   1.787   3.381
  274SOL    HW1  850   1.180   1.807   3.479
  274SOL    HW2  851   1.251   1.848   3.338
  275SOL     OW  852   4.606   0.941   1.052
  275SOL    HW1  853   4.635   0.847   1.034
  275SOL    HW2  854   4.593   0.954   1.150
  276SOL     OW  855   1.781   3.598   0.033
  276SOL    HW1  856   1.710   3.644   0.086
  276SOL    HW2  857   1.842   3.550   0.096
  277SOL     OW  858   4.997   2.861   1.876
  277SOL    HW1  859   4.911   2.824   1.841
  277SOL    HW2  860   4.997   2.853   1.976
  278SOL     OW  861   1.086   1.136   4.905
  278SOL    HW1  862   1.094   1.211   4.970
  278SOL    HW2  863   1.085   1.173   4.812
  279SOL     OW  864   1.968   2.795   3.124
  279SOL    HW1  865   2.007   2.878   3.163
  279SOL    HW2  866   1.879   2.777   3.167
  280SOL     OW  867   4.239   3.174   2.863
  280SOL    HW1  868   4.233   3.255   2.921
  280SOL    HW2  869   4.313   3.115   2.895
  281SOL     OW  870   3.037   4.328   1.941
  281SOL    HW1  871   2.977   4.279   2.004
  281SOL    HW2  872   2.985   4.399   1.894
  282SOL     OW  873   0.607   1.701   4.574
  282SOL    HW1  874   0.596   1.603   4.588
  282SOL    HW2  875   0.685   1.734   4.628
  283SOL     OW  876   2.650   2.406   1.767
  283SOL    HW1  877   2.603   2.378   1.851
  283SOL    HW2  878   2.584   2.413   1.692
  284SOL     OW  879   1.273   3.967   2.346
  284SOL    HW1  880   1.182   4.008   2.353
  284SOL    HW2  881   1.313   3.988   2.257
  285SOL     OW  882   0.815   1.787   1.699
  285SOL    HW1  883   0.774   1.787   1.608
  285SOL    HW2  884   0.772   1.857   1.756
  286SOL     OW  885   2.788   4.231   2.030
  286SOL    HW1  886   2.747   4.153   2.078
  286SOL    HW2  887   2.718   4.281   1.981
  287SOL     OW  888   1.913   4.471   2.757
  287SOL    HW1  889   1.897   4.472   2.658
  287SOL    HW2  890   1.874   4.388   2.797
  288SOL     OW  891   1.520   1.496   0.471
  288SOL    HW1  892   1.589   1.466   0.537
  288SOL    HW2  893   1.439   1.528   0.520
  289SOL     OW  894   2.603   1.323   0.657
  289SOL    HW1  895   2.678   1.389   0.665
  289SOL    HW2  896   2.617   1.266   0.576
  290SOL     OW  897   0.855   2.145   0.709
  290SOL    HW1  898   0.918   2.106   0.776
  290SOL    HW2  899   0.895   2.229   0.671
  291SOL     OW  900   1.557   3.405   4.198
  291SOL    HW1  901   1.618   3.431   4.123
  291SOL    HW2  902   1.525   3.312   4.185
  292SOL     OW  903   1.207   1.764   2.576
  292SOL    HW1  904   1.154   1.755   2.660
  292SOL    HW2  905   1.274   1.689   2.572
  293SOL     OW  906   0.914   1.923   4.329
  293SOL    HW1  907   0.909   2.000   4.393
  293SOL    HW2  908   1.010   1.901   4.311
  294SOL     OW  909   4.218   2.033   3.162
  294SOL    HW1  910   4.199   2.046   3.065
  294SOL    HW2  911   4.281   2.104   3.193
  295SOL     OW  912   2.193   3.677   0.811
  295SOL    HW1  913   2.213   3.765   0.855
  295SOL    HW2  914   2.223   3.680   0.716
  296SOL     OW  915   0.375   1.668   1.203
  296SOL    HW1  916   0.472   1.695   1.202
  296SOL    HW2  917   0.339   1.674   1.110
  297SOL     OW  918   0.219   3.995   4.275
  297SOL    HW1  919   0.240   3.989   4.373
  297SOL    HW2  920   0.289   3.948   4.222
  298SOL     OW  921   0.270   2.442   4.396
  298SOL    HW1  922   0.291   2.508   4.468
  298SOL    HW2  923   0.173   2.420   4.398
  299SOL     OW  924   1.413   1.285   4.544
  299SOL    HW1  925   1.383   1.356   4.608
  299SOL    HW2  926   1.339   1.220   4.529
  300SOL     OW  927   2.108   3.405   2.214
  300SOL    HW1  928   2.082   3.485   2.161
  300SOL    HW2  929   2.051   3.399   2.296
  301SOL     OW  930   4.431   2.706   3.802
  301SOL    HW1  931   4.380   2.657   3.731
  301SOL    HW2  932   4.529   2.692   3.788
  302SOL     OW  933   3.153   1.611   2.007
  302SOL    HW1  934   3.057   1.596   2.028
  302SOL    HW2  935   3.164   1.631   1.910
  303SOL     OW  936   3.195   4.536   3.670
  303SOL    HW1  937   3.184   4.576   3.761
  303SOL    HW2  938   3.138   4.586   3.604
  304SOL     OW  939   4.695   1.070   4.463
  304SOL    HW1  940   4.645   0.988   4.490
  304SOL    HW2  941   4.656   1.149   4.510
  305SOL     OW  942   0.918   1.454   0.409
  305SOL    HW1  943   0.977   1.468   0.488
  305SOL    HW2  944   0.898   1.357   0.398
  306SOL     OW  945   2.323   2.814   0.609
  306SOL    HW1  946   2.283   2.788   0.697
  306SOL    HW2  947   2.375   2.737   0.572
  307SOL     OW  948   4.943   3.808   4.404
  307SOL    HW1  949   4.911   3.847   4.317
  307SOL    HW2  950   4.983   3.718   4.387
  308SOL     OW  951   2.027   2.727   4.004
  308SOL    HW1  952   2.085   2.665   3.950
  308SOL    HW2  953   1.956   2.674   4.050
  309SOL     OW  954   4.890   3.858   3.968
  309SOL    HW1  955   4.823   3.923   4.005
  309SOL    HW2  956   4.948   3.824   4.041
  310SOL     OW  957   5.000   5.030   4.630
  310SOL    HW1  958   0.013   5.029   4.718
  310SOL    HW2  959   0.006   0.064   4.571
  311SOL     OW  960   3.389   4.535   2.587
  311SOL    HW1  961   3.359   4.459   2.528
  311SOL    HW2  962   3.334   4.616   2.568
  312SOL     OW  963   0.629   0.065   4.304
  312SOL    HW1  964   0.683   0.024   4.377
  312SOL    HW2  965   0.666   0.038   4.215
  313SOL     OW  966   1.379   4.199   2.788
  313SOL    HW1  967   1.447   4.185   2.716
  313SOL    HW2  968   1.294   4.152   2.763
  314SOL     OW  969   2.674   3.683   2.990
  314SOL    HW1  970   2.762   3.674   3.036
  314SOL    HW2  971   2.627   3.595   2.991
  315SOL     OW  972   2.114   3.901   3.989
  315SOL    HW1  973   2.016   3.887   3.980
  315SOL    HW2  974   2.139   3.990   3.951
  316SOL     OW  975   3.391   0.486   0.241
  316SOL    HW1  976   3.456   0.410   0.244
  316SOL    HW2  977   3.303   0.454   0.207
  317SOL     OW  978   3.818   1.226   3.899
  317SOL    HW1  979   3.779   1.312   3.932
  317SOL    HW2  980   3.917   1.233   3.896
  318SOL     OW  981   4.075   1.613   0.569
  318SOL    HW1  982   4.094   1.709   0.548
  318SOL    HW2  983   4.098   1.596   0.665
  319SOL     OW  984   2.275   4.835   3.198
  319SOL    HW1  985   2.308   4.928   3.211
  319SOL    HW2  986   2.179   4.837   3.171
  320SOL     OW  987   4.238   2.276   3.632
  320SOL    HW1  988   4.158   2.335   3.628
  320SOL    HW2  989   4.211   2.182   3.612
  321SOL     OW  990   4.533   0.537   2.772
  321SOL    HW1  991   4.453   0.484   2.745
  321SOL    HW2  992   4.610   0.476   2.789
  322SOL     OW  993   3.948   0.955   1.436
  322SOL    HW1  994   3.910   1.037   1.478
  322SOL    HW2  995   3.887   0.924   1.363
  323SOL     OW  996   4.007   4.202   1.471
  323SOL    HW1  997   4.081   4.146   1.434
  323SOL    HW2  998   3.938   4.142   1.511
  324SOL     OW  999   0.960   0.088   0.718
  324SOL    HW1 1000   0.932   0.058   0.809
  324SOL    HW2 1001   0.997   0.011   0.667
  325SOL     OW 1002   0.110   3.024   4.466
  325SOL    HW1 1003   0.066   3.048   4.380
  325SOL    HW2 1004   0.109   3.103   4.527
  326SOL     OW 1005   3.045   4.660   3.872
  326SOL    HW1 1006   3.063   4.755   3.845
  326SOL    HW2 1007   3.044   4.654   3.972
  327SOL     OW 1008   2.051   2.328   3.709
  327SOL    HW1 1009   2.069   2.386   3.629
  327SOL    HW2 1010   2.095   2.239   3.696
  328SOL     OW 1011   4.433   3.127   3.996
  328SOL    HW1 1012   4.410   3.210   3.945
  328SOL    HW2 1013   4.529   3.129   4.023
  329SOL     OW 1014   2.650   3.276   0.108
  329SOL    HW1 1015   2.728   3.222   0.141
  329SOL    HW2 1016   2.674   3.320   0.022
  330SOL     OW 1017   1.716   4.801   2.729
  330SOL    HW1 1018   1.788   4.831   2.666
  330SOL    HW2 1019   1.648   4.748   2.678
  331SOL     OW 1020   2.175   3.454   0.969
  331SOL    HW1 1021   2.157   3.529   0.905
  331SOL    HW2 1022   2.192   3.492   1.060
  332SOL     OW 1023   1.456   1.577   1.974
  332SOL    HW1 1024   1.530   1.569   1.907
  332SOL    HW2 1025   1.493   1.563   2.066
  333SOL     OW 1026   0.246   1.035   1.798
  333SOL    HW1 1027   0.222   1.028   1.701
  333SOL    HW2 1028   0.162   1.046   1.852
  334SOL     OW 1029   3.988   0.381   4.996
  334SOL    HW1 1030   3.997   0.285   5.022
  334SOL    HW2 1031   3.913   0.390   4.930
  335SOL     OW 1032   0.211   2.305   0.600
  335SOL    HW1 1033   0.251   2.345   0.682
  335SOL    HW2 1034   0.141   2.239   0.626
  336SOL     OW 1035   1.325   2.920   3.801
  336SOL    HW1 1036   1.241   2.972   3.812
  336SOL    HW2 1037   1.348   2.874   3.888
  337SOL     OW 1038   1.844   1.046   3.025
  337SOL    HW1 1039   1.786   1.038   2.944
  337SOL    HW2 1040   1.854   1.143   3.049
  338SOL     OW 1041   3.197   1.701   1.746
  338SOL    HW1 1042   3.183   1.792   1.785
  338SOL    HW2 1043   3.248   1.710   1.660
  339SOL     OW 1044   0.034   4.798   3.177
  339SOL    HW1 1045   0.080   4.787   3.090
  339SOL    HW2 1046   0.085   4.862   3.234
  340SOL     OW 1047   4.733   4.674   0.635
  340SOL    HW1 1048   4.785   4.596   0.672
  340SOL    HW2 1049   4.785   4.715   0.560
  341SOL     OW 1050   3.086   3.559   4.828
  341SOL    HW1 1051   3.076   3.460   4.818
  341SOL    HW2 1052   3.093   3.583   4.925
  342SOL     OW 1053   0.238   3.261   0.990
  342SOL    HW1 1054   0.179   3.340   0.976
  342SOL    HW2 1055   0.308   3.258   0.919
  343SOL     OW 1056   0.394   3.791   4.213
  343SOL    HW1 1057   0.470   3.748   4.163
  343SOL    HW2 1058   0.372   3.735   4.292
  344SOL     OW 1059   2.876   1.095   4.461
  344SOL    HW1 1060   2.968   1.124   4.483
  344SOL    HW2 1061   2.809   1.155   4.506
  345SOL     OW 1062   2.965   0.708   4.387
  345SOL    HW1 1063   2.919   0.702   4.298
  345SOL    HW2 1064   2.981   0.804   4.410
  346SOL     OW 1065   3.941   3.343   1.922
  346SOL    HW1 1066   3.847   3.325   1.950
  346SOL    HW2 1067   3.950   3.323   1.824
  347SOL     OW 1068   0.352   4.836   2.558
  347SOL    HW1 1069   0.418   4.869   2.625
  347SOL    HW2 1070   0.372   4.877   2.469
  348SOL     OW 1071   4.431   4.394   2.626
  348SOL    HW1 1072   4.411   4.408   2.724
  348SOL    HW2 1073   4.496   4.463   2.595
  349SOL     OW 1074   0.227   4.450   2.040
  349SOL    HW1 1075   0.164   4.459   2.118
  349SOL    HW2 1076   0.177   4.411   1.962
  350SOL     OW 1077   4.421   4.440   3.699
  350SOL    HW1 1078   4.449   4.354   3.743
  350SOL    HW2 1079   4.499   4.481   3.652
  351SOL     OW 1080   3.721   2.273   0.026
  351SOL    HW1 1081   3.659   2.236   0.095
  351SOL    HW2 1082   3.786   2.335   0.069
  352SOL     OW 1083   1.531   3.147   0.221
  352SOL    HW1 1084   1.534   3.117   0.316
  352SOL    HW2 1085   1.449   3.111   0.177
  353SOL     OW 1086   0.901   0.703   4.589
  353SOL    HW1 1087   0.879   0.698   4.492
  353SOL    HW2 1088   0.822   0.738   4.640
  354SOL     OW 1089   4.923   1.825   2.852
  354SOL    HW1 1090   4.831   1.831   2.815
  354SOL    HW2 1091   4.982   1.891   2.806
  355SOL     OW 1092   3.720   3.601   2.680
  355SOL    HW1 1093   3.665   3.662   2.738
  355SOL    HW2 1094   3.778   3.655   2.620
  356SOL     OW 1095   1.020   1.672   0.086
  356SOL    HW1 1096   0.960   1.597   0.058
  356SOL    HW2 1097   0.967   1.739   0.139
  357SOL     OW 1098   1.597   3.560   0.840
  357SOL    HW1 1099   1.552   3.560   0.751
  357SOL    HW2 1100   1.692   3.531   0.830
  358SOL     OW 1101   0.604   0.058   2.055
  358SOL    HW1 1102   0.675   0.117   2.016
  358SOL    HW2 1103   0.516   0.081   2.013
  359SOL     OW 1104   1.187   1.506   2.922
  359SOL    HW1 1105   1.110   1.528   2.863
  359SOL    HW2 1106   1.179   1.412   2.954
  360SOL     OW 1107   3.396   4.272   4.075
  360SOL    HW1 1108   3.466   4.342   4.060
  360SOL    HW2 1109   3.423   4.187   4.031
  361SOL     OW 1110   4.746   0.444   2.070
  361SOL    HW1 1111   4.708   0.355   2.095
  361SOL    HW2 1112   4.697   0.479   1.989
  362SOL     OW 1113   4.670   3.666   3.600
  362SOL    HW1 1114   4.580   3.637   3.632
  362SOL    HW2 1115   4.725   3.586   3.576
  363SOL     OW 1116   4.598   1.728   2.205
  363SOL    HW1 1117   4.562   1.817   2.232
  363SOL    HW2 1118   4.665   1.739   2.132
  364SOL     OW 1119   3.519   4.256   4.865
  364SOL    HW1 1120   3.423   4.270   4.891
  364SOL    HW2 1121   3.525   4.245   4.766
  365SOL     OW 1122   1.713   3.461   3.975
  365SOL    HW1 1123   1.783   3.397   3.944
  365SOL    HW2 1124   1.753   3.553   3.984
  366SOL     OW 1125   0.586   2.972   4.235
  366SOL    HW1 1126   0.500   2.924   4.219
  366SOL    HW2 1127   0.603   3.037   4.160
  367SOL     OW 1128   3.093   2.273   4.293
  367SOL    HW1 1129   3.041   2.259   4.209
  367SOL    HW2 1130   3.052   2.347   4.346
  368SOL     OW 1131   3.531   1.423   2.323
  368SOL    HW1 1132   3.432   1.411   2.318
  368SOL    HW2 1133   3.553   1.520   2.333
  369SOL     OW 1134   0.373   3.273   4.656
  369SOL    HW1 1135   0.418   3.347   4.606
  369SOL    HW2 1136   0.343   3.203   4.592
  370SOL     OW 1137   0.350   1.777   2.565
  370SOL    HW1 1138   0.402   1.862   2.578
  370SOL    HW2 1139   0.253   1.799   2.553
  371SOL     OW 1140   2.097   5.017   4.256
  371SOL    HW1 1141   2.036   0.051   4.295
  371SOL    HW2 1142   2.145   0.021   4.177
  372SOL     OW 1143   3.318   4.255   0.716
  372SOL    HW1 1144   3.410   4.231   0.684
  372SOL    HW2 1145   3.266   4.171   0.733
  373SOL     OW 1146   4.255   2.628   3.598
  373SOL    HW1 1147   4.173   2.629   3.541
  373SOL    HW2 1148   4.322   2.564   3.560
  374SOL     OW 1149   4.334   3.584   2.334
  374SOL    HW1 1150   4.357   3.616   2.426
  374SOL    HW2 1151   4.329   3.663   2.272
  375SOL     OW 1152   3.042   1.843   0.980
  375SOL    HW1 1153   2.958   1.798   0.951
  375SOL    HW2 1154   3.021   1.917   1.043
  376SOL     OW 1155   3.145   1.336   0.998
  376SOL    HW1 1156   3.144   1.371   1.092
  376SOL    HW2 1157   3.207   1.258   0.992
  377SOL     OW 1158   3.473   2.386   4.986
  377SOL    HW1 1159   3.555   2.333   5.007
  377SOL    HW2 1160   3.464   2.461   0.016
  378SOL     OW 1161   1.767   2.575   4.386
  378SOL    HW1 1162   1.692   2.547   4.326
  378SOL    HW2 1163   1.841   2.615   4.332
  379SOL     OW 1164   2.783   4.661   2.437
  379SOL    HW1 1165   2.838   4.586   2.473
  379SOL    HW2 1166   2.843   4.734   2.405
  380SOL     OW 1167   0.710   3.346   1.955
  380SOL    HW1 1168   0.758   3.418   1.906
  380SOL    HW2 1169   0.699   3.266   1.894
  381SOL     OW 1170   4.728   2.598   1.984
  381SOL    HW1 1171   4.757   2.563   2.073
  381SOL    HW2 1172   4.629   2.584   1.973
  382SOL     OW 1173   0.687   2.927   0.111
  382SOL    HW1 1174   0.712   2.861   0.182
  382SOL    HW2 1175   0.694   2.883   0.021
  383SOL     OW 1176   1.043   4.494   2.280
  383SOL    HW1 1177   1.071   4.565   2.215
  383SOL    HW2 1178   1.033   4.535   2.371
  384SOL     OW 1179   2.433   3.215   2.665
  384SOL    HW1 1180   2.399   3.281   2.598
  384SOL    HW2 1181   2.385   3.227   2.752
  385SOL     OW 1182   2.228   1.546   0.892
  385SOL    HW1 1183   2.286   1.560   0.973
  385SOL    HW2 1184   2.210   1.634   0.848
  386SOL     OW 1185   4.176   2.691   4.725
  386SOL    HW1 1186   4.157   2.675   4.822
  386SOL    HW2 1187   4.226   2.777   4.714
  387SOL     OW 1188   1.232   1.919   3.871
  387SOL    HW1 1189   1.246   2.006   3.917
  387SOL    HW2 1190   1.316   1.865   3.877
  388SOL     OW 1191   2.093   3.274   0.099
  388SOL    HW1 1192   2.192   3.257   0.096
  388SOL    HW2 1193   2.044   3.187   0.089
  389SOL     OW 1194   4.346   3.926   1.828
  389SOL    HW1 1195   4.277   3.965   1.767
  389SOL    HW2 1196   4.375   3.995   1.895
  390SOL     OW 1197   0.838   0.802   1.660
  390SOL    HW1 1198   0.791   0.750   1.589
  390SOL    HW2 1199   0.890   0.740   1.719
  391SOL     OW 1200   3.454   1.592   3.202
  391SOL    HW1 1201   3.427   1.637   3.287
  391SOL    HW2 1202   3.425   1.496   3.205
  392SOL     OW 1203   0.841   1.798   4.675
  392SOL    HW1 1204   0.927   1.824   4.718
  392SOL    HW2 1205   0.844   1.819   4.577
  393SOL     OW 1206   4.712   4.253   2.442
  393SOL    HW1 1207   4.701   4.168   2.493
  393SOL    HW2 1208   4.746   4.325   2.503
  394SOL     OW 1209   3.180   3.592   3.927
  394SOL    HW1 1210   3.244   3.533   3.976
  394SOL    HW2 1211   3.216   3.685   3.923
  395SOL     OW 1212   3.356   2.207   1.847
  395SOL    HW1 1213   3.328   2.158   1.765
  395SOL    HW2 1214   3.341   2.150   1.928
  396SOL     OW 1215   2.990   1.425   4.612
  396SOL    HW1 1216   2.959   1.384   4.698
  396SOL    HW2 1217   3.020   1.353   4.550
  397SOL     OW 1218   3.067   0.756   0.089
  397SOL    HW1 1219   3.026   0.702   0.015
  397SOL    HW2 1220   3.010   0.748   0.171
  398SOL     OW 1221   4.746   4.717   3.950
  398SOL    HW1 1222   4.668   4.655   3.942
  398SOL    HW2 1223   4.831   4.665   3.935
  399SOL     OW 1224   4.197   0.245   2.085
  399SOL    HW1 1225   4.114   0.283   2.126
  399SOL    HW2 1226   4.192   0.145   2.086
  400SOL     OW 1227   1.146   3.763   2.163
  400SOL    HW1 1228   1.054   3.733   2.190
  400SOL    HW2 1229   1.174   3.840   2.221
  401SOL     OW 1230   0.994   2.351   2.788
  401SOL    HW1 1231   0.923   2.281   2.797
  401SOL    HW2 1232   0.961   2.437   2.826
  402SOL     OW 1233   0.063   3.479   4.849
  402SOL    HW1 1234   0.078   3.518   4.758
  402SOL    HW2 1235   5.023   3.414   4.846
  403SOL     OW 1236   1.978   1.488   1.361
  403SOL    HW1 1237   1.968   1.408   1.419
  403SOL    HW2 1238   1.893   1.505   1.311
  404SOL     OW 1239   3.086   4.916   3.789
  404SOL    HW1 1240   3.138   4.976   3.728
  404SOL    HW2 1241   2.990   4.947   3.791
  405SOL     OW 1242   2.018   4.675   0.357
  405SOL    HW1 1243   1.922   4.698   0.368
  405SOL    HW2 1244   2.072   4.722   0.427
  406SOL     OW 1245   1.098   3.479   4.559
  406SOL    HW1 1246   1.173   3.413   4.566
  406SOL    HW2 1247   1.080   3.498   4.462
  407SOL     OW 1248   2.557   2.927   1.016
  407SOL    HW1 1249   2.528   2.966   1.103
  407SOL    HW2 1250   2.653   2.901   1.021
  408SOL     OW 1251   1.428   4.775   0.579
  408SOL    HW1 1252   1.493   4.699   0.577
  408SOL    HW2 1253   1.451   4.836   0.654
  409SOL     OW 1254   0.099   1.672   4.557
  409SOL    HW1 1255   0.017   1.624   4.588
  409SOL    HW2 1256   0.109   1.756   4.610
  410SOL     OW 1257   0.349   0.844   4.765
  410SOL    HW1 1258   0.348   0.813   4.860
  410SOL    HW2 1259   0.255   0.859   4.734
  411SOL     OW 1260   1.571   4.509   2.172
  411SOL    HW1 1261   1.642   4.462   2.120
  411SOL    HW2 1262   1.532   4.447   2.240
  412SOL     OW 1263   4.579   1.782   0.286
  412SOL    HW1 1264   4.487   1.812   0.260
  412SOL    HW2 1265   4.572   1.695   0.336
  413SOL     OW 1266   4.965   2.974   1.322
  413SOL    HW1 1267   5.018   3.020   1.250
  413SOL    HW2 1268   4.972   3.026   1.407
  414SOL     OW 1269   4.021   1.917   2.490
  414SOL    HW1 1270   3.990   1.951   2.579
  414SOL    HW2 1271   3.989   1.823   2.478
  415SOL     OW 1272   2.116   3.969   4.778
  415SOL    HW1 1273   2.083   3.909   4.705
  415SOL    HW2 1274   2.038   4.008   4.827
  416SOL     OW 1275   1.557   4.927   2.036
  416SOL    HW1 1276   1.605   4.956   1.953
  416SOL    HW2 1277   1.623   4.903   2.106
  417SOL     OW 1278   1.082   4.764   2.139
  417SOL    HW1 1279   1.115   4.815   2.060
  417SOL    HW2 1280   0.984   4.779   2.150
  418SOL     OW 1281   4.233   1.541   3.965
  418SOL    HW1 1282   4.164   1.543   3.893
  418SOL    HW2 1283   4.206   1.605   4.037
  419SOL     OW 1284   0.397   4.942   3.458
  419SOL    HW1 1285   0.343   5.004   3.515
  419SOL    HW2 1286   0.364   4.946   3.364
  420SOL     OW 1287   3.366   4.964   3.974
  420SOL    HW1 1288   3.269   4.984   3.984
  420SOL    HW2 1289   3.408   5.032   3.914
  421SOL     OW 1290   1.646   0.680   3.931
  421SOL    HW1 1291   1.698   0.676   4.016
  421SOL    HW2 1292   1.710   0.683   3.854
  422SOL     OW 1293   1.941   0.138   3.739
  422SOL    HW1 1294   1.879   0.202   3.785
  422SOL    HW2 1295   1.979   0.075   3.806
  423SOL     OW 1296   1.003   1.100   1.549
  423SOL    HW1 1297   0.927   1.058   1.500
  423SOL    HW2 1298   1.005   1.067   1.643
  424SOL     OW 1299   2.584   0.328   1.693
  424SOL    HW1 1300   2.495   0.331   1.646
  424SOL    HW2 1301   2.655   0.361   1.631
  425SOL     OW 1302   0.442   4.558   1.734
  425SOL    HW1 1303   0.434   4.654   1.760
  425SOL    HW2 1304   0.500   4.551   1.653
  426SOL     OW 1305   1.306   2.260   1.962
  426SOL    HW1 1306   1.275   2.274   2.055
  426SOL    HW2 1307   1.363   2.337   1.934
  427SOL     OW 1308   1.698   4.786   0.746
  427SOL    HW1 1309   1.764   4.837   0.800
  427SOL    HW2 1310   1.682   4.697   0.789
  428SOL     OW 1311   2.212   0.089   4.847
  428SOL    HW1 1312   2.304   0.057   4.869
  428SOL    HW2 1313   2.155   0.086   4.929
  429SOL     OW 1314   3.123   0.964   0.403
  429SOL    HW1 1315   3.139   1.051   0.451
  429SOL    HW2 1316   3.197   0.948   0.337
  430SOL     OW 1317   1.340   3.339   0.315
  430SOL    HW1 1318   1.349   3.245   0.348
  430SOL    HW2 1319   1.335   3.338   0.215
  431SOL     OW 1320   1.988   1.815   3.172
  431SOL    HW1 1321   1.993   1.717   3.192
  431SOL    HW2 1322   1.917   1.857   3.227
  432SOL     OW 1323   1.808   1.966   4.702
  432SOL    HW1 1324   1.733   1.908   4.733
  432SOL    HW2 1325   1.830   1.943   4.607
  433SOL     OW 1326   0.670   3.856   0.555
  433SOL    HW1 1327   0.716   3.891   0.474
  433SOL    HW2 1328   0.734   3.855   0.632
  434SOL     OW 1329   1.941   1.847   1.214
  434SOL    HW1 1330   2.018   1.908   1.199
  434SOL    HW2 1331   1.974   1.756   1.239
  435SOL     OW 1332   4.714   2.178   0.402
  435SOL    HW1 1333   4.718   2.249   0.472
  435SOL    HW2 1334   4.681   2.217   0.316
  436SOL     OW 1335   1.035   2.492   4.958
  436SOL    HW1 1336   1.107   2.423   4.961
  436SOL    HW2 1337   1.024   2.524   4.864
  437SOL     OW 1338   1.519   4.761   2.972
  437SOL    HW1 1339   1.573   4.845   2.962
  437SOL    HW2 1340   1.571   4.684   2.936
  438SOL     OW 1341   3.634   4.497   1.526
  438SOL    HW1 1342   3.550   4.550   1.524
  438SOL    HW2 1343   3.618   4.410   1.573
  439SOL     OW 1344   2.359   5.024   1.941
  439SOL    HW1 1345   2.299   0.006   2.018
  439SOL    HW2 1346   2.400   0.076   1.912
  440SOL     OW 1347   4.946   0.121   2.129
  440SOL    HW1 1348   5.019   0.116   2.062
  440SOL    HW2 1349   4.868   0.066   2.098
  441SOL     OW 1350   4.629   1.887   1.177
  441SOL    HW1 1351   4.531   1.905   1.166
  441SOL    HW2 1352   4.677   1.911   1.092
  442SOL     OW 1353   3.662   4.488   2.233
  442SOL    HW1 1354   3.751   4.534   2.244
  442SOL    HW2 1355   3.642   4.435   2.316
  443SOL     OW 1356   1.072   1.014   0.119
  443SOL    HW1 1357   1.141   0.942   0.126
  443SOL    HW2 1358   1.072   1.051   0.026
  444SOL     OW 1359   2.041   1.255   2.055
  444SOL    HW1 1360   2.131   1.238   2.015
  444SOL    HW2 1361   2.051   1.268   2.154
  445SOL     OW 1362   1.004   1.844   2.203
  445SOL    HW1 1363   0.970   1.927   2.160
  445SOL    HW2 1364   0.959   1.831   2.292
  446SOL     OW 1365   1.110   3.974   0.070
  446SOL    HW1 1366   1.103   4.021   0.158
  446SOL    HW2 1367   1.071   4.031   5.033
  447SOL     OW 1368   0.652   4.310   2.088
  447SOL    HW1 1369   0.741   4.299   2.133
  447SOL    HW2 1370   0.659   4.280   1.993
  448SOL     OW 1371   1.636   3.388   4.915
  448SOL    HW1 1372   1.681   3.461   4.966
  448SOL    HW2 1373   1.705   3.322   4.884
  449SOL     OW 1374   4.288   1.293   1.264
  449SOL    HW1 1375   4.318   1.243   1.183
  449SOL    HW2 1376   4.190   1.281   1.277
  450SOL     OW 1377   0.941   4.073   0.664
  450SOL    HW1 1378   0.883   4.016   0.722
  450SOL    HW2 1379   0.898   4.084   0.574
  451SOL     OW 1380   1.484   1.032   3.517
  451SOL    HW1 1381   1.565   0.973   3.510
  451SOL    HW2 1382   1.505   1.120   3.475
  452SOL     OW 1383   4.107   0.936   2.602
  452SOL    HW1 1384   4.144   0.874   2.671
  452SOL    HW2 1385   4.123   0.898   2.511
  453SOL     OW 1386   2.185   0.153   0.747
  453SOL    HW1 1387   2.264   0.203   0.781
  453SOL    HW2 1388   2.101   0.203   0.770
  454SOL     OW 1389   1.941   1.841   2.233
  454SOL    HW1 1390   1.954   1.914   2.166
  454SOL    HW2 1391   1.920   1.755   2.186
  455SOL     OW 1392   2.197   3.062   4.599
  455SOL    HW1 1393   2.142   3.120   4.540
  455SOL    HW2 1394   2.253   3.119   4.659
  456SOL     OW 1395   0.072   2.302   5.022
  456SOL    HW1 1396   0.081   2.232   0.057
  456SOL    HW2 1397   0.109   2.388   0.022
  457SOL     OW 1398   1.969   2.690   3.702
  457SOL    HW1 1399   1.942   2.639   3.620
  457SOL    HW2 1400   1.935   2.643   3.783
  458SOL     OW 1401   1.668   3.881   2.447
  458SOL    HW1 1402   1.624   3.791   2.447
  458SOL    HW2 1403   1.767   3.869   2.445
  459SOL     OW 1404   0.918   4.081   0.963
  459SOL    HW1 1405   0.826   4.116   0.980
  459SOL    HW2 1406   0.962   4.135   0.891
  460SOL     OW 1407   4.013   3.882   0.787
  460SOL    HW1 1408   3.991   3.929   0.701
  460SOL    HW2 1409   3.986   3.939   0.864
  461SOL     OW 1410   0.389   4.656   2.132
  461SOL    HW1 1411   0.365   4.562   2.106
  461SOL    HW2 1412   0.368   4.718   2.057
  462SOL     OW 1413   3.953   2.294   3.869
  462SOL    HW1 1414   4.026   2.322   3.932
  462SOL    HW2 1415   3.866   2.291   3.919
  463SOL     OW 1416   3.414   3.922   2.275
  463SOL    HW1 1417   3.476   3.953   2.203
  463SOL    HW2 1418   3.466   3.873   2.345
  464SOL     OW 1419   1.362   1.383   3.984
  464SOL    HW1 1420   1.289   1.446   4.009
  464SOL    HW2 1421   1.381   1.322   4.060
  465SOL     OW 1422   1.015   2.578   3.845
  465SOL    HW1 1423   0.931   2.548   3.890
  465SOL    HW2 1424   0.992   2.619   3.757
  466SOL     OW 1425   4.415   1.553   2.283
  466SOL    HW1 1426   4.401   1.484   2.212
  466SOL    HW2 1427   4.492   1.611   2.258
  467SOL     OW 1428   4.511   3.672   1.004
  467SOL    HW1 1429   4.475   3.746   0.946
  467SOL    HW2 1430   4.490   3.691   1.099
  468SOL     OW 1431   4.248   3.904   4.759
  468SOL    HW1 1432   4.305   3.852   4.822
  468SOL    HW2 1433   4.302   3.980   4.722
  469SOL     OW 1434   4.142   2.419   3.362
  469SOL    HW1 1435   4.080   2.424   3.440
  469SOL    HW2 1436   4.119   2.491   3.296
  470SOL     OW 1437   2.218   1.671   4.079
  470SOL    HW1 1438   2.199   1.763   4.114
  470SOL    HW2 1439   2.303   1.637   4.118
  471SOL     OW 1440   0.381   0.859   0.448
  471SOL    HW1 1441   0.319   0.844   0.525
  471SOL    HW2 1442   0.344   0.931   0.389
  472SOL     OW 1443   3.807   4.435   3.795
  472SOL    HW1 1444   3.904   4.412   3.795
  472SOL    HW2 1445   3.754   4.358   3.760
  473SOL     OW 1446   3.407   3.322   2.845
  473SOL    HW1 1447   3.414   3.318   2.944
  473SOL    HW2 1448   3.394   3.230   2.808
  474SOL     OW 1449   1.564   2.230   4.371
  474SOL    HW1 1450   1.535   2.170   4.446
  474SOL    HW2 1451   1.583   2.174   4.290
  475SOL     OW 1452   1.553   2.013   0.329
  475SOL    HW1 1453   1.638   2.066   0.334
  475SOL    HW2 1454   1.500   2.043   0.250
  476SOL     OW 1455   1.045   0.309   2.815
  476SOL    HW1 1456   1.090   0.227   2.850
  476SOL    HW2 1457   1.040   0.305   2.715
  477SOL     OW 1458   1.158   0.864   2.273
  477SOL    HW1 1459   1.108   0.820   2.199
  477SOL    HW2 1460   1.094   0.910   2.335
  478SOL     OW 1461   1.878   2.030   1.431
  478SOL    HW1 1462   1.911   1.936   1.419
  478SOL    HW2 1463   1.937   2.093   1.381
  479SOL     OW 1464   0.264   4.565   1.459
  479SOL    HW1 1465   0.348   4.592   1.412
  479SOL    HW2 1466   0.258   4.466   1.462
  480SOL     OW 1467   3.237   4.512   4.046
  480SOL    HW1 1468   3.285   4.432   4.080
  480SOL    HW2 1469   3.247   4.588   4.111
  481SOL     OW 1470   2.228   3.169   3.592
  481SOL    HW1 1471   2.228   3.235   3.517
  481SOL    HW2 1472   2.270   3.211   3.673
  482SOL     OW 1473   0.688   2.435   0.207
  482SOL    HW1 1474   0.657   2.448   0.302
  482SOL    HW2 1475   0.691   2.337   0.187
  483SOL     OW 1476   0.120   0.601   2.086
  483SOL    HW1 1477   0.140   0.691   2.047
  483SOL    HW2 1478   0.056   0.611   2.162
  484SOL     OW 1479   2.718   1.121   4.706
  484SOL    HW1 1480   2.788   1.177   4.750
  484SOL    HW2 1481   2.749   1.026   4.703
  485SOL     OW 1482   1.823   4.700   2.021
  485SOL    HW1 1483   1.734   4.690   1.976
  485SOL    HW2 1484   1.811   4.701   2.120
  486SOL     OW 1485   2.193   2.536   1.899
  486SOL    HW1 1486   2.167   2.555   1.994
  486SOL    HW2 1487   2.271   2.594   1.874
  487SOL     OW 1488   1.896   1.580   0.698
  487SOL    HW1 1489   1.845   1.540   0.621
  487SOL    HW2 1490   1.935   1.507   0.754
  488SOL     OW 1491   3.600   2.882   0.864
  488SOL    HW1 1492   3.694   2.899   0.834
  488SOL    HW2 1493   3.540   2.954   0.828
  489SOL     OW 1494   1.351   3.592   2.072
  489SOL    HW1 1495   1.268   3.579   2.126
  489SOL    HW2 1496   1.383   3.686   2.083
  490SOL     OW 1497   4.707   1.236   1.267
  490SOL    HW1 1498   4.668   1.257   1.177
  490SOL    HW2 1499   4.803   1.213   1.258
  491SOL     OW 1500   2.036   2.378   3.048
  491SOL    HW1 1501   1.990   2.289   3.045
  491SOL    HW2 1502   2.116   2.376   2.988
  492SOL     OW 1503   4.244   1.681   0.953
  492SOL    HW1 1504   4.150   1.688   0.987
  492SOL    HW2 1505   4.259   1.590   0.915
  493SOL     OW 1506   4.228   1.124   2.358
  493SOL    HW1 1507   4.171   1.079   2.289
  493SOL    HW2 1508   4.171   1.182   2.416
  494SOL     OW 1509   3.763   0.407   4.843
  494SOL    HW1 1510   3.700   0.353   4.786
  494SOL    HW2 1511   3.721   0.495   4.865
  495SOL     OW 1512   0.537   2.989   2.656
  495SOL    HW1 1513   0.491   2.958   2.573
  495SOL    HW2 1514   0.502   3.079   2.682
  496SOL     OW 1515   2.336   4.223   3.407
  496SOL    HW1 1516   2.298   4.256   3.493
  496SOL    HW2 1517   2.377   4.300   3.357
  497SOL     OW 1518   3.082   0.136   3.979
  497SOL    HW1 1519   3.070   0.172   3.886
  497SOL    HW2 1520   3.042   0.045   3.985
  498SOL     OW 1521   2.774   1.652   3.797
  498SOL    HW1 1522   2.693   1.620   3.747
  498SOL    HW2 1523   2.771   1.616   3.891
  499SOL     OW 1524   3.910   0.618   1.287
  499SOL    HW1 1525   3.882   0.596   1.193
  499SOL    HW2 1526   3.948   0.536   1.330
  500SOL     OW 1527   3.539   2.320   3.480
  500SOL    HW1 1528   3.440   2.332   3.490
  500SOL    HW2 1529   3.557   2.269   3.396
  501SOL     OW 1530   1.452   2.702   4.628
  501SOL    HW1 1531   1.484   2.607   4.627
  501SOL    HW2 1532   1.449   2.734   4.723
  502SOL     OW 1533   1.946   3.858   2.434
  502SOL    HW1 1534   1.940   3.911   2.350
  502SOL    HW2 1535   2.042   3.840   2.456
  503SOL     OW 1536   3.013   4.553   1.442
  503SOL    HW1 1537   2.937   4.488   1.447
  503SOL    HW2 1538   3.005   4.606   1.358
  504SOL     OW 1539   1.958   3.165   3.628
  504SOL    HW1 1540   2.054   3.144   3.611
  504SOL    HW2 1541   1.900   3.100   3.578
  505SOL     OW 1542   1.232   4.301   1.457
  505SOL    HW1 1543   1.200   4.347   1.540
  505SOL    HW2 1544   1.295   4.228   1.483
  506SOL     OW 1545   4.079   2.204   1.887
  506SOL    HW1 1546   4.028   2.238   1.807
  506SOL    HW2 1547   4.103   2.282   1.946
  507SOL     OW 1548   1.039   0.237   2.068
  507SOL    HW1 1549   1.124   0.269   2.110
  507SOL    HW2 1550   1.002   0.161   2.121
  508SOL     OW 1551   0.225   3.132   0.318
  508SOL    HW1 1552   0.189   3.180   0.238
  508SOL    HW2 1553   0.320   3.104   0.301
  509SOL     OW 1554   1.929   3.917   1.264
  509SOL    HW1 1555   1.834   3.889   1.255
  509SOL    HW2 1556   1.934   4.016   1.275
  510SOL     OW 1557   0.918   3.780   2.331
  510SOL    HW1 1558   0.840   3.804   2.389
  510SOL    HW2 1559   0.896   3.698   2.278
  511SOL     OW 1560   0.983   0.522   4.070
  511SOL    HW1 1561   1.043   0.472   4.008
  511SOL    HW2 1562   0.905   0.557   4.019
  512SOL     OW 1563   4.744   0.816   1.708
  512SOL    HW1 1564   4.833   0.771   1.710
  512SOL    HW2 1565   4.680   0.765   1.766
  513SOL     OW 1566   4.481   3.362   4.202
  513SOL    HW1 1567   4.554   3.413   4.248
  513SOL    HW2 1568   4.475   3.391   4.106
  514SOL     OW 1569   2.983   1.876   3.027
  514SOL    HW1 1570   3.020   1.923   2.947
  514SOL    HW2 1571   2.891   1.912   3.047
  515SOL     OW 1572   4.684   3.977   0.382
  515SOL    HW1 1573   4.669   3.916   0.460
  515SOL    HW2 1574   4.751   3.936   0.320
  516SOL     OW 1575   3.806   1.512   3.857
  516SOL    HW1 1576   3.859   1.591   3.889
  516SOL    HW2 1577   3.725   1.500   3.915
  517SOL     OW 1578   3.374   1.528   0.860
  517SOL    HW1 1579   3.305   1.476   0.912
  517SOL    HW2 1580   3.363   1.625   0.880
  518SOL     OW 1581   3.938   4.816   2.128
  518SOL    HW1 1582   4.024   4.857   2.099
  518SOL    HW2 1583   3.903   4.756   2.055
  519SOL     OW 1584   1.099   0.532   2.253
  519SOL    HW1 1585   1.086   0.596   2.178
  519SOL    HW2 1586   1.019   0.535   2.313
  520SOL     OW 1587   1.188   0.011   4.663
  520SOL    HW1 1588   1.270   0.044   4.708
  520SOL    HW2 1589   1.175   0.060   4.577
  521SOL     OW 1590   3.944   4.019   0.558
  521SOL    HW1 1591   4.028   4.051   0.515
  521SOL    HW2 1592   3.865   4.048   0.504
  522SOL     OW 1593   2.602   0.507   0.915
  522SOL    HW1 1594   2.543   0.582   0.943
  522SOL    HW2 1595   2.662   0.537   0.840
  523SOL     OW 1596   5.008   0.128   2.807
  523SOL    HW1 1597   4.954   0.047   2.783
  523SOL    HW2 1598   0.019   0.162   2.725
  524SOL     OW 1599   0.581   2.352   3.108
  524SOL    HW1 1600   0.585   2.446   3.073
  524SOL    HW2 1601   0.489   2.316   3.095
  525SOL     OW 1602   0.226   4.115   2.714
  525SOL    HW1 1603   0.260   4.061   2.792
  525SOL    HW2 1604   0.302   4.161   2.669
  526SOL     OW 1605   0.484   2.818   1.797
  526SOL    HW1 1606   0.423   2.887   1.757
  526SOL    HW2 1607   0.572   2.820   1.749
  527SOL     OW 1608   3.108   4.695   2.301
  527SOL    HW1 1609   3.032   4.653   2.253
  527SOL    HW2 1610   3.177   4.724   2.235
  528SOL     OW 1611   4.019   0.894   3.542
  528SOL    HW1 1612   4.065   0.981   3.560
  528SOL    HW2 1613   4.010   0.881   3.443
  529SOL     OW 1614   1.020   2.013   3.271
  529SOL    HW1 1615   0.978   1.947   3.208
  529SOL    HW2 1616   0.998   1.988   3.365
  530SOL     OW 1617   4.197   0.911   3.805
  530SOL    HW1 1618   4.252   0.870   3.732
  530SOL    HW2 1619   4.145   0.840   3.852
  531SOL     OW 1620   0.863   4.710   1.091
  531SOL    HW1 1621   0.846   4.667   1.002
  531SOL    HW2 1622   0.954   4.751   1.091
  532SOL     OW 1623   4.898   0.747   0.363
  532SOL    HW1 1624   4.897   0.709   0.271
  532SOL    HW2 1625   4.892   0.847   0.358
  533SOL     OW 1626   3.946   0.890   3.275
  533SOL    HW1 1627   3.867   0.943   3.304
  533SOL    HW2 1628   3.968   0.913   3.180
  534SOL     OW 1629   3.727   2.883   0.558
  534SOL    HW1 1630   3.790   2.920   0.625
  534SOL    HW2 1631   3.757   2.791   0.531
  535SOL     OW 1632   4.399   2.563   0.454
  535SOL    HW1 1633   4.311   2.517   0.463
  535SOL    HW2 1634   4.387   2.649   0.405
  536SOL     OW 1635   1.792   2.716   4.620
  536SOL    HW1 1636   1.766   2.668   4.536
  536SOL    HW2 1637   1.842   2.799   4.597
  537SOL     OW 1638   0.775   4.168   2.723
  537SOL    HW1 1639   0.742   4.210   2.639
  537SOL    HW2 1640   0.698   4.130   2.775
  538SOL     OW 1641   4.220   4.350   1.232
  538SOL    HW1 1642   4.126   4.321   1.254
  538SOL    HW2 1643   4.270   4.368   1.317
  539SOL     OW 1644   2.507   1.697   3.715
  539SOL    HW1 1645   2.431   1.638   3.687
  539SOL    HW2 1646   2.472   1.778   3.762
  540SOL     OW 1647   3.493   3.680   1.015
  540SOL    HW1 1648   3.405   3.636   1.036
  540SOL    HW2 1649   3.483   3.735   0.932
  541SOL     OW 1650   4.998   2.063   3.038
  541SOL    HW1 1651   0.002   2.023   2.955
  541SOL    HW2 1652   4.957   1.990   3.093
  542SOL     OW 1653   0.823   0.155   3.148
  542SOL    HW1 1654   0.812   0.217   3.071
  542SOL    HW2 1655   0.874   0.200   3.221
  543SOL     OW 1656   4.190   4.465   3.253
  543SOL    HW1 1657   4.252   4.541   3.269
  543SOL    HW2 1658   4.242   4.382   3.233
  544SOL     OW 1659   4.821   1.469   3.884
  544SOL    HW1 1660   4.876   1.503   3.960
  544SOL    HW2 1661   4.725   1.494   3.898
  545SOL     OW 1662   1.013   3.584   3.161
  545SOL    HW1 1663   1.050   3.527   3.087
  545SOL    HW2 1664   1.032   3.680   3.141
  546SOL     OW 1665   0.516   0.696   3.279
  546SOL    HW1 1666   0.522   0.769   3.210
  546SOL    HW2 1667   0.602   0.645   3.280
  547SOL     OW 1668   2.943   2.579   3.709
  547SOL    HW1 1669   2.950   2.576   3.809
  547SOL    HW2 1670   2.848   2.566   3.682
  548SOL     OW 1671   0.095   3.038   2.805
  548SOL    HW1 1672   0.020   3.078   2.752
  548SOL    HW2 1673   0.156   2.988   2.743
  549SOL     OW 1674   3.098   0.607   3.619
  549SOL    HW1 1675   3.048   0.597   3.705
  549SOL    HW2 1676   3.049   0.671   3.559
  550SOL     OW 1677   4.959   0.930   0.663
  550SOL    HW1 1678   4.878   0.899   0.612
  550SOL    HW2 1679   4.952   0.900   0.758
  551SOL     OW 1680   1.556   2.323   2.875
  551SOL    HW1 1681   1.615   2.286   2.803
  551SOL    HW2 1682   1.485   2.257   2.897
  552SOL     OW 1683   2.868   3.711   2.711
  552SOL    HW1 1684   2.790   3.708   2.773
  552SOL    HW2 1685   2.948   3.746   2.760
  553SOL     OW 1686   1.215   1.470   1.180
  553SOL    HW1 1687   1.143   1.461   1.111
  553SOL    HW2 1688   1.175   1.499   1.267
  554SOL     OW 1689   2.283   1.802   1.813
  554SOL    HW1 1690   2.366   1.800   1.757
  554SOL    HW2 1691   2.206   1.832   1.758
  555SOL     OW 1692   3.636   3.668   0.764
  555SOL    HW1 1693   3.710   3.723   0.801
  555SOL    HW2 1694   3.620   3.589   0.824
  556SOL     OW 1695   1.823   3.203   0.300
  556SOL    HW1 1696   1.788   3.292   0.270
  556SOL    HW2 1697   1.757   3.161   0.362
  557SOL     OW 1698   4.402   4.112   4.625
  557SOL    HW1 1699   4.354   4.138   4.541
  557SOL    HW2 1700   4.500   4.115   4.610
  558SOL     OW 1701   3.699   1.670   3.649
  558SOL    HW1 1702   3.733   1.591   3.701
  558SOL    HW2 1703   3.664   1.639   3.561
  559SOL     OW 1704   1.843   1.962   3.337
  559SOL    HW1 1705   1.790   2.034   3.292
  559SOL    HW2 1706   1.796   1.934   3.421
  560SOL     OW 1707   4.212   4.731   0.291
  560SOL    HW1 1708   4.260   4.813   0.324
  560SOL    HW2 1709   4.181   4.747   0.197
  561SOL     OW 1710   3.919   1.181   3.293
  561SOL    HW1 1711   3.917   1.273   3.256
  561SOL    HW2 1712   3.938   1.185   3.391
  562SOL     OW 1713   2.988   0.445   2.460
  562SOL    HW1 1714   2.913   0.447   2.526
  562SOL    HW2 1715   3.071   0.482   2.503
  563SOL     OW 1716   3.259   4.946   1.860
  563SOL    HW1 1717   3.353   4.938   1.828
  563SOL    HW2 1718   3.196   4.928   1.784
  564SOL     OW 1719   1.289   3.990   1.619
  564SOL    HW1 1720   1.321   4.009   1.526
  564SOL    HW2 1721   1.198   4.031   1.632
  565SOL     OW 1722   3.380   1.741   1.538
  565SOL    HW1 1723   3.417   1.826   1.501
  565SOL    HW2 1724   3.443   1.705   1.608
  566SOL     OW 1725   2.626   0.959   1.812
  566SOL    HW1 1726   2.636   1.007   1.900
  566SOL    HW2 1727   2.692   0.885   1.806
  567SOL     OW 1728   0.670   3.835   3.266
  567SOL    HW1 1729   0.650   3.870   3.357
  567SOL    HW2 1730   0.665   3.735   3.268
  568SOL     OW 1731   0.781   0.237   1.940
  568SOL    HW1 1732   0.767   0.314   1.877
  568SOL    HW2 1733   0.873   0.242   1.978
  569SOL     OW 1734   1.119   4.718   1.456
  569SOL    HW1 1735   1.118   4.746   1.552
  569SOL    HW2 1736   1.142   4.796   1.399
  570SOL     OW 1737   1.285   1.488   0.890
  570SOL    HW1 1738   1.256   1.434   0.969
  570SOL    HW2 1739   1.345   1.432   0.832
  571SOL     OW 1740   2.312   0.586   0.870
  571SOL    HW1 1741   2.265   0.633   0.795
  571SOL    HW2 1742   2.365   0.652   0.924
  572SOL     OW 1743   0.265   0.030   3.685
  572SOL    HW1 1744   0.296   0.011   3.778
  572SOL    HW2 1745   0.166   0.020   3.680
  573SOL     OW 1746   1.278   0.570   4.226
  573SOL    HW1 1747   1.256   0.591   4.322
  573SOL    HW2 1748   1.226   0.491   4.196
  574SOL     OW 1749   0.809   1.069   1.327
  574SOL    HW1 1750   0.775   1.020   1.246
  574SOL    HW2 1751   0.732   1.097   1.384
  575SOL     OW 1752   2.256   1.088   0.642
  575SOL    HW1 1753   2.184   1.123   0.703
  575SOL    HW2 1754   2.334   1.150   0.645
  576SOL     OW 1755   1.855   1.657   2.426
  576SOL    HW1 1756   1.951   1.647   2.400
  576SOL    HW2 1757   1.810   1.721   2.364
  577SOL     OW 1758   3.028   3.898   0.454
  577SOL    HW1 1759   3.087   3.889   0.374
  577SOL    HW2 1760   3.038   3.990   0.492
  578SOL     OW 1761   2.408   1.723   4.295
  578SOL    HW1 1762   2.397   1.741   4.393
  578SOL    HW2 1763   2.429   1.808   4.248
  579SOL     OW 1764   4.379   4.680   1.004
  579SOL    HW1 1765   4.293   4.682   0.953
  579SOL    HW2 1766   4.383   4.597   1.059
  580SOL     OW 1767   2.184   4.674   1.193
  580SOL    HW1 1768   2.146   4.678   1.285
  580SOL    HW2 1769   2.245   4.595   1.186
  581SOL     OW 1770   1.045   1.820   1.830
  581SOL    HW1 1771   1.069   1.916   1.847
  581SOL    HW2 1772   0.957   1.816   1.783
  582SOL     OW 1773   1.470   4.754   0.165
  582SOL    HW1 1774   1.502   4.848   0.173
  582SOL    HW2 1775   1.546   4.691   0.182
  583SOL     OW 1776   2.868   2.279   0.132
  583SOL    HW1 1777   2.958   2.306   0.166
  583SOL    HW2 1778   2.873   2.266   0.033
  584SOL     OW 1779   1.594   0.741   0.674
  584SOL    HW1 1780   1.577   0.677   0.749
  584SOL    HW2 1781   1.685   0.724   0.636
  585SOL     OW 1782   1.506   3.290   3.630
  585SOL    HW1 1783   1.490   3.272   3.728
  585SOL    HW2 1784   1.505   3.389   3.614
  586SOL     OW 1785   2.363   3.216   0.060
  586SOL    HW1 1786   2.434   3.239   0.126
  586SOL    HW2 1787   2.366   3.281   5.019
  587SOL     OW 1788   3.050   3.296   4.783
  587SOL    HW1 1789   3.000   3.228   4.837
  587SOL    HW2 1790   3.009   3.304   4.692
  588SOL     OW 1791   0.185   4.348   3.272
  588SOL    HW1 1792   0.157   4.314   3.182
  588SOL    HW2 1793   0.131   4.428   3.296
  589SOL     OW 1794   2.815   3.568   4.701
  589SOL    HW1 1795   2.912   3.590   4.685
  589SOL    HW2 1796   2.808   3.507   4.779
  590SOL     OW 1797   0.422   2.105   3.533
  590SOL    HW1 1798   0.363   2.179   3.564
  590SOL    HW2 1799   0.484   2.138   3.462
  591SOL     OW 1800   3.152   3.621   0.208
  591SOL    HW1 1801   3.179   3.551   0.143
  591SOL    HW2 1802   3.182   3.595   0.300
  592SOL     OW 1803   4.023   2.674   3.474
  592SOL    HW1 1804   3.978   2.723   3.548
  592SOL    HW2 1805   3.970   2.685   3.389
  593SOL     OW 1806   1.407   0.133   4.756
  593SOL    HW1 1807   1.489   0.075   4.763
  593SOL    HW2 1808   1.423   0.220   4.802
  594SOL     OW 1809   4.671   2.976   0.952
  594SOL    HW1 1810   4.652   2.890   0.905
  594SOL    HW2 1811   4.680   2.959   1.050
  595SOL     OW 1812   2.909   2.769   4.597
  595SOL    HW1 1813   2.939   2.864   4.583
  595SOL    HW2 1814   2.920   2.745   4.693
  596SOL     OW 1815   1.065   4.230   1.257
  596SOL    HW1 1816   1.125   4.250   1.334
  596SOL    HW2 1817   1.084   4.139   1.222
  597SOL     OW 1818   3.364   0.785   3.608
  597SOL    HW1 1819   3.413   0.824   3.687
  597SOL    HW2 1820   3.412   0.703   3.576
  598SOL     OW 1821   4.344   0.866   3.577
  598SOL    HW1 1822   4.292   0.899   3.498
  598SOL    HW2 1823   4.395   0.942   3.618
  599SOL     OW 1824   3.134   3.902   4.948
  599SOL    HW1 1825   3.209   3.957   4.985
  599SOL    HW2 1826   3.078   3.959   4.888
  600SOL     OW 1827   4.866   2.623   0.391
  600SOL    HW1 1828   4.774   2.591   0.368
  600SOL    HW2 1829   4.859   2.711   0.439
  601SOL     OW 1830   0.048   3.475   0.892
  601SOL    HW1 1831   0.019   3.571   0.882
  601SOL    HW2 1832   5.003   3.417   0.901
  602SOL     OW 1833   4.922   4.362   3.376
  602SOL    HW1 1834   4.980   4.288   3.411
  602SOL    HW2 1835   4.952   4.449   3.415
  603SOL     OW 1836   4.209   1.536   4.436
  603SOL    HW1 1837   4.189   1.438   4.435
  603SOL    HW2 1838   4.148   1.582   4.500
  604SOL     OW 1839   2.879   3.504   2.416
  604SOL    HW1 1840   2.819   3.569   2.461
  604SOL    HW2 1841   2.920   3.547   2.336
  605SOL     OW 1842   3.161   1.945   1.854
  605SOL    HW1 1843   3.117   2.026   1.815
  605SOL    HW2 1844   3.137   1.938   1.950
  606SOL     OW 1845   1.786   4.942   4.522
  606SOL    HW1 1846   1.854   4.874   4.550
  606SOL    HW2 1847   1.702   4.896   4.494
  607SOL     OW 1848   1.436   2.079   4.821
  607SOL    HW1 1849   1.505   2.150   4.829
  607SOL    HW2 1850   1.436   2.042   4.728
  608SOL     OW 1851   3.786   4.176   2.101
  608SOL    HW1 1852   3.725   4.113   2.052
  608SOL    HW2 1853   3.809   4.136   2.190
  609SOL     OW 1854   4.457   1.074   4.755
  609SOL    HW1 1855   4.532   1.029   4.803
  609SOL    HW2 1856   4.494   1.129   4.680
  610SOL     OW 1857   4.309   0.224   3.654
  610SOL    HW1 1858   4.214   0.255   3.662
  610SOL    HW2 1859   4.316   0.159   3.579
  611SOL     OW 1860   0.931   0.098   3.494
  611SOL    HW1 1861   0.961   0.134   3.583
  611SOL    HW2 1862   0.836   0.069   3.501
  612SOL     OW 1863   0.231   2.901   3.429
  612SOL    HW1 1864   0.251   2.997   3.449
  612SOL    HW2 1865   0.317   2.851   3.418
  613SOL     OW 1866   1.563   2.619   3.843
  613SOL    HW1 1867   1.662   2.618   3.834
  613SOL    HW2 1868   1.525   2.533   3.809
  614SOL     OW 1869   1.271   2.323   0.494
  614SOL    HW1 1870   1.264   2.336   0.395
  614SOL    HW2 1871   1.355   2.367   0.527
  615SOL     OW 1872   1.742   3.309   0.750
  615SOL    HW1 1873   1.650   3.295   0.786
  615SOL    HW2 1874   1.809   3.294   0.822
  616SOL     OW 1875   1.881   2.230   3.904
  616SOL    HW1 1876   1.920   2.138   3.909
  616SOL    HW2 1877   1.916   2.276   3.822
  617SOL     OW 1878   1.469   2.394   3.708
  617SOL    HW1 1879   1.399   2.390   3.779
  617SOL    HW2 1880   1.428   2.423   3.621
  618SOL     OW 1881   3.322   0.451   3.725
  618SOL    HW1 1882   3.286   0.544   3.715
  618SOL    HW2 1883   3.330   0.428   3.822
  619SOL     OW 1884   1.221   2.134   3.644
  619SOL    HW1 1885   1.276   2.185   3.578
  619SOL    HW2 1886   1.282   2.089   3.710
  620SOL     OW 1887   1.906   1.683   1.789
  620SOL    HW1 1888   1.901   1.778   1.820
  620SOL    HW2 1889   1.999   1.662   1.759
  621SOL     OW 1890   1.265   1.560   0.108
  621SOL    HW1 1891   1.340   1.592   0.165
  621SOL    HW2 1892   1.188   1.623   0.115
  622SOL     OW 1893   2.582   0.566   2.940
  622SOL    HW1 1894   2.544   0.657   2.924
  622SOL    HW2 1895   2.537   0.525   3.019
  623SOL     OW 1896   0.883   0.943   4.102
  623SOL    HW1 1897   0.940   0.878   4.152
  623SOL    HW2 1898   0.849   0.899   4.018
  624SOL     OW 1899   3.401   1.482   0.311
  624SOL    HW1 1900   3.432   1.577   0.312
  624SOL    HW2 1901   3.390   1.449   0.405
  625SOL     OW 1902   3.337   4.615   3.153
  625SOL    HW1 1903   3.327   4.555   3.074
  625SOL    HW2 1904   3.271   4.590   3.223
  626SOL     OW 1905   3.723   2.876   3.688
  626SOL    HW1 1906   3.671   2.886   3.773
  626SOL    HW2 1907   3.814   2.839   3.709
  627SOL     OW 1908   2.682   2.450   3.984
  627SOL    HW1 1909   2.595   2.467   4.031
  627SOL    HW2 1910   2.665   2.432   3.887
  628SOL     OW 1911   4.122   2.595   3.126
  628SOL    HW1 1912   4.130   2.677   3.069
  628SOL    HW2 1913   4.026   2.579   3.147
  629SOL     OW 1914   2.879   2.724   4.211
  629SOL    HW1 1915   2.948   2.780   4.256
  629SOL    HW2 1916   2.805   2.783   4.176
  630SOL     OW 1917   4.098   4.686   4.625
  630SOL    HW1 1918   4.041   4.605   4.637
  630SOL    HW2 1919   4.181   4.676   4.679
  631SOL     OW 1920   3.768   2.081   4.031
  631SOL    HW1 1921   3.734   2.175   4.036
  631SOL    HW2 1922   3.790   2.048   4.123
  632SOL     OW 1923   2.766   4.622   2.112
  632SOL    HW1 1924   2.674   4.635   2.075
  632SOL    HW2 1925   2.829   4.600   2.037
  633SOL     OW 1926   3.647   4.770   3.429
  633SOL    HW1 1927   3.720   4.729   3.484
  633SOL    HW2 1928   3.563   4.774   3.483
  634SOL     OW 1929   2.337   1.041   1.723
  634SOL    HW1 1930   2.242   1.069   1.738
  634SOL    HW2 1931   2.395   1.122   1.715
  635SOL     OW 1932   1.293   1.191   1.776
  635SOL    HW1 1933   1.228   1.262   1.748
  635SOL    HW2 1934   1.263   1.152   1.864
  636SOL     OW 1935   3.900   4.907   2.997
  636SOL    HW1 1936   3.946   4.833   2.947
  636SOL    HW2 1937   3.925   4.903   3.093
  637SOL     OW 1938   0.543   1.555   2.466
  637SOL    HW1 1939   0.451   1.575   2.500
  637SOL    HW2 1940   0.604   1.630   2.491
  638SOL     OW 1941   1.858   2.567   3.472
  638SOL    HW1 1942   1.771   2.616   3.462
  638SOL    HW2 1943   1.927   2.612   3.415
  639SOL     OW 1944   0.909   1.234   0.915
  639SOL    HW1 1945   0.814   1.233   0.946
  639SOL    HW2 1946   0.949   1.143   0.929
  640SOL     OW 1947   0.349   3.600   4.400
  640SOL    HW1 1948   0.276   3.548   4.356
  640SOL    HW2 1949   0.411   3.537   4.447
  641SOL     OW 1950   3.619   3.491   2.311
  641SOL    HW1 1951   3.673   3.430   2.370
  641SOL    HW2 1952   3.527   3.454   2.300
  642SOL     OW 1953   3.007   4.353   3.811
  642SOL    HW1 1954   3.075   4.426   3.811
  642SOL    HW2 1955   2.915   4.393   3.813
  643SOL     OW 1956   1.621   0.185   4.313
  643SOL    HW1 1957   1.616   0.260   4.247
  643SOL    HW2 1958   1.573   0.210   4.397
  644SOL     OW 1959   1.866   1.211   4.431
  644SOL    HW1 1960   1.867   1.183   4.527
  644SOL    HW2 1961   1.953   1.256   4.409
  645SOL     OW 1962   2.669   4.127   0.157
  645SOL    HW1 1963   2.641   4.163   0.068
  645SOL    HW2 1964   2.600   4.064   0.191
  646SOL     OW 1965   4.588   4.266   0.812
  646SOL    HW1 1966   4.536   4.209   0.875
  646SOL    HW2 1967   4.664   4.212   0.774
  647SOL     OW 1968   4.083   0.591   3.673
  647SOL    HW1 1969   4.090   0.681   3.628
  647SOL    HW2 1970   4.165   0.575   3.727
  648SOL     OW 1971   3.000   1.267   0.766
  648SOL    HW1 1972   3.045   1.314   0.842
  648SOL    HW2 1973   2.920   1.218   0.801
  649SOL     OW 1974   4.093   3.986   3.360
  649SOL    HW1 1975   4.018   3.983   3.293
  649SOL    HW2 1976   4.061   4.031   3.443
  650SOL     OW 1977   3.958   2.989   2.039
  650SOL    HW1 1978   3.948   2.964   2.135
  650SOL    HW2 1979   3.953   3.088   2.029
  651SOL     OW 1980   4.844   0.360   4.112
  651SOL    HW1 1981   4.913   0.430   4.094
  651SOL    HW2 1982   4.800   0.334   4.026
  652SOL     OW 1983   2.050   0.518   2.507
  652SOL    HW1 1984   2.045   0.509   2.606
  652SOL    HW2 1985   2.044   0.427   2.465
  653SOL     OW 1986   4.674   2.818   2.753
  653SOL    HW1 1987   4.762   2.860   2.730
  653SOL    HW2 1988   4.600   2.874   2.718
  654SOL     OW 1989   0.850   3.015   2.070
  654SOL    HW1 1990   0.794   3.097   2.060
  654SOL    HW2 1991   0.801   2.948   2.127
  655SOL     OW 1992   1.806   3.484   2.721
  655SOL    HW1 1993   1.800   3.547   2.799
  655SOL    HW2 1994   1.883   3.510   2.663
  656SOL     OW 1995   0.386   2.050   2.268
  656SOL    HW1 1996   0.434   1.967   2.240
  656SOL    HW2 1997   0.414   2.074   2.362
  657SOL     OW 1998   1.684   4.904   2.326
  657SOL    HW1 1999   1.773   4.911   2.370
  657SOL    HW2 2000   1.619   4.966   2.370
  658SOL     OW 2001   0.473   1.044   3.354
  658SOL    HW1 2002   0.567   1.071   3.335
  658SOL    HW2 2003   0.470   0.947   3.379
  659SOL     OW 2004   4.237   4.188   3.178
  659SOL    HW1 2005   4.187   4.102   3.178
  659SOL    HW2 2006   4.321   4.178   3.124
  660SOL     OW 2007   3.454   1.482   1.723
  660SOL    HW1 2008   3.454   1.383   1.714
  660SOL    HW2 2009   3.451   1.506   1.820
  661SOL     OW 2010   0.891   4.093   1.969
  661SOL    HW1 2011   0.828   4.093   1.891
  661SOL    HW2 2012   0.979   4.132   1.942
  662SOL     OW 2013   0.319   4.034   0.652
  662SOL    HW1 2014   0.292   4.095   0.578
  662SOL    HW2 2015   0.415   4.049   0.674
  663SOL     OW 2016   3.097   1.889   4.967
  663SOL    HW1 2017   3.096   1.949   4.888
  663SOL    HW2 2018   3.186   1.845   4.975
  664SOL     OW 2019   3.655   0.883   3.333
  664SOL    HW1 2020   3.704   0.800   3.309
  664SOL    HW2 2021   3.571   0.889   3.280
  665SOL     OW 2022   4.261   1.839   1.534
  665SOL    HW1 2023   4.244   1.765   1.468
  665SOL    HW2 2024   4.310   1.913   1.488
  666SOL     OW 2025   4.956   3.409   1.624
  666SOL    HW1 2026   4.861   3.388   1.645
  666SOL    HW2 2027   4.964   3.434   1.527
  667SOL     OW 2028   4.165   3.966   3.678
  667SOL    HW1 2029   4.218   3.921   3.605
  667SOL    HW2 2030   4.183   4.065   3.675
  668SOL     OW 2031   3.337   1.782   2.133
  668SOL    HW1 2032   3.256   1.733   2.099
  668SOL    HW2 2033   3.358   1.751   2.225
  669SOL     OW 2034   2.780   1.527   1.896
  669SOL    HW1 2035   2.800   1.509   1.993
  669SOL    HW2 2036   2.815   1.618   1.871
  670SOL     OW 2037   1.613   0.469   4.469
  670SOL    HW1 2038   1.527   0.430   4.435
  670SOL    HW2 2039   1.609   0.473   4.569
  671SOL     OW 2040   1.972   2.512   0.184
  671SOL    HW1 2041   1.905   2.570   0.231
  671SOL    HW2 2042   1.964   2.526   0.085
  672SOL     OW 2043   1.274   3.083   3.245
  672SOL    HW1 2044   1.182   3.124   3.242
  672SOL    HW2 2045   1.290   3.033   3.160
  673SOL     OW 2046   3.423   3.819   4.167
  673SOL    HW1 2047   3.471   3.732   4.157
  673SOL    HW2 2048   3.400   3.832   4.264
  674SOL     OW 2049   4.129   3.006   2.686
  674SOL    HW1 2050   4.165   3.072   2.751
  674SOL    HW2 2051   4.124   2.916   2.729
  675SOL     OW 2052   4.658   4.928   3.792
  675SOL    HW1 2053   4.576   4.981   3.811
  675SOL    HW2 2054   4.671   4.859   3.863
  676SOL     OW 2055   2.998   4.018   4.742
  676SOL    HW1 2056   3.003   4.117   4.723
  676SOL    HW2 2057   3.009   3.967   4.657
  677SOL     OW 2058   1.013   1.652   2.747
  677SOL    HW1 2059   1.037   1.576   2.686
  677SOL    HW2 2060   0.917   1.645   2.772
  678SOL     OW 2061   1.716   4.665   3.214
  678SOL    HW1 2062   1.628   4.711   3.220
  678SOL    HW2 2063   1.752   4.674   3.121
  679SOL     OW 2064   0.060   4.175   3.490
  679SOL    HW1 2065   0.057   4.128   3.402
  679SOL    HW2 2066   0.008   4.123   3.558
  680SOL     OW 2067   0.537   3.506   0.102
  680SOL    HW1 2068   0.469   3.450   0.054
  680SOL    HW2 2069   0.587   3.449   0.167
  681SOL     OW 2070   4.895   4.914   2.755
  681SOL    HW1 2071   4.970   4.867   2.803
  681SOL    HW2 2072   4.887   4.876   2.662
  682SOL     OW 2073   2.864   2.204   0.441
  682SOL    HW1 2074   2.935   2.139   0.414
  682SOL    HW2 2075   2.906   2.283   0.486
  683SOL     OW 2076   3.183   4.237   1.725
  683SOL    HW1 2077   3.132   4.244   1.811
  683SOL    HW2 2078   3.181   4.324   1.677
  684SOL     OW 2079   4.368   3.213   1.534
  684SOL    HW1 2080   4.420   3.278   1.479
  684SOL    HW2 2081   4.285   3.186   1.484
  685SOL     OW 2082   2.745   2.793   3.776
  685SOL    HW1 2083   2.830   2.744   3.796
  685SOL    HW2 2084   2.671   2.754   3.831
  686SOL     OW 2085   3.511   0.497   0.899
  686SOL    HW1 2086   3.422   0.458   0.924
  686SOL    HW2 2087   3.497   0.580   0.845
  687SOL     OW 2088   1.110   3.002   2.604
  687SOL    HW1 2089   1.034   2.940   2.626
  687SOL    HW2 2090   1.097   3.089   2.652
  688SOL     OW 2091   4.343   2.767   1.872
  688SOL    HW1 2092   4.372   2.675   1.900
  688SOL    HW2 2093   4.291   2.809   1.946
  689SOL     OW 2094   1.005   0.224   1.705
  689SOL    HW1 2095   0.953   0.167   1.767
  689SOL    HW2 2096   0.943   0.272   1.643
  690SOL     OW 2097   3.504   2.211   0.182
  690SOL    HW1 2098   3.431   2.280   0.181
  690SOL    HW2 2099   3.470   2.125   0.143
  691SOL     OW 2100   3.163   1.190   2.133
  691SOL    HW1 2101   3.096   1.212   2.061
  691SOL    HW2 2102   3.215   1.273   2.156
  692SOL     OW 2103   1.778   1.046   1.250
  692SOL    HW1 2104   1.878   1.046   1.255
  692SOL    HW2 2105   1.742   1.128   1.294
  693SOL     OW 2106   0.107   3.938   2.193
  693SOL    HW1 2107   0.039   3.897   2.253
  693SOL    HW2 2108   0.198   3.930   2.234
  694SOL     OW 2109   1.777   3.928   4.300
  694SOL    HW1 2110   1.705   3.992   4.272
  694SOL    HW2 2111   1.736   3.856   4.357
  695SOL     OW 2112   1.223   2.459   1.080
  695SOL    HW1 2113   1.125   2.463   1.063
  695SOL    HW2 2114   1.246   2.516   1.159
  696SOL     OW 2115   0.607   3.600   4.219
  696SOL    HW1 2116   0.659   3.640   4.295
  696SOL    HW2 2117   0.553   3.523   4.253
  697SOL     OW 2118   1.903   4.578   0.875
  697SOL    HW1 2119   1.825   4.531   0.832
  697SOL    HW2 2120   1.948   4.636   0.808
  698SOL     OW 2121   0.240   3.462   1.443
  698SOL    HW1 2122   0.156   3.425   1.403
  698SOL    HW2 2123   0.319   3.430   1.391
  699SOL     OW 2124   3.724   1.624   3.100
  699SOL    HW1 2125   3.630   1.646   3.128
  699SOL    HW2 2126   3.733   1.637   3.001
  700SOL     OW 2127   3.507   1.222   2.534
  700SOL    HW1 2128   3.579   1.238   2.467
  700SOL    HW2 2129   3.489   1.123   2.540
  701SOL     OW 2130   3.933   0.232   0.222
  701SOL    HW1 2131   3.959   0.279   0.307
  701SOL    HW2 2132   3.841   0.262   0.195
  702SOL     OW 2133   0.076   3.123   2.371
  702SOL    HW1 2134   0.057   3.025   2.373
  702SOL    HW2 2135   0.173   3.139   2.355
  703SOL     OW 2136   4.562   0.300   2.543
  703SOL    HW1 2137   4.511   0.240   2.605
  703SOL    HW2 2138   4.497   0.348   2.484
  704SOL     OW 2139   0.162   0.956   3.395
  704SOL    HW1 2140   0.175   1.000   3.306
  704SOL    HW2 2141   0.209   1.009   3.466
  705SOL     OW 2142   3.675   1.060   2.752
  705SOL    HW1 2143   3.739   1.002   2.701
  705SOL    HW2 2144   3.712   1.078   2.843
  706SOL     OW 2145   3.054   3.364   3.340
  706SOL    HW1 2146   3.133   3.426   3.340
  706SOL    HW2 2147   3.078   3.278   3.297
  707SOL     OW 2148   4.347   2.961   1.361
  707SOL    HW1 2149   4.434   2.980   1.406
  707SOL    HW2 2150   4.360   2.960   1.262
  708SOL     OW 2151   3.932   4.135   4.984
  708SOL    HW1 2152   3.851   4.119   0.004
  708SOL    HW2 2153   3.954   4.052   4.932
  709SOL     OW 2154   2.808   4.833   4.727
  709SOL    HW1 2155   2.766   4.799   4.811
  709SOL    HW2 2156   2.908   4.833   4.738
  710SOL     OW 2157   2.510   4.640   1.554
  710SOL    HW1 2158   2.537   4.588   1.473
  710SOL    HW2 2159   2.536   4.736   1.542
  711SOL     OW 2160   4.911   4.788   4.281
  711SOL    HW1 2161   4.842   4.716   4.284
  711SOL    HW2 2162   4.995   4.755   4.325
  712SOL     OW 2163   1.919   3.509   4.370
  712SOL    HW1 2164   1.850   3.496   4.441
  712SOL    HW2 2165   1.884   3.570   4.299
  713SOL     OW 2166   3.499   2.035   0.983
  713SOL    HW1 2167   3.539   1.975   0.914
  713SOL    HW2 2168   3.572   2.088   1.028
  714SOL     OW 2169   4.429   1.479   0.853
  714SOL    HW1 2170   4.464   1.570   0.829
  714SOL    HW2 2171   4.475   1.447   0.936
  715SOL     OW 2172   0.420   2.825   4.858
  715SOL    HW1 2173   0.360   2.798   4.782
  715SOL    HW2 2174   0.371   2.815   4.944
  716SOL     OW 2175   0.272   4.295   1.460
  716SOL    HW1 2176   0.284   4.255   1.551
  716SOL    HW2 2177   0.209   4.238   1.406
  717SOL     OW 2178   1.379   0.111   4.004
  717SOL    HW1 2179   1.479   0.108   4.001
  717SOL    HW2 2180   1.345   0.043   4.069
  718SOL     OW 2181   4.348   0.386   2.400
  718SOL    HW1 2182   4.393   0.354   2.317
  718SOL    HW2 2183   4.335   0.485   2.395
  719SOL     OW 2184   0.385   3.328   0.761
  719SOL    HW1 2185   0.384   3.427   0.774
  719SOL    HW2 2186   0.417   3.307   0.668
  720SOL     OW 2187   2.658   2.783   3.212
  720SOL    HW1 2188   2.695   2.874   3.192
  720SOL    HW2 2189   2.593   2.757   3.141
  721SOL     OW 2190   4.838   0.779   3.360
  721SOL    HW1 2191   4.908   0.714   3.389
  721SOL    HW2 2192   4.830   0.776   3.260
  722SOL     OW 2193   4.294   2.797   1.587
  722SOL    HW1 2194   4.345   2.818   1.671
  722SOL    HW2 2195   4.318   2.864   1.516
  723SOL     OW 2196   4.183   0.424   4.092
  723SOL    HW1 2197   4.175   0.355   4.164
  723SOL    HW2 2198   4.221   0.508   4.132
  724SOL     OW 2199   1.373   2.668   3.612
  724SOL    HW1 2200   1.399   2.687   3.517
  724SOL    HW2 2201   1.450   2.688   3.672
  725SOL     OW 2202   4.367   3.460   0.903
  725SOL    HW1 2203   4.293   3.499   0.849
  725SOL    HW2 2204   4.429   3.532   0.933
  726SOL     OW 2205   0.438   2.717   3.389
  726SOL    HW1 2206   0.480   2.629   3.370
  726SOL    HW2 2207   0.462   2.746   3.482
  727SOL     OW 2208   3.476   1.437   0.061
  727SOL    HW1 2209   3.405   1.436   5.025
  727SOL    HW2 2210   3.432   1.442   0.151
  728SOL     OW 2211   2.704   2.985   3.024
  728SOL    HW1 2212   2.658   2.912   2.974
  728SOL    HW2 2213   2.692   3.071   2.976
  729SOL     OW 2214   1.143   1.567   3.967
  729SOL    HW1 2215   1.067   1.603   4.020
  729SOL    HW2 2216   1.118   1.564   3.870
  730SOL     OW 2217   2.945   2.306   2.045
  730SOL    HW1 2218   2.915   2.216   2.076
  730SOL    HW2 2219   3.045   2.304   2.032
  731SOL     OW 2220   4.630   3.118   2.357
  731SOL    HW1 2221   4.564   3.190   2.378
  731SOL    HW2 2222   4.684   3.145   2.277
  732SOL     OW 2223   1.442   1.239   2.735
  732SOL    HW1 2224   1.358   1.288   2.712
  732SOL    HW2 2225   1.451   1.233   2.834
  733SOL     OW 2226   3.080   0.285   1.193
  733SOL    HW1 2227   2.990   0.327   1.202
  733SOL    HW2 2228   3.080   0.221   1.117
  734SOL     OW 2229   1.847   3.945   0.652
  734SOL    HW1 2230   1.913   3.873   0.674
  734SOL    HW2 2231   1.825   3.997   0.735
  735SOL     OW 2232   0.923   3.146   1.230
  735SOL    HW1 2233   0.836   3.168   1.275
  735SOL    HW2 2234   0.908   3.134   1.132
  736SOL     OW 2235   2.490   0.258   3.926
  736SOL    HW1 2236   2.542   0.191   3.978
  736SOL    HW2 2237   2.520   0.350   3.952
  737SOL     OW 2238   4.587   2.362   0.896
  737SOL    HW1 2239   4.491   2.389   0.887
  737SOL    HW2 2240   4.627   2.350   0.805
  738SOL     OW 2241   0.715   4.030   2.300
  738SOL    HW1 2242   0.684   3.935   2.285
  738SOL    HW2 2243   0.707   4.080   2.214
  739SOL     OW 2244   0.552   3.503   4.641
  739SOL    HW1 2245   0.501   3.583   4.674
  739SOL    HW2 2246   0.585   3.450   4.719
  740SOL     OW 2247   0.401   3.473   0.398
  740SOL    HW1 2248   0.304   3.449   0.392
  740SOL    HW2 2249   0.446   3.413   0.463
  741SOL     OW 2250   4.627   3.652   4.585
  741SOL    HW1 2251   4.716   3.684   4.616
  741SOL    HW2 2252   4.593   3.582   4.648
  742SOL     OW 2253   0.800   1.027   3.625
  742SOL    HW1 2254   0.728   0.961   3.646
  742SOL    HW2 2255   0.878   1.011   3.686
  743SOL     OW 2256   2.830   4.440   0.233
  743SOL    HW1 2257   2.737   4.445   0.267
  743SOL    HW2 2258   2.875   4.529   0.243
  744SOL     OW 2259   3.166   0.142   4.482
  744SOL    HW1 2260   3.104   0.066   4.502
  744SOL    HW2 2261   3.181   0.147   4.383
  745SOL     OW 2262   2.461   4.673   3.727
  745SOL    HW1 2263   2.486   4.582   3.694
  745SOL    HW2 2264   2.363   4.675   3.747
  746SOL     OW 2265   4.642   0.992   3.062
  746SOL    HW1 2266   4.578   0.917   3.079
  746SOL    HW2 2267   4.712   0.992   3.133
  747SOL     OW 2268   0.533   4.736   1.515
  747SOL    HW1 2269   0.614   4.678   1.522
  747SOL    HW2 2270   0.514   4.756   1.419
  748SOL     OW 2271   3.924   0.616   4.642
  748SOL    HW1 2272   3.962   0.701   4.606
  748SOL    HW2 2273   3.911   0.624   4.741
  749SOL     OW 2274   1.673   4.861   3.533
  749SOL    HW1 2275   1.758   4.914   3.525
  749SOL    HW2 2276   1.674   4.810   3.619
  750SOL     OW 2277   3.650   4.514   3.294
  750SOL    HW1 2278   3.567   4.550   3.337
  750SOL    HW2 2279   3.726   4.576   3.312
  751SOL     OW 2280   1.516   0.582   2.470
  751SOL    HW1 2281   1.508   0.648   2.544
  751SOL    HW2 2282   1.449   0.603   2.399
  752SOL     OW 2283   1.261   0.319   2.221
  752SOL    HW1 2284   1.347   0.352   2.183
  752SOL    HW2 2285   1.200   0.396   2.238
  753SOL     OW 2286   0.392   0.390   1.163
  753SOL    HW1 2287   0.416   0.486   1.171
  753SOL    HW2 2288   0.468   0.333   1.194
  754SOL     OW 2289   4.884   3.948   0.178
  754SOL    HW1 2290   4.883   3.919   0.082
  754SOL    HW2 2291   4.968   4.000   0.195
  755SOL     OW 2292   4.332   0.209   4.799
  755SOL    HW1 2293   4.426   0.181   4.785
  755SOL    HW2 2294   4.278   0.133   4.835
  756SOL     OW 2295   1.225   4.425   2.872
  756SOL    HW1 2296   1.299   4.363   2.845
  756SOL    HW2 2297   1.190   4.472   2.791
  757SOL     OW 2298   3.037   0.948   0.766
  757SOL    HW1 2299   2.998   0.964   0.856
  757SOL    HW2 2300   3.029   1.030   0.710
  758SOL     OW 2301   0.633   3.564   3.232
  758SOL    HW1 2302   0.654   3.522   3.143
  758SOL    HW2 2303   0.583   3.498   3.289
  759SOL     OW 2304   2.571   1.394   1.777
  759SOL    HW1 2305   2.638   1.456   1.818
  759SOL    HW2 2306   2.610   1.303   1.769
  760SOL     OW 2307   0.881   3.573   3.392
  760SOL    HW1 2308   0.816   3.497   3.390
  760SOL    HW2 2309   0.928   3.579   3.304
  761SOL     OW 2310   1.175   0.938   3.988
  761SOL    HW1 2311   1.177   0.962   4.085
  761SOL    HW2 2312   1.218   0.848   3.975
  762SOL     OW 2313   4.868   3.343   3.210
  762SOL    HW1 2314   4.809   3.264   3.193
  762SOL    HW2 2315   4.821   3.407   3.271
  763SOL     OW 2316   4.409   0.341   3.942
  763SOL    HW1 2317   4.325   0.351   3.997
  763SOL    HW2 2318   4.476   0.288   3.994
  764SOL     OW 2319   0.766   3.932   4.757
  764SOL    HW1 2320   0.754   4.008   4.693
  764SOL    HW2 2321   0.704   3.944   4.834
  765SOL     OW 2322   3.991   1.342   3.043
  765SOL    HW1 2323   4.006   1.433   3.080
  765SOL    HW2 2324   3.893   1.322   3.040
  766SOL     OW 2325   1.877   4.318   3.553
  766SOL    HW1 2326   1.940   4.379   3.504
  766SOL    HW2 2327   1.822   4.267   3.488
  767SOL     OW 2328   2.911   3.655   3.120
  767SOL    HW1 2329   2.979   3.720   3.087
  767SOL    HW2 2330   2.953   3.565   3.130
  768SOL     OW 2331   1.247   3.179   2.810
  768SOL    HW1 2332   1.190   3.222   2.880
  768SOL    HW2 2333   1.339   3.166   2.847
  769SOL     OW 2334   0.082   1.880   3.264
  769SOL    HW1 2335   0.061   1.824   3.344
  769SOL    HW2 2336   0.091   1.821   3.184
  770SOL     OW 2337   3.702   4.192   0.129
  770SOL    HW1 2338   3.708   4.257   0.053
  770SOL    HW2 2339   3.699   4.241   0.216
  771SOL     OW 2340   1.968   0.092   5.005
  771SOL    HW1 2341   1.972   0.154   4.926
  771SOL    HW2 2342   1.903   0.127   0.037
  772SOL     OW 2343   4.257   2.106   0.628
  772SOL    HW1 2344   4.321   2.072   0.697
  772SOL    HW2 2345   4.306   2.165   0.564
  773SOL     OW 2346   2.899   0.490   1.053
  773SOL    HW1 2347   2.832   0.462   0.985
  773SOL    HW2 2348   2.968   0.549   1.011
  774SOL     OW 2349   2.078   1.331   2.324
  774SOL    HW1 2350   2.135   1.249   2.320
  774SOL    HW2 2351   2.083   1.371   2.415
  775SOL     OW 2352   1.148   3.109   4.890
  775SOL    HW1 2353   1.106   3.200   4.887
  775SOL    HW2 2354   1.133   3.069   4.980
  776SOL     OW 2355   1.857   4.224   4.003
  776SOL    HW1 2356   1.817   4.155   3.943
  776SOL    HW2 2357   1.822   4.314   3.978
  777SOL     OW 2358   2.758   0.631   3.428
  777SOL    HW1 2359   2.845   0.582   3.429
  777SOL    HW2 2360   2.760   0.704   3.496
  778SOL     OW 2361   2.299   4.696   3.443
  778SOL    HW1 2362   2.284   4.745   3.357
  778SOL    HW2 2363   2.384   4.645   3.438
  779SOL     OW 2364   2.756   4.665   0.790
  779SOL    HW1 2365   2.771   4.574   0.829
  779SOL    HW2 2366   2.780   4.665   0.693
  780SOL     OW 2367   0.058   3.118   1.132
  780SOL    HW1 2368   0.141   3.159   1.095
  780SOL    HW2 2369   0.006   3.075   1.058
  781SOL     OW 2370   4.675   0.882   4.237
  781SOL    HW1 2371   4.658   0.816   4.310
  781SOL    HW2 2372   4.721   0.963   4.275
  782SOL     OW 2373   4.083   4.366   4.241
  782SOL    HW1 2374   4.046   4.421   4.165
  782SOL    HW2 2375   4.016   4.296   4.266
  783SOL     OW 2376   1.661   1.116   3.874
  783SOL    HW1 2377   1.580   1.081   3.826
  783SOL    HW2 2378   1.653   1.096   3.971
  784SOL     OW 2379   2.073   3.980   0.394
  784SOL    HW1 2380   2.001   3.916   0.368
  784SOL    HW2 2381   2.031   4.065   0.428
  785SOL     OW 2382   2.712   0.160   3.539
  785SOL    HW1 2383   2.724   0.091   3.611
  785SOL    HW2 2384   2.623   0.203   3.548
  786SOL     OW 2385   4.095   3.366   0.340
  786SOL    HW1 2386   4.011   3.360   0.394
  786SOL    HW2 2387   4.168   3.316   0.387
  787SOL     OW 2388   2.499   0.924   0.316
  787SOL    HW1 2389   2.414   0.975   0.327
  787SOL    HW2 2390   2.574   0.987   0.297
  788SOL     OW 2391   4.951   0.439   0.510
  788SOL    HW1 2392   5.000   0.504   0.452
  788SOL    HW2 2393   4.853   0.442   0.487
  789SOL     OW 2394   0.763   2.763   0.304
  789SOL    HW1 2395   0.725   2.748   0.395
  789SOL    HW2 2396   0.863   2.760   0.308
  790SOL     OW 2397   0.155   1.690   2.790
  790SOL    HW1 2398   0.064   1.667   2.755
  790SOL    HW2 2399   0.221   1.687   2.716
  791SOL     OW 2400   2.883   2.173   2.999
  791SOL    HW1 2401   2.802   2.200   2.946
  791SOL    HW2 2402   2.889   2.229   3.082
  792SOL     OW 2403   3.148   2.037   0.614
  792SOL    HW1 2404   3.201   1.965   0.659
  792SOL    HW2 2405   3.083   1.996   0.550
  793SOL     OW 2406   1.340   2.252   1.324
  793SOL    HW1 2407   1.411   2.311   1.361
  793SOL    HW2 2408   1.375   2.203   1.244
  794SOL     OW 2409   4.148   4.153   0.414
  794SOL    HW1 2410   4.166   4.132   0.318
  794SOL    HW2 2411   4.193   4.239   0.439
  795SOL     OW 2412   1.146   2.057   1.443
  795SOL    HW1 2413   1.237   2.052   1.403
  795SOL    HW2 2414   1.124   1.970   1.488
  796SOL     OW 2415   1.235   2.387   3.509
  796SOL    HW1 2416   1.162   2.320   3.495
  796SOL    HW2 2417   1.202   2.459   3.571
  797SOL     OW 2418   1.943   0.615   3.947
  797SOL    HW1 2419   1.932   0.521   3.979
  797SOL    HW2 2420   2.037   0.630   3.917
  798SOL     OW 2421   0.248   3.015   1.898
  798SOL    HW1 2422   0.161   3.056   1.926
  798SOL    HW2 2423   0.254   3.014   1.798
  799SOL     OW 2424   2.528   2.699   3.905
  799SOL    HW1 2425   2.462   2.718   3.832
  799SOL    HW2 2426   2.491   2.729   3.993
  800SOL     OW 2427   4.357   2.849   4.041
  800SOL    HW1 2428   4.416   2.790   3.985
  800SOL    HW2 2429   4.395   2.942   4.042
  801SOL     OW 2430   0.433   1.704   0.513
  801SOL    HW1 2431   0.439   1.799   0.545
  801SOL    HW2 2432   0.517   1.680   0.465
  802SOL     OW 2433   2.608   0.033   0.930
  802SOL    HW1 2434   2.560   5.023   1.005
  802SOL    HW2 2435   2.692   0.075   0.965
  803SOL     OW 2436   0.609   4.328   3.929
  803SOL    HW1 2437   0.635   4.377   4.013
  803SOL    HW2 2438   0.691   4.312   3.874
  804SOL     OW 2439   4.281   3.820   3.464
  804SOL    HW1 2440   4.235   3.732   3.472
  804SOL    HW2 2441   4.228   3.880   3.405
  805SOL     OW 2442   3.852   1.245   0.750
  805SOL    HW1 2443   3.868   1.146   0.747
  805SOL    HW2 2444   3.761   1.263   0.787
  806SOL     OW 2445   1.031   4.443   0.026
  806SOL    HW1 2446   1.096   4.370   0.004
  806SOL    HW2 2447   1.047   4.475   0.119
  807SOL     OW 2448   0.546   0.596   2.452
  807SOL    HW1 2449   0.595   0.627   2.533
  807SOL    HW2 2450   0.448   0.608   2.466
  808SOL     OW 2451   2.899   1.796   2.526
  808SOL    HW1 2452   2.865   1.716   2.477
  808SOL    HW2 2453   2.885   1.783   2.624
  809SOL     OW 2454   3.458   3.861   3.439
  809SOL    HW1 2455   3.525   3.790   3.459
  809SOL    HW2 2456   3.432   3.907   3.524
  810SOL     OW 2457   2.256   1.392   0.164
  810SOL    HW1 2458   2.246   1.491   0.153
  810SOL    HW2 2459   2.267   1.349   0.074
  811SOL     OW 2460   4.089   1.440   0.796
  811SOL    HW1 2461   4.071   1.348   0.761
  811SOL    HW2 2462   4.068   1.442   0.894
  812SOL     OW 2463   3.744   3.189   1.477
  812SOL    HW1 2464   3.696   3.275   1.458
  812SOL    HW2 2465   3.772   3.147   1.391
  813SOL     OW 2466   2.992   0.997   3.777
  813SOL    HW1 2467   3.007   0.984   3.678
  813SOL    HW2 2468   3.072   0.961   3.826
  814SOL     OW 2469   1.375   3.008   3.536
  814SOL    HW1 2470   1.349   2.951   3.614
  814SOL    HW2 2471   1.351   2.960   3.451
  815SOL     OW 2472   2.541   3.086   4.925
  815SOL    HW1 2473   2.472   3.139   4.976
  815SOL    HW2 2474   2.509   2.991   4.916
  816SOL     OW 2475   1.577   3.489   1.393
  816SOL    HW1 2476   1.655   3.543   1.425
  816SOL    HW2 2477   1.571   3.497   1.293
  817SOL     OW 2478   2.600   3.243   1.710
  817SOL    HW1 2479   2.690   3.202   1.698
  817SOL    HW2 2480   2.539   3.212   1.637
  818SOL     OW 2481   3.948   0.651   2.728
  818SOL    HW1 2482   3.851   0.626   2.726
  818SOL    HW2 2483   3.968   0.703   2.811
  819SOL     OW 2484   4.829   1.700   2.596
  819SOL    HW1 2485   4.900   1.629   2.601
  819SOL    HW2 2486   4.758   1.680   2.663
  820SOL     OW 2487   3.567   2.732   3.105
  820SOL    HW1 2488   3.563   2.746   3.204
  820SOL    HW2 2489   3.594   2.638   3.086
  821SOL     OW 2490   0.407   0.731   1.257
  821SOL    HW1 2491   0.381   0.805   1.195
  821SOL    HW2 2492   0.431   0.769   1.346
  822SOL     OW 2493   3.802   3.222   3.849
  822SOL    HW1 2494   3.848   3.174   3.775
  822SOL    HW2 2495   3.791   3.318   3.826
  823SOL     OW 2496   1.398   4.875   3.288
  823SOL    HW1 2497   1.482   4.896   3.238
  823SOL    HW2 2498   1.409   4.789   3.337
  824SOL     OW 2499   4.427   0.640   2.339
  824SOL    HW1 2500   4.526   0.645   2.326
  824SOL    HW2 2501   4.403   0.684   2.426
  825SOL     OW 2502   1.920   1.140   2.579
  825SOL    HW1 2503   1.890   1.059   2.629
  825SOL    HW2 2504   2.020   1.145   2.581
  826SOL     OW 2505   3.263   3.692   3.090
  826SOL    HW1 2506   3.222   3.602   3.071
  826SOL    HW2 2507   3.248   3.752   3.012
  827SOL     OW 2508   2.114   3.675   4.464
  827SOL    HW1 2509   2.087   3.757   4.413
  827SOL    HW2 2510   2.047   3.603   4.447
  828SOL     OW 2511   4.317   4.783   3.752
  828SOL    HW1 2512   4.304   4.798   3.850
  828SOL    HW2 2513   4.369   4.858   3.713
  829SOL     OW 2514   2.900   0.426   0.240
  829SOL    HW1 2515   2.959   0.398   0.316
  829SOL    HW2 2516   2.861   0.516   0.260
  830SOL     OW 2517   1.111   2.516   3.284
  830SOL    HW1 2518   1.176   2.458   3.334
  830SOL    HW2 2519   1.154   2.552   3.202
  831SOL     OW 2520   3.220   3.852   3.981
  831SOL    HW1 2521   3.165   3.935   3.983
  831SOL    HW2 2522   3.280   3.849   4.062
  832SOL     OW 2523   2.032   2.289   0.962
  832SOL    HW1 2524   2.072   2.267   1.051
  832SOL    HW2 2525   2.031   2.388   0.949
  833SOL     OW 2526   3.375   2.428   2.057
  833SOL    HW1 2527   3.456   2.411   2.001
  833SOL    HW2 2528   3.365   2.355   2.125
  834SOL     OW 2529   4.134   1.101   4.962
  834SOL    HW1 2530   4.204   1.110   4.891
  834SOL    HW2 2531   4.085   1.188   4.972
  835SOL     OW 2532   3.222   4.156   3.773
  835SOL    HW1 2533   3.231   4.183   3.869
  835SOL    HW2 2534   3.133   4.186   3.739
  836SOL     OW 2535   0.385   1.894   1.821
  836SOL    HW1 2536   0.458   1.836   1.856
  836SOL    HW2 2537   0.299   1.873   1.869
  837SOL     OW 2538   0.931   1.364   4.804
  837SOL    HW1 2539   0.881   1.281   4.778
  837SOL    HW2 2540   0.931   1.428   4.728
  838SOL     OW 2541   0.395   1.953   0.623
  838SOL    HW1 2542   0.383   1.987   0.717
  838SOL    HW2 2543   0.336   2.005   0.561
  839SOL     OW 2544   3.350   3.909   0.669
  839SOL    HW1 2545   3.367   3.970   0.592
  839SOL    HW2 2546   3.406   3.937   0.747
  840SOL     OW 2547   2.116   3.502   1.484
  840SOL    HW1 2548   2.210   3.476   1.510
  840SOL    HW2 2549   2.086   3.578   1.541
  841SOL     OW 2550   3.177   3.742   0.977
  841SOL    HW1 2551   3.142   3.676   1.044
  841SOL    HW2 2552   3.218   3.693   0.900
  842SOL     OW 2553   2.335   3.087   0.937
  842SOL    HW1 2554   2.427   3.064   0.905
  842SOL    HW2 2555   2.326   3.059   1.033
  843SOL     OW 2556   1.943   2.847   3.468
  843SOL    HW1 2557   1.881   2.837   3.545
  843SOL    HW2 2558   2.038   2.834   3.499
  844SOL     OW 2559   3.197   0.053   3.609
  844SOL    HW1 2560   3.165   0.145   3.633
  844SOL    HW2 2561   3.190   0.040   3.510
  845SOL     OW 2562   2.508   3.446   2.853
  845SOL    HW1 2563   2.578   3.382   2.885
  845SOL    HW2 2564   2.444   3.466   2.927
  846SOL     OW 2565   4.907   1.044   1.664
  846SOL    HW1 2566   4.869   0.989   1.739
  846SOL    HW2 2567   4.918   0.986   1.583
  847SOL     OW 2568   4.633   0.182   3.247
  847SOL    HW1 2569   4.593   0.180   3.155
  847SOL    HW2 2570   4.569   0.224   3.310
  848SOL     OW 2571   0.177   2.339   4.732
  848SOL    HW1 2572   0.250   2.296   4.679
  848SOL    HW2 2573   0.185   2.312   4.828
  849SOL     OW 2574   2.078   0.180   2.482
  849SOL    HW1 2575   2.114   0.159   2.573
  849SOL    HW2 2576   1.988   0.137   2.471
  850SOL     OW 2577   4.854   4.935   3.050
  850SOL    HW1 2578   4.812   4.911   2.962
  850SOL    HW2 2579   4.892   4.853   3.092
  851SOL     OW 2580   4.847   4.016   3.534
  851SOL    HW1 2581   4.788   4.087   3.498
  851SOL    HW2 2582   4.826   4.000   3.631
  852SOL     OW 2583   1.951   1.351   0.300
  852SOL    HW1 2584   1.871   1.411   0.311
  852SOL    HW2 2585   2.021   1.399   0.247
  853SOL     OW 2586   2.235   3.518   2.741
  853SOL    HW1 2587   2.327   3.507   2.779
  853SOL    HW2 2588   2.209   3.615   2.744
  854SOL     OW 2589   1.474   2.079   2.531
  854SOL    HW1 2590   1.566   2.040   2.525
  854SOL    HW2 2591   1.479   2.164   2.583
  855SOL     OW 2592   1.404   2.213   1.643
  855SOL    HW1 2593   1.454   2.300   1.642
  855SOL    HW2 2594   1.306   2.232   1.653
  856SOL     OW 2595   4.317   4.667   4.253
  856SOL    HW1 2596   4.229   4.703   4.284
  856SOL    HW2 2597   4.391   4.715   4.300
  857SOL     OW 2598   2.661   0.441   4.944
  857SOL    HW1 2599   2.625   0.438   4.851
  857SOL    HW2 2600   2.596   0.488   5.004
  858SOL     OW 2601   3.418   1.980   3.058
  858SOL    HW1 2602   3.364   1.903   3.023
  858SOL    HW2 2603   3.456   2.032   2.982
  859SOL     OW 2604   0.559   4.840   2.258
  859SOL    HW1 2605   0.497   4.768   2.226
  859SOL    HW2 2606   0.540   4.925   2.208
  860SOL     OW 2607   2.829   4.072   3.141
  860SOL    HW1 2608   2.810   3.994   3.201
  860SOL    HW2 2609   2.919   4.061   3.099
  861SOL     OW 2610   3.726   1.286   1.829
  861SOL    HW1 2611   3.643   1.324   1.870
  861SOL    HW2 2612   3.776   1.358   1.781
  862SOL     OW 2613   2.664   3.227   4.046
  862SOL    HW1 2614   2.693   3.168   3.970
  862SOL    HW2 2615   2.623   3.170   4.117
  863SOL     OW 2616   2.002   1.613   0.085
  863SOL    HW1 2617   2.023   1.706   0.055
  863SOL    HW2 2618   1.903   1.604   0.097
  864SOL     OW 2619   3.169   1.886   3.518
  864SOL    HW1 2620   3.135   1.853   3.430
  864SOL    HW2 2621   3.108   1.854   3.591
  865SOL     OW 2622   1.227   4.919   3.008
  865SOL    HW1 2623   1.321   4.950   3.020
  865SOL    HW2 2624   1.205   4.853   3.081
  866SOL     OW 2625   0.913   2.595   0.535
  866SOL    HW1 2626   0.947   2.543   0.457
  866SOL    HW2 2627   0.862   2.534   0.597
  867SOL     OW 2628   3.410   0.252   2.303
  867SOL    HW1 2629   3.508   0.239   2.322
  867SOL    HW2 2630   3.356   0.215   2.378
  868SOL     OW 2631   2.581   1.181   4.455
  868SOL    HW1 2632   2.616   1.131   4.534
  868SOL    HW2 2633   2.651   1.185   4.383
  869SOL     OW 2634   2.682   1.723   4.152
  869SOL    HW1 2635   2.751   1.653   4.134
  869SOL    HW2 2636   2.728   1.809   4.176
  870SOL     OW 2637   0.176   4.891   0.529
  870SOL    HW1 2638   0.155   4.923   0.622
  870SOL    HW2 2639   0.196   4.970   0.471
  871SOL     OW 2640   4.791   5.002   4.846
  871SOL    HW1 2641   4.870   4.995   4.907
  871SOL    HW2 2642   4.823   5.019   4.753
  872SOL     OW 2643   3.932   3.583   4.727
  872SOL    HW1 2644   4.023   3.606   4.760
  872SOL    HW2 2645   3.866   3.651   4.759
  873SOL     OW 2646   3.838   1.766   3.327
  873SOL    HW1 2647   3.738   1.760   3.327
  873SOL    HW2 2648   3.870   1.785   3.419
  874SOL     OW 2649   3.630   4.892   2.579
  874SOL    HW1 2650   3.560   4.893   2.507
  874SOL    HW2 2651   3.591   4.929   2.664
  875SOL     OW 2652   3.786   3.952   2.320
  875SOL    HW1 2653   3.862   4.009   2.350
  875SOL    HW2 2654   3.759   3.891   2.394
  876SOL     OW 2655   1.922   1.550   4.731
  876SOL    HW1 2656   1.955   1.501   4.651
  876SOL    HW2 2657   1.873   1.632   4.703
  877SOL     OW 2658   1.931   3.330   4.156
  877SOL    HW1 2659   1.943   3.422   4.118
  877SOL    HW2 2660   1.917   3.336   4.255
  878SOL     OW 2661   0.628   3.296   0.273
  878SOL    HW1 2662   0.592   3.335   0.357
  878SOL    HW2 2663   0.711   3.244   0.293
  879SOL     OW 2664   2.731   3.696   3.993
  879SOL    HW1 2665   2.747   3.631   3.919
  879SOL    HW2 2666   2.815   3.708   4.045
  880SOL     OW 2667   0.623   3.618   0.420
  880SOL    HW1 2668   0.622   3.676   0.501
  880SOL    HW2 2669   0.535   3.572   0.410
  881SOL     OW 2670   0.710   1.788   2.577
  881SOL    HW1 2671   0.714   1.797   2.677
  881SOL    HW2 2672   0.796   1.817   2.537
  882SOL     OW 2673   4.956   1.781   1.669
  882SOL    HW1 2674   4.922   1.688   1.682
  882SOL    HW2 2675   5.017   1.783   1.590
  883SOL     OW 2676   0.507   1.798   3.448
  883SOL    HW1 2677   0.452   1.867   3.401
  883SOL    HW2 2678   0.541   1.835   3.534
  884SOL     OW 2679   3.275   0.598   2.903
  884SOL    HW1 2680   3.340   0.583   2.977
  884SOL    HW2 2681   3.192   0.545   2.920
  885SOL     OW 2682   1.275   0.577   1.955
  885SOL    HW1 2683   1.244   0.499   1.902
  885SOL    HW2 2684   1.307   0.649   1.893
  886SOL     OW 2685   1.483   0.767   2.965
  886SOL    HW1 2686   1.492   0.789   3.062
  886SOL    HW2 2687   1.388   0.742   2.945
  887SOL     OW 2688   4.403   4.546   0.619
  887SOL    HW1 2689   4.454   4.619   0.666
  887SOL    HW2 2690   4.458   4.511   0.543
  888SOL     OW 2691   0.566   0.076   3.244
  888SOL    HW1 2692   0.639   0.112   3.185
  888SOL    HW2 2693   0.599   0.070   3.338
  889SOL     OW 2694   1.903   3.825   2.041
  889SOL    HW1 2695   1.946   3.887   2.106
  889SOL    HW2 2696   1.807   3.852   2.027
  890SOL     OW 2697   4.336   0.930   3.070
  890SOL    HW1 2698   4.259   0.886   3.116
  890SOL    HW2 2699   4.382   0.864   3.011
  891SOL     OW 2700   1.138   1.668   0.361
  891SOL    HW1 2701   1.049   1.707   0.385
  891SOL    HW2 2702   1.126   1.574   0.328
  892SOL     OW 2703   3.004   3.473   2.668
  892SOL    HW1 2704   2.957   3.558   2.694
  892SOL    HW2 2705   2.976   3.445   2.577
  893SOL     OW 2706   3.312   0.165   0.351
  893SOL    HW1 2707   3.288   0.233   0.281
  893SOL    HW2 2708   3.230   0.138   0.400
  894SOL     OW 2709   1.048   2.189   3.025
  894SOL    HW1 2710   1.057   2.234   3.114
  894SOL    HW2 2711   0.958   2.209   2.986
  895SOL     OW 2712   0.470   0.635   1.719
  895SOL    HW1 2713   0.398   0.599   1.778
  895SOL    HW2 2714   0.525   0.701   1.771
  896SOL     OW 2715   4.141   0.685   1.486
  896SOL    HW1 2716   4.126   0.588   1.471
  896SOL    HW2 2717   4.054   0.734   1.485
  897SOL     OW 2718   0.276   3.099   1.346
  897SOL    HW1 2719   0.191   3.149   1.333
  897SOL    HW2 2720   0.263   3.003   1.318
  898SOL     OW 2721   3.662   2.239   1.148
  898SOL    HW1 2722   3.668   2.229   1.247
  898SOL    HW2 2723   3.647   2.336   1.125
  899SOL     OW 2724   4.821   2.126   0.079
  899SOL    HW1 2725   4.901   2.125   0.018
  899SOL    HW2 2726   4.841   2.070   0.160
  900SOL     OW 2727   2.633   1.424   3.657
  900SOL    HW1 2728   2.554   1.382   3.614
  900SOL    HW2 2729   2.716   1.372   3.635
  901SOL     OW 2730   4.056   3.531   3.577
  901SOL    HW1 2731   3.986   3.496   3.515
  901SOL    HW2 2732   4.146   3.518   3.537
  902SOL     OW 2733   2.857   3.096   0.207
  902SOL    HW1 2734   2.800   3.015   0.196
  902SOL    HW2 2735   2.909   3.089   0.292
  903SOL     OW 2736   0.012   3.460   2.990
  903SOL    HW1 2737   5.008   3.407   3.065
  903SOL    HW2 2738   5.024   3.417   2.903
  904SOL     OW 2739   4.430   3.012   2.967
  904SOL    HW1 2740   4.393   2.932   3.015
  904SOL    HW2 2741   4.529   3.005   2.963
  905SOL     OW 2742   3.970   2.932   0.331
  905SOL    HW1 2743   4.061   2.921   0.292
  905SOL    HW2 2744   3.907   2.964   0.260
  906SOL     OW 2745   4.060   2.984   3.407
  906SOL    HW1 2746   3.976   3.017   3.451
  906SOL    HW2 2747   4.126   2.959   3.478
  907SOL     OW 2748   2.277   2.736   2.932
  907SOL    HW1 2749   2.257   2.783   3.018
  907SOL    HW2 2750   2.286   2.803   2.859
  908SOL     OW 2751   4.500   4.086   3.633
  908SOL    HW1 2752   4.568   4.044   3.572
  908SOL    HW2 2753   4.420   4.113   3.579
  909SOL     OW 2754   1.223   4.477   4.168
  909SOL    HW1 2755   1.240   4.480   4.267
  909SOL    HW2 2756   1.265   4.557   4.125
  910SOL     OW 2757   0.493   4.866   3.747
  910SOL    HW1 2758   0.484   4.932   3.821
  910SOL    HW2 2759   0.442   4.898   3.667
  911SOL     OW 2760   0.997   4.705   4.996
  911SOL    HW1 2761   1.091   4.708   4.960
  911SOL    HW2 2762   0.976   4.612   5.027
  912SOL     OW 2763   1.698   0.809   2.091
  912SOL    HW1 2764   1.605   0.792   2.056
  912SOL    HW2 2765   1.723   0.904   2.072
  913SOL     OW 2766   2.485   3.212   3.117
  913SOL    HW1 2767   2.467   3.178   3.024
  913SOL    HW2 2768   2.560   3.278   3.114
  914SOL     OW 2769   2.036   0.341   3.965
  914SOL    HW1 2770   1.957   0.282   3.981
  914SOL    HW2 2771   2.092   0.346   4.047
  915SOL     OW 2772   3.643   0.959   4.987
  915SOL    HW1 2773   3.582   0.906   0.011
  915SOL    HW2 2774   3.631   1.056   5.006
  916SOL     OW 2775   2.858   1.812   0.232
  916SOL    HW1 2776   2.839   1.722   0.194
  916SOL    HW2 2777   2.820   1.883   0.172
  917SOL     OW 2778   4.705   4.414   2.889
  917SOL    HW1 2779   4.797   4.410   2.930
  917SOL    HW2 2780   4.712   4.400   2.791
  918SOL     OW 2781   2.297   1.260   1.948
  918SOL    HW1 2782   2.377   1.216   1.989
  918SOL    HW2 2783   2.328   1.327   1.880
  919SOL     OW 2784   2.626   0.812   3.607
  919SOL    HW1 2785   2.556   0.836   3.540
  919SOL    HW2 2786   2.589   0.745   3.671
  920SOL     OW 2787   0.981   1.657   2.437
  920SOL    HW1 2788   1.024   1.567   2.439
  920SOL    HW2 2789   1.030   1.719   2.498
  921SOL     OW 2790   0.007   3.119   0.474
  921SOL    HW1 2791   0.088   3.134   0.417
  921SOL    HW2 2792   0.033   3.069   0.557
  922SOL     OW 2793   4.398   1.222   1.615
  922SOL    HW1 2794   4.411   1.209   1.516
  922SOL    HW2 2795   4.475   1.182   1.664
  923SOL     OW 2796   3.521   0.209   4.465
  923SOL    HW1 2797   3.474   0.291   4.435
  923SOL    HW2 2798   3.454   0.140   4.494
  924SOL     OW 2799   3.941   4.469   2.756
  924SOL    HW1 2800   4.022   4.487   2.700
  924SOL    HW2 2801   3.894   4.556   2.773
  925SOL     OW 2802   5.010   3.142   4.089
  925SOL    HW1 2803   0.010   3.067   4.033
  925SOL    HW2 2804   5.007   3.115   4.185
  926SOL     OW 2805   4.199   2.891   3.637
  926SOL    HW1 2806   4.280   2.934   3.677
  926SOL    HW2 2807   4.214   2.793   3.629
  927SOL     OW 2808   0.047   2.364   1.056
  927SOL    HW1 2809   5.019   2.287   1.067
  927SOL    HW2 2810   5.032   2.450   1.068
  928SOL     OW 2811   4.633   4.950   4.325
  928SOL    HW1 2812   4.703   4.912   4.264
  928SOL    HW2 2813   4.598   4.878   4.385
  929SOL     OW 2814   3.159   1.961   4.238
  929SOL    HW1 2815   3.127   1.869   4.219
  929SOL    HW2 2816   3.108   2.027   4.183
  930SOL     OW 2817   0.749   1.315   3.273
  930SOL    HW1 2818   0.710   1.375   3.344
  930SOL    HW2 2819   0.781   1.370   3.196
  931SOL     OW 2820   1.360   3.882   4.399
  931SOL    HW1 2821   1.260   3.879   4.391
  931SOL    HW2 2822   1.401   3.822   4.331
  932SOL     OW 2823   1.728   1.181   4.970
  932SOL    HW1 2824   1.657   1.170   4.901
  932SOL    HW2 2825   1.792   1.104   4.965
  933SOL     OW 2826   4.561   4.627   2.571
  933SOL    HW1 2827   4.614   4.705   2.537
  933SOL    HW2 2828   4.515   4.652   2.656
  934SOL     OW 2829   0.895   2.257   3.251
  934SOL    HW1 2830   0.938   2.166   3.245
  934SOL    HW2 2831   0.876   2.279   3.346
  935SOL     OW 2832   2.236   2.065   2.926
  935SOL    HW1 2833   2.206   1.970   2.921
  935SOL    HW2 2834   2.213   2.103   3.016
  936SOL     OW 2835   0.806   4.720   4.596
  936SOL    HW1 2836   0.904   4.727   4.577
  936SOL    HW2 2837   0.789   4.750   4.690
  937SOL     OW 2838   1.086   3.772   0.437
  937SOL    HW1 2839   1.045   3.858   0.406
  937SOL    HW2 2840   1.050   3.749   0.528
  938SOL     OW 2841   1.337   3.055   0.695
  938SOL    HW1 2842   1.398   2.987   0.654
  938SOL    HW2 2843   1.386   3.107   0.764
  939SOL     OW 2844   2.772   3.397   1.935
  939SOL    HW1 2845   2.860   3.377   1.892
  939SOL    HW2 2846   2.710   3.320   1.921
  940SOL     OW 2847   4.825   2.042   3.811
  940SOL    HW1 2848   4.733   2.077   3.790
  940SOL    HW2 2849   4.818   1.974   3.884
  941SOL     OW 2850   0.967   3.784   1.197
  941SOL    HW1 2851   1.005   3.699   1.160
  941SOL    HW2 2852   0.990   3.792   1.294
  942SOL     OW 2853   2.119   4.356   4.459
  942SOL    HW1 2854   2.213   4.329   4.478
  942SOL    HW2 2855   2.067   4.359   4.545
  943SOL     OW 2856   3.968   3.710   0.100
  943SOL    HW1 2857   3.975   3.610   0.105
  943SOL    HW2 2858   3.990   3.749   0.190
  944SOL     OW 2859   2.623   1.212   4.171
  944SOL    HW1 2860   2.536   1.201   4.219
  944SOL    HW2 2861   2.611   1.274   4.093
  945SOL     OW 2862   3.978   4.544   4.055
  945SOL    HW1 2863   3.944   4.595   3.976
  945SOL    HW2 2864   3.985   4.605   4.134
  946SOL     OW 2865   0.664   1.985   3.620
  946SOL    HW1 2866   0.578   2.026   3.591
  946SOL    HW2 2867   0.685   2.014   3.713
  947SOL     OW 2868   0.560   3.480   2.960
  947SOL    HW1 2869   0.473   3.435   2.982
  947SOL    HW2 2870   0.576   3.476   2.862
  948SOL     OW 2871   2.602   2.502   4.358
  948SOL    HW1 2872   2.510   2.483   4.393
  948SOL    HW2 2873   2.618   2.448   4.275
  949SOL     OW 2874   1.215   2.885   4.741
  949SOL    HW1 2875   1.186   2.954   4.807
  949SOL    HW2 2876   1.146   2.876   4.670
  950SOL     OW 2877   3.980   4.137   2.367
  950SOL    HW1 2878   3.945   4.230   2.368
  950SOL    HW2 2879   4.059   4.130   2.429
  951SOL     OW 2880   2.452   4.313   3.974
  951SOL    HW1 2881   2.498   4.305   3.885
  951SOL    HW2 2882   2.418   4.224   4.002
  952SOL     OW 2883   0.938   4.545   2.994
  952SOL    HW1 2884   1.035   4.520   3.001
  952SOL    HW2 2885   0.893   4.526   3.081
  953SOL     OW 2886   2.120   0.785   1.227
  953SOL    HW1 2887   2.203   0.787   1.283
  953SOL    HW2 2888   2.102   0.875   1.189
  954SOL     OW 2889   3.510   1.970   0.489
  954SOL    HW1 2890   3.480   1.878   0.465
  954SOL    HW2 2891   3.477   1.993   0.580
  955SOL     OW 2892   2.623   3.179   0.714
  955SOL    HW1 2893   2.566   3.108   0.674
  955SOL    HW2 2894   2.566   3.257   0.739
  956SOL     OW 2895   1.223   4.436   0.992
  956SOL    HW1 2896   1.227   4.481   1.081
  956SOL    HW2 2897   1.129   4.407   0.974
  957SOL     OW 2898   3.714   1.341   3.081
  957SOL    HW1 2899   3.727   1.424   3.135
  957SOL    HW2 2900   3.667   1.364   2.996
  958SOL     OW 2901   4.856   3.874   2.261
  958SOL    HW1 2902   4.870   3.934   2.183
  958SOL    HW2 2903   4.762   3.884   2.294
  959SOL     OW 2904   4.195   4.231   3.703
  959SOL    HW1 2905   4.242   4.271   3.625
  959SOL    HW2 2906   4.215   4.285   3.785
  960SOL     OW 2907   3.620   5.018   1.462
  960SOL    HW1 2908   3.700   0.037   1.486
  960SOL    HW2 2909   3.646   4.922   1.451
  961SOL     OW 2910   0.822   3.038   2.570
  961SOL    HW1 2911   0.828   2.947   2.610
  961SOL    HW2 2912   0.879   3.102   2.621
  962SOL     OW 2913   1.233   0.091   2.603
  962SOL    HW1 2914   1.218   0.004   2.650
  962SOL    HW2 2915   1.250   0.074   2.506
  963SOL     OW 2916   1.674   0.595   0.925
  963SOL    HW1 2917   1.641   0.502   0.945
  963SOL    HW2 2918   1.687   0.644   1.011
  964SOL     OW 2919   2.491   1.677   4.732
  964SOL    HW1 2920   2.438   1.666   4.817
  964SOL    HW2 2921   2.429   1.702   4.657
  965SOL     OW 2922   4.857   4.729   0.246
  965SOL    HW1 2923   4.955   4.749   0.244
  965SOL    HW2 2924   4.810   4.784   0.177
  966SOL     OW 2925   3.121   2.575   0.075
  966SOL    HW1 2926   3.204   2.611   0.031
  966SOL    HW2 2927   3.054   2.649   0.086
  967SOL     OW 2928   4.236   1.133   1.995
  967SOL    HW1 2929   4.147   1.122   1.951
  967SOL    HW2 2930   4.308   1.118   1.928
  968SOL     OW 2931   4.654   0.925   3.496
  968SOL    HW1 2932   4.657   0.893   3.591
  968SOL    HW2 2933   4.719   0.873   3.441
  969SOL     OW 2934   2.252   0.925   4.210
  969SOL    HW1 2935   2.301   0.976   4.280
  969SOL    HW2 2936   2.179   0.982   4.172
  970SOL     OW 2937   0.128   3.678   1.978
  970SOL    HW1 2938   0.217   3.703   1.940
  970SOL    HW2 2939   0.141   3.635   2.067
  971SOL     OW 2940   3.967   3.538   3.833
  971SOL    HW1 2941   4.043   3.575   3.886
  971SOL    HW2 2942   3.988   3.545   3.735
  972SOL     OW 2943   1.476   1.656   4.507
  972SOL    HW1 2944   1.447   1.561   4.507
  972SOL    HW2 2945   1.413   1.711   4.452
  973SOL     OW 2946   3.486   0.241   2.945
  973SOL    HW1 2947   3.532   0.322   2.908
  973SOL    HW2 2948   3.555   0.178   2.981
  974SOL     OW 2949   0.851   1.461   3.069
  974SOL    HW1 2950   0.939   1.434   3.108
  974SOL    HW2 2951   0.835   1.558   3.086
  975SOL     OW 2952   4.155   0.129   0.096
  975SOL    HW1 2953   4.068   0.145   0.143
  975SOL    HW2 2954   4.224   0.193   0.131
  976SOL     OW 2955   1.669   4.431   1.412
  976SOL    HW1 2956   1.766   4.452   1.408
  976SOL    HW2 2957   1.652   4.363   1.484
  977SOL     OW 2958   0.116   0.991   3.112
  977SOL    HW1 2959   0.049   1.050   3.157
  977SOL    HW2 2960   0.068   0.926   3.053
  978SOL     OW 2961   2.067   4.302   4.754
  978SOL    HW1 2962   2.121   4.219   4.739
  978SOL    HW2 2963   2.078   4.333   4.848
  979SOL     OW 2964   2.771   0.226   4.076
  979SOL    HW1 2965   2.844   0.220   4.144
  979SOL    HW2 2966   2.803   0.190   3.989
  980SOL     OW 2967   1.159   0.299   3.958
  980SOL    HW1 2968   1.111   0.211   3.959
  980SOL    HW2 2969   1.239   0.292   3.899
  981SOL     OW 2970   0.316   4.168   2.031
  981SOL    HW1 2971   0.367   4.111   2.096
  981SOL    HW2 2972   0.310   4.261   2.066
  982SOL     OW 2973   3.429   1.328   3.167
  982SOL    HW1 2974   3.514   1.282   3.143
  982SOL    HW2 2975   3.351   1.272   3.140
  983SOL     OW 2976   2.395   1.032   2.714
  983SOL    HW1 2977   2.395   0.981   2.800
  983SOL    HW2 2978   2.413   0.969   2.638
  984SOL     OW 2979   0.455   0.427   0.381
  984SOL    HW1 2980   0.513   0.449   0.459
  984SOL    HW2 2981   0.359   0.439   0.405
  985SOL     OW 2982   1.767   2.734   2.899
  985SOL    HW1 2983   1.843   2.702   2.956
  985SOL    HW2 2984   1.788   2.716   2.803
  986SOL     OW 2985   0.995   2.578   3.520
  986SOL    HW1 2986   1.025   2.558   3.427
  986SOL    HW2 2987   1.019   2.672   3.543
  987SOL     OW 2988   2.643   1.351   3.918
  987SOL    HW1 2989   2.651   1.391   3.827
  987SOL    HW2 2990   2.638   1.251   3.909
  988SOL     OW 2991   3.677   2.513   4.739
  988SOL    HW1 2992   3.754   2.558   4.785
  988SOL    HW2 2993   3.694   2.414   4.734
  989SOL     OW 2994   1.861   0.725   0.497
  989SOL    HW1 2995   1.847   0.821   0.522
  989SOL    HW2 2996   1.873   0.718   0.398
  990SOL     OW 2997   1.355   2.841   1.269
  990SOL    HW1 2998   1.307   2.801   1.190
  990SOL    HW2 2999   1.292   2.900   1.320
  991SOL     OW 3000   0.556   3.071   4.803
  991SOL    HW1 3001   0.488   3.138   4.775
  991SOL    HW2 3002   0.512   2.981   4.812
  992SOL     OW 3003   3.133   3.950   1.877
  992SOL    HW1 3004   3.184   3.952   1.963
  992SOL    HW2 3005   3.099   3.857   1.861
  993SOL     OW 3006   3.353   2.360   3.787
  993SOL    HW1 3007   3.332   2.322   3.697
  993SOL    HW2 3008   3.387   2.287   3.846
  994SOL     OW 3009   4.013   3.540   1.075
  994SOL    HW1 3010   4.064   3.622   1.102
  994SOL    HW2 3011   3.991   3.486   1.155
  995SOL     OW 3012   3.031   2.146   4.689
  995SOL    HW1 3013   3.010   2.181   4.598
  995SOL    HW2 3014   3.130   2.144   4.703
  996SOL     OW 3015   2.521   3.294   0.338
  996SOL    HW1 3016   2.592   3.290   0.408
  996SOL    HW2 3017   2.563   3.311   0.249
  997SOL     OW 3018   1.951   3.305   1.983
  997SOL    HW1 3019   2.038   3.280   1.941
  997SOL    HW2 3020   1.959   3.302   2.082
  998SOL     OW 3021   4.998   0.263   3.050
  998SOL    HW1 3022   4.977   0.180   3.102
  998SOL    HW2 3023   5.009   0.240   2.953
  999SOL     OW 3024   3.782   1.163   2.484
  999SOL    HW1 3025   3.827   1.078   2.460
  999SOL    HW2 3026   3.740   1.154   2.575
 1000SOL     OW 3027   1.511   1.020   1.132
 1000SOL    HW1 3028   1.514   0.961   1.052
 1000SOL    HW2 3029   1.590   1.001   1.191
 1001SOL     OW 3030   4.710   3.835   3.399
 1001SOL    HW1 3031   4.686   3.770   3.470
 1001SOL    HW2 3032   4.778   3.900   3.435
 1002SOL     OW 3033   1.943   0.437   2.215
 1002SOL    HW1 3034   1.893   0.515   2.251
 1002SOL    HW2 3035   1.948   0.444   2.115
 1003SOL     OW 3036   3.823   0.042   1.214
 1003SOL    HW1 3037   3.756   0.001   1.151
 1003SOL    HW2 3038   3.863   5.005   1.270
 1004SOL     OW 3039   3.870   1.404   3.499
 1004SOL    HW1 3040   3.814   1.336   3.545
 1004SOL    HW2 3041   3.812   1.473   3.457
 1005SOL     OW 3042   3.212   3.012   3.458
 1005SOL    HW1 3043   3.219   3.059   3.546
 1005SOL    HW2 3044   3.268   2.929   3.459
 1006SOL     OW 3045   1.638   0.263   0.619
 1006SOL    HW1 3046   1.631   0.194   0.547
 1006SOL    HW2 3047   1.588   0.345   0.591
 1007SOL     OW 3048   1.709   3.958   1.506
 1007SOL    HW1 3049   1.671   3.943   1.415
 1007SOL    HW2 3050   1.774   4.034   1.503
 1008SOL     OW 3051   3.066   0.426   1.477
 1008SOL    HW1 3052   3.140   0.380   1.428
 1008SOL    HW2 3053   3.008   0.475   1.412
 1009SOL     OW 3054   0.122   1.962   4.145
 1009SOL    HW1 3055   0.148   2.053   4.113
 1009SOL    HW2 3056   0.173   1.940   4.228
 1010SOL     OW 3057   3.519   1.914   3.626
 1010SOL    HW1 3058   3.455   1.990   3.612
 1010SOL    HW2 3059   3.607   1.951   3.657
 1011SOL     OW 3060   4.415   2.539   3.362
 1011SOL    HW1 3061   4.508   2.531   3.328
 1011SOL    HW2 3062   4.353   2.487   3.303
 1012SOL     OW 3063   2.091   3.024   1.520
 1012SOL    HW1 3064   2.023   3.067   1.581
 1012SOL    HW2 3065   2.081   2.925   1.524
 1013SOL     OW 3066   3.241   3.129   2.997
 1013SOL    HW1 3067   3.158   3.137   2.942
 1013SOL    HW2 3068   3.220   3.151   3.092
 1014SOL     OW 3069   0.739   1.200   4.636
 1014SOL    HW1 3070   0.732   1.288   4.589
 1014SOL    HW2 3071   0.819   1.151   4.604
 1015SOL     OW 3072   3.579   3.667   1.324
 1015SOL    HW1 3073   3.616   3.744   1.270
 1015SOL    HW2 3074   3.480   3.676   1.329
 1016SOL     OW 3075   2.566   0.921   4.122
 1016SOL    HW1 3076   2.620   0.998   4.158
 1016SOL    HW2 3077   2.625   0.863   4.066
 1017SOL     OW 3078   5.031   0.040   1.669
 1017SOL    HW1 3079   4.960   5.005   1.679
 1017SOL    HW2 3080   0.023   0.046   1.573
 1018SOL     OW 3081   0.270   2.613   3.635
 1018SOL    HW1 3082   0.333   2.689   3.652
 1018SOL    HW2 3083   0.193   2.646   3.579
 1019SOL     OW 3084   1.872   4.155   1.923
 1019SOL    HW1 3085   1.893   4.067   1.882
 1019SOL    HW2 3086   1.886   4.150   2.022
 1020SOL     OW 3087   1.191   1.200   1.066
 1020SOL    HW1 3088   1.179   1.109   1.026
 1020SOL    HW2 3089   1.188   1.193   1.166
 1021SOL     OW 3090   4.966   0.663   1.750
 1021SOL    HW1 3091   0.023   0.623   1.752
 1021SOL    HW2 3092   4.898   0.590   1.740
 1022SOL     OW 3093   0.848   4.111   4.974
 1022SOL    HW1 3094   0.807   4.178   4.913
 1022SOL    HW2 3095   0.777   4.070   5.032
 1023SOL     OW 3096   3.758   2.612   3.562
 1023SOL    HW1 3097   3.685   2.660   3.611
 1023SOL    HW2 3098   3.763   2.518   3.594
 1024SOL     OW 3099   4.225   1.190   2.911
 1024SOL    HW1 3100   4.157   1.262   2.926
 1024SOL    HW2 3101   4.290   1.220   2.842
 1025SOL     OW 3102   3.647   3.287   2.011
 1025SOL    HW1 3103   3.558   3.251   1.984
 1025SOL    HW2 3104   3.674   3.248   2.099
 1026SOL     OW 3105   1.988   4.622   1.559
 1026SOL    HW1 3106   1.983   4.562   1.638
 1026SOL    HW2 3107   1.964   4.715   1.586
 1027SOL     OW 3108   3.525   0.604   0.444
 1027SOL    HW1 3109   3.507   0.703   0.445
 1027SOL    HW2 3110   3.477   0.563   0.367
 1028SOL     OW 3111   2.758   3.364   4.270
 1028SOL    HW1 3112   2.663   3.393   4.277
 1028SOL    HW2 3113   2.772   3.317   4.183
 1029SOL     OW 3114   3.331   0.501   4.242
 1029SOL    HW1 3115   3.387   0.578   4.212
 1029SOL    HW2 3116   3.356   0.474   4.334
 1030SOL     OW 3117   3.612   4.726   2.110
 1030SOL    HW1 3118   3.612   4.632   2.145
 1030SOL    HW2 3119   3.579   4.726   2.016
 1031SOL     OW 3120   2.673   1.149   1.342
 1031SOL    HW1 3121   2.581   1.147   1.381
 1031SOL    HW2 3122   2.739   1.177   1.413
 1032SOL     OW 3123   0.278   3.543   3.095
 1032SOL    HW1 3124   0.181   3.565   3.094
 1032SOL    HW2 3125   0.329   3.618   3.137
 1033SOL     OW 3126   0.822   0.405   3.823
 1033SOL    HW1 3127   0.812   0.494   3.778
 1033SOL    HW2 3128   0.732   0.363   3.834
 1034SOL     OW 3129   1.512   1.799   2.768
 1034SOL    HW1 3130   1.451   1.779   2.845
 1034SOL    HW2 3131   1.479   1.880   2.720
 1035SOL     OW 3132   0.904   2.133   1.107
 1035SOL    HW1 3133   0.957   2.131   1.022
 1035SOL    HW2 3134   0.956   2.181   1.178
 1036SOL     OW 3135   1.146   1.528   4.884
 1036SOL    HW1 3136   1.168   1.551   4.979
 1036SOL    HW2 3137   1.082   1.451   4.883
 1037SOL     OW 3138   3.949   1.484   0.341
 1037SOL    HW1 3139   3.851   1.465   0.331
 1037SOL    HW2 3140   3.966   1.527   0.430
 1038SOL     OW 3141   1.675   4.116   2.205
 1038SOL    HW1 3142   1.701   4.020   2.195
 1038SOL    HW2 3143   1.635   4.149   2.120
 1039SOL     OW 3144   1.854   1.869   4.053
 1039SOL    HW1 3145   1.758   1.843   4.061
 1039SOL    HW2 3146   1.869   1.917   3.966
 1040SOL     OW 3147   4.453   1.126   0.330
 1040SOL    HW1 3148   4.448   1.072   0.414
 1040SOL    HW2 3149   4.388   1.201   0.334
 1041SOL     OW 3150   4.875   0.831   0.922
 1041SOL    HW1 3151   4.867   0.825   1.022
 1041SOL    HW2 3152   4.797   0.785   0.880
 1042SOL     OW 3153   1.484   2.896   0.508
 1042SOL    HW1 3154   1.517   2.805   0.534
 1042SOL    HW2 3155   1.499   2.909   0.410
 1043SOL     OW 3156   3.865   3.022   0.748
 1043SOL    HW1 3157   3.863   3.035   0.847
 1043SOL    HW2 3158   3.812   3.094   0.703
 1044SOL     OW 3159   2.988   1.722   4.254
 1044SOL    HW1 3160   2.923   1.646   4.248
 1044SOL    HW2 3161   3.028   1.724   4.346
 1045SOL     OW 3162   2.108   0.454   0.180
 1045SOL    HW1 3163   2.011   0.445   0.155
 1045SOL    HW2 3164   2.117   0.457   0.279
 1046SOL     OW 3165   1.091   0.821   0.478
 1046SOL    HW1 3166   1.167   0.795   0.538
 1046SOL    HW2 3167   1.121   0.891   0.414
 1047SOL     OW 3168   1.029   4.530   2.580
 1047SOL    HW1 3169   1.104   4.594   2.599
 1047SOL    HW2 3170   0.945   4.563   2.624
 1048SOL     OW 3171   3.321   3.712   1.349
 1048SOL    HW1 3172   3.254   3.638   1.359
 1048SOL    HW2 3173   3.307   3.780   1.421
 1049SOL     OW 3174   1.248   2.444   4.138
 1049SOL    HW1 3175   1.306   2.501   4.080
 1049SOL    HW2 3176   1.206   2.372   4.083
 1050SOL     OW 3177   4.595   3.335   4.599
 1050SOL    HW1 3178   4.597   3.340   4.699
 1050SOL    HW2 3179   4.529   3.265   4.570
 1051SOL     OW 3180   2.237   4.499   0.553
 1051SOL    HW1 3181   2.201   4.523   0.463
 1051SOL    HW2 3182   2.199   4.561   0.622
 1052SOL     OW 3183   0.871   3.502   2.758
 1052SOL    HW1 3184   0.870   3.588   2.808
 1052SOL    HW2 3185   0.844   3.518   2.663
 1053SOL     OW 3186   4.320   4.408   4.365
 1053SOL    HW1 3187   4.334   4.503   4.337
 1053SOL    HW2 3188   4.233   4.375   4.329
 1054SOL     OW 3189   2.340   2.983   2.468
 1054SOL    HW1 3190   2.388   3.058   2.423
 1054SOL    HW2 3191   2.342   2.902   2.410
 1055SOL     OW 3192   0.297   2.955   0.785
 1055SOL    HW1 3193   0.231   2.990   0.719
 1055SOL    HW2 3194   0.251   2.898   0.853
 1056SOL     OW 3195   0.401   0.982   0.788
 1056SOL    HW1 3196   0.462   1.060   0.774
 1056SOL    HW2 3197   0.325   0.987   0.722
 1057SOL     OW 3198   1.763   2.285   4.139
 1057SOL    HW1 3199   1.798   2.256   4.050
 1057SOL    HW2 3200   1.826   2.256   4.211
 1058SOL     OW 3201   4.922   2.308   4.819
 1058SOL    HW1 3202   4.980   2.290   4.899
 1058SOL    HW2 3203   4.966   2.272   4.737
 1059SOL     OW 3204   0.279   2.335   3.621
 1059SOL    HW1 3205   0.288   2.434   3.610
 1059SOL    HW2 3206   0.183   2.311   3.632
 1060SOL     OW 3207   3.145   1.188   3.575
 1060SOL    HW1 3208   3.117   1.284   3.570
 1060SOL    HW2 3209   3.159   1.162   3.670
 1061SOL     OW 3210   0.158   4.113   1.645
 1061SOL    HW1 3211   0.079   4.149   1.594
 1061SOL    HW2 3212   0.135   4.024   1.684
 1062SOL     OW 3213   0.892   0.687   0.836
 1062SOL    HW1 3214   0.874   0.669   0.739
 1062SOL    HW2 3215   0.981   0.732   0.845
 1063SOL     OW 3216   3.981   2.643   0.256
 1063SOL    HW1 3217   3.986   2.624   0.355
 1063SOL    HW2 3218   3.928   2.726   0.241
 1064SOL     OW 3219   5.033   3.453   3.418
 1064SOL    HW1 3220   5.004   3.453   3.323
 1064SOL    HW2 3221   5.018   3.362   3.457
 1065SOL     OW 3222   3.376   0.244   3.436
 1065SOL    HW1 3223   3.281   0.254   3.407
 1065SOL    HW2 3224   3.379   0.197   3.525
 1066SOL     OW 3225   2.414   2.911   3.746
 1066SOL    HW1 3226   2.416   2.955   3.836
 1066SOL    HW2 3227   2.385   2.978   3.677
 1067SOL     OW 3228   0.803   2.811   4.252
 1067SOL    HW1 3229   0.715   2.858   4.253
 1067SOL    HW2 3230   0.790   2.717   4.222
 1068SOL     OW 3231   0.778   1.025   3.351
 1068SOL    HW1 3232   0.821   1.111   3.322
 1068SOL    HW2 3233   0.774   1.021   3.451
 1069SOL     OW 3234   2.315   4.570   3.958
 1069SOL    HW1 3235   2.397   4.517   3.938
 1069SOL    HW2 3236   2.250   4.513   4.008
 1070SOL     OW 3237   3.340   1.988   2.750
 1070SOL    HW1 3238   3.389   2.074   2.767
 1070SOL    HW2 3239   3.352   1.961   2.654
 1071SOL     OW 3240   3.754   3.287   2.832
 1071SOL    HW1 3241   3.712   3.208   2.876
 1071SOL    HW2 3242   3.845   3.263   2.800
 1072SOL     OW 3243   3.505   2.752   1.506
 1072SOL    HW1 3244   3.512   2.789   1.413
 1072SOL    HW2 3245   3.460   2.819   1.565
 1073SOL     OW 3246   0.080   2.567   1.341
 1073SOL    HW1 3247   0.050   2.502   1.411
 1073SOL    HW2 3248   0.138   2.520   1.275
 1074SOL     OW 3249   0.312   1.608   4.056
 1074SOL    HW1 3250   0.361   1.651   4.132
 1074SOL    HW2 3251   0.248   1.674   4.017
 1075SOL     OW 3252   2.349   2.653   3.690
 1075SOL    HW1 3253   2.350   2.753   3.690
 1075SOL    HW2 3254   2.255   2.620   3.694
 1076SOL     OW 3255   3.121   4.175   0.454
 1076SOL    HW1 3256   3.065   4.181   0.371
 1076SOL    HW2 3257   3.148   4.267   0.482
 1077SOL     OW 3258   3.854   2.547   4.045
 1077SOL    HW1 3259   3.873   2.548   3.947
 1077SOL    HW2 3260   3.925   2.599   4.093
 1078SOL     OW 3261   3.470   3.551   2.054
 1078SOL    HW1 3262   3.561   3.519   2.078
 1078SOL    HW2 3263   3.402   3.489   2.093
 1079SOL     OW 3264   1.256   4.740   3.615
 1079SOL    HW1 3265   1.167   4.780   3.592
 1079SOL    HW2 3266   1.296   4.698   3.533
 1080SOL     OW 3267   4.270   4.732   1.276
 1080SOL    HW1 3268   4.334   4.700   1.347
 1080SOL    HW2 3269   4.321   4.755   1.193
 1081SOL     OW 3270   0.809   4.387   4.144
 1081SOL    HW1 3271   0.801   4.486   4.134
 1081SOL    HW2 3272   0.902   4.359   4.120
 1082SOL     OW 3273   1.532   2.482   0.773
 1082SOL    HW1 3274   1.541   2.388   0.806
 1082SOL    HW2 3275   1.583   2.544   0.833
 1083SOL     OW 3276   1.756   4.036   3.830
 1083SOL    HW1 3277   1.734   3.944   3.863
 1083SOL    HW2 3278   1.814   4.029   3.749
 1084SOL     OW 3279   2.971   2.971   3.054
 1084SOL    HW1 3280   2.996   2.875   3.045
 1084SOL    HW2 3281   2.871   2.980   3.050
 1085SOL     OW 3282   0.260   4.387   0.778
 1085SOL    HW1 3283   0.162   4.406   0.773
 1085SOL    HW2 3284   0.292   4.406   0.871
 1086SOL     OW 3285   3.090   2.658   1.323
 1086SOL    HW1 3286   3.037   2.612   1.252
 1086SOL    HW2 3287   3.088   2.604   1.407
 1087SOL     OW 3288   0.451   4.280   2.676
 1087SOL    HW1 3289   0.460   4.373   2.640
 1087SOL    HW2 3290   0.442   4.284   2.775
 1088SOL     OW 3291   1.914   3.334   1.402
 1088SOL    HW1 3292   1.881   3.381   1.321
 1088SOL    HW2 3293   1.998   3.378   1.435
 1089SOL     OW 3294   0.658   3.265   0.816
 1089SOL    HW1 3295   0.564   3.289   0.789
 1089SOL    HW2 3296   0.703   3.217   0.741
 1090SOL     OW 3297   1.147   0.311   0.886
 1090SOL    HW1 3298   1.148   0.224   0.837
 1090SOL    HW2 3299   1.194   0.381   0.833
 1091SOL     OW 3300   0.103   3.872   3.477
 1091SOL    HW1 3301   0.064   3.800   3.534
 1091SOL    HW2 3302   0.202   3.859   3.469
 1092SOL     OW 3303   1.794   0.101   2.829
 1092SOL    HW1 3304   1.863   0.168   2.801
 1092SOL    HW2 3305   1.798   0.089   2.928
 1093SOL     OW 3306   1.912   3.178   1.733
 1093SOL    HW1 3307   1.835   3.169   1.669
 1093SOL    HW2 3308   1.882   3.227   1.814
 1094SOL     OW 3309   0.830   4.272   3.542
 1094SOL    HW1 3310   0.869   4.362   3.560
 1094SOL    HW2 3311   0.746   4.283   3.488
 1095SOL     OW 3312   2.794   4.396   1.460
 1095SOL    HW1 3313   2.774   4.314   1.514
 1095SOL    HW2 3314   2.710   4.431   1.420
 1096SOL     OW 3315   0.851   1.800   3.563
 1096SOL    HW1 3316   0.791   1.874   3.593
 1096SOL    HW2 3317   0.845   1.791   3.463
 1097SOL     OW 3318   1.434   3.960   3.330
 1097SOL    HW1 3319   1.337   3.938   3.332
 1097SOL    HW2 3320   1.488   3.878   3.351
 1098SOL     OW 3321   4.399   0.403   3.076
 1098SOL    HW1 3322   4.360   0.333   3.137
 1098SOL    HW2 3323   4.474   0.449   3.123
 1099SOL     OW 3324   2.557   2.360   0.797
 1099SOL    HW1 3325   2.516   2.327   0.882
 1099SOL    HW2 3326   2.656   2.353   0.803
 1100SOL     OW 3327   1.504   2.721   1.017
 1100SOL    HW1 3328   1.448   2.744   0.937
 1100SOL    HW2 3329   1.573   2.791   1.032
 1101SOL     OW 3330   3.955   1.448   1.797
 1101SOL    HW1 3331   3.999   1.536   1.816
 1101SOL    HW2 3332   4.019   1.374   1.818
 1102SOL     OW 3333   0.804   3.309   3.272
 1102SOL    HW1 3334   0.837   3.340   3.183
 1102SOL    HW2 3335   0.868   3.241   3.309
 1103SOL     OW 3336   3.582   4.410   2.865
 1103SOL    HW1 3337   3.565   4.508   2.861
 1103SOL    HW2 3338   3.638   4.383   2.787
 1104SOL     OW 3339   0.662   4.226   3.290
 1104SOL    HW1 3340   0.573   4.250   3.251
 1104SOL    HW2 3341   0.688   4.135   3.259
 1105SOL     OW 3342   2.945   4.199   0.247
 1105SOL    HW1 3343   2.906   4.291   0.242
 1105SOL    HW2 3344   2.877   4.132   0.218
 1106SOL     OW 3345   3.852   2.434   2.875
 1106SOL    HW1 3346   3.925   2.411   2.938
 1106SOL    HW2 3347   3.810   2.350   2.840
 1107SOL     OW 3348   2.187   0.731   0.309
 1107SOL    HW1 3349   2.245   0.787   0.250
 1107SOL    HW2 3350   2.187   0.767   0.402
 1108SOL     OW 3351   3.343   0.431   1.391
 1108SOL    HW1 3352   3.419   0.486   1.424
 1108SOL    HW2 3353   3.376   0.367   1.321
 1109SOL     OW 3354   1.869   4.446   0.289
 1109SOL    HW1 3355   1.959   4.475   0.258
 1109SOL    HW2 3356   1.859   4.467   0.386
 1110SOL     OW 3357   4.996   3.335   0.277
 1110SOL    HW1 3358   4.957   3.266   0.338
 1110SOL    HW2 3359   4.976   3.311   0.182
 1111SOL     OW 3360   2.024   1.905   0.280
 1111SOL    HW1 3361   1.978   1.971   0.340
 1111SOL    HW2 3362   1.961   1.831   0.257
 1112SOL     OW 3363   0.039   2.191   3.674
 1112SOL    HW1 3364   5.005   2.132   3.714
 1112SOL    HW2 3365   0.068   2.154   3.585
 1113SOL     OW 3366   1.733   4.980   4.229
 1113SOL    HW1 3367   1.681   0.026   4.254
 1113SOL    HW2 3368   1.830   4.995   4.248
 1114SOL     OW 3369   4.399   2.496   2.263
 1114SOL    HW1 3370   4.496   2.520   2.263
 1114SOL    HW2 3371   4.366   2.490   2.358
 1115SOL     OW 3372   1.756   1.337   0.569
 1115SOL    HW1 3373   1.763   1.268   0.641
 1115SOL    HW2 3374   1.713   1.297   0.488
 1116SOL     OW 3375   4.921   4.535   1.510
 1116SOL    HW1 3376   4.999   4.586   1.547
 1116SOL    HW2 3377   4.885   4.475   1.581
 1117SOL     OW 3378   1.295   1.948   0.163
 1117SOL    HW1 3379   1.339   1.893   0.093
 1117SOL    HW2 3380   1.290   1.896   0.248
 1118SOL     OW 3381   0.200   3.619   2.288
 1118SOL    HW1 3382   0.205   3.523   2.263
 1118SOL    HW2 3383   0.118   3.636   2.342
 1119SOL     OW 3384   0.708   1.983   1.849
 1119SOL    HW1 3385   0.650   2.013   1.924
 1119SOL    HW2 3386   0.688   2.037   1.767
 1120SOL     OW 3387   4.538   1.743   1.400
 1120SOL    HW1 3388   4.564   1.773   1.308
 1120SOL    HW2 3389   4.587   1.797   1.469
 1121SOL     OW 3390   3.630   4.502   1.861
 1121SOL    HW1 3391   3.644   4.405   1.844
 1121SOL    HW2 3392   3.717   4.543   1.891
 1122SOL     OW 3393   4.270   2.699   1.162
 1122SOL    HW1 3394   4.301   2.789   1.131
 1122SOL    HW2 3395   4.291   2.688   1.259
 1123SOL     OW 3396   3.624   1.219   0.000
 1123SOL    HW1 3397   3.562   1.297   0.012
 1123SOL    HW2 3398   3.659   1.191   0.090
 1124SOL     OW 3399   3.850   2.279   4.584
 1124SOL    HW1 3400   3.944   2.312   4.595
 1124SOL    HW2 3401   3.798   2.343   4.526
 1125SOL     OW 3402   3.154   3.757   2.170
 1125SOL    HW1 3403   3.220   3.770   2.096
 1125SOL    HW2 3404   3.202   3.764   2.258
 1126SOL     OW 3405   2.933   0.215   4.293
 1126SOL    HW1 3406   2.934   0.170   4.382
 1126SOL    HW2 3407   2.985   0.300   4.297
 1127SOL     OW 3408   0.439   4.599   0.066
 1127SOL    HW1 3409   0.532   4.635   0.071
 1127SOL    HW2 3410   0.435   4.511   0.112
 1128SOL     OW 3411   2.496   1.565   0.368
 1128SOL    HW1 3412   2.577   1.607   0.410
 1128SOL    HW2 3413   2.487   1.596   0.273
 1129SOL     OW 3414   3.630   2.127   2.068
 1129SOL    HW1 3415   3.554   2.097   2.010
 1129SOL    HW2 3416   3.594   2.162   2.155
 1130SOL     OW 3417   0.512   0.213   1.466
 1130SOL    HW1 3418   0.600   0.191   1.507
 1130SOL    HW2 3419   0.507   0.173   1.375
 1131SOL     OW 3420   3.843   1.703   4.063
 1131SOL    HW1 3421   3.903   1.782   4.050
 1131SOL    HW2 3422   3.755   1.720   4.019
 1132SOL     OW 3423   2.271   1.064   0.357
 1132SOL    HW1 3424   2.273   1.102   0.449
 1132SOL    HW2 3425   2.239   1.134   0.292
 1133SOL     OW 3426   3.476   2.643   3.627
 1133SOL    HW1 3427   3.418   2.562   3.626
 1133SOL    HW2 3428   3.425   2.721   3.592
 1134SOL     OW 3429   0.254   0.299   3.750
 1134SOL    HW1 3430   0.160   0.287   3.782
 1134SOL    HW2 3431   0.286   0.213   3.710
 1135SOL     OW 3432   0.908   3.622   3.742
 1135SOL    HW1 3433   0.969   3.621   3.663
 1135SOL    HW2 3434   0.958   3.657   3.822
 1136SOL     OW 3435   1.356   2.084   4.167
 1136SOL    HW1 3436   1.341   2.117   4.260
 1136SOL    HW2 3437   1.306   1.998   4.154
 1137SOL     OW 3438   4.389   0.458   0.510
 1137SOL    HW1 3439   4.403   0.490   0.604
 1137SOL    HW2 3440   4.305   0.498   0.473
 1138SOL     OW 3441   3.952   2.186   0.481
 1138SOL    HW1 3442   4.027   2.155   0.423
 1138SOL    HW2 3443   3.865   2.174   0.432
 1139SOL     OW 3444   0.449   4.061   1.502
 1139SOL    HW1 3445   0.415   4.124   1.432
 1139SOL    HW2 3446   0.372   4.024   1.553
 1140SOL     OW 3447   0.254   3.528   0.169
 1140SOL    HW1 3448   0.264   3.499   0.074
 1140SOL    HW2 3449   0.344   3.529   0.213
 1141SOL     OW 3450   0.388   4.340   2.938
 1141SOL    HW1 3451   0.373   4.435   2.963
 1141SOL    HW2 3452   0.467   4.304   2.986
 1142SOL     OW 3453   3.225   0.881   3.880
 1142SOL    HW1 3454   3.186   0.810   3.820
 1142SOL    HW2 3455   3.302   0.843   3.930
 1143SOL     OW 3456   1.846   4.439   2.485
 1143SOL    HW1 3457   1.835   4.340   2.478
 1143SOL    HW2 3458   1.826   4.482   2.397
 1144SOL     OW 3459   3.353   2.728   0.060
 1144SOL    HW1 3460   3.379   2.672   0.138
 1144SOL    HW2 3461   3.433   2.747   0.004
 1145SOL     OW 3462   3.613   3.955   0.237
 1145SOL    HW1 3463   3.661   3.897   0.170
 1145SOL    HW2 3464   3.599   4.046   0.197
 1146SOL     OW 3465   2.495   4.027   3.906
 1146SOL    HW1 3466   2.447   3.943   3.931
 1146SOL    HW2 3467   2.478   4.048   3.810
 1147SOL     OW 3468   3.055   1.613   3.920
 1147SOL    HW1 3469   3.031   1.663   4.003
 1147SOL    HW2 3470   2.986   1.542   3.904
 1148SOL     OW 3471   2.308   1.367   3.988
 1148SOL    HW1 3472   2.366   1.446   4.004
 1148SOL    HW2 3473   2.219   1.381   4.032
 1149SOL     OW 3474   4.358   3.336   0.457
 1149SOL    HW1 3475   4.344   3.419   0.512
 1149SOL    HW2 3476   4.384   3.260   0.517
 1150SOL     OW 3477   1.689   4.659   4.422
 1150SOL    HW1 3478   1.751   4.607   4.362
 1150SOL    HW2 3479   1.617   4.700   4.366
 1151SOL     OW 3480   4.118   0.608   0.783
 1151SOL    HW1 3481   4.171   0.525   0.766
 1151SOL    HW2 3482   4.174   0.688   0.764
 1152SOL     OW 3483   2.444   2.567   0.646
 1152SOL    HW1 3484   2.458   2.474   0.680
 1152SOL    HW2 3485   2.503   2.630   0.697
 1153SOL     OW 3486   3.647   0.975   3.940
 1153SOL    HW1 3487   3.721   0.967   3.872
 1153SOL    HW2 3488   3.616   0.883   3.966
 1154SOL     OW 3489   0.624   0.891   2.399
 1154SOL    HW1 3490   0.543   0.950   2.391
 1154SOL    HW2 3491   0.599   0.797   2.377
 1155SOL     OW 3492   3.214   4.859   0.428
 1155SOL    HW1 3493   3.199   4.793   0.501
 1155SOL    HW2 3494   3.293   4.832   0.374
 1156SOL     OW 3495   0.625   4.486   3.651
 1156SOL    HW1 3496   0.597   4.534   3.569
 1156SOL    HW2 3497   0.723   4.501   3.667
 1157SOL     OW 3498   0.926   2.802   3.679
 1157SOL    HW1 3499   0.865   2.837   3.608
 1157SOL    HW2 3500   0.889   2.824   3.769
 1158SOL     OW 3501   1.589   1.817   3.450
 1158SOL    HW1 3502   1.529   1.823   3.530
 1158SOL    HW2 3503   1.573   1.730   3.403
 1159SOL     OW 3504   0.617   4.091   4.127
 1159SOL    HW1 3505   0.569   4.098   4.040
 1159SOL    HW2 3506   0.554   4.061   4.198
 1160SOL     OW 3507   4.475   1.544   5.023
 1160SOL    HW1 3508   4.420   1.584   4.949
 1160SOL    HW2 3509   4.548   1.607   0.013
 1161SOL     OW 3510   1.666   3.925   1.978
 1161SOL    HW1 3511   1.613   3.969   1.905
 1161SOL    HW2 3512   1.611   3.854   2.022
 1162SOL     OW 3513   4.908   1.085   3.499
 1162SOL    HW1 3514   4.902   1.183   3.518
 1162SOL    HW2 3515   4.840   1.036   3.553
 1163SOL     OW 3516   3.926   0.981   0.408
 1163SOL    HW1 3517   4.022   1.004   0.419
 1163SOL    HW2 3518   3.883   1.044   0.344
 1164SOL     OW 3519   2.191   4.874   0.131
 1164SOL    HW1 3520   2.234   4.810   0.195
 1164SOL    HW2 3521   2.262   4.913   0.071
 1165SOL     OW 3522   1.185   3.174   1.692
 1165SOL    HW1 3523   1.138   3.176   1.780
 1165SOL    HW2 3524   1.204   3.080   1.666
 1166SOL     OW 3525   1.738   2.454   3.228
 1166SOL    HW1 3526   1.786   2.428   3.312
 1166SOL    HW2 3527   1.756   2.551   3.208
 1167SOL     OW 3528   4.072   1.935   1.289
 1167SOL    HW1 3529   4.031   1.872   1.355
 1167SOL    HW2 3530   4.077   1.890   1.200
 1168SOL     OW 3531   1.433   1.656   4.918
 1168SOL    HW1 3532   1.470   1.733   4.970
 1168SOL    HW2 3533   1.377   1.599   4.978
 1169SOL     OW 3534   1.031   0.593   1.075
 1169SOL    HW1 3535   0.962   0.626   1.011
 1169SOL    HW2 3536   0.999   0.607   1.169
 1170SOL     OW 3537   3.835   1.993   4.296
 1170SOL    HW1 3538   3.754   2.037   4.334
 1170SOL    HW2 3539   3.826   1.893   4.305
 1171SOL     OW 3540   2.658   1.540   2.921
 1171SOL    HW1 3541   2.743   1.591   2.910
 1171SOL    HW2 3542   2.633   1.537   3.017
 1172SOL     OW 3543   1.181   2.116   0.645
 1172SOL    HW1 3544   1.208   2.205   0.607
 1172SOL    HW2 3545   1.147   2.057   0.572
 1173SOL     OW 3546   3.264   0.692   4.904
 1173SOL    HW1 3547   3.246   0.765   4.970
 1173SOL    HW2 3548   3.322   0.726   4.830
 1174SOL     OW 3549   1.931   4.467   1.348
 1174SOL    HW1 3550   1.917   4.526   1.268
 1174SOL    HW2 3551   1.964   4.522   1.425
 1175SOL     OW 3552   0.928   4.377   1.080
 1175SOL    HW1 3553   0.921   4.471   1.113
 1175SOL    HW2 3554   0.983   4.323   1.145
 1176SOL     OW 3555   0.332   1.609   4.416
 1176SOL    HW1 3556   0.372   1.694   4.452
 1176SOL    HW2 3557   0.234   1.608   4.438
 1177SOL     OW 3558   4.022   0.223   2.597
 1177SOL    HW1 3559   3.986   0.312   2.627
 1177SOL    HW2 3560   4.091   0.192   2.662
 1178SOL     OW 3561   2.925   2.504   0.306
 1178SOL    HW1 3562   2.998   2.531   0.242
 1178SOL    HW2 3563   2.849   2.464   0.254
 1179SOL     OW 3564   0.362   1.964   1.364
 1179SOL    HW1 3565   0.438   1.969   1.429
 1179SOL    HW2 3566   0.398   1.947   1.272
 1180SOL     OW 3567   3.004   2.428   0.559
 1180SOL    HW1 3568   2.988   2.464   0.468
 1180SOL    HW2 3569   2.996   2.502   0.626
 1181SOL     OW 3570   4.763   0.271   1.589
 1181SOL    HW1 3571   4.704   0.201   1.631
 1181SOL    HW2 3572   4.790   0.241   1.498
 1182SOL     OW 3573   1.827   2.330   1.452
 1182SOL    HW1 3574   1.771   2.370   1.524
 1182SOL    HW2 3575   1.769   2.284   1.385
 1183SOL     OW 3576   0.441   2.516   4.720
 1183SOL    HW1 3577   0.422   2.461   4.802
 1183SOL    HW2 3578   0.507   2.587   4.743
 1184SOL     OW 3579   2.824   3.518   0.182
 1184SOL    HW1 3580   2.851   3.603   0.227
 1184SOL    HW2 3581   2.728   3.499   0.203
 1185SOL     OW 3582   0.116   3.306   0.687
 1185SOL    HW1 3583   0.076   3.377   0.746
 1185SOL    HW2 3584   0.205   3.280   0.723
 1186SOL     OW 3585   4.906   0.637   0.113
 1186SOL    HW1 3586   4.975   0.590   0.058
 1186SOL    HW2 3587   4.841   0.571   0.149
 1187SOL     OW 3588   1.646   1.140   0.779
 1187SOL    HW1 3589   1.713   1.176   0.843
 1187SOL    HW2 3590   1.686   1.065   0.727
 1188SOL     OW 3591   3.648   1.658   1.342
 1188SOL    HW1 3592   3.582   1.602   1.392
 1188SOL    HW2 3593   3.664   1.619   1.251
 1189SOL     OW 3594   4.844   1.297   2.835
 1189SOL    HW1 3595   4.932   1.313   2.880
 1189SOL    HW2 3596   4.829   1.199   2.825
 1190SOL     OW 3597   2.050   1.504   1.962
 1190SOL    HW1 3598   2.045   1.410   1.996
 1190SOL    HW2 3599   2.018   1.506   1.868
 1191SOL     OW 3600   2.030   4.484   3.244
 1191SOL    HW1 3601   2.033   4.569   3.296
 1191SOL    HW2 3602   2.017   4.505   3.147
 1192SOL     OW 3603   0.818   4.058   0.408
 1192SOL    HW1 3604   0.907   4.027   0.371
 1192SOL    HW2 3605   0.810   4.157   0.394
 1193SOL     OW 3606   0.999   4.100   1.639
 1193SOL    HW1 3607   0.902   4.076   1.647
 1193SOL    HW2 3608   1.025   4.159   1.716
 1194SOL     OW 3609   1.559   2.467   4.246
 1194SOL    HW1 3610   1.577   2.444   4.151
 1194SOL    HW2 3611   1.562   2.384   4.302
 1195SOL     OW 3612   4.845   3.986   2.673
 1195SOL    HW1 3613   4.901   4.021   2.748
 1195SOL    HW2 3614   4.892   4.004   2.586
 1196SOL     OW 3615   0.447   1.919   4.586
 1196SOL    HW1 3616   0.507   1.840   4.583
 1196SOL    HW2 3617   0.501   2.003   4.580
 1197SOL     OW 3618   0.065   1.260   2.939
 1197SOL    HW1 3619   0.061   1.252   3.039
 1197SOL    HW2 3620   0.055   1.170   2.897
 1198SOL     OW 3621   2.239   3.709   2.481
 1198SOL    HW1 3622   2.317   3.768   2.504
 1198SOL    HW2 3623   2.212   3.725   2.387
 1199SOL     OW 3624   1.145   2.661   4.291
 1199SOL    HW1 3625   1.145   2.573   4.245
 1199SOL    HW2 3626   1.208   2.659   4.368
 1200SOL     OW 3627   1.756   2.243   1.026
 1200SOL    HW1 3628   1.749   2.307   0.949
 1200SOL    HW2 3629   1.842   2.259   1.074
 1201SOL     OW 3630   0.959   3.077   2.871
 1201SOL    HW1 3631   0.880   3.137   2.884
 1201SOL    HW2 3632   0.951   2.998   2.933
 1202SOL     OW 3633   4.906   2.960   4.914
 1202SOL    HW1 3634   4.879   3.001   4.827
 1202SOL    HW2 3635   5.005   2.948   4.917
 1203SOL     OW 3636   0.380   4.551   4.358
 1203SOL    HW1 3637   0.455   4.503   4.313
 1203SOL    HW2 3638   0.331   4.488   4.417
 1204SOL     OW 3639   1.810   3.457   1.685
 1204SOL    HW1 3640   1.884   3.418   1.630
 1204SOL    HW2 3641   1.839   3.545   1.723
 1205SOL     OW 3642   3.563   0.567   4.448
 1205SOL    HW1 3643   3.605   0.535   4.533
 1205SOL    HW2 3644   3.523   0.658   4.464
 1206SOL     OW 3645   3.869   3.807   2.564
 1206SOL    HW1 3646   3.881   3.875   2.636
 1206SOL    HW2 3647   3.956   3.791   2.518
 1207SOL     OW 3648   3.468   1.988   2.401
 1207SOL    HW1 3649   3.508   1.956   2.315
 1207SOL    HW2 3650   3.530   2.053   2.444
 1208SOL     OW 3651   4.575   2.873   3.470
 1208SOL    HW1 3652   4.534   2.950   3.422
 1208SOL    HW2 3653   4.650   2.835   3.415
 1209SOL     OW 3654   4.333   0.738   0.243
 1209SOL    HW1 3655   4.415   0.682   0.226
 1209SOL    HW2 3656   4.267   0.684   0.294
 1210SOL     OW 3657   0.523   2.612   1.244
 1210SOL    HW1 3658   0.466   2.543   1.289
 1210SOL    HW2 3659   0.529   2.591   1.146
 1211SOL     OW 3660   2.061   0.943   2.038
 1211SOL    HW1 3661   1.971   0.975   2.068
 1211SOL    HW2 3662   2.065   0.843   2.047
 1212SOL     OW 3663   3.331   3.344   3.851
 1212SOL    HW1 3664   3.401   3.409   3.881
 1212SOL    HW2 3665   3.260   3.393   3.800
 1213SOL     OW 3666   1.648   2.208   1.284
 1213SOL    HW1 3667   1.663   2.218   1.185
 1213SOL    HW2 3668   1.598   2.124   1.301
 1214SOL     OW 3669   1.758   0.799   1.423
 1214SOL    HW1 3670   1.681   0.771   1.481
 1214SOL    HW2 3671   1.726   0.814   1.330
 1215SOL     OW 3672   1.705   4.324   0.984
 1215SOL    HW1 3673   1.664   4.388   0.919
 1215SOL    HW2 3674   1.802   4.343   0.993
 1216SOL     OW 3675   4.029   4.785   2.411
 1216SOL    HW1 3676   4.000   4.849   2.482
 1216SOL    HW2 3677   3.956   4.774   2.344
 1217SOL     OW 3678   4.760   1.106   4.929
 1217SOL    HW1 3679   4.716   1.192   4.905
 1217SOL    HW2 3680   4.698   1.050   4.983
 1218SOL     OW 3681   2.638   0.656   1.702
 1218SOL    HW1 3682   2.734   0.639   1.724
 1218SOL    HW2 3683   2.586   0.572   1.715
 1219SOL     OW 3684   2.102   1.342   4.408
 1219SOL    HW1 3685   2.175   1.354   4.474
 1219SOL    HW2 3686   2.140   1.315   4.319
 1220SOL     OW 3687   1.176   1.931   4.888
 1220SOL    HW1 3688   1.093   1.985   4.885
 1220SOL    HW2 3689   1.256   1.990   4.876
 1221SOL     OW 3690   1.016   5.012   3.873
 1221SOL    HW1 3691   0.949   4.943   3.847
 1221SOL    HW2 3692   1.029   0.041   3.798
 1222SOL     OW 3693   0.458   4.150   0.895
 1222SOL    HW1 3694   0.550   4.188   0.896
 1222SOL    HW2 3695   0.404   4.196   0.824
 1223SOL     OW 3696   2.159   2.872   1.807
 1223SOL    HW1 3697   2.067   2.858   1.842
 1223SOL    HW2 3698   2.225   2.827   1.867
 1224SOL     OW 3699   0.803   2.644   3.203
 1224SOL    HW1 3700   0.872   2.572   3.190
 1224SOL    HW2 3701   0.739   2.615   3.273
 1225SOL     OW 3702   1.251   4.689   2.607
 1225SOL    HW1 3703   1.212   4.780   2.596
 1225SOL    HW2 3704   1.350   4.695   2.605
 1226SOL     OW 3705   3.985   4.989   0.932
 1226SOL    HW1 3706   4.021   4.915   0.875
 1226SOL    HW2 3707   3.979   4.958   1.027
 1227SOL     OW 3708   3.295   0.290   1.639
 1227SOL    HW1 3709   3.308   0.386   1.616
 1227SOL    HW2 3710   3.209   0.258   1.600
 1228SOL     OW 3711   4.039   2.849   2.949
 1228SOL    HW1 3712   4.013   2.945   2.935
 1228SOL    HW2 3713   3.963   2.790   2.922
 1229SOL     OW 3714   3.111   4.922   4.297
 1229SOL    HW1 3715   3.054   5.002   4.313
 1229SOL    HW2 3716   3.106   4.861   4.376
 1230SOL     OW 3717   2.585   1.541   4.409
 1230SOL    HW1 3718   2.549   1.602   4.337
 1230SOL    HW2 3719   2.645   1.473   4.368
 1231SOL     OW 3720   0.902   1.754   3.068
 1231SOL    HW1 3721   0.844   1.802   3.002
 1231SOL    HW2 3722   0.985   1.722   3.022
 1232SOL     OW 3723   3.198   0.322   2.795
 1232SOL    HW1 3724   3.295   0.305   2.778
 1232SOL    HW2 3725   3.143   0.259   2.740
 1233SOL     OW 3726   1.596   4.299   1.923
 1233SOL    HW1 3727   1.573   4.224   1.861
 1233SOL    HW2 3728   1.695   4.306   1.932
 1234SOL     OW 3729   2.401   4.728   2.502
 1234SOL    HW1 3730   2.451   4.809   2.472
 1234SOL    HW2 3731   2.442   4.646   2.463
 1235SOL     OW 3732   3.495   1.730   0.137
 1235SOL    HW1 3733   3.508   1.637   0.101
 1235SOL    HW2 3734   3.437   1.781   0.074
 1236SOL     OW 3735   2.332   1.362   0.644
 1236SOL    HW1 3736   2.312   1.451   0.604
 1236SOL    HW2 3737   2.431   1.354   0.658
 1237SOL     OW 3738   1.764   2.987   2.699
 1237SOL    HW1 3739   1.680   2.953   2.658
 1237SOL    HW2 3740   1.810   3.048   2.634
 1238SOL     OW 3741   3.297   1.787   0.913
 1238SOL    HW1 3742   3.355   1.855   0.957
 1238SOL    HW2 3743   3.202   1.802   0.941
 1239SOL     OW 3744   2.202   2.853   3.520
 1239SOL    HW1 3745   2.220   2.947   3.550
 1239SOL    HW2 3746   2.288   2.812   3.488
 1240SOL     OW 3747   4.794   0.278   2.667
 1240SOL    HW1 3748   4.715   0.285   2.606
 1240SOL    HW2 3749   4.864   0.220   2.625
 1241SOL     OW 3750   4.144   2.905   0.069
 1241SOL    HW1 3751   4.203   2.833   0.034
 1241SOL    HW2 3752   4.049   2.887   0.043
 1242SOL     OW 3753   1.241   1.032   4.269
 1242SOL    HW1 3754   1.253   1.033   4.369
 1242SOL    HW2 3755   1.152   1.070   4.246
 1243SOL     OW 3756   0.074   3.950   4.565
 1243SOL    HW1 3757   0.049   4.046   4.573
 1243SOL    HW2 3758   0.010   3.904   4.504
 1244SOL     OW 3759   2.166   3.586   4.095
 1244SOL    HW1 3760   2.263   3.584   4.067
 1244SOL    HW2 3761   2.146   3.674   4.138
 1245SOL     OW 3762   3.828   4.992   0.192
 1245SOL    HW1 3763   3.734   5.019   0.170
 1245SOL    HW2 3764   3.858   0.005   0.274
 1246SOL     OW 3765   0.070   2.017   2.771
 1246SOL    HW1 3766   0.067   2.104   2.722
 1246SOL    HW2 3767   0.163   2.001   2.804
 1247SOL     OW 3768   2.261   2.823   3.197
 1247SOL    HW1 3769   2.211   2.900   3.237
 1247SOL    HW2 3770   2.210   2.738   3.214
 1248SOL     OW 3771   2.410   1.005   1.172
 1248SOL    HW1 3772   2.447   1.052   1.092
 1248SOL    HW2 3773   2.334   1.058   1.209
 1249SOL     OW 3774   3.911   4.282   0.440
 1249SOL    HW1 3775   3.994   4.230   0.420
 1249SOL    HW2 3776   3.924   4.335   0.524
 1250SOL     OW 3777   0.107   4.993   2.982
 1250SOL    HW1 3778   0.013   4.980   3.013
 1250SOL    HW2 3779   0.109   0.022   2.906
 1251SOL     OW 3780   0.674   1.015   1.705
 1251SOL    HW1 3781   0.716   1.087   1.759
 1251SOL    HW2 3782   0.738   0.938   1.696
 1252SOL     OW 3783   4.893   4.255   2.041
 1252SOL    HW1 3784   4.967   4.202   2.000
 1252SOL    HW2 3785   4.815   4.195   2.060
 1253SOL     OW 3786   1.691   0.493   1.611
 1253SOL    HW1 3787   1.671   0.399   1.639
 1253SOL    HW2 3788   1.613   0.531   1.561
 1254SOL     OW 3789   3.975   1.324   4.995
 1254SOL    HW1 3790   3.880   1.330   4.962
 1254SOL    HW2 3791   4.020   1.412   4.983
 1255SOL     OW 3792   0.437   1.718   4.955
 1255SOL    HW1 3793   0.518   1.736   5.011
 1255SOL    HW2 3794   0.466   1.680   4.867
 1256SOL     OW 3795   3.070   0.052   0.432
 1256SOL    HW1 3796   3.121   5.003   0.445
 1256SOL    HW2 3797   2.977   0.031   0.403
 1257SOL     OW 3798   5.032   2.407   4.456
 1257SOL    HW1 3799   4.971   2.334   4.425
 1257SOL    HW2 3800   5.028   2.413   4.556
 1258SOL     OW 3801   1.414   4.773   1.361
 1258SOL    HW1 3802   1.474   4.851   1.344
 1258SOL    HW2 3803   1.390   4.770   1.458
 1259SOL     OW 3804   1.368   0.103   3.314
 1259SOL    HW1 3805   1.453   0.121   3.363
 1259SOL    HW2 3806   1.358   0.004   3.299
 1260SOL     OW 3807   3.415   3.164   1.554
 1260SOL    HW1 3808   3.353   3.098   1.596
 1260SOL    HW2 3809   3.432   3.137   1.459
 1261SOL     OW 3810   1.599   4.481   2.620
 1261SOL    HW1 3811   1.570   4.569   2.583
 1261SOL    HW2 3812   1.686   4.455   2.579
 1262SOL     OW 3813   2.718   0.819   2.324
 1262SOL    HW1 3814   2.699   0.721   2.328
 1262SOL    HW2 3815   2.651   0.869   2.379
 1263SOL     OW 3816   0.850   2.214   3.520
 1263SOL    HW1 3817   0.862   2.124   3.562
 1263SOL    HW2 3818   0.864   2.285   3.588
 1264SOL     OW 3819   0.602   3.438   2.307
 1264SOL    HW1 3820   0.688   3.481   2.278
 1264SOL    HW2 3821   0.620   3.375   2.383
 1265SOL     OW 3822   4.658   3.962   2.889
 1265SOL    HW1 3823   4.728   3.973   2.819
 1265SOL    HW2 3824   4.702   3.935   2.975
 1266SOL     OW 3825   3.415   4.721   1.092
 1266SOL    HW1 3826   3.404   4.816   1.121
 1266SOL    HW2 3827   3.461   4.669   1.164
 1267SOL     OW 3828   0.594   4.510   1.194
 1267SOL    HW1 3829   0.666   4.574   1.166
 1267SOL    HW2 3830   0.630   4.417   1.193
 1268SOL     OW 3831   0.957   1.192   2.082
 1268SOL    HW1 3832   0.895   1.197   2.160
 1268SOL    HW2 3833   1.013   1.275   2.079
 1269SOL     OW 3834   0.594   3.759   1.728
 1269SOL    HW1 3835   0.495   3.764   1.719
 1269SOL    HW2 3836   0.633   3.718   1.645
 1270SOL     OW 3837   3.344   4.653   4.840
 1270SOL    HW1 3838   3.431   4.609   4.860
 1270SOL    HW2 3839   3.346   4.691   4.747
 1271SOL     OW 3840   4.928   0.963   3.925
 1271SOL    HW1 3841   4.898   1.039   3.868
 1271SOL    HW2 3842   5.025   0.945   3.908
 1272SOL     OW 3843   1.567   3.914   4.592
 1272SOL    HW1 3844   1.483   3.895   4.540
 1272SOL    HW2 3845   1.585   4.012   4.591
 1273SOL     OW 3846   4.617   1.547   1.081
 1273SOL    HW1 3847   4.571   1.519   1.165
 1273SOL    HW2 3848   4.583   1.637   1.052
 1274SOL     OW 3849   1.922   0.293   0.800
 1274SOL    HW1 3850   1.944   0.379   0.845
 1274SOL    HW2 3851   1.847   0.307   0.735
 1275SOL     OW 3852   0.352   3.598   3.899
 1275SOL    HW1 3853   0.346   3.683   3.847
 1275SOL    HW2 3854   0.359   3.521   3.835
 1276SOL     OW 3855   1.038   4.005   2.904
 1276SOL    HW1 3856   1.094   4.078   2.945
 1276SOL    HW2 3857   0.943   4.036   2.897
 1277SOL     OW 3858   3.892   0.076   1.925
 1277SOL    HW1 3859   3.988   0.067   1.949
 1277SOL    HW2 3860   3.837   0.076   2.009
 1278SOL     OW 3861   1.118   4.227   1.881
 1278SOL    HW1 3862   1.111   4.324   1.902
 1278SOL    HW2 3863   1.193   4.186   1.933
 1279SOL     OW 3864   1.963   3.223   0.913
 1279SOL    HW1 3865   1.989   3.209   1.009
 1279SOL    HW2 3866   2.027   3.174   0.854
 1280SOL     OW 3867   3.770   4.300   1.286
 1280SOL    HW1 3868   3.698   4.333   1.346
 1280SOL    HW2 3869   3.732   4.282   1.195
 1281SOL     OW 3870   0.644   2.157   0.139
 1281SOL    HW1 3871   0.643   2.103   0.055
 1281SOL    HW2 3872   0.586   2.114   0.207
 1282SOL     OW 3873   2.189   1.929   4.139
 1282SOL    HW1 3874   2.115   1.965   4.082
 1282SOL    HW2 3875   2.275   1.974   4.115
 1283SOL     OW 3876   1.712   1.665   3.853
 1283SOL    HW1 3877   1.671   1.576   3.868
 1283SOL    HW2 3878   1.809   1.662   3.879
 1284SOL     OW 3879   4.175   0.894   1.838
 1284SOL    HW1 3880   4.176   0.928   1.744
 1284SOL    HW2 3881   4.269   0.894   1.874
 1285SOL     OW 3882   4.651   2.205   4.116
 1285SOL    HW1 3883   4.619   2.176   4.027
 1285SOL    HW2 3884   4.609   2.149   4.187
 1286SOL     OW 3885   3.751   1.728   1.885
 1286SOL    HW1 3886   3.848   1.751   1.896
 1286SOL    HW2 3887   3.729   1.649   1.943
 1287SOL     OW 3888   0.733   4.168   4.604
 1287SOL    HW1 3889   0.828   4.193   4.586
 1287SOL    HW2 3890   0.684   4.248   4.641
 1288SOL     OW 3891   4.369   4.958   4.652
 1288SOL    HW1 3892   4.328   4.994   4.568
 1288SOL    HW2 3893   4.438   5.022   4.685
 1289SOL     OW 3894   3.547   3.737   3.136
 1289SOL    HW1 3895   3.466   3.795   3.124
 1289SOL    HW2 3896   3.559   3.679   3.055
 1290SOL     OW 3897   0.201   1.503   2.582
 1290SOL    HW1 3898   0.235   1.437   2.650
 1290SOL    HW2 3899   0.191   1.457   2.494
 1291SOL     OW 3900   4.368   3.852   0.814
 1291SOL    HW1 3901   4.441   3.897   0.763
 1291SOL    HW2 3902   4.283   3.855   0.761
 1292SOL     OW 3903   1.906   1.459   1.020
 1292SOL    HW1 3904   1.839   1.482   1.090
 1292SOL    HW2 3905   1.933   1.541   0.971
 1293SOL     OW 3906   2.226   1.729   3.615
 1293SOL    HW1 3907   2.193   1.787   3.542
 1293SOL    HW2 3908   2.207   1.633   3.594
 1294SOL     OW 3909   3.594   1.000   0.663
 1294SOL    HW1 3910   3.532   1.077   0.681
 1294SOL    HW2 3911   3.561   0.949   0.583
 1295SOL     OW 3912   4.513   0.348   1.869
 1295SOL    HW1 3913   4.545   0.254   1.883
 1295SOL    HW2 3914   4.468   0.355   1.780
 1296SOL     OW 3915   1.002   0.238   3.719
 1296SOL    HW1 3916   1.093   0.276   3.730
 1296SOL    HW2 3917   0.935   0.293   3.769
 1297SOL     OW 3918   2.341   4.926   2.726
 1297SOL    HW1 3919   2.384   5.011   2.758
 1297SOL    HW2 3920   2.411   4.862   2.695
 1298SOL     OW 3921   4.423   3.066   3.342
 1298SOL    HW1 3922   4.455   3.098   3.253
 1298SOL    HW2 3923   4.360   2.989   3.328
 1299SOL     OW 3924   0.720   1.709   3.824
 1299SOL    HW1 3925   0.792   1.648   3.857
 1299SOL    HW2 3926   0.734   1.729   3.727
 1300SOL     OW 3927   4.231   2.275   2.301
 1300SOL    HW1 3928   4.146   2.321   2.326
 1300SOL    HW2 3929   4.291   2.340   2.254
 1301SOL     OW 3930   3.908   4.001   2.753
 1301SOL    HW1 3931   3.905   4.087   2.703
 1301SOL    HW2 3932   3.842   4.003   2.828
 1302SOL     OW 3933   4.588   2.909   4.343
 1302SOL    HW1 3934   4.567   3.006   4.343
 1302SOL    HW2 3935   4.658   2.889   4.412
 1303SOL     OW 3936   3.059   3.947   1.122
 1303SOL    HW1 3937   3.107   3.885   1.060
 1303SOL    HW2 3938   2.968   3.910   1.141
 1304SOL     OW 3939   2.367   2.560   0.286
 1304SOL    HW1 3940   2.310   2.587   0.364
 1304SOL    HW2 3941   2.320   2.582   0.201
 1305SOL     OW 3942   0.152   2.537   0.125
 1305SOL    HW1 3943   0.192   2.628   0.130
 1305SOL    HW2 3944   0.130   2.505   0.217
 1306SOL     OW 3945   3.972   0.356   2.215
 1306SOL    HW1 3946   3.875   0.355   2.190
 1306SOL    HW2 3947   4.013   0.443   2.187
 1307SOL     OW 3948   4.476   4.905   0.774
 1307SOL    HW1 3949   4.464   4.837   0.847
 1307SOL    HW2 3950   4.551   4.876   0.714
 1308SOL     OW 3951   4.431   4.672   0.048
 1308SOL    HW1 3952   4.469   4.581   0.064
 1308SOL    HW2 3953   4.504   4.740   0.054
 1309SOL     OW 3954   2.590   1.177   4.979
 1309SOL    HW1 3955   2.649   1.254   4.953
 1309SOL    HW2 3956   2.502   1.186   4.933
 1310SOL     OW 3957   3.868   1.664   0.139
 1310SOL    HW1 3958   3.795   1.706   0.192
 1310SOL    HW2 3959   3.909   1.590   0.191
 1311SOL     OW 3960   4.951   3.857   1.969
 1311SOL    HW1 3961   4.861   3.816   1.987
 1311SOL    HW2 3962   5.023   3.793   1.998
 1312SOL     OW 3963   0.568   0.418   2.055
 1312SOL    HW1 3964   0.623   0.499   2.073
 1312SOL    HW2 3965   0.627   0.345   2.020
 1313SOL     OW 3966   2.366   0.319   0.875
 1313SOL    HW1 3967   2.351   0.418   0.869
 1313SOL    HW2 3968   2.458   0.302   0.912
 1314SOL     OW 3969   2.316   3.743   0.573
 1314SOL    HW1 3970   2.414   3.727   0.589
 1314SOL    HW2 3971   2.283   3.679   0.504
 1315SOL     OW 3972   2.302   0.609   2.439
 1315SOL    HW1 3973   2.307   0.668   2.359
 1315SOL    HW2 3974   2.207   0.580   2.454
 1316SOL     OW 3975   3.520   1.286   2.840
 1316SOL    HW1 3976   3.444   1.317   2.783
 1316SOL    HW2 3977   3.577   1.223   2.788
 1317SOL     OW 3978   1.742   0.982   0.563
 1317SOL    HW1 3979   1.654   0.936   0.554
 1317SOL    HW2 3980   1.769   1.021   0.475
 1318SOL     OW 3981   3.480   3.749   0.469
 1318SOL    HW1 3982   3.399   3.796   0.503
 1318SOL    HW2 3983   3.547   3.741   0.542
 1319SOL     OW 3984   4.466   2.111   0.034
 1319SOL    HW1 3985   4.548   2.058   0.011
 1319SOL    HW2 3986   4.465   2.196   5.017
 1320SOL     OW 3987   1.392   3.877   2.020
 1320SOL    HW1 3988   1.374   3.826   1.936
 1320SOL    HW2 3989   1.310   3.930   2.045
 1321SOL     OW 3990   1.052   3.138   0.839
 1321SOL    HW1 3991   0.984   3.200   0.877
 1321SOL    HW2 3992   1.022   3.043   0.852
 1322SOL     OW 3993   4.391   4.402   1.752
 1322SOL    HW1 3994   4.483   4.418   1.788
 1322SOL    HW2 3995   4.333   4.481   1.774
 1323SOL     OW 3996   0.372   2.663   2.693
 1323SOL    HW1 3997   0.283   2.700   2.719
 1323SOL    HW2 3998   0.359   2.575   2.647
 1324SOL     OW 3999   4.212   0.522   4.910
 1324SOL    HW1 4000   4.309   0.511   4.931
 1324SOL    HW2 4001   4.161   0.443   4.944
 1325SOL     OW 4002   3.246   3.531   0.450
 1325SOL    HW1 4003   3.294   3.445   0.466
 1325SOL    HW2 4004   3.249   3.588   0.532
 1326SOL     OW 4005   0.855   1.657   0.613
 1326SOL    HW1 4006   0.771   1.603   0.621
 1326SOL    HW2 4007   0.934   1.599   0.632
 1327SOL     OW 4008   1.675   2.434   2.201
 1327SOL    HW1 4009   1.639   2.344   2.226
 1327SOL    HW2 4010   1.775   2.433   2.207
 1328SOL     OW 4011   4.146   1.984   2.887
 1328SOL    HW1 4012   4.114   1.907   2.942
 1328SOL    HW2 4013   4.186   1.950   2.802
 1329SOL     OW 4014   4.079   2.098   2.172
 1329SOL    HW1 4015   4.140   2.149   2.233
 1329SOL    HW2 4016   4.124   2.083   2.084
 1330SOL     OW 4017   2.033   0.447   2.802
 1330SOL    HW1 4018   1.957   0.466   2.864
 1330SOL    HW2 4019   2.009   0.370   2.743
 1331SOL     OW 4020   4.676   3.458   4.371
 1331SOL    HW1 4021   4.684   3.555   4.391
 1331SOL    HW2 4022   4.631   3.411   4.447
 1332SOL     OW 4023   3.745   0.628   3.233
 1332SOL    HW1 4024   3.715   0.566   3.160
 1332SOL    HW2 4025   3.731   0.584   3.322
 1333SOL     OW 4026   3.756   1.080   3.014
 1333SOL    HW1 4027   3.733   1.168   3.055
 1333SOL    HW2 4028   3.840   1.045   3.054
 1334SOL     OW 4029   3.611   2.512   1.140
 1334SOL    HW1 4030   3.695   2.526   1.193
 1334SOL    HW2 4031   3.533   2.549   1.190
 1335SOL     OW 4032   0.875   2.678   4.681
 1335SOL    HW1 4033   0.930   2.744   4.630
 1335SOL    HW2 4034   0.780   2.710   4.687
 1336SOL     OW 4035   0.880   4.098   4.215
 1336SOL    HW1 4036   0.791   4.121   4.174
 1336SOL    HW2 4037   0.949   4.162   4.180
 1337SOL     OW 4038   1.745   4.053   0.907
 1337SOL    HW1 4039   1.789   4.025   0.992
 1337SOL    HW2 4040   1.705   4.144   0.919
 1338SOL     OW 4041   2.441   4.778   4.707
 1338SOL    HW1 4042   2.481   4.806   4.794
 1338SOL    HW2 4043   2.494   4.818   4.632
 1339SOL     OW 4044   0.640   1.471   4.731
 1339SOL    HW1 4045   0.542   1.455   4.736
 1339SOL    HW2 4046   0.684   1.430   4.811
 1340SOL     OW 4047   1.097   1.205   0.327
 1340SOL    HW1 4048   1.127   1.157   0.244
 1340SOL    HW2 4049   0.997   1.212   0.327
 1341SOL     OW 4050   2.160   0.125   2.734
 1341SOL    HW1 4051   2.253   0.152   2.757
 1341SOL    HW2 4052   2.146   0.029   2.758
 1342SOL     OW 4053   2.964   2.601   0.767
 1342SOL    HW1 4054   3.046   2.597   0.825
 1342SOL    HW2 4055   2.890   2.646   0.816
 1343SOL     OW 4056   4.700   1.794   1.880
 1343SOL    HW1 4057   4.729   1.846   1.961
 1343SOL    HW2 4058   4.613   1.830   1.847
 1344SOL     OW 4059   0.880   1.993   1.373
 1344SOL    HW1 4060   0.954   2.033   1.427
 1344SOL    HW2 4061   0.918   1.932   1.304
 1345SOL     OW 4062   3.890   4.728   4.835
 1345SOL    HW1 4063   3.959   4.771   4.777
 1345SOL    HW2 4064   3.898   4.763   4.928
 1346SOL     OW 4065   1.195   1.317   3.761
 1346SOL    HW1 4066   1.243   1.313   3.674
 1346SOL    HW2 4067   1.262   1.319   3.836
 1347SOL     OW 4068   1.953   1.990   2.456
 1347SOL    HW1 4069   1.951   1.917   2.388
 1347SOL    HW2 4070   1.910   1.959   2.541
 1348SOL     OW 4071   3.229   2.887   0.929
 1348SOL    HW1 4072   3.225   2.824   0.851
 1348SOL    HW2 4073   3.290   2.963   0.908
 1349SOL     OW 4074   2.527   2.171   2.790
 1349SOL    HW1 4075   2.595   2.105   2.758
 1349SOL    HW2 4076   2.453   2.177   2.724
 1350SOL     OW 4077   1.450   0.160   2.753
 1350SOL    HW1 4078   1.370   0.146   2.694
 1350SOL    HW2 4079   1.485   0.253   2.740
 1351SOL     OW 4080   1.837   2.470   1.914
 1351SOL    HW1 4081   1.763   2.516   1.963
 1351SOL    HW2 4082   1.847   2.511   1.824
 1352SOL     OW 4083   2.028   4.956   3.891
 1352SOL    HW1 4084   2.111   4.902   3.878
 1352SOL    HW2 4085   1.989   4.938   3.981
 1353SOL     OW 4086   4.848   4.402   0.627
 1353SOL    HW1 4087   4.861   4.309   0.660
 1353SOL    HW2 4088   4.766   4.407   0.570
 1354SOL     OW 4089   3.933   1.023   4.727
 1354SOL    HW1 4090   3.987   0.957   4.675
 1354SOL    HW2 4091   3.964   1.024   4.822
 1355SOL     OW 4092   3.638   2.386   1.936
 1355SOL    HW1 4093   3.682   2.324   2.001
 1355SOL    HW2 4094   3.631   2.341   1.847
 1356SOL     OW 4095   4.456   0.726   1.581
 1356SOL    HW1 4096   4.527   0.792   1.604
 1356SOL    HW2 4097   4.400   0.761   1.505
 1357SOL     OW 4098   1.489   2.757   4.909
 1357SOL    HW1 4099   1.583   2.772   4.938
 1357SOL    HW2 4100   1.450   2.680   4.959
 1358SOL     OW 4101   3.016   2.974   1.099
 1358SOL    HW1 4102   3.075   2.941   1.025
 1358SOL    HW2 4103   2.929   2.924   1.097
 1359SOL     OW 4104   0.743   1.423   0.760
 1359SOL    HW1 4105   0.829   1.377   0.738
 1359SOL    HW2 4106   0.695   1.371   0.831
 1360SOL     OW 4107   0.473   0.038   3.938
 1360SOL    HW1 4108   0.508   0.124   3.901
 1360SOL    HW2 4109   0.429   0.056   4.027
 1361SOL     OW 4110   1.498   0.453   2.173
 1361SOL    HW1 4111   1.581   0.423   2.220
 1361SOL    HW2 4112   1.522   0.490   2.083
 1362SOL     OW 4113   2.498   4.778   2.093
 1362SOL    HW1 4114   2.463   4.699   2.143
 1362SOL    HW2 4115   2.426   4.816   2.035
 1363SOL     OW 4116   0.306   3.758   0.353
 1363SOL    HW1 4117   0.297   3.662   0.379
 1363SOL    HW2 4118   0.255   3.815   0.417
 1364SOL     OW 4119   3.975   0.992   4.076
 1364SOL    HW1 4120   3.887   1.024   4.039
 1364SOL    HW2 4121   4.003   0.910   4.026
 1365SOL     OW 4122   2.658   1.793   4.918
 1365SOL    HW1 4123   2.622   1.741   4.840
 1365SOL    HW2 4124   2.746   1.755   4.944
 1366SOL     OW 4125   4.175   2.614   3.896
 1366SOL    HW1 4126   4.258   2.665   3.875
 1366SOL    HW2 4127   4.136   2.649   3.982
 1367SOL     OW 4128   2.918   2.444   1.714
 1367SOL    HW1 4129   2.821   2.424   1.729
 1367SOL    HW2 4130   2.960   2.474   1.800
 1368SOL     OW 4131   0.866   4.444   4.554
 1368SOL    HW1 4132   0.816   4.530   4.568
 1368SOL    HW2 4133   0.884   4.402   4.642
 1369SOL     OW 4134   1.857   0.781   0.823
 1369SOL    HW1 4135   1.897   0.692   0.805
 1369SOL    HW2 4136   1.772   0.770   0.874
 1370SOL     OW 4137   2.834   1.953   4.177
 1370SOL    HW1 4138   2.829   1.983   4.082
 1370SOL    HW2 4139   2.920   1.902   4.191
 1371SOL     OW 4140   4.120   3.171   0.101
 1371SOL    HW1 4141   4.137   3.073   0.089
 1371SOL    HW2 4142   4.073   3.187   0.187
 1372SOL     OW 4143   0.980   4.604   4.023
 1372SOL    HW1 4144   0.886   4.635   4.039
 1372SOL    HW2 4145   1.025   4.588   4.110
 1373SOL     OW 4146   0.124   3.234   1.708
 1373SOL    HW1 4147   0.065   3.307   1.673
 1373SOL    HW2 4148   0.111   3.225   1.806
 1374SOL     OW 4149   1.199   1.468   4.619
 1374SOL    HW1 4150   1.103   1.444   4.603
 1374SOL    HW2 4151   1.205   1.523   4.703
 1375SOL     OW 4152   3.232   0.164   4.218
 1375SOL    HW1 4153   3.179   0.176   4.134
 1375SOL    HW2 4154   3.307   0.100   4.202
 1376SOL     OW 4155   4.640   4.543   3.567
 1376SOL    HW1 4156   4.697   4.617   3.603
 1376SOL    HW2 4157   4.628   4.555   3.469
 1377SOL     OW 4158   3.643   3.337   3.330
 1377SOL    HW1 4159   3.622   3.430   3.358
 1377SOL    HW2 4160   3.575   3.275   3.369
 1378SOL     OW 4161   0.659   1.630   4.293
 1378SOL    HW1 4162   0.610   1.700   4.345
 1378SOL    HW2 4163   0.617   1.621   4.202
 1379SOL     OW 4164   3.293   2.397   0.198
 1379SOL    HW1 4165   3.230   2.466   0.162
 1379SOL    HW2 4166   3.285   2.394   0.297
 1380SOL     OW 4167   3.403   1.658   2.667
 1380SOL    HW1 4168   3.378   1.561   2.676
 1380SOL    HW2 4169   3.503   1.666   2.669
 1381SOL     OW 4170   4.407   0.094   4.432
 1381SOL    HW1 4171   4.496   0.050   4.416
 1381SOL    HW2 4172   4.416   0.160   4.508
 1382SOL     OW 4173   1.743   3.755   3.895
 1382SOL    HW1 4174   1.646   3.742   3.877
 1382SOL    HW2 4175   1.795   3.732   3.813
 1383SOL     OW 4176   3.617   3.857   1.590
 1383SOL    HW1 4177   3.543   3.856   1.658
 1383SOL    HW2 4178   3.638   3.763   1.563
 1384SOL     OW 4179   3.706   3.199   0.641
 1384SOL    HW1 4180   3.633   3.228   0.703
 1384SOL    HW2 4181   3.678   3.218   0.546
 1385SOL     OW 4182   2.901   2.466   1.425
 1385SOL    HW1 4183   2.887   2.460   1.524
 1385SOL    HW2 4184   2.812   2.467   1.380
 1386SOL     OW 4185   0.531   2.977   0.911
 1386SOL    HW1 4186   0.440   2.984   0.870
 1386SOL    HW2 4187   0.534   2.898   0.972
 1387SOL     OW 4188   0.962   1.332   4.022
 1387SOL    HW1 4189   0.900   1.290   3.955
 1387SOL    HW2 4190   1.021   1.399   3.976
 1388SOL     OW 4191   3.751   4.043   0.755
 1388SOL    HW1 4192   3.819   4.041   0.682
 1388SOL    HW2 4193   3.733   3.950   0.787
 1389SOL     OW 4194   0.637   3.907   5.027
 1389SOL    HW1 4195   0.646   3.873   0.086
 1389SOL    HW2 4196   0.548   3.880   4.991
 1390SOL     OW 4197   4.147   0.724   1.111
 1390SOL    HW1 4198   4.136   0.626   1.093
 1390SOL    HW2 4199   4.066   0.759   1.157
 1391SOL     OW 4200   1.829   0.695   4.737
 1391SOL    HW1 4201   1.892   0.618   4.732
 1391SOL    HW2 4202   1.816   0.720   4.833
 1392SOL     OW 4203   4.142   3.135   1.380
 1392SOL    HW1 4204   4.202   3.055   1.383
 1392SOL    HW2 4205   4.145   3.176   1.289
 1393SOL     OW 4206   0.577   2.173   0.737
 1393SOL    HW1 4207   0.613   2.265   0.755
 1393SOL    HW2 4208   0.653   2.110   0.721
 1394SOL     OW 4209   2.183   1.264   0.904
 1394SOL    HW1 4210   2.214   1.340   0.846
 1394SOL    HW2 4211   2.170   1.297   0.998
 1395SOL     OW 4212   3.773   0.072   3.236
 1395SOL    HW1 4213   3.826   0.010   3.178
 1395SOL    HW2 4214   3.676   0.047   3.232
 1396SOL     OW 4215   1.128   2.550   0.191
 1396SOL    HW1 4216   1.095   2.544   0.097
 1396SOL    HW2 4217   1.223   2.520   0.194
 1397SOL     OW 4218   1.148   2.144   4.571
 1397SOL    HW1 4219   1.140   2.193   4.484
 1397SOL    HW2 4220   1.124   2.205   4.646
 1398SOL     OW 4221   1.819   1.072   2.084
 1398SOL    HW1 4222   1.778   1.092   2.174
 1398SOL    HW2 4223   1.872   1.152   2.054
 1399SOL     OW 4224   1.038   1.472   0.686
 1399SOL    HW1 4225   1.090   1.387   0.673
 1399SOL    HW2 4226   1.039   1.497   0.783
 1400SOL     OW 4227   4.189   3.240   1.764
 1400SOL    HW1 4228   4.162   3.186   1.843
 1400SOL    HW2 4229   4.267   3.197   1.719
 1401SOL     OW 4230   4.190   5.006   2.115
 1401SOL    HW1 4231   4.222   4.919   2.078
 1401SOL    HW2 4232   4.227   5.021   2.206
 1402SOL     OW 4233   4.863   4.049   1.716
 1402SOL    HW1 4234   4.946   3.997   1.733
 1402SOL    HW2 4235   4.818   4.070   1.802
 1403SOL     OW 4236   4.102   0.423   1.422
 1403SOL    HW1 4237   4.101   0.348   1.488
 1403SOL    HW2 4238   4.138   0.390   1.334
 1404SOL     OW 4239   3.122   3.399   3.665
 1404SOL    HW1 4240   3.033   3.381   3.707
 1404SOL    HW2 4241   3.152   3.319   3.614
 1405SOL     OW 4242   2.224   3.459   0.542
 1405SOL    HW1 4243   2.138   3.409   0.529
 1405SOL    HW2 4244   2.275   3.418   0.617
 1406SOL     OW 4245   1.809   4.422   2.074
 1406SOL    HW1 4246   1.871   4.371   2.133
 1406SOL    HW2 4247   1.852   4.509   2.048
 1407SOL     OW 4248   3.529   4.137   1.384
 1407SOL    HW1 4249   3.622   4.098   1.384
 1407SOL    HW2 4250   3.476   4.096   1.310
 1408SOL     OW 4251   4.687   3.963   4.662
 1408SOL    HW1 4252   4.749   3.888   4.683
 1408SOL    HW2 4253   4.718   4.009   4.579
 1409SOL     OW 4254   4.075   2.297   3.108
 1409SOL    HW1 4255   4.072   2.273   3.205
 1409SOL    HW2 4256   4.106   2.392   3.099
 1410SOL     OW 4257   1.722   3.065   3.491
 1410SOL    HW1 4258   1.718   3.164   3.480
 1410SOL    HW2 4259   1.686   3.022   3.408
 1411SOL     OW 4260   2.334   2.808   4.072
 1411SOL    HW1 4261   2.252   2.829   4.019
 1411SOL    HW2 4262   2.331   2.857   4.159
 1412SOL     OW 4263   1.986   0.302   1.531
 1412SOL    HW1 4264   1.997   0.385   1.586
 1412SOL    HW2 4265   2.053   0.302   1.457
 1413SOL     OW 4266   3.580   2.995   0.360
 1413SOL    HW1 4267   3.530   3.069   0.404
 1413SOL    HW2 4268   3.648   2.958   0.423
 1414SOL     OW 4269   4.654   3.566   0.356
 1414SOL    HW1 4270   4.743   3.597   0.388
 1414SOL    HW2 4271   4.645   3.586   0.258
 1415SOL     OW 4272   3.824   2.019   2.261
 1415SOL    HW1 4273   3.923   2.008   2.270
 1415SOL    HW2 4274   3.803   2.073   2.180
 1416SOL     OW 4275   3.547   3.752   2.446
 1416SOL    HW1 4276   3.476   3.712   2.503
 1416SOL    HW2 4277   3.577   3.685   2.378
 1417SOL     OW 4278   3.666   0.720   2.948
 1417SOL    HW1 4279   3.749   0.745   2.998
 1417SOL    HW2 4280   3.686   0.716   2.850
 1418SOL     OW 4281   2.586   1.694   2.656
 1418SOL    HW1 4282   2.552   1.600   2.661
 1418SOL    HW2 4283   2.508   1.757   2.649
 1419SOL     OW 4284   1.509   2.244   0.898
 1419SOL    HW1 4285   1.577   2.186   0.944
 1419SOL    HW2 4286   1.478   2.315   0.960
 1420SOL     OW 4287   1.960   0.336   1.922
 1420SOL    HW1 4288   1.886   0.271   1.905
 1420SOL    HW2 4289   1.984   0.382   1.837
 1421SOL     OW 4290   0.483   4.349   0.174
 1421SOL    HW1 4291   0.511   4.303   0.090
 1421SOL    HW2 4292   0.463   4.281   0.245
 1422SOL     OW 4293   1.490   0.627   0.224
 1422SOL    HW1 4294   1.493   0.570   0.141
 1422SOL    HW2 4295   1.396   0.660   0.238
 1423SOL     OW 4296   0.772   3.553   2.514
 1423SOL    HW1 4297   0.689   3.519   2.558
 1423SOL    HW2 4298   0.774   3.653   2.519
 1424SOL     OW 4299   4.533   3.057   0.368
 1424SOL    HW1 4300   4.444   3.081   0.409
 1424SOL    HW2 4301   4.521   3.044   0.269
 1425SOL     OW 4302   2.363   2.520   3.306
 1425SOL    HW1 4303   2.399   2.599   3.355
 1425SOL    HW2 4304   2.268   2.539   3.278
 1426SOL     OW 4305   2.855   3.220   2.587
 1426SOL    HW1 4306   2.786   3.291   2.573
 1426SOL    HW2 4307   2.888   3.224   2.682
 1427SOL     OW 4308   1.723   3.403   2.138
 1427SOL    HW1 4309   1.628   3.403   2.107
 1427SOL    HW2 4310   1.784   3.390   2.060
 1428SOL     OW 4311   2.558   4.557   1.811
 1428SOL    HW1 4312   2.541   4.582   1.716
 1428SOL    HW2 4313   2.563   4.458   1.820
 1429SOL     OW 4314   0.779   0.305   1.537
 1429SOL    HW1 4315   0.764   0.365   1.459
 1429SOL    HW2 4316   0.790   0.211   1.506
 1430SOL     OW 4317   2.242   2.380   0.792
 1430SOL    HW1 4318   2.192   2.308   0.840
 1430SOL    HW2 4319   2.193   2.404   0.708
 1431SOL     OW 4320   2.011   0.886   3.673
 1431SOL    HW1 4321   1.963   0.921   3.753
 1431SOL    HW2 4322   2.096   0.841   3.702
 1432SOL     OW 4323   3.978   4.925   5.010
 1432SOL    HW1 4324   4.056   4.868   0.000
 1432SOL    HW2 4325   3.927   4.949   0.057
 1433SOL     OW 4326   0.213   1.395   3.569
 1433SOL    HW1 4327   0.275   1.329   3.527
 1433SOL    HW2 4328   0.123   1.387   3.527
 1434SOL     OW 4329   2.985   4.330   3.501
 1434SOL    HW1 4330   2.975   4.230   3.503
 1434SOL    HW2 4331   3.009   4.363   3.592
 1435SOL     OW 4332   3.684   2.384   3.699
 1435SOL    HW1 4333   3.642   2.443   3.768
 1435SOL    HW2 4334   3.619   2.366   3.626
 1436SOL     OW 4335   1.243   1.728   2.255
 1436SOL    HW1 4336   1.150   1.764   2.250
 1436SOL    HW2 4337   1.300   1.791   2.307
 1437SOL     OW 4338   1.841   1.665   2.966
 1437SOL    HW1 4339   1.904   1.734   3.001
 1437SOL    HW2 4340   1.860   1.649   2.869
 1438SOL     OW 4341   5.011   4.638   3.921
 1438SOL    HW1 4342   0.012   4.550   3.890
 1438SOL    HW2 4343   0.035   4.675   3.992
 1439SOL     OW 4344   0.108   4.123   1.322
 1439SOL    HW1 4345   0.124   4.027   1.344
 1439SOL    HW2 4346   0.134   4.140   1.227
 1440SOL     OW 4347   1.078   3.149   1.944
 1440SOL    HW1 4348   1.163   3.135   1.994
 1440SOL    HW2 4349   1.019   3.069   1.957
 1441SOL     OW 4350   3.283   2.708   4.707
 1441SOL    HW1 4351   3.252   2.688   4.614
 1441SOL    HW2 4352   3.362   2.651   4.729
 1442SOL     OW 4353   1.906   0.459   3.226
 1442SOL    HW1 4354   1.824   0.516   3.230
 1442SOL    HW2 4355   1.896   0.391   3.154
 1443SOL     OW 4356   3.545   3.135   3.758
 1443SOL    HW1 4357   3.614   3.137   3.830
 1443SOL    HW2 4358   3.589   3.152   3.669
 1444SOL     OW 4359   0.593   4.904   0.873
 1444SOL    HW1 4360   0.530   4.973   0.838
 1444SOL    HW2 4361   0.616   4.925   0.968
 1445SOL     OW 4362   4.475   2.744   3.102
 1445SOL    HW1 4363   4.431   2.673   3.046
 1445SOL    HW2 4364   4.424   2.753   3.188
 1446SOL     OW 4365   3.383   2.846   4.379
 1446SOL    HW1 4366   3.454   2.781   4.353
 1446SOL    HW2 4367   3.303   2.833   4.321
 1447SOL     OW 4368   3.354   3.783   1.983
 1447SOL    HW1 4369   3.437   3.835   1.963
 1447SOL    HW2 4370   3.379   3.688   2.003
 1448SOL     OW 4371   2.852   0.193   0.773
 1448SOL    HW1 4372   2.839   0.099   0.742
 1448SOL    HW2 4373   2.775   0.249   0.742
 1449SOL     OW 4374   0.419   0.068   1.785
 1449SOL    HW1 4375   0.495   0.130   1.768
 1449SOL    HW2 4376   0.356   0.069   1.707
 1450SOL     OW 4377   1.740   0.919   3.250
 1450SOL    HW1 4378   1.775   0.972   3.172
 1450SOL    HW2 4379   1.785   0.949   3.334
 1451SOL     OW 4380   1.867   3.760   0.878
 1451SOL    HW1 4381   1.914   3.674   0.857
 1451SOL    HW2 4382   1.781   3.763   0.828
 1452SOL     OW 4383   4.732   0.052   1.014
 1452SOL    HW1 4384   4.656   0.108   1.045
 1452SOL    HW2 4385   4.732   4.999   1.062
 1453SOL     OW 4386   1.460   0.650   1.282
 1453SOL    HW1 4387   1.523   0.581   1.248
 1453SOL    HW2 4388   1.417   0.697   1.205
 1454SOL     OW 4389   1.493   1.453   2.975
 1454SOL    HW1 4390   1.406   1.502   2.974
 1454SOL    HW2 4391   1.545   1.474   2.892
 1455SOL     OW 4392   1.395   4.177   1.073
 1455SOL    HW1 4393   1.460   4.250   1.053
 1455SOL    HW2 4394   1.305   4.217   1.091
 1456SOL     OW 4395   4.576   2.913   5.016
 1456SOL    HW1 4396   4.655   2.960   4.975
 1456SOL    HW2 4397   4.607   2.829   0.025
 1457SOL     OW 4398   3.649   3.331   2.553
 1457SOL    HW1 4399   3.714   3.396   2.593
 1457SOL    HW2 4400   3.612   3.273   2.625
 1458SOL     OW 4401   0.438   4.577   4.005
 1458SOL    HW1 4402   0.450   4.564   3.906
 1458SOL    HW2 4403   0.405   4.493   4.046
 1459SOL     OW 4404   2.231   0.829   0.561
 1459SOL    HW1 4405   2.324   0.795   0.546
 1459SOL    HW2 4406   2.234   0.923   0.594
 1460SOL     OW 4407   0.072   1.500   1.625
 1460SOL    HW1 4408   0.031   1.577   1.576
 1460SOL    HW2 4409   0.105   1.531   1.714
 1461SOL     OW 4410   0.951   4.931   1.257
 1461SOL    HW1 4411   0.933   4.834   1.268
 1461SOL    HW2 4412   1.041   4.953   1.295
 1462SOL     OW 4413   1.926   0.882   2.710
 1462SOL    HW1 4414   2.008   0.920   2.753
 1462SOL    HW2 4415   1.859   0.860   2.780
 1463SOL     OW 4416   1.477   2.761   4.369
 1463SOL    HW1 4417   1.481   2.677   4.315
 1463SOL    HW2 4418   1.460   2.738   4.465
 1464SOL     OW 4419   0.921   0.046   4.150
 1464SOL    HW1 4420   0.847   5.032   4.104
 1464SOL    HW2 4421   1.009   0.023   4.108
 1465SOL     OW 4422   2.947   2.765   1.776
 1465SOL    HW1 4423   2.878   2.710   1.823
 1465SOL    HW2 4424   2.989   2.828   1.841
 1466SOL     OW 4425   3.265   0.438   1.053
 1466SOL    HW1 4426   3.197   0.477   0.991
 1466SOL    HW2 4427   3.219   0.386   1.125
 1467SOL     OW 4428   1.063   2.616   0.762
 1467SOL    HW1 4429   1.134   2.548   0.783
 1467SOL    HW2 4430   1.025   2.597   0.671
 1468SOL     OW 4431   3.017   0.862   1.300
 1468SOL    HW1 4432   3.059   0.794   1.361
 1468SOL    HW2 4433   2.930   0.827   1.267
 1469SOL     OW 4434   1.861   1.940   2.715
 1469SOL    HW1 4435   1.892   1.847   2.731
 1469SOL    HW2 4436   1.819   1.976   2.798
 1470SOL     OW 4437   1.623   1.509   2.478
 1470SOL    HW1 4438   1.609   1.413   2.454
 1470SOL    HW2 4439   1.709   1.541   2.438
 1471SOL     OW 4440   2.266   4.914   0.507
 1471SOL    HW1 4441   2.189   4.943   0.564
 1471SOL    HW2 4442   2.235   4.904   0.412
 1472SOL     OW 4443   2.255   0.634   3.767
 1472SOL    HW1 4444   2.276   0.705   3.835
 1472SOL    HW2 4445   2.270   0.670   3.675
 1473SOL     OW 4446   4.256   1.407   0.521
 1473SOL    HW1 4447   4.301   1.388   0.608
 1473SOL    HW2 4448   4.189   1.480   0.534
 1474SOL     OW 4449   2.824   2.368   0.837
 1474SOL    HW1 4450   2.866   2.434   0.774
 1474SOL    HW2 4451   2.881   2.359   0.918
 1475SOL     OW 4452   1.549   0.024   2.520
 1475SOL    HW1 4453   1.507   0.106   2.481
 1475SOL    HW2 4454   1.548   0.031   2.620
 1476SOL     OW 4455   2.845   2.780   1.379
 1476SOL    HW1 4456   2.778   2.706   1.381
 1476SOL    HW2 4457   2.937   2.742   1.372
 1477SOL     OW 4458   1.142   3.987   1.142
 1477SOL    HW1 4459   1.069   3.924   1.166
 1477SOL    HW2 4460   1.137   4.009   1.044
 1478SOL     OW 4461   2.576   0.734   2.046
 1478SOL    HW1 4462   2.573   0.714   1.948
 1478SOL    HW2 4463   2.633   0.815   2.061
 1479SOL     OW 4464   1.720   4.160   3.297
 1479SOL    HW1 4465   1.727   4.246   3.248
 1479SOL    HW2 4466   1.623   4.139   3.313
 1480SOL     OW 4467   3.473   3.991   0.904
 1480SOL    HW1 4468   3.538   4.066   0.915
 1480SOL    HW2 4469   3.387   4.015   0.949
 1481SOL     OW 4470   4.087   4.702   1.475
 1481SOL    HW1 4471   4.156   4.718   1.405
 1481SOL    HW2 4472   4.036   4.619   1.454
 1482SOL     OW 4473   0.277   2.745   3.159
 1482SOL    HW1 4474   0.331   2.731   3.242
 1482SOL    HW2 4475   0.204   2.811   3.178
 1483SOL     OW 4476   0.745   3.825   2.546
 1483SOL    HW1 4477   0.829   3.842   2.598
 1483SOL    HW2 4478   0.704   3.912   2.520
 1484SOL     OW 4479   1.651   3.721   0.529
 1484SOL    HW1 4480   1.629   3.797   0.591
 1484SOL    HW2 4481   1.730   3.671   0.564
 1485SOL     OW 4482   4.552   1.517   1.553
 1485SOL    HW1 4483   4.517   1.604   1.519
 1485SOL    HW2 4484   4.539   1.447   1.483
 1486SOL     OW 4485   1.426   4.405   1.283
 1486SOL    HW1 4486   1.518   4.408   1.323
 1486SOL    HW2 4487   1.363   4.361   1.347
 1487SOL     OW 4488   2.559   1.738   0.145
 1487SOL    HW1 4489   2.576   1.786   0.059
 1487SOL    HW2 4490   2.584   1.798   0.221
 1488SOL     OW 4491   3.131   4.041   1.368
 1488SOL    HW1 4492   3.118   4.140   1.364
 1488SOL    HW2 4493   3.091   3.999   1.286
 1489SOL     OW 4494   3.072   4.448   0.971
 1489SOL    HW1 4495   3.028   4.360   0.987
 1489SOL    HW2 4496   3.126   4.474   1.051
 1490SOL     OW 4497   1.850   1.213   0.930
 1490SOL    HW1 4498   1.877   1.153   1.005
 1490SOL    HW2 4499   1.880   1.306   0.950
 1491SOL     OW 4500   1.839   3.732   3.512
 1491SOL    HW1 4501   1.810   3.726   3.417
 1491SOL    HW2 4502   1.855   3.640   3.548
 1492SOL     OW 4503   4.928   1.444   2.546
 1492SOL    HW1 4504   4.901   1.496   2.465
 1492SOL    HW2 4505   4.846   1.423   2.600
 1493SOL     OW 4506   0.249   4.930   4.530
 1493SOL    HW1 4507   0.211   4.849   4.575
 1493SOL    HW2 4508   0.188   4.958   4.455
 1494SOL     OW 4509   4.134   0.224   4.607
 1494SOL    HW1 4510   4.067   0.184   4.669
 1494SOL    HW2 4511   4.219   0.243   4.656
 1495SOL     OW 4512   4.382   1.776   2.445
 1495SOL    HW1 4513   4.334   1.755   2.531
 1495SOL    HW2 4514   4.392   1.692   2.392
 1496SOL     OW 4515   0.298   4.844   1.370
 1496SOL    HW1 4516   0.281   4.935   1.407
 1496SOL    HW2 4517   0.277   4.775   1.439
 1497SOL     OW 4518   2.865   3.147   1.752
 1497SOL    HW1 4519   2.945   3.102   1.792
 1497SOL    HW2 4520   2.894   3.208   1.679
 1498SOL     OW 4521   3.386   2.121   3.305
 1498SOL    HW1 4522   3.390   2.028   3.268
 1498SOL    HW2 4523   3.455   2.178   3.260
 1499SOL     OW 4524   4.015   2.237   0.179
 1499SOL    HW1 4525   4.089   2.188   0.224
 1499SOL    HW2 4526   4.037   2.249   0.082
 1500SOL     OW 4527   0.307   4.953   3.169
 1500SOL    HW1 4528   0.390   5.009   3.158
 1500SOL    HW2 4529   0.241   4.977   3.098
 1501SOL     OW 4530   4.200   1.263   3.194
 1501SOL    HW1 4531   4.120   1.291   3.141
 1501SOL    HW2 4532   4.249   1.191   3.145
 1502SOL     OW 4533   4.148   2.023   0.939
 1502SOL    HW1 4534   4.217   2.075   0.889
 1502SOL    HW2 4535   4.065   2.079   0.948
 1503SOL     OW 4536   3.407   4.609   4.438
 1503SOL    HW1 4537   3.414   4.649   4.346
 1503SOL    HW2 4538   3.492   4.627   4.488
 1504SOL     OW 4539   0.940   1.000   4.613
 1504SOL    HW1 4540   0.965   0.930   4.679
 1504SOL    HW2 4541   0.875   0.963   4.547
 1505SOL     OW 4542   1.875   0.001   3.523
 1505SOL    HW1 4543   1.891   0.052   3.608
 1505SOL    HW2 4544   1.955   0.008   3.465
 1506SOL     OW 4545   2.119   0.408   4.881
 1506SOL    HW1 4546   2.216   0.385   4.870
 1506SOL    HW2 4547   2.072   0.396   4.793
 1507SOL     OW 4548   2.468   2.438   1.142
 1507SOL    HW1 4549   2.415   2.488   1.074
 1507SOL    HW2 4550   2.476   2.342   1.114
 1508SOL     OW 4551   4.417   2.236   0.446
 1508SOL    HW1 4552   4.497   2.188   0.410
 1508SOL    HW2 4553   4.423   2.333   0.423
 1509SOL     OW 4554   1.123   2.797   4.006
 1509SOL    HW1 4555   1.091   2.726   3.944
 1509SOL    HW2 4556   1.131   2.759   4.098
 1510SOL     OW 4557   4.569   3.648   0.602
 1510SOL    HW1 4558   4.600   3.626   0.509
 1510SOL    HW2 4559   4.524   3.569   0.642
 1511SOL     OW 4560   3.446   0.864   0.474
 1511SOL    HW1 4561   3.381   0.869   0.550
 1511SOL    HW2 4562   3.396   0.864   0.387
 1512SOL     OW 4563   0.231   3.373   2.171
 1512SOL    HW1 4564   0.329   3.374   2.150
 1512SOL    HW2 4565   0.180   3.352   2.088
 1513SOL     OW 4566   3.185   3.903   0.224
 1513SOL    HW1 4567   3.274   3.916   0.268
 1513SOL    HW2 4568   3.184   3.816   0.176
 1514SOL     OW 4569   2.936   4.970   2.361
 1514SOL    HW1 4570   2.880   4.982   2.443
 1514SOL    HW2 4571   2.941   0.021   2.311
 1515SOL     OW 4572   4.050   3.584   2.486
 1515SOL    HW1 4573   4.057   3.522   2.407
 1515SOL    HW2 4574   4.140   3.618   2.510
 1516SOL     OW 4575   2.460   4.015   1.476
 1516SOL    HW1 4576   2.436   4.047   1.384
 1516SOL    HW2 4577   2.487   3.918   1.472
 1517SOL     OW 4578   2.202   0.069   2.143
 1517SOL    HW1 4579   2.121   0.022   2.180
 1517SOL    HW2 4580   2.198   0.166   2.167
 1518SOL     OW 4581   2.328   4.420   4.219
 1518SOL    HW1 4582   2.392   4.406   4.144
 1518SOL    HW2 4583   2.237   4.391   4.192
 1519SOL     OW 4584   1.276   4.698   4.981
 1519SOL    HW1 4585   1.328   4.747   0.016
 1519SOL    HW2 4586   1.329   4.697   4.895
 1520SOL     OW 4587   2.970   1.892   0.469
 1520SOL    HW1 4588   2.957   1.822   0.538
 1520SOL    HW2 4589   2.921   1.866   0.385
 1521SOL     OW 4590   3.863   3.219   4.990
 1521SOL    HW1 4591   3.963   3.219   4.982
 1521SOL    HW2 4592   3.822   3.230   4.899
 1522SOL     OW 4593   1.153   2.820   1.075
 1522SOL    HW1 4594   1.157   2.831   0.975
 1522SOL    HW2 4595   1.080   2.877   1.112
 1523SOL     OW 4596   3.389   0.112   2.713
 1523SOL    HW1 4597   3.422   0.138   2.804
 1523SOL    HW2 4598   3.372   0.013   2.711
 1524SOL     OW 4599   4.063   3.600   4.201
 1524SOL    HW1 4600   4.136   3.657   4.239
 1524SOL    HW2 4601   4.092   3.505   4.202
 1525SOL     OW 4602   0.190   0.671   3.851
 1525SOL    HW1 4603   0.185   0.770   3.836
 1525SOL    HW2 4604   0.285   0.645   3.864
 1526SOL     OW 4605   0.680   4.319   0.897
 1526SOL    HW1 4606   0.739   4.385   0.945
 1526SOL    HW2 4607   0.709   4.312   0.802
 1527SOL     OW 4608   3.660   1.814   2.178
 1527SOL    HW1 4609   3.665   1.811   2.078
 1527SOL    HW2 4610   3.726   1.880   2.213
 1528SOL     OW 4611   0.029   0.492   3.985
 1528SOL    HW1 4612   0.112   0.441   4.010
 1528SOL    HW2 4613   0.049   0.553   3.909
 1529SOL     OW 4614   0.921   1.914   0.561
 1529SOL    HW1 4615   0.882   1.824   0.580
 1529SOL    HW2 4616   0.870   1.984   0.611
 1530SOL     OW 4617   1.454   0.764   4.919
 1530SOL    HW1 4618   1.392   0.713   4.980
 1530SOL    HW2 4619   1.402   0.831   4.867
 1531SOL     OW 4620   4.634   0.604   3.657
 1531SOL    HW1 4621   4.687   0.683   3.688
 1531SOL    HW2 4622   4.537   0.621   3.670
 1532SOL     OW 4623   3.022   3.031   4.607
 1532SOL    HW1 4624   2.985   3.053   4.697
 1532SOL    HW2 4625   3.120   3.051   4.605
 1533SOL     OW 4626   0.348   3.692   2.800
 1533SOL    HW1 4627   0.395   3.697   2.888
 1533SOL    HW2 4628   0.282   3.617   2.802
 1534SOL     OW 4629   0.726   1.139   4.325
 1534SOL    HW1 4630   0.741   1.048   4.363
 1534SOL    HW2 4631   0.714   1.205   4.400
 1535SOL     OW 4632   0.819   4.848   4.838
 1535SOL    HW1 4633   0.854   4.782   4.904
 1535SOL    HW2 4634   0.872   4.933   4.844
 1536SOL     OW 4635   3.101   0.176   2.569
 1536SOL    HW1 4636   3.193   0.138   2.558
 1536SOL    HW2 4637   3.087   0.247   2.500
 1537SOL     OW 4638   3.181   2.813   3.224
 1537SOL    HW1 4639   3.114   2.814   3.297
 1537SOL    HW2 4640   3.142   2.769   3.143
 1538SOL     OW 4641   4.600   4.260   0.362
 1538SOL    HW1 4642   4.579   4.306   0.277
 1538SOL    HW2 4643   4.600   4.161   0.348
 1539SOL     OW 4644   3.940   0.391   0.878
 1539SOL    HW1 4645   3.955   0.453   0.802
 1539SOL    HW2 4646   3.994   0.421   0.957
 1540SOL     OW 4647   0.260   1.100   4.462
 1540SOL    HW1 4648   0.302   1.166   4.524
 1540SOL    HW2 4649   0.210   1.148   4.390
 1541SOL     OW 4650   4.241   3.927   2.394
 1541SOL    HW1 4651   4.247   3.950   2.297
 1541SOL    HW2 4652   4.306   3.983   2.446
 1542SOL     OW 4653   1.185   0.998   0.848
 1542SOL    HW1 4654   1.098   1.014   0.802
 1542SOL    HW2 4655   1.189   0.903   0.880
 1543SOL     OW 4656   2.398   2.083   1.276
 1543SOL    HW1 4657   2.323   2.061   1.338
 1543SOL    HW2 4658   2.485   2.064   1.321
 1544SOL     OW 4659   1.957   4.167   4.343
 1544SOL    HW1 4660   2.025   4.233   4.375
 1544SOL    HW2 4661   1.936   4.102   4.416
 1545SOL     OW 4662   4.245   2.771   0.322
 1545SOL    HW1 4663   4.198   2.721   0.250
 1545SOL    HW2 4664   4.195   2.761   0.408
 1546SOL     OW 4665   4.314   4.394   1.477
 1546SOL    HW1 4666   4.330   4.349   1.565
 1546SOL    HW2 4667   4.327   4.492   1.487
 1547SOL     OW 4668   2.440   4.881   0.769
 1547SOL    HW1 4669   2.466   4.970   0.732
 1547SOL    HW2 4670   2.517   4.842   0.819
 1548SOL     OW 4671   4.319   1.801   0.222
 1548SOL    HW1 4672   4.250   1.809   0.294
 1548SOL    HW2 4673   4.274   1.786   0.134
 1549SOL     OW 4674   4.903   1.564   0.288
 1549SOL    HW1 4675   4.819   1.560   0.235
 1549SOL    HW2 4676   4.883   1.591   0.382
 1550SOL     OW 4677   4.571   1.342   0.659
 1550SOL    HW1 4678   4.517   1.364   0.740
 1550SOL    HW2 4679   4.551   1.248   0.630
 1551SOL     OW 4680   3.889   4.638   0.496
 1551SOL    HW1 4681   3.887   4.551   0.545
 1551SOL    HW2 4682   3.922   4.710   0.557
 1552SOL     OW 4683   3.052   0.109   0.943
 1552SOL    HW1 4684   2.989   0.150   0.877
 1552SOL    HW2 4685   3.001   0.069   1.018
 1553SOL     OW 4686   2.984   0.517   3.320
 1553SOL    HW1 4687   3.061   0.577   3.297
 1553SOL    HW2 4688   3.019   0.426   3.342
 1554SOL     OW 4689   2.798   0.780   2.675
 1554SOL    HW1 4690   2.703   0.752   2.665
 1554SOL    HW2 4691   2.847   0.763   2.589
 1555SOL     OW 4692   3.462   2.914   0.615
 1555SOL    HW1 4693   3.558   2.893   0.597
 1555SOL    HW2 4694   3.416   2.833   0.652
 1556SOL     OW 4695   1.860   3.176   2.525
 1556SOL    HW1 4696   1.959   3.176   2.536
 1556SOL    HW2 4697   1.831   3.263   2.483
 1557SOL     OW 4698   1.013   1.152   4.206
 1557SOL    HW1 4699   1.003   1.226   4.139
 1557SOL    HW2 4700   0.954   1.075   4.180
 1558SOL     OW 4701   4.409   4.502   2.038
 1558SOL    HW1 4702   4.420   4.534   2.132
 1558SOL    HW2 4703   4.311   4.489   2.019
 1559SOL     OW 4704   3.500   0.504   2.489
 1559SOL    HW1 4705   3.469   0.549   2.405
 1559SOL    HW2 4706   3.463   0.552   2.568
 1560SOL     OW 4707   0.700   4.764   4.330
 1560SOL    HW1 4708   0.721   4.717   4.416
 1560SOL    HW2 4709   0.773   4.830   4.309
 1561SOL     OW 4710   4.173   1.623   2.165
 1561SOL    HW1 4711   4.225   1.606   2.249
 1561SOL    HW2 4712   4.113   1.545   2.147
 1562SOL     OW 4713   0.632   0.564   1.172
 1562SOL    HW1 4714   0.582   0.638   1.127
 1562SOL    HW2 4715   0.598   0.553   1.266
 1563SOL     OW 4716   2.361   4.814   4.378
 1563SOL    HW1 4717   2.285   4.756   4.350
 1563SOL    HW2 4718   2.333   4.872   4.455
 1564SOL     OW 4719   4.342   5.017   1.265
 1564SOL    HW1 4720   4.406   0.032   1.207
 1564SOL    HW2 4721   4.394   4.960   1.329
 1565SOL     OW 4722   1.941   4.896   1.635
 1565SOL    HW1 4723   2.038   4.904   1.610
 1565SOL    HW2 4724   1.886   4.951   1.573
 1566SOL     OW 4725   3.447   3.349   3.118
 1566SOL    HW1 4726   3.538   3.355   3.158
 1566SOL    HW2 4727   3.380   3.387   3.182
 1567SOL     OW 4728   2.508   1.244   3.278
 1567SOL    HW1 4729   2.601   1.208   3.286
 1567SOL    HW2 4730   2.454   1.184   3.220
 1568SOL     OW 4731   2.037   3.608   3.853
 1568SOL    HW1 4732   2.068   3.600   3.947
 1568SOL    HW2 4733   2.070   3.694   3.814
 1569SOL     OW 4734   4.007   4.322   3.450
 1569SOL    HW1 4735   4.062   4.358   3.375
 1569SOL    HW2 4736   3.965   4.398   3.500
 1570SOL     OW 4737   2.780   0.734   4.971
 1570SOL    HW1 4738   2.827   0.647   4.960
 1570SOL    HW2 4739   2.684   0.718   4.994
 1571SOL     OW 4740   3.285   4.426   4.646
 1571SOL    HW1 4741   3.366   4.423   4.587
 1571SOL    HW2 4742   3.290   4.350   4.712
 1572SOL     OW 4743   3.693   0.829   0.306
 1572SOL    HW1 4744   3.765   0.801   0.241
 1572SOL    HW2 4745   3.733   0.887   0.377
 1573SOL     OW 4746   1.857   0.223   4.132
 1573SOL    HW1 4747   1.944   0.250   4.175
 1573SOL    HW2 4748   1.794   0.300   4.135
 1574SOL     OW 4749   3.187   0.184   4.927
 1574SOL    HW1 4750   3.094   0.177   4.891
 1574SOL    HW2 4751   3.199   0.120   5.003
 1575SOL     OW 4752   3.057   4.073   4.024
 1575SOL    HW1 4753   3.030   4.169   4.019
 1575SOL    HW2 4754   3.111   4.058   4.107
 1576SOL     OW 4755   3.379   1.187   0.394
 1576SOL    HW1 4756   3.320   1.196   0.313
 1576SOL    HW2 4757   3.368   1.267   0.452
 1577SOL     OW 4758   0.978   0.118   4.465
 1577SOL    HW1 4759   0.945   0.166   4.383
 1577SOL    HW2 4760   0.909   0.051   4.494
 1578SOL     OW 4761   2.492   4.432   0.629
 1578SOL    HW1 4762   2.515   4.499   0.698
 1578SOL    HW2 4763   2.399   4.450   0.595
 1579SOL     OW 4764   4.325   2.925   4.733
 1579SOL    HW1 4765   4.363   2.970   4.814
 1579SOL    HW2 4766   4.261   2.986   4.687
 1580SOL     OW 4767   0.978   3.320   0.193
 1580SOL    HW1 4768   0.950   3.406   0.237
 1580SOL    HW2 4769   0.897   3.270   0.164
 1581SOL     OW 4770   1.743   2.041   2.940
 1581SOL    HW1 4771   1.647   2.013   2.942
 1581SOL    HW2 4772   1.754   2.127   2.989
 1582SOL     OW 4773   0.106   0.652   0.601
 1582SOL    HW1 4774   0.008   0.648   0.622
 1582SOL    HW2 4775   0.155   0.700   0.673
 1583SOL     OW 4776   2.858   4.496   1.812
 1583SOL    HW1 4777   2.871   4.512   1.714
 1583SOL    HW2 4778   2.771   4.534   1.841
 1584SOL     OW 4779   1.864   4.516   4.274
 1584SOL    HW1 4780   1.955   4.487   4.247
 1584SOL    HW2 4781   1.801   4.438   4.272
 1585SOL     OW 4782   1.324   2.296   3.175
 1585SOL    HW1 4783   1.404   2.356   3.178
 1585SOL    HW2 4784   1.292   2.287   3.081
 1586SOL     OW 4785   5.003   1.952   1.871
 1586SOL    HW1 4786   4.981   1.887   1.799
 1586SOL    HW2 4787   0.010   1.904   1.948
 1587SOL     OW 4788   3.862   3.573   1.559
 1587SOL    HW1 4789   3.925   3.636   1.604
 1587SOL    HW2 4790   3.834   3.502   1.624
 1588SOL     OW 4791   2.518   0.905   1.504
 1588SOL    HW1 4792   2.471   0.818   1.510
 1588SOL    HW2 4793   2.526   0.946   1.595
 1589SOL     OW 4794   3.364   0.377   3.982
 1589SOL    HW1 4795   3.461   0.398   3.990
 1589SOL    HW2 4796   3.319   0.390   4.071
 1590SOL     OW 4797   1.854   3.219   4.858
 1590SOL    HW1 4798   1.889   3.216   4.951
 1590SOL    HW2 4799   1.861   3.128   4.817
 1591SOL     OW 4800   4.443   3.982   1.215
 1591SOL    HW1 4801   4.356   3.994   1.167
 1591SOL    HW2 4802   4.450   3.888   1.248
 1592SOL     OW 4803   2.477   4.989   4.042
 1592SOL    HW1 4804   2.437   4.960   4.130
 1592SOL    HW2 4805   2.540   4.919   4.010
 1593SOL     OW 4806   3.900   2.471   0.995
 1593SOL    HW1 4807   3.942   2.479   1.085
 1593SOL    HW2 4808   3.875   2.562   0.962
 1594SOL     OW 4809   2.368   4.121   1.728
 1594SOL    HW1 4810   2.373   4.054   1.654
 1594SOL    HW2 4811   2.281   4.110   1.777
 1595SOL     OW 4812   1.672   1.526   3.376
 1595SOL    HW1 4813   1.662   1.580   3.293
 1595SOL    HW2 4814   1.590   1.470   3.389
 1596SOL     OW 4815   3.899   0.758   0.871
 1596SOL    HW1 4816   3.972   0.697   0.840
 1596SOL    HW2 4817   3.885   0.830   0.802
 1597SOL     OW 4818   0.773   4.336   1.442
 1597SOL    HW1 4819   0.724   4.306   1.360
 1597SOL    HW2 4820   0.825   4.259   1.479
 1598SOL     OW 4821   2.528   4.843   0.473
 1598SOL    HW1 4822   2.437   4.869   0.507
 1598SOL    HW2 4823   2.598   4.876   0.537
 1599SOL     OW 4824   1.023   2.382   1.857
 1599SOL    HW1 4825   0.962   2.462   1.853
 1599SOL    HW2 4826   1.091   2.389   1.784
 1600SOL     OW 4827   0.353   0.930   4.086
 1600SOL    HW1 4828   0.370   0.910   3.990
 1600SOL    HW2 4829   0.329   0.845   4.133
 1601SOL     OW 4830   2.450   0.487   2.119
 1601SOL    HW1 4831   2.465   0.560   2.053
 1601SOL    HW2 4832   2.539   0.449   2.146
 1602SOL     OW 4833   3.987   3.886   4.871
 1602SOL    HW1 4834   4.076   3.878   4.825
 1602SOL    HW2 4835   3.994   3.847   4.963
 1603SOL     OW 4836   3.164   4.515   3.358
 1603SOL    HW1 4837   3.098   4.455   3.401
 1603SOL    HW2 4838   3.253   4.505   3.403
 1604SOL     OW 4839   0.857   1.665   0.901
 1604SOL    HW1 4840   0.884   1.746   0.849
 1604SOL    HW2 4841   0.795   1.609   0.845
 1605SOL     OW 4842   0.703   0.592   0.171
 1605SOL    HW1 4843   0.728   0.629   0.261
 1605SOL    HW2 4844   0.712   0.492   0.173
 1606SOL     OW 4845   3.266   1.086   0.939
 1606SOL    HW1 4846   3.209   1.020   0.988
 1606SOL    HW2 4847   3.312   1.041   0.862
 1607SOL     OW 4848   1.151   1.239   2.945
 1607SOL    HW1 4849   1.073   1.225   3.006
 1607SOL    HW2 4850   1.127   1.205   2.854
 1608SOL     OW 4851   3.659   3.503   0.555
 1608SOL    HW1 4852   3.639   3.571   0.626
 1608SOL    HW2 4853   3.737   3.534   0.500
 1609SOL     OW 4854   0.304   0.530   3.278
 1609SOL    HW1 4855   0.229   0.586   3.242
 1609SOL    HW2 4856   0.388   0.584   3.278
 1610SOL     OW 4857   1.671   1.383   4.521
 1610SOL    HW1 4858   1.739   1.320   4.484
 1610SOL    HW2 4859   1.582   1.337   4.524
 1611SOL     OW 4860   3.571   2.559   0.152
 1611SOL    HW1 4861   3.602   2.654   0.154
 1611SOL    HW2 4862   3.647   2.498   0.173
 1612SOL     OW 4863   2.520   4.426   3.628
 1612SOL    HW1 4864   2.531   4.465   3.537
 1612SOL    HW2 4865   2.536   4.328   3.625
 1613SOL     OW 4866   4.196   1.958   1.907
 1613SOL    HW1 4867   4.125   2.028   1.897
 1613SOL    HW2 4868   4.285   1.999   1.890
 1614SOL     OW 4869   3.933   4.025   4.631
 1614SOL    HW1 4870   3.926   3.982   4.721
 1614SOL    HW2 4871   3.957   3.955   4.563
 1615SOL     OW 4872   0.168   2.828   0.993
 1615SOL    HW1 4873   0.248   2.832   1.053
 1615SOL    HW2 4874   0.124   2.738   1.003
 1616SOL     OW 4875   1.941   2.372   2.180
 1616SOL    HW1 4876   1.917   2.278   2.207
 1616SOL    HW2 4877   1.935   2.380   2.081
 1617SOL     OW 4878   2.026   2.161   4.176
 1617SOL    HW1 4879   2.116   2.176   4.216
 1617SOL    HW2 4880   1.976   2.094   4.231
 1618SOL     OW 4881   4.019   0.944   3.000
 1618SOL    HW1 4882   4.089   1.010   2.972
 1618SOL    HW2 4883   4.061   0.854   3.009
 1619SOL     OW 4884   2.121   4.180   0.173
 1619SOL    HW1 4885   2.022   4.167   0.178
 1619SOL    HW2 4886   2.167   4.107   0.225
 1620SOL     OW 4887   4.310   3.750   0.076
 1620SOL    HW1 4888   4.264   3.702   0.002
 1620SOL    HW2 4889   4.294   3.702   0.162
 1621SOL     OW 4890   1.029   0.692   2.916
 1621SOL    HW1 4891   0.999   0.632   2.990
 1621SOL    HW2 4892   1.102   0.647   2.865
 1622SOL     OW 4893   4.587   2.964   1.483
 1622SOL    HW1 4894   4.649   2.948   1.406
 1622SOL    HW2 4895   4.632   2.936   1.568
 1623SOL     OW 4896   0.804   3.159   0.609
 1623SOL    HW1 4897   0.902   3.170   0.594
 1623SOL    HW2 4898   0.763   3.117   0.527
 1624SOL     OW 4899   2.588   0.049   1.216
 1624SOL    HW1 4900   2.524   0.118   1.181
 1624SOL    HW2 4901   2.592   0.055   1.316
 1625SOL     OW 4902   0.150   0.862   0.236
 1625SOL    HW1 4903   0.077   0.854   0.304
 1625SOL    HW2 4904   0.139   0.789   0.167
 1626SOL     OW 4905   3.627   0.411   4.037
 1626SOL    HW1 4906   3.628   0.372   4.129
 1626SOL    HW2 4907   3.675   0.350   3.974
 1627SOL     OW 4908   0.731   0.625   3.682
 1627SOL    HW1 4909   0.670   0.703   3.668
 1627SOL    HW2 4910   0.703   0.549   3.623
 1628SOL     OW 4911   0.558   0.381   4.742
 1628SOL    HW1 4912   0.610   0.317   4.685
 1628SOL    HW2 4913   0.579   0.364   4.838
 1629SOL     OW 4914   4.432   2.115   1.913
 1629SOL    HW1 4915   4.517   2.152   1.877
 1629SOL    HW2 4916   4.434   2.115   2.013
 1630SOL     OW 4917   2.111   2.667   2.148
 1630SOL    HW1 4918   2.087   2.753   2.104
 1630SOL    HW2 4919   2.032   2.631   2.198
 1631SOL     OW 4920   0.895   0.746   3.284
 1631SOL    HW1 4921   0.987   0.749   3.324
 1631SOL    HW2 4922   0.859   0.839   3.277
 1632SOL     OW 4923   2.922   0.569   1.310
 1632SOL    HW1 4924   2.905   0.548   1.213
 1632SOL    HW2 4925   2.853   0.634   1.342
 1633SOL     OW 4926   0.591   2.363   4.001
 1633SOL    HW1 4927   0.647   2.409   3.932
 1633SOL    HW2 4928   0.503   2.339   3.961
 1634SOL     OW 4929   0.473   1.083   2.780
 1634SOL    HW1 4930   0.431   1.080   2.870
 1634SOL    HW2 4931   0.416   1.033   2.714
 1635SOL     OW 4932   3.928   4.460   4.654
 1635SOL    HW1 4933   3.872   4.402   4.713
 1635SOL    HW2 4934   3.930   4.422   4.561
 1636SOL     OW 4935   4.064   0.831   4.529
 1636SOL    HW1 4936   4.036   0.803   4.437
 1636SOL    HW2 4937   4.160   0.859   4.527
 1637SOL     OW 4938   0.080   4.752   3.661
 1637SOL    HW1 4939   0.108   4.756   3.757
 1637SOL    HW2 4940   0.013   4.679   3.649
 1638SOL     OW 4941   3.468   1.012   2.969
 1638SOL    HW1 4942   3.566   0.998   2.979
 1638SOL    HW2 4943   3.451   1.074   2.891
 1639SOL     OW 4944   4.171   4.454   0.513
 1639SOL    HW1 4945   4.102   4.519   0.479
 1639SOL    HW2 4946   4.242   4.504   0.562
 1640SOL     OW 4947   3.883   4.758   1.085
 1640SOL    HW1 4948   3.803   4.744   1.143
 1640SOL    HW2 4949   3.953   4.691   1.107
 1641SOL     OW 4950   0.533   0.344   4.295
 1641SOL    HW1 4951   0.444   0.358   4.336
 1641SOL    HW2 4952   0.551   0.246   4.285
 1642SOL     OW 4953   3.452   2.164   3.947
 1642SOL    HW1 4954   3.409   2.178   4.036
 1642SOL    HW2 4955   3.538   2.114   3.959
 1643SOL     OW 4956   1.881   2.243   4.697
 1643SOL    HW1 4957   1.788   2.276   4.710
 1643SOL    HW2 4958   1.880   2.144   4.686
 1644SOL     OW 4959   1.367   3.667   4.158
 1644SOL    HW1 4960   1.287   3.622   4.117
 1644SOL    HW2 4961   1.394   3.618   4.241
 1645SOL     OW 4962   3.723   3.099   4.076
 1645SOL    HW1 4963   3.786   3.111   4.153
 1645SOL    HW2 4964   3.757   3.149   3.996
 1646SOL     OW 4965   3.742   1.406   0.172
 1646SOL    HW1 4966   3.642   1.410   0.173
 1646SOL    HW2 4967   3.775   1.431   0.081
 1647SOL     OW 4968   4.162   4.085   1.252
 1647SOL    HW1 4969   4.220   4.165   1.234
 1647SOL    HW2 4970   4.129   4.047   1.166
 1648SOL     OW 4971   4.605   3.464   2.409
 1648SOL    HW1 4972   4.684   3.525   2.407
 1648SOL    HW2 4973   4.537   3.494   2.342
 1649SOL     OW 4974   1.608   4.382   3.173
 1649SOL    HW1 4975   1.570   4.381   3.266
 1649SOL    HW2 4976   1.640   4.475   3.151
 1650SOL     OW 4977   1.571   0.565   4.744
 1650SOL    HW1 4978   1.526   0.636   4.798
 1650SOL    HW2 4979   1.670   0.571   4.756
 1651SOL     OW 4980   1.865   4.943   4.824
 1651SOL    HW1 4981   1.927   4.990   4.762
 1651SOL    HW2 4982   1.866   4.988   4.913
 1652SOL     OW 4983   1.033   4.486   1.577
 1652SOL    HW1 4984   1.094   4.563   1.596
 1652SOL    HW2 4985   0.986   4.501   1.490
 1653SOL     OW 4986   0.713   2.428   0.637
 1653SOL    HW1 4987   0.617   2.453   0.652
 1653SOL    HW2 4988   0.718   2.352   0.572
 1654SOL     OW 4989   2.951   0.406   1.922
 1654SOL    HW1 4990   3.042   0.380   1.891
 1654SOL    HW2 4991   2.952   0.416   2.022
 1655SOL     OW 4992   4.159   0.950   0.225
 1655SOL    HW1 4993   4.077   0.929   0.172
 1655SOL    HW2 4994   4.216   0.868   0.232
 1656SOL     OW 4995   1.209   0.040   0.324
 1656SOL    HW1 4996   1.263   0.109   0.274
 1656SOL    HW2 4997   1.154   5.024   0.259
 1657SOL     OW 4998   0.460   1.194   3.997
 1657SOL    HW1 4999   0.430   1.130   4.067
 1657SOL    HW2 5000   0.509   1.270   4.039
 1658SOL     OW 5001   1.514   3.412   3.022
 1658SOL    HW1 5002   1.514   3.324   2.976
 1658SOL    HW2 5003   1.606   3.452   3.017
 1659SOL     OW 5004   0.234   4.596   2.358
 1659SOL    HW1 5005   0.224   4.676   2.416
 1659SOL    HW2 5006   0.294   4.617   2.281
 1660SOL     OW 5007   0.367   1.167   2.490
 1660SOL    HW1 5008   0.355   1.216   2.576
 1660SOL    HW2 5009   0.310   1.208   2.419
 1661SOL     OW 5010   3.166   3.094   0.019
 1661SOL    HW1 5011   3.080   3.094   5.003
 1661SOL    HW2 5012   3.237   3.051   4.999
 1662SOL     OW 5013   0.908   4.986   1.874
 1662SOL    HW1 5014   0.842   4.970   1.948
 1662SOL    HW2 5015   1.000   4.994   1.912
 1663SOL     OW 5016   0.447   3.607   2.170
 1663SOL    HW1 5017   0.360   3.629   2.214
 1663SOL    HW2 5018   0.497   3.541   2.227
 1664SOL     OW 5019   2.135   2.119   3.177
 1664SOL    HW1 5020   2.086   2.033   3.188
 1664SOL    HW2 5021   2.115   2.178   3.256
 1665SOL     OW 5022   1.233   2.662   1.504
 1665SOL    HW1 5023   1.169   2.647   1.429
 1665SOL    HW2 5024   1.321   2.621   1.481
 1666SOL     OW 5025   1.716   2.245   4.920
 1666SOL    HW1 5026   1.809   2.224   4.889
 1666SOL    HW2 5027   1.712   2.236   5.019
 1667SOL     OW 5028   4.920   2.121   1.043
 1667SOL    HW1 5029   4.823   2.125   1.069
 1667SOL    HW2 5030   4.930   2.070   0.958
 1668SOL     OW 5031   3.778   1.723   4.345
 1668SOL    HW1 5032   3.828   1.636   4.346
 1668SOL    HW2 5033   3.708   1.720   4.275
 1669SOL     OW 5034   3.575   1.851   3.329
 1669SOL    HW1 5035   3.635   1.930   3.335
 1669SOL    HW2 5036   3.528   1.838   3.416
 1670SOL     OW 5037   1.506   0.477   0.452
 1670SOL    HW1 5038   1.511   0.393   0.398
 1670SOL    HW2 5039   1.520   0.556   0.393
 1671SOL     OW 5040   2.604   1.234   2.949
 1671SOL    HW1 5041   2.593   1.139   2.921
 1671SOL    HW2 5042   2.524   1.262   3.003
 1672SOL     OW 5043   2.884   0.118   2.092
 1672SOL    HW1 5044   2.883   0.018   2.088
 1672SOL    HW2 5045   2.806   0.154   2.040
 1673SOL     OW 5046   3.014   3.440   1.772
 1673SOL    HW1 5047   3.107   3.403   1.779
 1673SOL    HW2 5048   2.977   3.420   1.681
 1674SOL     OW 5049   2.257   2.066   1.933
 1674SOL    HW1 5050   2.213   2.151   1.904
 1674SOL    HW2 5051   2.264   2.004   1.855
 1675SOL     OW 5052   3.685   4.968   0.979
 1675SOL    HW1 5053   3.652   4.882   0.943
 1675SOL    HW2 5054   3.782   4.978   0.958
 1676SOL     OW 5055   4.347   2.472   4.615
 1676SOL    HW1 5056   4.285   2.430   4.548
 1676SOL    HW2 5057   4.299   2.546   4.662
 1677SOL     OW 5058   4.906   3.292   4.801
 1677SOL    HW1 5059   4.822   3.239   4.809
 1677SOL    HW2 5060   4.970   3.244   4.741
 1678SOL     OW 5061   4.875   0.968   2.133
 1678SOL    HW1 5062   4.816   1.037   2.091
 1678SOL    HW2 5063   4.859   0.880   2.089
 1679SOL     OW 5064   2.108   2.281   1.886
 1679SOL    HW1 5065   2.014   2.273   1.851
 1679SOL    HW2 5066   2.133   2.377   1.893
 1680SOL     OW 5067   2.517   2.286   2.274
 1680SOL    HW1 5068   2.424   2.254   2.294
 1680SOL    HW2 5069   2.527   2.380   2.306
 1681SOL     OW 5070   2.352   3.609   2.199
 1681SOL    HW1 5071   2.447   3.628   2.224
 1681SOL    HW2 5072   2.327   3.518   2.232
 1682SOL     OW 5073   4.307   0.505   4.650
 1682SOL    HW1 5074   4.232   0.504   4.585
 1682SOL    HW2 5075   4.272   0.490   4.742
 1683SOL     OW 5076   1.302   4.646   4.642
 1683SOL    HW1 5077   1.236   4.592   4.695
 1683SOL    HW2 5078   1.315   4.603   4.552
 1684SOL     OW 5079   1.072   0.976   1.797
 1684SOL    HW1 5080   1.059   1.038   1.874
 1684SOL    HW2 5081   1.124   0.896   1.827
 1685SOL     OW 5082   0.364   4.056   3.997
 1685SOL    HW1 5083   0.270   4.088   4.003
 1685SOL    HW2 5084   0.373   3.993   3.920
 1686SOL     OW 5085   2.042   3.487   2.937
 1686SOL    HW1 5086   2.111   3.492   2.864
 1686SOL    HW2 5087   2.025   3.579   2.972
 1687SOL     OW 5088   0.371   1.453   4.785
 1687SOL    HW1 5089   0.305   1.483   4.715
 1687SOL    HW2 5090   0.325   1.446   4.873
 1688SOL     OW 5091   3.194   4.729   2.555
 1688SOL    HW1 5092   3.122   4.694   2.615
 1688SOL    HW2 5093   3.161   4.731   2.461
 1689SOL     OW 5094   0.409   2.355   0.247
 1689SOL    HW1 5095   0.334   2.303   0.207
 1689SOL    HW2 5096   0.462   2.398   0.173
 1690SOL     OW 5097   4.764   0.490   1.743
 1690SOL    HW1 5098   4.748   0.409   1.686
 1690SOL    HW2 5099   4.676   0.532   1.765
 1691SOL     OW 5100   3.625   2.472   3.073
 1691SOL    HW1 5101   3.612   2.399   3.140
 1691SOL    HW2 5102   3.612   2.435   2.981
 1692SOL     OW 5103   0.678   0.257   1.211
 1692SOL    HW1 5104   0.778   0.256   1.208
 1692SOL    HW2 5105   0.641   0.255   1.118
 1693SOL     OW 5106   4.898   3.184   2.187
 1693SOL    HW1 5107   4.915   3.280   2.211
 1693SOL    HW2 5108   4.957   3.125   2.241
 1694SOL     OW 5109   1.401   3.875   1.150
 1694SOL    HW1 5110   1.384   3.778   1.132
 1694SOL    HW2 5111   1.314   3.924   1.151
 1695SOL     OW 5112   1.775   3.856   3.240
 1695SOL    HW1 5113   1.693   3.904   3.272
 1695SOL    HW2 5114   1.788   3.874   3.142
 1696SOL     OW 5115   2.818   3.046   1.432
 1696SOL    HW1 5116   2.910   3.084   1.445
 1696SOL    HW2 5117   2.825   2.946   1.423
 1697SOL     OW 5118   1.709   0.782   5.025
 1697SOL    HW1 5119   1.616   0.767   4.992
 1697SOL    HW2 5120   1.706   0.824   0.081
 1698SOL     OW 5121   4.150   2.898   0.754
 1698SOL    HW1 5122   4.118   2.975   0.808
 1698SOL    HW2 5123   4.232   2.859   0.796
 1699SOL     OW 5124   1.342   1.530   2.666
 1699SOL    HW1 5125   1.305   1.542   2.759
 1699SOL    HW2 5126   1.441   1.536   2.669
 1700SOL     OW 5127   4.621   4.447   4.119
 1700SOL    HW1 5128   4.705   4.407   4.083
 1700SOL    HW2 5129   4.571   4.491   4.044
 1701SOL     OW 5130   2.678   2.085   4.355
 1701SOL    HW1 5131   2.669   2.024   4.434
 1701SOL    HW2 5132   2.755   2.055   4.299
 1702SOL     OW 5133   0.528   2.402   4.304
 1702SOL    HW1 5134   0.429   2.407   4.315
 1702SOL    HW2 5135   0.551   2.325   4.244
 1703SOL     OW 5136   4.572   0.123   1.382
 1703SOL    HW1 5137   4.578   0.024   1.395
 1703SOL    HW2 5138   4.660   0.158   1.350
 1704SOL     OW 5139   3.265   4.409   0.505
 1704SOL    HW1 5140   3.281   4.368   0.595
 1704SOL    HW2 5141   3.328   4.369   0.439
 1705SOL     OW 5142   3.625   2.982   1.647
 1705SOL    HW1 5143   3.681   2.936   1.578
 1705SOL    HW2 5144   3.620   3.080   1.625
 1706SOL     OW 5145   1.468   1.575   1.205
 1706SOL    HW1 5146   1.457   1.662   1.158
 1706SOL    HW2 5147   1.384   1.521   1.194
 1707SOL     OW 5148   4.549   4.613   1.283
 1707SOL    HW1 5149   4.572   4.578   1.192
 1707SOL    HW2 5150   4.532   4.536   1.345
 1708SOL     OW 5151   0.905   3.481   4.301
 1708SOL    HW1 5152   0.839   3.527   4.360
 1708SOL    HW2 5153   0.894   3.512   4.207
 1709SOL     OW 5154   0.138   3.437   0.452
 1709SOL    HW1 5155   0.080   3.405   0.377
 1709SOL    HW2 5156   0.125   3.379   0.532
 1710SOL     OW 5157   1.067   4.814   4.594
 1710SOL    HW1 5158   1.112   4.900   4.621
 1710SOL    HW2 5159   1.115   4.737   4.636
 1711SOL     OW 5160   0.818   4.840   1.532
 1711SOL    HW1 5161   0.875   4.765   1.499
 1711SOL    HW2 5162   0.762   4.807   1.609
 1712SOL     OW 5163   1.444   0.435   3.962
 1712SOL    HW1 5164   1.407   0.413   3.871
 1712SOL    HW2 5165   1.377   0.412   4.032
 1713SOL     OW 5166   0.107   1.972   1.115
 1713SOL    HW1 5167   0.102   1.905   1.189
 1713SOL    HW2 5168   0.019   2.018   1.105
 1714SOL     OW 5169   2.720   4.969   4.241
 1714SOL    HW1 5170   2.762   0.009   4.190
 1714SOL    HW2 5171   2.689   4.899   4.176
 1715SOL     OW 5172   4.562   4.436   1.064
 1715SOL    HW1 5173   4.552   4.456   0.967
 1715SOL    HW2 5174   4.597   4.343   1.075
 1716SOL     OW 5175   3.078   0.725   4.666
 1716SOL    HW1 5176   3.122   0.675   4.741
 1716SOL    HW2 5177   3.045   0.660   4.597
 1717SOL     OW 5178   4.502   4.284   2.257
 1717SOL    HW1 5179   4.585   4.299   2.310
 1717SOL    HW2 5180   4.450   4.369   2.252
 1718SOL     OW 5181   4.445   1.830   1.750
 1718SOL    HW1 5182   4.380   1.821   1.674
 1718SOL    HW2 5183   4.410   1.782   1.830
 1719SOL     OW 5184   1.131   3.003   1.329
 1719SOL    HW1 5185   1.063   3.065   1.290
 1719SOL    HW2 5186   1.085   2.934   1.385
 1720SOL     OW 5187   2.867   0.578   2.888
 1720SOL    HW1 5188   2.770   0.568   2.910
 1720SOL    HW2 5189   2.880   0.656   2.827
 1721SOL     OW 5190   2.594   2.160   0.440
 1721SOL    HW1 5191   2.566   2.154   0.344
 1721SOL    HW2 5192   2.691   2.184   0.446
 1722SOL     OW 5193   2.935   2.553   3.301
 1722SOL    HW1 5194   2.889   2.591   3.381
 1722SOL    HW2 5195   2.867   2.523   3.235
 1723SOL     OW 5196   1.692   4.779   4.043
 1723SOL    HW1 5197   1.731   4.843   4.109
 1723SOL    HW2 5198   1.734   4.792   3.954
 1724SOL     OW 5199   2.825   3.761   0.313
 1724SOL    HW1 5200   2.880   3.782   0.394
 1724SOL    HW2 5201   2.849   3.824   0.239
 1725SOL     OW 5202   2.617   0.569   2.348
 1725SOL    HW1 5203   2.530   0.594   2.307
 1725SOL    HW2 5204   2.608   0.482   2.396
 1726SOL     OW 5205   3.863   2.009   1.948
 1726SOL    HW1 5206   3.772   2.045   1.966
 1726SOL    HW2 5207   3.888   2.026   1.853
 1727SOL     OW 5208   0.594   1.172   3.106
 1727SOL    HW1 5209   0.541   1.247   3.066
 1727SOL    HW2 5210   0.652   1.208   3.179
 1728SOL     OW 5211   4.355   4.424   4.758
 1728SOL    HW1 5212   4.278   4.477   4.793
 1728SOL    HW2 5213   4.390   4.466   4.674
 1729SOL     OW 5214   0.879   3.269   1.545
 1729SOL    HW1 5215   0.975   3.299   1.542
 1729SOL    HW2 5216   0.833   3.296   1.461
 1730SOL     OW 5217   0.927   3.468   3.990
 1730SOL    HW1 5218   0.834   3.494   3.965
 1730SOL    HW2 5219   0.974   3.432   3.909
 1731SOL     OW 5220   2.639   0.389   3.272
 1731SOL    HW1 5221   2.696   0.471   3.282
 1731SOL    HW2 5222   2.697   0.308   3.283
 1732SOL     OW 5223   4.236   0.908   0.920
 1732SOL    HW1 5224   4.232   0.846   0.999
 1732SOL    HW2 5225   4.153   0.897   0.866
 1733SOL     OW 5226   0.165   4.358   0.047
 1733SOL    HW1 5227   0.076   4.323   0.079
 1733SOL    HW2 5228   0.218   4.391   0.125
 1734SOL     OW 5229   1.643   1.202   3.376
 1734SOL    HW1 5230   1.594   1.215   3.290
 1734SOL    HW2 5231   1.737   1.175   3.356
 1735SOL     OW 5232   2.123   4.258   2.562
 1735SOL    HW1 5233   2.133   4.269   2.661
 1735SOL    HW2 5234   2.142   4.345   2.516
 1736SOL     OW 5235   4.604   1.592   2.907
 1736SOL    HW1 5236   4.556   1.505   2.897
 1736SOL    HW2 5237   4.631   1.604   3.002
 1737SOL     OW 5238   0.872   1.677   2.015
 1737SOL    HW1 5239   0.937   1.752   2.001
 1737SOL    HW2 5240   0.832   1.684   2.106
 1738SOL     OW 5241   1.488   4.329   2.348
 1738SOL    HW1 5242   1.538   4.258   2.399
 1738SOL    HW2 5243   1.410   4.360   2.403
 1739SOL     OW 5244   1.612   3.488   1.117
 1739SOL    HW1 5245   1.577   3.483   1.024
 1739SOL    HW2 5246   1.669   3.570   1.127
 1740SOL     OW 5247   4.902   0.098   4.207
 1740SOL    HW1 5248   4.858   0.182   4.177
 1740SOL    HW2 5249   4.899   0.031   4.133
 1741SOL     OW 5250   0.947   0.985   1.029
 1741SOL    HW1 5251   0.870   0.921   1.031
 1741SOL    HW2 5252   1.020   0.951   1.088
 1742SOL     OW 5253   2.012   2.171   4.950
 1742SOL    HW1 5254   2.009   2.166   4.850
 1742SOL    HW2 5255   2.099   2.209   4.979
 1743SOL     OW 5256   1.258   2.301   2.897
 1743SOL    HW1 5257   1.233   2.361   2.821
 1743SOL    HW2 5258   1.177   2.253   2.930
 1744SOL     OW 5259   3.972   4.653   4.309
 1744SOL    HW1 5260   4.026   4.588   4.362
 1744SOL    HW2 5261   3.876   4.625   4.311
 1745SOL     OW 5262   2.168   3.153   1.801
 1745SOL    HW1 5263   2.197   3.057   1.799
 1745SOL    HW2 5264   2.073   3.160   1.771
 1746SOL     OW 5265   1.025   0.466   3.081
 1746SOL    HW1 5266   0.995   0.379   3.119
 1746SOL    HW2 5267   1.099   0.451   3.016
 1747SOL     OW 5268   1.072   4.113   3.326
 1747SOL    HW1 5269   1.029   4.028   3.358
 1747SOL    HW2 5270   1.005   4.186   3.323
 1748SOL     OW 5271   4.607   0.891   0.202
 1748SOL    HW1 5272   4.658   0.968   0.239
 1748SOL    HW2 5273   4.515   0.889   0.241
 1749SOL     OW 5274   3.549   3.125   0.118
 1749SOL    HW1 5275   3.635   3.156   0.076
 1749SOL    HW2 5276   3.569   3.083   0.206
 1750SOL     OW 5277   0.058   4.101   1.951
 1750SOL    HW1 5278   0.017   4.013   1.973
 1750SOL    HW2 5279   0.145   4.110   2.000
 1751SOL     OW 5280   4.300   4.786   2.399
 1751SOL    HW1 5281   4.321   4.829   2.487
 1751SOL    HW2 5282   4.201   4.781   2.388
 1752SOL     OW 5283   2.784   1.517   0.713
 1752SOL    HW1 5284   2.859   1.551   0.771
 1752SOL    HW2 5285   2.701   1.568   0.733
 1753SOL     OW 5286   1.456   3.514   3.279
 1753SOL    HW1 5287   1.482   3.444   3.212
 1753SOL    HW2 5288   1.491   3.487   3.369
 1754SOL     OW 5289   2.114   2.940   3.800
 1754SOL    HW1 5290   2.022   2.974   3.816
 1754SOL    HW2 5291   2.110   2.849   3.759
 1755SOL     OW 5292   2.575   1.628   3.172
 1755SOL    HW1 5293   2.514   1.607   3.248
 1755SOL    HW2 5294   2.613   1.720   3.183
 1756SOL     OW 5295   1.213   0.658   2.481
 1756SOL    HW1 5296   1.196   0.741   2.427
 1756SOL    HW2 5297   1.178   0.578   2.431
 1757SOL     OW 5298   1.683   0.148   4.950
 1757SOL    HW1 5299   1.628   0.065   4.942
 1757SOL    HW2 5300   1.703   0.184   4.859
 1758SOL     OW 5301   0.078   4.901   3.439
 1758SOL    HW1 5302   5.018   4.882   3.414
 1758SOL    HW2 5303   0.101   4.854   3.524
 1759SOL     OW 5304   3.812   4.067   1.736
 1759SOL    HW1 5305   3.723   4.021   1.734
 1759SOL    HW2 5306   3.870   4.029   1.664
 1760SOL     OW 5307   3.989   5.007   4.313
 1760SOL    HW1 5308   3.938   0.028   4.249
 1760SOL    HW2 5309   3.989   0.015   4.403
 1761SOL     OW 5310   1.647   0.571   1.875
 1761SOL    HW1 5311   1.734   0.583   1.923
 1761SOL    HW2 5312   1.664   0.568   1.777
 1762SOL     OW 5313   1.942   4.185   1.593
 1762SOL    HW1 5314   2.021   4.245   1.583
 1762SOL    HW2 5315   1.971   4.090   1.578
 1763SOL     OW 5316   3.480   1.766   4.614
 1763SOL    HW1 5317   3.454   1.771   4.518
 1763SOL    HW2 5318   3.483   1.858   4.654
 1764SOL     OW 5319   3.114   0.677   0.530
 1764SOL    HW1 5320   3.129   0.760   0.475
 1764SOL    HW2 5321   3.195   0.619   0.526
 1765SOL     OW 5322   2.174   2.572   4.347
 1765SOL    HW1 5323   2.178   2.475   4.373
 1765SOL    HW2 5324   2.247   2.591   4.281
 1766SOL     OW 5325   3.628   0.948   3.600
 1766SOL    HW1 5326   3.631   0.917   3.505
 1766SOL    HW2 5327   3.674   1.036   3.608
 1767SOL     OW 5328   3.813   3.760   1.799
 1767SOL    HW1 5329   3.764   3.673   1.800
 1767SOL    HW2 5330   3.904   3.746   1.840
 1768SOL     OW 5331   2.063   3.862   3.439
 1768SOL    HW1 5332   2.104   3.791   3.382
 1768SOL    HW2 5333   1.987   3.823   3.492
 1769SOL     OW 5334   0.991   3.728   0.688
 1769SOL    HW1 5335   0.924   3.783   0.739
 1769SOL    HW2 5336   0.970   3.631   0.699
 1770SOL     OW 5337   2.360   2.539   4.145
 1770SOL    HW1 5338   2.295   2.469   4.115
 1770SOL    HW2 5339   2.351   2.619   4.086
 1771SOL     OW 5340   2.049   3.878   4.295
 1771SOL    HW1 5341   2.120   3.942   4.325
 1771SOL    HW2 5342   1.961   3.925   4.289
 1772SOL     OW 5343   0.317   1.245   3.265
 1772SOL    HW1 5344   0.360   1.329   3.297
 1772SOL    HW2 5345   0.368   1.166   3.299
 1773SOL     OW 5346   2.388   2.906   2.026
 1773SOL    HW1 5347   2.441   2.976   1.978
 1773SOL    HW2 5348   2.308   2.949   2.069
 1774SOL     OW 5349   2.681   0.154   2.966
 1774SOL    HW1 5350   2.703   0.057   2.952
 1774SOL    HW2 5351   2.616   0.162   3.042
 1775SOL     OW 5352   2.488   1.300   4.735
 1775SOL    HW1 5353   2.568   1.241   4.733
 1775SOL    HW2 5354   2.451   1.310   4.643
 1776SOL     OW 5355   3.242   1.152   3.042
 1776SOL    HW1 5356   3.202   1.136   3.132
 1776SOL    HW2 5357   3.318   1.089   3.028
 1777SOL     OW 5358   1.481   4.063   1.816
 1777SOL    HW1 5359   1.424   4.031   1.740
 1777SOL    HW2 5360   1.434   4.043   1.902
 1778SOL     OW 5361   4.421   2.982   3.759
 1778SOL    HW1 5362   4.404   3.027   3.846
 1778SOL    HW2 5363   4.441   2.885   3.775
 1779SOL     OW 5364   1.261   1.158   3.306
 1779SOL    HW1 5365   1.198   1.191   3.236
 1779SOL    HW2 5366   1.352   1.149   3.268
 1780SOL     OW 5367   3.953   3.973   3.100
 1780SOL    HW1 5368   3.927   4.050   3.043
 1780SOL    HW2 5369   3.871   3.934   3.142
 1781SOL     OW 5370   4.643   0.749   4.490
 1781SOL    HW1 5371   4.593   0.738   4.575
 1781SOL    HW2 5372   4.670   0.660   4.454
 1782SOL     OW 5373   2.262   2.955   4.310
 1782SOL    HW1 5374   2.197   2.971   4.236
 1782SOL    HW2 5375   2.227   2.994   4.395
 1783SOL     OW 5376   1.879   3.491   0.971
 1783SOL    HW1 5377   1.923   3.536   1.048
 1783SOL    HW2 5378   1.894   3.392   0.977
 1784SOL     OW 5379   1.659   1.483   4.180
 1784SOL    HW1 5380   1.747   1.497   4.225
 1784SOL    HW2 5381   1.618   1.398   4.213
 1785SOL     OW 5382   3.062   0.323   0.438
 1785SOL    HW1 5383   3.060   0.223   0.446
 1785SOL    HW2 5384   3.148   0.358   0.477
 1786SOL     OW 5385   3.666   3.929   4.820
 1786SOL    HW1 5386   3.678   3.866   4.743
 1786SOL    HW2 5387   3.595   3.894   4.881
 1787SOL     OW 5388   1.740   2.265   3.639
 1787SOL    HW1 5389   1.652   2.299   3.672
 1787SOL    HW2 5390   1.726   2.195   3.569
 1788SOL     OW 5391   0.076   2.680   3.420
 1788SOL    HW1 5392   0.120   2.769   3.420
 1788SOL    HW2 5393   5.026   2.685   3.367
 1789SOL     OW 5394   3.246   4.943   3.352
 1789SOL    HW1 5395   3.215   4.869   3.292
 1789SOL    HW2 5396   3.270   4.905   3.442
 1790SOL     OW 5397   4.757   4.973   1.568
 1790SOL    HW1 5398   4.689   4.918   1.520
 1790SOL    HW2 5399   4.825   5.007   1.503
 1791SOL     OW 5400   2.350   2.581   4.981
 1791SOL    HW1 5401   2.391   2.495   5.010
 1791SOL    HW2 5402   2.271   2.563   4.922
 1792SOL     OW 5403   4.413   3.938   0.245
 1792SOL    HW1 5404   4.373   3.883   0.172
 1792SOL    HW2 5405   4.490   3.991   0.208
 1793SOL     OW 5406   1.957   4.636   3.930
 1793SOL    HW1 5407   1.973   4.685   4.016
 1793SOL    HW2 5408   1.889   4.565   3.944
 1794SOL     OW 5409   0.529   3.067   0.623
 1794SOL    HW1 5410   0.539   3.030   0.715
 1794SOL    HW2 5411   0.467   3.009   0.570
 1795SOL     OW 5412   3.822   1.869   0.424
 1795SOL    HW1 5413   3.763   1.857   0.504
 1795SOL    HW2 5414   3.766   1.895   0.345
 1796SOL     OW 5415   4.316   0.032   3.471
 1796SOL    HW1 5416   4.405   0.006   3.435
 1796SOL    HW2 5417   4.248   4.997   3.447
 1797SOL     OW 5418   4.295   2.185   1.195
 1797SOL    HW1 5419   4.281   2.118   1.122
 1797SOL    HW2 5420   4.207   2.205   1.238
 1798SOL     OW 5421   3.530   3.585   2.905
 1798SOL    HW1 5422   3.591   3.533   2.845
 1798SOL    HW2 5423   3.455   3.526   2.935
 1799SOL     OW 5424   0.111   1.421   3.998
 1799SOL    HW1 5425   0.178   1.492   4.020
 1799SOL    HW2 5426   0.154   1.352   3.939
 1800SOL     OW 5427   3.526   1.972   1.478
 1800SOL    HW1 5428   3.623   1.950   1.467
 1800SOL    HW2 5429   3.494   2.023   1.397
 1801SOL     OW 5430   1.403   1.601   3.623
 1801SOL    HW1 5431   1.360   1.540   3.690
 1801SOL    HW2 5432   1.494   1.565   3.599
 1802SOL     OW 5433   4.819   3.332   3.835
 1802SOL    HW1 5434   4.844   3.426   3.858
 1802SOL    HW2 5435   4.791   3.284   3.918
 1803SOL     OW 5436   1.823   2.552   4.092
 1803SOL    HW1 5437   1.736   2.596   4.069
 1803SOL    HW2 5438   1.806   2.456   4.115
 1804SOL     OW 5439   1.746   1.545   1.224
 1804SOL    HW1 5440   1.718   1.639   1.205
 1804SOL    HW2 5441   1.666   1.488   1.241
 1805SOL     OW 5442   3.245   3.763   4.747
 1805SOL    HW1 5443   3.216   3.669   4.766
 1805SOL    HW2 5444   3.217   3.822   4.822
 1806SOL     OW 5445   0.821   2.558   2.843
 1806SOL    HW1 5446   0.747   2.580   2.907
 1806SOL    HW2 5447   0.784   2.504   2.767
 1807SOL     OW 5448   3.046   1.906   2.100
 1807SOL    HW1 5449   2.981   1.838   2.066
 1807SOL    HW2 5450   3.042   1.909   2.200
 1808SOL     OW 5451   3.885   2.292   2.094
 1808SOL    HW1 5452   3.893   2.292   1.994
 1808SOL    HW2 5453   3.950   2.226   2.132
 1809SOL     OW 5454   1.419   4.617   3.389
 1809SOL    HW1 5455   1.397   4.602   3.292
 1809SOL    HW2 5456   1.490   4.553   3.417
 1810SOL     OW 5457   1.761   2.355   0.277
 1810SOL    HW1 5458   1.857   2.376   0.257
 1810SOL    HW2 5459   1.702   2.415   0.223
 1811SOL     OW 5460   1.123   0.900   3.377
 1811SOL    HW1 5461   1.164   0.990   3.386
 1811SOL    HW2 5462   1.100   0.864   3.467
 1812SOL     OW 5463   1.557   2.967   3.259
 1812SOL    HW1 5464   1.476   2.909   3.263
 1812SOL    HW2 5465   1.530   3.060   3.234
 1813SOL     OW 5466   1.356   0.597   3.705
 1813SOL    HW1 5467   1.350   0.696   3.696
 1813SOL    HW2 5468   1.451   0.568   3.697
 1814SOL     OW 5469   4.778   3.116   4.485
 1814SOL    HW1 5470   4.841   3.038   4.491
 1814SOL    HW2 5471   4.712   3.111   4.560
 1815SOL     OW 5472   1.997   0.981   1.500
 1815SOL    HW1 5473   1.936   0.905   1.477
 1815SOL    HW2 5474   2.002   0.991   1.599
 1816SOL     OW 5475   4.830   1.588   2.343
 1816SOL    HW1 5476   4.777   1.642   2.409
 1816SOL    HW2 5477   4.787   1.595   2.253
 1817SOL     OW 5478   3.174   2.576   4.458
 1817SOL    HW1 5479   3.080   2.576   4.492
 1817SOL    HW2 5480   3.174   2.564   4.359
 1818SOL     OW 5481   1.805   1.233   2.357
 1818SOL    HW1 5482   1.872   1.292   2.313
 1818SOL    HW2 5483   1.844   1.195   2.441
 1819SOL     OW 5484   2.351   3.421   4.568
 1819SOL    HW1 5485   2.447   3.396   4.578
 1819SOL    HW2 5486   2.339   3.518   4.588
 1820SOL     OW 5487   2.329   4.063   4.946
 1820SOL    HW1 5488   2.318   4.022   0.001
 1820SOL    HW2 5489   2.266   4.020   4.882
 1821SOL     OW 5490   1.629   1.402   3.884
 1821SOL    HW1 5491   1.539   1.412   3.926
 1821SOL    HW2 5492   1.641   1.308   3.851
 1822SOL     OW 5493   3.180   2.883   4.174
 1822SOL    HW1 5494   3.110   2.922   4.234
 1822SOL    HW2 5495   3.202   2.949   4.102
 1823SOL     OW 5496   0.950   2.097   4.876
 1823SOL    HW1 5497   0.990   2.161   4.941
 1823SOL    HW2 5498   0.879   2.143   4.823
 1824SOL     OW 5499   4.810   4.114   0.697
 1824SOL    HW1 5500   4.886   4.062   0.736
 1824SOL    HW2 5501   4.822   4.123   0.598
 1825SOL     OW 5502   2.855   1.271   3.661
 1825SOL    HW1 5503   2.902   1.275   3.750
 1825SOL    HW2 5504   2.807   1.183   3.653
 1826SOL     OW 5505   3.700   0.381   2.163
 1826SOL    HW1 5506   3.644   0.320   2.108
 1826SOL    HW2 5507   3.655   0.470   2.170
 1827SOL     OW 5508   0.087   2.480   0.414
 1827SOL    HW1 5509   0.144   2.457   0.493
 1827SOL    HW2 5510   0.028   2.558   0.437
 1828SOL     OW 5511   3.630   1.954   1.774
 1828SOL    HW1 5512   3.631   1.945   1.674
 1828SOL    HW2 5513   3.668   1.871   1.815
 1829SOL     OW 5514   3.619   1.849   2.919
 1829SOL    HW1 5515   3.581   1.766   2.878
 1829SOL    HW2 5516   3.568   1.872   3.001
 1830SOL     OW 5517   1.596   4.407   3.462
 1830SOL    HW1 5518   1.650   4.425   3.545
 1830SOL    HW2 5519   1.531   4.333   3.481
 1831SOL     OW 5520   1.574   2.455   4.589
 1831SOL    HW1 5521   1.631   2.466   4.507
 1831SOL    HW2 5522   1.631   2.462   4.671
 1832SOL     OW 5523   2.185   0.684   0.008
 1832SOL    HW1 5524   2.164   0.603   0.062
 1832SOL    HW2 5525   2.136   0.763   0.047
 1833SOL     OW 5526   1.401   4.241   2.105
 1833SOL    HW1 5527   1.433   4.269   2.195
 1833SOL    HW2 5528   1.467   4.270   2.035
 1834SOL     OW 5529   4.322   2.812   3.352
 1834SOL    HW1 5530   4.395   2.810   3.420
 1834SOL    HW2 5531   4.264   2.732   3.362
 1835SOL     OW 5532   0.079   0.156   0.612
 1835SOL    HW1 5533   0.056   0.170   0.516
 1835SOL    HW2 5534   5.034   0.124   0.661
 1836SOL     OW 5535   3.826   3.044   1.011
 1836SOL    HW1 5536   3.858   3.109   1.079
 1836SOL    HW2 5537   3.763   2.979   1.053
 1837SOL     OW 5538   2.863   1.022   0.318
 1837SOL    HW1 5539   2.958   0.997   0.335
 1837SOL    HW2 5540   2.853   1.057   0.225
 1838SOL     OW 5541   1.721   1.551   0.293
 1838SOL    HW1 5542   1.743   1.637   0.339
 1838SOL    HW2 5543   1.641   1.510   0.337
 1839SOL     OW 5544   4.277   3.605   0.307
 1839SOL    HW1 5545   4.364   3.585   0.352
 1839SOL    HW2 5546   4.218   3.524   0.312
 1840SOL     OW 5547   2.287   3.919   0.899
 1840SOL    HW1 5548   2.272   3.970   0.814
 1840SOL    HW2 5549   2.233   3.959   0.972
 1841SOL     OW 5550   4.451   1.884   4.560
 1841SOL    HW1 5551   4.351   1.892   4.566
 1841SOL    HW2 5552   4.475   1.829   4.480
 1842SOL     OW 5553   3.686   3.520   1.825
 1842SOL    HW1 5554   3.671   3.437   1.879
 1842SOL    HW2 5555   3.601   3.545   1.779
 1843SOL     OW 5556   4.956   1.153   4.448
 1843SOL    HW1 5557   4.861   1.124   4.456
 1843SOL    HW2 5558   5.017   1.080   4.479
 1844SOL     OW 5559   3.843   2.996   0.105
 1844SOL    HW1 5560   3.843   3.085   0.059
 1844SOL    HW2 5561   3.861   2.924   0.038
 1845SOL     OW 5562   1.345   1.911   3.191
 1845SOL    HW1 5563   1.258   1.919   3.142
 1845SOL    HW2 5564   1.394   1.829   3.159
 1846SOL     OW 5565   4.734   1.903   3.165
 1846SOL    HW1 5566   4.681   1.985   3.142
 1846SOL    HW2 5567   4.686   1.822   3.133
 1847SOL     OW 5568   0.114   0.741   1.370
 1847SOL    HW1 5569   0.214   0.741   1.378
 1847SOL    HW2 5570   0.087   0.783   1.283
 1848SOL     OW 5571   4.423   3.059   1.754
 1848SOL    HW1 5572   4.424   3.098   1.662
 1848SOL    HW2 5573   4.511   3.073   1.798
 1849SOL     OW 5574   0.404   3.953   2.244
 1849SOL    HW1 5575   0.458   3.910   2.316
 1849SOL    HW2 5576   0.449   3.940   2.156
 1850SOL     OW 5577   2.354   1.445   4.526
 1850SOL    HW1 5578   2.356   1.477   4.621
 1850SOL    HW2 5579   2.433   1.481   4.477
 1851SOL     OW 5580   2.158   3.945   1.831
 1851SOL    HW1 5581   2.145   3.906   1.740
 1851SOL    HW2 5582   2.225   3.891   1.881
 1852SOL     OW 5583   3.556   0.538   4.988
 1852SOL    HW1 5584   3.600   0.454   5.021
 1852SOL    HW2 5585   3.457   0.529   4.997
 1853SOL     OW 5586   3.606   4.962   2.905
 1853SOL    HW1 5587   3.592   4.888   2.972
 1853SOL    HW2 5588   3.703   4.988   2.905
 1854SOL     OW 5589   4.334   0.511   3.743
 1854SOL    HW1 5590   4.365   0.444   3.811
 1854SOL    HW2 5591   4.332   0.468   3.653
 1855SOL     OW 5592   3.575   2.266   1.694
 1855SOL    HW1 5593   3.490   2.259   1.745
 1855SOL    HW2 5594   3.600   2.175   1.659
 1856SOL     OW 5595   3.004   3.801   3.761
 1856SOL    HW1 5596   2.976   3.730   3.827
 1856SOL    HW2 5597   3.096   3.833   3.785
 1857SOL     OW 5598   2.695   4.793   1.831
 1857SOL    HW1 5599   2.632   4.715   1.828
 1857SOL    HW2 5600   2.685   4.841   1.918
 1858SOL     OW 5601   4.350   0.268   0.880
 1858SOL    HW1 5602   4.272   0.222   0.922
 1858SOL    HW2 5603   4.339   0.267   0.780
 1859SOL     OW 5604   3.976   3.456   2.727
 1859SOL    HW1 5605   3.884   3.471   2.764
 1859SOL    HW2 5606   3.987   3.512   2.645
 1860SOL     OW 5607   3.411   4.103   1.789
 1860SOL    HW1 5608   3.325   4.145   1.762
 1860SOL    HW2 5609   3.393   4.025   1.849
 1861SOL     OW 5610   4.881   4.524   2.014
 1861SOL    HW1 5611   4.934   4.566   2.088
 1861SOL    HW2 5612   4.880   4.425   2.025
 1862SOL     OW 5613   2.505   3.374   1.297
 1862SOL    HW1 5614   2.555   3.291   1.321
 1862SOL    HW2 5615   2.436   3.392   1.368
 1863SOL     OW 5616   4.690   3.730   1.391
 1863SOL    HW1 5617   4.738   3.743   1.478
 1863SOL    HW2 5618   4.748   3.761   1.316
 1864SOL     OW 5619   0.477   0.680   4.178
 1864SOL    HW1 5620   0.541   0.756   4.190
 1864SOL    HW2 5621   0.445   0.650   4.268
 1865SOL     OW 5622   4.188   1.170   1.000
 1865SOL    HW1 5623   4.097   1.149   1.036
 1865SOL    HW2 5624   4.228   1.087   0.961
 1866SOL     OW 5625   3.693   2.610   1.657
 1866SOL    HW1 5626   3.641   2.556   1.723
 1866SOL    HW2 5627   3.631   2.660   1.598
 1867SOL     OW 5628   0.561   0.654   0.884
 1867SOL    HW1 5629   0.559   0.709   0.801
 1867SOL    HW2 5630   0.480   0.595   0.888
 1868SOL     OW 5631   2.601   4.193   0.745
 1868SOL    HW1 5632   2.664   4.185   0.667
 1868SOL    HW2 5633   2.523   4.250   0.719
 1869SOL     OW 5634   4.078   2.896   1.747
 1869SOL    HW1 5635   4.004   2.831   1.766
 1869SOL    HW2 5636   4.150   2.850   1.695
 1870SOL     OW 5637   0.092   3.667   0.598
 1870SOL    HW1 5638   0.100   3.590   0.535
 1870SOL    HW2 5639   0.182   3.686   0.639
 1871SOL     OW 5640   1.413   2.521   1.933
 1871SOL    HW1 5641   1.462   2.547   2.015
 1871SOL    HW2 5642   1.337   2.584   1.917
 1872SOL     OW 5643   1.330   0.895   0.124
 1872SOL    HW1 5644   1.392   0.899   0.046
 1872SOL    HW2 5645   1.367   0.949   0.199
 1873SOL     OW 5646   0.764   4.759   2.422
 1873SOL    HW1 5647   0.781   4.662   2.403
 1873SOL    HW2 5648   0.681   4.788   2.375
 1874SOL     OW 5649   4.237   1.276   4.741
 1874SOL    HW1 5650   4.285   1.210   4.684
 1874SOL    HW2 5651   4.302   1.321   4.802
 1875SOL     OW 5652   1.275   1.714   1.735
 1875SOL    HW1 5653   1.186   1.757   1.751
 1875SOL    HW2 5654   1.271   1.618   1.762
 1876SOL     OW 5655   3.299   2.037   0.323
 1876SOL    HW1 5656   3.383   2.020   0.374
 1876SOL    HW2 5657   3.315   2.021   0.225
 1877SOL     OW 5658   4.329   4.488   0.296
 1877SOL    HW1 5659   4.302   4.583   0.279
 1877SOL    HW2 5660   4.273   4.450   0.370
 1878SOL     OW 5661   2.606   4.363   2.500
 1878SOL    HW1 5662   2.704   4.381   2.501
 1878SOL    HW2 5663   2.560   4.432   2.444
 1879SOL     OW 5664   3.340   3.935   1.515
 1879SOL    HW1 5665   3.284   3.987   1.451
 1879SOL    HW2 5666   3.436   3.956   1.501
 1880SOL     OW 5667   2.983   3.702   4.107
 1880SOL    HW1 5668   3.018   3.765   4.176
 1880SOL    HW2 5669   3.059   3.666   4.053
 1881SOL     OW 5670   4.334   2.161   1.646
 1881SOL    HW1 5671   4.363   2.110   1.566
 1881SOL    HW2 5672   4.367   2.115   1.729
 1882SOL     OW 5673   3.622   2.231   0.423
 1882SOL    HW1 5674   3.581   2.231   0.332
 1882SOL    HW2 5675   3.616   2.140   0.463
 1883SOL     OW 5676   0.362   1.683   2.235
 1883SOL    HW1 5677   0.335   1.699   2.330
 1883SOL    HW2 5678   0.367   1.585   2.218
 1884SOL     OW 5679   1.500   3.169   2.904
 1884SOL    HW1 5680   1.537   3.080   2.931
 1884SOL    HW2 5681   1.548   3.201   2.822
 1885SOL     OW 5682   2.440   4.680   3.015
 1885SOL    HW1 5683   2.516   4.631   3.057
 1885SOL    HW2 5684   2.396   4.739   3.083
 1886SOL     OW 5685   4.152   1.317   0.189
 1886SOL    HW1 5686   4.138   1.399   0.244
 1886SOL    HW2 5687   4.106   1.328   0.101
 1887SOL     OW 5688   1.346   4.348   3.609
 1887SOL    HW1 5689   1.309   4.441   3.608
 1887SOL    HW2 5690   1.382   4.328   3.700
 1888SOL     OW 5691   0.433   2.857   2.915
 1888SOL    HW1 5692   0.349   2.906   2.939
 1888SOL    HW2 5693   0.426   2.822   2.822
 1889SOL     OW 5694   1.820   3.704   1.807
 1889SOL    HW1 5695   1.726   3.674   1.822
 1889SOL    HW2 5696   1.849   3.762   1.883
 1890SOL     OW 5697   0.546   2.089   4.292
 1890SOL    HW1 5698   0.618   2.054   4.233
 1890SOL    HW2 5699   0.457   2.063   4.255
 1891SOL     OW 5700   3.721   0.533   1.666
 1891SOL    HW1 5701   3.740   0.554   1.762
 1891SOL    HW2 5702   3.683   0.441   1.658
 1892SOL     OW 5703   1.201   0.544   2.760
 1892SOL    HW1 5704   1.147   0.460   2.762
 1892SOL    HW2 5705   1.202   0.581   2.667
 1893SOL     OW 5706   4.691   1.875   4.014
 1893SOL    HW1 5707   4.641   1.908   4.094
 1893SOL    HW2 5708   4.642   1.798   3.973
 1894SOL     OW 5709   0.191   3.560   4.139
 1894SOL    HW1 5710   0.236   3.606   4.063
 1894SOL    HW2 5711   0.125   3.623   4.181
 1895SOL     OW 5712   4.485   4.223   3.965
 1895SOL    HW1 5713   4.455   4.131   3.939
 1895SOL    HW2 5714   4.535   4.219   4.051
 1896SOL     OW 5715   2.484   1.967   4.193
 1896SOL    HW1 5716   2.550   1.997   4.262
 1896SOL    HW2 5717   2.525   1.970   4.103
 1897SOL     OW 5718   3.878   2.509   3.194
 1897SOL    HW1 5719   3.850   2.466   3.280
 1897SOL    HW2 5720   3.801   2.506   3.129
 1898SOL     OW 5721   4.295   3.741   2.021
 1898SOL    HW1 5722   4.201   3.760   2.049
 1898SOL    HW2 5723   4.319   3.799   1.943
 1899SOL     OW 5724   2.109   1.005   2.874
 1899SOL    HW1 5725   2.189   0.955   2.908
 1899SOL    HW2 5726   2.039   1.010   2.946
 1900SOL     OW 5727   2.492   0.542   3.452
 1900SOL    HW1 5728   2.514   0.484   3.374
 1900SOL    HW2 5729   2.573   0.594   3.479
 1901SOL     OW 5730   3.991   3.898   3.874
 1901SOL    HW1 5731   3.916   3.856   3.823
 1901SOL    HW2 5732   4.053   3.943   3.810
 1902SOL     OW 5733   1.645   0.094   4.000
 1902SOL    HW1 5734   1.720   0.126   4.058
 1902SOL    HW2 5735   1.657   5.032   3.980
 1903SOL     OW 5736   4.466   2.617   4.847
 1903SOL    HW1 5737   4.537   2.624   4.917
 1903SOL    HW2 5738   4.457   2.522   4.818
 1904SOL     OW 5739   2.955   1.807   1.567
 1904SOL    HW1 5740   2.989   1.900   1.579
 1904SOL    HW2 5741   2.943   1.764   1.656
 1905SOL     OW 5742   3.123   2.258   0.770
 1905SOL    HW1 5743   3.128   2.175   0.714
 1905SOL    HW2 5744   3.085   2.332   0.715
 1906SOL     OW 5745   4.023   2.017   1.637
 1906SOL    HW1 5746   4.085   1.950   1.678
 1906SOL    HW2 5747   4.072   2.066   1.564
 1907SOL     OW 5748   4.318   4.824   4.021
 1907SOL    HW1 5749   4.285   4.916   4.041
 1907SOL    HW2 5750   4.308   4.767   4.103
 1908SOL     OW 5751   2.752   1.391   4.931
 1908SOL    HW1 5752   2.824   1.453   4.899
 1908SOL    HW2 5753   2.665   1.441   4.934
 1909SOL     OW 5754   0.695   3.450   3.650
 1909SOL    HW1 5755   0.777   3.452   3.706
 1909SOL    HW2 5756   0.683   3.538   3.604
 1910SOL     OW 5757   0.416   2.319   1.087
 1910SOL    HW1 5758   0.345   2.274   1.141
 1910SOL    HW2 5759   0.505   2.305   1.129
 1911SOL     OW 5760   1.589   3.206   4.600
 1911SOL    HW1 5761   1.615   3.127   4.545
 1911SOL    HW2 5762   1.490   3.213   4.604
 1912SOL     OW 5763   1.043   2.265   1.290
 1912SOL    HW1 5764   1.109   2.335   1.261
 1912SOL    HW2 5765   1.088   2.198   1.348
 1913SOL     OW 5766   4.705   4.131   3.322
 1913SOL    HW1 5767   4.661   4.105   3.236
 1913SOL    HW2 5768   4.803   4.141   3.308
 1914SOL     OW 5769   0.357   4.683   3.134
 1914SOL    HW1 5770   0.441   4.694   3.081
 1914SOL    HW2 5771   0.321   4.772   3.160
 1915SOL     OW 5772   3.614   4.746   1.663
 1915SOL    HW1 5773   3.650   4.654   1.648
 1915SOL    HW2 5774   3.554   4.745   1.743
 1916SOL     OW 5775   0.948   0.288   1.083
 1916SOL    HW1 5776   1.005   0.297   1.165
 1916SOL    HW2 5777   1.001   0.315   1.003
 1917SOL     OW 5778   2.694   2.780   1.644
 1917SOL    HW1 5779   2.792   2.765   1.628
 1917SOL    HW2 5780   2.683   2.831   1.730
 1918SOL     OW 5781   4.811   1.582   1.477
 1918SOL    HW1 5782   4.719   1.583   1.516
 1918SOL    HW2 5783   4.828   1.495   1.432
 1919SOL     OW 5784   3.428   2.941   1.824
 1919SOL    HW1 5785   3.438   3.010   1.896
 1919SOL    HW2 5786   3.504   2.950   1.760
 1920SOL     OW 5787   0.705   4.242   1.199
 1920SOL    HW1 5788   0.785   4.262   1.141
 1920SOL    HW2 5789   0.680   4.146   1.189
 1921SOL     OW 5790   3.754   2.813   3.963
 1921SOL    HW1 5791   3.811   2.765   3.896
 1921SOL    HW2 5792   3.702   2.746   4.016
 1922SOL     OW 5793   3.968   2.040   4.534
 1922SOL    HW1 5794   3.907   2.110   4.570
 1922SOL    HW2 5795   3.939   2.015   4.442
 1923SOL     OW 5796   3.281   0.691   0.905
 1923SOL    HW1 5797   3.355   0.653   0.960
 1923SOL    HW2 5798   3.227   0.754   0.960
 1924SOL     OW 5799   3.331   4.764   1.568
 1924SOL    HW1 5800   3.311   4.787   1.473
 1924SOL    HW2 5801   3.397   4.830   1.605
 1925SOL     OW 5802   0.357   4.189   0.414
 1925SOL    HW1 5803   0.389   4.113   0.358
 1925SOL    HW2 5804   0.432   4.223   0.471
 1926SOL     OW 5805   1.514   2.750   3.001
 1926SOL    HW1 5806   1.509   2.660   3.044
 1926SOL    HW2 5807   1.594   2.755   2.942
 1927SOL     OW 5808   2.165   1.793   0.801
 1927SOL    HW1 5809   2.205   1.885   0.799
 1927SOL    HW2 5810   2.089   1.792   0.866
 1928SOL     OW 5811   3.089   4.498   2.802
 1928SOL    HW1 5812   3.068   4.498   2.900
 1928SOL    HW2 5813   3.157   4.427   2.782
 1929SOL     OW 5814   1.821   1.304   3.176
 1929SOL    HW1 5815   1.785   1.352   3.256
 1929SOL    HW2 5816   1.766   1.327   3.095
 1930SOL     OW 5817   2.323   4.708   0.301
 1930SOL    HW1 5818   2.311   4.613   0.272
 1930SOL    HW2 5819   2.397   4.713   0.369
 1931SOL     OW 5820   1.022   0.750   4.222
 1931SOL    HW1 5821   1.082   0.740   4.301
 1931SOL    HW2 5822   1.022   0.665   4.169
 1932SOL     OW 5823   2.210   1.060   3.209
 1932SOL    HW1 5824   2.119   1.035   3.176
 1932SOL    HW2 5825   2.265   1.094   3.132
 1933SOL     OW 5826   2.159   1.817   2.638
 1933SOL    HW1 5827   2.118   1.905   2.614
 1933SOL    HW2 5828   2.244   1.832   2.689
 1934SOL     OW 5829   2.254   3.997   4.471
 1934SOL    HW1 5830   2.284   3.910   4.512
 1934SOL    HW2 5831   2.269   4.071   4.537
 1935SOL     OW 5832   2.120   3.304   3.128
 1935SOL    HW1 5833   2.084   3.222   3.084
 1935SOL    HW2 5834   2.106   3.383   3.068
 1936SOL     OW 5835   2.015   0.734   4.318
 1936SOL    HW1 5836   1.979   0.801   4.252
 1936SOL    HW2 5837   2.043   0.652   4.269
 1937SOL     OW 5838   4.770   3.219   1.343
 1937SOL    HW1 5839   4.841   3.179   1.401
 1937SOL    HW2 5840   4.782   3.188   1.249
 1938SOL     OW 5841   3.677   1.923   0.204
 1938SOL    HW1 5842   3.599   1.863   0.187
 1938SOL    HW2 5843   3.716   1.952   0.116
 1939SOL     OW 5844   3.105   4.165   2.959
 1939SOL    HW1 5845   3.079   4.249   3.008
 1939SOL    HW2 5846   3.177   4.186   2.894
 1940SOL     OW 5847   4.724   0.677   1.169
 1940SOL    HW1 5848   4.770   0.592   1.146
 1940SOL    HW2 5849   4.679   0.668   1.258
 1941SOL     OW 5850   0.469   2.763   2.266
 1941SOL    HW1 5851   0.462   2.832   2.194
 1941SOL    HW2 5852   0.537   2.695   2.240
 1942SOL     OW 5853   4.404   2.040   1.410
 1942SOL    HW1 5854   4.500   2.016   1.398
 1942SOL    HW2 5855   4.374   2.097   1.333
 1943SOL     OW 5856   4.624   1.733   0.694
 1943SOL    HW1 5857   4.663   1.788   0.621
 1943SOL    HW2 5858   4.691   1.666   0.726
 1944SOL     OW 5859   4.930   3.871   3.067
 1944SOL    HW1 5860   4.940   3.889   2.969
 1944SOL    HW2 5861   4.839   3.835   3.086
 1945SOL     OW 5862   2.568   3.495   2.377
 1945SOL    HW1 5863   2.615   3.582   2.364
 1945SOL    HW2 5864   2.631   3.420   2.358
 1946SOL     OW 5865   0.132   1.708   0.355
 1946SOL    HW1 5866   0.153   1.611   0.363
 1946SOL    HW2 5867   0.059   1.732   0.419
 1947SOL     OW 5868   2.193   2.275   4.380
 1947SOL    HW1 5869   2.095   2.263   4.395
 1947SOL    HW2 5870   2.239   2.285   4.468
 1948SOL     OW 5871   3.366   4.013   1.202
 1948SOL    HW1 5872   3.414   3.927   1.181
 1948SOL    HW2 5873   3.268   3.994   1.214
 1949SOL     OW 5874   1.457   0.829   4.583
 1949SOL    HW1 5875   1.404   0.907   4.615
 1949SOL    HW2 5876   1.411   0.744   4.609
 1950SOL     OW 5877   1.451   4.568   1.556
 1950SOL    HW1 5878   1.480   4.574   1.460
 1950SOL    HW2 5879   1.513   4.623   1.613
 1951SOL     OW 5880   2.692   3.730   2.351
 1951SOL    HW1 5881   2.774   3.783   2.333
 1951SOL    HW2 5882   2.620   3.790   2.384
 1952SOL     OW 5883   4.202   2.043   0.046
 1952SOL    HW1 5884   4.295   2.073   0.068
 1952SOL    HW2 5885   4.160   2.001   0.126
 1953SOL     OW 5886   4.541   4.082   4.872
 1953SOL    HW1 5887   4.567   4.176   4.850
 1953SOL    HW2 5888   4.559   4.024   4.793
 1954SOL     OW 5889   2.990   2.298   1.045
 1954SOL    HW1 5890   3.005   2.240   1.126
 1954SOL    HW2 5891   3.053   2.270   0.973
 1955SOL     OW 5892   2.615   2.084   1.955
 1955SOL    HW1 5893   2.529   2.134   1.943
 1955SOL    HW2 5894   2.616   2.042   2.046
 1956SOL     OW 5895   4.699   2.710   3.744
 1956SOL    HW1 5896   4.716   2.803   3.711
 1956SOL    HW2 5897   4.774   2.650   3.715
 1957SOL     OW 5898   1.736   4.725   0.291
 1957SOL    HW1 5899   1.735   4.822   0.266
 1957SOL    HW2 5900   1.786   4.673   0.221
 1958SOL     OW 5901   2.279   3.148   0.383
 1958SOL    HW1 5902   2.316   3.239   0.365
 1958SOL    HW2 5903   2.331   3.080   0.330
 1959SOL     OW 5904   1.318   2.887   2.723
 1959SOL    HW1 5905   1.319   2.798   2.679
 1959SOL    HW2 5906   1.239   2.939   2.691
 1960SOL     OW 5907   2.775   4.964   0.720
 1960SOL    HW1 5908   2.786   4.880   0.774
 1960SOL    HW2 5909   2.688   5.006   0.743
 1961SOL     OW 5910   1.334   0.164   1.312
 1961SOL    HW1 5911   1.316   0.117   1.398
 1961SOL    HW2 5912   1.327   0.098   1.236
 1962SOL     OW 5913   1.009   3.425   1.957
 1962SOL    HW1 5914   1.011   3.326   1.974
 1962SOL    HW2 5915   1.075   3.448   1.886
 1963SOL     OW 5916   5.010   2.054   0.645
 1963SOL    HW1 5917   4.971   2.140   0.613
 1963SOL    HW2 5918   0.022   2.009   0.569
 1964SOL     OW 5919   2.247   4.703   0.789
 1964SOL    HW1 5920   2.288   4.636   0.851
 1964SOL    HW2 5921   2.315   4.773   0.767
 1965SOL     OW 5922   3.977   3.437   1.355
 1965SOL    HW1 5923   4.075   3.460   1.352
 1965SOL    HW2 5924   3.936   3.477   1.437
 1966SOL     OW 5925   1.336   1.633   1.481
 1966SOL    HW1 5926   1.251   1.583   1.464
 1966SOL    HW2 5927   1.329   1.681   1.568
 1967SOL     OW 5928   2.185   4.254   2.849
 1967SOL    HW1 5929   2.181   4.352   2.869
 1967SOL    HW2 5930   2.123   4.205   2.910
 1968SOL     OW 5931   3.925   4.897   4.576
 1968SOL    HW1 5932   3.982   4.815   4.573
 1968SOL    HW2 5933   3.880   4.909   4.488
 1969SOL     OW 5934   0.430   0.053   0.741
 1969SOL    HW1 5935   0.471   0.094   0.660
 1969SOL    HW2 5936   0.332   0.074   0.744
 1970SOL     OW 5937   3.243   1.533   4.646
 1970SOL    HW1 5938   3.249   1.613   4.587
 1970SOL    HW2 5939   3.155   1.488   4.632
 1971SOL     OW 5940   0.124   3.590   4.614
 1971SOL    HW1 5941   0.192   3.662   4.625
 1971SOL    HW2 5942   0.102   3.578   4.517
 1972SOL     OW 5943   4.921   3.239   0.038
 1972SOL    HW1 5944   4.897   3.305   5.002
 1972SOL    HW2 5945   4.944   3.151   5.031
 1973SOL     OW 5946   1.491   3.306   1.610
 1973SOL    HW1 5947   1.411   3.301   1.550
 1973SOL    HW2 5948   1.553   3.377   1.577
 1974SOL     OW 5949   0.576   2.076   2.057
 1974SOL    HW1 5950   0.581   1.989   2.106
 1974SOL    HW2 5951   0.497   2.128   2.090
 1975SOL     OW 5952   0.930   2.541   1.528
 1975SOL    HW1 5953   0.898   2.504   1.614
 1975SOL    HW2 5954   1.002   2.483   1.491
 1976SOL     OW 5955   2.129   1.611   2.315
 1976SOL    HW1 5956   2.098   1.520   2.288
 1976SOL    HW2 5957   2.141   1.668   2.234
 1977SOL     OW 5958   2.843   1.362   3.280
 1977SOL    HW1 5959   2.787   1.345   3.199
 1977SOL    HW2 5960   2.838   1.283   3.341
 1978SOL     OW 5961   4.550   2.700   4.606
 1978SOL    HW1 5962   4.480   2.697   4.535
 1978SOL    HW2 5963   4.510   2.676   4.694
 1979SOL     OW 5964   2.693   2.571   1.248
 1979SOL    HW1 5965   2.766   2.560   1.181
 1979SOL    HW2 5966   2.612   2.520   1.217
 1980SOL     OW 5967   0.741   0.048   1.439
 1980SOL    HW1 5968   0.694   0.041   1.351
 1980SOL    HW2 5969   0.766   4.992   1.472
 1981SOL     OW 5970   0.424   3.168   2.856
 1981SOL    HW1 5971   0.361   3.203   2.926
 1981SOL    HW2 5972   0.490   3.106   2.898
 1982SOL     OW 5973   3.972   0.323   3.145
 1982SOL    HW1 5974   3.898   0.299   3.207
 1982SOL    HW2 5975   3.948   0.405   3.093
 1983SOL     OW 5976   4.855   3.612   3.836
 1983SOL    HW1 5977   4.756   3.614   3.819
 1983SOL    HW2 5978   4.885   3.700   3.872
 1984SOL     OW 5979   4.518   3.498   3.079
 1984SOL    HW1 5980   4.454   3.530   3.009
 1984SOL    HW2 5981   4.612   3.510   3.047
 1985SOL     OW 5982   1.381   2.397   0.226
 1985SOL    HW1 5983   1.465   2.450   0.210
 1985SOL    HW2 5984   1.395   2.304   0.194
 1986SOL     OW 5985   0.486   0.003   1.277
 1986SOL    HW1 5986   0.430   4.955   1.283
 1986SOL    HW2 5987   0.555   5.026   1.206
 1987SOL     OW 5988   4.437   4.115   2.454
 1987SOL    HW1 5989   4.482   4.149   2.537
 1987SOL    HW2 5990   4.455   4.178   2.378
 1988SOL     OW 5991   2.435   2.770   3.405
 1988SOL    HW1 5992   2.511   2.826   3.438
 1988SOL    HW2 5993   2.401   2.807   3.318
 1989SOL     OW 5994   0.557   0.310   2.798
 1989SOL    HW1 5995   0.509   0.391   2.830
 1989SOL    HW2 5996   0.530   0.231   2.854
 1990SOL     OW 5997   2.543   4.927   3.635
 1990SOL    HW1 5998   2.510   4.926   3.540
 1990SOL    HW2 5999   2.483   4.872   3.692
 1991SOL     OW 6000   3.799   2.826   2.213
 1991SOL    HW1 6001   3.718   2.885   2.208
 1991SOL    HW2 6002   3.810   2.777   2.127
 1992SOL     OW 6003   1.114   0.681   3.844
 1992SOL    HW1 6004   1.124   0.704   3.748
 1992SOL    HW2 6005   1.196   0.633   3.876
 1993SOL     OW 6006   1.004   0.029   4.868
 1993SOL    HW1 6007   1.069   0.019   4.792
 1993SOL    HW2 6008   1.054   0.024   4.955
 1994SOL     OW 6009   1.261   3.407   2.638
 1994SOL    HW1 6010   1.196   3.331   2.641
 1994SOL    HW2 6011   1.352   3.374   2.662
 1995SOL     OW 6012   2.931   3.923   0.124
 1995SOL    HW1 6013   3.014   3.940   0.177
 1995SOL    HW2 6014   2.956   3.885   0.034
 1996SOL     OW 6015   1.525   1.044   2.202
 1996SOL    HW1 6016   1.455   1.016   2.137
 1996SOL    HW2 6017   1.559   0.964   2.251
 1997SOL     OW 6018   2.178   4.141   3.862
 1997SOL    HW1 6019   2.109   4.205   3.897
 1997SOL    HW2 6020   2.139   4.089   3.785
 1998SOL     OW 6021   3.918   1.676   1.480
 1998SOL    HW1 6022   3.832   1.632   1.504
 1998SOL    HW2 6023   3.994   1.621   1.513
 1999SOL     OW 6024   2.303   1.853   0.259
 1999SOL    HW1 6025   2.204   1.868   0.262
 1999SOL    HW2 6026   2.337   1.839   0.352
 2000SOL     OW 6027   2.815   0.017   0.342
 2000SOL    HW1 6028   2.802   0.087   0.272
 2000SOL    HW2 6029   2.765   0.043   0.425
 2001SOL     OW 6030   1.605   5.006   3.158
 2001SOL    HW1 6031   1.541   0.024   3.102
 2001SOL    HW2 6032   1.624   0.021   3.243
 2002SOL     OW 6033   3.195   0.170   1.946
 2002SOL    HW1 6034   3.104   0.171   1.987
 2002SOL    HW2 6035   3.219   0.076   1.920
 2003SOL     OW 6036   1.264   1.824   4.150
 2003SOL    HW1 6037   1.288   1.800   4.056
 2003SOL    HW2 6038   1.259   1.741   4.206
 2004SOL     OW 6039   0.577   3.080   3.636
 2004SOL    HW1 6040   0.485   3.115   3.618
 2004SOL    HW2 6041   0.614   3.039   3.553
 2005SOL     OW 6042   3.764   5.004   4.758
 2005SOL    HW1 6043   3.769   4.958   4.847
 2005SOL    HW2 6044   3.834   4.967   4.697
 2006SOL     OW 6045   0.532   1.211   0.713
 2006SOL    HW1 6046   0.510   1.308   0.698
 2006SOL    HW2 6047   0.621   1.190   0.671
 2007SOL     OW 6048   3.333   2.458   3.084
 2007SOL    HW1 6049   3.420   2.496   3.052
 2007SOL    HW2 6050   3.310   2.378   3.030
 2008SOL     OW 6051   0.791   0.361   4.397
 2008SOL    HW1 6052   0.701   0.364   4.354
 2008SOL    HW2 6053   0.840   0.446   4.375
 2009SOL     OW 6054   4.008   1.396   2.119
 2009SOL    HW1 6055   3.960   1.309   2.129
 2009SOL    HW2 6056   4.085   1.384   2.055
 2010SOL     OW 6057   0.194   0.474   2.687
 2010SOL    HW1 6058   0.114   0.513   2.733
 2010SOL    HW2 6059   0.168   0.387   2.645
 2011SOL     OW 6060   3.871   2.736   0.887
 2011SOL    HW1 6061   3.918   2.689   0.812
 2011SOL    HW2 6062   3.917   2.823   0.905
 2012SOL     OW 6063   2.675   3.408   3.119
 2012SOL    HW1 6064   2.745   3.363   3.064
 2012SOL    HW2 6065   2.709   3.419   3.213
 2013SOL     OW 6066   0.182   1.359   2.353
 2013SOL    HW1 6067   0.082   1.356   2.362
 2013SOL    HW2 6068   0.206   1.345   2.257
 2014SOL     OW 6069   2.770   1.948   3.720
 2014SOL    HW1 6070   2.771   1.855   3.756
 2014SOL    HW2 6071   2.862   1.988   3.728
 2015SOL     OW 6072   3.814   2.706   2.842
 2015SOL    HW1 6073   3.827   2.607   2.848
 2015SOL    HW2 6074   3.718   2.725   2.822
 2016SOL     OW 6075   0.447   0.901   0.020
 2016SOL    HW1 6076   0.415   0.869   0.109
 2016SOL    HW2 6077   0.401   0.986   5.031
 2017SOL     OW 6078   0.539   2.579   2.898
 2017SOL    HW1 6079   0.481   2.624   2.966
 2017SOL    HW2 6080   0.520   2.618   2.808
 2018SOL     OW 6081   3.690   0.663   2.660
 2018SOL    HW1 6082   3.704   0.601   2.583
 2018SOL    HW2 6083   3.593   0.676   2.676
 2019SOL     OW 6084   4.145   2.689   2.141
 2019SOL    HW1 6085   4.072   2.720   2.081
 2019SOL    HW2 6086   4.136   2.734   2.230
 2020SOL     OW 6087   4.492   1.481   1.981
 2020SOL    HW1 6088   4.537   1.555   2.031
 2020SOL    HW2 6089   4.522   1.483   1.886
 2021SOL     OW 6090   1.725   2.736   3.220
 2021SOL    HW1 6091   1.672   2.798   3.161
 2021SOL    HW2 6092   1.693   2.743   3.314
 2022SOL     OW 6093   2.820   1.752   2.785
 2022SOL    HW1 6094   2.743   1.706   2.742
 2022SOL    HW2 6095   2.892   1.685   2.803
 2023SOL     OW 6096   4.519   2.726   0.211
 2023SOL    HW1 6097   4.444   2.792   0.202
 2023SOL    HW2 6098   4.573   2.749   0.292
 2024SOL     OW 6099   2.680   0.455   1.922
 2024SOL    HW1 6100   2.630   0.408   1.849
 2024SOL    HW2 6101   2.777   0.432   1.915
 2025SOL     OW 6102   4.106   2.359   4.107
 2025SOL    HW1 6103   4.046   2.368   4.186
 2025SOL    HW2 6104   4.162   2.277   4.116
 2026SOL     OW 6105   0.338   3.738   0.699
 2026SOL    HW1 6106   0.426   3.752   0.654
 2026SOL    HW2 6107   0.315   3.820   0.752
 2027SOL     OW 6108   2.005   4.319   2.232
 2027SOL    HW1 6109   2.038   4.307   2.326
 2027SOL    HW2 6110   2.060   4.389   2.187
 2028SOL     OW 6111   3.796   3.641   2.172
 2028SOL    HW1 6112   3.723   3.589   2.218
 2028SOL    HW2 6113   3.871   3.657   2.236
 2029SOL     OW 6114   0.370   2.451   1.398
 2029SOL    HW1 6115   0.379   2.364   1.445
 2029SOL    HW2 6116   0.327   2.518   1.458
 2030SOL     OW 6117   2.019   4.386   3.801
 2030SOL    HW1 6118   2.039   4.481   3.779
 2030SOL    HW2 6119   1.974   4.342   3.723
 2031SOL     OW 6120   4.818   1.550   1.800
 2031SOL    HW1 6121   4.840   1.609   1.878
 2031SOL    HW2 6122   4.744   1.592   1.748
 2032SOL     OW 6123   2.759   2.519   3.109
 2032SOL    HW1 6124   2.680   2.572   3.138
 2032SOL    HW2 6125   2.735   2.461   3.031
 2033SOL     OW 6126   3.832   3.605   4.066
 2033SOL    HW1 6127   3.844   3.592   3.967
 2033SOL    HW2 6128   3.922   3.617   4.109
 2034SOL     OW 6129   1.085   4.078   0.371
 2034SOL    HW1 6130   1.082   4.175   0.345
 2034SOL    HW2 6131   1.132   4.068   0.458
 2035SOL     OW 6132   1.300   3.846   3.635
 2035SOL    HW1 6133   1.208   3.828   3.669
 2035SOL    HW2 6134   1.320   3.943   3.646
 2036SOL     OW 6135   3.911   1.822   3.580
 2036SOL    HW1 6136   3.825   1.780   3.609
 2036SOL    HW2 6137   3.984   1.795   3.642
 2037SOL     OW 6138   2.746   0.634   0.732
 2037SOL    HW1 6139   2.798   0.565   0.682
 2037SOL    HW2 6140   2.752   0.721   0.683
 2038SOL     OW 6141   1.041   0.556   0.419
 2038SOL    HW1 6142   1.060   0.653   0.431
 2038SOL    HW2 6143   1.006   0.518   0.505
 2039SOL     OW 6144   1.517   1.269   4.267
 2039SOL    HW1 6145   1.467   1.284   4.353
 2039SOL    HW2 6146   1.556   1.177   4.267
 2040SOL     OW 6147   2.962   4.925   4.061
 2040SOL    HW1 6148   2.909   4.845   4.032
 2040SOL    HW2 6149   3.015   4.903   4.142
 2041SOL     OW 6150   2.546   4.465   1.349
 2041SOL    HW1 6151   2.503   4.382   1.311
 2041SOL    HW2 6152   2.525   4.543   1.290
 2042SOL     OW 6153   1.754   4.654   1.719
 2042SOL    HW1 6154   1.815   4.580   1.747
 2042SOL    HW2 6155   1.787   4.741   1.757
 2043SOL     OW 6156   2.725   3.670   3.693
 2043SOL    HW1 6157   2.813   3.623   3.690
 2043SOL    HW2 6158   2.738   3.763   3.727
 2044SOL     OW 6159   2.207   3.541   1.217
 2044SOL    HW1 6160   2.133   3.520   1.281
 2044SOL    HW2 6161   2.291   3.561   1.267
 2045SOL     OW 6162   4.761   0.401   2.900
 2045SOL    HW1 6163   4.828   0.367   2.967
 2045SOL    HW2 6164   4.777   0.356   2.812
 2046SOL     OW 6165   3.525   4.663   2.787
 2046SOL    HW1 6166   3.493   4.757   2.789
 2046SOL    HW2 6167   3.483   4.614   2.710
 2047SOL     OW 6168   3.436   0.966   2.605
 2047SOL    HW1 6169   3.357   0.998   2.658
 2047SOL    HW2 6170   3.513   0.950   2.668
 2048SOL     OW 6171   0.354   0.149   4.980
 2048SOL    HW1 6172   0.337   0.119   4.886
 2048SOL    HW2 6173   0.369   0.247   4.981
 2049SOL     OW 6174   0.213   2.824   1.348
 2049SOL    HW1 6175   0.162   2.765   1.285
 2049SOL    HW2 6176   0.192   2.797   1.442
 2050SOL     OW 6177   1.308   1.443   2.403
 2050SOL    HW1 6178   1.379   1.509   2.376
 2050SOL    HW2 6179   1.294   1.448   2.502
 2051SOL     OW 6180   1.373   0.608   1.538
 2051SOL    HW1 6181   1.386   0.631   1.442
 2051SOL    HW2 6182   1.387   0.510   1.551
 2052SOL     OW 6183   2.586   3.737   0.174
 2052SOL    HW1 6184   2.664   3.744   0.236
 2052SOL    HW2 6185   2.617   3.746   0.080
 2053SOL     OW 6186   4.431   0.039   3.825
 2053SOL    HW1 6187   4.398   0.113   3.767
 2053SOL    HW2 6188   4.377   0.035   3.909
 2054SOL     OW 6189   4.870   4.359   1.720
 2054SOL    HW1 6190   4.939   4.365   1.792
 2054SOL    HW2 6191   4.898   4.291   1.652
 2055SOL     OW 6192   1.659   2.525   0.089
 2055SOL    HW1 6193   1.601   2.491   0.014
 2055SOL    HW2 6194   1.695   2.615   0.064
 2056SOL     OW 6195   1.936   4.210   0.449
 2056SOL    HW1 6196   1.889   4.183   0.365
 2056SOL    HW2 6197   1.977   4.300   0.438
 2057SOL     OW 6198   3.728   1.516   1.111
 2057SOL    HW1 6199   3.814   1.533   1.063
 2057SOL    HW2 6200   3.720   1.418   1.131
 2058SOL     OW 6201   2.561   0.394   2.719
 2058SOL    HW1 6202   2.473   0.436   2.737
 2058SOL    HW2 6203   2.627   0.423   2.788
 2059SOL     OW 6204   1.609   0.098   3.436
 2059SOL    HW1 6205   1.674   0.028   3.466
 2059SOL    HW2 6206   1.641   0.188   3.464
 2060SOL     OW 6207   1.078   2.638   1.285
 2060SOL    HW1 6208   1.023   2.705   1.336
 2060SOL    HW2 6209   1.078   2.662   1.188
 2061SOL     OW 6210   0.659   1.238   1.007
 2061SOL    HW1 6211   0.652   1.290   1.092
 2061SOL    HW2 6212   0.596   1.160   1.010
 2062SOL     OW 6213   1.421   1.710   0.958
 2062SOL    HW1 6214   1.372   1.624   0.947
 2062SOL    HW2 6215   1.420   1.761   0.872
 2063SOL     OW 6216   2.430   4.157   2.468
 2063SOL    HW1 6217   2.473   4.238   2.507
 2063SOL    HW2 6218   2.364   4.120   2.534
 2064SOL     OW 6219   1.001   0.308   0.307
 2064SOL    HW1 6220   1.006   0.403   0.338
 2064SOL    HW2 6221   1.081   0.287   0.250
 2065SOL     OW 6222   2.037   1.717   4.505
 2065SOL    HW1 6223   1.958   1.711   4.444
 2065SOL    HW2 6224   2.026   1.794   4.567
 2066SOL     OW 6225   0.393   4.599   3.484
 2066SOL    HW1 6226   0.395   4.682   3.540
 2066SOL    HW2 6227   0.353   4.620   3.395
 2067SOL     OW 6228   1.235   2.316   5.003
 2067SOL    HW1 6229   1.330   2.345   5.019
 2067SOL    HW2 6230   1.203   2.263   0.047
 2068SOL     OW 6231   0.085   2.252   2.624
 2068SOL    HW1 6232   0.141   2.316   2.570
 2068SOL    HW2 6233   5.027   2.290   2.633
 2069SOL     OW 6234   0.462   1.172   4.278
 2069SOL    HW1 6235   0.561   1.159   4.289
 2069SOL    HW2 6236   0.413   1.100   4.326
 2070SOL     OW 6237   2.088   1.129   4.131
 2070SOL    HW1 6238   2.014   1.112   4.195
 2070SOL    HW2 6239   2.086   1.224   4.102
 2071SOL     OW 6240   1.428   3.159   4.142
 2071SOL    HW1 6241   1.455   3.064   4.125
 2071SOL    HW2 6242   1.381   3.195   4.061
 2072SOL     OW 6243   4.933   3.424   4.147
 2072SOL    HW1 6244   4.962   3.333   4.176
 2072SOL    HW2 6245   4.986   3.453   4.068
 2073SOL     OW 6246   2.496   2.013   4.912
 2073SOL    HW1 6247   2.559   1.935   4.909
 2073SOL    HW2 6248   2.492   2.055   4.821
 2074SOL     OW 6249   2.756   4.217   2.690
 2074SOL    HW1 6250   2.684   4.203   2.623
 2074SOL    HW2 6251   2.726   4.284   2.759
 2075SOL     OW 6252   3.795   4.687   2.835
 2075SOL    HW1 6253   3.703   4.663   2.806
 2075SOL    HW2 6254   3.792   4.769   2.892
 2076SOL     OW 6255   4.732   4.285   3.632
 2076SOL    HW1 6256   4.658   4.242   3.684
 2076SOL    HW2 6257   4.698   4.365   3.584
 2077SOL     OW 6258   2.928   2.240   4.049
 2077SOL    HW1 6259   2.926   2.339   4.039
 2077SOL    HW2 6260   2.837   2.203   4.032
 2078SOL     OW 6261   1.611   3.521   1.872
 2078SOL    HW1 6262   1.543   3.571   1.819
 2078SOL    HW2 6263   1.670   3.470   1.810
 2079SOL     OW 6264   1.307   4.856   1.622
 2079SOL    HW1 6265   1.379   4.810   1.673
 2079SOL    HW2 6266   1.224   4.861   1.679
 2080SOL     OW 6267   4.608   1.266   4.034
 2080SOL    HW1 6268   4.699   1.278   4.072
 2080SOL    HW2 6269   4.611   1.202   3.957
 2081SOL     OW 6270   3.575   0.241   2.554
 2081SOL    HW1 6271   3.504   0.198   2.610
 2081SOL    HW2 6272   3.548   0.336   2.534
 2082SOL     OW 6273   0.677   1.458   2.010
 2082SOL    HW1 6274   0.659   1.402   1.929
 2082SOL    HW2 6275   0.683   1.554   1.983
 2083SOL     OW 6276   4.316   0.546   3.401
 2083SOL    HW1 6277   4.353   0.637   3.384
 2083SOL    HW2 6278   4.216   0.549   3.396
 2084SOL     OW 6279   3.597   1.523   4.622
 2084SOL    HW1 6280   3.515   1.466   4.628
 2084SOL    HW2 6281   3.569   1.619   4.616
 2085SOL     OW 6282   2.454   2.280   3.656
 2085SOL    HW1 6283   2.518   2.357   3.666
 2085SOL    HW2 6284   2.502   2.202   3.616
 2086SOL     OW 6285   0.163   0.197   0.163
 2086SOL    HW1 6286   0.076   0.244   0.154
 2086SOL    HW2 6287   0.206   0.188   0.073
 2087SOL     OW 6288   0.536   1.100   2.029
 2087SOL    HW1 6289   0.535   1.186   2.080
 2087SOL    HW2 6290   0.546   1.119   1.932
 2088SOL     OW 6291   0.099   4.339   1.825
 2088SOL    HW1 6292   0.086   4.246   1.858
 2088SOL    HW2 6293   0.114   4.338   1.726
 2089SOL     OW 6294   0.154   3.740   4.905
 2089SOL    HW1 6295   0.114   3.649   4.910
 2089SOL    HW2 6296   0.214   3.755   4.983
 2090SOL     OW 6297   2.700   1.069   1.081
 2090SOL    HW1 6298   2.685   1.096   1.176
 2090SOL    HW2 6299   2.789   1.105   1.050
 2091SOL     OW 6300   1.388   4.087   0.372
 2091SOL    HW1 6301   1.310   4.135   0.413
 2091SOL    HW2 6302   1.451   4.059   0.444
 2092SOL     OW 6303   4.651   1.643   4.582
 2092SOL    HW1 6304   4.656   1.572   4.512
 2092SOL    HW2 6305   4.681   1.730   4.543
 2093SOL     OW 6306   4.911   4.384   4.116
 2093SOL    HW1 6307   4.930   4.475   4.152
 2093SOL    HW2 6308   4.985   4.322   4.141
 2094SOL     OW 6309   4.456   3.708   1.269
 2094SOL    HW1 6310   4.541   3.715   1.322
 2094SOL    HW2 6311   4.395   3.643   1.313
 2095SOL     OW 6312   4.279   1.504   1.697
 2095SOL    HW1 6313   4.252   1.518   1.792
 2095SOL    HW2 6314   4.357   1.442   1.693
 2096SOL     OW 6315   3.768   1.217   2.176
 2096SOL    HW1 6316   3.697   1.172   2.231
 2096SOL    HW2 6317   3.744   1.314   2.164
 2097SOL     OW 6318   3.167   0.422   4.718
 2097SOL    HW1 6319   3.141   0.464   4.805
 2097SOL    HW2 6320   3.084   0.395   4.668
 2098SOL     OW 6321   1.403   4.391   3.898
 2098SOL    HW1 6322   1.427   4.343   3.982
 2098SOL    HW2 6323   1.447   4.481   3.898
 2099SOL     OW 6324   2.696   4.504   2.952
 2099SOL    HW1 6325   2.636   4.522   2.874
 2099SOL    HW2 6326   2.692   4.407   2.976
 2100SOL     OW 6327   2.451   3.517   3.291
 2100SOL    HW1 6328   2.520   3.465   3.240
 2100SOL    HW2 6329   2.492   3.555   3.373
 2101SOL     OW 6330   3.232   1.160   3.869
 2101SOL    HW1 6331   3.234   1.061   3.875
 2101SOL    HW2 6332   3.325   1.196   3.882
 2102SOL     OW 6333   1.342   1.867   1.295
 2102SOL    HW1 6334   1.308   1.802   1.364
 2102SOL    HW2 6335   1.435   1.893   1.317
 2103SOL     OW 6336   0.342   2.229   1.566
 2103SOL    HW1 6337   0.330   2.272   1.656
 2103SOL    HW2 6338   0.264   2.169   1.547
 2104SOL     OW 6339   3.972   0.022   0.555
 2104SOL    HW1 6340   3.888   0.059   0.596
 2104SOL    HW2 6341   4.012   0.091   0.495
 2105SOL     OW 6342   0.719   3.175   2.364
 2105SOL    HW1 6343   0.739   3.111   2.438
 2105SOL    HW2 6344   0.804   3.219   2.333
 2106SOL     OW 6345   3.280   1.784   2.915
 2106SOL    HW1 6346   3.328   1.702   2.883
 2106SOL    HW2 6347   3.290   1.857   2.847
 2107SOL     OW 6348   1.620   2.769   3.470
 2107SOL    HW1 6349   1.634   2.796   3.565
 2107SOL    HW2 6350   1.567   2.840   3.423
 2108SOL     OW 6351   2.458   2.597   1.473
 2108SOL    HW1 6352   2.540   2.543   1.454
 2108SOL    HW2 6353   2.435   2.652   1.392
 2109SOL     OW 6354   3.272   3.517   2.715
 2109SOL    HW1 6355   3.175   3.494   2.705
 2109SOL    HW2 6356   3.318   3.448   2.770
 2110SOL     OW 6357   2.052   2.749   1.511
 2110SOL    HW1 6358   1.986   2.688   1.467
 2110SOL    HW2 6359   2.070   2.717   1.604
 2111SOL     OW 6360   3.655   0.718   3.769
 2111SOL    HW1 6361   3.656   0.798   3.709
 2111SOL    HW2 6362   3.697   0.640   3.722
 2112SOL     OW 6363   3.910   4.419   0.667
 2112SOL    HW1 6364   3.840   4.357   0.704
 2112SOL    HW2 6365   3.957   4.464   0.743
 2113SOL     OW 6366   3.874   2.968   2.442
 2113SOL    HW1 6367   3.863   2.890   2.381
 2113SOL    HW2 6368   3.968   2.972   2.474
 2114SOL     OW 6369   4.847   0.409   4.679
 2114SOL    HW1 6370   4.891   0.442   4.596
 2114SOL    HW2 6371   4.790   0.330   4.656
 2115SOL     OW 6372   0.129   0.141   1.959
 2115SOL    HW1 6373   0.120   0.130   1.860
 2115SOL    HW2 6374   0.225   0.152   1.983
 2116SOL     OW 6375   0.009   0.858   3.644
 2116SOL    HW1 6376   0.020   0.890   3.550
 2116SOL    HW2 6377   0.070   0.910   3.704
 2117SOL     OW 6378   3.968   1.805   2.094
 2117SOL    HW1 6379   4.062   1.815   2.129
 2117SOL    HW2 6380   3.938   1.891   2.054
 2118SOL     OW 6381   4.163   4.705   0.001
 2118SOL    HW1 6382   4.141   4.636   4.969
 2118SOL    HW2 6383   4.262   4.708   0.015
 2119SOL     OW 6384   1.604   4.571   0.481
 2119SOL    HW1 6385   1.639   4.630   0.408
 2119SOL    HW2 6386   1.655   4.486   0.483
 2120SOL     OW 6387   4.123   2.026   3.602
 2120SOL    HW1 6388   4.193   1.978   3.549
 2120SOL    HW2 6389   4.033   2.003   3.567
 2121SOL     OW 6390   1.066   1.366   3.209
 2121SOL    HW1 6391   1.021   1.319   3.285
 2121SOL    HW2 6392   1.090   1.460   3.237
 2122SOL     OW 6393   1.092   1.942   2.922
 2122SOL    HW1 6394   1.088   2.028   2.973
 2122SOL    HW2 6395   1.002   1.921   2.885
 2123SOL     OW 6396   3.697   0.012   4.476
 2123SOL    HW1 6397   3.708   5.030   4.573
 2123SOL    HW2 6398   3.632   0.086   4.462
 2124SOL     OW 6399   1.557   3.735   3.407
 2124SOL    HW1 6400   1.535   3.674   3.484
 2124SOL    HW2 6401   1.571   3.681   3.324
 2125SOL     OW 6402   2.274   0.721   3.511
 2125SOL    HW1 6403   2.181   0.714   3.472
 2125SOL    HW2 6404   2.333   0.653   3.467
 2126SOL     OW 6405   2.719   0.869   2.971
 2126SOL    HW1 6406   2.768   0.853   2.886
 2126SOL    HW2 6407   2.751   0.804   3.040
 2127SOL     OW 6408   0.503   1.483   3.887
 2127SOL    HW1 6409   0.440   1.537   3.943
 2127SOL    HW2 6410   0.592   1.477   3.933
 2128SOL     OW 6411   1.720   4.218   1.231
 2128SOL    HW1 6412   1.736   4.289   1.300
 2128SOL    HW2 6413   1.703   4.260   1.142
 2129SOL     OW 6414   0.882   4.326   3.859
 2129SOL    HW1 6415   0.928   4.407   3.892
 2129SOL    HW2 6416   0.931   4.289   3.780
 2130SOL     OW 6417   3.859   4.038   1.259
 2130SOL    HW1 6418   3.877   3.989   1.344
 2130SOL    HW2 6419   3.858   4.136   1.277
 2131SOL     OW 6420   2.159   2.516   3.884
 2131SOL    HW1 6421   2.139   2.477   3.973
 2131SOL    HW2 6422   2.132   2.451   3.812
 2132SOL     OW 6423   4.496   3.418   1.420
 2132SOL    HW1 6424   4.496   3.410   1.320
 2132SOL    HW2 6425   4.570   3.478   1.449
 2133SOL     OW 6426   2.657   1.338   2.486
 2133SOL    HW1 6427   2.593   1.361   2.560
 2133SOL    HW2 6428   2.728   1.277   2.522
 2134SOL     OW 6429   2.492   1.562   4.038
 2134SOL    HW1 6430   2.543   1.635   4.084
 2134SOL    HW2 6431   2.555   1.509   3.980
 2135SOL     OW 6432   0.893   1.644   4.062
 2135SOL    HW1 6433   0.914   1.738   4.035
 2135SOL    HW2 6434   0.799   1.638   4.095
 2136SOL     OW 6435   3.298   1.421   2.158
 2136SOL    HW1 6436   3.361   1.396   2.085
 2136SOL    HW2 6437   3.240   1.497   2.128
 2137SOL     OW 6438   0.390   0.189   4.489
 2137SOL    HW1 6439   0.468   0.130   4.469
 2137SOL    HW2 6440   0.319   0.175   4.419
 2138SOL     OW 6441   2.845   4.114   4.399
 2138SOL    HW1 6442   2.857   4.102   4.300
 2138SOL    HW2 6443   2.797   4.036   4.437
 2139SOL     OW 6444   3.458   0.640   1.565
 2139SOL    HW1 6445   3.548   0.657   1.525
 2139SOL    HW2 6446   3.470   0.605   1.658
 2140SOL     OW 6447   2.689   0.085   2.409
 2140SOL    HW1 6448   2.601   0.093   2.362
 2140SOL    HW2 6449   2.710   0.171   2.455
 2141SOL     OW 6450   4.003   2.911   1.216
 2141SOL    HW1 6451   3.997   2.983   1.284
 2141SOL    HW2 6452   4.055   2.834   1.253
 2142SOL     OW 6453   4.536   1.233   0.960
 2142SOL    HW1 6454   4.446   1.228   0.916
 2142SOL    HW2 6455   4.575   1.141   0.966
 2143SOL     OW 6456   0.200   0.495   1.642
 2143SOL    HW1 6457   0.111   0.501   1.597
 2143SOL    HW2 6458   0.189   0.459   1.734
 2144SOL     OW 6459   1.440   2.579   1.347
 2144SOL    HW1 6460   1.426   2.674   1.319
 2144SOL    HW2 6461   1.510   2.538   1.289
 2145SOL     OW 6462   4.350   1.267   3.612
 2145SOL    HW1 6463   4.362   1.344   3.549
 2145SOL    HW2 6464   4.366   1.297   3.706
 2146SOL     OW 6465   1.809   4.690   2.961
 2146SOL    HW1 6466   1.788   4.753   2.886
 2146SOL    HW2 6467   1.813   4.597   2.926
 2147SOL     OW 6468   1.922   4.822   2.452
 2147SOL    HW1 6469   1.901   4.733   2.412
 2147SOL    HW2 6470   1.996   4.813   2.518
 2148SOL     OW 6471   2.641   4.391   0.923
 2148SOL    HW1 6472   2.635   4.314   0.859
 2148SOL    HW2 6473   2.661   4.357   1.015
 2149SOL     OW 6474   4.058   1.645   4.629
 2149SOL    HW1 6475   4.087   1.597   4.712
 2149SOL    HW2 6476   3.963   1.675   4.640
 2150SOL     OW 6477   2.700   1.800   1.191
 2150SOL    HW1 6478   2.674   1.742   1.268
 2150SOL    HW2 6479   2.800   1.807   1.188
 2151SOL     OW 6480   4.989   3.247   4.375
 2151SOL    HW1 6481   4.989   3.314   4.450
 2151SOL    HW2 6482   4.906   3.190   4.383
 2152SOL     OW 6483   1.782   0.722   3.012
 2152SOL    HW1 6484   1.731   0.677   3.085
 2152SOL    HW2 6485   1.753   0.817   3.004
 2153SOL     OW 6486   2.107   2.602   4.757
 2153SOL    HW1 6487   2.142   2.641   4.672
 2153SOL    HW2 6488   2.036   2.662   4.794
 2154SOL     OW 6489   3.203   2.520   3.307
 2154SOL    HW1 6490   3.105   2.537   3.296
 2154SOL    HW2 6491   3.246   2.513   3.217
 2155SOL     OW 6492   4.972   4.098   2.885
 2155SOL    HW1 6493   4.916   4.123   2.964
 2155SOL    HW2 6494   4.982   4.177   2.824
 2156SOL     OW 6495   0.969   3.196   4.508
 2156SOL    HW1 6496   0.944   3.225   4.600
 2156SOL    HW2 6497   1.064   3.222   4.489
 2157SOL     OW 6498   3.141   2.582   1.589
 2157SOL    HW1 6499   3.051   2.547   1.614
 2157SOL    HW2 6500   3.197   2.593   1.672
 2158SOL     OW 6501   1.886   0.968   4.929
 2158SOL    HW1 6502   1.830   0.895   4.966
 2158SOL    HW2 6503   1.980   0.935   4.916
 2159SOL     OW 6504   1.458   0.352   1.464
 2159SOL    HW1 6505   1.538   0.367   1.406
 2159SOL    HW2 6506   1.385   0.310   1.410
 2160SOL     OW 6507   1.317   2.945   0.267
 2160SOL    HW1 6508   1.260   2.937   0.348
 2160SOL    HW2 6509   1.365   2.858   0.252
 2161SOL     OW 6510   1.114   1.327   0.057
 2161SOL    HW1 6511   1.169   1.389   0.112
 2161SOL    HW2 6512   1.018   1.354   0.064
 2162SOL     OW 6513   3.154   3.016   2.199
 2162SOL    HW1 6514   3.134   2.918   2.201
 2162SOL    HW2 6515   3.105   3.062   2.273
 2163SOL     OW 6516   0.457   4.308   2.274
 2163SOL    HW1 6517   0.480   4.392   2.324
 2163SOL    HW2 6518   0.521   4.295   2.199
 2164SOL     OW 6519   4.658   2.155   1.593
 2164SOL    HW1 6520   4.683   2.223   1.524
 2164SOL    HW2 6521   4.652   2.198   1.682
 2165SOL     OW 6522   0.164   0.958   3.882
 2165SOL    HW1 6523   0.183   1.050   3.848
 2165SOL    HW2 6524   0.185   0.953   3.979
 2166SOL     OW 6525   0.489   3.187   0.008
 2166SOL    HW1 6526   0.549   3.130   4.988
 2166SOL    HW2 6527   0.493   3.158   0.103
 2167SOL     OW 6528   2.112   2.582   3.209
 2167SOL    HW1 6529   2.088   2.495   3.164
 2167SOL    HW2 6530   2.055   2.655   3.171
 2168SOL     OW 6531   3.969   3.267   3.454
 2168SOL    HW1 6532   4.061   3.255   3.416
 2168SOL    HW2 6533   3.962   3.218   3.541
 2169SOL     OW 6534   2.675   2.058   1.685
 2169SOL    HW1 6535   2.668   2.046   1.784
 2169SOL    HW2 6536   2.612   2.130   1.656
 2170SOL     OW 6537   2.229   2.122   3.663
 2170SOL    HW1 6538   2.232   2.056   3.588
 2170SOL    HW2 6539   2.317   2.170   3.668
 2171SOL     OW 6540   2.741   3.863   4.450
 2171SOL    HW1 6541   2.667   3.804   4.481
 2171SOL    HW2 6542   2.797   3.815   4.383
 2172SOL     OW 6543   3.305   4.289   1.189
 2172SOL    HW1 6544   3.335   4.194   1.182
 2172SOL    HW2 6545   3.264   4.305   1.279
 2173SOL     OW 6546   1.739   3.732   1.119
 2173SOL    HW1 6547   1.683   3.812   1.143
 2173SOL    HW2 6548   1.790   3.752   1.035
 2174SOL     OW 6549   0.956   0.822   2.671
 2174SOL    HW1 6550   1.001   0.773   2.745
 2174SOL    HW2 6551   0.911   0.904   2.708
 2175SOL     OW 6552   4.015   1.835   0.778
 2175SOL    HW1 6553   3.936   1.813   0.836
 2175SOL    HW2 6554   4.076   1.897   0.828
 2176SOL     OW 6555   1.320   0.215   0.129
 2176SOL    HW1 6556   1.312   0.310   0.159
 2176SOL    HW2 6557   1.406   0.203   0.079
 2177SOL     OW 6558   1.341   2.804   3.306
 2177SOL    HW1 6559   1.341   2.744   3.226
 2177SOL    HW2 6560   1.251   2.845   3.317
 2178SOL     OW 6561   2.361   4.505   4.716
 2178SOL    HW1 6562   2.359   4.604   4.733
 2178SOL    HW2 6563   2.411   4.487   4.632
 2179SOL     OW 6564   2.523   2.375   0.041
 2179SOL    HW1 6565   2.501   2.342   0.133
 2179SOL    HW2 6566   2.605   2.432   0.045
 2180SOL     OW 6567   4.176   3.313   3.791
 2180SOL    HW1 6568   4.168   3.315   3.891
 2180SOL    HW2 6569   4.102   3.367   3.750
 2181SOL     OW 6570   3.110   4.037   0.743
 2181SOL    HW1 6571   3.168   3.963   0.708
 2181SOL    HW2 6572   3.140   4.062   0.835
 2182SOL     OW 6573   4.497   1.557   0.434
 2182SOL    HW1 6574   4.422   1.490   0.433
 2182SOL    HW2 6575   4.491   1.613   0.516
 2183SOL     OW 6576   0.567   4.108   3.005
 2183SOL    HW1 6577   0.497   4.074   2.942
 2183SOL    HW2 6578   0.644   4.044   3.008
 2184SOL     OW 6579   0.205   0.772   2.634
 2184SOL    HW1 6580   0.174   0.691   2.585
 2184SOL    HW2 6581   0.265   0.745   2.710
 2185SOL     OW 6582   3.601   3.453   4.604
 2185SOL    HW1 6583   3.654   3.371   4.626
 2185SOL    HW2 6584   3.520   3.427   4.551
 2186SOL     OW 6585   0.607   1.038   0.224
 2186SOL    HW1 6586   0.585   1.022   0.127
 2186SOL    HW2 6587   0.584   0.957   0.277
 2187SOL     OW 6588   0.838   4.319   0.343
 2187SOL    HW1 6589   0.884   4.408   0.336
 2187SOL    HW2 6590   0.766   4.314   0.275
 2188SOL     OW 6591   4.127   1.298   1.595
 2188SOL    HW1 6592   4.145   1.389   1.631
 2188SOL    HW2 6593   4.208   1.241   1.608
 2189SOL     OW 6594   0.253   1.990   4.397
 2189SOL    HW1 6595   0.177   2.046   4.432
 2189SOL    HW2 6596   0.317   1.972   4.472
 2190SOL     OW 6597   4.784   1.478   0.537
 2190SOL    HW1 6598   4.829   1.388   0.534
 2190SOL    HW2 6599   4.687   1.466   0.560
 2191SOL     OW 6600   3.499   3.559   4.220
 2191SOL    HW1 6601   3.462   3.592   4.306
 2191SOL    HW2 6602   3.424   3.521   4.165
 2192SOL     OW 6603   3.378   1.746   0.416
 2192SOL    HW1 6604   3.294   1.709   0.456
 2192SOL    HW2 6605   3.365   1.761   0.318
 2193SOL     OW 6606   4.944   2.283   0.513
 2193SOL    HW1 6607   4.991   2.366   0.484
 2193SOL    HW2 6608   4.900   2.240   0.434
 2194SOL     OW 6609   0.010   4.268   2.677
 2194SOL    HW1 6610   0.084   4.206   2.706
 2194SOL    HW2 6611   0.042   4.324   2.601
 2195SOL     OW 6612   0.969   0.496   3.576
 2195SOL    HW1 6613   0.973   0.408   3.625
 2195SOL    HW2 6614   0.882   0.503   3.527
 2196SOL     OW 6615   4.424   3.638   4.397
 2196SOL    HW1 6616   4.491   3.656   4.469
 2196SOL    HW2 6617   4.364   3.716   4.387
 2197SOL     OW 6618   2.431   4.943   5.030
 2197SOL    HW1 6619   2.463   4.989   0.078
 2197SOL    HW2 6620   2.467   4.849   5.028
 2198SOL     OW 6621   0.153   2.398   1.720
 2198SOL    HW1 6622   0.116   2.351   1.640
 2198SOL    HW2 6623   0.079   2.447   1.767
 2199SOL     OW 6624   1.468   3.668   3.896
 2199SOL    HW1 6625   1.380   3.657   3.851
 2199SOL    HW2 6626   1.455   3.671   3.995
 2200SOL     OW 6627   3.889   4.460   3.031
 2200SOL    HW1 6628   3.917   4.552   3.059
 2200SOL    HW2 6629   3.897   4.452   2.932
 2201SOL     OW 6630   1.596   1.217   0.370
 2201SOL    HW1 6631   1.579   1.223   0.271
 2201SOL    HW2 6632   1.509   1.225   0.419
 2202SOL     OW 6633   2.212   2.680   0.819
 2202SOL    HW1 6634   2.216   2.600   0.760
 2202SOL    HW2 6635   2.286   2.676   0.886
 2203SOL     OW 6636   0.301   1.310   2.751
 2203SOL    HW1 6637   0.371   1.242   2.771
 2203SOL    HW2 6638   0.222   1.295   2.810
 2204SOL     OW 6639   1.669   1.466   4.783
 2204SOL    HW1 6640   1.767   1.481   4.796
 2204SOL    HW2 6641   1.653   1.433   4.690
 2205SOL     OW 6642   0.893   1.978   2.424
 2205SOL    HW1 6643   0.991   1.991   2.440
 2205SOL    HW2 6644   0.856   2.060   2.381
 2206SOL     OW 6645   0.315   4.125   3.584
 2206SOL    HW1 6646   0.228   4.144   3.539
 2206SOL    HW2 6647   0.333   4.196   3.652
 2207SOL     OW 6648   4.823   4.859   4.535
 2207SOL    HW1 6649   4.845   4.840   4.439
 2207SOL    HW2 6650   4.892   4.920   4.573
 2208SOL     OW 6651   0.837   1.172   0.271
 2208SOL    HW1 6652   0.891   1.112   0.213
 2208SOL    HW2 6653   0.740   1.147   0.264
 2209SOL     OW 6654   2.199   1.798   2.963
 2209SOL    HW1 6655   2.269   1.730   2.942
 2209SOL    HW2 6656   2.209   1.828   3.058
 2210SOL     OW 6657   3.462   4.876   4.680
 2210SOL    HW1 6658   3.419   4.966   4.688
 2210SOL    HW2 6659   3.551   4.877   4.726
 2211SOL     OW 6660   1.676   4.308   3.744
 2211SOL    HW1 6661   1.650   4.216   3.773
 2211SOL    HW2 6662   1.755   4.303   3.684
 2212SOL     OW 6663   0.361   3.912   3.771
 2212SOL    HW1 6664   0.454   3.885   3.745
 2212SOL    HW2 6665   0.316   3.956   3.693
 2213SOL     OW 6666   4.637   2.336   1.878
 2213SOL    HW1 6667   4.650   2.302   1.971
 2213SOL    HW2 6668   4.725   2.338   1.831
 2214SOL     OW 6669   3.370   4.871   4.986
 2214SOL    HW1 6670   3.362   4.795   4.922
 2214SOL    HW2 6671   3.287   4.927   4.982
 2215SOL     OW 6672   2.155   0.079   3.222
 2215SOL    HW1 6673   2.203   0.166   3.231
 2215SOL    HW2 6674   2.113   0.055   3.310
 2216SOL     OW 6675   0.379   2.370   2.775
 2216SOL    HW1 6676   0.439   2.443   2.809
 2216SOL    HW2 6677   0.328   2.331   2.852
 2217SOL     OW 6678   0.613   3.080   1.563
 2217SOL    HW1 6679   0.683   3.152   1.552
 2217SOL    HW2 6680   0.614   3.021   1.482
 2218SOL     OW 6681   4.909   2.938   4.274
 2218SOL    HW1 6682   4.851   2.920   4.195
 2218SOL    HW2 6683   4.933   2.852   4.319
 2219SOL     OW 6684   3.894   4.593   1.956
 2219SOL    HW1 6685   3.937   4.544   2.031
 2219SOL    HW2 6686   3.925   4.554   1.869
 2220SOL     OW 6687   1.440   3.360   3.897
 2220SOL    HW1 6688   1.367   3.385   3.960
 2220SOL    HW2 6689   1.526   3.402   3.927
 2221SOL     OW 6690   2.367   0.321   1.525
 2221SOL    HW1 6691   2.368   0.359   1.433
 2221SOL    HW2 6692   2.273   0.300   1.552
 2222SOL     OW 6693   1.994   3.593   2.556
 2222SOL    HW1 6694   1.950   3.682   2.565
 2222SOL    HW2 6695   2.091   3.605   2.538
 2223SOL     OW 6696   2.426   0.142   0.386
 2223SOL    HW1 6697   2.462   0.061   0.339
 2223SOL    HW2 6698   2.387   0.205   0.318
 2224SOL     OW 6699   1.184   3.384   3.328
 2224SOL    HW1 6700   1.196   3.483   3.323
 2224SOL    HW2 6701   1.188   3.354   3.423
 2225SOL     OW 6702   2.285   3.809   1.221
 2225SOL    HW1 6703   2.372   3.819   1.173
 2225SOL    HW2 6704   2.231   3.735   1.179
 2226SOL     OW 6705   4.251   3.438   2.694
 2226SOL    HW1 6706   4.267   3.367   2.625
 2226SOL    HW2 6707   4.156   3.435   2.724
 2227SOL     OW 6708   0.663   0.041   3.504
 2227SOL    HW1 6709   0.616   0.115   3.551
 2227SOL    HW2 6710   0.605   4.995   3.500
 2228SOL     OW 6711   0.973   2.052   3.714
 2228SOL    HW1 6712   0.959   2.116   3.789
 2228SOL    HW2 6713   1.064   2.066   3.675
 2229SOL     OW 6714   2.180   0.623   2.045
 2229SOL    HW1 6715   2.216   0.536   2.081
 2229SOL    HW2 6716   2.252   0.691   2.046
 2230SOL     OW 6717   4.667   1.048   2.706
 2230SOL    HW1 6718   4.642   0.952   2.703
 2230SOL    HW2 6719   4.765   1.059   2.686
 2231SOL     OW 6720   0.520   0.246   3.601
 2231SOL    HW1 6721   0.447   0.251   3.534
 2231SOL    HW2 6722   0.503   0.311   3.674
 2232SOL     OW 6723   4.516   0.883   4.005
 2232SOL    HW1 6724   4.572   0.882   4.088
 2232SOL    HW2 6725   4.513   0.791   3.966
 2233SOL     OW 6726   2.932   0.437   2.196
 2233SOL    HW1 6727   2.855   0.373   2.193
 2233SOL    HW2 6728   2.960   0.451   2.291
 2234SOL     OW 6729   0.871   0.496   1.311
 2234SOL    HW1 6730   0.954   0.443   1.292
 2234SOL    HW2 6731   0.807   0.487   1.235
 2235SOL     OW 6732   2.498   2.373   2.001
 2235SOL    HW1 6733   2.414   2.421   2.026
 2235SOL    HW2 6734   2.534   2.326   2.082
 2236SOL     OW 6735   1.373   4.544   0.782
 2236SOL    HW1 6736   1.316   4.623   0.758
 2236SOL    HW2 6737   1.340   4.504   0.867
 2237SOL     OW 6738   0.115   0.728   3.251
 2237SOL    HW1 6739   0.173   0.756   3.175
 2237SOL    HW2 6740   0.113   0.800   3.321
 2238SOL     OW 6741   2.306   1.176   3.480
 2238SOL    HW1 6742   2.327   1.232   3.400
 2238SOL    HW2 6743   2.352   1.214   3.561
 2239SOL     OW 6744   1.657   4.105   2.700
 2239SOL    HW1 6745   1.598   4.030   2.674
 2239SOL    HW2 6746   1.701   4.085   2.788
 2240SOL     OW 6747   2.307   1.661   0.041
 2240SOL    HW1 6748   2.345   1.714   0.117
 2240SOL    HW2 6749   2.277   1.724   5.004
 2241SOL     OW 6750   3.573   2.357   1.413
 2241SOL    HW1 6751   3.576   2.346   1.512
 2241SOL    HW2 6752   3.500   2.421   1.389
 2242SOL     OW 6753   0.000   2.706   4.724
 2242SOL    HW1 6754   0.002   2.652   4.808
 2242SOL    HW2 6755   0.087   2.694   4.675
 2243SOL     OW 6756   0.688   2.929   2.876
 2243SOL    HW1 6757   0.608   2.888   2.919
 2243SOL    HW2 6758   0.664   2.965   2.786
 2244SOL     OW 6759   4.374   0.763   2.569
 2244SOL    HW1 6760   4.329   0.707   2.638
 2244SOL    HW2 6761   4.304   0.813   2.517
 2245SOL     OW 6762   3.924   2.464   1.766
 2245SOL    HW1 6763   3.865   2.484   1.688
 2245SOL    HW2 6764   3.895   2.517   1.845
 2246SOL     OW 6765   1.493   3.211   0.872
 2246SOL    HW1 6766   1.417   3.193   0.934
 2246SOL    HW2 6767   1.577   3.171   0.909
 2247SOL     OW 6768   1.221   1.393   4.266
 2247SOL    HW1 6769   1.170   1.418   4.349
 2247SOL    HW2 6770   1.200   1.298   4.242
 2248SOL     OW 6771   3.438   0.276   5.019
 2248SOL    HW1 6772   3.354   0.283   4.965
 2248SOL    HW2 6773   3.511   0.238   4.963
 2249SOL     OW 6774   3.535   5.012   4.233
 2249SOL    HW1 6775   3.507   4.931   4.182
 2249SOL    HW2 6776   3.588   4.985   4.313
 2250SOL     OW 6777   1.769   4.183   2.456
 2250SOL    HW1 6778   1.718   4.151   2.535
 2250SOL    HW2 6779   1.724   4.152   2.372
 2251SOL     OW 6780   1.782   4.987   1.184
 2251SOL    HW1 6781   1.855   4.961   1.248
 2251SOL    HW2 6782   1.698   5.002   1.236
 2252SOL     OW 6783   4.747   0.434   0.179
 2252SOL    HW1 6784   4.714   0.375   0.252
 2252SOL    HW2 6785   4.755   0.381   0.094
 2253SOL     OW 6786   2.962   1.215   2.966
 2253SOL    HW1 6787   2.929   1.260   2.883
 2253SOL    HW2 6788   3.043   1.263   3.000
 2254SOL     OW 6789   3.317   3.340   4.711
 2254SOL    HW1 6790   3.276   3.418   4.665
 2254SOL    HW2 6791   3.248   3.292   4.766
 2255SOL     OW 6792   1.708   2.225   2.668
 2255SOL    HW1 6793   1.737   2.287   2.595
 2255SOL    HW2 6794   1.780   2.159   2.687
 2256SOL     OW 6795   2.327   1.117   4.396
 2256SOL    HW1 6796   2.418   1.155   4.415
 2256SOL    HW2 6797   2.281   1.096   4.482
 2257SOL     OW 6798   0.318   3.391   2.726
 2257SOL    HW1 6799   0.348   3.304   2.764
 2257SOL    HW2 6800   0.218   3.393   2.722
 2258SOL     OW 6801   4.945   4.066   4.848
 2258SOL    HW1 6802   4.891   3.984   4.867
 2258SOL    HW2 6803   4.936   4.130   4.924
 2259SOL     OW 6804   3.943   1.378   2.516
 2259SOL    HW1 6805   4.033   1.344   2.543
 2259SOL    HW2 6806   3.883   1.300   2.493
 2260SOL     OW 6807   2.519   4.039   2.765
 2260SOL    HW1 6808   2.510   4.139   2.766
 2260SOL    HW2 6809   2.613   4.014   2.788
 2261SOL     OW 6810   0.339   2.339   3.885
 2261SOL    HW1 6811   0.264   2.388   3.927
 2261SOL    HW2 6812   0.326   2.335   3.786
 2262SOL     OW 6813   3.367   1.725   2.406
 2262SOL    HW1 6814   3.373   1.690   2.500
 2262SOL    HW2 6815   3.377   1.825   2.407
 2263SOL     OW 6816   2.824   1.096   0.575
 2263SOL    HW1 6817   2.820   1.077   0.478
 2263SOL    HW2 6818   2.839   1.194   0.589
 2264SOL     OW 6819   4.281   1.556   3.612
 2264SOL    HW1 6820   4.245   1.493   3.681
 2264SOL    HW2 6821   4.241   1.535   3.523
 2265SOL     OW 6822   2.756   3.237   0.490
 2265SOL    HW1 6823   2.716   3.215   0.578
 2265SOL    HW2 6824   2.795   3.329   0.494
 2266SOL     OW 6825   0.627   0.979   3.871
 2266SOL    HW1 6826   0.639   1.066   3.918
 2266SOL    HW2 6827   0.706   0.920   3.888
 2267SOL     OW 6828   1.641   4.026   0.488
 2267SOL    HW1 6829   1.723   3.988   0.531
 2267SOL    HW2 6830   1.641   4.005   0.390
 2268SOL     OW 6831   1.707   3.034   0.047
 2268SOL    HW1 6832   1.661   3.046   4.994
 2268SOL    HW2 6833   1.665   3.095   0.115
 2269SOL     OW 6834   3.295   4.738   2.116
 2269SOL    HW1 6835   3.306   4.799   2.037
 2269SOL    HW2 6836   3.326   4.646   2.091
 2270SOL     OW 6837   2.501   1.488   4.965
 2270SOL    HW1 6838   2.464   1.439   4.886
 2270SOL    HW2 6839   2.427   1.539   5.010
 2271SOL     OW 6840   3.705   3.801   0.040
 2271SOL    HW1 6841   3.763   3.726   0.071
 2271SOL    HW2 6842   3.742   3.838   4.989
 2272SOL     OW 6843   3.626   1.758   3.901
 2272SOL    HW1 6844   3.544   1.814   3.905
 2272SOL    HW2 6845   3.656   1.748   3.806
 2273SOL     OW 6846   0.553   3.995   3.466
 2273SOL    HW1 6847   0.454   4.004   3.456
 2273SOL    HW2 6848   0.590   4.076   3.511
 2274SOL     OW 6849   3.124   1.595   2.343
 2274SOL    HW1 6850   3.218   1.630   2.352
 2274SOL    HW2 6851   3.088   1.574   2.433
 2275SOL     OW 6852   3.104   3.501   2.972
 2275SOL    HW1 6853   3.062   3.413   2.951
 2275SOL    HW2 6854   3.093   3.563   2.894
 2276SOL     OW 6855   3.179   2.912   1.308
 2276SOL    HW1 6856   3.120   2.945   1.234
 2276SOL    HW2 6857   3.166   2.813   1.319
 2277SOL     OW 6858   2.583   1.776   1.926
 2277SOL    HW1 6859   2.544   1.688   1.951
 2277SOL    HW2 6860   2.532   1.849   1.971
 2278SOL     OW 6861   4.499   1.757   0.957
 2278SOL    HW1 6862   4.400   1.745   0.956
 2278SOL    HW2 6863   4.530   1.784   0.866
 2279SOL     OW 6864   1.115   3.435   0.457
 2279SOL    HW1 6865   1.119   3.407   0.361
 2279SOL    HW2 6866   1.203   3.475   0.484
 2280SOL     OW 6867   4.717   4.438   3.225
 2280SOL    HW1 6868   4.767   4.484   3.151
 2280SOL    HW2 6869   4.781   4.402   3.292
 2281SOL     OW 6870   4.747   4.958   3.536
 2281SOL    HW1 6871   4.713   4.939   3.628
 2281SOL    HW2 6872   4.766   0.021   3.528
 2282SOL     OW 6873   3.038   1.508   2.591
 2282SOL    HW1 6874   3.049   1.545   2.683
 2282SOL    HW2 6875   3.056   1.409   2.593
 2283SOL     OW 6876   3.992   1.913   4.011
 2283SOL    HW1 6877   3.916   1.976   3.996
 2283SOL    HW2 6878   4.062   1.929   3.941
 2284SOL     OW 6879   0.274   0.360   4.013
 2284SOL    HW1 6880   0.250   0.276   4.061
 2284SOL    HW2 6881   0.276   0.343   3.915
 2285SOL     OW 6882   3.791   4.220   4.748
 2285SOL    HW1 6883   3.857   4.161   4.701
 2285SOL    HW2 6884   3.741   4.166   4.815
 2286SOL     OW 6885   2.585   3.617   4.397
 2286SOL    HW1 6886   2.540   3.569   4.322
 2286SOL    HW2 6887   2.683   3.601   4.392
 2287SOL     OW 6888   1.969   0.936   4.578
 2287SOL    HW1 6889   1.939   0.887   4.496
 2287SOL    HW2 6890   1.972   0.873   4.655
 2288SOL     OW 6891   2.450   1.122   0.927
 2288SOL    HW1 6892   2.361   1.103   0.884
 2288SOL    HW2 6893   2.520   1.065   0.884
 2289SOL     OW 6894   4.402   2.824   0.825
 2289SOL    HW1 6895   4.436   2.730   0.822
 2289SOL    HW2 6896   4.441   2.875   0.748
 2290SOL     OW 6897   1.100   1.466   1.467
 2290SOL    HW1 6898   1.051   1.407   1.403
 2290SOL    HW2 6899   1.034   1.516   1.523
 2291SOL     OW 6900   3.904   1.194   0.233
 2291SOL    HW1 6901   3.997   1.229   0.221
 2291SOL    HW2 6902   3.838   1.266   0.212
 2292SOL     OW 6903   3.819   4.650   3.608
 2292SOL    HW1 6904   3.915   4.634   3.631
 2292SOL    HW2 6905   3.761   4.585   3.659
 2293SOL     OW 6906   0.015   3.944   0.691
 2293SOL    HW1 6907   0.107   3.978   0.671
 2293SOL    HW2 6908   0.017   3.844   0.698
 2294SOL     OW 6909   2.459   2.709   4.633
 2294SOL    HW1 6910   2.478   2.758   4.718
 2294SOL    HW2 6911   2.364   2.726   4.606
 2295SOL     OW 6912   3.391   2.902   3.785
 2295SOL    HW1 6913   3.428   2.977   3.729
 2295SOL    HW2 6914   3.423   2.912   3.879
 2296SOL     OW 6915   4.549   1.755   4.820
 2296SOL    HW1 6916   4.573   1.851   4.803
 2296SOL    HW2 6917   4.578   1.699   4.742
 2297SOL     OW 6918   1.701   1.930   1.664
 2297SOL    HW1 6919   1.666   2.018   1.632
 2297SOL    HW2 6920   1.647   1.899   1.742
 2298SOL     OW 6921   1.995   0.360   3.500
 2298SOL    HW1 6922   1.973   0.284   3.562
 2298SOL    HW2 6923   1.919   0.372   3.436
 2299SOL     OW 6924   2.658   2.107   3.998
 2299SOL    HW1 6925   2.644   2.142   4.091
 2299SOL    HW2 6926   2.581   2.135   3.940
 2300SOL     OW 6927   2.002   1.235   1.196
 2300SOL    HW1 6928   1.914   1.281   1.183
 2300SOL    HW2 6929   2.066   1.299   1.238
 2301SOL     OW 6930   3.034   1.352   0.329
 2301SOL    HW1 6931   2.945   1.384   0.363
 2301SOL    HW2 6932   3.021   1.313   0.237
 2302SOL     OW 6933   1.996   0.532   1.681
 2302SOL    HW1 6934   1.900   0.559   1.681
 2302SOL    HW2 6935   2.053   0.612   1.695
 2303SOL     OW 6936   4.960   2.248   1.976
 2303SOL    HW1 6937   0.020   2.230   2.003
 2303SOL    HW2 6938   4.957   2.267   1.878
 2304SOL     OW 6939   4.514   2.924   2.531
 2304SOL    HW1 6940   4.553   2.993   2.470
 2304SOL    HW2 6941   4.551   2.834   2.508
 2305SOL     OW 6942   1.506   4.728   4.794
 2305SOL    HW1 6943   1.437   4.701   4.726
 2305SOL    HW2 6944   1.559   4.647   4.820
 2306SOL     OW 6945   4.949   2.491   1.566
 2306SOL    HW1 6946   4.852   2.496   1.546
 2306SOL    HW2 6947   4.969   2.545   1.648
 2307SOL     OW 6948   2.265   2.998   1.205
 2307SOL    HW1 6949   2.176   3.010   1.248
 2307SOL    HW2 6950   2.336   3.034   1.266
 2308SOL     OW 6951   0.407   4.026   1.795
 2308SOL    HW1 6952   0.414   4.115   1.750
 2308SOL    HW2 6953   0.348   4.034   1.876
 2309SOL     OW 6954   1.513   2.485   3.084
 2309SOL    HW1 6955   1.591   2.471   3.144
 2309SOL    HW2 6956   1.525   2.433   3.000
 2310SOL     OW 6957   2.978   1.209   4.787
 2310SOL    HW1 6958   3.022   1.127   4.751
 2310SOL    HW2 6959   3.011   1.228   4.879
 2311SOL     OW 6960   2.137   2.226   1.481
 2311SOL    HW1 6961   2.079   2.189   1.554
 2311SOL    HW2 6962   2.169   2.317   1.506
 2312SOL     OW 6963   3.446   4.779   0.305
 2312SOL    HW1 6964   3.455   4.711   0.232
 2312SOL    HW2 6965   3.519   4.765   0.372
 2313SOL     OW 6966   3.469   0.132   3.827
 2313SOL    HW1 6967   3.409   0.211   3.818
 2313SOL    HW2 6968   3.540   0.151   3.896
 2314SOL     OW 6969   2.090   2.864   0.986
 2314SOL    HW1 6970   2.137   2.811   0.916
 2314SOL    HW2 6971   2.157   2.903   1.050
 2315SOL     OW 6972   4.551   4.868   1.413
 2315SOL    HW1 6973   4.571   4.792   1.350
 2315SOL    HW2 6974   4.486   4.836   1.483
 2316SOL     OW 6975   4.628   2.260   3.825
 2316SOL    HW1 6976   4.567   2.339   3.824
 2316SOL    HW2 6977   4.714   2.285   3.870
 2317SOL     OW 6978   3.872   4.498   2.436
 2317SOL    HW1 6979   3.834   4.590   2.439
 2317SOL    HW2 6980   3.972   4.504   2.425
 2318SOL     OW 6981   0.707   4.950   4.052
 2318SOL    HW1 6982   0.735   4.861   4.017
 2318SOL    HW2 6983   0.632   4.986   3.995
 2319SOL     OW 6984   2.524   4.640   0.940
 2319SOL    HW1 6985   2.527   4.541   0.955
 2319SOL    HW2 6986   2.610   4.670   0.898
 2320SOL     OW 6987   0.824   4.355   0.660
 2320SOL    HW1 6988   0.914   4.346   0.702
 2320SOL    HW2 6989   0.829   4.421   0.585
 2321SOL     OW 6990   1.264   1.733   4.721
 2321SOL    HW1 6991   1.209   1.779   4.790
 2321SOL    HW2 6992   1.342   1.689   4.765
 2322SOL     OW 6993   3.238   3.726   1.658
 2322SOL    HW1 6994   3.261   3.816   1.620
 2322SOL    HW2 6995   3.149   3.731   1.703
 2323SOL     OW 6996   4.232   2.113   4.124
 2323SOL    HW1 6997   4.212   2.107   4.026
 2323SOL    HW2 6998   4.211   2.025   4.167
 2324SOL     OW 6999   3.883   3.233   1.196
 2324SOL    HW1 7000   3.931   3.284   1.267
 2324SOL    HW2 7001   3.795   3.277   1.177
 2325SOL     OW 7002   4.154   3.603   4.519
 2325SOL    HW1 7003   4.162   3.696   4.483
 2325SOL    HW2 7004   4.237   3.551   4.496
 2326SOL     OW 7005   0.062   0.455   0.029
 2326SOL    HW1 7006   0.134   0.452   4.994
 2326SOL    HW2 7007   0.104   0.471   0.119
 2327SOL     OW 7008   1.881   1.516   4.339
 2327SOL    HW1 7009   1.815   1.518   4.414
 2327SOL    HW2 7010   1.962   1.465   4.368
 2328SOL     OW 7011   0.086   5.000   4.317
 2328SOL    HW1 7012   0.103   4.917   4.263
 2328SOL    HW2 7013   5.033   0.005   4.291
 2329SOL     OW 7014   2.022   0.998   1.064
 2329SOL    HW1 7015   2.036   1.089   1.102
 2329SOL    HW2 7016   2.012   1.005   0.965
 2330SOL     OW 7017   2.128   4.030   1.085
 2330SOL    HW1 7018   2.104   4.122   1.115
 2330SOL    HW2 7019   2.081   3.963   1.143
 2331SOL     OW 7020   4.041   3.118   0.543
 2331SOL    HW1 7021   3.977   3.089   0.472
 2331SOL    HW2 7022   4.024   3.065   0.627
 2332SOL     OW 7023   2.581   0.679   4.272
 2332SOL    HW1 7024   2.548   0.769   4.243
 2332SOL    HW2 7025   2.597   0.679   4.370
 2333SOL     OW 7026   2.912   3.233   1.101
 2333SOL    HW1 7027   2.816   3.225   1.074
 2333SOL    HW2 7028   2.954   3.142   1.101
 2334SOL     OW 7029   4.475   0.327   3.412
 2334SOL    HW1 7030   4.409   0.400   3.397
 2334SOL    HW2 7031   4.507   0.329   3.507
 2335SOL     OW 7032   0.588   0.847   3.644
 2335SOL    HW1 7033   0.499   0.822   3.605
 2335SOL    HW2 7034   0.575   0.895   3.730
 2336SOL     OW 7035   2.712   4.289   1.168
 2336SOL    HW1 7036   2.743   4.378   1.200
 2336SOL    HW2 7037   2.698   4.228   1.246
 2337SOL     OW 7038   2.570   3.768   1.458
 2337SOL    HW1 7039   2.517   3.688   1.484
 2337SOL    HW2 7040   2.640   3.785   1.527
 2338SOL     OW 7041   4.390   1.344   3.868
 2338SOL    HW1 7042   4.469   1.334   3.928
 2338SOL    HW2 7043   4.328   1.412   3.905
 2339SOL     OW 7044   4.241   1.531   1.407
 2339SOL    HW1 7045   4.278   1.452   1.359
 2339SOL    HW2 7046   4.272   1.529   1.503
 2340SOL     OW 7047   3.426   2.112   1.273
 2340SOL    HW1 7048   3.451   2.209   1.277
 2340SOL    HW2 7049   3.431   2.080   1.179
 2341SOL     OW 7050   0.133   2.980   4.818
 2341SOL    HW1 7051   0.057   2.959   4.757
 2341SOL    HW2 7052   0.219   2.968   4.769
 2342SOL     OW 7053   1.374   3.766   0.385
 2342SOL    HW1 7054   1.424   3.762   0.471
 2342SOL    HW2 7055   1.280   3.794   0.402
 2343SOL     OW 7056   0.593   4.102   0.637
 2343SOL    HW1 7057   0.625   4.015   0.600
 2343SOL    HW2 7058   0.646   4.177   0.597
 2344SOL     OW 7059   4.896   0.505   3.518
 2344SOL    HW1 7060   4.877   0.426   3.460
 2344SOL    HW2 7061   4.811   0.534   3.562
 2345SOL     OW 7062   3.224   3.088   4.004
 2345SOL    HW1 7063   3.144   3.140   3.975
 2345SOL    HW2 7064   3.307   3.137   3.977
 2346SOL     OW 7065   1.208   4.061   2.089
 2346SOL    HW1 7066   1.129   4.062   2.151
 2346SOL    HW2 7067   1.267   4.138   2.109
 2347SOL     OW 7068   4.980   0.233   4.869
 2347SOL    HW1 7069   4.982   0.292   4.788
 2347SOL    HW2 7070   4.931   0.280   4.943
 2348SOL     OW 7071   0.906   1.512   4.582
 2348SOL    HW1 7072   0.928   1.559   4.497
 2348SOL    HW2 7073   0.816   1.541   4.614
 2349SOL     OW 7074   3.575   2.951   4.711
 2349SOL    HW1 7075   3.497   2.960   4.773
 2349SOL    HW2 7076   3.543   2.923   4.621
 2350SOL     OW 7077   4.471   2.579   0.721
 2350SOL    HW1 7078   4.413   2.497   0.731
 2350SOL    HW2 7079   4.474   2.606   0.625
 2351SOL     OW 7080   1.279   0.876   2.734
 2351SOL    HW1 7081   1.235   0.874   2.644
 2351SOL    HW2 7082   1.318   0.966   2.750
 2352SOL     OW 7083   4.132   0.805   2.362
 2352SOL    HW1 7084   4.041   0.795   2.322
 2352SOL    HW2 7085   4.199   0.818   2.288
 2353SOL     OW 7086   3.829   0.207   4.293
 2353SOL    HW1 7087   3.816   0.305   4.308
 2353SOL    HW2 7088   3.779   0.156   4.364
 2354SOL     OW 7089   4.700   4.739   4.996
 2354SOL    HW1 7090   4.768   4.665   5.000
 2354SOL    HW2 7091   4.725   4.804   4.924
 2355SOL     OW 7092   2.563   1.418   2.115
 2355SOL    HW1 7093   2.521   1.463   2.036
 2355SOL    HW2 7094   2.520   1.451   2.199
 2356SOL     OW 7095   1.643   0.568   3.203
 2356SOL    HW1 7096   1.646   0.477   3.162
 2356SOL    HW2 7097   1.548   0.593   3.222
 2357SOL     OW 7098   3.505   1.203   1.020
 2357SOL    HW1 7099   3.415   1.163   1.003
 2357SOL    HW2 7100   3.532   1.259   0.941
 2358SOL     OW 7101   1.690   1.276   1.361
 2358SOL    HW1 7102   1.591   1.287   1.353
 2358SOL    HW2 7103   1.722   1.317   1.446
 2359SOL     OW 7104   3.061   0.461   4.307
 2359SOL    HW1 7105   3.157   0.471   4.280
 2359SOL    HW2 7106   3.031   0.546   4.351
 2360SOL     OW 7107   4.057   1.687   1.865
 2360SOL    HW1 7108   4.038   1.703   1.962
 2360SOL    HW2 7109   4.121   1.757   1.832
 2361SOL     OW 7110   2.244   1.970   1.086
 2361SOL    HW1 7111   2.304   2.014   1.153
 2361SOL    HW2 7112   2.264   1.872   1.082
 2362SOL     OW 7113   0.951   1.503   1.777
 2362SOL    HW1 7114   1.049   1.493   1.793
 2362SOL    HW2 7115   0.918   1.588   1.818
 2363SOL     OW 7116   5.022   0.264   4.388
 2363SOL    HW1 7117   4.982   0.194   4.328
 2363SOL    HW2 7118   0.012   0.344   4.333
 2364SOL     OW 7119   2.676   0.578   0.419
 2364SOL    HW1 7120   2.666   0.480   0.405
 2364SOL    HW2 7121   2.758   0.595   0.474
 2365SOL     OW 7122   1.443   3.821   0.768
 2365SOL    HW1 7123   1.371   3.756   0.793
 2365SOL    HW2 7124   1.512   3.824   0.840
 2366SOL     OW 7125   1.227   3.265   3.579
 2366SOL    HW1 7126   1.323   3.276   3.607
 2366SOL    HW2 7127   1.213   3.172   3.545
 2367SOL     OW 7128   1.904   0.114   4.402
 2367SOL    HW1 7129   1.840   0.177   4.357
 2367SOL    HW2 7130   1.852   0.040   4.446
 2368SOL     OW 7131   0.598   3.934   2.773
 2368SOL    HW1 7132   0.688   3.909   2.809
 2368SOL    HW2 7133   0.565   3.862   2.712
 2369SOL     OW 7134   1.248   3.384   4.097
 2369SOL    HW1 7135   1.306   3.364   4.176
 2369SOL    HW2 7136   1.162   3.335   4.106
 2370SOL     OW 7137   2.870   4.874   2.118
 2370SOL    HW1 7138   2.913   4.897   2.205
 2370SOL    HW2 7139   2.818   4.789   2.127
 2371SOL     OW 7140   1.844   2.944   3.865
 2371SOL    HW1 7141   1.770   2.913   3.806
 2371SOL    HW2 7142   1.874   2.869   3.925
 2372SOL     OW 7143   2.758   2.612   1.918
 2372SOL    HW1 7144   2.719   2.541   1.860
 2372SOL    HW2 7145   2.722   2.603   2.011
 2373SOL     OW 7146   4.494   1.058   2.417
 2373SOL    HW1 7147   4.406   1.088   2.380
 2373SOL    HW2 7148   4.479   1.005   2.500
 2374SOL     OW 7149   1.576   4.216   1.563
 2374SOL    HW1 7150   1.509   4.256   1.625
 2374SOL    HW2 7151   1.615   4.133   1.604
 2375SOL     OW 7152   0.656   3.591   0.755
 2375SOL    HW1 7153   0.716   3.543   0.691
 2375SOL    HW2 7154   0.702   3.601   0.843
 2376SOL     OW 7155   2.651   0.303   0.404
 2376SOL    HW1 7156   2.562   0.257   0.408
 2376SOL    HW2 7157   2.695   0.283   0.317
 2377SOL     OW 7158   2.881   3.257   3.038
 2377SOL    HW1 7159   2.887   3.198   3.118
 2377SOL    HW2 7160   2.933   3.218   2.962
 2378SOL     OW 7161   2.125   3.074   0.756
 2378SOL    HW1 7162   2.159   3.103   0.666
 2378SOL    HW2 7163   2.203   3.059   0.817
 2379SOL     OW 7164   3.198   4.694   0.113
 2379SOL    HW1 7165   3.227   4.786   0.141
 2379SOL    HW2 7166   3.241   4.672   0.025
 2380SOL     OW 7167   1.863   3.332   4.600
 2380SOL    HW1 7168   1.771   3.297   4.581
 2380SOL    HW2 7169   1.882   3.324   4.698
 2381SOL     OW 7170   1.841   0.134   1.743
 2381SOL    HW1 7171   1.892   0.056   1.779
 2381SOL    HW2 7172   1.870   0.153   1.650
 2382SOL     OW 7173   1.857   2.990   0.828
 2382SOL    HW1 7174   1.867   3.073   0.883
 2382SOL    HW2 7175   1.947   2.960   0.798
 2383SOL     OW 7176   1.966   5.000   0.595
 2383SOL    HW1 7177   1.959   0.007   0.686
 2383SOL    HW2 7178   1.879   5.010   0.547
 2384SOL     OW 7179   4.301   1.832   3.830
 2384SOL    HW1 7180   4.355   1.838   3.913
 2384SOL    HW2 7181   4.355   1.864   3.752
 2385SOL     OW 7182   0.615   1.793   2.975
 2385SOL    HW1 7183   0.573   1.842   3.051
 2385SOL    HW2 7184   0.582   1.699   2.973
 2386SOL     OW 7185   1.281   1.841   0.644
 2386SOL    HW1 7186   1.333   1.926   0.648
 2386SOL    HW2 7187   1.223   1.833   0.724
 2387SOL     OW 7188   2.837   4.544   1.132
 2387SOL    HW1 7189   2.814   4.640   1.148
 2387SOL    HW2 7190   2.904   4.538   1.057
 2388SOL     OW 7191   1.820   2.775   1.094
 2388SOL    HW1 7192   1.783   2.699   1.040
 2388SOL    HW2 7193   1.883   2.829   1.038
 2389SOL     OW 7194   4.686   3.795   3.139
 2389SOL    HW1 7195   4.693   3.808   3.237
 2389SOL    HW2 7196   4.655   3.702   3.119
 2390SOL     OW 7197   1.166   0.303   4.239
 2390SOL    HW1 7198   1.176   0.289   4.141
 2390SOL    HW2 7199   1.189   0.218   4.287
 2391SOL     OW 7200   4.628   0.094   1.765
 2391SOL    HW1 7201   4.648   0.022   1.699
 2391SOL    HW2 7202   4.674   0.074   1.852
 2392SOL     OW 7203   4.458   1.105   3.256
 2392SOL    HW1 7204   4.449   1.062   3.166
 2392SOL    HW2 7205   4.536   1.065   3.304
 2393SOL     OW 7206   3.293   0.435   0.557
 2393SOL    HW1 7207   3.384   0.463   0.528
 2393SOL    HW2 7208   3.301   0.370   0.632
 2394SOL     OW 7209   3.267   3.162   4.293
 2394SOL    HW1 7210   3.184   3.107   4.283
 2394SOL    HW2 7211   3.311   3.172   4.204
 2395SOL     OW 7212   4.356   3.560   3.718
 2395SOL    HW1 7213   4.361   3.505   3.635
 2395SOL    HW2 7214   4.336   3.501   3.796
 2396SOL     OW 7215   3.919   2.815   3.251
 2396SOL    HW1 7216   3.986   2.870   3.300
 2396SOL    HW2 7217   3.889   2.864   3.169
 2397SOL     OW 7218   3.217   3.565   4.235
 2397SOL    HW1 7219   3.182   3.655   4.263
 2397SOL    HW2 7220   3.235   3.510   4.316
 2398SOL     OW 7221   2.365   0.832   2.903
 2398SOL    HW1 7222   2.310   0.750   2.921
 2398SOL    HW2 7223   2.406   0.864   2.988
 2399SOL     OW 7224   4.249   4.016   0.994
 2399SOL    HW1 7225   4.293   3.947   0.937
 2399SOL    HW2 7226   4.201   4.081   0.936
 2400SOL     OW 7227   4.043   2.205   1.291
 2400SOL    HW1 7228   3.951   2.222   1.255
 2400SOL    HW2 7229   4.057   2.107   1.301
 2401SOL     OW 7230   4.947   2.933   4.625
 2401SOL    HW1 7231   4.967   2.841   4.659
 2401SOL    HW2 7232   5.014   2.958   4.555
 2402SOL     OW 7233   3.934   4.026   0.218
 2402SOL    HW1 7234   3.849   4.078   0.220
 2402SOL    HW2 7235   3.998   4.069   0.155
 2403SOL     OW 7236   1.743   4.976   0.197
 2403SOL    HW1 7237   1.745   0.032   0.239
 2403SOL    HW2 7238   1.824   4.963   0.141
 2404SOL     OW 7239   3.148   3.284   1.560
 2404SOL    HW1 7240   3.231   3.320   1.602
 2404SOL    HW2 7241   3.154   3.184   1.553
 2405SOL     OW 7242   2.112   3.770   2.788
 2405SOL    HW1 7243   2.083   3.841   2.723
 2405SOL    HW2 7244   2.083   3.797   2.880
 2406SOL     OW 7245   2.954   4.671   0.269
 2406SOL    HW1 7246   3.047   4.689   0.236
 2406SOL    HW2 7247   2.956   4.666   0.369
 2407SOL     OW 7248   0.888   3.325   0.931
 2407SOL    HW1 7249   0.804   3.307   0.880
 2407SOL    HW2 7250   0.865   3.357   1.023
 2408SOL     OW 7251   0.907   2.881   0.538
 2408SOL    HW1 7252   0.916   2.782   0.535
 2408SOL    HW2 7253   0.829   2.905   0.596
 2409SOL     OW 7254   3.634   3.984   2.949
 2409SOL    HW1 7255   3.612   4.079   2.927
 2409SOL    HW2 7256   3.626   3.928   2.867
 2410SOL     OW 7257   0.244   0.750   0.813
 2410SOL    HW1 7258   0.319   0.816   0.819
 2410SOL    HW2 7259   0.271   0.665   0.858
 2411SOL     OW 7260   4.113   4.332   1.753
 2411SOL    HW1 7261   4.185   4.274   1.791
 2411SOL    HW2 7262   4.026   4.310   1.797
 2412SOL     OW 7263   1.203   1.106   4.538
 2412SOL    HW1 7264   1.120   1.157   4.515
 2412SOL    HW2 7265   1.179   1.031   4.600
 2413SOL     OW 7266   4.658   3.754   1.730
 2413SOL    HW1 7267   4.577   3.713   1.689
 2413SOL    HW2 7268   4.631   3.802   1.814
 2414SOL     OW 7269   4.272   3.535   0.622
 2414SOL    HW1 7270   4.206   3.462   0.640
 2414SOL    HW2 7271   4.249   3.615   0.677
 2415SOL     OW 7272   0.645   0.232   4.957
 2415SOL    HW1 7273   0.594   0.147   4.972
 2415SOL    HW2 7274   0.732   0.209   4.913
 2416SOL     OW 7275   0.190   4.165   1.069
 2416SOL    HW1 7276   0.266   4.228   1.053
 2416SOL    HW2 7277   0.113   4.192   1.012
 2417SOL     OW 7278   0.797   0.308   2.934
 2417SOL    HW1 7279   0.720   0.315   2.871
 2417SOL    HW2 7280   0.883   0.316   2.884
 2418SOL     OW 7281   4.755   3.551   3.326
 2418SOL    HW1 7282   4.669   3.598   3.346
 2418SOL    HW2 7283   4.828   3.619   3.313
 2419SOL     OW 7284   4.867   0.432   2.351
 2419SOL    HW1 7285   4.940   0.388   2.299
 2419SOL    HW2 7286   4.779   0.408   2.311
 2420SOL     OW 7287   1.096   3.620   3.542
 2420SOL    HW1 7288   1.022   3.586   3.483
 2420SOL    HW2 7289   1.153   3.684   3.490
 2421SOL     OW 7290   3.247   0.993   1.436
 2421SOL    HW1 7291   3.208   0.903   1.458
 2421SOL    HW2 7292   3.320   0.982   1.368
 2422SOL     OW 7293   4.876   3.500   1.378
 2422SOL    HW1 7294   4.795   3.496   1.319
 2422SOL    HW2 7295   4.937   3.573   1.346
 2423SOL     OW 7296   2.576   4.225   4.950
 2423SOL    HW1 7297   2.540   4.313   4.980
 2423SOL    HW2 7298   2.500   4.165   4.926
 2424SOL     OW 7299   0.114   2.921   4.009
 2424SOL    HW1 7300   0.085   2.839   4.057
 2424SOL    HW2 7301   0.207   2.946   4.039
 2425SOL     OW 7302   0.243   2.788   0.158
 2425SOL    HW1 7303   0.195   2.805   0.245
 2425SOL    HW2 7304   0.257   2.875   0.111
 2426SOL     OW 7305   1.201   4.957   1.373
 2426SOL    HW1 7306   1.242   4.915   1.292
 2426SOL    HW2 7307   1.255   4.933   1.454
 2427SOL     OW 7308   1.418   3.566   4.416
 2427SOL    HW1 7309   1.510   3.548   4.380
 2427SOL    HW2 7310   1.413   3.535   4.511
 2428SOL     OW 7311   4.374   3.282   0.183
 2428SOL    HW1 7312   4.287   3.237   0.168
 2428SOL    HW2 7313   4.380   3.312   0.279
 2429SOL     OW 7314   2.259   4.272   2.016
 2429SOL    HW1 7315   2.222   4.362   2.037
 2429SOL    HW2 7316   2.211   4.203   2.069
 2430SOL     OW 7317   1.404   4.188   0.101
 2430SOL    HW1 7318   1.404   4.138   0.188
 2430SOL    HW2 7319   1.423   4.284   0.119
 2431SOL     OW 7320   2.707   2.638   0.936
 2431SOL    HW1 7321   2.667   2.689   0.859
 2431SOL    HW2 7322   2.648   2.560   0.958
 2432SOL     OW 7323   2.988   0.980   1.905
 2432SOL    HW1 7324   2.965   1.034   1.824
 2432SOL    HW2 7325   3.072   1.017   1.946
 2433SOL     OW 7326   2.238   1.047   4.641
 2433SOL    HW1 7327   2.251   1.099   4.725
 2433SOL    HW2 7328   2.144   1.013   4.637
 2434SOL     OW 7329   2.571   4.291   1.858
 2434SOL    HW1 7330   2.483   4.244   1.858
 2434SOL    HW2 7331   2.623   4.266   1.776
 2435SOL     OW 7332   4.374   1.106   0.597
 2435SOL    HW1 7333   4.282   1.094   0.558
 2435SOL    HW2 7334   4.392   1.034   0.664
 2436SOL     OW 7335   2.580   0.548   1.318
 2436SOL    HW1 7336   2.517   0.566   1.393
 2436SOL    HW2 7337   2.600   0.634   1.270
 2437SOL     OW 7338   1.580   5.003   1.377
 2437SOL    HW1 7339   1.624   4.924   1.421
 2437SOL    HW2 7340   1.526   0.018   1.445
 2438SOL     OW 7341   2.241   4.326   3.635
 2438SOL    HW1 7342   2.227   4.286   3.725
 2438SOL    HW2 7343   2.213   4.422   3.636
 2439SOL     OW 7344   0.677   0.492   4.113
 2439SOL    HW1 7345   0.733   0.410   4.103
 2439SOL    HW2 7346   0.596   0.472   4.167
 2440SOL     OW 7347   0.455   0.515   3.662
 2440SOL    HW1 7348   0.363   0.527   3.623
 2440SOL    HW2 7349   0.454   0.537   3.759
 2441SOL     OW 7350   1.844   4.110   0.200
 2441SOL    HW1 7351   1.744   4.110   0.201
 2441SOL    HW2 7352   1.878   4.019   0.176
 2442SOL     OW 7353   3.032   4.202   4.991
 2442SOL    HW1 7354   2.933   4.195   4.977
 2442SOL    HW2 7355   3.055   4.175   0.050
 2443SOL     OW 7356   4.774   2.206   2.950
 2443SOL    HW1 7357   4.855   2.149   2.938
 2443SOL    HW2 7358   4.780   2.253   3.038
 2444SOL     OW 7359   0.838   4.983   2.578
 2444SOL    HW1 7360   0.823   4.903   2.521
 2444SOL    HW2 7361   0.841   4.956   2.674
 2445SOL     OW 7362   2.389   3.954   0.250
 2445SOL    HW1 7363   2.391   4.000   0.338
 2445SOL    HW2 7364   2.434   3.865   0.257
 2446SOL     OW 7365   0.810   3.098   0.316
 2446SOL    HW1 7366   0.900   3.077   0.356
 2446SOL    HW2 7367   0.791   3.034   0.242
 2447SOL     OW 7368   4.393   2.323   4.216
 2447SOL    HW1 7369   4.360   2.229   4.220
 2447SOL    HW2 7370   4.398   2.352   4.121
 2448SOL     OW 7371   0.203   2.445   2.464
 2448SOL    HW1 7372   0.219   2.429   2.367
 2448SOL    HW2 7373   0.187   2.543   2.480
 2449SOL     OW 7374   4.425   2.082   0.849
 2449SOL    HW1 7375   4.418   2.181   0.839
 2449SOL    HW2 7376   4.487   2.060   0.925
 2450SOL     OW 7377   3.168   2.993   1.569
 2450SOL    HW1 7378   3.130   2.912   1.614
 2450SOL    HW2 7379   3.182   2.975   1.472
 2451SOL     OW 7380   1.421   1.102   1.555
 2451SOL    HW1 7381   1.364   1.115   1.636
 2451SOL    HW2 7382   1.439   1.191   1.513
 2452SOL     OW 7383   1.788   2.127   0.419
 2452SOL    HW1 7384   1.781   2.220   0.382
 2452SOL    HW2 7385   1.778   2.131   0.518
 2453SOL     OW 7386   1.332   1.233   0.457
 2453SOL    HW1 7387   1.243   1.227   0.412
 2453SOL    HW2 7388   1.347   1.326   0.489
 2454SOL     OW 7389   0.469   3.225   3.873
 2454SOL    HW1 7390   0.442   3.173   3.955
 2454SOL    HW2 7391   0.555   3.190   3.838
 2455SOL     OW 7392   0.506   2.444   2.011
 2455SOL    HW1 7393   0.566   2.381   2.060
 2455SOL    HW2 7394   0.444   2.393   1.952
 2456SOL     OW 7395   2.029   2.938   2.349
 2456SOL    HW1 7396   2.097   2.937   2.424
 2456SOL    HW2 7397   1.997   3.031   2.335
 2457SOL     OW 7398   0.984   3.276   2.635
 2457SOL    HW1 7399   0.951   3.327   2.557
 2457SOL    HW2 7400   0.968   3.328   2.719
 2458SOL     OW 7401   4.913   1.015   0.335
 2458SOL    HW1 7402   4.966   1.040   0.416
 2458SOL    HW2 7403   4.851   1.090   0.311
 2459SOL     OW 7404   4.971   3.183   2.969
 2459SOL    HW1 7405   5.032   3.112   2.933
 2459SOL    HW2 7406   4.929   3.232   2.893
 2460SOL     OW 7407   1.197   4.134   0.617
 2460SOL    HW1 7408   1.262   4.123   0.693
 2460SOL    HW2 7409   1.105   4.111   0.648
 2461SOL     OW 7410   0.114   1.131   3.616
 2461SOL    HW1 7411   0.038   1.097   3.561
 2461SOL    HW2 7412   0.094   1.224   3.648
 2462SOL     OW 7413   3.956   0.652   4.910
 2462SOL    HW1 7414   4.011   0.571   4.931
 2462SOL    HW2 7415   4.017   0.729   4.888
 2463SOL     OW 7416   2.569   2.806   2.876
 2463SOL    HW1 7417   2.498   2.849   2.819
 2463SOL    HW2 7418   2.545   2.711   2.893
 2464SOL     OW 7419   2.919   1.088   2.285
 2464SOL    HW1 7420   2.835   1.101   2.233
 2464SOL    HW2 7421   2.968   1.175   2.293
 2465SOL     OW 7422   2.188   4.981   1.283
 2465SOL    HW1 7423   2.249   0.017   1.248
 2465SOL    HW2 7424   2.146   4.932   1.206
 2466SOL     OW 7425   4.939   2.773   0.860
 2466SOL    HW1 7426   4.957   2.866   0.891
 2466SOL    HW2 7427   4.842   2.762   0.838
 2467SOL     OW 7428   4.272   3.225   3.527
 2467SOL    HW1 7429   4.337   3.162   3.483
 2467SOL    HW2 7430   4.294   3.232   3.624
 2468SOL     OW 7431   3.050   4.056   2.258
 2468SOL    HW1 7432   3.084   3.963   2.274
 2468SOL    HW2 7433   2.951   4.058   2.271
 2469SOL     OW 7434   0.124   2.522   3.069
 2469SOL    HW1 7435   0.180   2.577   3.131
 2469SOL    HW2 7436   0.103   2.574   2.987
 2470SOL     OW 7437   0.553   2.579   3.808
 2470SOL    HW1 7438   0.496   2.523   3.749
 2470SOL    HW2 7439   0.502   2.604   3.891
 2471SOL     OW 7440   4.254   0.876   2.124
 2471SOL    HW1 7441   4.184   0.836   2.063
 2471SOL    HW2 7442   4.268   0.972   2.099
 2472SOL     OW 7443   1.113   0.338   1.288
 2472SOL    HW1 7444   1.075   0.269   1.350
 2472SOL    HW2 7445   1.207   0.314   1.264
 2473SOL     OW 7446   2.615   2.813   2.377
 2473SOL    HW1 7447   2.526   2.768   2.380
 2473SOL    HW2 7448   2.614   2.884   2.306
 2474SOL     OW 7449   2.480   0.296   3.579
 2474SOL    HW1 7450   2.445   0.302   3.672
 2474SOL    HW2 7451   2.475   0.386   3.535
 2475SOL     OW 7452   2.887   3.754   2.082
 2475SOL    HW1 7453   2.892   3.853   2.094
 2475SOL    HW2 7454   2.970   3.712   2.117
 2476SOL     OW 7455   2.613   1.487   1.210
 2476SOL    HW1 7456   2.659   1.427   1.276
 2476SOL    HW2 7457   2.630   1.453   1.117
 2477SOL     OW 7458   1.750   0.240   2.212
 2477SOL    HW1 7459   1.786   0.179   2.141
 2477SOL    HW2 7460   1.814   0.317   2.226
 2478SOL     OW 7461   3.729   2.067   2.508
 2478SOL    HW1 7462   3.766   2.056   2.416
 2478SOL    HW2 7463   3.799   2.042   2.575
 2479SOL     OW 7464   0.586   1.991   2.452
 2479SOL    HW1 7465   0.623   1.916   2.506
 2479SOL    HW2 7466   0.633   1.995   2.364
 2480SOL     OW 7467   2.780   1.588   0.094
 2480SOL    HW1 7468   2.685   1.619   0.098
 2480SOL    HW2 7469   2.783   1.496   0.053
 2481SOL     OW 7470   3.502   1.195   3.854
 2481SOL    HW1 7471   3.491   1.198   3.755
 2481SOL    HW2 7472   3.560   1.117   3.878
 2482SOL     OW 7473   3.772   3.321   0.190
 2482SOL    HW1 7474   3.818   3.298   0.104
 2482SOL    HW2 7475   3.716   3.403   0.177
 2483SOL     OW 7476   0.381   4.299   1.747
 2483SOL    HW1 7477   0.309   4.275   1.813
 2483SOL    HW2 7478   0.391   4.399   1.743
 2484SOL     OW 7479   4.765   1.528   2.078
 2484SOL    HW1 7480   4.768   1.486   1.988
 2484SOL    HW2 7481   4.716   1.468   2.141
 2485SOL     OW 7482   0.100   4.628   1.739
 2485SOL    HW1 7483   0.188   4.614   1.693
 2485SOL    HW2 7484   0.087   4.559   1.810
 2486SOL     OW 7485   2.626   4.780   3.967
 2486SOL    HW1 7486   2.628   4.691   4.014
 2486SOL    HW2 7487   2.618   4.766   3.869
 2487SOL     OW 7488   3.654   2.808   0.181
 2487SOL    HW1 7489   3.603   2.870   0.241
 2487SOL    HW2 7490   3.733   2.856   0.144
 2488SOL     OW 7491   1.323   0.685   0.569
 2488SOL    HW1 7492   1.371   0.770   0.590
 2488SOL    HW2 7493   1.389   0.616   0.537
 2489SOL     OW 7494   2.944   0.079   4.827
 2489SOL    HW1 7495   2.999   0.014   4.775
 2489SOL    HW2 7496   2.847   0.061   4.811
 2490SOL     OW 7497   0.432   3.415   3.691
 2490SOL    HW1 7498   0.525   3.422   3.655
 2490SOL    HW2 7499   0.426   3.339   3.755
 2491SOL     OW 7500   2.260   2.342   2.904
 2491SOL    HW1 7501   2.350   2.384   2.914
 2491SOL    HW2 7502   2.269   2.243   2.895
 2492SOL     OW 7503   3.430   0.684   2.698
 2492SOL    HW1 7504   3.376   0.748   2.642
 2492SOL    HW2 7505   3.378   0.659   2.779
 2493SOL     OW 7506   4.379   2.509   0.123
 2493SOL    HW1 7507   4.434   2.582   0.162
 2493SOL    HW2 7508   4.316   2.474   0.193
 2494SOL     OW 7509   3.455   1.947   4.834
 2494SOL    HW1 7510   3.551   1.925   4.856
 2494SOL    HW2 7511   3.399   1.866   4.846
 2495SOL     OW 7512   0.051   2.200   1.455
 2495SOL    HW1 7513   0.100   2.241   1.378
 2495SOL    HW2 7514   0.020   2.108   1.429
 2496SOL     OW 7515   2.476   3.175   2.250
 2496SOL    HW1 7516   2.544   3.150   2.319
 2496SOL    HW2 7517   2.464   3.100   2.186
 2497SOL     OW 7518   1.283   0.881   3.639
 2497SOL    HW1 7519   1.276   0.968   3.686
 2497SOL    HW2 7520   1.356   0.886   3.571
 2498SOL     OW 7521   3.569   0.781   0.849
 2498SOL    HW1 7522   3.635   0.778   0.923
 2498SOL    HW2 7523   3.560   0.875   0.816
 2499SOL     OW 7524   2.434   1.487   1.560
 2499SOL    HW1 7525   2.480   1.467   1.647
 2499SOL    HW2 7526   2.345   1.530   1.578
 2500SOL     OW 7527   3.973   0.157   4.054
 2500SOL    HW1 7528   3.972   0.193   4.148
 2500SOL    HW2 7529   3.961   0.233   3.990
 2501SOL     OW 7530   2.373   2.409   1.684
 2501SOL    HW1 7531   2.373   2.488   1.623
 2501SOL    HW2 7532   2.353   2.439   1.777
 2502SOL     OW 7533   3.128   2.207   3.260
 2502SOL    HW1 7534   3.221   2.186   3.289
 2502SOL    HW2 7535   3.120   2.304   3.241
 2503SOL     OW 7536   1.277   3.764   4.683
 2503SOL    HW1 7537   1.243   3.759   4.589
 2503SOL    HW2 7538   1.337   3.687   4.702
 2504SOL     OW 7539   3.553   4.539   0.090
 2504SOL    HW1 7540   3.551   4.500   0.182
 2504SOL    HW2 7541   3.623   4.492   0.036
 2505SOL     OW 7542   2.930   3.145   3.525
 2505SOL    HW1 7543   2.977   3.136   3.438
 2505SOL    HW2 7544   2.924   3.242   3.550
 2506SOL     OW 7545   4.715   2.305   2.347
 2506SOL    HW1 7546   4.797   2.258   2.378
 2506SOL    HW2 7547   4.664   2.246   2.284
 2507SOL     OW 7548   3.497   3.084   3.382
 2507SOL    HW1 7549   3.420   3.022   3.370
 2507SOL    HW2 7550   3.578   3.032   3.411
 2508SOL     OW 7551   0.318   0.914   1.064
 2508SOL    HW1 7552   0.368   0.959   0.990
 2508SOL    HW2 7553   0.236   0.872   1.028
 2509SOL     OW 7554   1.380   1.087   3.849
 2509SOL    HW1 7555   1.416   1.054   3.936
 2509SOL    HW2 7556   1.280   1.084   3.851
 2510SOL     OW 7557   4.497   4.360   3.363
 2510SOL    HW1 7558   4.473   4.266   3.386
 2510SOL    HW2 7559   4.580   4.361   3.307
 2511SOL     OW 7560   2.228   4.792   1.905
 2511SOL    HW1 7561   2.281   4.877   1.906
 2511SOL    HW2 7562   2.164   4.794   1.829
 2512SOL     OW 7563   0.221   3.334   4.356
 2512SOL    HW1 7564   0.123   3.316   4.358
 2512SOL    HW2 7565   0.248   3.364   4.264
 2513SOL     OW 7566   0.044   2.283   3.203
 2513SOL    HW1 7567   0.055   2.374   3.164
 2513SOL    HW2 7568   0.013   2.219   3.132
 2514SOL     OW 7569   2.318   3.409   2.499
 2514SOL    HW1 7570   2.386   3.466   2.453
 2514SOL    HW2 7571   2.274   3.462   2.572
 2515SOL     OW 7572   4.087   1.159   3.861
 2515SOL    HW1 7573   4.133   1.083   3.815
 2515SOL    HW2 7574   4.098   1.148   3.960
 2516SOL     OW 7575   5.002   4.032   3.273
 2516SOL    HW1 7576   5.000   3.972   3.354
 2516SOL    HW2 7577   4.969   3.981   3.194
 2517SOL     OW 7578   3.601   2.996   2.593
 2517SOL    HW1 7579   3.640   2.964   2.507
 2517SOL    HW2 7580   3.674   3.017   2.658
 2518SOL     OW 7581   0.219   4.405   0.324
 2518SOL    HW1 7582   0.123   4.403   0.353
 2518SOL    HW2 7583   0.267   4.328   0.365
 2519SOL     OW 7584   0.264   3.020   0.019
 2519SOL    HW1 7585   0.336   3.089   0.010
 2519SOL    HW2 7586   0.212   3.015   4.969
 2520SOL     OW 7587   2.698   4.895   2.931
 2520SOL    HW1 7588   2.718   4.872   2.836
 2520SOL    HW2 7589   2.670   4.812   2.980
 2521SOL     OW 7590   4.623   1.100   1.710
 2521SOL    HW1 7591   4.623   1.014   1.761
 2521SOL    HW2 7592   4.708   1.107   1.657
 2522SOL     OW 7593   3.611   4.219   0.974
 2522SOL    HW1 7594   3.536   4.283   0.961
 2522SOL    HW2 7595   3.698   4.266   0.963
 2523SOL     OW 7596   3.870   4.866   1.433
 2523SOL    HW1 7597   3.948   4.837   1.489
 2523SOL    HW2 7598   3.835   4.787   1.383
 2524SOL     OW 7599   4.849   2.209   4.377
 2524SOL    HW1 7600   4.767   2.260   4.349
 2524SOL    HW2 7601   4.867   2.136   4.311
 2525SOL     OW 7602   0.375   4.333   3.780
 2525SOL    HW1 7603   0.454   4.316   3.838
 2525SOL    HW2 7604   0.399   4.397   3.708
 2526SOL     OW 7605   1.496   1.227   3.141
 2526SOL    HW1 7606   1.498   1.312   3.089
 2526SOL    HW2 7607   1.457   1.154   3.085
 2527SOL     OW 7608   4.052   0.319   3.648
 2527SOL    HW1 7609   4.067   0.418   3.638
 2527SOL    HW2 7610   3.954   0.299   3.644
 2528SOL     OW 7611   4.920   1.540   4.662
 2528SOL    HW1 7612   4.887   1.456   4.620
 2528SOL    HW2 7613   4.845   1.587   4.708
 2529SOL     OW 7614   4.186   2.430   0.301
 2529SOL    HW1 7615   4.158   2.422   0.396
 2529SOL    HW2 7616   4.113   2.397   0.241
 2530SOL     OW 7617   1.351   2.746   0.793
 2530SOL    HW1 7618   1.285   2.671   0.786
 2530SOL    HW2 7619   1.404   2.752   0.708
 2531SOL     OW 7620   3.932   4.052   0.994
 2531SOL    HW1 7621   3.850   4.086   0.949
 2531SOL    HW2 7622   3.912   4.032   1.090
 2532SOL     OW 7623   3.837   0.127   1.550
 2532SOL    HW1 7624   3.929   0.134   1.513
 2532SOL    HW2 7625   3.842   0.120   1.650
 2533SOL     OW 7626   3.395   3.115   2.120
 2533SOL    HW1 7627   3.457   3.109   2.198
 2533SOL    HW2 7628   3.307   3.075   2.144
 2534SOL     OW 7629   2.018   2.558   0.977
 2534SOL    HW1 7630   2.070   2.620   0.918
 2534SOL    HW2 7631   2.052   2.565   1.071
 2535SOL     OW 7632   3.121   2.077   1.185
 2535SOL    HW1 7633   3.187   2.113   1.120
 2535SOL    HW2 7634   3.146   2.107   1.277
 2536SOL     OW 7635   2.112   3.237   1.140
 2536SOL    HW1 7636   2.195   3.183   1.123
 2536SOL    HW2 7637   2.121   3.326   1.096
 2537SOL     OW 7638   2.187   4.526   2.720
 2537SOL    HW1 7639   2.198   4.619   2.686
 2537SOL    HW2 7640   2.095   4.515   2.757
 2538SOL     OW 7641   4.872   3.751   4.661
 2538SOL    HW1 7642   4.954   3.732   4.715
 2538SOL    HW2 7643   4.898   3.771   4.567
 2539SOL     OW 7644   3.835   2.967   4.799
 2539SOL    HW1 7645   3.741   2.958   4.767
 2539SOL    HW2 7646   3.873   3.054   4.766
 2540SOL     OW 7647   4.219   3.217   2.519
 2540SOL    HW1 7648   4.136   3.262   2.486
 2540SOL    HW2 7649   4.194   3.143   2.582
 2541SOL     OW 7650   0.987   4.625   4.303
 2541SOL    HW1 7651   1.002   4.580   4.391
 2541SOL    HW2 7652   0.982   4.724   4.316
 2542SOL     OW 7653   0.783   1.366   2.506
 2542SOL    HW1 7654   0.692   1.407   2.504
 2542SOL    HW2 7655   0.816   1.352   2.412
 2543SOL     OW 7656   3.909   4.940   2.626
 2543SOL    HW1 7657   3.902   5.024   2.678
 2543SOL    HW2 7658   3.818   4.905   2.604
 2544SOL     OW 7659   1.686   4.960   0.523
 2544SOL    HW1 7660   1.693   4.945   0.622
 2544SOL    HW2 7661   1.661   4.874   0.478
 2545SOL     OW 7662   0.358   4.907   0.128
 2545SOL    HW1 7663   0.413   4.869   0.054
 2545SOL    HW2 7664   0.335   5.002   0.107
 2546SOL     OW 7665   0.446   0.833   1.515
 2546SOL    HW1 7666   0.499   0.907   1.557
 2546SOL    HW2 7667   0.437   0.758   1.580
 2547SOL     OW 7668   2.396   1.611   2.956
 2547SOL    HW1 7669   2.484   1.592   2.913
 2547SOL    HW2 7670   2.410   1.624   3.054
 2548SOL     OW 7671   0.035   2.948   0.680
 2548SOL    HW1 7672   0.054   2.853   0.706
 2548SOL    HW2 7673   5.035   2.997   0.760
 2549SOL     OW 7674   1.615   2.957   0.744
 2549SOL    HW1 7675   1.705   2.979   0.781
 2549SOL    HW2 7676   1.597   3.016   0.665
 2550SOL     OW 7677   1.279   2.536   3.869
 2550SOL    HW1 7678   1.327   2.609   3.819
 2550SOL    HW2 7679   1.181   2.548   3.860
 2551SOL     OW 7680   2.386   3.795   1.700
 2551SOL    HW1 7681   2.471   3.847   1.685
 2551SOL    HW2 7682   2.370   3.786   1.798
 2552SOL     OW 7683   4.282   2.617   4.236
 2552SOL    HW1 7684   4.256   2.531   4.192
 2552SOL    HW2 7685   4.236   2.625   4.324
 2553SOL     OW 7686   4.709   2.869   1.198
 2553SOL    HW1 7687   4.668   2.779   1.182
 2553SOL    HW2 7688   4.792   2.859   1.253
 2554SOL     OW 7689   1.362   2.107   3.380
 2554SOL    HW1 7690   1.365   2.029   3.318
 2554SOL    HW2 7691   1.337   2.189   3.329
 2555SOL     OW 7692   4.107   2.299   4.663
 2555SOL    HW1 7693   4.185   2.316   4.723
 2555SOL    HW2 7694   4.083   2.202   4.666
 2556SOL     OW 7695   2.253   4.596   1.452
 2556SOL    HW1 7696   2.216   4.510   1.487
 2556SOL    HW2 7697   2.346   4.609   1.488
 2557SOL     OW 7698   4.345   1.967   3.460
 2557SOL    HW1 7699   4.339   2.051   3.406
 2557SOL    HW2 7700   4.399   1.984   3.543
 2558SOL     OW 7701   1.394   0.540   0.830
 2558SOL    HW1 7702   1.445   0.462   0.865
 2558SOL    HW2 7703   1.360   0.519   0.738
 2559SOL     OW 7704   1.747   3.510   3.697
 2559SOL    HW1 7705   1.682   3.503   3.772
 2559SOL    HW2 7706   1.837   3.479   3.727
 2560SOL     OW 7707   2.476   0.931   3.129
 2560SOL    HW1 7708   2.453   0.928   3.226
 2560SOL    HW2 7709   2.575   0.930   3.118
 2561SOL     OW 7710   2.321   2.730   1.264
 2561SOL    HW1 7711   2.311   2.826   1.238
 2561SOL    HW2 7712   2.245   2.702   1.323
 2562SOL     OW 7713   1.073   1.161   2.421
 2562SOL    HW1 7714   1.128   1.185   2.342
 2562SOL    HW2 7715   1.132   1.127   2.494
 2563SOL     OW 7716   3.566   1.970   4.360
 2563SOL    HW1 7717   3.509   1.962   4.278
 2563SOL    HW2 7718   3.529   2.042   4.419
 2564SOL     OW 7719   2.730   4.806   4.999
 2564SOL    HW1 7720   2.774   4.742   0.026
 2564SOL    HW2 7721   2.735   4.898   0.002
 2565SOL     OW 7722   0.836   3.012   4.058
 2565SOL    HW1 7723   0.847   2.938   4.124
 2565SOL    HW2 7724   0.866   3.098   4.098
 2566SOL     OW 7725   1.618   2.904   3.708
 2566SOL    HW1 7726   1.629   2.981   3.645
 2566SOL    HW2 7727   1.527   2.909   3.750
 2567SOL     OW 7728   0.191   1.816   2.063
 2567SOL    HW1 7729   0.273   1.785   2.111
 2567SOL    HW2 7730   0.112   1.764   2.095
 2568SOL     OW 7731   4.590   2.234   3.505
 2568SOL    HW1 7732   4.628   2.161   3.448
 2568SOL    HW2 7733   4.654   2.254   3.580
 2569SOL     OW 7734   2.220   2.793   4.561
 2569SOL    HW1 7735   2.203   2.888   4.585
 2569SOL    HW2 7736   2.219   2.784   4.461
 2570SOL     OW 7737   2.332   0.380   1.246
 2570SOL    HW1 7738   2.395   0.445   1.202
 2570SOL    HW2 7739   2.336   0.292   1.199
 2571SOL     OW 7740   1.910   2.938   4.533
 2571SOL    HW1 7741   1.962   3.020   4.556
 2571SOL    HW2 7742   1.825   2.964   4.487
 2572SOL     OW 7743   3.556   0.315   1.724
 2572SOL    HW1 7744   3.469   0.297   1.678
 2572SOL    HW2 7745   3.552   0.283   1.819
 2573SOL     OW 7746   0.107   4.686   0.341
 2573SOL    HW1 7747   0.133   4.748   0.415
 2573SOL    HW2 7748   0.179   4.619   0.326
 2574SOL     OW 7749   0.317   0.491   0.892
 2574SOL    HW1 7750   0.334   0.420   0.959
 2574SOL    HW2 7751   0.262   0.454   0.817
 2575SOL     OW 7752   3.022   4.372   4.653
 2575SOL    HW1 7753   2.989   4.387   4.747
 2575SOL    HW2 7754   3.121   4.388   4.650
 2576SOL     OW 7755   3.104   3.774   3.507
 2576SOL    HW1 7756   3.082   3.849   3.444
 2576SOL    HW2 7757   3.050   3.784   3.591
 2577SOL     OW 7758   0.136   4.271   3.013
 2577SOL    HW1 7759   0.094   4.192   2.970
 2577SOL    HW2 7760   0.230   4.283   2.978
 2578SOL     OW 7761   3.913   3.893   2.084
 2578SOL    HW1 7762   3.862   3.916   2.167
 2578SOL    HW2 7763   3.880   3.807   2.047
 2579SOL     OW 7764   1.743   3.945   2.976
 2579SOL    HW1 7765   1.709   4.038   2.990
 2579SOL    HW2 7766   1.667   3.880   2.981
 2580SOL     OW 7767   3.635   3.905   1.194
 2580SOL    HW1 7768   3.609   3.929   1.101
 2580SOL    HW2 7769   3.725   3.942   1.214
 2581SOL     OW 7770   2.405   2.685   1.006
 2581SOL    HW1 7771   2.469   2.759   0.986
 2581SOL    HW2 7772   2.386   2.684   1.104
 2582SOL     OW 7773   0.083   1.776   1.300
 2582SOL    HW1 7774   5.019   1.768   1.291
 2582SOL    HW2 7775   0.123   1.684   1.307
 2583SOL     OW 7776   0.314   3.468   4.952
 2583SOL    HW1 7777   0.372   3.524   4.893
 2583SOL    HW2 7778   0.224   3.457   4.911
 2584SOL     OW 7779   2.632   3.105   2.449
 2584SOL    HW1 7780   2.725   3.078   2.470
 2584SOL    HW2 7781   2.576   3.099   2.532
 2585SOL     OW 7782   3.834   0.020   2.210
 2585SOL    HW1 7783   3.855   4.960   2.187
 2585SOL    HW2 7784   3.880   0.045   2.295
 2586SOL     OW 7785   3.559   4.260   1.625
 2586SOL    HW1 7786   3.515   4.204   1.695
 2586SOL    HW2 7787   3.541   4.220   1.535
 2587SOL     OW 7788   4.209   1.536   2.950
 2587SOL    HW1 7789   4.177   1.623   2.990
 2587SOL    HW2 7790   4.160   1.519   2.865
 2588SOL     OW 7791   0.204   1.890   3.596
 2588SOL    HW1 7792   0.249   1.971   3.558
 2588SOL    HW2 7793   0.244   1.867   3.684
 2589SOL     OW 7794   2.111   2.209   1.207
 2589SOL    HW1 7795   2.148   2.125   1.168
 2589SOL    HW2 7796   2.128   2.210   1.305
 2590SOL     OW 7797   0.847   4.345   4.815
 2590SOL    HW1 7798   0.781   4.407   4.857
 2590SOL    HW2 7799   0.929   4.340   4.873
 2591SOL     OW 7800   2.193   1.174   2.591
 2591SOL    HW1 7801   2.234   1.121   2.664
 2591SOL    HW2 7802   2.256   1.179   2.513
 2592SOL     OW 7803   2.144   3.657   3.288
 2592SOL    HW1 7804   2.213   3.609   3.342
 2592SOL    HW2 7805   2.186   3.693   3.205
 2593SOL     OW 7806   2.832   3.943   4.179
 2593SOL    HW1 7807   2.733   3.933   4.173
 2593SOL    HW2 7808   2.873   3.922   4.090
 2594SOL     OW 7809   1.011   3.852   2.599
 2594SOL    HW1 7810   1.020   3.807   2.511
 2594SOL    HW2 7811   1.043   3.947   2.592
 2595SOL     OW 7812   1.063   4.935   0.552
 2595SOL    HW1 7813   0.972   4.913   0.516
 2595SOL    HW2 7814   1.124   4.960   0.477
 2596SOL     OW 7815   2.133   1.512   4.890
 2596SOL    HW1 7816   2.116   1.533   4.987
 2596SOL    HW2 7817   2.048   1.524   4.839
 2597SOL     OW 7818   1.446   0.269   2.448
 2597SOL    HW1 7819   1.450   0.341   2.517
 2597SOL    HW2 7820   1.386   0.298   2.373
 2598SOL     OW 7821   4.335   1.553   3.285
 2598SOL    HW1 7822   4.410   1.502   3.326
 2598SOL    HW2 7823   4.254   1.494   3.278
 2599SOL     OW 7824   4.375   1.999   2.235
 2599SOL    HW1 7825   4.339   1.925   2.291
 2599SOL    HW2 7826   4.349   2.087   2.275
 2600SOL     OW 7827   4.249   2.685   4.994
 2600SOL    HW1 7828   4.323   2.687   4.928
 2600SOL    HW2 7829   4.262   2.608   0.022
 2601SOL     OW 7830   0.461   3.696   1.042
 2601SOL    HW1 7831   0.506   3.672   0.956
 2601SOL    HW2 7832   0.394   3.768   1.025
 2602SOL     OW 7833   3.228   2.688   3.823
 2602SOL    HW1 7834   3.201   2.630   3.746
 2602SOL    HW2 7835   3.285   2.763   3.789
 2603SOL     OW 7836   4.361   0.531   2.004
 2603SOL    HW1 7837   4.317   0.579   1.928
 2603SOL    HW2 7838   4.415   0.455   1.969
 2604SOL     OW 7839   1.234   4.837   1.126
 2604SOL    HW1 7840   1.246   4.856   1.029
 2604SOL    HW2 7841   1.251   4.740   1.144
 2605SOL     OW 7842   0.068   4.050   3.948
 2605SOL    HW1 7843   0.085   4.071   3.852
 2605SOL    HW2 7844   5.018   3.998   3.956
 2606SOL     OW 7845   3.476   3.240   4.090
 2606SOL    HW1 7846   3.568   3.211   4.117
 2606SOL    HW2 7847   3.470   3.246   3.990
 2607SOL     OW 7848   0.121   1.459   0.518
 2607SOL    HW1 7849   0.166   1.524   0.580
 2607SOL    HW2 7850   0.022   1.466   0.529
 2608SOL     OW 7851   4.556   4.142   2.700
 2608SOL    HW1 7852   4.551   4.048   2.735
 2608SOL    HW2 7853   4.473   4.192   2.725
 2609SOL     OW 7854   4.123   4.699   0.887
 2609SOL    HW1 7855   4.092   4.724   0.979
 2609SOL    HW2 7856   4.110   4.601   0.873
 2610SOL     OW 7857   0.845   0.622   4.920
 2610SOL    HW1 7858   0.852   0.558   4.844
 2610SOL    HW2 7859   0.750   0.627   4.951
 2611SOL     OW 7860   3.505   0.228   2.028
 2611SOL    HW1 7861   3.444   0.245   2.106
 2611SOL    HW2 7862   3.480   0.143   1.984
 2612SOL     OW 7863   3.372   0.779   4.661
 2612SOL    HW1 7864   3.442   0.824   4.605
 2612SOL    HW2 7865   3.285   0.778   4.612
 2613SOL     OW 7866   0.324   3.750   1.731
 2613SOL    HW1 7867   0.250   3.689   1.703
 2613SOL    HW2 7868   0.293   3.845   1.724
 2614SOL     OW 7869   2.851   0.390   3.596
 2614SOL    HW1 7870   2.811   0.310   3.552
 2614SOL    HW2 7871   2.790   0.424   3.667
 2615SOL     OW 7872   1.953   4.031   2.222
 2615SOL    HW1 7873   1.913   4.117   2.255
 2615SOL    HW2 7874   2.047   4.048   2.194
 2616SOL     OW 7875   0.246   2.673   4.617
 2616SOL    HW1 7876   0.291   2.598   4.666
 2616SOL    HW2 7877   0.310   2.711   4.550
 2617SOL     OW 7878   0.698   4.646   4.086
 2617SOL    HW1 7879   0.606   4.631   4.049
 2617SOL    HW2 7880   0.691   4.683   4.179
 2618SOL     OW 7881   3.200   1.741   4.466
 2618SOL    HW1 7882   3.215   1.837   4.489
 2618SOL    HW2 7883   3.238   1.723   4.375
 2619SOL     OW 7884   1.890   0.084   2.039
 2619SOL    HW1 7885   1.972   0.131   2.004
 2619SOL    HW2 7886   1.917   0.013   2.103
 2620SOL     OW 7887   1.949   2.143   1.669
 2620SOL    HW1 7888   1.896   2.132   1.753
 2620SOL    HW2 7889   1.894   2.116   1.590
 2621SOL     OW 7890   1.464   4.173   4.246
 2621SOL    HW1 7891   1.402   4.116   4.193
 2621SOL    HW2 7892   1.417   4.206   4.328
 2622SOL     OW 7893   3.747   2.111   3.672
 2622SOL    HW1 7894   3.828   2.160   3.702
 2622SOL    HW2 7895   3.665   2.163   3.698
 2623SOL     OW 7896   0.324   2.436   3.320
 2623SOL    HW1 7897   0.260   2.494   3.371
 2623SOL    HW2 7898   0.301   2.340   3.336
 2624SOL     OW 7899   2.247   1.653   1.381
 2624SOL    HW1 7900   2.160   1.608   1.363
 2624SOL    HW2 7901   2.307   1.643   1.301
 2625SOL     OW 7902   2.575   1.371   0.950
 2625SOL    HW1 7903   2.622   1.338   0.869
 2625SOL    HW2 7904   2.504   1.306   0.977
 2626SOL     OW 7905   4.956   3.125   1.550
 2626SOL    HW1 7906   0.012   3.124   1.592
 2626SOL    HW2 7907   4.908   3.208   1.575
 2627SOL     OW 7908   3.403   1.922   4.121
 2627SOL    HW1 7909   3.329   1.962   4.175
 2627SOL    HW2 7910   3.381   1.928   4.024
 2628SOL     OW 7911   2.485   0.889   0.762
 2628SOL    HW1 7912   2.496   0.842   0.674
 2628SOL    HW2 7913   2.388   0.893   0.785
 2629SOL     OW 7914   2.906   1.083   4.192
 2629SOL    HW1 7915   2.911   1.068   4.290
 2629SOL    HW2 7916   2.824   1.137   4.170
 2630SOL     OW 7917   4.451   2.529   1.958
 2630SOL    HW1 7918   4.495   2.453   1.910
 2630SOL    HW2 7919   4.391   2.494   2.029
 2631SOL     OW 7920   0.877   2.908   3.081
 2631SOL    HW1 7921   0.872   2.819   3.125
 2631SOL    HW2 7922   0.797   2.920   3.022
 2632SOL     OW 7923   2.423   0.931   3.413
 2632SOL    HW1 7924   2.359   0.862   3.444
 2632SOL    HW2 7925   2.382   1.022   3.423
 2633SOL     OW 7926   0.197   1.029   2.713
 2633SOL    HW1 7927   0.189   0.939   2.671
 2633SOL    HW2 7928   0.152   1.097   2.655
 2634SOL     OW 7929   4.194   0.238   4.289
 2634SOL    HW1 7930   4.274   0.291   4.318
 2634SOL    HW2 7931   4.160   0.184   4.366
 2635SOL     OW 7932   2.447   1.228   1.487
 2635SOL    HW1 7933   2.443   1.326   1.508
 2635SOL    HW2 7934   2.356   1.195   1.465
 2636SOL     OW 7935   3.831   1.540   0.681
 2636SOL    HW1 7936   3.910   1.591   0.646
 2636SOL    HW2 7937   3.862   1.454   0.722
 2637SOL     OW 7938   1.404   3.248   4.992
 2637SOL    HW1 7939   1.488   3.293   4.962
 2637SOL    HW2 7940   1.356   3.209   4.913
 2638SOL     OW 7941   1.702   1.029   4.313
 2638SOL    HW1 7942   1.693   0.966   4.390
 2638SOL    HW2 7943   1.767   1.101   4.337
 2639SOL     OW 7944   3.118   3.751   2.811
 2639SOL    HW1 7945   3.130   3.838   2.860
 2639SOL    HW2 7946   3.204   3.726   2.766
 2640SOL     OW 7947   3.983   1.556   3.211
 2640SOL    HW1 7948   3.897   1.607   3.218
 2640SOL    HW2 7949   4.054   1.603   3.265
 2641SOL     OW 7950   3.467   0.800   3.140
 2641SOL    HW1 7951   3.526   0.736   3.091
 2641SOL    HW2 7952   3.440   0.874   3.078
 2642SOL     OW 7953   1.880   3.684   4.158
 2642SOL    HW1 7954   1.808   3.732   4.107
 2642SOL    HW2 7955   1.938   3.752   4.203
 2643SOL     OW 7956   1.224   1.476   1.877
 2643SOL    HW1 7957   1.315   1.507   1.906
 2643SOL    HW2 7958   1.171   1.449   1.957
 2644SOL     OW 7959   3.797   1.928   1.502
 2644SOL    HW1 7960   3.872   1.970   1.553
 2644SOL    HW2 7961   3.822   1.834   1.477
 2645SOL     OW 7962   2.825   0.851   4.718
 2645SOL    HW1 7963   2.818   0.820   4.813
 2645SOL    HW2 7964   2.908   0.813   4.677
 2646SOL     OW 7965   3.550   2.775   2.763
 2646SOL    HW1 7966   3.475   2.793   2.827
 2646SOL    HW2 7967   3.559   2.852   2.700
 2647SOL     OW 7968   4.947   3.252   3.587
 2647SOL    HW1 7969   4.865   3.297   3.552
 2647SOL    HW2 7970   4.942   3.247   3.687
 2648SOL     OW 7971   0.827   4.819   3.786
 2648SOL    HW1 7972   0.864   4.729   3.762
 2648SOL    HW2 7973   0.738   4.831   3.742
 2649SOL     OW 7974   1.314   3.638   3.084
 2649SOL    HW1 7975   1.368   3.720   3.064
 2649SOL    HW2 7976   1.368   3.575   3.138
 2650SOL     OW 7977   2.858   3.827   1.479
 2650SOL    HW1 7978   2.885   3.731   1.487
 2650SOL    HW2 7979   2.917   3.883   1.536
 2651SOL     OW 7980   2.570   4.876   2.349
 2651SOL    HW1 7981   2.630   4.955   2.366
 2651SOL    HW2 7982   2.557   4.865   2.251
 2652SOL     OW 7983   3.488   4.488   0.356
 2652SOL    HW1 7984   3.392   4.512   0.340
 2652SOL    HW2 7985   3.533   4.561   0.407
 2653SOL     OW 7986   2.333   0.537   1.774
 2653SOL    HW1 7987   2.305   0.457   1.721
 2653SOL    HW2 7988   2.257   0.568   1.831
 2654SOL     OW 7989   1.491   0.924   0.856
 2654SOL    HW1 7990   1.505   1.021   0.835
 2654SOL    HW2 7991   1.519   0.868   0.777
 2655SOL     OW 7992   4.115   3.424   2.273
 2655SOL    HW1 7993   4.206   3.461   2.292
 2655SOL    HW2 7994   4.108   3.401   2.176
 2656SOL     OW 7995   1.192   1.665   4.421
 2656SOL    HW1 7996   1.096   1.657   4.394
 2656SOL    HW2 7997   1.206   1.622   4.510
 2657SOL     OW 7998   3.703   0.335   0.995
 2657SOL    HW1 7999   3.625   0.390   0.965
 2657SOL    HW2 8000   3.781   0.352   0.936
 2658SOL     OW 8001   4.077   2.755   0.529
 2658SOL    HW1 8002   4.002   2.804   0.484
 2658SOL    HW2 8003   4.090   2.791   0.621
 2659SOL     OW 8004   0.962   4.536   3.649
 2659SOL    HW1 8005   1.005   4.559   3.561
 2659SOL    HW2 8006   1.033   4.513   3.715
 2660SOL     OW 8007   1.498   0.725   2.694
 2660SOL    HW1 8008   1.535   0.715   2.786
 2660SOL    HW2 8009   1.410   0.771   2.698
 2661SOL     OW 8010   0.669   3.246   1.333
 2661SOL    HW1 8011   0.656   3.261   1.235
 2661SOL    HW2 8012   0.599   3.184   1.368
 2662SOL     OW 8013   3.081   1.009   5.019
 2662SOL    HW1 8014   2.983   1.025   5.003
 2662SOL    HW2 8015   3.093   0.920   0.027
 2663SOL     OW 8016   1.576   1.430   5.035
 2663SOL    HW1 8017   1.650   1.369   0.028
 2663SOL    HW2 8018   1.593   1.461   4.941
 2664SOL     OW 8019   1.895   0.902   4.144
 2664SOL    HW1 8020   1.887   0.933   4.049
 2664SOL    HW2 8021   1.809   0.917   4.192
 2665SOL     OW 8022   3.921   2.793   4.987
 2665SOL    HW1 8023   3.892   2.842   4.905
 2665SOL    HW2 8024   3.940   2.697   4.964
 2666SOL     OW 8025   1.592   3.980   0.221
 2666SOL    HW1 8026   1.501   3.988   0.261
 2666SOL    HW2 8027   1.593   3.905   0.155
 2667SOL     OW 8028   4.818   0.221   1.318
 2667SOL    HW1 8029   4.906   0.177   1.335
 2667SOL    HW2 8030   4.830   0.299   1.257
 2668SOL     OW 8031   1.837   1.990   4.311
 2668SOL    HW1 8032   1.825   1.964   4.215
 2668SOL    HW2 8033   1.819   1.911   4.369
 2669SOL     OW 8034   3.695   1.875   4.931
 2669SOL    HW1 8035   3.737   1.963   4.956
 2669SOL    HW2 8036   3.767   1.808   4.914
 2670SOL     OW 8037   0.237   1.230   3.854
 2670SOL    HW1 8038   0.322   1.221   3.906
 2670SOL    HW2 8039   0.257   1.233   3.756
 2671SOL     OW 8040   0.578   0.292   3.907
 2671SOL    HW1 8041   0.647   0.274   3.976
 2671SOL    HW2 8042   0.531   0.379   3.928
 2672SOL     OW 8043   4.145   1.148   0.444
 2672SOL    HW1 8044   4.161   1.136   0.346
 2672SOL    HW2 8045   4.160   1.244   0.469
 2673SOL     OW 8046   1.236   0.462   0.231
 2673SOL    HW1 8047   1.198   0.493   0.318
 2673SOL    HW2 8048   1.179   0.495   0.155
 2674SOL     OW 8049   4.000   0.119   4.828
 2674SOL    HW1 8050   3.905   0.092   4.808
 2674SOL    HW2 8051   4.034   0.065   4.905
 2675SOL     OW 8052   2.403   0.524   0.335
 2675SOL    HW1 8053   2.466   0.600   0.323
 2675SOL    HW2 8054   2.312   0.559   0.354
 2676SOL     OW 8055   4.589   3.885   2.345
 2676SOL    HW1 8056   4.529   3.963   2.361
 2676SOL    HW2 8057   4.609   3.839   2.431
 2677SOL     OW 8058   0.534   3.367   4.372
 2677SOL    HW1 8059   0.618   3.314   4.370
 2677SOL    HW2 8060   0.477   3.342   4.294
 2678SOL     OW 8061   2.164   3.495   1.776
 2678SOL    HW1 8062   2.147   3.396   1.786
 2678SOL    HW2 8063   2.262   3.511   1.766
 2679SOL     OW 8064   1.183   2.920   0.511
 2679SOL    HW1 8065   1.090   2.955   0.510
 2679SOL    HW2 8066   1.240   2.977   0.570
 2680SOL     OW 8067   2.225   1.770   4.828
 2680SOL    HW1 8068   2.253   1.774   4.732
 2680SOL    HW2 8069   2.181   1.683   4.847
 2681SOL     OW 8070   1.728   2.908   1.696
 2681SOL    HW1 8071   1.652   2.947   1.748
 2681SOL    HW2 8072   1.746   2.965   1.616
 2682SOL     OW 8073   0.620   1.727   1.078
 2682SOL    HW1 8074   0.656   1.634   1.071
 2682SOL    HW2 8075   0.660   1.784   1.007
 2683SOL     OW 8076   1.853   3.831   4.653
 2683SOL    HW1 8077   1.768   3.883   4.664
 2683SOL    HW2 8078   1.866   3.771   4.732
 2684SOL     OW 8079   3.259   2.006   4.501
 2684SOL    HW1 8080   3.331   2.071   4.525
 2684SOL    HW2 8081   3.219   2.032   4.413
 2685SOL     OW 8082   4.226   3.027   1.962
 2685SOL    HW1 8083   4.136   2.989   1.940
 2685SOL    HW2 8084   4.287   3.015   1.883
 2686SOL     OW 8085   1.065   4.564   0.275
 2686SOL    HW1 8086   1.135   4.635   0.283
 2686SOL    HW2 8087   1.086   4.490   0.339
 2687SOL     OW 8088   4.918   3.699   0.821
 2687SOL    HW1 8089   4.838   3.759   0.812
 2687SOL    HW2 8090   4.944   3.665   0.732
 2688SOL     OW 8091   1.153   4.296   4.644
 2688SOL    HW1 8092   1.174   4.306   4.547
 2688SOL    HW2 8093   1.178   4.204   4.675
 2689SOL     OW 8094   3.420   4.719   4.177
 2689SOL    HW1 8095   3.367   4.793   4.134
 2689SOL    HW2 8096   3.472   4.671   4.106
 2690SOL     OW 8097   2.636   2.013   1.383
 2690SOL    HW1 8098   2.636   1.975   1.475
 2690SOL    HW2 8099   2.664   1.943   1.317
 2691SOL     OW 8100   3.901   1.353   4.724
 2691SOL    HW1 8101   3.961   1.318   4.796
 2691SOL    HW2 8102   3.934   1.322   4.635
 2692SOL     OW 8103   2.236   2.400   3.517
 2692SOL    HW1 8104   2.284   2.442   3.440
 2692SOL    HW2 8105   2.303   2.357   3.578
 2693SOL     OW 8106   1.586   3.688   0.209
 2693SOL    HW1 8107   1.487   3.704   0.210
 2693SOL    HW2 8108   1.624   3.708   0.300
 2694SOL     OW 8109   0.409   0.405   0.010
 2694SOL    HW1 8110   0.508   0.391   0.005
 2694SOL    HW2 8111   0.389   0.487   0.064
 2695SOL     OW 8112   3.091   3.444   1.055
 2695SOL    HW1 8113   3.029   3.367   1.043
 2695SOL    HW2 8114   3.161   3.421   1.123
 2696SOL     OW 8115   1.989   4.840   3.152
 2696SOL    HW1 8116   1.899   4.846   3.109
 2696SOL    HW2 8117   1.978   4.807   3.246
 2697SOL     OW 8118   3.043   1.485   3.624
 2697SOL    HW1 8119   2.963   1.428   3.643
 2697SOL    HW2 8120   3.065   1.481   3.527
 2698SOL     OW 8121   0.431   3.479   1.646
 2698SOL    HW1 8122   0.425   3.528   1.732
 2698SOL    HW2 8123   0.344   3.488   1.596
 2699SOL     OW 8124   0.286   3.452   3.460
 2699SOL    HW1 8125   0.248   3.544   3.471
 2699SOL    HW2 8126   0.342   3.429   3.540
 2700SOL     OW 8127   1.477   0.475   5.032
 2700SOL    HW1 8128   1.565   0.463   4.986
 2700SOL    HW2 8129   1.403   0.444   4.971
 2701SOL     OW 8130   4.236   1.397   1.968
 2701SOL    HW1 8131   4.326   1.439   1.981
 2701SOL    HW2 8132   4.242   1.298   1.984
 2702SOL     OW 8133   1.057   1.484   2.102
 2702SOL    HW1 8134   0.993   1.546   2.056
 2702SOL    HW2 8135   1.121   1.537   2.157
 2703SOL     OW 8136   4.325   3.727   3.156
 2703SOL    HW1 8137   4.400   3.686   3.209
 2703SOL    HW2 8138   4.286   3.657   3.096
 2704SOL     OW 8139   0.840   0.432   0.709
 2704SOL    HW1 8140   0.752   0.470   0.736
 2704SOL    HW2 8141   0.908   0.455   0.778
 2705SOL     OW 8142   0.572   3.325   0.543
 2705SOL    HW1 8143   0.577   3.228   0.567
 2705SOL    HW2 8144   0.662   3.368   0.557
 2706SOL     OW 8145   4.350   0.270   1.306
 2706SOL    HW1 8146   4.380   0.364   1.318
 2706SOL    HW2 8147   4.417   0.208   1.346
 2707SOL     OW 8148   4.342   0.632   4.186
 2707SOL    HW1 8149   4.305   0.721   4.213
 2707SOL    HW2 8150   4.386   0.640   4.096
 2708SOL     OW 8151   3.791   0.473   4.331
 2708SOL    HW1 8152   3.872   0.513   4.374
 2708SOL    HW2 8153   3.708   0.512   4.372
 2709SOL     OW 8154   3.175   0.351   0.138
 2709SOL    HW1 8155   3.197   0.291   0.062
 2709SOL    HW2 8156   3.076   0.351   0.153
 2710SOL     OW 8157   2.931   0.643   1.688
 2710SOL    HW1 8158   3.000   0.572   1.672
 2710SOL    HW2 8159   2.931   0.669   1.784
 2711SOL     OW 8160   4.451   4.979   3.108
 2711SOL    HW1 8161   4.464   4.935   3.018
 2711SOL    HW2 8162   4.531   4.961   3.165
 2712SOL     OW 8163   2.095   4.771   2.905
 2712SOL    HW1 8164   2.187   4.744   2.932
 2712SOL    HW2 8165   2.040   4.788   2.986
 2713SOL     OW 8166   4.823   1.885   2.114
 2713SOL    HW1 8167   4.849   1.974   2.077
 2713SOL    HW2 8168   4.843   1.881   2.212
 2714SOL     OW 8169   3.042   3.236   2.800
 2714SOL    HW1 8170   3.028   3.325   2.756
 2714SOL    HW2 8171   3.111   3.184   2.750
 2715SOL     OW 8172   2.078   2.976   4.118
 2715SOL    HW1 8173   2.003   3.041   4.114
 2715SOL    HW2 8174   2.054   2.894   4.065
 2716SOL     OW 8175   2.253   2.046   0.823
 2716SOL    HW1 8176   2.334   2.092   0.785
 2716SOL    HW2 8177   2.264   2.035   0.922
 2717SOL     OW 8178   0.396   0.855   4.493
 2717SOL    HW1 8179   0.340   0.936   4.479
 2717SOL    HW2 8180   0.413   0.844   4.591
 2718SOL     OW 8181   3.624   2.614   0.710
 2718SOL    HW1 8182   3.619   2.688   0.778
 2718SOL    HW2 8183   3.532   2.594   0.677
 2719SOL     OW 8184   0.974   1.855   1.127
 2719SOL    HW1 8185   0.955   1.806   1.042
 2719SOL    HW2 8186   0.990   1.952   1.107
 2720SOL     OW 8187   4.748   2.928   2.036
 2720SOL    HW1 8188   4.652   2.928   2.063
 2720SOL    HW2 8189   4.763   2.998   1.965
 2721SOL     OW 8190   4.935   3.046   0.914
 2721SOL    HW1 8191   4.940   3.145   0.899
 2721SOL    HW2 8192   4.840   3.020   0.930
 2722SOL     OW 8193   0.827   1.206   2.950
 2722SOL    HW1 8194   0.825   1.302   2.978
 2722SOL    HW2 8195   0.738   1.164   2.970
 2723SOL     OW 8196   3.634   4.515   4.061
 2723SOL    HW1 8197   3.667   4.545   4.151
 2723SOL    HW2 8198   3.711   4.488   4.004
 2724SOL     OW 8199   1.376   4.510   4.407
 2724SOL    HW1 8200   1.427   4.515   4.321
 2724SOL    HW2 8201   1.434   4.471   4.478
 2725SOL     OW 8202   1.068   3.847   3.133
 2725SOL    HW1 8203   1.056   3.898   3.047
 2725SOL    HW2 8204   1.136   3.894   3.189
 2726SOL     OW 8205   2.680   2.881   4.121
 2726SOL    HW1 8206   2.627   2.877   4.205
 2726SOL    HW2 8207   2.625   2.921   4.048
 2727SOL     OW 8208   2.423   1.732   1.111
 2727SOL    HW1 8209   2.504   1.751   1.166
 2727SOL    HW2 8210   2.449   1.716   1.016
 2728SOL     OW 8211   3.117   1.215   4.482
 2728SOL    HW1 8212   3.179   1.207   4.559
 2728SOL    HW2 8213   3.169   1.236   4.399
 2729SOL     OW 8214   3.493   1.115   2.211
 2729SOL    HW1 8215   3.446   1.179   2.272
 2729SOL    HW2 8216   3.429   1.044   2.181
 2730SOL     OW 8217   0.986   0.774   3.589
 2730SOL    HW1 8218   0.974   0.675   3.600
 2730SOL    HW2 8219   0.897   0.816   3.567
 2731SOL     OW 8220   3.411   4.480   3.491
 2731SOL    HW1 8221   3.464   4.396   3.487
 2731SOL    HW2 8222   3.343   4.473   3.565
 2732SOL     OW 8223   4.146   4.171   4.017
 2732SOL    HW1 8224   4.076   4.167   4.088
 2732SOL    HW2 8225   4.186   4.263   4.015
 2733SOL     OW 8226   3.280   2.202   0.988
 2733SOL    HW1 8227   3.356   2.139   0.969
 2733SOL    HW2 8228   3.233   2.224   0.902
 2734SOL     OW 8229   0.588   2.330   3.644
 2734SOL    HW1 8230   0.674   2.378   3.663
 2734SOL    HW2 8231   0.576   2.255   3.708
 2735SOL     OW 8232   3.802   0.371   2.734
 2735SOL    HW1 8233   3.808   0.271   2.736
 2735SOL    HW2 8234   3.799   0.402   2.640
 2736SOL     OW 8235   4.497   4.603   3.926
 2736SOL    HW1 8236   4.450   4.559   3.849
 2736SOL    HW2 8237   4.445   4.683   3.956
 2737SOL     OW 8238   0.615   3.392   4.886
 2737SOL    HW1 8239   0.560   3.318   4.925
 2737SOL    HW2 8240   0.628   3.464   4.954
 2738SOL     OW 8241   3.096   3.028   1.843
 2738SOL    HW1 8242   3.147   3.033   1.757
 2738SOL    HW2 8243   3.161   3.013   1.919
 2739SOL     OW 8244   0.787   1.223   1.859
 2739SOL    HW1 8245   0.842   1.302   1.831
 2739SOL    HW2 8246   0.826   1.184   1.942
 2740SOL     OW 8247   2.583   4.245   1.586
 2740SOL    HW1 8248   2.605   4.184   1.510
 2740SOL    HW2 8249   2.499   4.214   1.631
 2741SOL     OW 8250   1.091   3.748   4.925
 2741SOL    HW1 8251   1.123   3.819   4.989
 2741SOL    HW2 8252   1.151   3.745   4.846
 2742SOL     OW 8253   2.733   2.339   3.451
 2742SOL    HW1 8254   2.713   2.360   3.546
 2742SOL    HW2 8255   2.831   2.327   3.438
 2743SOL     OW 8256   1.458   2.095   3.830
 2743SOL    HW1 8257   1.538   2.081   3.888
 2743SOL    HW2 8258   1.464   2.035   3.750
 2744SOL     OW 8259   2.869   1.012   1.574
 2744SOL    HW1 8260   2.803   0.980   1.505
 2744SOL    HW2 8261   2.913   0.933   1.617
 2745SOL     OW 8262   3.768   1.247   0.485
 2745SOL    HW1 8263   3.796   1.245   0.581
 2745SOL    HW2 8264   3.850   1.249   0.427
 2746SOL     OW 8265   4.484   0.976   1.382
 2746SOL    HW1 8266   4.575   0.940   1.406
 2746SOL    HW2 8267   4.427   0.902   1.348
 2747SOL     OW 8268   4.872   4.338   4.789
 2747SOL    HW1 8269   4.893   4.389   4.706
 2747SOL    HW2 8270   4.881   4.240   4.772
 2748SOL     OW 8271   4.610   2.523   4.121
 2748SOL    HW1 8272   4.542   2.531   4.194
 2748SOL    HW2 8273   4.624   2.426   4.099
 2749SOL     OW 8274   3.723   0.694   2.162
 2749SOL    HW1 8275   3.653   0.744   2.111
 2749SOL    HW2 8276   3.743   0.742   2.247
 2750SOL     OW 8277   3.752   4.751   2.354
 2750SOL    HW1 8278   3.716   4.762   2.261
 2750SOL    HW2 8279   3.695   4.801   2.418
 2751SOL     OW 8280   0.763   2.787   0.787
 2751SOL    HW1 8281   0.771   2.874   0.836
 2751SOL    HW2 8282   0.855   2.751   0.769
 2752SOL     OW 8283   4.534   1.624   3.830
 2752SOL    HW1 8284   4.566   1.592   3.740
 2752SOL    HW2 8285   4.434   1.624   3.832
 2753SOL     OW 8286   1.992   4.947   2.217
 2753SOL    HW1 8287   1.975   4.925   2.313
 2753SOL    HW2 8288   2.034   4.868   2.172
 2754SOL     OW 8289   4.125   2.572   1.479
 2754SOL    HW1 8290   4.180   2.493   1.508
 2754SOL    HW2 8291   4.124   2.640   1.553
 2755SOL     OW 8292   0.032   0.265   2.561
 2755SOL    HW1 8293   0.059   0.246   2.466
 2755SOL    HW2 8294   5.013   0.349   2.564
 2756SOL     OW 8295   3.734   4.126   3.947
 2756SOL    HW1 8296   3.810   4.091   4.002
 2756SOL    HW2 8297   3.766   4.140   3.853
 2757SOL     OW 8298   0.678   4.133   0.178
 2757SOL    HW1 8299   0.716   4.076   0.251
 2757SOL    HW2 8300   0.602   4.085   0.134
 2758SOL     OW 8301   1.062   2.899   4.470
 2758SOL    HW1 8302   1.034   2.990   4.440
 2758SOL    HW2 8303   1.071   2.839   4.390
 2759SOL     OW 8304   0.242   2.697   1.974
 2759SOL    HW1 8305   0.332   2.725   2.006
 2759SOL    HW2 8306   0.242   2.691   1.874
 2760SOL     OW 8307   4.187   4.742   1.985
 2760SOL    HW1 8308   4.160   4.715   1.893
 2760SOL    HW2 8309   4.159   4.672   2.050
 2761SOL     OW 8310   4.704   3.295   1.620
 2761SOL    HW1 8311   4.621   3.314   1.673
 2761SOL    HW2 8312   4.680   3.274   1.526
 2762SOL     OW 8313   2.476   2.985   0.272
 2762SOL    HW1 8314   2.528   3.069   0.287
 2762SOL    HW2 8315   2.517   2.934   0.196
 2763SOL     OW 8316   2.510   2.964   1.534
 2763SOL    HW1 8317   2.605   2.949   1.561
 2763SOL    HW2 8318   2.454   2.886   1.565
 2764SOL     OW 8319   2.901   0.735   0.299
 2764SOL    HW1 8320   2.908   0.759   0.396
 2764SOL    HW2 8321   2.824   0.782   0.258
 2765SOL     OW 8322   2.358   2.041   4.520
 2765SOL    HW1 8323   2.390   2.126   4.560
 2765SOL    HW2 8324   2.351   2.051   4.421
 2766SOL     OW 8325   2.149   0.761   1.746
 2766SOL    HW1 8326   2.090   0.841   1.732
 2766SOL    HW2 8327   2.233   0.790   1.792
 2767SOL     OW 8328   0.973   1.619   3.324
 2767SOL    HW1 8329   1.028   1.699   3.300
 2767SOL    HW2 8330   1.007   1.579   3.409
 2768SOL     OW 8331   3.359   1.055   4.858
 2768SOL    HW1 8332   3.384   1.096   4.946
 2768SOL    HW2 8333   3.439   1.009   4.820
 2769SOL     OW 8334   3.135   2.253   1.406
 2769SOL    HW1 8335   3.049   2.207   1.429
 2769SOL    HW2 8336   3.116   2.346   1.374
 2770SOL     OW 8337   1.419   1.418   3.390
 2770SOL    HW1 8338   1.366   1.347   3.344
 2770SOL    HW2 8339   1.362   1.462   3.459
 2771SOL     OW 8340   4.897   2.547   4.078
 2771SOL    HW1 8341   4.810   2.568   4.035
 2771SOL    HW2 8342   4.891   2.565   4.176
 2772SOL     OW 8343   4.778   1.533   0.858
 2772SOL    HW1 8344   4.738   1.458   0.805
 2772SOL    HW2 8345   4.737   1.534   0.950
 2773SOL     OW 8346   3.973   0.388   3.912
 2773SOL    HW1 8347   4.023   0.432   3.987
 2773SOL    HW2 8348   4.037   0.360   3.841
 2774SOL     OW 8349   3.127   0.266   3.311
 2774SOL    HW1 8350   3.034   0.229   3.304
 2774SOL    HW2 8351   3.183   0.229   3.237
 2775SOL     OW 8352   3.006   2.152   1.768
 2775SOL    HW1 8353   2.908   2.170   1.775
 2775SOL    HW2 8354   3.052   2.232   1.729
 2776SOL     OW 8355   3.328   1.725   4.926
 2776SOL    HW1 8356   3.354   1.665   4.852
 2776SOL    HW2 8357   3.282   1.673   4.998
 2777SOL     OW 8358   3.006   3.710   1.820
 2777SOL    HW1 8359   2.945   3.725   1.898
 2777SOL    HW2 8360   3.009   3.612   1.799
 2778SOL     OW 8361   2.183   0.333   3.733
 2778SOL    HW1 8362   2.130   0.335   3.818
 2778SOL    HW2 8363   2.157   0.411   3.676
 2779SOL     OW 8364   2.182   0.308   2.271
 2779SOL    HW1 8365   2.104   0.365   2.245
 2779SOL    HW2 8366   2.158   0.256   2.353
 2780SOL     OW 8367   0.655   3.660   1.229
 2780SOL    HW1 8368   0.573   3.679   1.175
 2780SOL    HW2 8369   0.630   3.606   1.309
 2781SOL     OW 8370   2.528   2.280   3.273
 2781SOL    HW1 8371   2.455   2.347   3.284
 2781SOL    HW2 8372   2.606   2.306   3.329
 2782SOL     OW 8373   0.859   3.585   2.147
 2782SOL    HW1 8374   0.906   3.519   2.088
 2782SOL    HW2 8375   0.819   3.657   2.090
 2783SOL     OW 8376   4.029   3.816   0.352
 2783SOL    HW1 8377   4.001   3.900   0.306
 2783SOL    HW2 8378   4.112   3.832   0.405
 2784SOL     OW 8379   2.917   1.519   1.546
 2784SOL    HW1 8380   2.954   1.611   1.527
 2784SOL    HW2 8381   2.985   1.465   1.594
 2785SOL     OW 8382   4.416   0.406   4.328
 2785SOL    HW1 8383   4.512   0.432   4.313
 2785SOL    HW2 8384   4.357   0.484   4.308
 2786SOL     OW 8385   3.592   1.416   4.021
 2786SOL    HW1 8386   3.552   1.375   3.939
 2786SOL    HW2 8387   3.519   1.455   4.077
 2787SOL     OW 8388   1.494   3.847   3.054
 2787SOL    HW1 8389   1.481   3.941   3.085
 2787SOL    HW2 8390   1.459   3.838   2.960
 2788SOL     OW 8391   2.205   4.181   1.464
 2788SOL    HW1 8392   2.278   4.214   1.524
 2788SOL    HW2 8393   2.207   4.081   1.462
 2789SOL     OW 8394   4.906   1.255   4.093
 2789SOL    HW1 8395   4.943   1.227   4.182
 2789SOL    HW2 8396   4.976   1.306   4.042
 2790SOL     OW 8397   4.895   0.456   1.193
 2790SOL    HW1 8398   4.989   0.425   1.176
 2790SOL    HW2 8399   4.891   0.503   1.281
 2791SOL     OW 8400   0.624   3.776   2.289
 2791SOL    HW1 8401   0.570   3.728   2.220
 2791SOL    HW2 8402   0.622   3.723   2.374
 2792SOL     OW 8403   3.214   4.135   0.969
 2792SOL    HW1 8404   3.255   4.224   0.992
 2792SOL    HW2 8405   3.132   4.121   1.025
 2793SOL     OW 8406   0.948   1.320   1.276
 2793SOL    HW1 8407   0.980   1.308   1.182
 2793SOL    HW2 8408   0.941   1.231   1.320
 2794SOL     OW 8409   3.677   0.921   4.261
 2794SOL    HW1 8410   3.712   1.014   4.248
 2794SOL    HW2 8411   3.607   0.920   4.332
 2795SOL     OW 8412   4.134   1.413   3.423
 2795SOL    HW1 8413   4.036   1.418   3.445
 2795SOL    HW2 8414   4.149   1.340   3.357
 2796SOL     OW 8415   4.153   2.099   3.867
 2796SOL    HW1 8416   4.182   2.065   3.778
 2796SOL    HW2 8417   4.062   2.140   3.860
 2797SOL     OW 8418   4.328   2.456   1.050
 2797SOL    HW1 8419   4.335   2.380   1.116
 2797SOL    HW2 8420   4.300   2.539   1.098
 2798SOL     OW 8421   3.304   0.912   2.155
 2798SOL    HW1 8422   3.304   0.818   2.120
 2798SOL    HW2 8423   3.211   0.948   2.152
 2799SOL     OW 8424   3.350   2.057   2.086
 2799SOL    HW1 8425   3.292   2.066   2.168
 2799SOL    HW2 8426   3.359   1.960   2.063
 2800SOL     OW 8427   1.043   1.003   3.756
 2800SOL    HW1 8428   1.077   0.985   3.849
 2800SOL    HW2 8429   1.068   0.926   3.697
 2801SOL     OW 8430   2.743   0.197   0.162
 2801SOL    HW1 8431   2.804   0.274   0.145
 2801SOL    HW2 8432   2.707   0.163   0.075
 2802SOL     OW 8433   4.054   3.581   3.182
 2802SOL    HW1 8434   4.058   3.680   3.174
 2802SOL    HW2 8435   3.978   3.546   3.126
 2803SOL     OW 8436   2.369   3.365   4.871
 2803SOL    HW1 8437   2.304   3.440   4.884
 2803SOL    HW2 8438   2.384   3.351   4.773
 2804SOL     OW 8439   4.375   4.664   1.520
 2804SOL    HW1 8440   4.464   4.635   1.556
 2804SOL    HW2 8441   4.311   4.676   1.595
 2805SOL     OW 8442   2.791   2.828   1.107
 2805SOL    HW1 8443   2.788   2.805   1.204
 2805SOL    HW2 8444   2.767   2.748   1.053
 2806SOL     OW 8445   4.217   3.464   1.596
 2806SOL    HW1 8446   4.290   3.416   1.547
 2806SOL    HW2 8447   4.190   3.410   1.676
 2807SOL     OW 8448   2.114   1.647   1.137
 2807SOL    HW1 8449   2.154   1.556   1.127
 2807SOL    HW2 8450   2.055   1.666   1.059
 2808SOL     OW 8451   4.469   4.830   1.951
 2808SOL    HW1 8452   4.370   4.823   1.939
 2808SOL    HW2 8453   4.514   4.769   1.885
 2809SOL     OW 8454   3.651   2.822   1.121
 2809SOL    HW1 8455   3.617   2.835   1.027
 2809SOL    HW2 8456   3.738   2.773   1.118
 2810SOL     OW 8457   4.002   2.488   1.245
 2810SOL    HW1 8458   4.027   2.547   1.323
 2810SOL    HW2 8459   4.040   2.397   1.260
 2811SOL     OW 8460   0.586   1.711   1.897
 2811SOL    HW1 8461   0.669   1.764   1.910
 2811SOL    HW2 8462   0.577   1.685   1.801
 2812SOL     OW 8463   1.328   0.411   1.098
 2812SOL    HW1 8464   1.298   0.350   1.024
 2812SOL    HW2 8465   1.257   0.479   1.116
 2813SOL     OW 8466   3.399   3.323   3.492
 2813SOL    HW1 8467   3.430   3.343   3.585
 2813SOL    HW2 8468   3.415   3.226   3.472
 2814SOL     OW 8469   2.372   1.293   3.715
 2814SOL    HW1 8470   2.425   1.323   3.795
 2814SOL    HW2 8471   2.297   1.235   3.745
 2815SOL     OW 8472   4.704   3.021   3.002
 2815SOL    HW1 8473   4.687   3.096   3.066
 2815SOL    HW2 8474   4.730   3.057   2.913
 2816SOL     OW 8475   3.617   3.858   1.967
 2816SOL    HW1 8476   3.686   3.849   1.896
 2816SOL    HW2 8477   3.627   3.783   2.033
 2817SOL     OW 8478   4.138   3.624   4.931
 2817SOL    HW1 8479   4.138   3.525   4.936
 2817SOL    HW2 8480   4.075   3.661   4.999
 2818SOL     OW 8481   1.938   3.872   0.123
 2818SOL    HW1 8482   1.909   3.836   0.034
 2818SOL    HW2 8483   2.027   3.833   0.147
 2819SOL     OW 8484   3.486   1.602   1.971
 2819SOL    HW1 8485   3.430   1.684   1.961
 2819SOL    HW2 8486   3.526   1.600   2.063
 2820SOL     OW 8487   0.752   4.475   3.196
 2820SOL    HW1 8488   0.709   4.467   3.107
 2820SOL    HW2 8489   0.727   4.397   3.254
 2821SOL     OW 8490   1.422   4.513   1.926
 2821SOL    HW1 8491   1.497   4.447   1.929
 2821SOL    HW2 8492   1.400   4.543   2.019
 2822SOL     OW 8493   1.126   3.586   2.894
 2822SOL    HW1 8494   1.203   3.591   2.958
 2822SOL    HW2 8495   1.157   3.539   2.810
 2823SOL     OW 8496   4.987   3.421   2.278
 2823SOL    HW1 8497   0.047   3.391   2.280
 2823SOL    HW2 8498   4.978   3.506   2.331
 2824SOL     OW 8499   0.300   4.231   4.637
 2824SOL    HW1 8500   0.380   4.210   4.581
 2824SOL    HW2 8501   0.312   4.193   4.729
 2825SOL     OW 8502   1.155   2.332   1.577
 2825SOL    HW1 8503   1.093   2.255   1.584
 2825SOL    HW2 8504   1.213   2.320   1.496
 2826SOL     OW 8505   4.698   1.094   0.538
 2826SOL    HW1 8506   4.789   1.131   0.556
 2826SOL    HW2 8507   4.657   1.141   0.461
 2827SOL     OW 8508   1.519   2.450   1.079
 2827SOL    HW1 8509   1.501   2.544   1.053
 2827SOL    HW2 8510   1.601   2.446   1.137
 2828SOL     OW 8511   2.590   0.509   4.036
 2828SOL    HW1 8512   2.674   0.456   4.049
 2828SOL    HW2 8513   2.575   0.569   4.115
 2829SOL     OW 8514   2.306   1.880   3.201
 2829SOL    HW1 8515   2.311   1.824   3.284
 2829SOL    HW2 8516   2.311   1.977   3.226
 2830SOL     OW 8517   0.030   1.064   1.956
 2830SOL    HW1 8518   5.017   1.145   1.923
 2830SOL    HW2 8519   5.006   1.014   2.020
 2831SOL     OW 8520   2.665   1.780   0.680
 2831SOL    HW1 8521   2.631   1.820   0.594
 2831SOL    HW2 8522   2.587   1.756   0.738
 2832SOL     OW 8523   1.312   0.534   4.589
 2832SOL    HW1 8524   1.411   0.532   4.603
 2832SOL    HW2 8525   1.276   0.441   4.595
 2833SOL     OW 8526   0.769   1.533   2.784
 2833SOL    HW1 8527   0.687   1.535   2.841
 2833SOL    HW2 8528   0.782   1.441   2.747
 2834SOL     OW 8529   3.273   4.340   2.428
 2834SOL    HW1 8530   3.292   4.350   2.330
 2834SOL    HW2 8531   3.218   4.257   2.443
 2835SOL     OW 8532   2.016   0.778   3.143
 2835SOL    HW1 8533   1.979   0.803   3.232
 2835SOL    HW2 8534   1.940   0.755   3.081
 2836SOL     OW 8535   0.472   4.834   1.766
 2836SOL    HW1 8536   0.487   4.818   1.668
 2836SOL    HW2 8537   0.446   4.929   1.781
 2837SOL     OW 8538   2.737   0.966   2.090
 2837SOL    HW1 8539   2.822   0.965   2.038
 2837SOL    HW2 8540   2.750   0.916   2.176
 2838SOL     OW 8541   0.811   4.854   2.123
 2838SOL    HW1 8542   0.745   4.868   2.198
 2838SOL    HW2 8543   0.764   4.810   2.046
 2839SOL     OW 8544   0.739   0.221   4.621
 2839SOL    HW1 8545   0.819   0.172   4.654
 2839SOL    HW2 8546   0.756   0.256   4.529
 2840SOL     OW 8547   2.767   2.023   0.092
 2840SOL    HW1 8548   2.685   2.071   0.059
 2840SOL    HW2 8549   2.827   2.087   0.140
 2841SOL     OW 8550   4.209   3.588   1.337
 2841SOL    HW1 8551   4.182   3.682   1.316
 2841SOL    HW2 8552   4.208   3.574   1.436
 2842SOL     OW 8553   0.511   4.774   4.718
 2842SOL    HW1 8554   0.540   4.727   4.801
 2842SOL    HW2 8555   0.563   4.739   4.640
 2843SOL     OW 8556   2.887   2.799   0.345
 2843SOL    HW1 8557   2.854   2.704   0.344
 2843SOL    HW2 8558   2.953   2.812   0.271
 2844SOL     OW 8559   3.107   3.122   3.240
 2844SOL    HW1 8560   3.154   3.076   3.315
 2844SOL    HW2 8561   3.069   3.053   3.177
 2845SOL     OW 8562   0.058   3.814   4.140
 2845SOL    HW1 8563   0.106   3.824   4.053
 2845SOL    HW2 8564   0.100   3.875   4.208
 2846SOL     OW 8565   0.761   0.249   0.512
 2846SOL    HW1 8566   0.805   0.307   0.581
 2846SOL    HW2 8567   0.672   0.218   0.546
 2847SOL     OW 8568   1.617   1.680   1.536
 2847SOL    HW1 8569   1.535   1.670   1.480
 2847SOL    HW2 8570   1.629   1.775   1.563
 2848SOL     OW 8571   4.347   3.597   2.893
 2848SOL    HW1 8572   4.318   3.692   2.877
 2848SOL    HW2 8573   4.317   3.540   2.817
 2849SOL     OW 8574   2.591   2.692   4.899
 2849SOL    HW1 8575   2.504   2.658   4.935
 2849SOL    HW2 8576   2.622   2.631   4.825
 2850SOL     OW 8577   2.169   1.729   2.070
 2850SOL    HW1 8578   2.210   1.791   2.002
 2850SOL    HW2 8579   2.134   1.648   2.023
 2851SOL     OW 8580   0.504   4.160   4.450
 2851SOL    HW1 8581   0.587   4.137   4.501
 2851SOL    HW2 8582   0.519   4.243   4.397
 2852SOL     OW 8583   3.509   1.551   2.925
 2852SOL    HW1 8584   3.513   1.458   2.889
 2852SOL    HW2 8585   3.473   1.549   3.018
 2853SOL     OW 8586   2.646   3.914   1.711
 2853SOL    HW1 8587   2.664   3.916   1.810
 2853SOL    HW2 8588   2.680   3.998   1.670
 2854SOL     OW 8589   0.249   2.697   0.631
 2854SOL    HW1 8590   0.204   2.690   0.542
 2854SOL    HW2 8591   0.319   2.769   0.627
 2855SOL     OW 8592   2.147   4.641   4.374
 2855SOL    HW1 8593   2.088   4.643   4.455
 2855SOL    HW2 8594   2.177   4.548   4.356
 2856SOL     OW 8595   3.732   4.384   4.976
 2856SOL    HW1 8596   3.815   4.352   4.931
 2856SOL    HW2 8597   3.652   4.353   4.925
 2857SOL     OW 8598   4.376   3.114   4.944
 2857SOL    HW1 8599   4.446   3.173   4.983
 2857SOL    HW2 8600   4.355   3.040   5.007
 2858SOL     OW 8601   2.684   2.950   1.849
 2858SOL    HW1 8602   2.754   3.014   1.816
 2858SOL    HW2 8603   2.642   2.986   1.932
 2859SOL     OW 8604   3.098   4.929   4.688
 2859SOL    HW1 8605   3.107   4.844   4.636
 2859SOL    HW2 8606   3.188   4.971   4.699
 2860SOL     OW 8607   1.871   0.501   4.387
 2860SOL    HW1 8608   1.874   0.598   4.361
 2860SOL    HW2 8609   1.777   0.477   4.414
 2861SOL     OW 8610   4.456   1.693   4.334
 2861SOL    HW1 8611   4.383   1.647   4.384
 2861SOL    HW2 8612   4.509   1.626   4.282
 2862SOL     OW 8613   0.651   1.820   1.471
 2862SOL    HW1 8614   0.719   1.768   1.420
 2862SOL    HW2 8615   0.650   1.915   1.440
 2863SOL     OW 8616   1.418   4.342   0.539
 2863SOL    HW1 8617   1.435   4.428   0.587
 2863SOL    HW2 8618   1.506   4.300   0.515
 2864SOL     OW 8619   1.474   2.056   2.986
 2864SOL    HW1 8620   1.409   2.037   2.912
 2864SOL    HW2 8621   1.434   2.027   3.073
 2865SOL     OW 8622   0.473   4.031   4.794
 2865SOL    HW1 8623   0.494   3.979   4.711
 2865SOL    HW2 8624   0.382   4.006   4.828
 2866SOL     OW 8625   0.766   2.650   0.019
 2866SOL    HW1 8626   0.844   2.598   5.017
 2866SOL    HW2 8627   0.744   2.615   0.110
 2867SOL     OW 8628   3.039   0.167   3.007
 2867SOL    HW1 8629   3.044   0.244   2.943
 2867SOL    HW2 8630   3.131   0.146   3.040
 2868SOL     OW 8631   2.446   4.379   3.203
 2868SOL    HW1 8632   2.541   4.390   3.172
 2868SOL    HW2 8633   2.411   4.292   3.168
 2869SOL     OW 8634   4.148   1.684   4.180
 2869SOL    HW1 8635   4.165   1.653   4.273
 2869SOL    HW2 8636   4.051   1.708   4.170
 2870SOL     OW 8637   4.470   0.763   4.725
 2870SOL    HW1 8638   4.372   0.743   4.729
 2870SOL    HW2 8639   4.498   0.806   4.811
 2871SOL     OW 8640   0.752   1.477   1.582
 2871SOL    HW1 8641   0.822   1.469   1.654
 2871SOL    HW2 8642   0.675   1.530   1.617
 2872SOL     OW 8643   4.196   2.381   4.397
 2872SOL    HW1 8644   4.266   2.373   4.327
 2872SOL    HW2 8645   4.182   2.293   4.442
 2873SOL     OW 8646   3.744   1.517   4.946
 2873SOL    HW1 8647   3.739   1.592   5.011
 2873SOL    HW2 8648   3.668   1.525   4.880
 2874SOL     OW 8649   4.104   2.405   0.556
 2874SOL    HW1 8650   4.053   2.468   0.616
 2874SOL    HW2 8651   4.051   2.322   0.543
 2875SOL     OW 8652   3.969   0.737   0.522
 2875SOL    HW1 8653   3.890   0.728   0.583
 2875SOL    HW2 8654   3.955   0.814   0.460
 2876SOL     OW 8655   2.419   1.930   2.102
 2876SOL    HW1 8656   2.352   1.970   2.041
 2876SOL    HW2 8657   2.373   1.878   2.174
 2877SOL     OW 8658   1.710   4.288   4.290
 2877SOL    HW1 8659   1.791   4.230   4.277
 2877SOL    HW2 8660   1.630   4.242   4.253
 2878SOL     OW 8661   4.242   0.871   4.243
 2878SOL    HW1 8662   4.302   0.950   4.246
 2878SOL    HW2 8663   4.152   0.899   4.207
 2879SOL     OW 8664   2.876   4.996   4.465
 2879SOL    HW1 8665   2.847   4.939   4.541
 2879SOL    HW2 8666   2.821   4.975   4.384
 2880SOL     OW 8667   0.426   2.853   0.477
 2880SOL    HW1 8668   0.395   2.775   0.422
 2880SOL    HW2 8669   0.524   2.845   0.495
 2881SOL     OW 8670   0.915   3.753   2.877
 2881SOL    HW1 8671   0.961   3.831   2.836
 2881SOL    HW2 8672   0.982   3.683   2.902
 2882SOL     OW 8673   2.171   1.479   2.873
 2882SOL    HW1 8674   2.140   1.531   2.792
 2882SOL    HW2 8675   2.251   1.524   2.913
 2883SOL     OW 8676   3.091   1.437   3.366
 2883SOL    HW1 8677   3.139   1.473   3.286
 2883SOL    HW2 8678   3.003   1.398   3.337
 2884SOL     OW 8679   2.187   0.352   3.301
 2884SOL    HW1 8680   2.159   0.423   3.236
 2884SOL    HW2 8681   2.123   0.349   3.377
 2885SOL     OW 8682   4.558   2.368   4.435
 2885SOL    HW1 8683   4.499   2.416   4.500
 2885SOL    HW2 8684   4.507   2.353   4.350
 2886SOL     OW 8685   1.192   0.218   3.149
 2886SOL    HW1 8686   1.169   0.303   3.196
 2886SOL    HW2 8687   1.254   0.164   3.206
 2887SOL     OW 8688   1.308   0.839   3.188
 2887SOL    HW1 8689   1.217   0.843   3.230
 2887SOL    HW2 8690   1.374   0.884   3.248
 2888SOL     OW 8691   2.954   3.339   4.513
 2888SOL    HW1 8692   2.859   3.350   4.484
 2888SOL    HW2 8693   3.006   3.295   4.440
 2889SOL     OW 8694   1.386   4.358   1.699
 2889SOL    HW1 8695   1.381   4.393   1.793
 2889SOL    HW2 8696   1.406   4.433   1.637
 2890SOL     OW 8697   4.158   0.577   0.412
 2890SOL    HW1 8698   4.116   0.552   0.325
 2890SOL    HW2 8699   4.089   0.617   0.473
 2891SOL     OW 8700   2.797   4.022   3.859
 2891SOL    HW1 8701   2.885   4.032   3.905
 2891SOL    HW2 8702   2.723   4.035   3.925
 2892SOL     OW 8703   0.292   3.142   4.094
 2892SOL    HW1 8704   0.210   3.157   4.039
 2892SOL    HW2 8705   0.334   3.229   4.116
 2893SOL     OW 8706   4.584   2.629   1.157
 2893SOL    HW1 8707   4.511   2.629   1.225
 2893SOL    HW2 8708   4.564   2.561   1.086
 2894SOL     OW 8709   3.163   4.696   4.565
 2894SOL    HW1 8710   3.133   4.616   4.617
 2894SOL    HW2 8711   3.249   4.674   4.519
 2895SOL     OW 8712   1.427   0.119   3.016
 2895SOL    HW1 8713   1.335   0.150   3.040
 2895SOL    HW2 8714   1.439   0.125   2.916
 2896SOL     OW 8715   2.113   1.908   3.443
 2896SOL    HW1 8716   2.042   1.945   3.503
 2896SOL    HW2 8717   2.072   1.880   3.356
 2897SOL     OW 8718   0.284   0.050   0.357
 2897SOL    HW1 8719   0.371   0.037   0.309
 2897SOL    HW2 8720   0.220   0.098   0.298
 2898SOL     OW 8721   4.758   1.927   0.904
 2898SOL    HW1 8722   4.798   1.835   0.903
 2898SOL    HW2 8723   4.736   1.955   0.810
 2899SOL     OW 8724   1.938   4.434   1.759
 2899SOL    HW1 8725   1.987   4.406   1.842
 2899SOL    HW2 8726   1.900   4.354   1.714
 2900SOL     OW 8727   3.426   4.883   0.647
 2900SOL    HW1 8728   3.401   4.840   0.561
 2900SOL    HW2 8729   3.345   4.928   0.686
 2901SOL     OW 8730   4.588   0.541   3.203
 2901SOL    HW1 8731   4.569   0.563   3.299
 2901SOL    HW2 8732   4.674   0.584   3.176
 2902SOL     OW 8733   0.616   1.507   0.020
 2902SOL    HW1 8734   0.659   1.584   5.008
 2902SOL    HW2 8735   0.516   1.518   0.017
 2903SOL     OW 8736   4.195   4.855   4.415
 2903SOL    HW1 8737   4.159   4.821   4.503
 2903SOL    HW2 8738   4.120   4.896   4.363
 2904SOL     OW 8739   3.557   4.753   0.839
 2904SOL    HW1 8740   3.519   4.806   0.763
 2904SOL    HW2 8741   3.494   4.757   0.917
 2905SOL     OW 8742   0.067   4.646   2.915
 2905SOL    HW1 8743   0.079   4.692   2.827
 2905SOL    HW2 8744   0.097   4.551   2.907
 2906SOL     OW 8745   4.411   0.561   0.764
 2906SOL    HW1 8746   4.414   0.519   0.855
 2906SOL    HW2 8747   4.470   0.641   0.762
 2907SOL     OW 8748   3.276   1.442   4.010
 2907SOL    HW1 8749   3.266   1.541   4.020
 2907SOL    HW2 8750   3.217   1.409   3.936
 2908SOL     OW 8751   0.240   1.511   2.983
 2908SOL    HW1 8752   0.207   1.580   2.919
 2908SOL    HW2 8753   0.184   1.428   2.976
 2909SOL     OW 8754   2.839   1.512   4.093
 2909SOL    HW1 8755   2.765   1.444   4.090
 2909SOL    HW2 8756   2.921   1.470   4.133
 2910SOL     OW 8757   2.154   4.517   2.106
 2910SOL    HW1 8758   2.208   4.535   2.188
 2910SOL    HW2 8759   2.155   4.597   2.047
 2911SOL     OW 8760   1.305   1.743   2.944
 2911SOL    HW1 8761   1.242   1.817   2.918
 2911SOL    HW2 8762   1.255   1.657   2.949
 2912SOL     OW 8763   4.751   2.081   1.924
 2912SOL    HW1 8764   4.779   2.013   1.856
 2912SOL    HW2 8765   4.828   2.144   1.942
 2913SOL     OW 8766   3.339   4.877   2.731
 2913SOL    HW1 8767   3.286   4.859   2.815
 2913SOL    HW2 8768   3.294   4.834   2.653
 2914SOL     OW 8769   1.154   0.528   3.372
 2914SOL    HW1 8770   1.078   0.479   3.329
 2914SOL    HW2 8771   1.130   0.550   3.467
 2915SOL     OW 8772   2.515   3.840   3.149
 2915SOL    HW1 8773   2.505   3.935   3.119
 2915SOL    HW2 8774   2.574   3.791   3.085
 2916SOL     OW 8775   3.838   2.618   1.996
 2916SOL    HW1 8776   3.745   2.645   1.971
 2916SOL    HW2 8777   3.833   2.541   2.060
 2917SOL     OW 8778   0.151   1.507   1.363
 2917SOL    HW1 8779   0.129   1.491   1.460
 2917SOL    HW2 8780   0.244   1.475   1.345
 2918SOL     OW 8781   3.383   1.175   0.692
 2918SOL    HW1 8782   3.348   1.140   0.605
 2918SOL    HW2 8783   3.307   1.195   0.754
 2919SOL     OW 8784   2.736   3.583   1.712
 2919SOL    HW1 8785   2.754   3.534   1.797
 2919SOL    HW2 8786   2.734   3.681   1.729
 2920SOL     OW 8787   2.624   4.135   3.417
 2920SOL    HW1 8788   2.642   4.145   3.515
 2920SOL    HW2 8789   2.526   4.117   3.403
 2921SOL     OW 8790   4.346   4.694   3.028
 2921SOL    HW1 8791   4.375   4.628   2.959
 2921SOL    HW2 8792   4.403   4.685   3.110
 2922SOL     OW 8793   4.570   0.811   0.586
 2922SOL    HW1 8794   4.554   0.860   0.671
 2922SOL    HW2 8795   4.621   0.869   0.523
 2923SOL     OW 8796   4.763   0.548   1.442
 2923SOL    HW1 8797   4.778   0.635   1.488
 2923SOL    HW2 8798   4.821   0.477   1.483
 2924SOL     OW 8799   1.065   0.513   4.404
 2924SOL    HW1 8800   1.083   0.436   4.344
 2924SOL    HW2 8801   1.104   0.496   4.494
 2925SOL     OW 8802   2.279   2.318   4.633
 2925SOL    HW1 8803   2.208   2.379   4.667
 2925SOL    HW2 8804   2.358   2.321   4.695
 2926SOL     OW 8805   3.724   4.535   4.323
 2926SOL    HW1 8806   3.713   4.436   4.307
 2926SOL    HW2 8807   3.696   4.557   4.417
 2927SOL     OW 8808   0.118   2.803   1.643
 2927SOL    HW1 8809   0.179   2.882   1.635
 2927SOL    HW2 8810   0.059   2.813   1.723
 2928SOL     OW 8811   2.924   1.529   2.154
 2928SOL    HW1 8812   2.839   1.528   2.206
 2928SOL    HW2 8813   3.000   1.552   2.215
 2929SOL     OW 8814   2.146   3.268   3.999
 2929SOL    HW1 8815   2.085   3.242   3.924
 2929SOL    HW2 8816   2.092   3.293   4.079
 2930SOL     OW 8817   2.158   4.492   2.415
 2930SOL    HW1 8818   2.068   4.534   2.412
 2930SOL    HW2 8819   2.221   4.552   2.464
 2931SOL     OW 8820   2.405   0.082   3.404
 2931SOL    HW1 8821   2.311   0.063   3.433
 2931SOL    HW2 8822   2.443   0.155   3.462
 2932SOL     OW 8823   2.821   1.547   2.428
 2932SOL    HW1 8824   2.900   1.527   2.487
 2932SOL    HW2 8825   2.752   1.476   2.439
 2933SOL     OW 8826   3.251   3.894   3.267
 2933SOL    HW1 8827   3.254   3.810   3.213
 2933SOL    HW2 8828   3.323   3.892   3.336
 2934SOL     OW 8829   0.345   0.787   3.548
 2934SOL    HW1 8830   0.348   0.770   3.449
 2934SOL    HW2 8831   0.264   0.743   3.587
 2935SOL     OW 8832   1.274   1.842   2.013
 2935SOL    HW1 8833   1.254   1.782   1.936
 2935SOL    HW2 8834   1.268   1.789   2.098
 2936SOL     OW 8835   3.616   4.843   0.046
 2936SOL    HW1 8836   3.614   4.819   0.143
 2936SOL    HW2 8837   3.523   4.855   0.013
 2937SOL     OW 8838   2.027   3.990   3.696
 2937SOL    HW1 8839   2.088   3.912   3.683
 2937SOL    HW2 8840   1.982   4.012   3.609
 2938SOL     OW 8841   3.525   2.527   0.419
 2938SOL    HW1 8842   3.547   2.433   0.444
 2938SOL    HW2 8843   3.513   2.533   0.320
 2939SOL     OW 8844   1.323   3.621   1.104
 2939SOL    HW1 8845   1.269   3.543   1.134
 2939SOL    HW2 8846   1.299   3.645   1.010
 2940SOL     OW 8847   4.843   3.261   0.613
 2940SOL    HW1 8848   4.921   3.214   0.571
 2940SOL    HW2 8849   4.786   3.301   0.542
 2941SOL     OW 8850   0.883   4.282   2.215
 2941SOL    HW1 8851   0.939   4.357   2.250
 2941SOL    HW2 8852   0.935   4.232   2.145
 2942SOL     OW 8853   4.941   4.481   3.079
 2942SOL    HW1 8854   4.995   4.557   3.043
 2942SOL    HW2 8855   4.987   4.441   3.158
 2943SOL     OW 8856   4.569   1.362   3.347
 2943SOL    HW1 8857   4.589   1.308   3.265
 2943SOL    HW2 8858   4.587   1.307   3.428
 2944SOL     OW 8859   2.196   3.504   3.660
 2944SOL    HW1 8860   2.128   3.488   3.588
 2944SOL    HW2 8861   2.150   3.532   3.744
 2945SOL     OW 8862   3.974   4.813   0.682
 2945SOL    HW1 8863   3.990   4.898   0.632
 2945SOL    HW2 8864   4.058   4.785   0.729
 2946SOL     OW 8865   2.540   3.837   1.083
 2946SOL    HW1 8866   2.590   3.752   1.098
 2946SOL    HW2 8867   2.527   3.851   0.985
 2947SOL     OW 8868   1.452   2.062   0.576
 2947SOL    HW1 8869   1.494   2.029   0.491
 2947SOL    HW2 8870   1.365   2.107   0.554
 2948SOL     OW 8871   3.011   1.787   3.710
 2948SOL    HW1 8872   3.033   1.730   3.789
 2948SOL    HW2 8873   2.938   1.744   3.657
 2949SOL     OW 8874   0.187   0.561   0.298
 2949SOL    HW1 8875   0.171   0.611   0.383
 2949SOL    HW2 8876   0.264   0.601   0.250
 2950SOL     OW 8877   1.222   2.197   0.963
 2950SOL    HW1 8878   1.300   2.191   0.901
 2950SOL    HW2 8879   1.241   2.266   1.033
 2951SOL     OW 8880   2.211   3.779   3.712
 2951SOL    HW1 8881   2.285   3.815   3.769
 2951SOL    HW2 8882   2.234   3.687   3.681
 2952SOL     OW 8883   0.452   1.429   3.397
 2952SOL    HW1 8884   0.432   1.527   3.400
 2952SOL    HW2 8885   0.495   1.401   3.483
 2953SOL     OW 8886   2.377   1.547   1.948
 2953SOL    HW1 8887   2.304   1.499   1.998
 2953SOL    HW2 8888   2.336   1.615   1.888
 2954SOL     OW 8889   4.099   4.937   1.189
 2954SOL    HW1 8890   4.103   4.841   1.217
 2954SOL    HW2 8891   4.186   4.981   1.209
 2955SOL     OW 8892   1.037   3.957   3.674
 2955SOL    HW1 8893   1.048   4.049   3.712
 2955SOL    HW2 8894   1.017   3.964   3.576
 2956SOL     OW 8895   3.001   3.016   4.331
 2956SOL    HW1 8896   2.908   3.038   4.301
 2956SOL    HW2 8897   3.005   3.019   4.431
 2957SOL     OW 8898   4.342   4.608   3.461
 2957SOL    HW1 8899   4.374   4.514   3.470
 2957SOL    HW2 8900   4.305   4.640   3.548
 2958SOL     OW 8901   0.722   0.641   1.484
 2958SOL    HW1 8902   0.786   0.590   1.426
 2958SOL    HW2 8903   0.634   0.594   1.487
 2959SOL     OW 8904   1.772   1.816   0.411
 2959SOL    HW1 8905   1.824   1.833   0.494
 2959SOL    HW2 8906   1.711   1.893   0.393
 2960SOL     OW 8907   2.114   2.800   0.085
 2960SOL    HW1 8908   2.127   2.776   0.181
 2960SOL    HW2 8909   2.203   2.802   0.039
 2961SOL     OW 8910   2.768   4.368   3.333
 2961SOL    HW1 8911   2.725   4.278   3.325
 2961SOL    HW2 8912   2.847   4.362   3.393
 2962SOL     OW 8913   4.431   2.641   1.389
 2962SOL    HW1 8914   4.517   2.676   1.425
 2962SOL    HW2 8915   4.360   2.651   1.459
 2963SOL     OW 8916   1.097   4.508   1.899
 2963SOL    HW1 8917   1.169   4.544   1.841
 2963SOL    HW2 8918   1.023   4.473   1.841
 2964SOL     OW 8919   1.316   3.333   2.324
 2964SOL    HW1 8920   1.273   3.244   2.336
 2964SOL    HW2 8921   1.254   3.405   2.354
 2965SOL     OW 8922   0.648   2.977   3.393
 2965SOL    HW1 8923   0.581   3.004   3.324
 2965SOL    HW2 8924   0.717   2.918   3.351
 2966SOL     OW 8925   1.643   3.962   1.232
 2966SOL    HW1 8926   1.549   3.944   1.202
 2966SOL    HW2 8927   1.662   4.060   1.227
 2967SOL     OW 8928   4.795   4.102   1.317
 2967SOL    HW1 8929   4.891   4.092   1.293
 2967SOL    HW2 8930   4.745   4.141   1.239
 2968SOL     OW 8931   0.825   2.585   1.807
 2968SOL    HW1 8932   0.804   2.619   1.899
 2968SOL    HW2 8933   0.804   2.656   1.740
 2969SOL     OW 8934   0.585   3.206   1.069
 2969SOL    HW1 8935   0.617   3.251   0.986
 2969SOL    HW2 8936   0.535   3.123   1.045
 2970SOL     OW 8937   0.401   3.714   2.509
 2970SOL    HW1 8938   0.332   3.750   2.447
 2970SOL    HW2 8939   0.357   3.677   2.591
 2971SOL     OW 8940   1.489   0.092   0.423
 2971SOL    HW1 8941   1.399   0.047   0.421
 2971SOL    HW2 8942   1.558   0.024   0.448
 2972SOL     OW 8943   1.016   3.140   3.168
 2972SOL    HW1 8944   1.065   3.184   3.093
 2972SOL    HW2 8945   0.970   3.058   3.134
 2973SOL     OW 8946   3.536   0.319   4.716
 2973SOL    HW1 8947   3.437   0.331   4.730
 2973SOL    HW2 8948   3.553   0.289   4.622
 2974SOL     OW 8949   4.952   2.600   1.063
 2974SOL    HW1 8950   4.927   2.648   1.147
 2974SOL    HW2 8951   4.950   2.664   0.986
 2975SOL     OW 8952   3.779   4.423   0.263
 2975SOL    HW1 8953   3.815   4.377   0.344
 2975SOL    HW2 8954   3.853   4.434   0.196
 2976SOL     OW 8955   4.148   0.736   3.137
 2976SOL    HW1 8956   4.150   0.641   3.106
 2976SOL    HW2 8957   4.087   0.742   3.217
 2977SOL     OW 8958   2.673   2.088   2.384
 2977SOL    HW1 8959   2.622   2.161   2.338
 2977SOL    HW2 8960   2.615   2.046   2.455
 2978SOL     OW 8961   2.795   3.301   3.720
 2978SOL    HW1 8962   2.709   3.321   3.768
 2978SOL    HW2 8963   2.796   3.205   3.692
 2979SOL     OW 8964   2.618   3.712   1.999
 2979SOL    HW1 8965   2.708   3.718   2.041
 2979SOL    HW2 8966   2.601   3.618   1.969
 2980SOL     OW 8967   4.674   2.482   1.577
 2980SOL    HW1 8968   4.676   2.544   1.656
 2980SOL    HW2 8969   4.581   2.446   1.565
 2981SOL     OW 8970   1.672   0.710   4.229
 2981SOL    HW1 8971   1.597   0.770   4.200
 2981SOL    HW2 8972   1.692   0.727   4.325
 2982SOL     OW 8973   4.580   2.301   0.209
 2982SOL    HW1 8974   4.537   2.229   0.154
 2982SOL    HW2 8975   4.587   2.384   0.154
 2983SOL     OW 8976   0.436   0.561   3.932
 2983SOL    HW1 8977   0.372   0.499   3.976
 2983SOL    HW2 8978   0.486   0.613   4.002
 2984SOL     OW 8979   4.576   0.765   2.115
 2984SOL    HW1 8980   4.636   0.739   2.190
 2984SOL    HW2 8981   4.481   0.750   2.142
 2985SOL     OW 8982   3.156   4.426   0.150
 2985SOL    HW1 8983   3.170   4.525   0.138
 2985SOL    HW2 8984   3.060   4.404   0.135
 2986SOL     OW 8985   0.775   3.661   0.987
 2986SOL    HW1 8986   0.874   3.676   0.991
 2986SOL    HW2 8987   0.734   3.686   1.075
 2987SOL     OW 8988   3.617   1.147   0.278
 2987SOL    HW1 8989   3.522   1.156   0.308
 2987SOL    HW2 8990   3.678   1.173   0.353
 2988SOL     OW 8991   4.276   0.414   2.700
 2988SOL    HW1 8992   4.295   0.327   2.654
 2988SOL    HW2 8993   4.224   0.473   2.639
 2989SOL     OW 8994   2.303   0.126   1.107
 2989SOL    HW1 8995   2.331   0.083   1.021
 2989SOL    HW2 8996   2.209   0.159   1.098
 2990SOL     OW 8997   3.113   3.284   0.302
 2990SOL    HW1 8998   3.143   3.379   0.316
 2990SOL    HW2 8999   3.132   3.256   0.208
 2991SOL     OW 9000   4.945   2.847   2.669
 2991SOL    HW1 9001   0.007   2.869   2.662
 2991SOL    HW2 9002   4.933   2.762   2.720
 2992SOL     OW 9003   0.496   0.488   1.475
 2992SOL    HW1 9004   0.489   0.389   1.478
 2992SOL    HW2 9005   0.454   0.528   1.556
 2993SOL     OW 9006   2.607   3.382   4.654
 2993SOL    HW1 9007   2.669   3.458   4.637
 2993SOL    HW2 9008   2.614   3.354   4.750
 2994SOL     OW 9009   1.897   1.600   3.533
 2994SOL    HW1 9010   1.821   1.570   3.476
 2994SOL    HW2 9011   1.918   1.529   3.600
 2995SOL     OW 9012   0.042   4.215   4.559
 2995SOL    HW1 9013   0.016   4.311   4.548
 2995SOL    HW2 9014   0.137   4.209   4.589
 2996SOL     OW 9015   3.311   1.685   4.224
 2996SOL    HW1 9016   3.375   1.610   4.243
 2996SOL    HW2 9017   3.361   1.761   4.183
 2997SOL     OW 9018   1.850   3.560   0.637
 2997SOL    HW1 9019   1.948   3.550   0.617
 2997SOL    HW2 9020   1.809   3.469   0.645
 2998SOL     OW 9021   0.639   1.860   0.693
 2998SOL    HW1 9022   0.603   1.784   0.747
 2998SOL    HW2 9023   0.564   1.913   0.655
 2999SOL     OW 9024   2.662   3.591   1.149
 2999SOL    HW1 9025   2.611   3.568   1.232
 2999SOL    HW2 9026   2.676   3.509   1.094
 3000SOL     OW 9027   0.513   0.335   2.321
 3000SOL    HW1 9028   0.544   0.418   2.368
 3000SOL    HW2 9029   0.526   0.345   2.223
 3001SOL     OW 9030   0.490   0.739   2.861
 3001SOL    HW1 9031   0.551   0.748   2.782
 3001SOL    HW2 9032   0.533   0.782   2.941
 3002SOL     OW 9033   4.116   0.109   1.438
 3002SOL    HW1 9034   4.088   0.013   1.430
 3002SOL    HW2 9035   4.202   0.122   1.389
 3003SOL     OW 9036   0.842   3.465   0.588
 3003SOL    HW1 9037   0.892   3.491   0.505
 3003SOL    HW2 9038   0.901   3.408   0.646
 3004SOL     OW 9039   2.110   0.320   1.048
 3004SOL    HW1 9040   2.203   0.325   1.011
 3004SOL    HW2 9041   2.059   0.401   1.019
 3005SOL     OW 9042   2.219   1.468   3.563
 3005SOL    HW1 9043   2.137   1.422   3.528
 3005SOL    HW2 9044   2.268   1.407   3.624
 3006SOL     OW 9045   2.403   1.521   2.321
 3006SOL    HW1 9046   2.306   1.545   2.332
 3006SOL    HW2 9047   2.446   1.511   2.410
 3007SOL     OW 9048   4.788   3.120   0.310
 3007SOL    HW1 9049   4.807   3.048   0.244
 3007SOL    HW2 9050   4.696   3.108   0.347
 3008SOL     OW 9051   2.127   2.020   4.714
 3008SOL    HW1 9052   2.193   2.061   4.652
 3008SOL    HW2 9053   2.173   1.956   4.775
 3009SOL     OW 9054   1.217   4.568   1.237
 3009SOL    HW1 9055   1.304   4.522   1.250
 3009SOL    HW2 9056   1.191   4.615   1.322
 3010SOL     OW 9057   4.069   1.706   3.769
 3010SOL    HW1 9058   4.090   1.621   3.720
 3010SOL    HW2 9059   4.154   1.754   3.790
 3011SOL     OW 9060   1.584   1.831   4.189
 3011SOL    HW1 9061   1.531   1.746   4.190
 3011SOL    HW2 9062   1.528   1.905   4.152
 3012SOL     OW 9063   3.048   2.918   3.810
 3012SOL    HW1 9064   3.039   2.843   3.743
 3012SOL    HW2 9065   3.109   2.889   3.883
 3013SOL     OW 9066   2.594   4.565   3.408
 3013SOL    HW1 9067   2.648   4.486   3.378
 3013SOL    HW2 9068   2.615   4.644   3.350
 3014SOL     OW 9069   1.041   1.234   3.456
 3014SOL    HW1 9070   1.025   1.202   3.549
 3014SOL    HW2 9071   1.133   1.209   3.427
 3015SOL     OW 9072   0.191   3.882   3.144
 3015SOL    HW1 9073   0.124   3.945   3.184
 3015SOL    HW2 9074   0.283   3.907   3.176
 3016SOL     OW 9075   0.063   2.916   3.138
 3016SOL    HW1 9076   5.001   2.899   3.121
 3016SOL    HW2 9077   0.074   3.009   3.174
 3017SOL     OW 9078   1.635   3.684   2.113
 3017SOL    HW1 9079   1.607   3.619   2.042
 3017SOL    HW2 9080   1.721   3.654   2.154
 3018SOL     OW 9081   4.792   2.814   3.314
 3018SOL    HW1 9082   4.780   2.772   3.224
 3018SOL    HW2 9083   4.821   2.909   3.303
 3019SOL     OW 9084   3.032   3.978   1.624
 3019SOL    HW1 9085   3.083   3.983   1.710
 3019SOL    HW2 9086   3.092   4.004   1.548
 3020SOL     OW 9087   3.035   1.209   1.459
 3020SOL    HW1 9088   3.088   1.136   1.417
 3020SOL    HW2 9089   2.970   1.169   1.524
 3021SOL     OW 9090   1.484   0.151   2.088
 3021SOL    HW1 9091   1.557   0.193   2.141
 3021SOL    HW2 9092   1.505   0.055   2.071
 3022SOL     OW 9093   1.806   0.115   2.457
 3022SOL    HW1 9094   1.725   0.074   2.498
 3022SOL    HW2 9095   1.783   0.153   2.367
 3023SOL     OW 9096   2.858   0.822   0.568
 3023SOL    HW1 9097   2.949   0.816   0.609
 3023SOL    HW2 9098   2.828   0.918   0.570
 3024SOL     OW 9099   2.864   0.694   1.970
 3024SOL    HW1 9100   2.789   0.636   2.002
 3024SOL    HW2 9101   2.933   0.702   2.041
 3025SOL     OW 9102   3.429   4.692   1.855
 3025SOL    HW1 9103   3.476   4.604   1.866
 3025SOL    HW2 9104   3.340   4.676   1.810
 3026SOL     OW 9105   2.330   0.892   1.961
 3026SOL    HW1 9106   2.248   0.948   1.967
 3026SOL    HW2 9107   2.389   0.928   1.889
 3027SOL     OW 9108   3.821   4.094   3.423
 3027SOL    HW1 9109   3.777   4.054   3.343
 3027SOL    HW2 9110   3.869   4.177   3.397
 3028SOL     OW 9111   3.776   0.873   2.354
 3028SOL    HW1 9112   3.842   0.931   2.305
 3028SOL    HW2 9113   3.791   0.881   2.452
 3029SOL     OW 9114   1.846   0.328   2.630
 3029SOL    HW1 9115   1.834   0.397   2.559
 3029SOL    HW2 9116   1.832   0.237   2.591
 3030SOL     OW 9117   0.272   0.255   3.129
 3030SOL    HW1 9118   0.292   0.253   3.227
 3030SOL    HW2 9119   0.174   0.265   3.115
 3031SOL     OW 9120   3.835   3.216   3.185
 3031SOL    HW1 9121   3.760   3.251   3.242
 3031SOL    HW2 9122   3.899   3.165   3.243
 3032SOL     OW 9123   1.849   3.123   2.198
 3032SOL    HW1 9124   1.793   3.139   2.116
 3032SOL    HW2 9125   1.790   3.123   2.279
 3033SOL     OW 9126   4.425   4.557   2.304
 3033SOL    HW1 9127   4.354   4.624   2.326
 3033SOL    HW2 9128   4.499   4.564   2.369
 3034SOL     OW 9129   0.274   3.024   1.621
 3034SOL    HW1 9130   0.240   3.114   1.649
 3034SOL    HW2 9131   0.309   3.029   1.528
 3035SOL     OW 9132   4.749   4.031   4.129
 3035SOL    HW1 9133   4.777   4.081   4.211
 3035SOL    HW2 9134   4.661   3.987   4.144
 3036SOL     OW 9135   0.654   4.537   2.255
 3036SOL    HW1 9136   0.651   4.618   2.196
 3036SOL    HW2 9137   0.655   4.454   2.199
 3037SOL     OW 9138   0.129   0.428   1.168
 3037SOL    HW1 9139   0.115   0.517   1.123
 3037SOL    HW2 9140   0.223   0.398   1.153
 3038SOL     OW 9141   4.646   0.781   2.614
 3038SOL    HW1 9142   4.547   0.766   2.607
 3038SOL    HW2 9143   4.681   0.740   2.697
 3039SOL     OW 9144   0.135   4.750   1.154
 3039SOL    HW1 9145   0.064   4.686   1.185
 3039SOL    HW2 9146   0.197   4.769   1.229
 3040SOL     OW 9147   3.017   4.156   2.529
 3040SOL    HW1 9148   3.000   4.160   2.431
 3040SOL    HW2 9149   2.943   4.202   2.578
 3041SOL     OW 9150   2.817   1.350   2.771
 3041SOL    HW1 9151   2.758   1.272   2.750
 3041SOL    HW2 9152   2.777   1.405   2.844
 3042SOL     OW 9153   2.866   1.574   0.449
 3042SOL    HW1 9154   2.962   1.601   0.443
 3042SOL    HW2 9155   2.841   1.558   0.544
 3043SOL     OW 9156   4.411   2.413   1.594
 3043SOL    HW1 9157   4.392   2.315   1.603
 3043SOL    HW2 9158   4.356   2.464   1.660
 3044SOL     OW 9159   5.008   0.357   1.779
 3044SOL    HW1 9160   4.996   0.260   1.760
 3044SOL    HW2 9161   4.919   0.400   1.792
 3045SOL     OW 9162   4.326   0.770   1.316
 3045SOL    HW1 9163   4.290   0.755   1.224
 3045SOL    HW2 9164   4.259   0.740   1.384
 3046SOL     OW 9165   4.634   4.130   1.085
 3046SOL    HW1 9166   4.646   4.066   1.009
 3046SOL    HW2 9167   4.566   4.094   1.149
 3047SOL     OW 9168   1.401   4.092   1.386
 3047SOL    HW1 9169   1.483   4.131   1.427
 3047SOL    HW2 9170   1.404   4.104   1.287
 3048SOL     OW 9171   4.500   4.032   0.643
 3048SOL    HW1 9172   4.527   4.124   0.614
 3048SOL    HW2 9173   4.431   3.996   0.580
 3049SOL     OW 9174   3.708   0.714   0.623
 3049SOL    HW1 9175   3.652   0.740   0.701
 3049SOL    HW2 9176   3.650   0.681   0.550
 3050SOL     OW 9177   4.900   4.922   4.034
 3050SOL    HW1 9178   4.838   4.862   3.984
 3050SOL    HW2 9179   4.932   4.877   4.117
 3051SOL     OW 9180   4.600   3.227   3.160
 3051SOL    HW1 9181   4.577   3.289   3.235
 3051SOL    HW2 9182   4.551   3.255   3.077
 3052SOL     OW 9183   3.709   0.434   3.451
 3052SOL    HW1 9184   3.752   0.347   3.429
 3052SOL    HW2 9185   3.731   0.459   3.546
 3053SOL     OW 9186   0.482   3.067   0.256
 3053SOL    HW1 9187   0.536   2.990   0.223
 3053SOL    HW2 9188   0.542   3.144   0.278
 3054SOL     OW 9189   1.138   0.301   4.594
 3054SOL    HW1 9190   1.078   0.243   4.540
 3054SOL    HW2 9191   1.104   0.307   4.688
 3055SOL     OW 9192   0.564   3.284   3.404
 3055SOL    HW1 9193   0.595   3.248   3.492
 3055SOL    HW2 9194   0.641   3.286   3.340
 3056SOL     OW 9195   0.606   2.243   0.450
 3056SOL    HW1 9196   0.532   2.271   0.388
 3056SOL    HW2 9197   0.567   2.201   0.532
 3057SOL     OW 9198   0.553   3.894   4.562
 3057SOL    HW1 9199   0.491   3.940   4.498
 3057SOL    HW2 9200   0.646   3.897   4.525
 3058SOL     OW 9201   0.459   0.113   2.961
 3058SOL    HW1 9202   0.387   0.100   2.894
 3058SOL    HW2 9203   0.421   0.158   3.042
 3059SOL     OW 9204   0.246   4.142   2.396
 3059SOL    HW1 9205   0.337   4.117   2.363
 3059SOL    HW2 9206   0.185   4.158   2.318
 3060SOL     OW 9207   2.532   0.067   0.637
 3060SOL    HW1 9208   2.476   0.089   0.557
 3060SOL    HW2 9209   2.562   0.151   0.682
 3061SOL     OW 9210   0.590   3.176   2.121
 3061SOL    HW1 9211   0.634   3.184   2.211
 3061SOL    HW2 9212   0.618   3.253   2.064
 3062SOL     OW 9213   2.514   4.196   2.211
 3062SOL    HW1 9214   2.482   4.193   2.306
 3062SOL    HW2 9215   2.437   4.178   2.150
 3063SOL     OW 9216   1.109   1.700   1.291
 3063SOL    HW1 9217   1.199   1.703   1.247
 3063SOL    HW2 9218   1.043   1.750   1.235
 3064SOL     OW 9219   4.098   0.424   1.103
 3064SOL    HW1 9220   4.150   0.349   1.063
 3064SOL    HW2 9221   4.017   0.388   1.150
 3065SOL     OW 9222   4.455   2.053   3.697
 3065SOL    HW1 9223   4.491   2.135   3.655
 3065SOL    HW2 9224   4.451   2.065   3.797
 3066SOL     OW 9225   3.003   3.208   3.908
 3066SOL    HW1 9226   2.939   3.281   3.884
 3066SOL    HW2 9227   2.997   3.135   3.840
 3067SOL     OW 9228   1.307   2.010   2.776
 3067SOL    HW1 9229   1.294   2.063   2.692
 3067SOL    HW2 9230   1.218   1.990   2.817
 3068SOL     OW 9231   1.028   2.041   0.883
 3068SOL    HW1 9232   1.103   2.102   0.910
 3068SOL    HW2 9233   1.059   1.980   0.810
 3069SOL     OW 9234   3.722   2.926   3.427
 3069SOL    HW1 9235   3.767   2.859   3.367
 3069SOL    HW2 9236   3.713   2.887   3.518
 3070SOL     OW 9237   3.710   3.944   3.213
 3070SOL    HW1 9238   3.657   3.859   3.219
 3070SOL    HW2 9239   3.686   3.993   3.130
 3071SOL     OW 9240   1.002   0.139   1.415
 3071SOL    HW1 9241   1.039   0.088   1.492
 3071SOL    HW2 9242   0.926   0.088   1.374
 3072SOL     OW 9243   1.054   4.768   3.182
 3072SOL    HW1 9244   1.000   4.773   3.098
 3072SOL    HW2 9245   1.055   4.858   3.226
 3073SOL     OW 9246   4.543   2.059   4.324
 3073SOL    HW1 9247   4.554   2.122   4.401
 3073SOL    HW2 9248   4.449   2.025   4.321
 3074SOL     OW 9249   1.259   0.055   2.335
 3074SOL    HW1 9250   1.325   5.027   2.293
 3074SOL    HW2 9251   1.261   0.143   2.287
 3075SOL     OW 9252   4.624   2.007   4.730
 3075SOL    HW1 9253   4.550   1.979   4.669
 3075SOL    HW2 9254   4.637   2.105   4.723
 3076SOL     OW 9255   2.898   2.497   4.377
 3076SOL    HW1 9256   2.900   2.570   4.309
 3076SOL    HW2 9257   2.804   2.485   4.410
 3077SOL     OW 9258   2.527   3.194   3.544
 3077SOL    HW1 9259   2.547   3.293   3.545
 3077SOL    HW2 9260   2.454   3.176   3.479
 3078SOL     OW 9261   4.415   2.820   2.202
 3078SOL    HW1 9262   4.356   2.747   2.169
 3078SOL    HW2 9263   4.361   2.888   2.251
 3079SOL     OW 9264   0.715   1.385   4.128
 3079SOL    HW1 9265   0.811   1.388   4.102
 3079SOL    HW2 9266   0.705   1.333   4.213
 3080SOL     OW 9267   0.316   2.897   4.245
 3080SOL    HW1 9268   0.302   2.996   4.237
 3080SOL    HW2 9269   0.346   2.875   4.338
 3081SOL     OW 9270   1.938   0.729   0.187
 3081SOL    HW1 9271   1.929   0.825   0.162
 3081SOL    HW2 9272   2.026   0.715   0.233
 3082SOL     OW 9273   0.726   4.558   1.602
 3082SOL    HW1 9274   0.732   4.482   1.537
 3082SOL    HW2 9275   0.784   4.539   1.681
 3083SOL     OW 9276   1.235   4.073   3.964
 3083SOL    HW1 9277   1.307   4.081   3.895
 3083SOL    HW2 9278   1.215   3.977   3.981
 3084SOL     OW 9279   4.077   4.626   3.698
 3084SOL    HW1 9280   4.083   4.715   3.743
 3084SOL    HW2 9281   4.153   4.568   3.728
 3085SOL     OW 9282   2.391   0.804   2.238
 3085SOL    HW1 9283   2.463   0.766   2.180
 3085SOL    HW2 9284   2.353   0.886   2.195
 3086SOL     OW 9285   2.858   0.595   4.153
 3086SOL    HW1 9286   2.917   0.518   4.179
 3086SOL    HW2 9287   2.772   0.590   4.205
 3087SOL     OW 9288   0.161   0.547   3.527
 3087SOL    HW1 9289   0.181   0.548   3.429
 3087SOL    HW2 9290   0.063   0.543   3.542
 3088SOL     OW 9291   2.114   2.682   0.345
 3088SOL    HW1 9292   2.058   2.707   0.424
 3088SOL    HW2 9293   2.070   2.609   0.294
 3089SOL     OW 9294   0.670   0.782   2.663
 3089SOL    HW1 9295   0.663   0.870   2.616
 3089SOL    HW2 9296   0.764   0.748   2.655
 3090SOL     OW 9297   4.636   0.840   4.952
 3090SOL    HW1 9298   4.728   0.822   4.916
 3090SOL    HW2 9299   4.637   0.832   0.017
 3091SOL     OW 9300   4.470   1.054   3.794
 3091SOL    HW1 9301   4.398   1.119   3.815
 3091SOL    HW2 9302   4.480   0.989   3.869
 3092SOL     OW 9303   3.322   4.248   2.816
 3092SOL    HW1 9304   3.375   4.240   2.900
 3092SOL    HW2 9305   3.368   4.309   2.752
 3093SOL     OW 9306   4.607   2.969   4.659
 3093SOL    HW1 9307   4.672   2.893   4.666
 3093SOL    HW2 9308   4.515   2.932   4.649
 3094SOL     OW 9309   2.132   4.605   3.643
 3094SOL    HW1 9310   2.182   4.641   3.564
 3094SOL    HW2 9311   2.115   4.679   3.708
 3095SOL     OW 9312   0.608   2.693   2.008
 3095SOL    HW1 9313   0.568   2.601   2.012
 3095SOL    HW2 9314   0.563   2.746   1.936
 3096SOL     OW 9315   4.818   4.421   2.634
 3096SOL    HW1 9316   4.840   4.518   2.632
 3096SOL    HW2 9317   4.901   4.368   2.653
 3097SOL     OW 9318   4.748   3.129   2.757
 3097SOL    HW1 9319   4.790   3.097   2.672
 3097SOL    HW2 9320   4.708   3.219   2.742
 3098SOL     OW 9321   0.498   3.737   3.029
 3098SOL    HW1 9322   0.550   3.783   3.101
 3098SOL    HW2 9323   0.534   3.644   3.016
 3099SOL     OW 9324   4.854   1.766   1.277
 3099SOL    HW1 9325   4.773   1.816   1.245
 3099SOL    HW2 9326   4.828   1.707   1.354
 3100SOL     OW 9327   1.053   3.309   3.797
 3100SOL    HW1 9328   1.060   3.219   3.842
 3100SOL    HW2 9329   1.094   3.304   3.706
 3101SOL     OW 9330   4.781   3.538   3.026
 3101SOL    HW1 9331   4.788   3.467   3.095
 3101SOL    HW2 9332   4.872   3.575   3.007
 3102SOL     OW 9333   1.850   1.839   3.655
 3102SOL    HW1 9334   1.782   1.797   3.716
 3102SOL    HW2 9335   1.888   1.769   3.594
 3103SOL     OW 9336   4.388   3.984   3.880
 3103SOL    HW1 9337   4.295   4.010   3.856
 3103SOL    HW2 9338   4.443   3.974   3.797
 3104SOL     OW 9339   3.882   2.155   2.977
 3104SOL    HW1 9340   3.860   2.072   3.027
 3104SOL    HW2 9341   3.958   2.202   3.021
 3105SOL     OW 9342   3.238   0.031   0.104
 3105SOL    HW1 9343   3.338   0.036   0.102
 3105SOL    HW2 9344   3.207   0.028   0.199
 3106SOL     OW 9345   2.017   4.727   0.658
 3106SOL    HW1 9346   1.985   4.821   0.646
 3106SOL    HW2 9347   2.103   4.728   0.709
 3107SOL     OW 9348   1.268   2.617   3.090
 3107SOL    HW1 9349   1.346   2.554   3.083
 3107SOL    HW2 9350   1.268   2.677   3.010
 3108SOL     OW 9351   1.088   1.887   4.590
 3108SOL    HW1 9352   1.160   1.833   4.633
 3108SOL    HW2 9353   1.116   1.983   4.586
 3109SOL     OW 9354   0.930   4.530   1.328
 3109SOL    HW1 9355   1.020   4.505   1.292
 3109SOL    HW2 9356   0.877   4.447   1.346
 3110SOL     OW 9357   1.181   4.983   4.119
 3110SOL    HW1 9358   1.170   4.886   4.141
 3110SOL    HW2 9359   1.177   4.995   4.020
 3111SOL     OW 9360   3.344   1.389   2.655
 3111SOL    HW1 9361   3.411   1.338   2.601
 3111SOL    HW2 9362   3.252   1.356   2.634
 3112SOL     OW 9363   3.505   1.308   2.001
 3112SOL    HW1 9364   3.559   1.380   2.046
 3112SOL    HW2 9365   3.508   1.225   2.056
 3113SOL     OW 9366   0.679   3.820   0.248
 3113SOL    HW1 9367   0.644   3.745   0.305
 3113SOL    HW2 9368   0.773   3.799   0.219
 3114SOL     OW 9369   3.457   2.442   0.915
 3114SOL    HW1 9370   3.514   2.507   0.964
 3114SOL    HW2 9371   3.424   2.372   0.977
 3115SOL     OW 9372   2.938   4.221   1.033
 3115SOL    HW1 9373   2.857   4.258   1.079
 3115SOL    HW2 9374   2.915   4.132   0.993
 3116SOL     OW 9375   2.262   3.768   3.076
 3116SOL    HW1 9376   2.206   3.848   3.052
 3116SOL    HW2 9377   2.352   3.799   3.108
 3117SOL     OW 9378   2.173   3.912   1.456
 3117SOL    HW1 9379   2.212   3.868   1.375
 3117SOL    HW2 9380   2.123   3.844   1.509
 3118SOL     OW 9381   1.282   3.112   1.012
 3118SOL    HW1 9382   1.217   3.107   0.937
 3118SOL    HW2 9383   1.268   3.035   1.074
 3119SOL     OW 9384   0.664   0.784   4.695
 3119SOL    HW1 9385   0.625   0.711   4.640
 3119SOL    HW2 9386   0.632   0.775   4.790
 3120SOL     OW 9387   4.546   2.363   1.307
 3120SOL    HW1 9388   4.472   2.396   1.365
 3120SOL    HW2 9389   4.619   2.431   1.304
 3121SOL     OW 9390   4.193   2.438   1.761
 3121SOL    HW1 9391   4.094   2.451   1.753
 3121SOL    HW2 9392   4.214   2.340   1.758
 3122SOL     OW 9393   2.902   0.781   0.971
 3122SOL    HW1 9394   2.807   0.803   0.993
 3122SOL    HW2 9395   2.907   0.749   0.876
 3123SOL     OW 9396   4.680   5.000   2.041
 3123SOL    HW1 9397   4.617   4.953   1.980
 3123SOL    HW2 9398   4.651   4.986   2.136
 3124SOL     OW 9399   0.241   1.321   2.090
 3124SOL    HW1 9400   0.335   1.292   2.108
 3124SOL    HW2 9401   0.228   1.329   1.991
 3125SOL     OW 9402   0.664   2.680   1.458
 3125SOL    HW1 9403   0.610   2.659   1.376
 3125SOL    HW2 9404   0.639   2.616   1.531
 3126SOL     OW 9405   2.066   3.004   3.291
 3126SOL    HW1 9406   2.025   3.095   3.302
 3126SOL    HW2 9407   2.023   2.940   3.356
 3127SOL     OW 9408   3.431   3.753   0.141
 3127SOL    HW1 9409   3.527   3.772   0.121
 3127SOL    HW2 9410   3.419   3.737   0.239
 3128SOL     OW 9411   0.313   0.610   4.388
 3128SOL    HW1 9412   0.339   0.693   4.437
 3128SOL    HW2 9413   0.252   0.634   4.313
 3129SOL     OW 9414   3.356   4.985   1.156
 3129SOL    HW1 9415   3.312   5.015   1.240
 3129SOL    HW2 9416   3.354   0.024   1.089
 3130SOL     OW 9417   3.277   1.652   3.763
 3130SOL    HW1 9418   3.189   1.622   3.800
 3130SOL    HW2 9419   3.279   1.638   3.665
 3131SOL     OW 9420   3.539   4.056   4.328
 3131SOL    HW1 9421   3.591   3.979   4.292
 3131SOL    HW2 9422   3.469   4.023   4.391
 3132SOL     OW 9423   3.369   1.998   0.055
 3132SOL    HW1 9424   3.417   1.984   5.004
 3132SOL    HW2 9425   3.283   2.046   0.039
 3133SOL     OW 9426   2.952   2.569   1.107
 3133SOL    HW1 9427   2.983   2.640   1.043
 3133SOL    HW2 9428   2.983   2.480   1.076
 3134SOL     OW 9429   4.945   4.219   0.956
 3134SOL    HW1 9430   4.881   4.181   1.023
 3134SOL    HW2 9431   4.903   4.297   0.910
 3135SOL     OW 9432   4.818   2.853   0.193
 3135SOL    HW1 9433   4.805   2.808   0.105
 3135SOL    HW2 9434   4.872   2.793   0.253
 3136SOL     OW 9435   3.688   4.266   4.264
 3136SOL    HW1 9436   3.632   4.189   4.294
 3136SOL    HW2 9437   3.696   4.264   4.164
 3137SOL     OW 9438   4.958   2.886   2.398
 3137SOL    HW1 9439   4.893   2.830   2.347
 3137SOL    HW2 9440   4.941   2.874   2.496
 3138SOL     OW 9441   3.997   2.879   4.357
 3138SOL    HW1 9442   4.076   2.838   4.403
 3138SOL    HW2 9443   3.969   2.821   4.281
 3139SOL     OW 9444   2.813   3.655   0.782
 3139SOL    HW1 9445   2.827   3.638   0.879
 3139SOL    HW2 9446   2.884   3.717   0.748
 3140SOL     OW 9447   2.617   1.882   4.526
 3140SOL    HW1 9448   2.526   1.902   4.562
 3140SOL    HW2 9449   2.637   1.785   4.539
 3141SOL     OW 9450   4.098   3.323   4.373
 3141SOL    HW1 9451   4.156   3.322   4.454
 3141SOL    HW2 9452   4.008   3.360   4.396
 3142SOL     OW 9453   2.140   1.231   4.852
 3142SOL    HW1 9454   2.141   1.331   4.860
 3142SOL    HW2 9455   2.046   1.198   4.865
 3143SOL     OW 9456   2.401   4.071   1.217
 3143SOL    HW1 9457   2.463   4.034   1.148
 3143SOL    HW2 9458   2.315   4.019   1.215
 3144SOL     OW 9459   3.961   2.523   4.815
 3144SOL    HW1 9460   4.016   2.567   4.744
 3144SOL    HW2 9461   3.984   2.426   4.819
 3145SOL     OW 9462   0.863   4.583   0.859
 3145SOL    HW1 9463   0.945   4.573   0.803
 3145SOL    HW2 9464   0.782   4.578   0.801
 3146SOL     OW 9465   2.074   2.448   0.590
 3146SOL    HW1 9466   2.072   2.372   0.526
 3146SOL    HW2 9467   1.980   2.472   0.615
 3147SOL     OW 9468   2.487   0.732   2.657
 3147SOL    HW1 9469   2.433   0.757   2.738
 3147SOL    HW2 9470   2.428   0.685   2.592
 3148SOL     OW 9471   2.981   3.656   1.210
 3148SOL    HW1 9472   2.969   3.586   1.139
 3148SOL    HW2 9473   2.907   3.723   1.204
 3149SOL     OW 9474   3.650   4.251   3.247
 3149SOL    HW1 9475   3.625   4.213   3.336
 3149SOL    HW2 9476   3.655   4.350   3.253
 3150SOL     OW 9477   1.901   2.295   4.402
 3150SOL    HW1 9478   1.824   2.232   4.412
 3150SOL    HW2 9479   1.888   2.373   4.462
 3151SOL     OW 9480   0.250   1.666   3.411
 3151SOL    HW1 9481   0.165   1.669   3.464
 3151SOL    HW2 9482   0.324   1.706   3.464
 3152SOL     OW 9483   4.119   3.805   1.529
 3152SOL    HW1 9484   4.167   3.882   1.487
 3152SOL    HW2 9485   4.160   3.784   1.618
 3153SOL     OW 9486   4.951   3.899   1.416
 3153SOL    HW1 9487   4.865   3.946   1.397
 3153SOL    HW2 9488   4.941   3.843   1.498
 3154SOL     OW 9489   2.147   3.197   2.451
 3154SOL    HW1 9490   2.198   3.282   2.442
 3154SOL    HW2 9491   2.203   3.129   2.497
 3155SOL     OW 9492   0.893   0.459   4.698
 3155SOL    HW1 9493   0.835   0.403   4.638
 3155SOL    HW2 9494   0.911   0.546   4.654
 3156SOL     OW 9495   1.431   1.351   1.430
 3156SOL    HW1 9496   1.436   1.444   1.467
 3156SOL    HW2 9497   1.361   1.348   1.359
 3157SOL     OW 9498   4.718   3.078   1.806
 3157SOL    HW1 9499   4.747   3.149   1.742
 3157SOL    HW2 9500   4.726   2.989   1.762
 3158SOL     OW 9501   4.371   1.865   2.746
 3158SOL    HW1 9502   4.390   1.902   2.836
 3158SOL    HW2 9503   4.361   1.940   2.680
 3159SOL     OW 9504   4.688   3.149   4.838
 3159SOL    HW1 9505   4.631   3.087   4.784
 3159SOL    HW2 9506   4.638   3.177   4.921
 3160SOL     OW 9507   1.524   4.735   2.521
 3160SOL    HW1 9508   1.536   4.833   2.534
 3160SOL    HW2 9509   1.514   4.715   2.424
 3161SOL     OW 9510   0.714   4.690   0.131
 3161SOL    HW1 9511   0.714   4.790   0.127
 3161SOL    HW2 9512   0.678   4.661   0.220
 3162SOL     OW 9513   4.684   2.682   0.857
 3162SOL    HW1 9514   4.611   2.643   0.801
 3162SOL    HW2 9515   4.726   2.610   0.912
 3163SOL     OW 9516   0.172   1.072   2.234
 3163SOL    HW1 9517   0.168   1.111   2.142
 3163SOL    HW2 9518   0.089   1.096   2.284
 3164SOL     OW 9519   4.315   2.879   4.341
 3164SOL    HW1 9520   4.408   2.909   4.361
 3164SOL    HW2 9521   4.317   2.802   4.279
 3165SOL     OW 9522   4.063   2.232   4.943
 3165SOL    HW1 9523   4.125   2.161   4.975
 3165SOL    HW2 9524   3.978   2.191   4.912
 3166SOL     OW 9525   0.161   4.570   4.151
 3166SOL    HW1 9526   0.247   4.558   4.202
 3166SOL    HW2 9527   0.171   4.530   4.060
 3167SOL     OW 9528   0.514   3.712   4.817
 3167SOL    HW1 9529   0.610   3.695   4.837
 3167SOL    HW2 9530   0.507   3.774   4.738
 3168SOL     OW 9531   0.050   1.244   3.207
 3168SOL    HW1 9532   0.144   1.255   3.239
 3168SOL    HW2 9533   5.027   1.315   3.248
 3169SOL     OW 9534   2.228   4.782   2.293
 3169SOL    HW1 9535   2.277   4.758   2.377
 3169SOL    HW2 9536   2.258   4.872   2.262
 3170SOL     OW 9537   0.544   1.993   3.164
 3170SOL    HW1 9538   0.447   2.015   3.158
 3170SOL    HW2 9539   0.591   2.062   3.219
 3171SOL     OW 9540   1.310   2.933   3.014
 3171SOL    HW1 9541   1.389   2.872   3.008
 3171SOL    HW2 9542   1.276   2.952   2.922
 3172SOL     OW 9543   2.788   4.257   4.058
 3172SOL    HW1 9544   2.814   4.270   3.962
 3172SOL    HW2 9545   2.866   4.281   4.116
 3173SOL     OW 9546   1.624   3.236   0.505
 3173SOL    HW1 9547   1.678   3.261   0.586
 3173SOL    HW2 9548   1.608   3.317   0.449
 3174SOL     OW 9549   1.804   0.465   0.218
 3174SOL    HW1 9550   1.811   0.553   0.173
 3174SOL    HW2 9551   1.724   0.464   0.278
 3175SOL     OW 9552   1.248   3.735   3.339
 3175SOL    HW1 9553   1.339   3.713   3.375
 3175SOL    HW2 9554   1.241   3.702   3.245
 3176SOL     OW 9555   0.514   1.526   2.895
 3176SOL    HW1 9556   0.438   1.518   2.959
 3176SOL    HW2 9557   0.484   1.499   2.803
 3177SOL     OW 9558   1.651   3.412   0.250
 3177SOL    HW1 9559   1.588   3.341   0.219
 3177SOL    HW2 9560   1.614   3.502   0.228
 3178SOL     OW 9561   3.702   0.785   4.800
 3178SOL    HW1 9562   3.706   0.860   4.865
 3178SOL    HW2 9563   3.668   0.703   4.845
 3179SOL     OW 9564   0.309   2.299   3.030
 3179SOL    HW1 9565   0.289   2.210   3.071
 3179SOL    HW2 9566   0.243   2.367   3.063
 3180SOL     OW 9567   2.917   2.093   1.421
 3180SOL    HW1 9568   2.933   2.039   1.338
 3180SOL    HW2 9569   2.835   2.060   1.467
 3181SOL     OW 9570   3.589   4.266   4.584
 3181SOL    HW1 9571   3.668   4.242   4.642
 3181SOL    HW2 9572   3.622   4.310   4.501
 3182SOL     OW 9573   0.091   0.338   2.242
 3182SOL    HW1 9574   0.143   0.417   2.210
 3182SOL    HW2 9575   0.047   0.293   2.165
 3183SOL     OW 9576   1.828   0.062   1.462
 3183SOL    HW1 9577   1.736   0.053   1.424
 3183SOL    HW2 9578   1.864   0.153   1.439
 3184SOL     OW 9579   3.289   2.162   4.780
 3184SOL    HW1 9580   3.362   2.094   4.778
 3184SOL    HW2 9581   3.271   2.189   4.875
 3185SOL     OW 9582   2.558   4.977   0.241
 3185SOL    HW1 9583   2.540   4.909   0.312
 3185SOL    HW2 9584   2.653   5.006   0.245
 3186SOL     OW 9585   2.449   0.121   2.296
 3186SOL    HW1 9586   2.443   0.205   2.350
 3186SOL    HW2 9587   2.374   0.118   2.230
 3187SOL     OW 9588   3.793   4.622   0.845
 3187SOL    HW1 9589   3.705   4.668   0.841
 3187SOL    HW2 9590   3.867   4.690   0.851
 3188SOL     OW 9591   2.302   1.775   4.562
 3188SOL    HW1 9592   2.224   1.733   4.516
 3188SOL    HW2 9593   2.304   1.873   4.540
 3189SOL     OW 9594   4.740   1.887   4.477
 3189SOL    HW1 9595   4.696   1.930   4.398
 3189SOL    HW2 9596   4.731   1.947   4.557
 3190SOL     OW 9597   2.997   2.816   3.470
 3190SOL    HW1 9598   2.903   2.784   3.478
 3190SOL    HW2 9599   3.003   2.912   3.497
 3191SOL     OW 9600   4.996   1.357   0.764
 3191SOL    HW1 9601   4.979   1.448   0.800
 3191SOL    HW2 9602   4.924   1.295   0.794
 3192SOL     OW 9603   4.269   3.479   3.402
 3192SOL    HW1 9604   4.277   3.380   3.418
 3192SOL    HW2 9605   4.224   3.495   3.314
 3193SOL     OW 9606   4.451   1.206   2.701
 3193SOL    HW1 9607   4.463   1.275   2.630
 3193SOL    HW2 9608   4.537   1.157   2.715
 3194SOL     OW 9609   1.711   2.523   1.262
 3194SOL    HW1 9610   1.797   2.548   1.218
 3194SOL    HW2 9611   1.721   2.530   1.361
 3195SOL     OW 9612   0.243   2.177   1.238
 3195SOL    HW1 9613   0.188   2.129   1.170
 3195SOL    HW2 9614   0.287   2.110   1.298
 3196SOL     OW 9615   3.741   1.484   2.071
 3196SOL    HW1 9616   3.806   1.439   2.010
 3196SOL    HW2 9617   3.791   1.537   2.139
 3197SOL     OW 9618   0.516   1.976   1.131
 3197SOL    HW1 9619   0.582   2.038   1.088
 3197SOL    HW2 9620   0.546   1.882   1.119
 3198SOL     OW 9621   1.542   4.144   3.017
 3198SOL    HW1 9622   1.477   4.164   2.944
 3198SOL    HW2 9623   1.550   4.224   3.077
 3199SOL     OW 9624   0.623   1.785   0.161
 3199SOL    HW1 9625   0.707   1.831   0.188
 3199SOL    HW2 9626   0.617   1.696   0.206
 3200SOL     OW 9627   3.197   0.701   1.461
 3200SOL    HW1 9628   3.293   0.691   1.489
 3200SOL    HW2 9629   3.156   0.611   1.450
 3201SOL     OW 9630   4.471   2.349   4.956
 3201SOL    HW1 9631   4.431   2.411   5.024
 3201SOL    HW2 9632   4.563   2.381   4.933
 3202SOL     OW 9633   4.213   0.152   2.373
 3202SOL    HW1 9634   4.120   0.179   2.349
 3202SOL    HW2 9635   4.269   0.233   2.390
 3203SOL     OW 9636   1.744   2.517   4.787
 3203SOL    HW1 9637   1.759   2.600   4.734
 3203SOL    HW2 9638   1.832   2.478   4.815
 3204SOL     OW 9639   1.718   0.775   4.498
 3204SOL    HW1 9640   1.621   0.784   4.523
 3204SOL    HW2 9641   1.770   0.745   4.578
 3205SOL     OW 9642   1.348   0.263   3.760
 3205SOL    HW1 9643   1.309   0.219   3.679
 3205SOL    HW2 9644   1.410   0.198   3.806
 3206SOL     OW 9645   2.057   3.212   4.433
 3206SOL    HW1 9646   2.119   3.262   4.373
 3206SOL    HW2 9647   1.996   3.276   4.480
 3207SOL     OW 9648   0.344   0.895   2.019
 3207SOL    HW1 9649   0.423   0.947   2.053
 3207SOL    HW2 9650   0.307   0.940   1.938
 3208SOL     OW 9651   1.326   1.901   4.402
 3208SOL    HW1 9652   1.325   1.886   4.303
 3208SOL    HW2 9653   1.257   1.843   4.446
 3209SOL     OW 9654   4.349   0.932   0.006
 3209SOL    HW1 9655   4.269   0.989   0.026
 3209SOL    HW2 9656   4.362   0.867   0.081
 3210SOL     OW 9657   4.786   4.195   3.055
 3210SOL    HW1 9658   4.706   4.214   2.998
 3210SOL    HW2 9659   4.801   4.271   3.118
 3211SOL     OW 9660   0.703   4.985   1.125
 3211SOL    HW1 9661   0.761   5.026   1.055
 3211SOL    HW2 9662   0.759   4.926   1.183
 3212SOL     OW 9663   0.197   4.878   4.064
 3212SOL    HW1 9664   0.223   4.974   4.074
 3212SOL    HW2 9665   0.276   4.820   4.084
 3213SOL     OW 9666   0.196   1.254   4.230
 3213SOL    HW1 9667   0.295   1.245   4.227
 3213SOL    HW2 9668   0.167   1.325   4.166
 3214SOL     OW 9669   2.748   3.442   4.935
 3214SOL    HW1 9670   2.705   3.531   4.948
 3214SOL    HW2 9671   2.825   3.433   4.999
 3215SOL     OW 9672   2.738   4.415   3.825
 3215SOL    HW1 9673   2.726   4.496   3.768
 3215SOL    HW2 9674   2.676   4.419   3.903
 3216SOL     OW 9675   4.681   3.835   0.774
 3216SOL    HW1 9676   4.639   3.764   0.717
 3216SOL    HW2 9677   4.666   3.924   0.730
 3217SOL     OW 9678   2.385   1.812   1.551
 3217SOL    HW1 9679   2.479   1.799   1.519
 3217SOL    HW2 9680   2.324   1.753   1.499
 3218SOL     OW 9681   2.391   3.070   0.619
 3218SOL    HW1 9682   2.370   2.972   0.615
 3218SOL    HW2 9683   2.356   3.115   0.536
 3219SOL     OW 9684   3.446   3.730   4.443
 3219SOL    HW1 9685   3.408   3.810   4.490
 3219SOL    HW2 9686   3.475   3.663   4.511
 3220SOL     OW 9687   1.506   2.165   0.092
 3220SOL    HW1 9688   1.466   2.136   0.005
 3220SOL    HW2 9689   1.601   2.133   0.097
 3221SOL     OW 9690   1.332   2.438   4.422
 3221SOL    HW1 9691   1.406   2.423   4.487
 3221SOL    HW2 9692   1.369   2.446   4.330
 3222SOL     OW 9693   4.234   0.983   3.344
 3222SOL    HW1 9694   4.306   1.048   3.321
 3222SOL    HW2 9695   4.144   1.024   3.326
 3223SOL     OW 9696   4.220   3.832   4.379
 3223SOL    HW1 9697   4.224   3.870   4.286
 3223SOL    HW2 9698   4.278   3.888   4.439
 3224SOL     OW 9699   4.225   3.938   4.135
 3224SOL    HW1 9700   4.213   4.027   4.091
 3224SOL    HW2 9701   4.244   3.868   4.066
 3225SOL     OW 9702   1.838   1.610   2.118
 3225SOL    HW1 9703   1.764   1.544   2.132
 3225SOL    HW2 9704   1.910   1.569   2.062
 3226SOL     OW 9705   1.906   1.428   3.767
 3226SOL    HW1 9706   1.961   1.485   3.828
 3226SOL    HW2 9707   1.811   1.427   3.799
 3227SOL     OW 9708   0.575   4.564   0.331
 3227SOL    HW1 9709   0.528   4.486   0.290
 3227SOL    HW2 9710   0.509   4.636   0.349
 3228SOL     OW 9711   2.747   4.635   3.638
 3228SOL    HW1 9712   2.741   4.735   3.636
 3228SOL    HW2 9713   2.693   4.596   3.563
 3229SOL     OW 9714   4.931   1.853   2.356
 3229SOL    HW1 9715   5.016   1.887   2.315
 3229SOL    HW2 9716   4.938   1.755   2.370
 3230SOL     OW 9717   1.480   3.478   4.678
 3230SOL    HW1 9718   1.540   3.409   4.637
 3230SOL    HW2 9719   1.494   3.479   4.777
 3231SOL     OW 9720   0.732   3.632   4.454
 3231SOL    HW1 9721   0.796   3.673   4.519
 3231SOL    HW2 9722   0.659   3.585   4.505
 3232SOL     OW 9723   1.527   1.855   1.859
 3232SOL    HW1 9724   1.477   1.803   1.929
 3232SOL    HW2 9725   1.466   1.877   1.783
 3233SOL     OW 9726   3.202   2.658   3.543
 3233SOL    HW1 9727   3.122   2.716   3.531
 3233SOL    HW2 9728   3.218   2.605   3.459
 3234SOL     OW 9729   0.183   1.684   0.663
 3234SOL    HW1 9730   0.257   1.713   0.601
 3234SOL    HW2 9731   0.198   1.723   0.753
 3235SOL     OW 9732   2.025   3.751   1.621
 3235SOL    HW1 9733   1.930   3.779   1.611
 3235SOL    HW2 9734   2.040   3.711   1.711
 3236SOL     OW 9735   0.969   1.450   3.763
 3236SOL    HW1 9736   0.886   1.394   3.765
 3236SOL    HW2 9737   1.049   1.391   3.762
 3237SOL     OW 9738   0.295   0.058   1.525
 3237SOL    HW1 9739   0.388   0.072   1.491
 3237SOL    HW2 9740   0.244   0.143   1.519
 3238SOL     OW 9741   3.658   4.590   4.581
 3238SOL    HW1 9742   3.615   4.554   4.664
 3238SOL    HW2 9743   3.734   4.650   4.606
 3239SOL     OW 9744   0.287   1.892   2.919
 3239SOL    HW1 9745   0.380   1.860   2.901
 3239SOL    HW2 9746   0.221   1.819   2.899
 3240SOL     OW 9747   2.765   4.178   4.758
 3240SOL    HW1 9748   2.703   4.187   4.836
 3240SOL    HW2 9749   2.808   4.087   4.760
 3241SOL     OW 9750   4.944   1.335   2.243
 3241SOL    HW1 9751   4.945   1.248   2.293
 3241SOL    HW2 9752   4.884   1.400   2.290
 3242SOL     OW 9753   0.035   4.917   0.133
 3242SOL    HW1 9754   0.066   4.947   0.042
 3242SOL    HW2 9755   0.110   4.874   0.182
 3243SOL     OW 9756   4.326   3.876   0.494
 3243SOL    HW1 9757   4.356   3.782   0.508
 3243SOL    HW2 9758   4.353   3.907   0.403
 3244SOL     OW 9759   3.153   2.587   4.141
 3244SOL    HW1 9760   3.094   2.581   4.060
 3244SOL    HW2 9761   3.213   2.667   4.133
 3245SOL     OW 9762   1.476   0.428   2.705
 3245SOL    HW1 9763   1.507   0.492   2.635
 3245SOL    HW2 9764   1.405   0.471   2.760
 3246SOL     OW 9765   2.151   0.104   3.515
 3246SOL    HW1 9766   2.158   0.060   3.605
 3246SOL    HW2 9767   2.173   0.201   3.524
 3247SOL     OW 9768   2.928   3.510   3.895
 3247SOL    HW1 9769   3.026   3.526   3.883
 3247SOL    HW2 9770   2.907   3.500   3.992
 3248SOL     OW 9771   3.244   4.217   4.818
 3248SOL    HW1 9772   3.166   4.225   4.880
 3248SOL    HW2 9773   3.267   4.121   4.806
 3249SOL     OW 9774   3.759   2.086   0.677
 3249SOL    HW1 9775   3.704   2.169   0.691
 3249SOL    HW2 9776   3.846   2.112   0.633
 3250SOL     OW 9777   0.311   0.074   4.209
 3250SOL    HW1 9778   0.364   5.030   4.239
 3250SOL    HW2 9779   0.219   0.069   4.248
 3251SOL     OW 9780   1.008   0.865   4.855
 3251SOL    HW1 9781   0.944   0.794   4.885
 3251SOL    HW2 9782   0.977   0.954   4.890
 3252SOL     OW 9783   1.435   4.060   3.777
 3252SOL    HW1 9784   1.461   4.105   3.692
 3252SOL    HW2 9785   1.494   3.981   3.793
 3253SOL     OW 9786   4.337   1.529   2.691
 3253SOL    HW1 9787   4.260   1.592   2.692
 3253SOL    HW2 9788   4.390   1.541   2.775
 3254SOL     OW 9789   1.558   2.335   0.518
 3254SOL    HW1 9790   1.559   2.252   0.574
 3254SOL    HW2 9791   1.569   2.311   0.422
 3255SOL     OW 9792   0.844   1.083   2.590
 3255SOL    HW1 9793   0.758   1.134   2.584
 3255SOL    HW2 9794   0.899   1.100   2.507
 3256SOL     OW 9795   2.212   3.095   2.116
 3256SOL    HW1 9796   2.235   3.168   2.051
 3256SOL    HW2 9797   2.187   3.136   2.204
 3257SOL     OW 9798   0.552   2.538   1.675
 3257SOL    HW1 9799   0.459   2.565   1.701
 3257SOL    HW2 9800   0.609   2.534   1.757
 3258SOL     OW 9801   0.056   4.254   2.231
 3258SOL    HW1 9802   0.050   4.318   2.307
 3258SOL    HW2 9803   5.010   4.265   2.172
 3259SOL     OW 9804   3.314   3.385   1.809
 3259SOL    HW1 9805   3.318   3.427   1.899
 3259SOL    HW2 9806   3.389   3.420   1.752
 3260SOL     OW 9807   3.203   2.213   5.033
 3260SOL    HW1 9808   3.112   2.241   5.002
 3260SOL    HW2 9809   3.247   2.290   0.044
 3261SOL     OW 9810   0.353   2.031   0.901
 3261SOL    HW1 9811   0.376   2.006   0.995
 3261SOL    HW2 9812   0.397   2.118   0.878
 3262SOL     OW 9813   4.627   1.585   3.173
 3262SOL    HW1 9814   4.542   1.535   3.155
 3262SOL    HW2 9815   4.659   1.564   3.265
 3263SOL     OW 9816   3.330   3.941   4.564
 3263SOL    HW1 9817   3.252   4.000   4.544
 3263SOL    HW2 9818   3.308   3.881   4.640
 3264SOL     OW 9819   1.143   2.172   0.179
 3264SOL    HW1 9820   1.060   2.153   0.230
 3264SOL    HW2 9821   1.201   2.090   0.179
 3265SOL     OW 9822   2.226   1.106   2.230
 3265SOL    HW1 9823   2.169   1.041   2.179
 3265SOL    HW2 9824   2.310   1.123   2.178
 3266SOL     OW 9825   0.916   3.738   0.142
 3266SOL    HW1 9826   1.016   3.737   0.135
 3266SOL    HW2 9827   0.876   3.746   0.051
 3267SOL     OW 9828   4.184   3.711   3.906
 3267SOL    HW1 9829   4.115   3.783   3.902
 3267SOL    HW2 9830   4.232   3.707   3.818
 3268SOL     OW 9831   2.493   0.744   0.995
 3268SOL    HW1 9832   2.536   0.778   1.078
 3268SOL    HW2 9833   2.503   0.812   0.922
 3269SOL     OW 9834   0.577   3.501   1.428
 3269SOL    HW1 9835   0.582   3.414   1.379
 3269SOL    HW2 9836   0.528   3.488   1.514
 3270SOL     OW 9837   2.239   1.072   1.396
 3270SOL    HW1 9838   2.155   1.034   1.436
 3270SOL    HW2 9839   2.317   1.015   1.422
 3271SOL     OW 9840   4.700   4.684   2.962
 3271SOL    HW1 9841   4.695   4.591   2.927
 3271SOL    HW2 9842   4.641   4.693   3.042
 3272SOL     OW 9843   3.182   0.545   2.606
 3272SOL    HW1 9844   3.187   0.645   2.606
 3272SOL    HW2 9845   3.204   0.511   2.698
 3273SOL     OW 9846   0.699   0.432   1.769
 3273SOL    HW1 9847   0.727   0.402   1.678
 3273SOL    HW2 9848   0.612   0.482   1.762
 3274SOL     OW 9849   1.939   4.726   3.391
 3274SOL    HW1 9850   1.849   4.701   3.355
 3274SOL    HW2 9851   1.934   4.735   3.490
 3275SOL     OW 9852   2.633   1.178   0.207
 3275SOL    HW1 9853   2.556   1.224   0.251
 3275SOL    HW2 9854   2.621   1.180   0.108
 3276SOL     OW 9855   0.016   1.204   2.599
 3276SOL    HW1 9856   5.003   1.175   2.517
 3276SOL    HW2 9857   0.002   1.302   2.612
 3277SOL     OW 9858   3.839   1.683   2.803
 3277SOL    HW1 9859   3.852   1.584   2.801
 3277SOL    HW2 9860   3.770   1.708   2.736
 3278SOL     OW 9861   2.594   2.793   0.753
 3278SOL    HW1 9862   2.581   2.869   0.816
 3278SOL    HW2 9863   2.643   2.825   0.671
 3279SOL     OW 9864   1.079   0.268   0.562
 3279SOL    HW1 9865   1.040   0.265   0.470
 3279SOL    HW2 9866   1.023   0.212   0.624
 3280SOL     OW 9867   1.312   3.104   2.074
 3280SOL    HW1 9868   1.391   3.153   2.038
 3280SOL    HW2 9869   1.316   3.103   2.174
 3281SOL     OW 9870   1.271   4.029   0.874
 3281SOL    HW1 9871   1.313   3.947   0.835
 3281SOL    HW2 9872   1.330   4.067   0.945
 3282SOL     OW 9873   2.336   3.511   3.044
 3282SOL    HW1 9874   2.370   3.503   3.138
 3282SOL    HW2 9875   2.294   3.601   3.030
 3283SOL     OW 9876   0.036   1.306   0.301
 3283SOL    HW1 9877   0.121   1.331   0.347
 3283SOL    HW2 9878   0.002   1.385   0.249
 3284SOL     OW 9879   3.372   2.410   4.109
 3284SOL    HW1 9880   3.304   2.442   4.175
 3284SOL    HW2 9881   3.355   2.451   4.020
 3285SOL     OW 9882   4.931   0.528   0.777
 3285SOL    HW1 9883   4.948   0.480   0.691
 3285SOL    HW2 9884   4.859   0.481   0.827
 3286SOL     OW 9885   3.721   0.722   1.472
 3286SOL    HW1 9886   3.735   0.653   1.543
 3286SOL    HW2 9887   3.781   0.703   1.394
 3287SOL     OW 9888   3.842   0.450   2.469
 3287SOL    HW1 9889   3.906   0.382   2.435
 3287SOL    HW2 9890   3.784   0.482   2.394
 3288SOL     OW 9891   4.292   3.475   1.933
 3288SOL    HW1 9892   4.204   3.427   1.932
 3288SOL    HW2 9893   4.279   3.566   1.972
 3289SOL     OW 9894   3.024   2.341   3.599
 3289SOL    HW1 9895   3.012   2.437   3.622
 3289SOL    HW2 9896   2.979   2.284   3.668
 3290SOL     OW 9897   4.080   1.417   3.760
 3290SOL    HW1 9898   4.098   1.324   3.792
 3290SOL    HW2 9899   3.982   1.427   3.743
 3291SOL     OW 9900   0.276   2.576   1.085
 3291SOL    HW1 9901   0.318   2.500   1.135
 3291SOL    HW2 9902   0.269   2.552   0.989
 3292SOL     OW 9903   2.499   2.196   1.027
 3292SOL    HW1 9904   2.535   2.142   0.951
 3292SOL    HW2 9905   2.477   2.136   1.103
 3293SOL     OW 9906   2.092   2.425   4.122
 3293SOL    HW1 9907   2.073   2.491   4.195
 3293SOL    HW2 9908   2.048   2.338   4.144
 3294SOL     OW 9909   2.894   1.378   4.335
 3294SOL    HW1 9910   2.932   1.437   4.406
 3294SOL    HW2 9911   2.967   1.323   4.294
 3295SOL     OW 9912   3.351   3.339   1.232
 3295SOL    HW1 9913   3.416   3.412   1.212
 3295SOL    HW2 9914   3.299   3.361   1.315
 3296SOL     OW 9915   1.889   3.605   2.263
 3296SOL    HW1 9916   1.836   3.520   2.258
 3296SOL    HW2 9917   1.893   3.636   2.358
 3297SOL     OW 9918   4.629   1.196   3.555
 3297SOL    HW1 9919   4.554   1.201   3.621
 3297SOL    HW2 9920   4.643   1.101   3.528
 3298SOL     OW 9921   3.277   2.358   3.501
 3298SOL    HW1 9922   3.190   2.338   3.545
 3298SOL    HW2 9923   3.261   2.418   3.422
 3299SOL     OW 9924   2.197   2.183   3.952
 3299SOL    HW1 9925   2.107   2.195   3.994
 3299SOL    HW2 9926   2.187   2.159   3.856
 3300SOL     OW 9927   1.732   4.474   3.951
 3300SOL    HW1 9928   1.693   4.426   3.873
 3300SOL    HW2 9929   1.659   4.521   4.002
 3301SOL     OW 9930   4.368   2.951   1.089
 3301SOL    HW1 9931   4.302   2.998   1.031
 3301SOL    HW2 9932   4.450   2.929   1.035
 3302SOL     OW 9933   1.456   1.302   3.663
 3302SOL    HW1 9934   1.444   1.216   3.712
 3302SOL    HW2 9935   1.534   1.295   3.601
 3303SOL     OW 9936   2.990   2.697   3.055
 3303SOL    HW1 9937   2.945   2.653   2.978
 3303SOL    HW2 9938   2.960   2.655   3.141
 3304SOL     OW 9939   3.533   4.452   1.210
 3304SOL    HW1 9940   3.461   4.393   1.247
 3304SOL    HW2 9941   3.528   4.453   1.110
 3305SOL     OW 9942   1.632   5.001   1.787
 3305SOL    HW1 9943   1.705   0.033   1.775
 3305SOL    HW2 9944   1.569   5.007   1.710
 3306SOL     OW 9945   0.880   2.808   2.722
 3306SOL    HW1 9946   0.887   2.712   2.748
 3306SOL    HW2 9947   0.822   2.857   2.786
 3307SOL     OW 9948   1.052   4.590   3.397
 3307SOL    HW1 9949   1.115   4.632   3.331
 3307SOL    HW2 9950   0.959   4.623   3.380
 3308SOL     OW 9951   4.168   3.771   2.721
 3308SOL    HW1 9952   4.074   3.741   2.708
 3308SOL    HW2 9953   4.169   3.851   2.782
 3309SOL     OW 9954   3.312   0.385   4.495
 3309SOL    HW1 9955   3.251   0.313   4.459
 3309SOL    HW2 9956   3.276   0.419   4.581
 3310SOL     OW 9957   0.975   1.031   0.674
 3310SOL    HW1 9958   0.939   0.959   0.614
 3310SOL    HW2 9959   1.039   1.088   0.622
 3311SOL     OW 9960   4.705   0.175   0.029
 3311SOL    HW1 9961   4.697   0.247   4.995
 3311SOL    HW2 9962   4.711   0.086   5.019
 3312SOL     OW 9963   1.884   0.625   1.999
 3312SOL    HW1 9964   1.843   0.706   2.042
 3312SOL    HW2 9965   1.984   0.633   2.003
 3313SOL     OW 9966   1.502   4.151   4.872
 3313SOL    HW1 9967   1.470   4.143   4.967
 3313SOL    HW2 9968   1.430   4.119   4.810
 3314SOL     OW 9969   1.225   3.557   3.772
 3314SOL    HW1 9970   1.205   3.467   3.811
 3314SOL    HW2 9971   1.167   3.574   3.693
 3315SOL     OW 9972   0.729   0.906   4.458
 3315SOL    HW1 9973   0.693   0.847   4.385
 3315SOL    HW2 9974   0.690   0.878   4.546
 3316SOL     OW 9975   3.977   1.110   4.327
 3316SOL    HW1 9976   3.980   1.026   4.273
 3316SOL    HW2 9977   3.928   1.180   4.276
 3317SOL     OW 9978   4.427   1.392   4.274
 3317SOL    HW1 9979   4.453   1.340   4.193
 3317SOL    HW2 9980   4.337   1.432   4.260
 3318SOL     OW 9981   3.369   1.208   4.343
 3318SOL    HW1 9982   3.447   1.180   4.289
 3318SOL    HW2 9983   3.386   1.187   4.440
 3319SOL     OW 9984   1.504   2.465   1.645
 3319SOL    HW1 9985   1.549   2.532   1.585
 3319SOL    HW2 9986   1.503   2.501   1.739
 3320SOL     OW 9987   0.357   2.645   4.016
 3320SOL    HW1 9988   0.293   2.700   3.962
 3320SOL    HW2 9989   0.306   2.577   4.068
 3321SOL     OW 9990   0.788   2.362   4.450
 3321SOL    HW1 9991   0.715   2.388   4.387
 3321SOL    HW2 9992   0.751   2.354   4.542
 3322SOL     OW 9993   1.535   1.143   4.794
 3322SOL    HW1 9994   1.458   1.199   4.825
 3322SOL    HW2 9995   1.520   1.115   4.699
 3323SOL     OW 9996   4.737   3.219   4.077
 3323SOL    HW1 9997   4.816   3.158   4.082
 3323SOL    HW2 9998   4.756   3.303   4.128
 3324SOL     OW 9999   1.572   3.831   3.673
 3324SOL    HW110000   1.626   3.816   3.590
 3324SOL    HW210001   1.475   3.824   3.652
 3325SOL     OW10002   1.438   1.747   3.914
 3325SOL    HW110003   1.412   1.654   3.938
 3325SOL    HW210004   1.532   1.749   3.882
 3326SOL     OW10005   4.638   1.366   2.249
 3326SOL    HW110006   4.589   1.293   2.202
 3326SOL    HW210007   4.649   1.342   2.346
 3327SOL     OW10008   3.362   2.517   1.330
 3327SOL    HW110009   3.314   2.537   1.416
 3327SOL    HW210010   3.329   2.579   1.259
 3328SOL     OW10011   3.434   0.490   3.098
 3328SOL    HW110012   3.460   0.395   3.082
 3328SOL    HW210013   3.454   0.514   3.193
 3329SOL     OW10014   4.455   2.430   3.653
 3329SOL    HW110015   4.511   2.404   3.575
 3329SOL    HW210016   4.371   2.376   3.653
 3330SOL     OW10017   1.722   1.881   2.053
 3330SOL    HW110018   1.656   1.891   1.979
 3330SOL    HW210019   1.751   1.785   2.059
 3331SOL     OW10020   1.196   4.255   4.972
 3331SOL    HW110021   1.271   4.216   5.025
 3331SOL    HW210022   1.169   4.190   4.900
 3332SOL     OW10023   2.616   0.810   1.233
 3332SOL    HW110024   2.555   0.889   1.225
 3332SOL    HW210025   2.671   0.818   1.316
 3333SOL     OW10026   1.539   0.304   0.878
 3333SOL    HW110027   1.591   0.252   0.947
 3333SOL    HW210028   1.569   0.277   0.787
 3334SOL     OW10029   2.715   2.014   2.684
 3334SOL    HW110030   2.807   2.045   2.660
 3334SOL    HW210031   2.710   1.915   2.676
 3335SOL     OW10032   3.188   1.590   0.078
 3335SOL    HW110033   3.134   1.512   0.109
 3335SOL    HW210034   3.177   1.666   0.142
 3336SOL     OW10035   2.142   3.769   2.236
 3336SOL    HW110036   2.216   3.709   2.204
 3336SOL    HW210037   2.054   3.727   2.214
 3337SOL     OW10038   1.205   2.613   1.767
 3337SOL    HW110039   1.259   2.529   1.766
 3337SOL    HW210040   1.193   2.646   1.673
 3338SOL     OW10041   3.470   3.591   1.675
 3338SOL    HW110042   3.382   3.638   1.685
 3338SOL    HW210043   3.490   3.579   1.577
 3339SOL     OW10044   3.621   4.692   0.495
 3339SOL    HW110045   3.717   4.685   0.467
 3339SOL    HW210046   3.613   4.670   0.592
 3340SOL     OW10047   0.411   0.227   2.569
 3340SOL    HW110048   0.441   0.261   2.480
 3340SOL    HW210049   0.475   0.258   2.639
 3341SOL     OW10050   4.368   4.274   4.981
 3341SOL    HW110051   4.366   4.331   4.900
 3341SOL    HW210052   4.398   4.181   4.957
 3342SOL     OW10053   2.328   0.479   4.523
 3342SOL    HW110054   2.300   0.386   4.498
 3342SOL    HW210055   2.293   0.544   4.456
 3343SOL     OW10056   0.115   2.121   3.416
 3343SOL    HW110057   0.111   2.028   3.379
 3343SOL    HW210058   0.088   2.186   3.346
 3344SOL     OW10059   3.629   0.445   1.301
 3344SOL    HW110060   3.585   0.357   1.318
 3344SOL    HW210061   3.722   0.430   1.267
 3345SOL     OW10062   4.171   3.011   3.154
 3345SOL    HW110063   4.134   2.939   3.095
 3345SOL    HW210064   4.139   2.996   3.248
 3346SOL     OW10065   0.119   4.703   4.379
 3346SOL    HW110066   0.214   4.723   4.404
 3346SOL    HW210067   0.117   4.649   4.295
 3347SOL     OW10068   4.963   4.532   3.614
 3347SOL    HW110069   4.902   4.468   3.660
 3347SOL    HW210070   0.018   4.490   3.604
 3348SOL     OW10071   2.411   0.261   1.970
 3348SOL    HW110072   2.508   0.245   1.955
 3348SOL    HW210073   2.399   0.337   2.034
 3349SOL     OW10074   2.458   3.535   0.892
 3349SOL    HW110075   2.384   3.476   0.860
 3349SOL    HW210076   2.420   3.623   0.920
 3350SOL     OW10077   2.412   4.075   3.028
 3350SOL    HW110078   2.414   4.046   2.933
 3350SOL    HW210079   2.317   4.080   3.059
 3351SOL     OW10080   4.675   0.486   0.476
 3351SOL    HW110081   4.576   0.474   0.484
 3351SOL    HW210082   4.696   0.583   0.472
 3352SOL     OW10083   2.763   0.421   1.525
 3352SOL    HW110084   2.736   0.461   1.438
 3352SOL    HW210085   2.856   0.450   1.548
 3353SOL     OW10086   1.498   2.468   4.913
 3353SOL    HW110087   1.588   2.471   4.870
 3353SOL    HW210088   1.427   2.466   4.843
 3354SOL     OW10089   4.486   3.649   3.366
 3354SOL    HW110090   4.437   3.724   3.410
 3354SOL    HW210091   4.432   3.565   3.375
 3355SOL     OW10092   2.811   0.150   1.083
 3355SOL    HW110093   2.799   0.237   1.036
 3355SOL    HW210094   2.738   0.137   1.149
 3356SOL     OW10095   3.338   2.462   0.655
 3356SOL    HW110096   3.311   2.387   0.595
 3356SOL    HW210097   3.352   2.428   0.748
 3357SOL     OW10098   1.675   0.359   3.417
 3357SOL    HW110099   1.686   0.321   3.325
 3357SOL    HW210100   1.607   0.432   3.414
 3358SOL     OW10101   1.804   2.463   0.622
 3358SOL    HW110102   1.767   2.548   0.660
 3358SOL    HW210103   1.732   2.395   0.616
 3359SOL     OW10104   2.372   0.378   4.209
 3359SOL    HW110105   2.367   0.476   4.227
 3359SOL    HW210106   2.365   0.361   4.111
 3360SOL     OW10107   4.755   3.530   1.004
 3360SOL    HW110108   4.829   3.596   0.994
 3360SOL    HW210109   4.667   3.578   1.002
 3361SOL     OW10110   2.024   1.311   3.437
 3361SOL    HW110111   2.039   1.349   3.346
 3361SOL    HW210112   2.056   1.217   3.439
 3362SOL     OW10113   4.320   4.006   1.505
 3362SOL    HW110114   4.329   4.063   1.423
 3362SOL    HW210115   4.409   3.992   1.547
 3363SOL     OW10116   0.540   3.925   2.014
 3363SOL    HW110117   0.510   3.947   1.921
 3363SOL    HW210118   0.624   3.871   2.009
 3364SOL     OW10119   2.416   2.683   1.859
 3364SOL    HW110120   2.427   2.760   1.922
 3364SOL    HW210121   2.494   2.681   1.796
 3365SOL     OW10122   4.711   2.472   4.921
 3365SOL    HW110123   4.784   2.414   4.885
 3365SOL    HW210124   4.746   2.564   4.939
 3366SOL     OW10125   2.163   0.513   1.409
 3366SOL    HW110126   2.071   0.542   1.384
 3366SOL    HW210127   2.206   0.468   1.331
 3367SOL     OW10128   2.118   0.147   0.447
 3367SOL    HW110129   2.216   0.127   0.448
 3367SOL    HW210130   2.071   0.086   0.511
 3368SOL     OW10131   1.683   3.163   3.851
 3368SOL    HW110132   1.763   3.104   3.856
 3368SOL    HW210133   1.687   3.216   3.766
 3369SOL     OW10134   0.068   5.033   4.889
 3369SOL    HW110135   0.159   0.011   4.851
 3369SOL    HW210136   0.021   0.086   4.893
 3370SOL     OW10137   4.172   4.197   0.141
 3370SOL    HW110138   4.099   4.264   0.127
 3370SOL    HW210139   4.248   4.217   0.080
 3371SOL     OW10140   2.489   1.434   2.694
 3371SOL    HW110141   2.542   1.419   2.778
 3371SOL    HW210142   2.393   1.414   2.711
 3372SOL     OW10143   4.573   4.308   4.379
 3372SOL    HW110144   4.623   4.374   4.324
 3372SOL    HW210145   4.478   4.337   4.389
 3373SOL     OW10146   2.024   3.075   0.421
 3373SOL    HW110147   1.966   3.123   0.356
 3373SOL    HW210148   2.120   3.094   0.402
 3374SOL     OW10149   2.887   3.620   4.359
 3374SOL    HW110150   2.920   3.533   4.396
 3374SOL    HW210151   2.908   3.625   4.262
 3375SOL     OW10152   1.049   2.866   0.820
 3375SOL    HW110153   1.060   2.769   0.804
 3375SOL    HW210154   1.089   2.918   0.744
 3376SOL     OW10155   3.314   1.904   3.860
 3376SOL    HW110156   3.329   1.973   3.789
 3376SOL    HW210157   3.302   1.814   3.818
 3377SOL     OW10158   3.342   3.223   2.450
 3377SOL    HW110159   3.355   3.176   2.538
 3377SOL    HW210160   3.340   3.322   2.465
 3378SOL     OW10161   3.126   0.991   4.704
 3378SOL    HW110162   3.104   0.894   4.689
 3378SOL    HW210163   3.191   0.999   4.779
 3379SOL     OW10164   4.156   4.519   2.448
 3379SOL    HW110165   4.131   4.604   2.494
 3379SOL    HW210166   4.239   4.481   2.489
 3380SOL     OW10167   4.956   1.084   2.356
 3380SOL    HW110168   4.929   1.048   2.267
 3380SOL    HW210169   4.945   1.014   2.426
 3381SOL     OW10170   4.611   0.185   4.247
 3381SOL    HW110171   4.514   0.204   4.262
 3381SOL    HW210172   4.628   0.086   4.257
 3382SOL     OW10173   0.724   0.330   0.215
 3382SOL    HW110174   0.653   0.260   0.202
 3382SOL    HW210175   0.793   0.296   0.279
 3383SOL     OW10176   3.207   2.219   2.969
 3383SOL    HW110177   3.239   2.137   3.017
 3383SOL    HW210178   3.107   2.218   2.964
 3384SOL     OW10179   1.409   1.919   3.625
 3384SOL    HW110180   1.347   1.843   3.644
 3384SOL    HW210181   1.372   1.974   3.549
 3385SOL     OW10182   4.973   3.668   2.404
 3385SOL    HW110183   4.924   3.737   2.351
 3385SOL    HW210184   4.985   3.699   2.498
 3386SOL     OW10185   2.065   1.066   1.784
 3386SOL    HW110186   2.053   1.017   1.870
 3386SOL    HW210187   2.018   1.154   1.789
 3387SOL     OW10188   1.026   3.062   0.097
 3387SOL    HW110189   0.944   3.080   0.042
 3387SOL    HW210190   1.048   3.144   0.151
 3388SOL     OW10191   0.404   0.448   2.983
 3388SOL    HW110192   0.356   0.384   3.042
 3388SOL    HW210193   0.395   0.541   3.020
 3389SOL     OW10194   0.781   4.877   0.556
 3389SOL    HW110195   0.697   4.888   0.504
 3389SOL    HW210196   0.762   4.888   0.654
 3390SOL     OW10197   0.074   0.775   2.326
 3390SOL    HW110198   0.169   0.798   2.345
 3390SOL    HW210199   0.035   0.842   2.263
 3391SOL     OW10200   1.210   3.699   0.863
 3391SOL    HW110201   1.161   3.726   0.780
 3391SOL    HW210202   1.147   3.654   0.926
 3392SOL     OW10203   1.724   0.651   3.514
 3392SOL    HW110204   1.709   0.644   3.415
 3392SOL    HW210205   1.820   0.631   3.534
 3393SOL     OW10206   4.144   3.974   2.895
 3393SOL    HW110207   4.062   3.999   2.844
 3393SOL    HW210208   4.119   3.946   2.987
 3394SOL     OW10209   2.097   0.328   4.238
 3394SOL    HW110210   2.197   0.334   4.246
 3394SOL    HW210211   2.055   0.351   4.326
 3395SOL     OW10212   1.691   0.291   3.738
 3395SOL    HW110213   1.641   0.341   3.808
 3395SOL    HW210214   1.698   0.348   3.656
 3396SOL     OW10215   3.494   4.475   0.945
 3396SOL    HW110216   3.447   4.559   0.974
 3396SOL    HW210217   3.529   4.487   0.852
 3397SOL     OW10218   1.764   4.649   2.290
 3397SOL    HW110219   1.730   4.742   2.307
 3397SOL    HW210220   1.691   4.594   2.250
 3398SOL     OW10221   3.232   1.092   2.382
 3398SOL    HW110222   3.287   1.009   2.375
 3398SOL    HW210223   3.196   1.116   2.293
 3399SOL     OW10224   1.876   1.015   3.470
 3399SOL    HW110225   1.851   1.097   3.522
 3399SOL    HW210226   1.935   0.957   3.525
 3400SOL     OW10227   1.931   1.725   0.943
 3400SOL    HW110228   1.880   1.705   0.859
 3400SOL    HW210229   1.877   1.787   1.000
 3401SOL     OW10230   2.485   3.436   4.195
 3401SOL    HW110231   2.509   3.391   4.109
 3401SOL    HW210232   2.394   3.408   4.223
 3402SOL     OW10233   0.484   0.169   0.497
 3402SOL    HW110234   0.400   0.125   0.466
 3402SOL    HW210235   0.492   0.260   0.454
 3403SOL     OW10236   2.080   1.902   1.668
 3403SOL    HW110237   2.029   1.850   1.599
 3403SOL    HW210238   2.038   1.992   1.678
 3404SOL     OW10239   1.998   3.304   0.581
 3404SOL    HW110240   1.996   3.225   0.521
 3404SOL    HW210241   1.943   3.285   0.663
 3405SOL     OW10242   0.535   1.642   1.634
 3405SOL    HW110243   0.568   1.712   1.571
 3405SOL    HW210244   0.447   1.607   1.601
 3406SOL     OW10245   4.872   3.736   0.410
 3406SOL    HW110246   4.917   3.725   0.322
 3406SOL    HW210247   4.938   3.770   0.477
 3407SOL     OW10248   3.500   3.551   3.898
 3407SOL    HW110249   3.543   3.630   3.942
 3407SOL    HW210250   3.498   3.565   3.799
 3408SOL     OW10251   1.072   4.883   0.157
 3408SOL    HW110252   1.046   4.826   0.079
 3408SOL    HW210253   1.050   4.835   0.242
 3409SOL     OW10254   2.844   3.388   1.556
 3409SOL    HW110255   2.797   3.358   1.473
 3409SOL    HW210256   2.793   3.461   1.600
 3410SOL     OW10257   3.060   1.908   3.973
 3410SOL    HW110258   3.011   1.907   3.887
 3410SOL    HW210259   3.159   1.909   3.956
 3411SOL     OW10260   3.824   0.734   0.089
 3411SOL    HW110261   3.840   0.831   0.071
 3411SOL    HW210262   3.852   0.680   0.010
 3412SOL     OW10263   4.193   0.786   4.840
 3412SOL    HW110264   4.249   0.834   4.908
 3412SOL    HW210265   4.199   0.687   4.856
 3413SOL     OW10266   0.663   2.846   4.555
 3413SOL    HW110267   0.747   2.852   4.501
 3413SOL    HW210268   0.623   2.937   4.564
 3414SOL     OW10269   0.576   1.845   2.191
 3414SOL    HW110270   0.497   1.782   2.190
 3414SOL    HW210271   0.657   1.796   2.224
 3415SOL     OW10272   3.714   1.553   1.646
 3415SOL    HW110273   3.772   1.594   1.717
 3415SOL    HW210274   3.620   1.546   1.680
 3416SOL     OW10275   0.626   2.181   3.348
 3416SOL    HW110276   0.654   2.240   3.273
 3416SOL    HW210277   0.695   2.185   3.421
 3417SOL     OW10278   3.746   2.047   3.407
 3417SOL    HW110279   3.838   2.043   3.369
 3417SOL    HW210280   3.751   2.057   3.506
 3418SOL     OW10281   1.154   0.836   1.572
 3418SOL    HW110282   1.088   0.809   1.502
 3418SOL    HW210283   1.114   0.905   1.632
 3419SOL     OW10284   4.077   1.948   4.825
 3419SOL    HW110285   4.141   1.878   4.855
 3419SOL    HW210286   3.987   1.907   4.808
 3420SOL     OW10287   4.695   0.687   2.352
 3420SOL    HW110288   4.750   0.609   2.381
 3420SOL    HW210289   4.678   0.747   2.431
 3421SOL     OW10290   1.022   2.353   0.654
 3421SOL    HW110291   1.099   2.341   0.717
 3421SOL    HW210292   1.057   2.362   0.560
 3422SOL     OW10293   1.465   1.337   0.740
 3422SOL    HW110294   1.519   1.414   0.776
 3422SOL    HW210295   1.519   1.253   0.745
 3423SOL     OW10296   4.278   1.815   4.962
 3423SOL    HW110297   4.374   1.822   4.936
 3423SOL    HW210298   4.248   1.902   5.003
 3424SOL     OW10299   1.217   3.323   3.062
 3424SOL    HW110300   1.312   3.346   3.040
 3424SOL    HW210301   1.200   3.340   3.159
 3425SOL     OW10302   3.496   2.939   4.040
 3425SOL    HW110303   3.589   2.976   4.041
 3425SOL    HW210304   3.451   2.960   4.127
 3426SOL     OW10305   3.569   4.300   3.732
 3426SOL    HW110306   3.510   4.378   3.750
 3426SOL    HW210307   3.551   4.229   3.800
 3427SOL     OW10308   0.436   4.428   3.215
 3427SOL    HW110309   0.352   4.384   3.246
 3427SOL    HW210310   0.416   4.523   3.190
 3428SOL     OW10311   3.111   1.242   2.577
 3428SOL    HW110312   3.046   1.180   2.621
 3428SOL    HW210313   3.159   1.194   2.504
 3429SOL     OW10314   0.282   0.082   4.725
 3429SOL    HW110315   0.284   0.000   4.667
 3429SOL    HW210316   0.311   0.161   4.672
 3430SOL     OW10317   0.517   4.243   4.959
 3430SOL    HW110318   0.520   4.162   4.901
 3430SOL    HW210319   0.435   4.296   4.938
 3431SOL     OW10320   3.168   1.580   3.142
 3431SOL    HW110321   3.250   1.636   3.158
 3431SOL    HW210322   3.092   1.638   3.114
 3432SOL     OW10323   1.931   1.659   2.691
 3432SOL    HW110324   2.022   1.697   2.673
 3432SOL    HW210325   1.878   1.657   2.606
 3433SOL     OW10326   5.008   5.021   3.752
 3433SOL    HW110327   4.985   4.975   3.666
 3433SOL    HW210328   4.974   4.967   3.829
 3434SOL     OW10329   1.434   4.459   0.104
 3434SOL    HW110330   1.391   4.549   0.115
 3434SOL    HW210331   1.461   4.447   0.009
 3435SOL     OW10332   1.035   0.963   2.958
 3435SOL    HW110333   0.947   0.998   2.988
 3435SOL    HW210334   1.032   0.863   2.957
 3436SOL     OW10335   4.586   2.176   1.089
 3436SOL    HW110336   4.594   2.247   1.020
 3436SOL    HW210337   4.556   2.217   1.175
 3437SOL     OW10338   4.607   4.896   2.653
 3437SOL    HW110339   4.680   4.927   2.714
 3437SOL    HW210340   4.530   4.960   2.658
 3438SOL     OW10341   3.759   0.448   0.635
 3438SOL    HW110342   3.773   0.544   0.657
 3438SOL    HW210343   3.663   0.432   0.614
 3439SOL     OW10344   0.394   3.360   1.244
 3439SOL    HW110345   0.362   3.267   1.229
 3439SOL    HW210346   0.414   3.403   1.156
 3440SOL     OW10347   0.765   4.986   4.528
 3440SOL    HW110348   0.791   4.892   4.549
 3440SOL    HW210349   0.693   5.016   4.591
 3441SOL     OW10350   3.665   1.517   0.470
 3441SOL    HW110351   3.645   1.420   0.459
 3441SOL    HW210352   3.719   1.530   0.553
 3442SOL     OW10353   1.455   0.989   4.094
 3442SOL    HW110354   1.391   1.015   4.166
 3442SOL    HW210355   1.439   0.894   4.067
 3443SOL     OW10356   4.576   3.789   2.079
 3443SOL    HW110357   4.582   3.804   2.178
 3443SOL    HW210358   4.486   3.753   2.056
 3444SOL     OW10359   2.659   4.182   3.685
 3444SOL    HW110360   2.698   4.269   3.718
 3444SOL    HW210361   2.703   4.106   3.733
 3445SOL     OW10362   3.017   2.117   3.782
 3445SOL    HW110363   3.107   2.138   3.742
 3445SOL    HW210364   3.018   2.139   3.879
 3446SOL     OW10365   2.778   0.741   1.468
 3446SOL    HW110366   2.690   0.735   1.513
 3446SOL    HW210367   2.850   0.715   1.532
 3447SOL     OW10368   3.350   4.220   4.456
 3447SOL    HW110369   3.425   4.203   4.519
 3447SOL    HW210370   3.387   4.255   4.369
 3448SOL     OW10371   1.693   3.703   4.461
 3448SOL    HW110372   1.773   3.727   4.516
 3448SOL    HW210373   1.611   3.742   4.503
 3449SOL     OW10374   3.804   3.449   3.053
 3449SOL    HW110375   3.819   3.371   3.113
 3449SOL    HW210376   3.768   3.418   2.965
 3450SOL     OW10377   3.523   0.192   1.307
 3450SOL    HW110378   3.560   0.119   1.364
 3450SOL    HW210379   3.515   0.160   1.213
 3451SOL     OW10380   3.393   1.221   1.536
 3451SOL    HW110381   3.453   1.195   1.461
 3451SOL    HW210382   3.311   1.164   1.535
 3452SOL     OW10383   3.447   1.213   3.545
 3452SOL    HW110384   3.444   1.114   3.528
 3452SOL    HW210385   3.378   1.259   3.490
 3453SOL     OW10386   4.453   1.386   2.494
 3453SOL    HW110387   4.429   1.447   2.569
 3453SOL    HW210388   4.445   1.435   2.407
 3454SOL     OW10389   1.737   3.419   2.448
 3454SOL    HW110390   1.717   3.460   2.537
 3454SOL    HW210391   1.653   3.414   2.394
 3455SOL     OW10392   2.641   4.388   4.321
 3455SOL    HW110393   2.606   4.301   4.286
 3455SOL    HW210394   2.578   4.423   4.390
 3456SOL     OW10395   3.439   0.709   3.931
 3456SOL    HW110396   3.515   0.694   3.867
 3456SOL    HW210397   3.466   0.680   4.022
 3457SOL     OW10398   3.790   3.432   0.836
 3457SOL    HW110399   3.885   3.441   0.867
 3457SOL    HW210400   3.788   3.416   0.737
 3458SOL     OW10401   0.095   3.213   4.666
 3458SOL    HW110402   0.136   3.160   4.740
 3458SOL    HW210403   0.147   3.297   4.651
 3459SOL     OW10404   1.753   0.163   0.997
 3459SOL    HW110405   1.830   0.202   0.947
 3459SOL    HW210406   1.787   0.112   1.077
 3460SOL     OW10407   3.984   2.971   3.959
 3460SOL    HW110408   3.888   2.949   3.979
 3460SOL    HW210409   4.017   3.037   4.027
 3461SOL     OW10410   0.471   1.278   3.682
 3461SOL    HW110411   0.514   1.192   3.709
 3461SOL    HW210412   0.484   1.346   3.755
 3462SOL     OW10413   4.254   4.847   3.301
 3462SOL    HW110414   4.315   4.879   3.228
 3462SOL    HW210415   4.302   4.778   3.356
 3463SOL     OW10416   3.231   5.006   1.403
 3463SOL    HW110417   3.147   4.962   1.434
 3463SOL    HW210418   3.287   5.032   1.481
 3464SOL     OW10419   0.177   2.889   2.591
 3464SOL    HW110420   0.256   2.938   2.554
 3464SOL    HW210421   0.153   2.813   2.530
 3465SOL     OW10422   3.870   3.929   1.504
 3465SOL    HW110423   3.940   3.859   1.516
 3465SOL    HW210424   3.781   3.894   1.534
 3466SOL     OW10425   0.050   0.194   3.910
 3466SOL    HW110426   0.015   0.116   3.858
 3466SOL    HW210427   5.009   0.257   3.928
 3467SOL     OW10428   5.006   4.058   2.468
 3467SOL    HW110429   0.012   4.130   2.524
 3467SOL    HW210430   5.009   4.086   2.372
 3468SOL     OW10431   1.230   3.440   1.776
 3468SOL    HW110432   1.241   3.347   1.741
 3468SOL    HW210433   1.305   3.461   1.838
 3469SOL     OW10434   3.358   2.709   1.120
 3469SOL    HW110435   3.299   2.764   1.060
 3469SOL    HW210436   3.436   2.764   1.149
 3470SOL     OW10437   3.884   2.029   0.013
 3470SOL    HW110438   3.892   2.093   0.090
 3470SOL    HW210439   3.973   1.986   5.031
 3471SOL     OW10440   4.943   1.037   2.782
 3471SOL    HW110441   4.991   1.097   2.718
 3471SOL    HW210442   4.985   0.946   2.780
 3472SOL     OW10443   1.980   0.225   3.057
 3472SOL    HW110444   2.023   0.145   3.100
 3472SOL    HW210445   2.051   0.288   3.025
 3473SOL     OW10446   4.195   2.103   0.331
 3473SOL    HW110447   4.277   2.147   0.367
 3473SOL    HW210448   4.177   2.019   0.383
 3474SOL     OW10449   2.887   1.577   3.091
 3474SOL    HW110450   2.881   1.672   3.120
 3474SOL    HW210451   2.877   1.517   3.170
 3475SOL     OW10452   1.949   3.709   3.058
 3475SOL    HW110453   1.859   3.665   3.059
 3475SOL    HW210454   1.982   3.720   3.152
 3476SOL     OW10455   3.854   4.140   3.696
 3476SOL    HW110456   3.952   4.154   3.704
 3476SOL    HW210457   3.828   4.136   3.600
 3477SOL     OW10458   2.857   0.201   3.228
 3477SOL    HW110459   2.879   0.113   3.185
 3477SOL    HW210460   2.860   0.273   3.159
 3478SOL     OW10461   0.666   4.735   1.929
 3478SOL    HW110462   0.600   4.790   1.878
 3478SOL    HW210463   0.658   4.639   1.904
 3479SOL     OW10464   3.127   1.209   0.537
 3479SOL    HW110465   3.099   1.267   0.460
 3479SOL    HW210466   3.079   1.239   0.620
 3480SOL     OW10467   3.295   0.867   0.696
 3480SOL    HW110468   3.196   0.882   0.698
 3480SOL    HW210469   3.320   0.800   0.766
 3481SOL     OW10470   3.521   0.757   0.101
 3481SOL    HW110471   3.542   0.678   0.042
 3481SOL    HW210472   3.593   0.768   0.169
 3482SOL     OW10473   2.129   2.224   0.402
 3482SOL    HW110474   2.097   2.257   0.313
 3482SOL    HW210475   2.218   2.266   0.422
 3483SOL     OW10476   3.881   0.955   3.776
 3483SOL    HW110477   3.922   0.931   3.688
 3483SOL    HW210478   3.908   1.048   3.802
 3484SOL     OW10479   0.794   2.490   3.682
 3484SOL    HW110480   0.726   2.557   3.713
 3484SOL    HW210481   0.852   2.532   3.612
 3485SOL     OW10482   3.186   1.865   3.239
 3485SOL    HW110483   3.161   1.856   3.143
 3485SOL    HW210484   3.174   1.960   3.268
 3486SOL     OW10485   1.982   3.102   3.008
 3486SOL    HW110486   2.001   3.033   2.938
 3486SOL    HW210487   1.898   3.078   3.057
 3487SOL     OW10488   3.498   2.159   4.558
 3487SOL    HW110489   3.467   2.252   4.536
 3487SOL    HW210490   3.555   2.162   4.641
 3488SOL     OW10491   3.620   2.231   4.804
 3488SOL    HW110492   3.536   2.279   4.830
 3488SOL    HW210493   3.683   2.229   4.883
 3489SOL     OW10494   4.075   3.356   0.673
 3489SOL    HW110495   4.014   3.425   0.633
 3489SOL    HW210496   4.059   3.268   0.627
 3490SOL     OW10497   1.055   0.298   2.550
 3490SOL    HW110498   0.975   0.271   2.498
 3490SOL    HW210499   1.123   0.224   2.548
 3491SOL     OW10500   1.245   2.918   1.608
 3491SOL    HW110501   1.229   2.830   1.564
 3491SOL    HW210502   1.335   2.952   1.581
 3492SOL     OW10503   0.679   4.380   2.951
 3492SOL    HW110504   0.681   4.281   2.969
 3492SOL    HW210505   0.760   4.406   2.900
 3493SOL     OW10506   4.061   1.292   4.507
 3493SOL    HW110507   4.129   1.273   4.579
 3493SOL    HW210508   4.041   1.208   4.457
 3494SOL     OW10509   1.844   1.294   4.042
 3494SOL    HW110510   1.851   1.244   3.956
 3494SOL    HW210511   1.763   1.353   4.040
 3495SOL     OW10512   3.371   2.855   2.954
 3495SOL    HW110513   3.438   2.808   3.012
 3495SOL    HW210514   3.325   2.926   3.008
 3496SOL     OW10515   2.288   3.219   2.896
 3496SOL    HW110516   2.284   3.276   2.978
 3496SOL    HW210517   2.200   3.223   2.848
 3497SOL     OW10518   3.230   1.029   2.780
 3497SOL    HW110519   3.193   0.950   2.828
 3497SOL    HW210520   3.217   1.111   2.835
 3498SOL     OW10521   3.287   1.438   4.896
 3498SOL    HW110522   3.218   1.488   4.947
 3498SOL    HW210523   3.278   1.457   4.799
 3499SOL     OW10524   0.114   3.579   1.719
 3499SOL    HW110525   0.101   3.600   1.816
 3499SOL    HW210526   0.044   3.514   1.690
 3500SOL     OW10527   0.136   1.769   3.934
 3500SOL    HW110528   0.100   1.839   3.997
 3500SOL    HW210529   0.068   1.751   3.863
 3501SOL     OW10530   2.445   4.090   0.482
 3501SOL    HW110531   2.539   4.122   0.493
 3501SOL    HW210532   2.407   4.070   0.573
 3502SOL     OW10533   0.000   3.131   1.945
 3502SOL    HW110534   5.002   3.044   1.909
 3502SOL    HW210535   4.980   3.157   2.024
 3503SOL     OW10536   4.431   1.403   3.047
 3503SOL    HW110537   4.399   1.337   3.115
 3503SOL    HW210538   4.356   1.462   3.019
 3504SOL     OW10539   2.273   0.641   4.194
 3504SOL    HW110540   2.251   0.730   4.234
 3504SOL    HW210541   2.302   0.653   4.099
 3505SOL     OW10542   0.685   3.937   1.328
 3505SOL    HW110543   0.740   3.854   1.316
 3505SOL    HW210544   0.691   3.968   1.423
 3506SOL     OW10545   0.208   2.713   2.378
 3506SOL    HW110546   0.306   2.720   2.359
 3506SOL    HW210547   0.157   2.765   2.309
 3507SOL     OW10548   1.972   1.638   3.954
 3507SOL    HW110549   1.935   1.716   4.005
 3507SOL    HW210550   2.066   1.621   3.982
 3508SOL     OW10551   4.874   0.884   2.506
 3508SOL    HW110552   4.913   0.805   2.459
 3508SOL    HW210553   4.791   0.856   2.554
 3509SOL     OW10554   3.843   0.902   2.612
 3509SOL    HW110555   3.941   0.922   2.617
 3509SOL    HW210556   3.828   0.806   2.634
 3510SOL     OW10557   3.036   4.400   0.703
 3510SOL    HW110558   3.055   4.428   0.797
 3510SOL    HW210559   3.064   4.304   0.691
 3511SOL     OW10560   1.214   3.080   2.355
 3511SOL    HW110561   1.140   3.055   2.291
 3511SOL    HW210562   1.193   3.045   2.446
 3512SOL     OW10563   0.542   4.467   4.602
 3512SOL    HW110564   0.504   4.521   4.527
 3512SOL    HW210565   0.482   4.475   4.682
 3513SOL     OW10566   2.660   3.704   4.893
 3513SOL    HW110567   2.714   3.681   4.812
 3513SOL    HW210568   2.584   3.763   4.867
 3514SOL     OW10569   4.166   3.335   4.925
 3514SOL    HW110570   4.251   3.339   4.873
 3514SOL    HW210571   4.173   3.265   4.996
 3515SOL     OW10572   4.178   4.206   2.541
 3515SOL    HW110573   4.188   4.227   2.639
 3515SOL    HW210574   4.268   4.197   2.500
 3516SOL     OW10575   4.155   2.600   0.827
 3516SOL    HW110576   4.226   2.649   0.778
 3516SOL    HW210577   4.173   2.604   0.926
 3517SOL     OW10578   1.694   2.666   1.557
 3517SOL    HW110579   1.697   2.719   1.472
 3517SOL    HW210580   1.712   2.727   1.635
 3518SOL     OW10581   3.597   3.524   0.179
 3518SOL    HW110582   3.558   3.538   0.270
 3518SOL    HW210583   3.536   3.562   0.110
 3519SOL     OW10584   0.183   3.164   3.252
 3519SOL    HW110585   0.161   3.234   3.320
 3519SOL    HW210586   0.218   3.208   3.169
 3520SOL     OW10587   4.734   0.123   4.512
 3520SOL    HW110588   4.754   0.174   4.428
 3520SOL    HW210589   4.740   0.025   4.494
 3521SOL     OW10590   3.844   3.380   4.438
 3521SOL    HW110591   3.810   3.471   4.462
 3521SOL    HW210592   3.795   3.346   4.358
 3522SOL     OW10593   3.599   1.181   4.167
 3522SOL    HW110594   3.606   1.269   4.121
 3522SOL    HW210595   3.606   1.107   4.100
 3523SOL     OW10596   3.873   1.415   2.777
 3523SOL    HW110597   3.905   1.331   2.820
 3523SOL    HW210598   3.886   1.408   2.678
 3524SOL     OW10599   3.779   0.435   0.363
 3524SOL    HW110600   3.804   0.435   0.460
 3524SOL    HW210601   3.721   0.513   0.344
 3525SOL     OW10602   2.323   0.813   3.957
 3525SOL    HW110603   2.411   0.848   3.925
 3525SOL    HW210604   2.298   0.859   4.043
 3526SOL     OW10605   2.309   0.099   3.759
 3526SOL    HW110606   2.261   0.186   3.750
 3526SOL    HW210607   2.400   0.114   3.797
 3527SOL     OW10608   1.538   0.040   3.727
 3527SOL    HW110609   1.542   0.005   3.634
 3527SOL    HW210610   1.604   0.114   3.739
 3528SOL     OW10611   3.717   3.905   3.617
 3528SOL    HW110612   3.721   3.935   3.522
 3528SOL    HW210613   3.764   3.972   3.675
 3529SOL     OW10614   4.578   0.676   1.860
 3529SOL    HW110615   4.586   0.710   1.954
 3529SOL    HW210616   4.482   0.654   1.841
 3530SOL     OW10617   1.810   4.803   3.782
 3530SOL    HW110618   1.868   4.884   3.776
 3530SOL    HW210619   1.862   4.727   3.822
 3531SOL     OW10620   2.744   2.700   3.459
 3531SOL    HW110621   2.705   2.768   3.521
 3531SOL    HW210622   2.712   2.717   3.366
 3532SOL     OW10623   3.608   1.386   0.840
 3532SOL    HW110624   3.521   1.436   0.836
 3532SOL    HW210625   3.676   1.441   0.888
 3533SOL     OW10626   0.845   3.530   0.297
 3533SOL    HW110627   0.762   3.554   0.346
 3533SOL    HW210628   0.872   3.605   0.237
 3534SOL     OW10629   4.830   2.891   1.619
 3534SOL    HW110630   4.852   2.817   1.555
 3534SOL    HW210631   4.885   2.972   1.597
 3535SOL     OW10632   1.263   2.223   3.952
 3535SOL    HW110633   1.336   2.197   3.890
 3535SOL    HW210634   1.284   2.192   4.045
 3536SOL     OW10635   1.658   1.560   1.790
 3536SOL    HW110636   1.754   1.585   1.800
 3536SOL    HW210637   1.622   1.597   1.705
 3537SOL     OW10638   0.650   3.490   3.980
 3537SOL    HW110639   0.596   3.528   3.905
 3537SOL    HW210640   0.635   3.544   4.062
 3538SOL     OW10641   3.630   1.533   3.419
 3538SOL    HW110642   3.600   1.546   3.325
 3538SOL    HW210643   3.552   1.504   3.475
 3539SOL     OW10644   0.632   2.081   1.390
 3539SOL    HW110645   0.729   2.062   1.374
 3539SOL    HW210646   0.592   2.119   1.306
 3540SOL     OW10647   1.602   1.505   0.910
 3540SOL    HW110648   1.568   1.436   0.974
 3540SOL    HW210649   1.565   1.595   0.934
 3541SOL     OW10650   0.333   1.105   3.008
 3541SOL    HW110651   0.373   1.151   3.088
 3541SOL    HW210652   0.246   1.064   3.034
 3542SOL     OW10653   1.487   3.056   2.569
 3542SOL    HW110654   1.436   3.120   2.512
 3542SOL    HW210655   1.424   3.008   2.631
 3543SOL     OW10656   1.084   1.117   2.714
 3543SOL    HW110657   0.990   1.117   2.680
 3543SOL    HW210658   1.098   1.038   2.774
 3544SOL     OW10659   1.188   3.630   0.224
 3544SOL    HW110660   1.281   3.645   0.258
 3544SOL    HW210661   1.122   3.654   0.295
 3545SOL     OW10662   0.799   0.264   4.065
 3545SOL    HW110663   0.861   0.315   4.006
 3545SOL    HW210664   0.849   0.190   4.111
 3546SOL     OW10665   4.688   1.268   3.102
 3546SOL    HW110666   4.683   1.173   3.069
 3546SOL    HW210667   4.623   1.324   3.051
 3547SOL     OW10668   0.904   3.030   1.679
 3547SOL    HW110669   0.916   3.111   1.623
 3547SOL    HW210670   0.853   3.053   1.762
 3548SOL     OW10671   3.928   3.123   4.255
 3548SOL    HW110672   3.951   3.034   4.293
 3548SOL    HW210673   3.990   3.192   4.293
 3549SOL     OW10674   4.694   4.074   2.096
 3549SOL    HW110675   4.646   3.990   2.070
 3549SOL    HW210676   4.638   4.127   2.160
 3550SOL     OW10677   4.699   1.889   1.555
 3550SOL    HW110678   4.777   1.860   1.610
 3550SOL    HW210679   4.678   1.985   1.575
 3551SOL     OW10680   1.063   3.188   0.560
 3551SOL    HW110681   1.100   3.175   0.652
 3551SOL    HW210682   1.092   3.277   0.526
 3552SOL     OW10683   2.647   4.245   3.040
 3552SOL    HW110684   2.717   4.187   3.081
 3552SOL    HW210685   2.563   4.192   3.027
 3553SOL     OW10686   1.278   0.944   4.812
 3553SOL    HW110687   1.280   1.032   4.857
 3553SOL    HW210688   1.188   0.902   4.823
 3554SOL     OW10689   1.856   0.188   0.283
 3554SOL    HW110690   1.939   0.182   0.338
 3554SOL    HW210691   1.845   0.280   0.247
 3555SOL     OW10692   1.551   2.948   4.016
 3555SOL    HW110693   1.586   3.004   3.940
 3555SOL    HW210694   1.624   2.892   4.053
 3556SOL     OW10695   1.165   4.985   1.967
 3556SOL    HW110696   1.212   0.008   1.901
 3556SOL    HW210697   1.187   5.014   2.060
 3557SOL     OW10698   2.754   1.323   0.407
 3557SOL    HW110699   2.716   1.271   0.331
 3557SOL    HW210700   2.753   1.420   0.385
 3558SOL     OW10701   4.481   0.949   0.809
 3558SOL    HW110702   4.388   0.922   0.836
 3558SOL    HW210703   4.540   0.949   0.889
 3559SOL     OW10704   0.662   3.693   3.532
 3559SOL    HW110705   0.674   3.771   3.594
 3559SOL    HW210706   0.747   3.679   3.480
 3560SOL     OW10707   4.478   4.146   3.020
 3560SOL    HW110708   4.522   4.120   2.934
 3560SOL    HW210709   4.470   4.066   3.080
 3561SOL     OW10710   4.191   1.304   2.591
 3561SOL    HW110711   4.227   1.387   2.634
 3561SOL    HW210712   4.268   1.245   2.565
 3562SOL     OW10713   2.797   4.973   3.709
 3562SOL    HW110714   2.699   4.956   3.700
 3562SOL    HW210715   2.843   4.952   3.622
 3563SOL     OW10716   4.734   0.420   4.931
 3563SOL    HW110717   4.710   0.507   4.975
 3563SOL    HW210718   4.780   0.438   4.844
 3564SOL     OW10719   4.397   0.215   0.317
 3564SOL    HW110720   4.467   0.219   0.245
 3564SOL    HW210721   4.412   0.289   0.383
 3565SOL     OW10722   3.764   3.898   4.290
 3565SOL    HW110723   3.796   3.912   4.383
 3565SOL    HW210724   3.744   3.801   4.275
 3566SOL     OW10725   2.428   0.933   4.868
 3566SOL    HW110726   2.508   0.962   4.816
 3566SOL    HW210727   2.379   0.862   4.817
 3567SOL     OW10728   0.992   2.403   0.364
 3567SOL    HW110729   0.965   2.314   0.327
 3567SOL    HW210730   1.038   2.456   0.293
 3568SOL     OW10731   4.307   2.098   4.757
 3568SOL    HW110732   4.337   2.153   4.835
 3568SOL    HW210733   4.227   2.044   4.783
 3569SOL     OW10734   0.131   2.840   0.397
 3569SOL    HW110735   0.041   2.879   0.418
 3569SOL    HW210736   0.201   2.910   0.414
 3570SOL     OW10737   3.537   3.075   3.106
 3570SOL    HW110738   3.470   3.143   3.078
 3570SOL    HW210739   3.540   3.071   3.206
 3571SOL     OW10740   1.137   0.530   1.702
 3571SOL    HW110741   1.198   0.584   1.644
 3571SOL    HW210742   1.127   0.438   1.662
 3572SOL     OW10743   2.655   3.417   2.620
 3572SOL    HW110744   2.609   3.453   2.539
 3572SOL    HW210745   2.595   3.427   2.700
 3573SOL     OW10746   1.009   2.274   3.876
 3573SOL    HW110747   1.106   2.256   3.888
 3573SOL    HW210748   0.997   2.361   3.828
 3574SOL     OW10749   2.852   1.796   1.879
 3574SOL    HW110750   2.753   1.795   1.894
 3574SOL    HW210751   2.881   1.890   1.861
 3575SOL     OW10752   2.848   3.022   0.814
 3575SOL    HW110753   2.785   3.100   0.817
 3575SOL    HW210754   2.835   2.971   0.729
 3576SOL     OW10755   0.200   4.097   4.887
 3576SOL    HW110756   0.171   4.190   4.910
 3576SOL    HW210757   0.124   4.049   4.843
 3577SOL     OW10758   3.918   1.641   2.460
 3577SOL    HW110759   3.921   1.543   2.480
 3577SOL    HW210760   3.918   1.654   2.361
 3578SOL     OW10761   3.404   3.070   1.296
 3578SOL    HW110762   3.324   3.011   1.286
 3578SOL    HW210763   3.388   3.157   1.249
 3579SOL     OW10764   3.982   4.868   3.248
 3579SOL    HW110765   3.924   4.813   3.307
 3579SOL    HW210766   4.072   4.880   3.290
 3580SOL     OW10767   4.471   0.333   2.172
 3580SOL    HW110768   4.398   0.279   2.129
 3580SOL    HW210769   4.463   0.429   2.145
 3581SOL     OW10770   1.527   3.752   1.714
 3581SOL    HW110771   1.584   3.813   1.659
 3581SOL    HW210772   1.431   3.768   1.693
 3582SOL     OW10773   2.754   2.913   0.565
 3582SOL    HW110774   2.720   2.980   0.500
 3582SOL    HW210775   2.829   2.861   0.524
 3583SOL     OW10776   0.636   2.940   1.329
 3583SOL    HW110777   0.566   2.922   1.261
 3583SOL    HW210778   0.687   2.856   1.348
 3584SOL     OW10779   2.606   2.515   3.672
 3584SOL    HW110780   2.543   2.568   3.729
 3584SOL    HW210781   2.611   2.556   3.581
 3585SOL     OW10782   4.634   4.392   1.544
 3585SOL    HW110783   4.678   4.378   1.633
 3585SOL    HW210784   4.656   4.317   1.483
 3586SOL     OW10785   2.400   0.683   4.720
 3586SOL    HW110786   2.358   0.650   4.634
 3586SOL    HW210787   2.392   0.611   4.789
 3587SOL     OW10788   3.961   2.758   3.784
 3587SOL    HW110789   4.036   2.691   3.792
 3587SOL    HW210790   3.985   2.841   3.834
 3588SOL     OW10791   2.388   1.644   3.370
 3588SOL    HW110792   2.340   1.584   3.433
 3588SOL    HW210793   2.468   1.683   3.417
 3589SOL     OW10794   4.907   2.266   1.712
 3589SOL    HW110795   4.923   2.343   1.650
 3589SOL    HW210796   4.934   2.180   1.667
 3590SOL     OW10797   3.633   2.238   3.222
 3590SOL    HW110798   3.646   2.147   3.183
 3590SOL    HW210799   3.719   2.270   3.263
 3591SOL     OW10800   1.773   2.087   0.116
 3591SOL    HW110801   1.822   2.094   0.203
 3591SOL    HW210802   1.834   2.050   0.046
 3592SOL     OW10803   0.527   4.369   0.546
 3592SOL    HW110804   0.618   4.412   0.551
 3592SOL    HW210805   0.457   4.440   0.535
 3593SOL     OW10806   3.034   0.539   4.948
 3593SOL    HW110807   3.128   0.565   4.971
 3593SOL    HW210808   3.010   0.455   4.995
 3594SOL     OW10809   1.903   0.552   4.974
 3594SOL    HW110810   1.990   0.509   4.953
 3594SOL    HW210811   1.915   0.619   0.012
 3595SOL     OW10812   4.520   3.339   3.839
 3595SOL    HW110813   4.598   3.297   3.793
 3595SOL    HW210814   4.540   3.436   3.856
 3596SOL     OW10815   0.399   3.677   3.599
 3596SOL    HW110816   0.487   3.697   3.556
 3596SOL    HW210817   0.401   3.586   3.639
 3597SOL     OW10818   4.889   2.624   2.806
 3597SOL    HW110819   4.790   2.639   2.801
 3597SOL    HW210820   4.907   2.547   2.868
 3598SOL     OW10821   2.472   0.186   3.153
 3598SOL    HW110822   2.502   0.277   3.183
 3598SOL    HW210823   2.443   0.132   3.232
 3599SOL     OW10824   4.880   4.162   0.442
 3599SOL    HW110825   4.808   4.113   0.394
 3599SOL    HW210826   4.909   4.241   0.388
 3600SOL     OW10827   1.478   4.069   2.488
 3600SOL    HW110828   1.551   4.005   2.466
 3600SOL    HW210829   1.392   4.039   2.446
 3601SOL     OW10830   0.773   3.931   3.032
 3601SOL    HW110831   0.826   3.860   2.986
 3601SOL    HW210832   0.751   3.901   3.125
 3602SOL     OW10833   1.331   1.247   2.220
 3602SOL    HW110834   1.319   1.321   2.285
 3602SOL    HW210835   1.405   1.187   2.251
 3603SOL     OW10836   2.061   2.081   2.123
 3603SOL    HW110837   2.104   2.084   2.213
 3603SOL    HW210838   2.132   2.079   2.053
 3604SOL     OW10839   1.307   0.048   4.340
 3604SOL    HW110840   1.252   0.004   4.268
 3604SOL    HW210841   1.400   0.011   4.339
 3605SOL     OW10842   0.952   3.251   4.145
 3605SOL    HW110843   0.936   3.294   4.234
 3605SOL    HW210844   0.945   3.321   4.073
 3606SOL     OW10845   2.211   4.020   2.143
 3606SOL    HW110846   2.196   3.934   2.193
 3606SOL    HW210847   2.243   3.999   2.051
 3607SOL     OW10848   4.575   3.620   3.881
 3607SOL    HW110849   4.567   3.665   3.970
 3607SOL    HW210850   4.489   3.628   3.831
 3608SOL     OW10851   0.507   1.335   2.183
 3608SOL    HW110852   0.570   1.395   2.134
 3608SOL    HW210853   0.514   1.351   2.281
 3609SOL     OW10854   1.716   3.234   3.183
 3609SOL    HW110855   1.637   3.249   3.243
 3609SOL    HW210856   1.698   3.156   3.123
 3610SOL     OW10857   3.914   2.164   0.959
 3610SOL    HW110858   3.890   2.255   0.991
 3610SOL    HW210859   3.839   2.125   0.907
 3611SOL     OW10860   0.548   3.510   2.654
 3611SOL    HW110861   0.524   3.603   2.627
 3611SOL    HW210862   0.464   3.458   2.674
 3612SOL     OW10863   4.104   0.572   2.112
 3612SOL    HW110864   4.066   0.583   2.020
 3612SOL    HW210865   4.202   0.554   2.105
 3613SOL     OW10866   0.969   2.821   1.473
 3613SOL    HW110867   0.952   2.890   1.543
 3613SOL    HW210868   0.943   2.731   1.508
 3614SOL     OW10869   4.982   3.359   2.741
 3614SOL    HW110870   4.947   3.308   2.662
 3614SOL    HW210871   5.003   3.453   2.714
 3615SOL     OW10872   0.914   0.041   0.979
 3615SOL    HW110873   0.980   5.019   1.028
 3615SOL    HW210874   0.918   0.135   1.015
 3616SOL     OW10875   3.818   1.926   3.100
 3616SOL    HW110876   3.833   1.869   3.181
 3616SOL    HW210877   3.767   1.873   3.032
 3617SOL     OW10878   2.741   1.108   3.186
 3617SOL    HW110879   2.730   1.143   3.093
 3617SOL    HW210880   2.818   1.044   3.189
 3618SOL     OW10881   3.871   4.297   1.871
 3618SOL    HW110882   3.833   4.230   1.808
 3618SOL    HW210883   3.846   4.272   1.965
 3619SOL     OW10884   4.722   1.200   2.455
 3619SOL    HW110885   4.797   1.146   2.417
 3619SOL    HW210886   4.637   1.148   2.447
 3620SOL     OW10887   1.571   3.214   1.331
 3620SOL    HW110888   1.539   3.306   1.351
 3620SOL    HW210889   1.653   3.194   1.384
 3621SOL     OW10890   3.224   4.518   1.614
 3621SOL    HW110891   3.134   4.535   1.574
 3621SOL    HW210892   3.279   4.601   1.608
 3622SOL     OW10893   3.951   1.020   2.211
 3622SOL    HW110894   3.896   1.102   2.195
 3622SOL    HW210895   3.951   0.963   2.128
 3623SOL     OW10896   3.222   1.133   3.317
 3623SOL    HW110897   3.261   1.041   3.327
 3623SOL    HW210898   3.178   1.160   3.402
 3624SOL     OW10899   1.263   0.381   4.886
 3624SOL    HW110900   1.206   0.449   4.841
 3624SOL    HW210901   1.208   0.328   4.951
 3625SOL     OW10902   3.300   3.373   2.148
 3625SOL    HW110903   3.323   3.278   2.128
 3625SOL    HW210904   3.241   3.377   2.229
 3626SOL     OW10905   1.153   1.769   0.880
 3626SOL    HW110906   1.205   1.811   0.954
 3626SOL    HW210907   1.158   1.669   0.888
 3627SOL     OW10908   2.994   1.590   4.849
 3627SOL    HW110909   3.047   1.671   4.874
 3627SOL    HW210910   2.994   1.580   4.749
 3628SOL     OW10911   1.777   1.243   1.717
 3628SOL    HW110912   1.735   1.166   1.669
 3628SOL    HW210913   1.713   1.279   1.785
 3629SOL     OW10914   3.159   4.417   4.352
 3629SOL    HW110915   3.068   4.430   4.390
 3629SOL    HW210916   3.227   4.454   4.416
 3630SOL     OW10917   1.072   3.050   3.913
 3630SOL    HW110918   1.105   2.963   3.950
 3630SOL    HW210919   0.979   3.067   3.945
 3631SOL     OW10920   0.825   1.393   2.230
 3631SOL    HW110921   0.918   1.427   2.213
 3631SOL    HW210922   0.770   1.405   2.147
 3632SOL     OW10923   3.206   5.014   0.738
 3632SOL    HW110924   3.156   5.032   0.823
 3632SOL    HW210925   3.220   0.064   0.688
 3633SOL     OW10926   4.100   1.658   2.687
 3633SOL    HW110927   4.044   1.647   2.605
 3633SOL    HW210928   4.045   1.700   2.760
 3634SOL     OW10929   2.439   0.565   0.010
 3634SOL    HW110930   2.404   0.472   0.023
 3634SOL    HW210931   2.362   0.629   0.007
 3635SOL     OW10932   4.512   1.161   0.061
 3635SOL    HW110933   4.499   1.161   0.160
 3635SOL    HW210934   4.466   1.082   0.021
 3636SOL     OW10935   1.701   4.265   0.604
 3636SOL    HW110936   1.662   4.175   0.584
 3636SOL    HW210937   1.796   4.267   0.572
 3637SOL     OW10938   3.875   2.471   0.714
 3637SOL    HW110939   3.775   2.467   0.714
 3637SOL    HW210940   3.909   2.448   0.805
 3638SOL     OW10941   2.786   3.367   3.364
 3638SOL    HW110942   2.766   3.269   3.362
 3638SOL    HW210943   2.885   3.381   3.358
 3639SOL     OW10944   4.708   0.393   0.848
 3639SOL    HW110945   4.717   0.330   0.771
 3639SOL    HW210946   4.634   0.362   0.908
 3640SOL     OW10947   0.074   1.246   1.530
 3640SOL    HW110948   5.014   1.243   1.499
 3640SOL    HW210949   0.090   1.332   1.580
 3641SOL     OW10950   0.553   0.677   4.935
 3641SOL    HW110951   0.478   0.630   4.889
 3641SOL    HW210952   0.520   0.764   4.971
 3642SOL     OW10953   1.270   3.234   1.439
 3642SOL    HW110954   1.261   3.151   1.383
 3642SOL    HW210955   1.234   3.216   1.530
 3643SOL     OW10956   0.060   3.880   1.735
 3643SOL    HW110957   0.027   3.865   1.828
 3643SOL    HW210958   0.024   3.809   1.674
 3644SOL     OW10959   3.775   0.907   1.214
 3644SOL    HW110960   3.755   0.821   1.167
 3644SOL    HW210961   3.691   0.944   1.254
 3645SOL     OW10962   2.991   1.302   1.954
 3645SOL    HW110963   2.972   1.377   2.017
 3645SOL    HW210964   2.982   1.335   1.860
 3646SOL     OW10965   3.463   2.454   4.552
 3646SOL    HW110966   3.366   2.475   4.558
 3646SOL    HW210967   3.508   2.480   4.637
 3647SOL     OW10968   4.287   4.400   3.999
 3647SOL    HW110969   4.368   4.343   3.987
 3647SOL    HW210970   4.303   4.465   4.074
 3648SOL     OW10971   1.600   2.855   0.255
 3648SOL    HW110972   1.677   2.884   0.311
 3648SOL    HW210973   1.602   2.903   0.167
 3649SOL     OW10974   2.644   2.326   1.431
 3649SOL    HW110975   2.594   2.275   1.360
 3649SOL    HW210976   2.721   2.271   1.464
 3650SOL     OW10977   0.364   1.679   3.161
 3650SOL    HW110978   0.324   1.681   3.253
 3650SOL    HW210979   0.315   1.611   3.105
 3651SOL     OW10980   4.885   0.730   2.007
 3651SOL    HW110981   4.858   0.644   2.049
 3651SOL    HW210982   4.918   0.714   1.914
 3652SOL     OW10983   3.888   0.230   3.416
 3652SOL    HW110984   3.844   0.162   3.358
 3652SOL    HW210985   3.969   0.191   3.459
 3653SOL     OW10986   0.111   2.459   3.976
 3653SOL    HW110987   0.056   2.409   3.909
 3653SOL    HW210988   0.051   2.511   4.036
 3654SOL     OW10989   0.273   3.815   4.675
 3654SOL    HW110990   0.242   3.791   4.767
 3654SOL    HW210991   0.204   3.873   4.631
 3655SOL     OW10992   3.237   3.133   3.694
 3655SOL    HW110993   3.285   3.203   3.748
 3655SOL    HW210994   3.217   3.054   3.752
 3656SOL     OW10995   1.537   4.108   3.533
 3656SOL    HW110996   1.626   4.064   3.544
 3656SOL    HW210997   1.489   4.066   3.456
 3657SOL     OW10998   2.143   4.948   4.512
 3657SOL    HW110999   2.128   4.961   4.414
 3657SOL    HW211000   2.097   4.864   4.542
 3658SOL     OW11001   3.856   0.682   3.506
 3658SOL    HW111002   3.896   0.766   3.542
 3658SOL    HW211003   3.896   0.661   3.417
 3659SOL     OW11004   0.080   4.390   3.865
 3659SOL    HW111005   0.169   4.369   3.826
 3659SOL    HW211006   0.062   4.329   3.943
 3660SOL     OW11007   0.227   3.877   1.343
 3660SOL    HW111008   0.287   3.821   1.400
 3660SOL    HW211009   0.273   3.897   1.256
 3661SOL     OW11010   1.751   1.771   4.457
 3661SOL    HW111011   1.697   1.749   4.376
 3661SOL    HW211012   1.703   1.740   4.539
 3662SOL     OW11013   2.717   3.100   3.324
 3662SOL    HW111014   2.620   3.097   3.300
 3662SOL    HW211015   2.732   3.048   3.408
 3663SOL     OW11016   3.612   1.881   0.776
 3663SOL    HW111017   3.629   1.792   0.736
 3663SOL    HW211018   3.671   1.949   0.733
 3664SOL     OW11019   4.165   3.355   4.642
 3664SOL    HW111020   4.128   3.321   4.729
 3664SOL    HW211021   4.126   3.444   4.622
 3665SOL     OW11022   0.195   1.040   0.610
 3665SOL    HW111023   0.202   1.137   0.587
 3665SOL    HW211024   0.099   1.017   0.625
 3666SOL     OW11025   3.812   0.484   3.707
 3666SOL    HW111026   3.853   0.451   3.792
 3666SOL    HW211027   3.873   0.551   3.665
 3667SOL     OW11028   1.087   3.597   1.602
 3667SOL    HW111029   1.146   3.646   1.538
 3667SOL    HW211030   1.142   3.548   1.668
 3668SOL     OW11031   2.907   2.590   3.978
 3668SOL    HW111032   2.911   2.647   4.061
 3668SOL    HW211033   2.821   2.538   3.977
 3669SOL     OW11034   3.321   0.891   3.362
 3669SOL    HW111035   3.364   0.830   3.295
 3669SOL    HW211036   3.330   0.852   3.453
 3670SOL     OW11037   4.122   0.185   0.731
 3670SOL    HW111038   4.111   0.093   0.693
 3670SOL    HW211039   4.061   0.197   0.809
 3671SOL     OW11040   4.411   4.120   2.004
 3671SOL    HW111041   4.355   4.170   2.069
 3671SOL    HW211042   4.487   4.179   1.973
 3672SOL     OW11043   0.356   2.137   4.084
 3672SOL    HW111044   0.444   2.183   4.095
 3672SOL    HW211045   0.314   2.164   3.998
 3673SOL     OW11046   0.005   0.508   1.445
 3673SOL    HW111047   0.038   0.600   1.426
 3673SOL    HW211048   0.057   0.441   1.392
 3674SOL     OW11049   0.411   2.854   1.160
 3674SOL    HW111050   0.453   2.765   1.142
 3674SOL    HW211051   0.351   2.847   1.239
 3675SOL     OW11052   3.999   2.408   3.621
 3675SOL    HW111053   3.992   2.508   3.627
 3675SOL    HW211054   3.973   2.368   3.709
 3676SOL     OW11055   1.066   5.013   3.292
 3676SOL    HW111056   1.019   0.014   3.372
 3676SOL    HW211057   1.070   0.048   3.221
 3677SOL     OW11058   0.124   4.377   2.465
 3677SOL    HW111059   0.165   4.461   2.431
 3677SOL    HW211060   0.187   4.301   2.452
 3678SOL     OW11061   0.500   0.431   0.663
 3678SOL    HW111062   0.402   0.416   0.651
 3678SOL    HW211063   0.525   0.411   0.758
 3679SOL     OW11064   4.192   2.947   2.368
 3679SOL    HW111065   4.232   2.941   2.460
 3679SOL    HW211066   4.198   3.041   2.335
 3680SOL     OW11067   4.043   1.862   0.193
 3680SOL    HW111068   4.031   1.872   0.292
 3680SOL    HW211069   3.979   1.793   0.159
 3681SOL     OW11070   0.917   3.521   1.394
 3681SOL    HW111071   0.845   3.589   1.382
 3681SOL    HW211072   0.963   3.536   1.481
 3682SOL     OW11073   0.095   4.216   4.158
 3682SOL    HW111074   0.077   4.155   4.081
 3682SOL    HW211075   0.129   4.162   4.235
 3683SOL     OW11076   3.148   3.506   1.359
 3683SOL    HW111077   3.101   3.440   1.418
 3683SOL    HW211078   3.081   3.559   1.308
 3684SOL     OW11079   3.871   0.318   1.205
 3684SOL    HW111080   3.868   0.229   1.251
 3684SOL    HW211081   3.808   0.317   1.127
 3685SOL     OW11082   2.665   1.066   3.709
 3685SOL    HW111083   2.595   1.071   3.781
 3685SOL    HW211084   2.662   0.975   3.666
 3686SOL     OW11085   4.883   1.416   3.270
 3686SOL    HW111086   4.809   1.381   3.214
 3686SOL    HW211087   4.880   1.516   3.272
 3687SOL     OW11088   0.644   3.235   4.110
 3687SOL    HW111089   0.667   3.316   4.056
 3687SOL    HW211090   0.700   3.232   4.193
 3688SOL     OW11091   0.579   0.576   4.558
 3688SOL    HW111092   0.570   0.502   4.625
 3688SOL    HW211093   0.561   0.540   4.466
 3689SOL     OW11094   0.622   1.198   4.879
 3689SOL    HW111095   0.527   1.230   4.872
 3689SOL    HW211096   0.657   1.176   4.788
 3690SOL     OW11097   1.806   2.631   0.373
 3690SOL    HW111098   1.792   2.548   0.426
 3690SOL    HW211099   1.734   2.697   0.394
 3691SOL     OW11100   0.680   0.012   0.350
 3691SOL    HW111101   0.755   0.030   0.413
 3691SOL    HW211102   0.609   0.081   0.361
 3692SOL     OW11103   3.108   3.283   0.607
 3692SOL    HW111104   3.039   3.354   0.594
 3692SOL    HW211105   3.107   3.254   0.703
 3693SOL     OW11106   4.585   1.324   4.884
 3693SOL    HW111107   4.572   1.420   4.909
 3693SOL    HW211108   4.550   1.266   4.958
 3694SOL     OW11109   4.674   3.683   0.108
 3694SOL    HW111110   4.618   3.755   0.146
 3694SOL    HW211111   4.757   3.722   0.068
 3695SOL     OW11112   1.097   2.856   1.861
 3695SOL    HW111113   1.125   2.762   1.845
 3695SOL    HW211114   1.083   2.903   1.774
 3696SOL     OW11115   0.686   1.562   0.302
 3696SOL    HW111116   0.679   1.502   0.222
 3696SOL    HW211117   0.769   1.539   0.353
 3697SOL     OW11118   1.105   4.709   0.735
 3697SOL    HW111119   1.035   4.777   0.713
 3697SOL    HW211120   1.115   4.646   0.658
 3698SOL     OW11121   1.728   0.986   0.183
 3698SOL    HW111122   1.641   1.034   0.190
 3698SOL    HW211123   1.801   1.052   0.165
 3699SOL     OW11124   0.319   2.971   4.629
 3699SOL    HW111125   0.251   2.963   4.556
 3699SOL    HW211126   0.406   3.003   4.590
 3700SOL     OW11127   1.985   1.019   0.394
 3700SOL    HW111128   1.981   1.119   0.398
 3700SOL    HW211129   2.050   0.986   0.462
 3701SOL     OW11130   4.996   1.130   0.040
 3701SOL    HW111131   4.975   1.088   0.129
 3701SOL    HW211132   4.912   1.133   5.020
 3702SOL     OW11133   0.772   0.486   2.636
 3702SOL    HW111134   0.796   0.487   2.733
 3702SOL    HW211135   0.727   0.400   2.614
 3703SOL     OW11136   1.558   2.996   1.177
 3703SOL    HW111137   1.543   3.080   1.230
 3703SOL    HW211138   1.482   2.933   1.191
 3704SOL     OW11139   3.308   2.134   1.587
 3704SOL    HW111140   3.372   2.071   1.543
 3704SOL    HW211141   3.256   2.183   1.516
 3705SOL     OW11142   0.469   1.976   0.265
 3705SOL    HW111143   0.517   1.905   0.212
 3705SOL    HW211144   0.404   1.933   0.327
 3706SOL     OW11145   2.083   1.424   2.582
 3706SOL    HW111146   1.997   1.448   2.627
 3706SOL    HW211147   2.112   1.333   2.613
 3707SOL     OW11148   0.962   3.880   3.409
 3707SOL    HW111149   0.935   3.809   3.474
 3707SOL    HW211150   0.970   3.840   3.317
 3708SOL     OW11151   4.271   4.301   0.770
 3708SOL    HW111152   4.366   4.333   0.777
 3708SOL    HW211153   4.238   4.315   0.676
 3709SOL     OW11154   4.190   0.514   2.949
 3709SOL    HW111155   4.187   0.475   2.856
 3709SOL    HW211156   4.265   0.472   3.000
 3710SOL     OW11157   4.973   1.367   3.524
 3710SOL    HW111158   4.975   1.449   3.581
 3710SOL    HW211159   4.931   1.389   3.436
 3711SOL     OW11160   0.428   4.493   4.849
 3711SOL    HW111161   0.522   4.469   4.872
 3711SOL    HW211162   0.387   4.542   4.926
 3712SOL     OW11163   0.270   0.719   3.016
 3712SOL    HW111164   0.186   0.696   2.967
 3712SOL    HW211165   0.346   0.724   2.952
 3713SOL     OW11166   4.978   4.213   1.516
 3713SOL    HW111167   5.028   4.198   1.430
 3713SOL    HW211168   4.906   4.144   1.525
 3714SOL     OW11169   4.476   0.475   1.030
 3714SOL    HW111170   4.478   0.486   1.130
 3714SOL    HW211171   4.428   0.390   1.007
 3715SOL     OW11172   4.080   1.764   3.027
 3715SOL    HW111173   3.987   1.728   3.031
 3715SOL    HW211174   4.113   1.781   3.120
 3716SOL     OW11175   2.519   1.153   2.069
 3716SOL    HW111176   2.552   1.246   2.088
 3716SOL    HW211177   2.592   1.088   2.088
 3717SOL     OW11178   4.362   4.982   0.065
 3717SOL    HW111179   4.281   0.005   0.070
 3717SOL    HW211180   4.380   4.941   0.155
 3718SOL     OW11181   1.668   0.946   2.825
 3718SOL    HW111182   1.658   0.952   2.726
 3718SOL    HW211183   1.586   0.906   2.865
 3719SOL     OW11184   3.719   3.174   3.556
 3719SOL    HW111185   3.733   3.082   3.518
 3719SOL    HW211186   3.758   3.242   3.493
 3720SOL     OW11187   0.218   1.785   0.915
 3720SOL    HW111188   0.239   1.883   0.909
 3720SOL    HW211189   0.153   1.770   0.990
 3721SOL     OW11190   0.458   2.500   0.652
 3721SOL    HW111191   0.373   2.508   0.705
 3721SOL    HW211192   0.452   2.558   0.571
 3722SOL     OW11193   4.111   4.493   4.861
 3722SOL    HW111194   4.118   4.395   4.880
 3722SOL    HW211195   4.028   4.511   4.808
 3723SOL     OW11196   1.995   0.119   4.670
 3723SOL    HW111197   2.084   0.089   4.704
 3723SOL    HW211198   1.989   0.100   4.572
 3724SOL     OW11199   3.582   1.022   4.668
 3724SOL    HW111200   3.610   1.113   4.699
 3724SOL    HW211201   3.645   0.954   4.704
 3725SOL     OW11202   1.659   4.503   4.848
 3725SOL    HW111203   1.676   4.415   4.894
 3725SOL    HW211204   1.742   4.558   4.850
 3726SOL     OW11205   2.927   4.454   2.541
 3726SOL    HW111206   3.018   4.445   2.500
 3726SOL    HW211207   2.934   4.451   2.640
 3727SOL     OW11208   1.012   1.466   0.997
 3727SOL    HW111209   0.976   1.379   0.965
 3727SOL    HW211210   0.947   1.539   0.975
 3728SOL     OW11211   1.914   1.747   1.512
 3728SOL    HW111212   1.858   1.704   1.441
 3728SOL    HW211213   1.867   1.742   1.600
 3729SOL     OW11214   1.397   3.779   2.814
 3729SOL    HW111215   1.406   3.680   2.812
 3729SOL    HW211216   1.319   3.808   2.759
 3730SOL     OW11217   3.803   0.873   1.750
 3730SOL    HW111218   3.733   0.932   1.790
 3730SOL    HW211219   3.787   0.863   1.652
 3731SOL     OW11220   4.423   4.469   2.898
 3731SOL    HW111221   4.504   4.420   2.929
 3731SOL    HW211222   4.342   4.428   2.940
 3732SOL     OW11223   1.187   1.256   0.718
 3732SOL    HW111224   1.286   1.265   0.714
 3732SOL    HW211225   1.160   1.220   0.808
 3733SOL     OW11226   4.185   0.171   3.073
 3733SOL    HW111227   4.202   0.100   3.142
 3733SOL    HW211228   4.110   0.229   3.105
 3734SOL     OW11229   1.908   0.834   2.321
 3734SOL    HW111230   1.986   0.802   2.376
 3734SOL    HW211231   1.841   0.761   2.312
 3735SOL     OW11232   4.689   2.528   2.591
 3735SOL    HW111233   4.741   2.614   2.583
 3735SOL    HW211234   4.712   2.468   2.514
 3736SOL     OW11235   1.454   3.562   3.606
 3736SOL    HW111236   1.498   3.601   3.687
 3736SOL    HW211237   1.356   3.555   3.621
 3737SOL     OW11238   2.336   1.060   0.056
 3737SOL    HW111239   2.359   1.012   5.006
 3737SOL    HW211240   2.419   1.074   0.110
 3738SOL     OW11241   1.635   1.740   4.710
 3738SOL    HW111242   1.630   1.668   4.779
 3738SOL    HW211243   1.557   1.732   4.648
 3739SOL     OW11244   1.944   3.243   3.320
 3739SOL    HW111245   2.013   3.280   3.258
 3739SOL    HW211246   1.855   3.241   3.274
 3740SOL     OW11247   4.482   0.143   1.091
 3740SOL    HW111248   4.426   0.201   1.149
 3740SOL    HW211249   4.439   0.134   1.001
 3741SOL     OW11250   1.319   4.760   2.287
 3741SOL    HW111251   1.312   4.675   2.338
 3741SOL    HW211252   1.240   4.769   2.226
 3742SOL     OW11253   0.760   3.479   1.702
 3742SOL    HW111254   0.799   3.402   1.652
 3742SOL    HW211255   0.661   3.470   1.707
 3743SOL     OW11256   0.039   3.328   1.313
 3743SOL    HW111257   4.994   3.388   1.318
 3743SOL    HW211258   0.034   3.273   1.230
 3744SOL     OW11259   1.303   0.149   1.828
 3744SOL    HW111260   1.345   0.175   1.915
 3744SOL    HW211261   1.229   0.212   1.806
 3745SOL     OW11262   2.990   0.667   3.877
 3745SOL    HW111263   2.912   0.730   3.882
 3745SOL    HW211264   3.009   0.631   3.968
 3746SOL     OW11265   3.116   3.193   0.858
 3746SOL    HW111266   3.047   3.121   0.866
 3746SOL    HW211267   3.207   3.154   0.870
 3747SOL     OW11268   3.384   3.501   2.477
 3747SOL    HW111269   3.335   3.519   2.562
 3747SOL    HW211270   3.481   3.482   2.497
 3748SOL     OW11271   1.087   3.846   4.382
 3748SOL    HW111272   1.071   3.755   4.343
 3748SOL    HW211273   1.000   3.881   4.418
 3749SOL     OW11274   4.482   0.709   2.980
 3749SOL    HW111275   4.496   0.633   2.917
 3749SOL    HW211276   4.457   0.673   3.070
 3750SOL     OW11277   2.500   3.144   1.941
 3750SOL    HW111278   2.461   3.224   1.988
 3750SOL    HW211279   2.527   3.169   1.849
 3751SOL     OW11280   3.206   0.946   4.404
 3751SOL    HW111281   3.211   1.002   4.321
 3751SOL    HW211282   3.157   0.996   4.475
 3752SOL     OW11283   0.806   3.747   1.533
 3752SOL    HW111284   0.826   3.697   1.617
 3752SOL    HW211285   0.885   3.803   1.507
 3753SOL     OW11286   2.060   1.426   3.145
 3753SOL    HW111287   2.068   1.476   3.059
 3753SOL    HW211288   1.972   1.379   3.147
 3754SOL     OW11289   0.861   4.627   0.456
 3754SOL    HW111290   0.900   4.629   0.364
 3754SOL    HW211291   0.822   4.717   0.478
 3755SOL     OW11292   1.161   0.723   0.858
 3755SOL    HW111293   1.239   0.687   0.807
 3755SOL    HW211294   1.160   0.684   0.950
 3756SOL     OW11295   0.960   3.762   1.795
 3756SOL    HW111296   0.977   3.679   1.848
 3756SOL    HW211297   1.002   3.754   1.705
 3757SOL     OW11298   4.872   2.879   0.487
 3757SOL    HW111299   4.929   2.902   0.566
 3757SOL    HW211300   4.861   2.960   0.430
 3758SOL     OW11301   2.070   0.635   0.661
 3758SOL    HW111302   1.989   0.641   0.603
 3758SOL    HW211303   2.133   0.709   0.638
 3759SOL     OW11304   4.432   3.190   0.814
 3759SOL    HW111305   4.410   3.281   0.849
 3759SOL    HW211306   4.508   3.152   0.867
 3760SOL     OW11307   3.298   3.080   4.579
 3760SOL    HW111308   3.355   3.158   4.602
 3760SOL    HW211309   3.320   3.048   4.486
 3761SOL     OW11310   1.601   4.180   4.543
 3761SOL    HW111311   1.566   4.252   4.603
 3761SOL    HW211312   1.645   4.222   4.463
 3762SOL     OW11313   0.199   1.866   0.150
 3762SOL    HW111314   0.180   1.810   0.231
 3762SOL    HW211315   0.189   1.810   0.068
 3763SOL     OW11316   1.769   0.808   1.112
 3763SOL    HW111317   1.864   0.779   1.098
 3763SOL    HW211318   1.769   0.905   1.140
 3764SOL     OW11319   0.427   3.981   3.212
 3764SOL    HW111320   0.507   3.949   3.263
 3764SOL    HW211321   0.458   4.035   3.134
 3765SOL     OW11322   1.869   4.940   0.888
 3765SOL    HW111323   1.950   4.917   0.943
 3765SOL    HW211324   1.814   5.008   0.937
 3766SOL     OW11325   3.885   4.282   4.452
 3766SOL    HW111326   3.921   4.196   4.487
 3766SOL    HW211327   3.823   4.265   4.376
 3767SOL     OW11328   1.790   3.102   1.471
 3767SOL    HW111329   1.846   3.180   1.445
 3767SOL    HW211330   1.817   3.022   1.416
 3768SOL     OW11331   2.824   4.828   1.179
 3768SOL    HW111332   2.922   4.849   1.174
 3768SOL    HW211333   2.773   4.913   1.197
 3769SOL     OW11334   2.320   4.236   4.644
 3769SOL    HW111335   2.419   4.235   4.628
 3769SOL    HW211336   2.293   4.322   4.685
 3770SOL     OW11337   1.780   3.106   4.131
 3770SOL    HW111338   1.697   3.122   4.077
 3770SOL    HW211339   1.836   3.189   4.131
 3771SOL     OW11340   0.059   4.870   2.401
 3771SOL    HW111341   0.024   4.833   2.315
 3771SOL    HW211342   0.102   4.958   2.384
 3772SOL     OW11343   1.389   0.733   4.039
 3772SOL    HW111344   1.463   0.687   3.992
 3772SOL    HW211345   1.351   0.673   4.110
 3773SOL     OW11346   3.962   4.465   1.389
 3773SOL    HW111347   3.900   4.404   1.341
 3773SOL    HW211348   4.010   4.414   1.461
 3774SOL     OW11349   0.431   4.853   4.239
 3774SOL    HW111350   0.526   4.884   4.239
 3774SOL    HW211351   0.427   4.760   4.276
 3775SOL     OW11352   2.354   3.798   1.970
 3775SOL    HW111353   2.308   3.725   2.022
 3775SOL    HW211354   2.453   3.792   1.985
 3776SOL     OW11355   3.658   0.129   4.043
 3776SOL    HW111356   3.603   0.083   4.112
 3776SOL    HW211357   3.753   0.132   4.072
 3777SOL     OW11358   4.149   0.154   1.032
 3777SOL    HW111359   4.095   0.082   0.989
 3777SOL    HW211360   4.135   0.151   1.131
 3778SOL     OW11361   4.440   4.925   0.327
 3778SOL    HW111362   4.530   4.883   0.337
 3778SOL    HW211363   4.448   5.024   0.341
 3779SOL     OW11364   3.150   1.805   0.238
 3779SOL    HW111365   3.179   1.880   0.298
 3779SOL    HW211366   3.055   1.818   0.211
 3780SOL     OW11367   3.238   2.504   1.837
 3780SOL    HW111368   3.255   2.419   1.788
 3780SOL    HW211369   3.277   2.497   1.929
 3781SOL     OW11370   3.664   1.744   2.593
 3781SOL    HW111371   3.614   1.821   2.554
 3781SOL    HW211372   3.733   1.713   2.527
 3782SOL     OW11373   2.562   2.044   3.564
 3782SOL    HW111374   2.580   2.011   3.472
 3782SOL    HW211375   2.625   2.001   3.628
 3783SOL     OW11376   4.050   4.018   1.890
 3783SOL    HW111377   4.011   3.963   1.964
 3783SOL    HW211378   3.977   4.057   1.835
 3784SOL     OW11379   3.739   3.628   4.338
 3784SOL    HW111380   3.808   3.605   4.269
 3784SOL    HW211381   3.650   3.592   4.308
 3785SOL     OW11382   0.096   1.866   2.543
 3785SOL    HW111383   0.089   1.913   2.631
 3785SOL    HW211384   0.007   1.870   2.496
 3786SOL     OW11385   1.244   4.915   0.857
 3786SOL    HW111386   1.262   4.993   0.796
 3786SOL    HW211387   1.195   4.844   0.807
 3787SOL     OW11388   1.035   2.124   4.123
 3787SOL    HW111389   1.009   2.182   4.046
 3787SOL    HW211390   1.049   2.180   4.204
 3788SOL     OW11391   2.238   0.886   0.878
 3788SOL    HW111392   2.157   0.934   0.845
 3788SOL    HW211393   2.232   0.875   0.977
 3789SOL     OW11394   1.088   4.249   4.116
 3789SOL    HW111395   1.140   4.335   4.123
 3789SOL    HW211396   1.136   4.187   4.055
 3790SOL     OW11397   4.904   3.202   2.529
 3790SOL    HW111398   4.985   3.178   2.475
 3790SOL    HW211399   4.823   3.201   2.470
 3791SOL     OW11400   2.536   0.020   4.446
 3791SOL    HW111401   2.463   0.035   4.380
 3791SOL    HW211402   2.609   5.002   4.403
 3792SOL     OW11403   0.681   2.280   1.166
 3792SOL    HW111404   0.692   2.338   1.086
 3792SOL    HW211405   0.759   2.219   1.174
 3793SOL     OW11406   0.415   2.973   2.101
 3793SOL    HW111407   0.360   2.985   2.019
 3793SOL    HW211408   0.476   3.051   2.112
 3794SOL     OW11409   0.025   0.131   1.398
 3794SOL    HW111410   0.085   0.095   1.328
 3794SOL    HW211411   0.066   0.212   1.439
 3795SOL     OW11412   4.654   3.808   2.596
 3795SOL    HW111413   4.679   3.727   2.649
 3795SOL    HW211414   4.715   3.883   2.619
 3796SOL     OW11415   2.471   4.495   2.076
 3796SOL    HW111416   2.469   4.396   2.068
 3796SOL    HW211417   2.473   4.536   1.985
 3797SOL     OW11418   1.289   0.095   0.685
 3797SOL    HW111419   1.347   0.177   0.690
 3797SOL    HW211420   1.226   0.103   0.609
 3798SOL     OW11421   0.942   1.614   4.335
 3798SOL    HW111422   0.856   1.665   4.338
 3798SOL    HW211423   0.965   1.592   4.240
 3799SOL     OW11424   1.780   2.948   0.445
 3799SOL    HW111425   1.768   2.928   0.542
 3799SOL    HW211426   1.872   2.986   0.430
 3800SOL     OW11427   0.958   0.311   3.331
 3800SOL    HW111428   0.967   0.234   3.394
 3800SOL    HW211429   0.880   0.367   3.359
 3801SOL     OW11430   3.878   3.259   4.717
 3801SOL    HW111431   3.874   3.358   4.710
 3801SOL    HW211432   3.934   3.223   4.642
 3802SOL     OW11433   1.057   0.706   2.038
 3802SOL    HW111434   1.137   0.661   2.000
 3802SOL    HW211435   0.977   0.684   1.982
 3803SOL     OW11436   4.763   0.970   1.382
 3803SOL    HW111437   4.713   1.052   1.357
 3803SOL    HW211438   4.858   0.976   1.350
 3804SOL     OW11439   1.642   1.417   2.133
 3804SOL    HW111440   1.611   1.352   2.203
 3804SOL    HW211441   1.628   1.377   2.042
 3805SOL     OW11442   4.768   0.294   3.857
 3805SOL    HW111443   4.755   0.205   3.815
 3805SOL    HW211444   4.728   0.365   3.799
 3806SOL     OW11445   4.364   1.750   2.001
 3806SOL    HW111446   4.324   1.842   2.000
 3806SOL    HW211447   4.308   1.690   2.059
 3807SOL     OW11448   3.517   5.019   3.220
 3807SOL    HW111449   3.501   4.944   3.156
 3807SOL    HW211450   3.504   4.987   3.313
 3808SOL     OW11451   4.166   1.516   4.989
 3808SOL    HW111452   4.237   1.495   0.021
 3808SOL    HW211453   4.208   1.553   4.906
 3809SOL     OW11454   2.578   4.266   4.583
 3809SOL    HW111455   2.603   4.219   4.499
 3809SOL    HW211456   2.652   4.255   4.650
 3810SOL     OW11457   4.132   2.641   4.461
 3810SOL    HW111458   4.128   2.541   4.452
 3810SOL    HW211459   4.139   2.665   4.558
 3811SOL     OW11460   1.614   1.547   2.743
 3811SOL    HW111461   1.632   1.530   2.646
 3811SOL    HW211462   1.603   1.646   2.758
 3812SOL     OW11463   2.946   3.312   0.068
 3812SOL    HW111464   2.936   3.230   0.125
 3812SOL    HW211465   2.919   3.393   0.120
 3813SOL     OW11466   1.848   0.851   1.727
 3813SOL    HW111467   1.805   0.941   1.730
 3813SOL    HW211468   1.788   0.787   1.681
 3814SOL     OW11469   0.841   0.478   2.121
 3814SOL    HW111470   0.836   0.469   2.221
 3814SOL    HW211471   0.930   0.446   2.089
 3815SOL     OW11472   3.504   1.479   3.747
 3815SOL    HW111473   3.406   1.465   3.763
 3815SOL    HW211474   3.527   1.574   3.765
 3816SOL     OW11475   4.754   3.897   4.970
 3816SOL    HW111476   4.718   3.956   0.007
 3816SOL    HW211477   4.680   3.875   4.905
 3817SOL     OW11478   0.315   2.083   2.604
 3817SOL    HW111479   0.225   2.115   2.572
 3817SOL    HW211480   0.360   2.155   2.656
 3818SOL     OW11481   3.174   1.635   0.594
 3818SOL    HW111482   3.192   1.675   0.684
 3818SOL    HW211483   3.211   1.542   0.590
 3819SOL     OW11484   3.308   4.440   2.026
 3819SOL    HW111485   3.219   4.399   2.010
 3819SOL    HW211486   3.378   4.389   1.977
 3820SOL     OW11487   3.522   0.700   4.196
 3820SOL    HW111488   3.566   0.789   4.196
 3820SOL    HW211489   3.556   0.646   4.273
 3821SOL     OW11490   2.581   1.932   0.950
 3821SOL    HW111491   2.606   1.877   1.030
 3821SOL    HW211492   2.658   1.988   0.922
 3822SOL     OW11493   1.624   2.084   3.473
 3822SOL    HW111494   1.537   2.126   3.448
 3822SOL    HW211495   1.615   1.984   3.467
 3823SOL     OW11496   2.479   1.098   3.927
 3823SOL    HW111497   2.509   1.037   4.000
 3823SOL    HW211498   2.398   1.148   3.956
 3824SOL     OW11499   2.015   0.544   0.913
 3824SOL    HW111500   2.044   0.614   0.979
 3824SOL    HW211501   2.050   0.566   0.822
 3825SOL     OW11502   2.338   3.225   1.582
 3825SOL    HW111503   2.299   3.150   1.529
 3825SOL    HW211504   2.298   3.227   1.674
 3826SOL     OW11505   1.346   1.055   2.999
 3826SOL    HW111506   1.312   0.965   3.026
 3826SOL    HW211507   1.269   1.115   2.977
 3827SOL     OW11508   3.383   4.012   5.005
 3827SOL    HW111509   3.407   3.923   0.009
 3827SOL    HW211510   3.467   4.065   4.988
 3828SOL     OW11511   3.279   0.490   2.244
 3828SOL    HW111512   3.186   0.464   2.219
 3828SOL    HW211513   3.331   0.408   2.268
 3829SOL     OW11514   0.231   1.086   0.103
 3829SOL    HW111515   0.147   1.133   0.075
 3829SOL    HW211516   0.208   1.008   0.161
 3830SOL     OW11517   4.823   1.192   3.833
 3830SOL    HW111518   4.817   1.288   3.806
 3830SOL    HW211519   4.840   1.187   3.932
 3831SOL     OW11520   1.704   3.216   1.058
 3831SOL    HW111521   1.671   3.136   1.108
 3831SOL    HW211522   1.670   3.300   1.102
 3832SOL     OW11523   0.529   2.103   3.830
 3832SOL    HW111524   0.443   2.129   3.785
 3832SOL    HW211525   0.521   2.010   3.866
 3833SOL     OW11526   2.674   2.935   0.074
 3833SOL    HW111527   2.649   3.010   0.012
 3833SOL    HW211528   2.705   2.856   0.021
 3834SOL     OW11529   3.936   3.793   4.491
 3834SOL    HW111530   3.951   3.718   4.557
 3834SOL    HW211531   3.972   3.766   4.402
 3835SOL     OW11532   3.980   4.083   4.251
 3835SOL    HW111533   4.063   4.034   4.278
 3835SOL    HW211534   3.904   4.018   4.245
 3836SOL     OW11535   2.538   4.562   2.338
 3836SOL    HW111536   2.620   4.616   2.353
 3836SOL    HW211537   2.534   4.531   2.243
 3837SOL     OW11538   1.750   2.782   4.984
 3837SOL    HW111539   1.749   2.869   5.032
 3837SOL    HW211540   1.781   2.797   4.889
 3838SOL     OW11541   2.299   2.112   2.295
 3838SOL    HW111542   2.305   2.026   2.345
 3838SOL    HW211543   2.347   2.104   2.208
 3839SOL     OW11544   1.023   3.890   1.459
 3839SOL    HW111545   1.117   3.861   1.439
 3839SOL    HW211546   1.025   3.977   1.507
 3840SOL     OW11547   1.032   1.414   2.618
 3840SOL    HW111548   0.937   1.405   2.589
 3840SOL    HW211549   1.076   1.324   2.616
 3841SOL     OW11550   2.083   1.503   1.642
 3841SOL    HW111551   2.053   1.567   1.572
 3841SOL    HW211552   2.065   1.409   1.612
 3842SOL     OW11553   4.507   4.740   4.483
 3842SOL    HW111554   4.546   4.702   4.566
 3842SOL    HW211555   4.427   4.796   4.505
 3843SOL     OW11556   0.622   2.627   4.109
 3843SOL    HW111557   0.526   2.654   4.099
 3843SOL    HW211558   0.628   2.527   4.109
 3844SOL     OW11559   2.781   2.103   0.920
 3844SOL    HW111560   2.794   2.172   0.991
 3844SOL    HW211561   2.814   2.138   0.833
 3845SOL     OW11562   4.605   2.802   1.799
 3845SOL    HW111563   4.509   2.811   1.825
 3845SOL    HW211564   4.658   2.769   1.877
 3846SOL     OW11565   1.342   3.424   0.760
 3846SOL    HW111566   1.391   3.338   0.747
 3846SOL    HW211567   1.366   3.464   0.848
 3847SOL     OW11568   4.004   3.112   3.680
 3847SOL    HW111569   4.094   3.154   3.668
 3847SOL    HW211570   4.010   3.039   3.747
 3848SOL     OW11571   3.170   2.901   0.550
 3848SOL    HW111572   3.241   2.898   0.479
 3848SOL    HW211573   3.090   2.951   0.515
 3849SOL     OW11574   0.014   1.699   3.058
 3849SOL    HW111575   0.007   1.599   3.053
 3849SOL    HW211576   5.011   1.740   2.975
 3850SOL     OW11577   3.331   4.218   0.192
 3850SOL    HW111578   3.319   4.157   0.115
 3850SOL    HW211579   3.272   4.298   0.181
 3851SOL     OW11580   2.337   3.836   4.124
 3851SOL    HW111581   2.250   3.856   4.080
 3851SOL    HW211582   2.357   3.906   4.192
 3852SOL     OW11583   1.492   3.233   3.341
 3852SOL    HW111584   1.500   3.241   3.440
 3852SOL    HW211585   1.401   3.198   3.318
 3853SOL     OW11586   4.068   2.739   4.114
 3853SOL    HW111587   4.155   2.720   4.159
 3853SOL    HW211588   4.071   2.829   4.072
 3854SOL     OW11589   3.708   1.229   3.625
 3854SOL    HW111590   3.615   1.245   3.594
 3854SOL    HW211591   3.713   1.241   3.724
 3855SOL     OW11592   1.640   3.273   2.707
 3855SOL    HW111593   1.667   3.212   2.633
 3855SOL    HW211594   1.706   3.348   2.714
 3856SOL     OW11595   4.127   4.693   2.687
 3856SOL    HW111596   4.099   4.782   2.650
 3856SOL    HW211597   4.125   4.697   2.787
 3857SOL     OW11598   0.922   1.882   0.232
 3857SOL    HW111599   0.890   1.966   0.276
 3857SOL    HW211600   1.022   1.880   0.232
 3858SOL     OW11601   0.308   0.153   2.225
 3858SOL    HW111602   0.223   0.205   2.237
 3858SOL    HW211603   0.383   0.202   2.270
 3859SOL     OW11604   0.093   0.902   4.714
 3859SOL    HW111605   0.008   0.863   4.750
 3859SOL    HW211606   0.093   1.001   4.727
 3860SOL     OW11607   1.097   2.289   4.345
 3860SOL    HW111608   1.178   2.348   4.341
 3860SOL    HW211609   1.021   2.340   4.386
 3861SOL     OW11610   2.799   0.959   3.970
 3861SOL    HW111611   2.838   0.986   3.882
 3861SOL    HW211612   2.861   0.987   4.043
 3862SOL     OW11613   3.344   2.816   0.343
 3862SOL    HW111614   3.432   2.811   0.392
 3862SOL    HW211615   3.358   2.859   0.254
 3863SOL     OW11616   4.194   0.771   2.813
 3863SOL    HW111617   4.212   0.688   2.865
 3863SOL    HW211618   4.274   0.831   2.816
 3864SOL     OW11619   4.895   3.724   1.611
 3864SOL    HW111620   4.814   3.739   1.668
 3864SOL    HW211621   4.906   3.626   1.595
 3865SOL     OW11622   4.168   2.431   2.036
 3865SOL    HW111623   4.182   2.460   1.941
 3865SOL    HW211624   4.158   2.511   2.094
 3866SOL     OW11625   0.111   2.001   2.288
 3866SOL    HW111626   0.164   1.973   2.368
 3866SOL    HW211627   0.173   2.024   2.213
 3867SOL     OW11628   3.606   2.305   0.725
 3867SOL    HW111629   3.555   2.320   0.641
 3867SOL    HW211630   3.570   2.364   0.798
 3868SOL     OW11631   2.534   3.387   2.098
 3868SOL    HW111632   2.630   3.416   2.101
 3868SOL    HW211633   2.519   3.317   2.168
 3869SOL     OW11634   3.356   4.043   0.429
 3869SOL    HW111635   3.265   4.082   0.445
 3869SOL    HW211636   3.395   4.084   0.347
 3870SOL     OW11637   1.996   2.898   2.062
 3870SOL    HW111638   1.962   2.898   2.156
 3870SOL    HW211639   2.027   2.990   2.038
 3871SOL     OW11640   4.030   4.442   0.109
 3871SOL    HW111641   3.984   4.529   0.090
 3871SOL    HW211642   4.129   4.454   0.099
 3872SOL     OW11643   1.848   1.176   4.699
 3872SOL    HW111644   1.804   1.202   4.785
 3872SOL    HW211645   1.864   1.078   4.699
 3873SOL     OW11646   1.313   0.378   0.626
 3873SOL    HW111647   1.224   0.342   0.595
 3873SOL    HW211648   1.365   0.409   0.547
 3874SOL     OW11649   2.346   4.406   1.634
 3874SOL    HW111650   2.350   4.469   1.711
 3874SOL    HW211651   2.430   4.413   1.581
 3875SOL     OW11652   3.773   3.755   0.454
 3875SOL    HW111653   3.695   3.781   0.398
 3875SOL    HW211654   3.854   3.805   0.423
 3876SOL     OW11655   1.096   1.546   3.550
 3876SOL    HW111656   1.136   1.636   3.568
 3876SOL    HW211657   1.045   1.516   3.631
 3877SOL     OW11658   0.066   3.612   2.740
 3877SOL    HW111659   0.086   3.702   2.702
 3877SOL    HW211660   0.045   3.621   2.838
 3878SOL     OW11661   1.058   4.061   4.823
 3878SOL    HW111662   0.974   4.079   4.875
 3878SOL    HW211663   1.041   3.989   4.756
 3879SOL     OW11664   1.112   4.522   4.780
 3879SOL    HW111665   1.119   4.433   4.733
 3879SOL    HW211666   1.096   4.506   4.877
 3880SOL     OW11667   4.575   3.398   2.677
 3880SOL    HW111668   4.482   3.391   2.712
 3880SOL    HW211669   4.573   3.422   2.580
 3881SOL     OW11670   2.397   0.399   4.784
 3881SOL    HW111671   2.386   0.435   4.692
 3881SOL    HW211672   2.425   0.303   4.779
 3882SOL     OW11673   2.442   2.281   3.970
 3882SOL    HW111674   2.434   2.322   3.879
 3882SOL    HW211675   2.354   2.241   3.996
 3883SOL     OW11676   3.944   1.117   1.101
 3883SOL    HW111677   3.869   1.092   1.040
 3883SOL    HW211678   3.932   1.071   1.189
 3884SOL     OW11679   3.302   3.599   3.606
 3884SOL    HW111680   3.234   3.528   3.622
 3884SOL    HW211681   3.259   3.678   3.564
 3885SOL     OW11682   4.179   1.876   4.552
 3885SOL    HW111683   4.149   1.784   4.577
 3885SOL    HW211684   4.103   1.940   4.559
 3886SOL     OW11685   2.755   2.899   4.821
 3886SOL    HW111686   2.725   2.937   4.733
 3886SOL    HW211687   2.701   2.818   4.842
 3887SOL     OW11688   0.818   3.025   0.988
 3887SOL    HW111689   0.729   3.068   0.977
 3887SOL    HW211690   0.811   2.945   1.048
 3888SOL     OW11691   0.876   1.448   0.017
 3888SOL    HW111692   0.777   1.449   0.032
 3888SOL    HW211693   0.895   1.417   4.959
 3889SOL     OW11694   1.161   2.001   2.459
 3889SOL    HW111695   1.187   1.915   2.502
 3889SOL    HW211696   1.244   2.053   2.437
 3890SOL     OW11697   1.481   3.030   1.548
 3890SOL    HW111698   1.489   3.125   1.578
 3890SOL    HW211699   1.543   3.013   1.472
 3891SOL     OW11700   2.606   3.494   3.520
 3891SOL    HW111701   2.681   3.450   3.470
 3891SOL    HW211702   2.643   3.563   3.583
 3892SOL     OW11703   0.262   0.157   2.785
 3892SOL    HW111704   0.301   0.169   2.694
 3892SOL    HW211705   0.246   0.247   2.826
 3893SOL     OW11706   4.701   3.381   3.595
 3893SOL    HW111707   4.649   3.297   3.581
 3893SOL    HW211708   4.750   3.376   3.682
 3894SOL     OW11709   4.754   2.741   3.059
 3894SOL    HW111710   4.784   2.804   2.988
 3894SOL    HW211711   4.654   2.743   3.064
 3895SOL     OW11712   1.075   1.811   1.534
 3895SOL    HW111713   1.072   1.759   1.448
 3895SOL    HW211714   1.004   1.778   1.596
 3896SOL     OW11715   2.967   1.118   1.030
 3896SOL    HW111716   3.023   1.200   1.028
 3896SOL    HW211717   2.983   1.069   1.116
 3897SOL     OW11718   0.481   0.181   0.192
 3897SOL    HW111719   0.443   0.268   0.222
 3897SOL    HW211720   0.447   0.159   0.101
 3898SOL     OW11721   3.505   2.374   2.840
 3898SOL    HW111722   3.545   2.298   2.789
 3898SOL    HW211723   3.421   2.405   2.793
 3899SOL     OW11724   4.388   3.701   2.571
 3899SOL    HW111725   4.312   3.730   2.629
 3899SOL    HW211726   4.472   3.747   2.599
 3900SOL     OW11727   3.055   1.611   2.848
 3900SOL    HW111728   3.117   1.687   2.867
 3900SOL    HW211729   3.044   1.556   2.930
 3901SOL     OW11730   1.773   0.355   1.354
 3901SOL    HW111731   1.824   0.359   1.440
 3901SOL    HW211732   1.795   0.434   1.297
 3902SOL     OW11733   2.201   0.744   4.519
 3902SOL    HW111734   2.129   0.748   4.449
 3902SOL    HW211735   2.254   0.829   4.516
 3903SOL     OW11736   1.226   1.096   2.026
 3903SOL    HW111737   1.266   1.159   2.093
 3903SOL    HW211738   1.146   1.051   2.066
 3904SOL     OW11739   0.685   4.257   2.489
 3904SOL    HW111740   0.586   4.247   2.499
 3904SOL    HW211741   0.715   4.215   2.403
 3905SOL     OW11742   3.693   3.181   2.298
 3905SOL    HW111743   3.779   3.139   2.326
 3905SOL    HW211744   3.644   3.212   2.379
 3906SOL     OW11745   4.697   1.488   3.629
 3906SOL    HW111746   4.769   1.493   3.698
 3906SOL    HW211747   4.700   1.399   3.584
 3907SOL     OW11748   3.403   2.688   4.023
 3907SOL    HW111749   3.438   2.781   4.034
 3907SOL    HW211750   3.331   2.687   3.953
 3908SOL     OW11751   2.440   1.302   0.340
 3908SOL    HW111752   2.468   1.384   0.390
 3908SOL    HW211753   2.363   1.324   0.280
 3909SOL     OW11754   3.599   2.113   2.742
 3909SOL    HW111755   3.635   2.040   2.800
 3909SOL    HW211756   3.642   2.110   2.652
 3910SOL     OW11757   3.394   1.420   0.573
 3910SOL    HW111758   3.445   1.499   0.607
 3910SOL    HW211759   3.410   1.342   0.634
 3911SOL     OW11760   0.273   2.054   3.135
 3911SOL    HW111761   0.282   1.984   3.065
 3911SOL    HW211762   0.184   2.044   3.180
 3912SOL     OW11763   4.888   3.426   4.566
 3912SOL    HW111764   4.884   3.401   4.663
 3912SOL    HW211765   4.799   3.409   4.523
 3913SOL     OW11766   0.097   4.756   2.652
 3913SOL    HW111767   0.060   4.791   2.566
 3913SOL    HW211768   0.196   4.766   2.652
 3914SOL     OW11769   2.004   1.996   3.824
 3914SOL    HW111770   1.954   1.948   3.751
 3914SOL    HW211771   2.097   1.960   3.830
 3915SOL     OW11772   2.453   3.657   3.835
 3915SOL    HW111773   2.499   3.658   3.924
 3915SOL    HW211774   2.519   3.632   3.764
 3916SOL     OW11775   0.026   1.560   3.718
 3916SOL    HW111776   0.002   1.511   3.802
 3916SOL    HW211777   0.124   1.554   3.704
 3917SOL     OW11778   0.748   3.187   4.357
 3917SOL    HW111779   0.737   3.089   4.339
 3917SOL    HW211780   0.830   3.201   4.413
 3918SOL     OW11781   5.021   2.567   4.950
 3918SOL    HW111782   5.007   2.471   4.924
 3918SOL    HW211783   0.055   2.572   5.023
 3919SOL     OW11784   3.595   0.061   0.534
 3919SOL    HW111785   3.628   5.014   0.580
 3919SOL    HW211786   3.502   0.045   0.501
 3920SOL     OW11787   4.031   0.558   0.177
 3920SOL    HW111788   4.018   0.484   0.110
 3920SOL    HW211789   3.954   0.621   0.171
 3921SOL     OW11790   0.795   3.927   4.402
 3921SOL    HW111791   0.750   3.860   4.343
 3921SOL    HW211792   0.824   4.006   4.348
 3922SOL     OW11793   2.195   4.866   1.533
 3922SOL    HW111794   2.201   4.917   1.447
 3922SOL    HW211795   2.206   4.768   1.515
 3923SOL     OW11796   1.859   2.133   1.924
 3923SOL    HW111797   1.774   2.160   1.968
 3923SOL    HW211798   1.928   2.113   1.995
 3924SOL     OW11799   2.808   1.727   0.909
 3924SOL    HW111800   2.763   1.764   0.827
 3924SOL    HW211801   2.739   1.702   0.976
 3925SOL     OW11802   3.575   4.772   3.109
 3925SOL    HW111803   3.632   4.766   3.190
 3925SOL    HW211804   3.504   4.701   3.113
 3926SOL     OW11805   0.485   3.568   1.906
 3926SOL    HW111806   0.484   3.583   2.004
 3926SOL    HW211807   0.536   3.641   1.861
 3927SOL     OW11808   1.681   0.429   4.128
 3927SOL    HW111809   1.695   0.513   4.181
 3927SOL    HW211810   1.609   0.444   4.061
 3928SOL     OW11811   2.993   1.293   3.898
 3928SOL    HW111812   3.070   1.236   3.870
 3928SOL    HW211813   2.976   1.281   3.996
 3929SOL     OW11814   1.120   2.062   1.934
 3929SOL    HW111815   1.180   2.141   1.922
 3929SOL    HW211816   1.168   1.992   1.987
 3930SOL     OW11817   3.375   1.500   1.404
 3930SOL    HW111818   3.366   1.593   1.439
 3930SOL    HW211819   3.391   1.437   1.480
 3931SOL     OW11820   1.574   4.464   4.590
 3931SOL    HW111821   1.622   4.533   4.537
 3931SOL    HW211822   1.599   4.472   4.686
 3932SOL     OW11823   4.961   4.188   3.742
 3932SOL    HW111824   4.879   4.211   3.690
 3932SOL    HW211825   5.004   4.271   3.775
 3933SOL     OW11826   1.233   3.239   4.616
 3933SOL    HW111827   1.282   3.154   4.597
 3933SOL    HW211828   1.173   3.225   4.695
 3934SOL     OW11829   1.205   1.135   1.348
 3934SOL    HW111830   1.142   1.132   1.425
 3934SOL    HW211831   1.298   1.118   1.381
 3935SOL     OW11832   0.704   2.226   4.799
 3935SOL    HW111833   0.633   2.237   4.730
 3935SOL    HW211834   0.670   2.167   4.872
 3936SOL     OW11835   1.110   4.408   0.689
 3936SOL    HW111836   1.193   4.428   0.740
 3936SOL    HW211837   1.128   4.338   0.621
 3937SOL     OW11838   1.944   1.875   0.619
 3937SOL    HW111839   2.027   1.931   0.630
 3937SOL    HW211840   1.959   1.786   0.662
 3938SOL     OW11841   4.604   2.133   2.152
 3938SOL    HW111842   4.547   2.063   2.194
 3938SOL    HW211843   4.657   2.092   2.077
 3939SOL     OW11844   0.597   4.381   4.315
 3939SOL    HW111845   0.667   4.409   4.381
 3939SOL    HW211846   0.641   4.346   4.233
 3940SOL     OW11847   1.146   4.462   3.839
 3940SOL    HW111848   1.119   4.519   3.916
 3940SOL    HW211849   1.235   4.421   3.857
 3941SOL     OW11850   4.075   4.687   3.049
 3941SOL    HW111851   4.060   4.748   3.127
 3941SOL    HW211852   4.173   4.678   3.032
 3942SOL     OW11853   2.225   0.220   4.508
 3942SOL    HW111854   2.226   0.126   4.476
 3942SOL    HW211855   2.151   0.231   4.576
 3943SOL     OW11856   3.929   0.770   4.289
 3943SOL    HW111857   3.910   0.742   4.195
 3943SOL    HW211858   3.843   0.790   4.336
 3944SOL     OW11859   0.992   1.274   4.448
 3944SOL    HW111860   0.930   1.353   4.453
 3944SOL    HW211861   0.980   1.227   4.361
 3945SOL     OW11862   3.652   0.659   1.119
 3945SOL    HW111863   3.626   0.603   1.040
 3945SOL    HW211864   3.629   0.611   1.203
 3946SOL     OW11865   1.381   4.874   3.844
 3946SOL    HW111866   1.431   4.959   3.828
 3946SOL    HW211867   1.361   4.830   3.756
 3947SOL     OW11868   2.231   3.368   3.392
 3947SOL    HW111869   2.316   3.417   3.409
 3947SOL    HW211870   2.224   3.346   3.294
 3948SOL     OW11871   0.979   3.883   4.036
 3948SOL    HW111872   0.954   3.894   4.132
 3948SOL    HW211873   0.968   3.970   3.988
 3949SOL     OW11874   3.595   3.863   2.710
 3949SOL    HW111875   3.610   3.843   2.614
 3949SOL    HW211876   3.497   3.877   2.726
 3950SOL     OW11877   1.683   1.034   1.582
 3950SOL    HW111878   1.718   0.968   1.515
 3950SOL    HW211879   1.583   1.038   1.575
 3951SOL     OW11880   0.636   1.391   4.420
 3951SOL    HW111881   0.652   1.478   4.374
 3951SOL    HW211882   0.539   1.367   4.414
 3952SOL     OW11883   3.953   3.559   0.527
 3952SOL    HW111884   4.037   3.582   0.477
 3952SOL    HW211885   3.890   3.637   0.522
 3953SOL     OW11886   4.401   0.166   2.854
 3953SOL    HW111887   4.329   0.146   2.921
 3953SOL    HW211888   4.460   0.239   2.890
 3954SOL     OW11889   2.116   0.807   4.797
 3954SOL    HW111890   2.166   0.782   4.715
 3954SOL    HW211891   2.152   0.756   4.876
 3955SOL     OW11892   1.508   1.141   0.101
 3955SOL    HW111893   1.588   1.149   0.041
 3955SOL    HW211894   1.429   1.184   0.057
 3956SOL     OW11895   0.423   2.238   1.845
 3956SOL    HW111896   0.503   2.243   1.786
 3956SOL    HW211897   0.399   2.142   1.859
 3957SOL     OW11898   4.971   1.152   1.254
 3957SOL    HW111899   4.995   1.187   1.163
 3957SOL    HW211900   0.019   1.142   1.309
 3958SOL     OW11901   4.438   3.609   1.671
 3958SOL    HW111902   4.457   3.562   1.758
 3958SOL    HW211903   4.346   3.584   1.640
 3959SOL     OW11904   0.618   2.002   4.951
 3959SOL    HW111905   0.694   1.958   4.904
 3959SOL    HW211906   0.536   1.944   4.944
 3960SOL     OW11907   2.896   0.308   4.984
 3960SOL    HW111908   2.891   0.217   4.943
 3960SOL    HW211909   2.807   0.353   4.978
 3961SOL     OW11910   1.625   0.311   3.112
 3961SOL    HW111911   1.550   0.247   3.093
 3961SOL    HW211912   1.674   0.331   3.028
 3962SOL     OW11913   2.673   2.990   4.574
 3962SOL    HW111914   2.657   3.084   4.544
 3962SOL    HW211915   2.669   2.928   4.496
 3963SOL     OW11916   1.605   1.925   1.335
 3963SOL    HW111917   1.657   1.930   1.249
 3963SOL    HW211918   1.666   1.945   1.412
 3964SOL     OW11919   2.921   3.092   4.914
 3964SOL    HW111920   2.876   3.153   4.978
 3964SOL    HW211921   2.858   3.019   4.887
 3965SOL     OW11922   1.047   4.793   1.718
 3965SOL    HW111923   0.990   4.874   1.707
 3965SOL    HW211924   1.024   4.748   1.805
 3966SOL     OW11925   2.114   4.789   2.639
 3966SOL    HW111926   2.200   4.841   2.639
 3966SOL    HW211927   2.082   4.778   2.733
 3967SOL     OW11928   4.732   0.801   2.884
 3967SOL    HW111929   4.646   0.755   2.905
 3967SOL    HW211930   4.727   0.897   2.914
 3968SOL     OW11931   4.701   4.626   4.305
 3968SOL    HW111932   4.631   4.647   4.373
 3968SOL    HW211933   4.663   4.567   4.234
 3969SOL     OW11934   3.799   4.416   1.016
 3969SOL    HW111935   3.757   4.450   1.099
 3969SOL    HW211936   3.805   4.490   0.949
 3970SOL     OW11937   0.064   4.589   3.339
 3970SOL    HW111938   0.045   4.661   3.272
 3970SOL    HW211939   0.092   4.631   3.425
 3971SOL     OW11940   4.967   0.857   4.236
 3971SOL    HW111941   4.878   0.840   4.194
 3971SOL    HW211942   4.989   0.954   4.228
 3972SOL     OW11943   0.429   2.380   4.958
 3972SOL    HW111944   0.528   2.381   4.970
 3972SOL    HW211945   0.391   2.299   5.003
 3973SOL     OW11946   3.655   1.036   1.921
 3973SOL    HW111947   3.648   1.121   1.868
 3973SOL    HW211948   3.696   1.056   2.010
 3974SOL     OW11949   4.869   0.884   4.802
 3974SOL    HW111950   4.850   0.969   4.852
 3974SOL    HW211951   4.833   0.891   4.709
 3975SOL     OW11952   4.595   3.251   0.039
 3975SOL    HW111953   4.516   3.274   0.096
 3975SOL    HW211954   4.675   3.237   0.097
 3976SOL     OW11955   2.631   2.937   3.553
 3976SOL    HW111956   2.646   2.902   3.646
 3976SOL    HW211957   2.593   3.030   3.558
 3977SOL     OW11958   3.938   0.976   0.061
 3977SOL    HW111959   3.898   1.050   0.115
 3977SOL    HW211960   4.012   1.012   0.004
 3978SOL     OW11961   3.339   1.215   4.639
 3978SOL    HW111962   3.325   1.143   4.707
 3978SOL    HW211963   3.411   1.277   4.670
 3979SOL     OW11964   3.459   4.875   2.366
 3979SOL    HW111965   3.498   4.893   2.276
 3979SOL    HW211966   3.374   4.822   2.356
 3980SOL     OW11967   0.900   0.855   2.403
 3980SOL    HW111968   0.805   0.885   2.394
 3980SOL    HW211969   0.924   0.853   2.500
 3981SOL     OW11970   2.661   3.149   2.811
 3981SOL    HW111971   2.588   3.173   2.748
 3981SOL    HW211972   2.720   3.080   2.769
 3982SOL     OW11973   1.707   0.927   2.529
 3982SOL    HW111974   1.753   0.962   2.447
 3982SOL    HW211975   1.767   0.863   2.576
 3983SOL     OW11976   3.066   0.519   0.813
 3983SOL    HW111977   3.004   0.507   0.735
 3983SOL    HW211978   3.133   0.590   0.793
 3984SOL     OW11979   4.457   0.794   3.310
 3984SOL    HW111980   4.383   0.853   3.280
 3984SOL    HW211981   4.498   0.831   3.393
 3985SOL     OW11982   1.395   2.943   1.850
 3985SOL    HW111983   1.336   2.960   1.929
 3985SOL    HW211984   1.339   2.907   1.775
 3986SOL     OW11985   4.808   2.722   4.982
 3986SOL    HW111986   4.889   2.663   4.981
 3986SOL    HW211987   4.833   2.814   4.950
 3987SOL     OW11988   2.488   0.753   0.522
 3987SOL    HW111989   2.501   0.818   0.447
 3987SOL    HW211990   2.545   0.672   0.507
 3988SOL     OW11991   0.971   4.888   4.330
 3988SOL    HW111992   0.963   4.972   4.276
 3988SOL    HW211993   1.018   4.908   4.416
 3989SOL     OW11994   0.315   0.304   3.429
 3989SOL    HW111995   0.251   0.325   3.503
 3989SOL    HW211996   0.330   0.387   3.374
 3990SOL     OW11997   1.574   0.759   1.635
 3990SOL    HW111998   1.493   0.717   1.595
 3990SOL    HW211999   1.558   0.773   1.733
 3991SOL     OW12000   4.578   4.684   1.707
 3991SOL    HW112001   4.654   4.682   1.642
 3991SOL    HW212002   4.583   4.603   1.766
 3992SOL     OW12003   0.776   1.863   3.291
 3992SOL    HW112004   0.681   1.894   3.278
 3992SOL    HW212005   0.807   1.817   3.208
 3993SOL     OW12006   1.514   1.725   0.145
 3993SOL    HW112007   1.566   1.644   0.119
 3993SOL    HW212008   1.548   1.760   0.233
 3994SOL     OW12009   2.519   1.891   0.470
 3994SOL    HW112010   2.495   1.962   0.537
 3994SOL    HW212011   2.563   1.934   0.391
 3995SOL     OW12012   1.442   2.057   1.122
 3995SOL    HW112013   1.374   1.994   1.158
 3995SOL    HW212014   1.527   2.008   1.101
 3996SOL     OW12015   4.231   0.045   4.071
 3996SOL    HW112016   4.248   0.086   4.161
 3996SOL    HW212017   4.138   0.067   4.041
 3997SOL     OW12018   0.569   2.659   0.967
 3997SOL    HW112019   0.526   2.640   0.879
 3997SOL    HW212020   0.660   2.697   0.952
 3998SOL     OW12021   4.342   3.391   1.172
 3998SOL    HW112022   4.286   3.463   1.215
 3998SOL    HW212023   4.347   3.408   1.073
 3999SOL     OW12024   1.963   4.725   0.079
 3999SOL    HW112025   1.996   4.671   0.156
 3999SOL    HW212026   2.023   4.804   0.065
 4000SOL     OW12027   1.004   4.234   2.549
 4000SOL    HW112028   1.011   4.334   2.547
 4000SOL    HW212029   0.922   4.208   2.600
 4001SOL     OW12030   1.826   2.849   4.197
 4001SOL    HW112031   1.809   2.945   4.176
 4001SOL    HW212032   1.911   2.842   4.250
 4002SOL     OW12033   2.769   4.664   3.213
 4002SOL    HW112034   2.858   4.666   3.259
 4002SOL    HW212035   2.763   4.584   3.154
 4003SOL     OW12036   3.757   2.927   3.044
 4003SOL    HW112037   3.683   2.991   3.065
 4003SOL    HW212038   3.723   2.834   3.052
 4004SOL     OW12039   0.768   0.198   2.485
 4004SOL    HW112040   0.789   0.107   2.521
 4004SOL    HW212041   0.701   0.189   2.412
 4005SOL     OW12042   2.003   2.493   1.663
 4005SOL    HW112043   1.979   2.403   1.629
 4005SOL    HW212044   2.072   2.485   1.735
 4006SOL     OW12045   0.701   4.714   3.370
 4006SOL    HW112046   0.736   4.686   3.280
 4006SOL    HW212047   0.610   4.676   3.383
 4007SOL     OW12048   0.383   2.961   2.433
 4007SOL    HW112049   0.387   3.053   2.393
 4007SOL    HW212050   0.416   2.894   2.367
 4008SOL     OW12051   3.918   1.714   4.879
 4008SOL    HW112052   3.974   1.702   4.961
 4008SOL    HW212053   3.864   1.631   4.862
 4009SOL     OW12054   2.372   1.687   0.633
 4009SOL    HW112055   2.282   1.723   0.661
 4009SOL    HW212056   2.410   1.746   0.562
 4010SOL     OW12057   3.961   1.144   2.789
 4010SOL    HW112058   3.943   1.076   2.861
 4010SOL    HW212059   4.046   1.122   2.743
 4011SOL     OW12060   3.376   3.094   0.800
 4011SOL    HW112061   3.402   3.188   0.778
 4011SOL    HW212062   3.384   3.038   0.718
 4012SOL     OW12063   4.102   1.154   3.558
 4012SOL    HW112064   4.051   1.238   3.576
 4012SOL    HW212065   4.200   1.171   3.568
 4013SOL     OW12066   4.890   1.686   3.274
 4013SOL    HW112067   4.953   1.704   3.198
 4013SOL    HW212068   4.821   1.759   3.278
 4014SOL     OW12069   2.339   1.431   1.166
 4014SOL    HW112070   2.425   1.482   1.165
 4014SOL    HW212071   2.351   1.346   1.218
 4015SOL     OW12072   2.837   4.138   1.734
 4015SOL    HW112073   2.873   4.193   1.810
 4015SOL    HW212074   2.912   4.085   1.694
 4016SOL     OW12075   1.456   1.282   1.043
 4016SOL    HW112076   1.508   1.199   1.061
 4016SOL    HW212077   1.358   1.263   1.050
 4017SOL     OW12078   1.199   4.221   4.381
 4017SOL    HW112079   1.170   4.131   4.413
 4017SOL    HW212080   1.140   4.250   4.306
 4018SOL     OW12081   0.501   2.214   4.534
 4018SOL    HW112082   0.477   2.308   4.514
 4018SOL    HW212083   0.515   2.164   4.449
 4019SOL     OW12084   3.163   0.816   2.585
 4019SOL    HW112085   3.169   0.910   2.618
 4019SOL    HW212086   3.142   0.817   2.487
 4020SOL     OW12087   2.563   3.640   0.650
 4020SOL    HW112088   2.651   3.663   0.693
 4020SOL    HW212089   2.512   3.579   0.711
 4021SOL     OW12090   4.040   0.497   3.368
 4021SOL    HW112091   3.963   0.473   3.427
 4021SOL    HW212092   4.061   0.419   3.308
 4022SOL     OW12093   4.021   4.877   3.539
 4022SOL    HW112094   4.038   4.780   3.553
 4022SOL    HW212095   3.925   4.897   3.556
 4023SOL     OW12096   0.738   1.977   4.129
 4023SOL    HW112097   0.787   1.986   4.042
 4023SOL    HW212098   0.804   1.957   4.202
 4024SOL     OW12099   4.178   0.983   1.586
 4024SOL    HW112100   4.094   0.963   1.537
 4024SOL    HW212101   4.246   1.019   1.522
 4025SOL     OW12102   0.805   3.425   1.158
 4025SOL    HW112103   0.838   3.440   1.252
 4025SOL    HW212104   0.751   3.504   1.130
 4026SOL     OW12105   3.867   4.608   1.648
 4026SOL    HW112106   3.830   4.700   1.659
 4026SOL    HW212107   3.809   4.556   1.585
 4027SOL     OW12108   3.486   4.226   3.030
 4027SOL    HW112109   3.531   4.210   3.117
 4027SOL    HW212110   3.528   4.303   2.983
 4028SOL     OW12111   4.670   2.270   4.677
 4028SOL    HW112112   4.751   2.306   4.722
 4028SOL    HW212113   4.653   2.320   4.593
 4029SOL     OW12114   3.260   2.285   0.463
 4029SOL    HW112115   3.165   2.310   0.479
 4029SOL    HW212116   3.265   2.192   0.427
 4030SOL     OW12117   3.772   3.711   1.011
 4030SOL    HW112118   3.821   3.626   1.032
 4030SOL    HW212119   3.676   3.702   1.037
 4031SOL     OW12120   1.427   0.239   4.498
 4031SOL    HW112121   1.422   0.203   4.592
 4031SOL    HW212122   1.364   0.189   4.440
 4032SOL     OW12123   3.137   0.749   3.137
 4032SOL    HW112124   3.199   0.693   3.192
 4032SOL    HW212125   3.117   0.834   3.185
 4033SOL     OW12126   1.786   3.473   3.043
 4033SOL    HW112127   1.771   3.397   3.106
 4033SOL    HW212128   1.873   3.459   2.996
 4034SOL     OW12129   3.144   1.270   0.028
 4034SOL    HW112130   3.141   1.170   0.019
 4034SOL    HW212131   3.212   1.306   4.999
 4035SOL     OW12132   1.717   2.015   3.838
 4035SOL    HW112133   1.748   2.110   3.844
 4035SOL    HW212134   1.747   1.975   3.751
 4036SOL     OW12135   2.787   3.841   3.283
 4036SOL    HW112136   2.688   3.827   3.278
 4036SOL    HW212137   2.833   3.764   3.237
 4037SOL     OW12138   1.129   1.806   3.649
 4037SOL    HW112139   1.031   1.820   3.639
 4037SOL    HW212140   1.160   1.849   3.734
 4038SOL     OW12141   3.983   1.138   1.884
 4038SOL    HW112142   3.989   1.041   1.858
 4038SOL    HW212143   3.891   1.172   1.865
 4039SOL     OW12144   4.069   4.426   0.909
 4039SOL    HW112145   4.137   4.363   0.872
 4039SOL    HW212146   3.995   4.374   0.952
 4040SOL     OW12147   4.224   3.090   4.183
 4040SOL    HW112148   4.247   3.013   4.244
 4040SOL    HW212149   4.303   3.110   4.125
 4041SOL     OW12150   0.693   1.599   3.350
 4041SOL    HW112151   0.786   1.628   3.329
 4041SOL    HW212152   0.635   1.679   3.364
 4042SOL     OW12153   2.078   1.410   4.127
 4042SOL    HW112154   2.087   1.498   4.173
 4042SOL    HW212155   1.982   1.392   4.106
 4043SOL     OW12156   0.775   0.655   4.305
 4043SOL    HW112157   0.857   0.703   4.273
 4043SOL    HW212158   0.733   0.605   4.229
 4044SOL     OW12159   3.292   0.153   3.122
 4044SOL    HW112160   3.347   0.098   3.185
 4044SOL    HW212161   3.351   0.190   3.051
 4045SOL     OW12162   2.890   0.445   4.712
 4045SOL    HW112163   2.908   0.450   4.810
 4045SOL    HW212164   2.840   0.361   4.692
 4046SOL     OW12165   4.623   3.458   4.874
 4046SOL    HW112166   4.648   3.548   4.911
 4046SOL    HW212167   4.615   3.393   4.950
 4047SOL     OW12168   0.322   3.928   0.973
 4047SOL    HW112169   0.376   3.995   0.922
 4047SOL    HW212170   0.244   3.973   1.015
 4048SOL     OW12171   2.485   4.689   1.217
 4048SOL    HW112172   2.495   4.685   1.117
 4048SOL    HW212173   2.416   4.757   1.241
 4049SOL     OW12174   5.008   0.801   2.980
 4049SOL    HW112175   5.012   0.753   3.068
 4049SOL    HW212176   4.912   0.815   2.954
 4050SOL     OW12177   4.323   4.151   3.440
 4050SOL    HW112178   4.350   4.077   3.379
 4050SOL    HW212179   4.249   4.204   3.398
 4051SOL     OW12180   1.156   3.422   1.244
 4051SOL    HW112181   1.226   3.355   1.269
 4051SOL    HW212182   1.072   3.402   1.295
 4052SOL     OW12183   2.343   2.939   2.752
 4052SOL    HW112184   2.346   2.951   2.653
 4052SOL    HW212185   2.322   3.026   2.796
 4053SOL     OW12186   1.268   2.662   0.478
 4053SOL    HW112187   1.196   2.613   0.430
 4053SOL    HW212188   1.242   2.758   0.491
 4054SOL     OW12189   2.002   0.998   0.785
 4054SOL    HW112190   1.945   0.916   0.785
 4054SOL    HW212191   1.947   1.076   0.754
 4055SOL     OW12192   2.627   1.728   3.469
 4055SOL    HW112193   2.602   1.721   3.566
 4055SOL    HW212194   2.727   1.737   3.462
 4056SOL     OW12195   3.823   2.340   3.417
 4056SOL    HW112196   3.892   2.353   3.488
 4056SOL    HW212197   3.745   2.290   3.456
 4057SOL     OW12198   0.885   2.052   2.075
 4057SOL    HW112199   0.956   2.059   2.006
 4057SOL    HW212200   0.795   2.049   2.030
 4058SOL     OW12201   3.585   2.580   3.860
 4058SOL    HW112202   3.547   2.614   3.774
 4058SOL    HW212203   3.523   2.602   3.935
 4059SOL     OW12204   2.475   2.056   0.195
 4059SOL    HW112205   2.473   2.063   0.095
 4059SOL    HW212206   2.408   1.988   0.225
 4060SOL     OW12207   2.400   1.892   2.767
 4060SOL    HW112208   2.360   1.973   2.810
 4060SOL    HW212209   2.461   1.847   2.831
 4061SOL     OW12210   1.713   2.150   0.698
 4061SOL    HW112211   1.777   2.096   0.753
 4061SOL    HW212212   1.623   2.149   0.740
 4062SOL     OW12213   1.965   1.273   1.525
 4062SOL    HW112214   1.896   1.264   1.598
 4062SOL    HW212215   1.980   1.184   1.483
 4063SOL     OW12216   2.239   3.381   4.314
 4063SOL    HW112217   2.184   3.457   4.282
 4063SOL    HW212218   2.272   3.401   4.406
 4064SOL     OW12219   1.413   0.760   2.214
 4064SOL    HW112220   1.381   0.678   2.166
 4064SOL    HW212221   1.334   0.810   2.249
 4065SOL     OW12222   0.974   3.328   4.762
 4065SOL    HW112223   0.891   3.356   4.811
 4065SOL    HW212224   1.006   3.404   4.706
 4066SOL     OW12225   4.529   0.364   4.572
 4066SOL    HW112226   4.492   0.355   4.480
 4066SOL    HW212227   4.466   0.417   4.629
 4067SOL     OW12228   0.039   2.003   4.675
 4067SOL    HW112229   5.010   1.971   4.605
 4067SOL    HW212230   5.034   1.989   4.765
 4068SOL     OW12231   3.617   3.280   0.404
 4068SOL    HW112232   3.621   3.371   0.446
 4068SOL    HW212233   3.661   3.284   0.314
 4069SOL     OW12234   1.870   4.674   4.854
 4069SOL    HW112235   1.855   4.771   4.833
 4069SOL    HW212236   1.911   4.665   4.944
 4070SOL     OW12237   4.222   3.282   3.133
 4070SOL    HW112238   4.235   3.183   3.137
 4070SOL    HW212239   4.125   3.303   3.126
 4071SOL     OW12240   0.441   3.747   1.437
 4071SOL    HW112241   0.475   3.653   1.432
 4071SOL    HW212242   0.515   3.810   1.416
 4072SOL     OW12243   0.690   1.399   1.235
 4072SOL    HW112244   0.786   1.375   1.249
 4072SOL    HW212245   0.644   1.404   1.323
 4073SOL     OW12246   2.359   3.712   4.564
 4073SOL    HW112247   2.428   3.693   4.495
 4073SOL    HW212248   2.268   3.697   4.526
 4074SOL     OW12249   2.571   3.032   1.282
 4074SOL    HW112250   2.671   3.043   1.287
 4074SOL    HW212251   2.537   3.001   1.371
 4075SOL     OW12252   1.027   0.546   0.077
 4075SOL    HW112253   0.968   0.534   0.157
 4075SOL    HW212254   0.972   0.579   5.035
 4076SOL     OW12255   3.292   3.495   3.298
 4076SOL    HW112256   3.299   3.592   3.275
 4076SOL    HW212257   3.336   3.478   3.386
 4077SOL     OW12258   0.214   1.770   1.568
 4077SOL    HW112259   0.297   1.801   1.616
 4077SOL    HW212260   0.219   1.798   1.473
 4078SOL     OW12261   2.930   4.056   3.546
 4078SOL    HW112262   2.924   4.005   3.632
 4078SOL    HW212263   2.862   4.021   3.482
 4079SOL     OW12264   2.231   4.013   2.605
 4079SOL    HW112265   2.222   4.003   2.704
 4079SOL    HW212266   2.176   4.090   2.573
 4080SOL     OW12267   4.609   4.079   0.093
 4080SOL    HW112268   4.569   4.079   0.001
 4080SOL    HW212269   4.677   4.152   0.099
 4081SOL     OW12270   1.721   2.834   1.340
 4081SOL    HW112271   1.642   2.884   1.305
 4081SOL    HW212272   1.775   2.800   1.263
 4082SOL     OW12273   4.094   1.888   0.472
 4082SOL    HW112274   4.134   1.923   0.557
 4082SOL    HW212275   3.994   1.889   0.481
 4083SOL     OW12276   2.306   1.851   2.369
 4083SOL    HW112277   2.211   1.839   2.400
 4083SOL    HW212278   2.357   1.767   2.385
 4084SOL     OW12279   4.735   3.606   2.752
 4084SOL    HW112280   4.739   3.607   2.852
 4084SOL    HW212281   4.686   3.524   2.721
 4085SOL     OW12282   2.767   3.042   3.875
 4085SOL    HW112283   2.763   2.956   3.825
 4085SOL    HW212284   2.843   3.040   3.939
 4086SOL     OW12285   4.858   0.302   3.332
 4086SOL    HW112286   4.775   0.253   3.305
 4086SOL    HW212287   4.913   0.321   3.251
 4087SOL     OW12288   4.747   4.108   4.426
 4087SOL    HW112289   4.835   4.144   4.455
 4087SOL    HW212290   4.683   4.184   4.412
 4088SOL     OW12291   2.281   4.405   1.153
 4088SOL    HW112292   2.304   4.316   1.190
 4088SOL    HW212293   2.188   4.403   1.117
 4089SOL     OW12294   0.260   2.091   0.430
 4089SOL    HW112295   0.304   2.090   0.340
 4089SOL    HW212296   0.263   2.184   0.467
 4090SOL     OW12297   4.761   1.228   0.273
 4090SOL    HW112298   4.826   1.299   0.298
 4090SOL    HW212299   4.696   1.265   0.206
 4091SOL     OW12300   0.397   3.386   4.129
 4091SOL    HW112301   0.467   3.384   4.057
 4091SOL    HW212302   0.338   3.466   4.117
 4092SOL     OW12303   2.675   0.382   4.292
 4092SOL    HW112304   2.706   0.316   4.223
 4092SOL    HW212305   2.575   0.380   4.297
 4093SOL     OW12306   3.744   4.253   2.670
 4093SOL    HW112307   3.803   4.326   2.636
 4093SOL    HW212308   3.689   4.216   2.595
 4094SOL     OW12309   2.365   3.099   3.327
 4094SOL    HW112310   2.266   3.090   3.315
 4094SOL    HW212311   2.405   3.137   3.244
 4095SOL     OW12312   2.594   0.346   1.126
 4095SOL    HW112313   2.600   0.404   1.045
 4095SOL    HW212314   2.602   0.403   1.208
 4096SOL     OW12315   0.890   4.380   1.771
 4096SOL    HW112316   0.936   4.396   1.684
 4096SOL    HW212317   0.802   4.335   1.754
 4097SOL     OW12318   2.626   0.323   0.679
 4097SOL    HW112319   2.551   0.382   0.711
 4097SOL    HW212320   2.639   0.337   0.581
 4098SOL     OW12321   4.341   2.225   3.345
 4098SOL    HW112322   4.417   2.248   3.406
 4098SOL    HW212323   4.266   2.289   3.360
 4099SOL     OW12324   4.125   3.641   0.836
 4099SOL    HW112325   4.080   3.729   0.815
 4099SOL    HW212326   4.074   3.595   0.908
 4100SOL     OW12327   1.585   3.027   4.844
 4100SOL    HW112328   1.510   2.961   4.846
 4100SOL    HW212329   1.577   3.084   4.762
 4101SOL     OW12330   2.212   0.084   4.036
 4101SOL    HW112331   2.173   0.035   3.957
 4101SOL    HW212332   2.304   0.117   4.012
 4102SOL     OW12333   4.989   0.614   2.506
 4102SOL    HW112334   0.010   0.668   2.443
 4102SOL    HW212335   4.943   0.541   2.455
 4103SOL     OW12336   3.113   1.304   4.181
 4103SOL    HW112337   3.185   1.357   4.138
 4103SOL    HW212338   3.127   1.207   4.163
 4104SOL     OW12339   3.109   4.098   4.490
 4104SOL    HW112340   3.018   4.130   4.465
 4104SOL    HW212341   3.173   4.175   4.492
 4105SOL     OW12342   1.929   0.613   1.308
 4105SOL    HW112343   1.863   0.669   1.358
 4105SOL    HW212344   1.999   0.671   1.269
 4106SOL     OW12345   0.092   4.080   0.120
 4106SOL    HW112346   0.159   4.123   0.180
 4106SOL    HW212347   0.135   4.059   0.032
 4107SOL     OW12348   0.251   3.288   3.023
 4107SOL    HW112349   0.157   3.281   2.989
 4107SOL    HW212350   0.268   3.381   3.055
 4108SOL     OW12351   0.165   4.415   3.567
 4108SOL    HW112352   0.135   4.326   3.531
 4108SOL    HW212353   0.249   4.443   3.520
 4109SOL     OW12354   3.629   4.651   4.862
 4109SOL    HW112355   3.724   4.676   4.844
 4109SOL    HW212356   3.608   4.668   4.958
 4110SOL     OW12357   4.695   2.801   2.309
 4110SOL    HW112358   4.718   2.898   2.301
 4110SOL    HW212359   4.615   2.780   2.253
 4111SOL     OW12360   3.254   0.582   3.323
 4111SOL    HW112361   3.264   0.485   3.301
 4111SOL    HW212362   3.290   0.599   3.415
 4112SOL     OW12363   2.813   1.015   5.006
 4112SOL    HW112364   2.790   0.918   5.000
 4112SOL    HW212365   2.732   1.070   4.987
 4113SOL     OW12366   2.594   0.105   1.478
 4113SOL    HW112367   2.676   0.124   1.531
 4113SOL    HW212368   2.519   0.162   1.511
 4114SOL     OW12369   4.381   1.835   4.106
 4114SOL    HW112370   4.288   1.799   4.100
 4114SOL    HW212371   4.426   1.800   4.188
 4115SOL     OW12372   0.458   1.682   0.809
 4115SOL    HW112373   0.423   1.645   0.723
 4115SOL    HW212374   0.382   1.721   0.862
 4116SOL     OW12375   3.516   3.622   4.862
 4116SOL    HW112376   3.462   3.538   4.855
 4116SOL    HW212377   3.560   3.641   4.774
 4117SOL     OW12378   3.696   3.426   1.328
 4117SOL    HW112379   3.794   3.443   1.341
 4117SOL    HW212380   3.647   3.513   1.327
 4118SOL     OW12381   4.356   1.805   0.671
 4118SOL    HW112382   4.455   1.793   0.676
 4118SOL    HW212383   4.324   1.853   0.753
 4119SOL     OW12384   4.357   3.024   0.616
 4119SOL    HW112385   4.273   2.976   0.642
 4119SOL    HW212386   4.383   3.089   0.688
 4120SOL     OW12387   0.519   0.892   3.090
 4120SOL    HW112388   0.423   0.899   3.062
 4120SOL    HW212389   0.556   0.984   3.101
 4121SOL     OW12390   4.023   1.368   1.347
 4121SOL    HW112391   4.037   1.320   1.434
 4121SOL    HW212392   4.075   1.454   1.348
 4122SOL     OW12393   2.044   4.232   1.254
 4122SOL    HW112394   2.109   4.210   1.328
 4122SOL    HW212395   1.988   4.310   1.281
 4123SOL     OW12396   2.906   2.180   4.922
 4123SOL    HW112397   2.945   2.171   4.830
 4123SOL    HW212398   2.873   2.090   4.952
 4124SOL     OW12399   4.081   0.466   4.491
 4124SOL    HW112400   4.088   0.371   4.522
 4124SOL    HW212401   4.016   0.515   4.549
 4125SOL     OW12402   2.897   4.433   4.416
 4125SOL    HW112403   2.916   4.397   4.507
 4125SOL    HW212404   2.806   4.404   4.387
 4126SOL     OW12405   3.564   0.969   1.386
 4126SOL    HW112406   3.606   1.022   1.460
 4126SOL    HW212407   3.574   0.871   1.407
 4127SOL     OW12408   4.048   1.403   1.068
 4127SOL    HW112409   4.113   1.334   1.037
 4127SOL    HW212410   4.003   1.371   1.151
 4128SOL     OW12411   0.163   2.759   2.900
 4128SOL    HW112412   0.107   2.842   2.900
 4128SOL    HW212413   0.212   2.751   2.987
 4129SOL     OW12414   1.863   4.623   1.143
 4129SOL    HW112415   1.902   4.620   1.051
 4129SOL    HW212416   1.767   4.648   1.138
 4130SOL     OW12417   4.316   1.582   4.767
 4130SOL    HW112418   4.364   1.670   4.763
 4130SOL    HW212419   4.309   1.544   4.675
 4131SOL     OW12420   0.313   0.517   4.750
 4131SOL    HW112421   0.393   0.459   4.740
 4131SOL    HW212422   0.287   0.555   4.661
 4132SOL     OW12423   2.535   0.625   3.791
 4132SOL    HW112424   2.439   0.600   3.780
 4132SOL    HW212425   2.569   0.589   3.879
 4133SOL     OW12426   2.440   4.545   4.437
 4133SOL    HW112427   2.431   4.645   4.432
 4133SOL    HW212428   2.396   4.504   4.357
 4134SOL     OW12429   2.194   1.949   0.513
 4134SOL    HW112430   2.184   2.041   0.476
 4134SOL    HW212431   2.126   1.888   0.471
 4135SOL     OW12432   1.751   2.718   0.720
 4135SOL    HW112433   1.686   2.794   0.731
 4135SOL    HW212434   1.834   2.752   0.677
 4136SOL     OW12435   1.365   4.257   3.345
 4136SOL    HW112436   1.307   4.182   3.316
 4136SOL    HW212437   1.349   4.276   3.442
 4137SOL     OW12438   3.576   2.723   1.979
 4137SOL    HW112439   3.536   2.747   1.891
 4137SOL    HW212440   3.505   2.725   2.050
 4138SOL     OW12441   4.163   4.593   1.728
 4138SOL    HW112442   4.143   4.495   1.732
 4138SOL    HW212443   4.103   4.636   1.661
 4139SOL     OW12444   2.746   0.268   4.556
 4139SOL    HW112445   2.756   0.360   4.519
 4139SOL    HW212446   2.733   0.203   4.482
 4140SOL     OW12447   2.147   4.064   3.283
 4140SOL    HW112448   2.212   4.123   3.330
 4140SOL    HW212449   2.112   3.995   3.346
 4141SOL     OW12450   2.318   4.371   4.977
 4141SOL    HW112451   2.303   4.273   4.968
 4141SOL    HW212452   2.331   4.410   4.885
 4142SOL     OW12453   1.730   1.949   1.089
 4142SOL    HW112454   1.808   1.916   1.143
 4142SOL    HW212455   1.762   2.011   1.018
 4143SOL     OW12456   1.294   4.414   2.505
 4143SOL    HW112457   1.197   4.434   2.512
 4143SOL    HW212458   1.341   4.444   2.588
 4144SOL     OW12459   2.701   4.218   0.493
 4144SOL    HW112460   2.651   4.302   0.472
 4144SOL    HW212461   2.789   4.218   0.444
 4145SOL     OW12462   0.452   2.722   4.441
 4145SOL    HW112463   0.484   2.643   4.388
 4145SOL    HW212464   0.529   2.763   4.489
 4146SOL     OW12465   2.090   4.366   4.079
 4146SOL    HW112466   2.071   4.393   3.984
 4146SOL    HW212467   2.026   4.295   4.107
 4147SOL     OW12468   0.744   5.025   2.933
 4147SOL    HW112469   0.800   0.019   3.011
 4147SOL    HW212470   0.697   0.069   2.894
 4148SOL     OW12471   3.729   0.414   3.010
 4148SOL    HW112472   3.719   0.468   2.927
 4148SOL    HW212473   3.783   0.332   2.991
 4149SOL     OW12474   3.924   3.307   1.652
 4149SOL    HW112475   3.860   3.242   1.610
 4149SOL    HW212476   4.015   3.293   1.613
 4150SOL     OW12477   2.928   4.608   0.555
 4150SOL    HW112478   2.993   4.676   0.588
 4150SOL    HW212479   2.954   4.518   0.590
 4151SOL     OW12480   1.411   1.947   1.599
 4151SOL    HW112481   1.320   1.913   1.621
 4151SOL    HW212482   1.412   2.047   1.607
 4152SOL     OW12483   0.480   2.998   3.173
 4152SOL    HW112484   0.473   2.914   3.119
 4152SOL    HW212485   0.388   3.029   3.197
 4153SOL     OW12486   0.880   0.569   2.400
 4153SOL    HW112487   0.873   0.669   2.395
 4153SOL    HW212488   0.842   0.537   2.487
 4154SOL     OW12489   2.497   0.160   4.711
 4154SOL    HW112490   2.582   0.172   4.659
 4154SOL    HW212491   2.425   0.126   4.650
 4155SOL     OW12492   1.150   4.213   3.022
 4155SOL    HW112493   1.167   4.291   2.961
 4155SOL    HW212494   1.144   4.246   3.117
 4156SOL     OW12495   1.370   4.597   3.126
 4156SOL    HW112496   1.297   4.548   3.078
 4156SOL    HW212497   1.413   4.662   3.063
 4157SOL     OW12498   5.018   3.553   4.373
 4157SOL    HW112499   4.971   3.514   4.452
 4157SOL    HW212500   4.985   3.510   4.289
 4158SOL     OW12501   1.400   0.740   1.026
 4158SOL    HW112502   1.406   0.654   0.975
 4158SOL    HW212503   1.425   0.816   0.966
 4159SOL     OW12504   4.834   0.618   3.106
 4159SOL    HW112505   4.895   0.543   3.131
 4159SOL    HW212506   4.806   0.608   3.011
 4160SOL     OW12507   2.122   2.505   1.222
 4160SOL    HW112508   2.091   2.410   1.235
 4160SOL    HW212509   2.220   2.510   1.238
 4161SOL     OW12510   1.230   0.148   3.551
 4161SOL    HW112511   1.214   0.229   3.495
 4161SOL    HW212512   1.254   0.071   3.492
 4162SOL     OW12513   2.094   0.959   0.127
 4162SOL    HW112514   2.177   1.005   0.097
 4162SOL    HW212515   2.073   0.985   0.222
 4163SOL     OW12516   1.978   3.035   0.039
 4163SOL    HW112517   2.020   2.946   0.060
 4163SOL    HW212518   1.881   3.032   0.063
 4164SOL     OW12519   4.686   1.413   2.658
 4164SOL    HW112520   4.729   1.375   2.740
 4164SOL    HW212521   4.665   1.339   2.594
 4165SOL     OW12522   4.242   3.057   0.347
 4165SOL    HW112523   4.192   3.073   0.432
 4165SOL    HW212524   4.258   2.958   0.336
 4166SOL     OW12525   0.766   1.271   3.754
 4166SOL    HW112526   0.774   1.183   3.707
 4166SOL    HW212527   0.727   1.339   3.691
 4167SOL     OW12528   1.882   4.192   2.874
 4167SOL    HW112529   1.916   4.101   2.851
 4167SOL    HW212530   1.896   4.209   2.971
 4168SOL     OW12531   5.015   0.602   2.787
 4168SOL    HW112532   5.009   0.684   2.844
 4168SOL    HW212533   4.986   0.625   2.694
 4169SOL     OW12534   1.721   3.002   2.977
 4169SOL    HW112535   1.738   3.047   2.889
 4169SOL    HW212536   1.730   2.903   2.968
 4170SOL     OW12537   0.765   1.669   2.275
 4170SOL    HW112538   0.840   1.673   2.342
 4170SOL    HW212539   0.719   1.581   2.282
 4171SOL     OW12540   2.351   2.765   2.276
 4171SOL    HW112541   2.265   2.717   2.259
 4171SOL    HW212542   2.392   2.791   2.188
 4172SOL     OW12543   2.450   4.330   2.778
 4172SOL    HW112544   2.438   4.408   2.718
 4172SOL    HW212545   2.363   4.308   2.822
 4173SOL     OW12546   3.006   3.056   2.433
 4173SOL    HW112547   2.952   3.124   2.482
 4173SOL    HW212548   3.062   3.005   2.498
 4174SOL     OW12549   4.524   0.478   1.309
 4174SOL    HW112550   4.609   0.426   1.300
 4174SOL    HW212551   4.527   0.532   1.393
 4175SOL     OW12552   0.619   4.582   0.739
 4175SOL    HW112553   0.561   4.500   0.750
 4175SOL    HW212554   0.565   4.663   0.761
 4176SOL     OW12555   2.177   1.930   1.376
 4176SOL    HW112556   2.190   1.942   1.475
 4176SOL    HW212557   2.200   1.836   1.351
 4177SOL     OW12558   0.743   0.810   1.062
 4177SOL    HW112559   0.745   0.743   1.136
 4177SOL    HW212560   0.717   0.765   0.977
 4178SOL     OW12561   0.422   0.630   0.169
 4178SOL    HW112562   0.455   0.583   0.251
 4178SOL    HW212563   0.499   0.650   0.109
 4179SOL     OW12564   1.229   4.730   4.006
 4179SOL    HW112565   1.135   4.718   3.974
 4179SOL    HW212566   1.280   4.785   3.940
 4180SOL     OW12567   1.933   3.345   3.825
 4180SOL    HW112568   1.950   3.280   3.751
 4180SOL    HW212569   2.006   3.413   3.828
 4181SOL     OW12570   3.203   0.281   0.778
 4181SOL    HW112571   3.150   0.365   0.790
 4181SOL    HW212572   3.182   0.218   0.853
 4182SOL     OW12573   1.307   1.574   0.609
 4182SOL    HW112574   1.243   1.540   0.677
 4182SOL    HW212575   1.295   1.673   0.598
 4183SOL     OW12576   3.522   0.278   0.682
 4183SOL    HW112577   3.560   0.202   0.630
 4183SOL    HW212578   3.589   0.308   0.750
 4184SOL     OW12579   2.817   4.952   3.428
 4184SOL    HW112580   2.789   0.013   3.434
 4184SOL    HW212581   2.794   4.917   3.338
 4185SOL     OW12582   0.732   2.817   1.683
 4185SOL    HW112583   0.794   2.896   1.685
 4185SOL    HW212584   0.712   2.793   1.588
 4186SOL     OW12585   4.135   0.583   2.553
 4186SOL    HW112586   4.063   0.607   2.617
 4186SOL    HW212587   4.115   0.623   2.464
 4187SOL     OW12588   3.129   1.417   1.705
 4187SOL    HW112589   3.180   1.502   1.715
 4187SOL    HW212590   3.193   1.341   1.691
 4188SOL     OW12591   3.682   2.335   4.039
 4188SOL    HW112592   3.736   2.419   4.047
 4188SOL    HW212593   3.586   2.359   4.022
 4189SOL     OW12594   2.516   3.093   4.248
 4189SOL    HW112595   2.480   3.022   4.309
 4189SOL    HW212596   2.440   3.142   4.206
 4190SOL     OW12597   2.786   4.121   2.321
 4190SOL    HW112598   2.727   4.181   2.266
 4190SOL    HW212599   2.752   4.118   2.415
 4191SOL     OW12600   0.427   3.999   0.231
 4191SOL    HW112601   0.375   3.955   0.158
 4191SOL    HW212602   0.481   3.930   0.280
 4192SOL     OW12603   1.997   2.812   0.612
 4192SOL    HW112604   2.026   2.889   0.555
 4192SOL    HW212605   2.076   2.772   0.659
 4193SOL     OW12606   0.218   0.323   1.431
 4193SOL    HW112607   0.248   0.358   1.342
 4193SOL    HW212608   0.238   0.390   1.502
 4194SOL     OW12609   1.659   2.985   4.431
 4194SOL    HW112610   1.610   2.898   4.441
 4194SOL    HW212611   1.654   3.015   4.336
 4195SOL     OW12612   1.203   3.684   1.367
 4195SOL    HW112613   1.280   3.694   1.305
 4195SOL    HW212614   1.157   3.597   1.348
 4196SOL     OW12615   0.130   1.644   1.842
 4196SOL    HW112616   0.118   1.729   1.790
 4196SOL    HW212617   0.118   1.662   1.939
 4197SOL     OW12618   0.108   2.724   4.200
 4197SOL    HW112619   0.190   2.774   4.224
 4197SOL    HW212620   0.048   2.716   4.280
 4198SOL     OW12621   0.005   3.628   0.221
 4198SOL    HW112622   5.005   3.537   0.243
 4198SOL    HW212623   0.103   3.623   0.202
 4199SOL     OW12624   1.476   4.741   1.790
 4199SOL    HW112625   1.463   4.654   1.836
 4199SOL    HW212626   1.507   4.810   1.855
 4200SOL     OW12627   1.355   1.288   4.954
 4200SOL    HW112628   1.424   1.355   4.981
 4200SOL    HW212629   1.266   1.315   4.993
 4201SOL     OW12630   1.541   1.277   1.910
 4201SOL    HW112631   1.485   1.281   1.827
 4201SOL    HW212632   1.485   1.247   1.987
 4202SOL     OW12633   1.453   0.401   1.774
 4202SOL    HW112634   1.509   0.466   1.826
 4202SOL    HW212635   1.475   0.308   1.802
 4203SOL     OW12636   0.525   3.083   4.504
 4203SOL    HW112637   0.565   3.160   4.554
 4203SOL    HW212638   0.542   3.094   4.406
 4204SOL     OW12639   4.895   2.731   1.398
 4204SOL    HW112640   4.963   2.659   1.403
 4204SOL    HW212641   4.938   2.816   1.369
 4205SOL     OW12642   1.906   4.084   4.902
 4205SOL    HW112643   1.853   4.142   4.840
 4205SOL    HW212644   1.896   4.118   4.996
 4206SOL     OW12645   4.177   4.384   2.979
 4206SOL    HW112646   4.159   4.431   3.066
 4206SOL    HW212647   4.095   4.336   2.949
 4207SOL     OW12648   2.267   4.831   3.907
 4207SOL    HW112649   2.286   4.737   3.935
 4207SOL    HW212650   2.341   4.891   3.939
 4208SOL     OW12651   2.690   2.576   4.666
 4208SOL    HW112652   2.601   2.605   4.629
 4208SOL    HW212653   2.763   2.620   4.615
 4209SOL     OW12654   0.607   0.912   4.190
 4209SOL    HW112655   0.674   0.986   4.184
 4209SOL    HW212656   0.521   0.941   4.148
 4210SOL     OW12657   4.795   4.286   0.061
 4210SOL    HW112658   4.777   4.355   5.026
 4210SOL    HW212659   4.803   4.331   0.150
 4211SOL     OW12660   4.519   4.409   0.132
 4211SOL    HW112661   4.454   4.439   0.201
 4211SOL    HW212662   4.471   4.355   0.062
 4212SOL     OW12663   3.682   4.062   0.471
 4212SOL    HW112664   3.640   4.021   0.552
 4212SOL    HW212665   3.647   4.016   0.389
 4213SOL     OW12666   4.574   2.825   0.542
 4213SOL    HW112667   4.671   2.848   0.534
 4213SOL    HW212668   4.519   2.907   0.527
 4214SOL     OW12669   3.595   1.283   4.768
 4214SOL    HW112670   3.664   1.346   4.733
 4214SOL    HW212671   3.615   1.260   4.863
 4215SOL     OW12672   0.322   0.891   2.373
 4215SOL    HW112673   0.292   0.956   2.303
 4215SOL    HW212674   0.320   0.935   2.463
 4216SOL     OW12675   1.296   4.050   4.642
 4216SOL    HW112676   1.284   3.957   4.678
 4216SOL    HW212677   1.347   4.045   4.556
 4217SOL     OW12678   0.326   0.518   1.924
 4217SOL    HW112679   0.402   0.488   1.981
 4217SOL    HW212680   0.248   0.542   1.981
 4218SOL     OW12681   1.512   2.024   4.543
 4218SOL    HW112682   1.432   1.982   4.501
 4218SOL    HW212683   1.594   1.973   4.516
 4219SOL     OW12684   5.020   3.665   3.226
 4219SOL    HW112685   5.025   3.746   3.167
 4219SOL    HW212686   0.051   3.675   3.301
 4220SOL     OW12687   2.455   2.562   3.044
 4220SOL    HW112688   2.384   2.615   2.999
 4220SOL    HW212689   2.425   2.534   3.135
 4221SOL     OW12690   3.748   4.631   1.286
 4221SOL    HW112691   3.828   4.581   1.318
 4221SOL    HW212692   3.666   4.575   1.299
 4222SOL     OW12693   2.621   2.021   3.286
 4222SOL    HW112694   2.580   2.112   3.295
 4222SOL    HW212695   2.645   2.005   3.191
 4223SOL     OW12696   5.028   1.645   2.110
 4223SOL    HW112697   5.025   1.548   2.134
 4223SOL    HW212698   4.934   1.681   2.106
 4224SOL     OW12699   1.688   4.778   1.471
 4224SOL    HW112700   1.675   4.706   1.403
 4224SOL    HW212701   1.720   4.737   1.556
 4225SOL     OW12702   4.111   3.321   4.072
 4225SOL    HW112703   4.015   3.297   4.058
 4225SOL    HW212704   4.150   3.263   4.143
 4226SOL     OW12705   0.843   2.767   1.088
 4226SOL    HW112706   0.823   2.686   1.143
 4226SOL    HW212707   0.911   2.743   1.019
 4227SOL     OW12708   2.227   1.843   3.853
 4227SOL    HW112709   2.227   1.772   3.924
 4227SOL    HW212710   2.225   1.799   3.763
 4228SOL     OW12711   3.370   3.078   2.715
 4228SOL    HW112712   3.352   3.023   2.797
 4228SOL    HW212713   3.449   3.041   2.667
 4229SOL     OW12714   4.954   2.691   4.405
 4229SOL    HW112715   4.875   2.692   4.466
 4229SOL    HW212716   5.001   2.603   4.413
 4230SOL     OW12717   0.088   2.255   0.266
 4230SOL    HW112718   0.086   2.336   0.323
 4230SOL    HW212719   0.096   2.173   0.324
 4231SOL     OW12720   4.119   4.481   2.140
 4231SOL    HW112721   4.112   4.382   2.123
 4231SOL    HW212722   4.137   4.497   2.237
 4232SOL     OW12723   1.939   4.214   3.133
 4232SOL    HW112724   2.003   4.272   3.183
 4232SOL    HW212725   1.884   4.161   3.197
 4233SOL     OW12726   0.022   0.653   1.053
 4233SOL    HW112727   4.981   0.590   1.067
 4233SOL    HW212728   0.006   0.705   0.969
 4234SOL     OW12729   1.697   3.455   3.434
 4234SOL    HW112730   1.789   3.458   3.395
 4234SOL    HW212731   1.702   3.472   3.533
 4235SOL     OW12732   4.120   3.116   0.910
 4235SOL    HW112733   4.130   3.207   0.871
 4235SOL    HW212734   4.050   3.118   0.982
 4236SOL     OW12735   4.287   4.186   2.798
 4236SOL    HW112736   4.279   4.248   2.875
 4236SOL    HW212737   4.250   4.096   2.824
 4237SOL     OW12738   2.495   2.313   4.796
 4237SOL    HW112739   2.577   2.356   4.757
 4237SOL    HW212740   2.505   2.306   4.895
 4238SOL     OW12741   4.953   1.279   1.822
 4238SOL    HW112742   4.982   1.220   1.747
 4238SOL    HW212743   4.926   1.369   1.786
 4239SOL     OW12744   3.395   0.019   1.617
 4239SOL    HW112745   3.375   0.113   1.643
 4239SOL    HW212746   3.484   0.016   1.570
 4240SOL     OW12747   0.875   2.155   0.290
 4240SOL    HW112748   0.811   2.159   0.213
 4240SOL    HW212749   0.824   2.170   0.375
 4241SOL     OW12750   3.241   4.080   4.225
 4241SOL    HW112751   3.296   4.142   4.169
 4241SOL    HW212752   3.233   4.117   4.318
   5.03500   5.03500   5.03500
