CO2 in vacuo
   50
    1CO2     O1    1   7.240   3.779   8.806
    1CO2      C    2   7.168   3.772   8.907
    1CO2     O2    3   7.096   3.765   9.009
    1CO2     M1    4   7.106   3.766   8.994
    1CO2     M2    5   7.229   3.778   8.820
    2CO2     O1    6   1.978   6.201   0.480
    2CO2      C    7   2.087   6.251   0.515
    2CO2     O2    8   2.196   6.300   0.549
    2CO2     M1    9   2.180   6.293   0.544
    2CO2     M2   10   1.993   6.208   0.485
    3CO2     O1   11   6.914   5.954   4.568
    3CO2      C   12   7.009   5.923   4.642
    3CO2     O2   13   7.105   5.893   4.717
    3CO2     M1   14   7.091   5.897   4.706
    3CO2     M2   15   6.928   5.950   4.579
    4CO2     O1   16   4.389   4.257   8.040
    4CO2      C   17   4.464   4.161   8.064
    4CO2     O2   18   4.540   4.064   8.088
    4CO2     M1   19   4.529   4.078   8.084
    4CO2     M2   20   4.400   4.243   8.044
    5CO2     O1   21   7.043   0.710   4.820
    5CO2      C   22   7.115   0.678   4.917
    5CO2     O2   23   7.186   0.646   5.014
    5CO2     M1   24   7.176   0.651   5.000
    5CO2     M2   25   7.053   0.705   4.834
    6CO2     O1   26   1.455   7.067   8.369
    6CO2      C   27   1.559   6.999   8.369
    6CO2     O2   28   1.664   6.931   8.369
    6CO2     M1   29   1.649   6.941   8.369
    6CO2     M2   30   1.470   7.057   8.369
    7CO2     O1   31   9.810   6.245   7.377
    7CO2      C   32   9.874   6.294   7.472
    7CO2     O2   33   9.938   6.343   7.568
    7CO2     M1   34   9.928   6.336   7.554
    7CO2     M2   35   9.819   6.252   7.391
    8CO2     O1   36   5.827   6.542   0.456
    8CO2      C   37   5.766   6.509   0.560
    8CO2     O2   38   5.704   6.476   0.663
    8CO2     M1   39   5.713   6.481   0.648
    8CO2     M2   40   5.818   6.537   0.471
    9CO2     O1   41   1.304   5.320   9.645
    9CO2      C   42   1.290   5.207   9.593
    9CO2     O2   43   1.276   5.095   9.540
    9CO2     M1   44   1.278   5.111   9.548
    9CO2     M2   45   1.302   5.303   9.637
   10CO2     O1   46   6.213   4.508   8.937
   10CO2      C   47   6.210   4.567   8.827
   10CO2     O2   48   6.206   4.625   8.717
   10CO2     M1   49   6.206   4.617   8.733
   10CO2     M2   50   6.213   4.517   8.921
  10.00000  10.00000  10.00000
