Liquid Argon
  108
    1LIG     AR    1   0.088   1.755   0.785
    2LIG     AR    2   2.032   0.851   2.939
    3LIG     AR    3   0.846   2.618   1.475
    4LIG     AR    4   1.385   0.729   2.380
    5LIG     AR    5   2.083   2.895   2.896
    6LIG     AR    6   2.824   0.197   0.315
    7LIG     AR    7   0.527   1.726   1.434
    8LIG     AR    8   2.347   1.994   2.320
    9LIG     AR    9   1.357   2.566   2.743
   10LIG     AR   10   0.349   1.992   0.226
   11LIG     AR   11   0.667   0.216   0.297
   12LIG     AR   12   0.584   2.497   2.017
   13LIG     AR   13   0.850   2.211   2.265
   14LIG     AR   14   2.907   0.895   0.220
   15LIG     AR   15   2.727   1.408   2.771
   16LIG     AR   16   0.670   0.838   0.232
   17LIG     AR   17   1.086   0.156   2.681
   18LIG     AR   18   1.497   2.123   0.249
   19LIG     AR   19   0.983   0.922   1.994
   20LIG     AR   20   0.065   2.440   1.462
   21LIG     AR   21   1.506   2.462   2.033
   22LIG     AR   22   1.820   2.198   1.032
   23LIG     AR   23   1.085   2.348   2.565
   24LIG     AR   24   0.561   0.866   0.813
   25LIG     AR   25   0.075   2.922   0.264
   26LIG     AR   26   0.811   2.859   0.286
   27LIG     AR   27   2.108   1.776   1.484
   28LIG     AR   28   0.336   2.043   0.609
   29LIG     AR   29   0.165   0.381   0.213
   30LIG     AR   30   1.704   1.709   2.898
   31LIG     AR   31   2.038   1.792   0.384
   32LIG     AR   32   2.145   1.107   1.450
   33LIG     AR   33   2.855   0.563   0.390
   34LIG     AR   34   1.020   1.295   2.063
   35LIG     AR   35   2.902   1.522   1.434
   36LIG     AR   36   1.325   0.330   1.651
   37LIG     AR   37   2.452   0.843   2.271
   38LIG     AR   38   0.716   1.001   2.261
   39LIG     AR   39   1.428   0.557   1.355
   40LIG     AR   40   1.675   1.222   0.713
   41LIG     AR   41   2.383   1.214   0.289
   42LIG     AR   42   1.248   0.309   1.131
   43LIG     AR   43   1.214   0.458   2.159
   44LIG     AR   44   1.451   2.318   1.059
   45LIG     AR   45   0.060   2.815   1.407
   46LIG     AR   46   2.676   2.448   0.148
   47LIG     AR   47   2.522   0.236   1.457
   48LIG     AR   48   1.315   2.481   0.738
   49LIG     AR   49   2.113   0.086   1.712
   50LIG     AR   50   0.015   1.189   2.646
   51LIG     AR   51   0.026   0.813   1.556
   52LIG     AR   52   1.647   0.747   0.237
   53LIG     AR   53   1.426   2.550   1.461
   54LIG     AR   54   1.057   1.146   0.605
   55LIG     AR   55   1.318   1.773   0.939
   56LIG     AR   56   1.573   0.447   0.988
   57LIG     AR   57   0.025   2.116   1.005
   58LIG     AR   58   2.700   2.712   1.352
   59LIG     AR   59   2.640   1.868   2.620
   60LIG     AR   60   2.277   0.276   2.851
   61LIG     AR   61   1.534   2.056   0.770
   62LIG     AR   62   1.919   1.354   1.156
   63LIG     AR   63   0.201   0.613   2.251
   64LIG     AR   64   0.538   1.543   0.525
   65LIG     AR   65   2.685   1.082   2.973
   66LIG     AR   66   0.818   0.065   0.617
   67LIG     AR   67   1.822   2.142   0.486
   68LIG     AR   68   2.100   1.150   2.620
   69LIG     AR   69   0.598   2.735   1.050
   70LIG     AR   70   0.784   1.385   1.775
   71LIG     AR   71   2.618   0.783   0.909
   72LIG     AR   72   1.862   1.876   0.794
   73LIG     AR   73   2.101   1.930   1.082
   74LIG     AR   74   0.589   0.673   1.621
   75LIG     AR   75   0.763   2.684   2.612
   76LIG     AR   76   0.462   1.764   0.832
   77LIG     AR   77   0.996   2.904   2.396
   78LIG     AR   78   1.131   1.430   0.883
   79LIG     AR   79   2.171   2.367   2.838
   80LIG     AR   80   0.849   2.757   1.918
   81LIG     AR   81   1.624   1.559   0.887
   82LIG     AR   82   2.852   1.086   1.340
   83LIG     AR   83   2.399   2.553   1.841
   84LIG     AR   84   1.422   0.238   0.073
   85LIG     AR   85   2.142   0.050   0.314
   86LIG     AR   86   2.064   2.161   2.528
   87LIG     AR   87   1.974   1.487   0.773
   88LIG     AR   88   1.075   1.239   0.078
   89LIG     AR   89   1.330   1.793   0.329
   90LIG     AR   90   1.686   1.433   1.452
   91LIG     AR   91   0.055   1.761   1.163
   92LIG     AR   92   1.825   2.018   0.095
   93LIG     AR   93   0.533   1.154   1.597
   94LIG     AR   94   2.943   0.869   2.438
   95LIG     AR   95   1.343   1.815   2.948
   96LIG     AR   96   1.741   0.222   0.301
   97LIG     AR   97   2.653   0.576   2.863
   98LIG     AR   98   2.929   2.506   1.119
   99LIG     AR   99   2.731   1.628   0.847
  100LIG     AR  100   1.741   0.042   2.971
  101LIG     AR  101   0.999   0.351   1.853
  102LIG     AR  102   2.205   2.271   1.232
  103LIG     AR  103   0.617   2.654   2.978
  104LIG     AR  104   1.955   2.736   0.216
  105LIG     AR  105   1.938   0.288   2.208
  106LIG     AR  106   1.404   1.092   2.936
  107LIG     AR  107   1.827   2.527   1.304
  108LIG     AR  108   0.163   1.769   2.971
   3.00000   3.00000   3.00000
