DPPC in SPCE
 1042
    1GND     C1    1   1.678   0.730   2.036
    1GND     N2    2   1.629   0.855   2.064
    1GND     H3    3   1.615   0.928   1.994
    1GND     H4    4   1.605   0.886   2.158
    1GND     N5    5   1.707   0.693   1.907
    1GND     H6    6   1.696   0.758   1.827
    1GND     H7    7   1.742   0.603   1.877
    1GND     N8    8   1.698   0.641   2.139
    1GND     H9    9   1.734   0.546   2.125
    1GND    H10   10   1.682   0.664   0.037
    2GND     C1   11   0.209   1.595   1.095
    2GND     N2   12   0.228   1.662   1.213
    2GND     H3   13   0.234   1.764   1.217
    2GND     H4   14   0.238   1.616   1.303
    2GND     N5   15   0.195   1.665   0.978
    2GND     H6   16   0.196   1.767   0.970
    2GND     H7   17   0.169   1.618   0.891
    2GND     N8   18   0.206   1.458   1.092
    2GND     H9   19   0.195   1.402   1.008
    2GND    H10   20   0.213   1.399   1.177
    3GND     C1   21   0.572   1.279   1.181
    3GND     N2   22   0.600   1.248   1.312
    3GND     H3   23   0.640   1.160   1.343
    3GND     H4   24   0.579   1.311   1.388
    3GND     N5   25   0.597   1.189   1.081
    3GND     H6   26   0.633   1.095   1.094
    3GND     H7   27   0.573   1.211   0.984
    3GND     N8   28   0.519   1.402   1.151
    3GND     H9   29   0.496   1.432   1.057
    3GND    H10   30   0.500   1.470   1.225
    4GND     C1   31   0.564   0.328   0.847
    4GND     N2   32   0.501   0.388   0.741
    4GND     H3   33   0.491   0.489   0.732
    4GND     H4   34   0.462   0.333   0.664
    4GND     N5   35   0.613   0.406   0.948
    4GND     H6   36   0.600   0.507   0.944
    4GND     H7   37   0.661   0.371   1.031
    4GND     N8   38   0.573   0.192   0.852
    4GND     H9   39   0.616   0.142   0.931
    4GND    H10   40   0.535   0.132   0.779
    5GND     C1   41   2.152   0.035   1.088
    5GND     N2   42   0.057   0.015   1.174
    5GND     H3   43   0.149   0.058   1.163
    5GND     H4   44   0.052   2.155   1.256
    5GND     N5   45   2.168   0.115   0.977
    5GND     H6   46   0.059   0.147   0.946
    5GND     H7   47   2.093   0.138   0.913
    5GND     N8   48   2.032   2.171   1.109
    5GND     H9   49   1.952   2.180   1.046
    5GND    H10   50   2.017   2.106   1.186
    6GND     C1   51   2.141   1.097   0.455
    6GND     N2   52   2.027   1.038   0.408
    6GND     H3   53   1.990   1.057   0.314
    6GND     H4   54   1.971   0.973   0.464
    6GND     N5   55   0.010   1.186   0.377
    6GND     H6   56   2.182   1.215   0.283
    6GND     H7   57   0.093   1.234   0.410
    6GND     N8   58   2.188   1.069   0.581
    6GND     H9   59   0.072   1.114   0.616
    6GND    H10   60   2.144   1.004   0.646
    7GND     C1   61   0.912   1.366   1.007
    7GND     N2   62   0.932   1.454   0.904
    7GND     H3   63   0.917   1.556   0.913
    7GND     H4   64   0.967   1.428   0.811
    7GND     N5   65   0.867   1.411   1.129
    7GND     H6   66   0.846   1.509   1.149
    7GND     H7   67   0.861   1.351   1.210
    7GND     N8   68   0.935   1.232   0.990
    7GND     H9   69   0.922   1.164   1.065
    7GND    H10   70   0.967   1.190   0.901
    8GND     C1   71   1.263   0.395   0.597
    8GND     N2   72   1.362   0.400   0.692
    8GND     H3   73   1.370   0.475   0.760
    8GND     H4   74   1.434   0.329   0.701
    8GND     N5   75   1.169   0.495   0.591
    8GND     H6   76   1.170   0.578   0.649
    8GND     H7   77   1.096   0.492   0.518
    8GND     N8   78   1.256   0.289   0.510
    8GND     H9   79   1.184   0.280   0.438
    8GND    H10   80   1.324   0.213   0.509
    9GND     C1   81   0.645   0.819   1.965
    9GND     N2   82   0.669   0.954   1.959
    9GND     H3   83   0.737   0.994   1.895
    9GND     H4   84   0.616   1.022   2.014
    9GND     N5   85   0.718   0.733   1.886
    9GND     H6   86   0.788   0.769   1.821
    9GND     H7   87   0.705   0.633   1.884
    9GND     N8   88   0.551   0.769   2.051
    9GND     H9   89   0.528   0.669   2.058
    9GND    H10   90   0.495   0.826   2.114
   10GND     C1   91   0.010   1.660   2.114
   10GND     N2   92   0.042   1.777   2.179
   10GND     H3   93   2.185   1.817   0.054
   10GND     H4   94   0.126   1.831   2.159
   10GND     N5   95   2.093   1.595   2.143
   10GND     H6   96   2.025   1.628   0.012
   10GND     H7   97   2.065   1.506   2.099
   10GND     N8   98   0.095   1.610   2.019
   10GND     H9   99   0.079   1.523   1.967
   10GND    H10  100   0.184   1.655   1.998
   11GND     C1  101   1.377   1.219   0.269
   11GND     N2  102   1.343   1.294   0.380
   11GND     H3  103   1.353   1.258   0.474
   11GND     H4  104   1.303   1.388   0.377
   11GND     N5  105   1.427   1.093   0.287
   11GND     H6  106   1.450   1.053   0.378
   11GND     H7  107   1.455   1.033   0.209
   11GND     N8  108   1.360   1.269   0.142
   11GND     H9  109   1.383   1.219   0.057
   11GND    H10  110   1.326   1.365   0.125
   12GND     C1  111   0.158   0.834   1.926
   12GND     N2  112   0.099   0.950   1.968
   12GND     H3  113   0.034   1.000   1.906
   12GND     H4  114   0.115   0.997   2.058
   12GND     N5  115   0.126   0.782   1.803
   12GND     H6  116   0.061   0.827   1.740
   12GND     H7  117   0.171   0.697   1.767
   12GND     N8  118   0.244   0.765   2.008
   12GND     H9  119   0.288   0.678   1.982
   12GND    H10  120   0.272   0.799   2.101
   13GND     C1  121   1.102   0.778   0.252
   13GND     N2  122   1.106   0.680   0.156
   13GND     H3  123   1.033   0.609   0.145
   13GND     H4  124   1.183   0.672   0.090
   13GND     N5  125   0.998   0.786   0.341
   13GND     H6  126   0.921   0.718   0.344
   13GND     H7  127   0.995   0.853   0.416
   13GND     N8  128   1.203   0.871   0.260
   13GND     H9  129   1.200   0.944   0.332
   13GND    H10  130   1.285   0.873   0.201
   14GND     C1  131   1.389   0.461   1.705
   14GND     N2  132   1.345   0.522   1.590
   14GND     H3  133   1.283   0.602   1.591
   14GND     H4  134   1.373   0.489   1.498
   14GND     N5  135   1.349   0.510   1.827
   14GND     H6  136   1.289   0.590   1.836
   14GND     H7  137   1.374   0.468   1.917
   14GND     N8  138   1.471   0.351   1.697
   14GND     H9  139   1.508   0.300   1.778
   14GND    H10  140   1.502   0.314   1.608
   15GND     C1  141   2.076   0.541   0.557
   15GND     N2  142   2.016   0.506   0.675
   15GND     H3  143   1.986   0.574   0.745
   15GND     H4  144   1.994   0.410   0.702
   15GND     N5  145   2.103   0.673   0.531
   15GND     H6  146   2.079   0.749   0.594
   15GND     H7  147   2.147   0.704   0.444
   15GND     N8  148   2.108   0.444   0.466
   15GND     H9  149   2.153   0.461   0.375
   15GND    H10  150   2.086   0.345   0.484
   16GND     C1  151   1.284   2.063   0.313
   16GND     N2  152   1.384   1.970   0.306
   16GND     H3  153   1.454   1.967   0.230
   16GND     H4  154   1.398   1.896   0.375
   16GND     N5  155   1.273   2.161   0.216
   16GND     H6  156   1.337   2.173   0.137
   16GND     H7  157   1.200   0.032   0.222
   16GND     N8  158   1.194   2.060   0.416
   16GND     H9  159   1.119   2.129   0.421
   16GND    H10  160   1.195   1.992   0.490
   17GND     C1  161   0.297   2.005   0.319
   17GND     N2  162   0.213   1.989   0.212
   17GND     H3  163   0.237   2.013   0.115
   17GND     H4  164   0.119   1.950   0.220
   17GND     N5  165   0.422   2.059   0.301
   17GND     H6  166   0.458   2.095   0.212
   17GND     H7  167   0.487   2.074   0.379
   17GND     N8  168   0.256   1.969   0.445
   17GND     H9  169   0.314   1.981   0.529
   17GND    H10  170   0.163   1.931   0.466
   18GND     C1  171   2.096   0.647   2.010
   18GND     N2  172   2.115   0.665   2.145
   18GND     H3  173   2.171   0.600   2.199
   18GND     H4  174   2.071   0.738   0.001
   18GND     N5  175   2.159   0.543   1.948
   18GND     H6  176   0.025   0.484   2.000
   18GND     H7  177   2.147   0.516   1.851
   18GND     N8  178   2.021   0.736   1.937
   18GND     H9  179   2.009   0.724   1.836
   18GND    H10  180   1.975   0.820   1.973
   19GND     C1  181   0.872   1.033   0.095
   19GND     N2  182   0.848   0.922   0.018
   19GND     H3  183   0.885   0.911   2.124
   19GND     H4  184   0.792   0.843   0.053
   19GND     N5  185   0.949   1.135   0.045
   19GND     H6  186   0.985   1.134   2.149
   19GND     H7  187   0.969   1.221   0.096
   19GND     N8  188   0.819   1.040   0.222
   19GND     H9  189   0.835   1.117   0.287
   19GND    H10  190   0.758   0.968   0.262
   20GND     C1  191   0.372   1.681   0.494
   20GND     N2  192   0.300   1.629   0.389
   20GND     H3  193   0.335   1.635   0.293
   20GND     H4  194   0.210   1.579   0.396
   20GND     N5  195   0.490   1.745   0.469
   20GND     H6  196   0.526   1.753   0.374
   20GND     H7  197   0.551   1.784   0.540
   20GND     N8  198   0.326   1.671   0.623
   20GND     H9  199   0.376   1.710   0.701
   20GND    H10  200   0.238   1.625   0.648
   21GND     C1  201   1.743   0.318   0.336
   21GND     N2  202   1.719   0.352   0.467
   21GND     H3  203   1.696   0.285   0.540
   21GND     H4  204   1.722   0.448   0.501
   21GND     N5  205   1.739   0.187   0.295
   21GND     H6  206   1.714   0.108   0.355
   21GND     H7  207   1.755   0.160   0.199
   21GND     N8  208   1.771   0.416   0.244
   21GND     H9  209   1.788   0.395   0.145
   21GND    H10  210   1.771   0.515   0.265
   22GND     C1  211   1.108   1.982   2.171
   22GND     N2  212   1.153   1.853   2.172
   22GND     H3  213   1.122   1.785   0.042
   22GND     H4  214   1.216   1.814   2.102
   22GND     N5  215   1.020   2.023   0.068
   22GND     H6  216   0.986   1.960   0.139
   22GND     H7  217   0.976   2.115   0.070
   22GND     N8  218   1.153   2.070   2.077
   22GND     H9  219   1.124   2.168   2.069
   22GND    H10  220   1.221   2.043   2.005
   23GND     C1  221   1.656   1.942   1.128
   23GND     N2  222   1.528   1.984   1.101
   23GND     H3  223   1.486   2.063   1.148
   23GND     H4  224   1.467   1.940   1.033
   23GND     N5  225   1.731   2.012   1.219
   23GND     H6  226   1.694   2.092   1.268
   23GND     H7  227   1.825   1.984   1.248
   23GND     N8  228   1.707   1.833   1.062
   23GND     H9  229   1.803   1.799   1.077
   23GND    H10  230   1.654   1.778   0.995
   24GND     C1  231   1.596   1.408   1.139
   24GND     N2  232   1.681   1.499   1.196
   24GND     H3  233   1.655   1.558   1.274
   24GND     H4  234   1.778   1.510   1.166
   24GND     N5  235   1.469   1.393   1.188
   24GND     H6  236   1.434   1.454   1.263
   24GND     H7  237   1.399   1.327   1.151
   24GND     N8  238   1.637   1.332   1.031
   24GND     H9  239   1.579   1.263   0.986
   24GND    H10  240   1.728   1.344   0.987
   25GND     C1  241   0.593   0.138   1.613
   25GND     N2  242   0.539   0.263   1.620
   25GND     H3  243   0.440   0.278   1.639
   25GND     H4  244   0.593   0.348   1.608
   25GND     N5  245   0.512   0.029   1.632
   25GND     H6  246   0.413   0.039   1.651
   25GND     H7  247   0.544   2.133   1.621
   25GND     N8  248   0.728   0.124   1.590
   25GND     H9  249   0.777   0.035   1.584
   25GND    H10  250   0.787   0.206   1.576
   26GND     C1  251   2.007   1.897   1.868
   26GND     N2  252   1.914   1.909   1.968
   26GND     H3  253   1.909   1.986   2.034
   26GND     H4  254   1.839   1.842   1.980
   26GND     N5  255   2.106   1.992   1.853
   26GND     H6  256   2.118   2.071   1.917
   26GND     H7  257   2.173   1.989   1.777
   26GND     N8  258   2.003   1.789   1.784
   26GND     H9  259   2.068   1.775   1.706
   26GND    H10  260   1.932   1.716   1.794
   27GND     C1  261   1.163   0.150   1.613
   27GND     N2  262   1.222   0.058   1.696
   27GND     H3  263   1.286   2.187   1.661
   27GND     H4  264   1.206   0.057   1.796
   27GND     N5  265   1.189   0.146   1.478
   27GND     H6  266   1.249   0.076   1.437
   27GND     H7  267   1.157   0.218   1.412
   27GND     N8  268   1.078   0.243   1.666
   27GND     H9  269   1.026   0.314   1.614
   27GND    H10  270   1.058   0.244   1.766
   28GND     C1  271   0.984   0.372   0.924
   28GND     N2  272   0.980   0.241   0.885
   28GND     H3  273   1.011   0.168   0.949
   28GND     H4  274   0.947   0.206   0.795
   28GND     N5  275   1.034   0.403   1.048
   28GND     H6  276   1.067   0.332   1.112
   28GND     H7  277   1.045   0.498   1.084
   28GND     N8  278   0.936   0.471   0.842
   28GND     H9  279   0.935   0.570   0.870
   28GND    H10  280   0.893   0.451   0.751
   29GND     C1  281   0.101   0.078   0.293
   29GND     N2  282   2.191   0.035   0.223
   29GND     H3  283   2.111   2.194   0.271
   29GND     H4  284   2.182   0.040   0.122
   29GND     N5  285   0.103   0.063   0.430
   29GND     H6  286   0.026   0.025   0.482
   29GND     H7  287   0.185   0.091   0.486
   29GND     N8  288   0.209   0.134   0.230
   29GND     H9  289   0.291   0.166   0.280
   29GND    H10  290   0.214   0.150   0.128
   30GND     C1  291   2.096   0.461   1.389
   30GND     N2  292   2.193   0.510   1.472
   30GND     H3  293   2.198   0.482   1.569
   30GND     H4  294   0.066   0.572   1.439
   30GND     N5  295   2.004   0.372   1.438
   30GND     H6  296   2.006   0.341   1.535
   30GND     H7  297   1.929   0.330   1.382
   30GND     N8  298   2.091   0.501   1.257
   30GND     H9  299   2.022   0.469   1.189
   30GND    H10  300   2.154   0.572   1.219
   31GND     C1  301   0.197   0.465   0.982
   31GND     N2  302   0.224   0.395   0.867
   31GND     H3  303   0.221   0.439   0.774
   31GND     H4  304   0.246   0.295   0.864
   31GND     N5  305   0.164   0.598   0.975
   31GND     H6  306   0.164   0.654   0.889
   31GND     H7  307   0.134   0.653   1.055
   31GND     N8  308   0.208   0.404   1.104
   31GND     H9  309   0.193   0.454   1.191
   31GND    H10  310   0.236   0.307   1.118
   32GND     C1  311   1.560   1.173   1.422
   32GND     N2  312   1.623   1.126   1.310
   32GND     H3  313   1.720   1.153   1.287
   32GND     H4  314   1.582   1.062   1.242
   32GND     N5  315   1.625   1.260   1.506
   32GND     H6  316   1.723   1.288   1.496
   32GND     H7  317   1.582   1.300   1.590
   32GND     N8  318   1.432   1.133   1.451
   32GND     H9  319   1.382   1.163   1.534
   32GND    H10  320   1.379   1.066   1.396
   33SOL     OW  321   1.931   0.866   1.474
   33SOL    HW1  322   1.849   0.886   1.529
   33SOL    HW2  323   1.982   0.951   1.459
   34SOL     OW  324   1.651   0.754   1.178
   34SOL    HW1  325   1.611   0.829   1.125
   34SOL    HW2  326   1.610   0.752   1.269
   35SOL     OW  327   1.987   0.216   1.898
   35SOL    HW1  328   2.046   0.150   1.945
   35SOL    HW2  329   1.927   0.261   1.965
   36SOL     OW  330   1.341   1.992   1.895
   36SOL    HW1  331   1.417   1.935   1.923
   36SOL    HW2  332   1.298   1.953   1.814
   37SOL     OW  333   1.847   1.683   0.775
   37SOL    HW1  334   1.930   1.731   0.802
   37SOL    HW2  335   1.809   1.725   0.694
   38SOL     OW  336   0.896   1.686   1.905
   38SOL    HW1  337   0.864   1.773   1.943
   38SOL    HW2  338   0.845   1.611   1.945
   39SOL     OW  339   1.180   0.377   1.316
   39SOL    HW1  340   1.279   0.363   1.314
   39SOL    HW2  341   1.158   0.469   1.284
   40SOL     OW  342   1.739   1.386   0.389
   40SOL    HW1  343   1.726   1.309   0.326
   40SOL    HW2  344   1.727   1.354   0.483
   41SOL     OW  345   1.332   0.781   0.558
   41SOL    HW1  346   1.406   0.848   0.549
   41SOL    HW2  347   1.347   0.706   0.493
   42SOL     OW  348   0.225   1.549   1.493
   42SOL    HW1  349   0.166   1.626   1.514
   42SOL    HW2  350   0.183   1.465   1.528
   43SOL     OW  351   2.021   0.196   0.550
   43SOL    HW1  352   2.007   0.105   0.512
   43SOL    HW2  353   1.997   0.195   0.647
   44SOL     OW  354   0.799   1.930   2.000
   44SOL    HW1  355   0.777   1.930   2.097
   44SOL    HW2  356   0.714   1.934   1.946
   45SOL     OW  357   0.237   0.533   0.622
   45SOL    HW1  358   0.245   0.487   0.534
   45SOL    HW2  359   0.281   0.623   0.617
   46SOL     OW  360   0.800   2.081   0.700
   46SOL    HW1  361   0.800   2.091   0.800
   46SOL    HW2  362   0.849   1.998   0.675
   47SOL     OW  363   0.738   0.336   1.876
   47SOL    HW1  364   0.758   0.361   1.781
   47SOL    HW2  365   0.802   0.383   1.937
   48SOL     OW  366   0.358   0.844   0.050
   48SOL    HW1  367   0.353   0.761   0.105
   48SOL    HW2  368   0.363   0.924   0.110
   49SOL     OW  369   1.661   2.148   0.420
   49SOL    HW1  370   1.713   2.086   0.362
   49SOL    HW2  371   1.648   2.108   0.510
   50SOL     OW  372   0.787   0.620   0.434
   50SOL    HW1  373   0.688   0.606   0.430
   50SOL    HW2  374   0.811   0.673   0.515
   51SOL     OW  375   1.736   0.623   0.553
   51SOL    HW1  376   1.671   0.650   0.625
   51SOL    HW2  377   1.709   0.665   0.466
   52SOL     OW  378   0.431   0.532   1.417
   52SOL    HW1  379   0.464   0.550   1.509
   52SOL    HW2  380   0.504   0.550   1.351
   53SOL     OW  381   1.278   1.388   2.013
   53SOL    HW1  382   1.329   1.473   2.001
   53SOL    HW2  383   1.189   1.408   2.054
   54SOL     OW  384   1.703   1.327   2.162
   54SOL    HW1  385   1.685   1.424   2.178
   54SOL    HW2  386   1.796   1.315   2.128
   55SOL     OW  387   0.486   0.838   1.660
   55SOL    HW1  388   0.451   0.911   1.719
   55SOL    HW2  389   0.473   0.863   1.564
   56SOL     OW  390   1.528   1.378   1.739
   56SOL    HW1  391   1.478   1.459   1.769
   56SOL    HW2  392   1.614   1.370   1.789
   57SOL     OW  393   0.130   1.094   0.008
   57SOL    HW1  394   0.210   1.096   0.067
   57SOL    HW2  395   0.067   1.167   0.034
   58SOL     OW  396   1.074   1.420   0.652
   58SOL    HW1  397   1.123   1.477   0.587
   58SOL    HW2  398   1.010   1.360   0.603
   59SOL     OW  399   0.512   0.576   0.424
   59SOL    HW1  400   0.454   0.573   0.342
   59SOL    HW2  401   0.482   0.652   0.482
   60SOL     OW  402   1.460   0.105   0.522
   60SOL    HW1  403   1.514   0.134   0.601
   60SOL    HW2  404   1.511   0.038   0.469
   61SOL     OW  405   0.880   1.064   1.208
   61SOL    HW1  406   0.819   0.991   1.175
   61SOL    HW2  407   0.940   1.028   1.279
   62SOL     OW  408   1.343   1.155   0.633
   62SOL    HW1  409   1.419   1.097   0.663
   62SOL    HW2  410   1.308   1.207   0.712
   63SOL     OW  411   2.151   1.516   1.347
   63SOL    HW1  412   2.168   1.607   1.386
   63SOL    HW2  413   2.164   1.447   1.418
   64SOL     OW  414   0.186   0.848   0.820
   64SOL    HW1  415   0.247   0.843   0.741
   64SOL    HW2  416   0.237   0.882   0.899
   65SOL     OW  417   1.802   1.619   1.879
   65SOL    HW1  418   1.785   1.521   1.870
   65SOL    HW2  419   1.720   1.663   1.915
   66SOL     OW  420   1.902   1.676   0.126
   66SOL    HW1  421   1.885   1.765   0.168
   66SOL    HW2  422   1.816   1.641   0.088
   67SOL     OW  423   1.808   2.011   1.525
   67SOL    HW1  424   1.748   2.053   1.593
   67SOL    HW2  425   1.873   2.079   1.491
   68SOL     OW  426   0.452   0.513   2.065
   68SOL    HW1  427   0.435   0.424   2.024
   68SOL    HW2  428   0.422   0.513   2.160
   69SOL     OW  429   0.670   1.873   1.064
   69SOL    HW1  430   0.623   1.931   1.130
   69SOL    HW2  431   0.713   1.796   1.112
   70SOL     OW  432   1.414   1.612   1.838
   70SOL    HW1  433   1.318   1.639   1.851
   70SOL    HW2  434   1.473   1.670   1.895
   71SOL     OW  435   0.804   0.361   0.619
   71SOL    HW1  436   0.740   0.367   0.543
   71SOL    HW2  437   0.848   0.271   0.619
   72SOL     OW  438   0.398   0.256   1.971
   72SOL    HW1  439   0.351   0.242   1.885
   72SOL    HW2  440   0.486   0.208   1.970
   73SOL     OW  441   1.617   2.056   0.666
   73SOL    HW1  442   1.545   2.004   0.712
   73SOL    HW2  443   1.682   2.089   0.734
   74SOL     OW  444   1.416   0.603   0.368
   74SOL    HW1  445   1.388   0.523   0.316
   74SOL    HW2  446   1.501   0.639   0.330
   75SOL     OW  447   1.992   0.815   0.147
   75SOL    HW1  448   2.067   0.795   0.210
   75SOL    HW2  449   1.905   0.789   0.190
   76SOL     OW  450   2.095   0.303   0.041
   76SOL    HW1  451   2.003   0.326   0.011
   76SOL    HW2  452   2.127   0.221   2.193
   77SOL     OW  453   0.227   0.108   0.836
   77SOL    HW1  454   0.210   0.013   0.860
   77SOL    HW2  455   0.274   0.112   0.748
   78SOL     OW  456   0.510   1.123   2.113
   78SOL    HW1  457   0.476   1.119   0.007
   78SOL    HW2  458   0.446   1.176   2.057
   79SOL     OW  459   0.008   0.056   1.526
   79SOL    HW1  460   0.072   0.107   1.584
   79SOL    HW2  461   0.056   2.180   1.482
   80SOL     OW  462   1.914   1.617   1.522
   80SOL    HW1  463   1.999   1.670   1.517
   80SOL    HW2  464   1.839   1.673   1.488
   81SOL     OW  465   1.528   0.028   1.280
   81SOL    HW1  466   1.516   0.124   1.303
   81SOL    HW2  467   1.495   2.171   1.356
   82SOL     OW  468   0.212   2.034   2.129
   82SOL    HW1  469   0.287   2.068   2.072
   82SOL    HW2  470   0.130   2.087   2.111
   83SOL     OW  471   0.617   0.330   0.417
   83SOL    HW1  472   0.554   0.258   0.445
   83SOL    HW2  473   0.572   0.419   0.422
   84SOL     OW  474   0.643   1.981   1.551
   84SOL    HW1  475   0.604   2.005   1.462
   84SOL    HW2  476   0.740   2.005   1.552
   85SOL     OW  477   0.919   0.118   0.628
   85SOL    HW1  478   0.948   0.118   0.533
   85SOL    HW2  479   0.877   0.030   0.650
   86SOL     OW  480   0.214   0.181   2.155
   86SOL    HW1  481   0.286   0.201   2.088
   86SOL    HW2  482   0.142   0.128   2.112
   87SOL     OW  483   0.861   0.083   0.017
   87SOL    HW1  484   0.922   0.119   2.146
   87SOL    HW2  485   0.888   0.118   0.106
   88SOL     OW  486   2.003   1.941   1.280
   88SOL    HW1  487   2.048   1.912   1.365
   88SOL    HW2  488   2.002   1.865   1.215
   89SOL     OW  489   1.257   1.625   0.945
   89SOL    HW1  490   1.213   1.648   1.032
   89SOL    HW2  491   1.243   1.528   0.926
   90SOL     OW  492   2.141   0.362   1.721
   90SOL    HW1  493   0.029   0.315   1.715
   90SOL    HW2  494   2.080   0.312   1.782
   91SOL     OW  495   1.657   2.173   1.696
   91SOL    HW1  496   1.576   2.143   1.646
   91SOL    HW2  497   1.646   2.151   1.793
   92SOL     OW  498   1.480   1.737   1.579
   92SOL    HW1  499   1.459   1.835   1.576
   92SOL    HW2  500   1.458   1.701   1.669
   93SOL     OW  501   1.459   2.184   2.199
   93SOL    HW1  502   1.506   2.104   0.037
   93SOL    HW2  503   1.466   2.183   2.099
   94SOL     OW  504   1.022   1.422   2.106
   94SOL    HW1  505   0.935   1.436   2.059
   94SOL    HW2  506   1.006   1.419   0.005
   95SOL     OW  507   1.846   1.422   0.857
   95SOL    HW1  508   1.939   1.396   0.882
   95SOL    HW2  509   1.845   1.519   0.830
   96SOL     OW  510   1.169   1.717   1.887
   96SOL    HW1  511   1.176   1.781   1.810
   96SOL    HW2  512   1.073   1.694   1.903
   97SOL     OW  513   1.024   0.104   1.137
   97SOL    HW1  514   0.959   0.081   1.209
   97SOL    HW2  515   1.067   0.020   1.103
   98SOL     OW  516   2.120   0.878   0.785
   98SOL    HW1  517   0.018   0.865   0.803
   98SOL    HW2  518   2.079   0.930   0.860
   99SOL     OW  519   1.551   0.945   0.502
   99SOL    HW1  520   1.602   0.967   0.585
   99SOL    HW2  521   1.612   0.901   0.436
  100SOL     OW  522   0.148   0.447   2.129
  100SOL    HW1  523   0.161   0.348   2.135
  100SOL    HW2  524   0.210   0.492   2.194
  101SOL     OW  525   1.376   0.432   2.095
  101SOL    HW1  526   1.446   0.372   2.133
  101SOL    HW2  527   1.287   0.409   2.134
  102SOL     OW  528   1.715   1.195   0.199
  102SOL    HW1  529   1.800   1.143   0.186
  102SOL    HW2  530   1.692   1.242   0.114
  103SOL     OW  531   1.056   1.414   1.567
  103SOL    HW1  532   0.983   1.346   1.575
  103SOL    HW2  533   1.100   1.405   1.478
  104SOL     OW  534   1.247   1.977   1.250
  104SOL    HW1  535   1.297   1.994   1.335
  104SOL    HW2  536   1.214   1.883   1.248
  105SOL     OW  537   0.683   1.705   1.482
  105SOL    HW1  538   0.657   1.797   1.512
  105SOL    HW2  539   0.753   1.669   1.542
  106SOL     OW  540   0.481   1.543   1.385
  106SOL    HW1  541   0.397   1.545   1.440
  106SOL    HW2  542   0.549   1.604   1.426
  107SOL     OW  543   0.915   2.122   1.829
  107SOL    HW1  544   0.883   2.053   1.895
  107SOL    HW2  545   0.950   0.001   1.879
  108SOL     OW  546   0.205   1.276   1.300
  108SOL    HW1  547   0.210   1.177   1.289
  108SOL    HW2  548   0.149   1.298   1.381
  109SOL     OW  549   2.154   1.887   0.237
  109SOL    HW1  550   2.059   1.913   0.224
  109SOL    HW2  551   2.169   1.865   0.334
  110SOL     OW  552   1.899   1.358   1.589
  110SOL    HW1  553   1.895   1.455   1.565
  110SOL    HW2  554   1.994   1.327   1.588
  111SOL     OW  555   2.133   1.036   1.757
  111SOL    HW1  556   2.033   1.032   1.769
  111SOL    HW2  557   2.156   1.116   1.701
  112SOL     OW  558   0.029   0.471   0.214
  112SOL    HW1  559   0.128   0.474   0.198
  112SOL    HW2  560   2.186   0.408   0.150
  113SOL     OW  561   0.928   1.729   0.924
  113SOL    HW1  562   0.986   1.772   0.993
  113SOL    HW2  563   0.924   1.789   0.843
  114SOL     OW  564   0.486   1.907   2.174
  114SOL    HW1  565   0.465   1.991   2.123
  114SOL    HW2  566   0.578   1.913   0.011
  115SOL     OW  567   2.198   1.881   0.514
  115SOL    HW1  568   2.170   1.943   0.587
  115SOL    HW2  569   2.143   1.798   0.517
  116SOL     OW  570   1.357   0.389   0.211
  116SOL    HW1  571   1.270   0.380   0.162
  116SOL    HW2  572   1.427   0.336   0.163
  117SOL     OW  573   1.967   0.264   0.822
  117SOL    HW1  574   1.905   0.187   0.836
  117SOL    HW2  575   1.955   0.331   0.895
  118SOL     OW  576   0.584   1.933   1.820
  118SOL    HW1  577   0.614   1.955   1.727
  118SOL    HW2  578   0.538   1.844   1.820
  119SOL     OW  579   1.647   1.098   1.912
  119SOL    HW1  580   1.682   1.191   1.903
  119SOL    HW2  581   1.647   1.053   1.823
  120SOL     OW  582   0.047   1.503   0.407
  120SOL    HW1  583   2.157   1.505   0.365
  120SOL    HW2  584   0.038   1.511   0.506
  121SOL     OW  585   1.971   0.992   0.986
  121SOL    HW1  586   1.947   0.940   1.068
  121SOL    HW2  587   1.887   1.019   0.938
  122SOL     OW  588   1.008   1.830   1.495
  122SOL    HW1  589   0.963   1.755   1.543
  122SOL    HW2  590   1.045   1.796   1.408
  123SOL     OW  591   0.733   1.911   0.074
  123SOL    HW1  592   0.745   1.817   0.107
  123SOL    HW2  593   0.747   1.975   0.150
  124SOL     OW  594   1.811   0.233   1.299
  124SOL    HW1  595   1.839   0.148   1.343
  124SOL    HW2  596   1.713   0.248   1.314
  125SOL     OW  597   2.020   2.142   0.449
  125SOL    HW1  598   1.959   2.085   0.394
  125SOL    HW2  599   2.032   2.101   0.539
  126SOL     OW  600   0.795   1.675   1.225
  126SOL    HW1  601   0.893   1.691   1.230
  126SOL    HW2  602   0.754   1.686   1.316
  127SOL     OW  603   0.270   1.108   1.564
  127SOL    HW1  604   0.193   1.171   1.579
  127SOL    HW2  605   0.250   1.048   1.487
  128SOL     OW  606   1.130   0.863   0.723
  128SOL    HW1  607   1.203   0.838   0.660
  128SOL    HW2  608   1.165   0.866   0.817
  129SOL     OW  609   0.938   0.725   0.965
  129SOL    HW1  610   1.021   0.779   0.981
  129SOL    HW2  611   0.859   0.774   1.002
  130SOL     OW  612   1.204   1.888   1.676
  130SOL    HW1  613   1.128   1.862   1.616
  130SOL    HW2  614   1.271   1.941   1.624
  131SOL     OW  615   1.882   1.213   1.263
  131SOL    HW1  616   1.957   1.162   1.304
  131SOL    HW2  617   1.916   1.302   1.232
  132SOL     OW  618   2.099   1.355   0.946
  132SOL    HW1  619   2.151   1.401   0.875
  132SOL    HW2  620   2.146   1.271   0.974
  133SOL     OW  621   1.147   1.055   0.459
  133SOL    HW1  622   1.210   1.083   0.531
  133SOL    HW2  623   1.068   1.117   0.457
  134SOL     OW  624   0.544   0.577   1.660
  134SOL    HW1  625   0.640   0.557   1.640
  134SOL    HW2  626   0.532   0.676   1.668
  135SOL     OW  627   1.290   0.887   1.999
  135SOL    HW1  628   1.312   0.980   2.030
  135SOL    HW2  629   1.324   0.875   1.906
  136SOL     OW  630   1.407   0.365   1.035
  136SOL    HW1  631   1.423   0.373   1.133
  136SOL    HW2  632   1.446   0.280   1.001
  137SOL     OW  633   1.710   1.769   1.432
  137SOL    HW1  634   1.625   1.751   1.481
  137SOL    HW2  635   1.745   1.859   1.458
  138SOL     OW  636   1.539   0.112   1.010
  138SOL    HW1  637   1.539   0.089   1.107
  138SOL    HW2  638   1.625   0.083   0.968
  139SOL     OW  639   0.665   1.467   0.495
  139SOL    HW1  640   0.579   1.420   0.476
  139SOL    HW2  641   0.741   1.403   0.481
  140SOL     OW  642   1.689   0.488   1.118
  140SOL    HW1  643   1.673   0.585   1.139
  140SOL    HW2  644   1.640   0.432   1.185
  141SOL     OW  645   0.818   1.703   0.478
  141SOL    HW1  646   0.763   1.619   0.479
  141SOL    HW2  647   0.880   1.701   0.400
  142SOL     OW  648   0.266   1.943   1.186
  142SOL    HW1  649   0.355   1.986   1.203
  142SOL    HW2  650   0.233   1.970   1.096
  143SOL     OW  651   0.943   1.853   0.669
  143SOL    HW1  652   1.039   1.826   0.678
  143SOL    HW2  653   0.898   1.795   0.601
  144SOL     OW  654   2.179   0.750   1.143
  144SOL    HW1  655   2.083   0.774   1.154
  144SOL    HW2  656   0.036   0.819   1.189
  145SOL     OW  657   0.899   2.071   1.565
  145SOL    HW1  658   0.917   2.088   1.662
  145SOL    HW2  659   0.949   1.990   1.535
  146SOL     OW  660   1.374   0.840   1.746
  146SOL    HW1  661   1.318   0.913   1.707
  146SOL    HW2  662   1.469   0.851   1.717
  147SOL     OW  663   1.970   1.467   1.158
  147SOL    HW1  664   2.018   1.426   1.080
  147SOL    HW2  665   2.034   1.485   1.232
  148SOL     OW  666   0.496   1.290   0.841
  148SOL    HW1  667   0.400   1.266   0.854
  148SOL    HW2  668   0.533   1.240   0.763
  149SOL     OW  669   0.017   1.114   1.030
  149SOL    HW1  670   2.127   1.072   1.020
  149SOL    HW2  671   0.064   1.075   1.109
  150SOL     OW  672   0.019   0.750   0.291
  150SOL    HW1  673   0.057   0.666   0.252
  150SOL    HW2  674   0.094   0.812   0.315
  151SOL     OW  675   1.663   1.590   0.026
  151SOL    HW1  676   1.609   1.587   0.110
  151SOL    HW2  677   1.624   1.657   2.163
  152SOL     OW  678   0.546   1.789   0.822
  152SOL    HW1  679   0.577   1.696   0.805
  152SOL    HW2  680   0.591   1.824   0.905
  153SOL     OW  681   0.842   2.073   0.971
  153SOL    HW1  682   0.938   2.061   0.994
  153SOL    HW2  683   0.790   1.993   1.002
  154SOL     OW  684   1.828   0.192   1.678
  154SOL    HW1  685   1.757   0.122   1.687
  154SOL    HW2  686   1.886   0.192   1.760
  155SOL     OW  687   0.114   2.042   1.390
  155SOL    HW1  688   0.176   2.008   1.319
  155SOL    HW2  689   0.072   1.966   1.438
  156SOL     OW  690   1.786   1.339   1.839
  156SOL    HW1  691   1.859   1.323   1.906
  156SOL    HW2  692   1.825   1.341   1.747
  157SOL     OW  693   2.102   1.767   0.858
  157SOL    HW1  694   2.166   1.843   0.867
  157SOL    HW2  695   2.146   1.691   0.810
  158SOL     OW  696   0.336   1.288   1.960
  158SOL    HW1  697   0.241   1.299   1.930
  158SOL    HW2  698   0.357   1.354   2.031
  159SOL     OW  699   1.956   1.084   0.135
  159SOL    HW1  700   1.974   1.135   0.051
  159SOL    HW2  701   1.970   0.986   0.117
  160SOL     OW  702   1.928   0.693   0.862
  160SOL    HW1  703   1.837   0.734   0.867
  160SOL    HW2  704   1.996   0.763   0.842
  161SOL     OW  705   0.443   1.286   0.483
  161SOL    HW1  706   0.427   1.242   0.395
  161SOL    HW2  707   0.507   1.230   0.536
  162SOL     OW  708   2.024   1.679   0.523
  162SOL    HW1  709   2.040   1.609   0.592
  162SOL    HW2  710   1.927   1.701   0.518
  163SOL     OW  711   0.376   1.046   1.805
  163SOL    HW1  712   0.330   1.068   1.718
  163SOL    HW2  713   0.368   1.124   1.867
  164SOL     OW  714   1.207   1.542   0.445
  164SOL    HW1  715   1.282   1.603   0.469
  164SOL    HW2  716   1.144   1.590   0.384
  165SOL     OW  717   0.073   1.356   1.890
  165SOL    HW1  718   2.194   1.319   1.939
  165SOL    HW2  719   0.058   1.347   1.792
  166SOL     OW  720   1.215   1.048   1.672
  166SOL    HW1  721   1.127   1.000   1.673
  166SOL    HW2  722   1.206   1.136   1.718
  167SOL     OW  723   0.228   1.241   0.894
  167SOL    HW1  724   0.210   1.238   0.796
  167SOL    HW2  725   0.164   1.181   0.942
  168SOL     OW  726   0.883   0.675   1.359
  168SOL    HW1  727   0.879   0.606   1.431
  168SOL    HW2  728   0.794   0.681   1.313
  169SOL     OW  729   0.869   1.227   1.593
  169SOL    HW1  730   0.795   1.184   1.540
  169SOL    HW2  731   0.907   1.160   1.657
  170SOL     OW  732   1.569   1.957   0.096
  170SOL    HW1  733   1.658   1.954   0.141
  170SOL    HW2  734   1.572   1.905   0.011
  171SOL     OW  735   1.151   1.280   1.796
  171SOL    HW1  736   1.206   1.328   1.865
  171SOL    HW2  737   1.126   1.344   1.723
  172SOL     OW  738   1.939   0.461   1.016
  172SOL    HW1  739   1.848   0.453   1.058
  172SOL    HW2  740   1.945   0.547   0.966
  173SOL     OW  741   0.272   0.550   1.741
  173SOL    HW1  742   0.248   0.453   1.738
  173SOL    HW2  743   0.370   0.561   1.723
  174SOL     OW  744   0.697   0.733   0.149
  174SOL    HW1  745   0.686   0.634   0.159
  174SOL    HW2  746   0.645   0.780   0.221
  175SOL     OW  747   0.513   1.247   1.595
  175SOL    HW1  748   0.579   1.172   1.584
  175SOL    HW2  749   0.420   1.212   1.581
  176SOL     OW  750   1.364   0.599   0.894
  176SOL    HW1  751   1.320   0.676   0.942
  176SOL    HW2  752   1.375   0.523   0.957
  177SOL     OW  753   1.523   0.247   0.045
  177SOL    HW1  754   1.500   0.151   0.030
  177SOL    HW2  755   1.614   0.266   0.005
  178SOL     OW  756   0.879   0.788   0.633
  178SOL    HW1  757   0.968   0.810   0.672
  178SOL    HW2  758   0.808   0.839   0.681
  179SOL     OW  759   1.881   0.869   0.579
  179SOL    HW1  760   1.841   0.779   0.566
  179SOL    HW2  761   1.831   0.919   0.650
  180SOL     OW  762   0.311   0.137   1.185
  180SOL    HW1  763   0.380   0.066   1.197
  180SOL    HW2  764   0.305   0.192   1.268
  181SOL     OW  765   0.331   1.831   1.575
  181SOL    HW1  766   0.231   1.824   1.571
  181SOL    HW2  767   0.363   1.891   1.502
  182SOL     OW  768   1.274   1.359   0.828
  182SOL    HW1  769   1.356   1.402   0.789
  182SOL    HW2  770   1.196   1.376   0.767
  183SOL     OW  771   2.164   1.322   0.131
  183SOL    HW1  772   2.105   1.378   0.190
  183SOL    HW2  773   2.121   1.310   0.042
  184SOL     OW  774   1.266   1.228   1.074
  184SOL    HW1  775   1.260   1.267   0.983
  184SOL    HW2  776   1.245   1.130   1.070
  185SOL     OW  777   0.982   1.378   0.189
  185SOL    HW1  778   0.957   1.341   0.278
  185SOL    HW2  779   1.005   1.475   0.199
  186SOL     OW  780   1.766   1.777   0.518
  186SOL    HW1  781   1.667   1.767   0.527
  186SOL    HW2  782   1.787   1.836   0.441
  187SOL     OW  783   0.674   0.923   0.763
  187SOL    HW1  784   0.592   0.884   0.721
  187SOL    HW2  785   0.673   0.907   0.861
  188SOL     OW  786   0.763   2.105   0.272
  188SOL    HW1  787   0.837   2.172   0.282
  188SOL    HW2  788   0.709   2.104   0.356
  189SOL     OW  789   2.092   1.078   1.389
  189SOL    HW1  790   2.122   1.151   1.450
  189SOL    HW2  791   2.171   1.027   1.356
  190SOL     OW  792   0.555   2.194   0.094
  190SOL    HW1  793   0.644   2.181   0.138
  190SOL    HW2  794   0.563   0.063   0.022
  191SOL     OW  795   1.139   1.371   1.302
  191SOL    HW1  796   1.176   1.316   1.227
  191SOL    HW2  797   1.133   1.467   1.273
  192SOL     OW  798   0.473   1.722   0.176
  192SOL    HW1  799   0.563   1.681   0.164
  192SOL    HW2  800   0.457   1.789   0.104
  193SOL     OW  801   0.488   0.893   1.379
  193SOL    HW1  802   0.393   0.911   1.354
  193SOL    HW2  803   0.539   0.863   1.299
  194SOL     OW  804   1.493   1.473   0.710
  194SOL    HW1  805   1.568   1.413   0.680
  194SOL    HW2  806   1.483   1.548   0.645
  195SOL     OW  807   0.729   1.639   0.140
  195SOL    HW1  808   0.709   1.547   0.105
  195SOL    HW2  809   0.825   1.644   0.167
  196SOL     OW  810   1.644   2.133   1.972
  196SOL    HW1  811   1.616   2.037   1.972
  196SOL    HW2  812   1.720   2.146   2.035
  197SOL     OW  813   0.536   1.422   1.808
  197SOL    HW1  814   0.546   1.370   1.723
  197SOL    HW2  815   0.467   1.378   1.865
  198SOL     OW  816   0.635   1.400   0.036
  198SOL    HW1  817   0.545   1.430   0.003
  198SOL    HW2  818   0.626   1.311   0.082
  199SOL     OW  819   0.458   2.111   1.991
  199SOL    HW1  820   0.520   2.188   2.005
  199SOL    HW2  821   0.494   2.051   1.920
  200SOL     OW  822   0.910   0.491   0.072
  200SOL    HW1  823   0.819   0.472   0.109
  200SOL    HW2  824   0.906   0.489   2.173
  201SOL     OW  825   0.681   1.040   1.507
  201SOL    HW1  826   0.615   0.977   1.466
  201SOL    HW2  827   0.742   0.989   1.567
  202SOL     OW  828   1.909   0.990   1.987
  202SOL    HW1  829   1.815   1.013   1.962
  202SOL    HW2  830   1.958   1.073   2.012
  203SOL     OW  831   1.550   1.565   0.276
  203SOL    HW1  832   1.521   1.626   0.349
  203SOL    HW2  833   1.620   1.502   0.310
  204SOL     OW  834   0.232   1.405   0.144
  204SOL    HW1  835   0.134   1.387   0.149
  204SOL    HW2  836   0.282   1.324   0.175
  205SOL     OW  837   1.306   1.542   0.134
  205SOL    HW1  838   1.229   1.598   0.165
  205SOL    HW2  839   1.388   1.567   0.185
  206SOL     OW  840   1.325   2.174   0.900
  206SOL    HW1  841   1.369   2.093   0.861
  206SOL    HW2  842   1.396   0.036   0.934
  207SOL     OW  843   0.648   0.121   2.026
  207SOL    HW1  844   0.720   0.095   2.091
  207SOL    HW2  845   0.682   0.195   1.967
  208SOL     OW  846   1.522   0.786   1.416
  208SOL    HW1  847   1.434   0.828   1.397
  208SOL    HW2  848   1.566   0.834   1.493
  209SOL     OW  849   0.599   1.531   0.757
  209SOL    HW1  850   0.563   1.445   0.793
  209SOL    HW2  851   0.636   1.517   0.665
  210SOL     OW  852   1.010   1.100   1.970
  210SOL    HW1  853   1.059   1.178   1.930
  210SOL    HW2  854   0.987   1.035   1.897
  211SOL     OW  855   0.392   1.479   2.143
  211SOL    HW1  856   0.331   1.462   0.020
  211SOL    HW2  857   0.378   1.571   2.108
  212SOL     OW  858   0.349   1.724   2.026
  212SOL    HW1  859   0.396   1.795   2.079
  212SOL    HW2  860   0.391   1.716   1.936
  213SOL     OW  861   1.329   0.689   2.181
  213SOL    HW1  862   1.311   0.752   2.105
  213SOL    HW2  863   1.352   0.599   2.145
  214SOL     OW  864   1.941   0.050   1.469
  214SOL    HW1  865   2.040   0.049   1.482
  214SOL    HW2  866   1.898   0.101   1.544
  215SOL     OW  867   1.662   0.443   0.846
  215SOL    HW1  868   1.663   0.444   0.946
  215SOL    HW2  869   1.646   0.535   0.812
  216SOL     OW  870   0.897   1.628   1.636
  216SOL    HW1  871   0.955   1.550   1.615
  216SOL    HW2  872   0.896   1.644   1.735
  217SOL     OW  873   1.285   0.922   1.336
  217SOL    HW1  874   1.194   0.923   1.376
  217SOL    HW2  875   1.278   0.905   1.237
  218SOL     OW  876   0.388   1.972   0.693
  218SOL    HW1  877   0.459   1.921   0.742
  218SOL    HW2  878   0.309   1.986   0.754
  219SOL     OW  879   0.585   0.904   0.337
  219SOL    HW1  880   0.528   0.977   0.299
  219SOL    HW2  881   0.550   0.877   0.427
  220SOL     OW  882   1.523   1.682   0.906
  220SOL    HW1  883   1.428   1.664   0.933
  220SOL    HW2  884   1.550   1.615   0.837
  221SOL     OW  885   1.990   1.468   0.284
  221SOL    HW1  886   1.910   1.435   0.333
  221SOL    HW2  887   1.966   1.551   0.233
  222SOL     OW  888   0.610   2.121   0.502
  222SOL    HW1  889   0.672   2.101   0.577
  222SOL    HW2  890   0.544   2.191   0.530
  223SOL     OW  891   1.008   1.115   0.749
  223SOL    HW1  892   0.965   1.142   0.663
  223SOL    HW2  893   1.051   1.026   0.738
  224SOL     OW  894   1.114   0.625   1.214
  224SOL    HW1  895   1.154   0.704   1.168
  224SOL    HW2  896   1.033   0.654   1.266
  225SOL     OW  897   0.345   0.923   1.024
  225SOL    HW1  898   0.442   0.909   1.045
  225SOL    HW2  899   0.295   0.938   1.110
  226SOL     OW  900   0.519   0.662   0.882
  226SOL    HW1  901   0.554   0.728   0.948
  226SOL    HW2  902   0.481   0.711   0.804
  227SOL     OW  903   0.631   1.161   0.639
  227SOL    HW1  904   0.712   1.188   0.585
  227SOL    HW2  905   0.648   1.073   0.682
  228SOL     OW  906   0.200   0.628   1.314
  228SOL    HW1  907   0.287   0.599   1.354
  228SOL    HW2  908   0.197   0.728   1.310
  229SOL     OW  909   1.591   0.701   0.772
  229SOL    HW1  910   1.607   0.799   0.784
  229SOL    HW2  911   1.502   0.676   0.811
  230SOL     OW  912   0.632   0.583   1.245
  230SOL    HW1  913   0.676   0.499   1.212
  230SOL    HW2  914   0.642   0.655   1.176
  231SOL     OW  915   1.203   1.783   0.719
  231SOL    HW1  916   1.211   1.724   0.799
  231SOL    HW2  917   1.275   1.759   0.653
  232SOL     OW  918   1.465   0.875   0.116
  232SOL    HW1  919   1.419   0.803   0.065
  232SOL    HW2  920   1.539   0.835   0.170
  233SOL     OW  921   0.756   1.469   1.997
  233SOL    HW1  922   0.692   1.450   1.923
  233SOL    HW2  923   0.716   1.441   2.084
  234SOL     OW  924   0.654   0.454   0.168
  234SOL    HW1  925   0.663   0.394   0.248
  234SOL    HW2  926   0.558   0.471   0.150
  235SOL     OW  927   1.705   1.301   0.656
  235SOL    HW1  928   1.763   1.349   0.721
  235SOL    HW2  929   1.696   1.205   0.684
  236SOL     OW  930   0.459   1.694   1.782
  236SOL    HW1  931   0.489   1.600   1.772
  236SOL    HW2  932   0.412   1.724   1.699
  237SOL     OW  933   1.113   2.068   1.032
  237SOL    HW1  934   1.183   2.106   0.972
  237SOL    HW2  935   1.156   2.028   1.113
  238SOL     OW  936   2.084   2.066   0.704
  238SOL    HW1  937   2.160   2.051   0.767
  238SOL    HW2  938   2.001   2.087   0.756
  239SOL     OW  939   1.996   0.676   1.670
  239SOL    HW1  940   1.928   0.603   1.675
  239SOL    HW2  941   1.974   0.738   1.594
  240SOL     OW  942   1.972   1.739   1.097
  240SOL    HW1  943   2.021   1.753   1.011
  240SOL    HW2  944   1.975   1.642   1.122
  241SOL     OW  945   1.590   0.211   1.913
  241SOL    HW1  946   1.601   0.112   1.925
  241SOL    HW2  947   1.657   0.259   1.970
  242SOL     OW  948   0.280   0.306   1.391
  242SOL    HW1  949   0.248   0.276   1.481
  242SOL    HW2  950   0.337   0.387   1.401
  243SOL     OW  951   1.012   0.914   1.406
  243SOL    HW1  952   0.990   0.939   1.500
  243SOL    HW2  953   0.969   0.826   1.384
  244SOL     OW  954   1.533   0.980   1.071
  244SOL    HW1  955   1.439   0.949   1.054
  244SOL    HW2  956   1.579   0.993   0.984
  245SOL     OW  957   1.670   0.558   1.492
  245SOL    HW1  958   1.625   0.646   1.473
  245SOL    HW2  959   1.626   0.486   1.439
  246SOL     OW  960   1.917   0.822   1.202
  246SOL    HW1  961   1.825   0.788   1.183
  246SOL    HW2  962   1.929   0.836   1.300
  247SOL     OW  963   1.421   1.926   0.824
  247SOL    HW1  964   1.476   1.843   0.835
  247SOL    HW2  965   1.333   1.902   0.782
  248SOL     OW  966   1.632   0.216   0.705
  248SOL    HW1  967   1.678   0.138   0.747
  248SOL    HW2  968   1.646   0.298   0.761
  249SOL     OW  969   0.994   0.443   0.382
  249SOL    HW1  970   0.977   0.351   0.347
  249SOL    HW2  971   0.907   0.490   0.395
  250SOL     OW  972   0.219   0.910   0.381
  250SOL    HW1  973   0.263   0.984   0.331
  250SOL    HW2  974   0.277   0.880   0.456
  251SOL     OW  975   1.068   0.651   1.666
  251SOL    HW1  976   1.001   0.582   1.637
  251SOL    HW2  977   1.025   0.741   1.663
  252SOL     OW  978   1.149   0.359   0.030
  252SOL    HW1  979   1.129   0.287   2.163
  252SOL    HW2  980   1.064   0.397   0.065
  253SOL     OW  981   1.802   0.480   1.712
  253SOL    HW1  982   1.807   0.380   1.709
  253SOL    HW2  983   1.751   0.513   1.633
  254SOL     OW  984   0.203   1.256   0.620
  254SOL    HW1  985   0.289   1.272   0.571
  254SOL    HW2  986   0.160   1.344   0.640
  255SOL     OW  987   0.943   0.471   2.002
  255SOL    HW1  988   1.006   0.546   1.980
  255SOL    HW2  989   0.991   0.384   1.994
  256SOL     OW  990   1.114   0.677   1.934
  256SOL    HW1  991   1.093   0.676   1.836
  256SOL    HW2  992   1.155   0.764   1.959
  257SOL     OW  993   1.401   1.146   2.070
  257SOL    HW1  994   1.491   1.142   2.026
  257SOL    HW2  995   1.355   1.231   2.043
  258SOL     OW  996   1.394   1.586   1.367
  258SOL    HW1  997   1.424   1.637   1.448
  258SOL    HW2  998   1.308   1.624   1.334
  259SOL     OW  999   0.740   0.327   1.190
  259SOL    HW1 1000   0.792   0.331   1.275
  259SOL    HW2 1001   0.733   0.231   1.160
  260SOL     OW 1002   0.692   0.077   1.073
  260SOL    HW1 1003   0.631   0.028   1.135
  260SOL    HW2 1004   0.760   0.014   1.036
  261SOL     OW 1005   0.851   0.006   1.326
  261SOL    HW1 1006   0.760   2.174   1.302
  261SOL    HW2 1007   0.885   2.155   1.404
  262SOL     OW 1008   1.856   2.118   2.153
  262SOL    HW1 1009   1.943   2.166   2.142
  262SOL    HW2 1010   1.851   2.078   0.044
  263CL      CL 1011   1.061   0.170   1.988
  264CL      CL 1012   0.387   0.150   0.556
  265CL      CL 1013   1.444   1.730   0.522
  266CL      CL 1014   1.800   0.338   2.126
  267CL      CL 1015   1.685   1.007   0.791
  268CL      CL 1016   0.418   0.804   0.612
  269CL      CL 1017   1.117   1.686   1.227
  270CL      CL 1018   0.004   1.784   1.525
  271CL      CL 1019   0.917   0.929   1.713
  272CL      CL 1020   1.233   0.871   1.027
  273CL      CL 1021   1.814   0.001   0.867
  274CL      CL 1022   0.538   2.089   1.273
  275CL      CL 1023   0.140   1.988   0.889
  276CL      CL 1024   0.997   0.120   0.314
  277CL      CL 1025   1.699   0.736   0.265
  278CL      CL 1026   0.055   1.518   0.723
  279CL      CL 1027   0.386   1.127   0.210
  280CL      CL 1028   0.227   0.230   1.697
  281CL      CL 1029   1.850   1.969   0.242
  282CL      CL 1030   0.889   1.241   0.467
  283CL      CL 1031   1.499   0.337   1.344
  284CL      CL 1032   2.011   1.281   2.062
  285CL      CL 1033   0.020   1.298   1.577
  286CL      CL 1034   0.830   0.447   1.581
  287CL      CL 1035   1.581   1.815   2.012
  288CL      CL 1036   1.676   0.907   1.665
  289CL      CL 1037   0.178   0.953   1.291
  290CL      CL 1038   1.413   2.058   1.521
  291CL      CL 1039   0.659   0.862   1.089
  292CL      CL 1040   2.153   0.016   2.092
  293CL      CL 1041   1.029   1.692   0.228
  294CL      CL 1042   0.337   0.542   0.164
   2.20000   2.20000   2.20000
