PNI in water
33614
    1CT1    CH1    1   0.740   3.150   3.477
    1CT1    CH1    2   0.759   3.288   3.413
    1CT1    CH1    3   0.881   3.363   3.468
    1CT1    CH1    4   0.934   3.489   3.399
    1CT1    CH1    5   1.016   3.580   3.492
    1CT2    CH2    6   1.140   3.651   3.436
    1CT2    CH2    7   1.244   3.708   3.535
    1CT2    CH2    8   1.393   3.703   3.501
    1CT2    CH2    9   1.494   3.792   3.577
    1CT2    CH2   10   1.630   3.728   3.605
    1CT1    CH1   11   1.777   3.775   3.610
    1CT1    CH1   12   1.873   3.665   3.565
    1CT1    CH1   13   2.027   3.673   3.587
    1CT1    CH1   14   2.101   3.544   3.624
    1CT1    CH1   15   2.244   3.515   3.575
    1CT2    CH2   16   2.348   3.480   3.683
    1CT2    CH2   17   2.495   3.518   3.660
    1CT2    CH2   18   2.612   3.454   3.736
    1CT2    CH2   19   2.748   3.496   3.678
    1CT2    CH2   20   2.859   3.393   3.656
    1CT1    CH1   21   2.998   3.458   3.643
    1CT1    CH1   22   3.113   3.389   3.569
    1CT1    CH1   23   3.199   3.428   3.448
    1CT1    CH1   24   3.330   3.352   3.465
    1CT1    CH1   25   3.470   3.383   3.411
    1CT2    CH2   26   3.574   3.375   3.524
    1CT2    CH2   27   3.697   3.466   3.527
    1CT2    CH2   28   3.832   3.402   3.562
    1CT2    CH2   29   3.917   3.492   3.651
    1CT2    CH2   30   4.049   3.423   3.688
    1CT1    CH1   31   4.177   3.495   3.729
    1CT1    CH1   32   4.297   3.429   3.661
    1CT1    CH1   33   4.432   3.500   3.668
    1CT1    CH1   34   4.511   3.455   3.545
    1CT1    CH1   35   4.644   3.530   3.534
    1CT2    CH2   36   4.706   3.508   3.395
    1CT2    CH2   37   4.850   3.559   3.392
    1CT2    CH2   38   4.949   3.465   3.321
    1CT2    CH2   39   5.089   3.518   3.348
    1CT2    CH2   40   5.218   3.473   3.278
    1CT1    CH1   41   5.329   3.532   3.365
    1CT1    CH1   42   5.438   3.621   3.306
    1CT1    CH1   43   5.536   3.676   3.411
    1CT1    CH1   44   5.674   3.710   3.355
    1CT1    CH1   45   5.796   3.644   3.420
    1CT2    CH2   46   5.939   3.675   3.375
    1CT2    CH2   47   6.048   3.574   3.412
    1CT2    CH2   48   6.181   3.623   3.354
    1CT2    CH2   49   6.314   3.601   3.426
    1CT2    CH2   50   6.424   3.565   3.325
    2SOL     OW   51   0.218   0.662   0.123
    2SOL    HW1   52   0.152   0.598   0.163
    2SOL    HW2   53   0.249   0.627   0.035
    3SOL     OW   54   0.222   0.288   0.985
    3SOL    HW1   55   0.280   0.249   1.056
    3SOL    HW2   56   0.127   0.260   1.001
    4SOL     OW   57   6.993   0.390   0.657
    4SOL    HW1   58   6.938   0.409   0.739
    4SOL    HW2   59   0.023   0.295   0.658
    5SOL     OW   60   0.569   1.295   1.185
    5SOL    HW1   61   0.479   1.292   1.142
    5SOL    HW2   62   0.586   1.388   1.219
    6SOL     OW   63   1.562   1.514   0.707
    6SOL    HW1   64   1.520   1.489   0.794
    6SOL    HW2   65   1.492   1.518   0.636
    7SOL     OW   66   1.133   0.701   0.696
    7SOL    HW1   67   1.186   0.784   0.680
    7SOL    HW2   68   1.082   0.710   0.781
    8SOL     OW   69   1.783   0.583   0.202
    8SOL    HW1   70   1.717   0.632   0.145
    8SOL    HW2   71   1.736   0.515   0.258
    9SOL     OW   72   0.745   1.141   1.040
    9SOL    HW1   73   0.676   1.176   1.104
    9SOL    HW2   74   0.789   1.219   0.994
   10SOL     OW   75   0.870   0.767   1.819
   10SOL    HW1   76   0.861   0.835   1.892
   10SOL    HW2   77   0.896   0.812   1.734
   11SOL     OW   78   0.682   1.000   0.651
   11SOL    HW1   79   0.754   0.989   0.720
   11SOL    HW2   80   0.608   1.055   0.688
   12SOL     OW   81   0.712   1.152   1.818
   12SOL    HW1   82   0.765   1.231   1.851
   12SOL    HW2   83   0.628   1.184   1.776
   13SOL     OW   84   0.332   1.421   1.065
   13SOL    HW1   85   0.255   1.380   1.017
   13SOL    HW2   86   0.384   1.478   1.001
   14SOL     OW   87   1.458   1.501   1.357
   14SOL    HW1   88   1.515   1.583   1.364
   14SOL    HW2   89   1.388   1.503   1.428
   15SOL     OW   90   0.451   0.404   1.492
   15SOL    HW1   91   0.536   0.351   1.491
   15SOL    HW2   92   0.373   0.343   1.504
   16SOL     OW   93   1.615   0.460   0.732
   16SOL    HW1   94   1.551   0.487   0.660
   16SOL    HW2   95   1.626   0.534   0.797
   17SOL     OW   96   0.199   1.750   0.468
   17SOL    HW1   97   0.241   1.815   0.531
   17SOL    HW2   98   0.269   1.704   0.415
   18SOL     OW   99   1.137   1.340   1.697
   18SOL    HW1  100   1.183   1.338   1.786
   18SOL    HW2  101   1.081   1.257   1.687
   19SOL     OW  102   0.266   1.464   0.540
   19SOL    HW1  103   0.240   1.558   0.564
   19SOL    HW2  104   0.224   1.400   0.603
   20SOL     OW  105   0.271   1.083   0.909
   20SOL    HW1  106   0.265   0.987   0.937
   20SOL    HW2  107   0.198   1.136   0.952
   21SOL     OW  108   0.602   1.796   1.427
   21SOL    HW1  109   0.517   1.773   1.474
   21SOL    HW2  110   0.632   1.887   1.455
   22SOL     OW  111   0.585   0.968   0.147
   22SOL    HW1  112   0.642   0.990   0.068
   22SOL    HW2  113   0.622   1.012   0.228
   23SOL     OW  114   1.579   0.132   1.447
   23SOL    HW1  115   1.590   0.226   1.416
   23SOL    HW2  116   1.601   0.126   1.545
   24SOL     OW  117   0.133   0.619   0.568
   24SOL    HW1  118   0.069   0.546   0.592
   24SOL    HW2  119   0.124   0.694   0.633
   25SOL     OW  120   1.846   1.764   0.346
   25SOL    HW1  121   1.912   1.730   0.413
   25SOL    HW2  122   1.847   1.864   0.345
   26SOL     OW  123   6.973   1.552   0.120
   26SOL    HW1  124   6.969   1.457   0.150
   26SOL    HW2  125   0.019   1.607   0.190
   27SOL     OW  126   1.691   0.916   0.648
   27SOL    HW1  127   1.774   0.864   0.629
   27SOL    HW2  128   1.668   0.973   0.569
   28SOL     OW  129   1.653   1.099   0.444
   28SOL    HW1  130   1.724   1.118   0.375
   28SOL    HW2  131   1.660   1.167   0.517
   29SOL     OW  132   0.145   0.734   1.576
   29SOL    HW1  133   0.244   0.742   1.562
   29SOL    HW2  134   0.109   0.821   1.608
   30SOL     OW  135   0.611   1.389   0.736
   30SOL    HW1  136   0.564   1.302   0.750
   30SOL    HW2  137   0.601   1.418   0.641
   31SOL     OW  138   1.289   1.235   1.422
   31SOL    HW1  139   1.316   1.165   1.356
   31SOL    HW2  140   1.348   1.231   1.502
   32SOL     OW  141   0.833   0.027   0.521
   32SOL    HW1  142   0.874   0.115   0.501
   32SOL    HW2  143   0.733   0.035   0.520
   33SOL     OW  144   0.203   0.960   1.263
   33SOL    HW1  145   0.287   0.908   1.245
   33SOL    HW2  146   0.132   0.932   1.199
   34SOL     OW  147   1.490   1.014   0.209
   34SOL    HW1  148   1.425   0.948   0.245
   34SOL    HW2  149   1.575   1.010   0.261
   35SOL     OW  150   1.183   1.810   1.622
   35SOL    HW1  151   1.190   1.879   1.549
   35SOL    HW2  152   1.202   1.720   1.585
   36SOL     OW  153   0.328   0.267   1.807
   36SOL    HW1  154   0.388   0.333   1.853
   36SOL    HW2  155   0.237   0.269   1.850
   37SOL     OW  156   1.464   1.421   0.947
   37SOL    HW1  157   1.397   1.439   1.019
   37SOL    HW2  158   1.457   1.325   0.919
   38SOL     OW  159   1.649   1.748   0.580
   38SOL    HW1  160   1.628   1.722   0.486
   38SOL    HW2  161   1.627   1.672   0.642
   39SOL     OW  162   0.594   0.716   0.263
   39SOL    HW1  163   0.600   0.806   0.220
   39SOL    HW2  164   0.530   0.719   0.339
   40SOL     OW  165   1.283   0.366   0.949
   40SOL    HW1  166   1.186   0.343   0.952
   40SOL    HW2  167   1.332   0.315   1.020
   41SOL     OW  168   1.583   1.678   0.317
   41SOL    HW1  169   1.682   1.692   0.311
   41SOL    HW2  170   1.544   1.675   0.224
   42SOL     OW  171   0.793   0.616   1.456
   42SOL    HW1  172   0.765   0.590   1.549
   42SOL    HW2  173   0.754   0.551   1.390
   43SOL     OW  174   1.394   0.473   1.680
   43SOL    HW1  175   1.392   0.519   1.768
   43SOL    HW2  176   1.451   0.392   1.686
   44SOL     OW  177   0.953   0.885   1.582
   44SOL    HW1  178   1.011   0.814   1.544
   44SOL    HW2  179   0.900   0.927   1.509
   45SOL     OW  180   0.995   0.412   1.228
   45SOL    HW1  181   0.909   0.435   1.274
   45SOL    HW2  182   0.975   0.362   1.144
   46SOL     OW  183   1.052   0.699   0.427
   46SOL    HW1  184   1.074   0.696   0.524
   46SOL    HW2  185   0.964   0.654   0.412
   47SOL     OW  186   0.105   0.816   0.771
   47SOL    HW1  187   0.196   0.804   0.813
   47SOL    HW2  188   0.044   0.861   0.837
   48SOL     OW  189   0.121   1.869   1.590
   48SOL    HW1  190   0.131   1.843   1.686
   48SOL    HW2  191   0.031   1.840   1.557
   49SOL     OW  192   0.886   0.369   0.209
   49SOL    HW1  193   0.930   0.423   0.138
   49SOL    HW2  194   0.871   0.275   0.177
   50SOL     OW  195   1.702   0.573   1.825
   50SOL    HW1  196   1.665   0.652   1.777
   50SOL    HW2  197   1.730   0.503   1.759
   51SOL     OW  198   1.381   1.141   0.547
   51SOL    HW1  199   1.466   1.131   0.496
   51SOL    HW2  200   1.323   1.210   0.503
   52SOL     OW  201   0.508   0.197   0.907
   52SOL    HW1  202   0.551   0.223   0.993
   52SOL    HW2  203   0.533   0.264   0.836
   53SOL     OW  204   0.990   1.440   0.471
   53SOL    HW1  205   0.959   1.521   0.422
   53SOL    HW2  206   0.973   1.453   0.569
   54SOL     OW  207   0.358   1.816   0.866
   54SOL    HW1  208   0.397   1.724   0.877
   54SOL    HW2  209   0.427   1.884   0.890
   55SOL     OW  210   1.799   1.055   0.873
   55SOL    HW1  211   1.749   1.034   0.789
   55SOL    HW2  212   1.736   1.061   0.950
   56SOL     OW  213   1.227   1.536   1.514
   56SOL    HW1  214   1.214   1.462   1.580
   56SOL    HW2  215   1.159   1.528   1.441
   57SOL     OW  216   0.308   0.941   0.225
   57SOL    HW1  217   0.400   0.961   0.191
   57SOL    HW2  218   0.282   0.848   0.198
   58SOL     OW  219   1.483   0.747   0.725
   58SOL    HW1  220   1.478   0.705   0.816
   58SOL    HW2  221   1.563   0.807   0.720
   59SOL     OW  222   0.472   1.260   1.728
   59SOL    HW1  223   0.444   1.270   1.632
   59SOL    HW2  224   0.391   1.262   1.786
   60SOL     OW  225   1.119   1.766   0.236
   60SOL    HW1  226   1.049   1.721   0.291
   60SOL    HW2  227   1.156   1.701   0.170
   61SOL     OW  228   0.205   0.279   1.511
   61SOL    HW1  229   0.146   0.359   1.502
   61SOL    HW2  230   0.207   0.249   1.606
   62SOL     OW  231   1.622   1.428   0.073
   62SOL    HW1  232   1.583   1.519   0.087
   62SOL    HW2  233   1.558   1.359   0.108
   63SOL     OW  234   0.482   1.712   0.352
   63SOL    HW1  235   0.513   1.787   0.411
   63SOL    HW2  236   0.559   1.679   0.297
   64SOL     OW  237   1.425   0.132   0.425
   64SOL    HW1  238   1.410   0.062   0.355
   64SOL    HW2  239   1.523   0.141   0.443
   65SOL     OW  240   0.259   1.794   1.224
   65SOL    HW1  241   0.310   1.721   1.269
   65SOL    HW2  242   0.215   1.759   1.141
   66SOL     OW  243   0.936   1.702   0.897
   66SOL    HW1  244   1.019   1.654   0.927
   66SOL    HW2  245   0.893   1.650   0.824
   67SOL     OW  246   0.401   0.687   0.468
   67SOL    HW1  247   0.428   0.593   0.487
   67SOL    HW2  248   0.304   0.699   0.490
   68SOL     OW  249   1.530   0.230   1.727
   68SOL    HW1  250   1.544   0.236   1.826
   68SOL    HW2  251   1.444   0.181   1.709
   69SOL     OW  252   0.624   0.120   0.110
   69SOL    HW1  253   0.724   0.109   0.117
   69SOL    HW2  254   0.599   0.129   0.013
   70SOL     OW  255   0.762   0.277   1.764
   70SOL    HW1  256   0.850   0.229   1.759
   70SOL    HW2  257   0.707   0.237   1.838
   71SOL     OW  258   0.876   1.516   1.192
   71SOL    HW1  259   0.856   1.479   1.101
   71SOL    HW2  260   0.949   1.461   1.234
   72SOL     OW  261   1.342   0.591   1.437
   72SOL    HW1  262   1.372   0.556   1.526
   72SOL    HW2  263   1.377   0.684   1.424
   73SOL     OW  264   0.819   1.390   0.941
   73SOL    HW1  265   0.909   1.378   0.898
   73SOL    HW2  266   0.749   1.394   0.870
   74SOL     OW  267   0.927   0.510   0.897
   74SOL    HW1  268   0.899   0.504   0.801
   74SOL    HW2  269   0.960   0.421   0.927
   75SOL     OW  270   0.571   0.066   0.490
   75SOL    HW1  271   0.492   0.054   0.550
   75SOL    HW2  272   0.553   0.139   0.424
   76SOL     OW  273   1.419   1.212   0.013
   76SOL    HW1  274   1.449   1.132   0.064
   76SOL    HW2  275   1.335   1.248   0.055
   77SOL     OW  276   0.308   0.088   0.172
   77SOL    HW1  277   0.369   0.161   0.205
   77SOL    HW2  278   0.304   0.015   0.239
   78SOL     OW  279   0.951   0.264   0.458
   78SOL    HW1  280   0.919   0.304   0.372
   78SOL    HW2  281   1.051   0.273   0.463
   79SOL     OW  282   1.080   0.683   1.455
   79SOL    HW1  283   1.005   0.618   1.465
   79SOL    HW2  284   1.167   0.634   1.454
   80SOL     OW  285   1.219   1.570   0.795
   80SOL    HW1  286   1.234   1.638   0.724
   80SOL    HW2  287   1.291   1.576   0.864
   81SOL     OW  288   0.468   1.151   0.735
   81SOL    HW1  289   0.400   1.130   0.805
   81SOL    HW2  290   0.429   1.136   0.644
   82SOL     OW  291   1.263   1.792   0.609
   82SOL    HW1  292   1.317   1.855   0.553
   82SOL    HW2  293   1.191   1.843   0.656
   83SOL     OW  294   1.057   0.561   0.033
   83SOL    HW1  295   0.967   0.604   0.047
   83SOL    HW2  296   1.110   0.567   0.117
   84SOL     OW  297   0.081   0.540   1.382
   84SOL    HW1  298   0.176   0.542   1.348
   84SOL    HW2  299   0.069   0.613   1.449
   85SOL     OW  300   0.581   0.240   1.169
   85SOL    HW1  301   0.632   0.166   1.211
   85SOL    HW2  302   0.485   0.236   1.198
   86SOL     OW  303   0.866   0.463   0.638
   86SOL    HW1  304   0.818   0.524   0.575
   86SOL    HW2  305   0.894   0.380   0.589
   87SOL     OW  306   0.959   0.028   0.771
   87SOL    HW1  307   0.904   0.029   0.688
   87SOL    HW2  308   1.030   6.958   0.764
   88SOL     OW  309   1.446   1.161   0.860
   88SOL    HW1  310   1.369   1.097   0.861
   88SOL    HW2  311   1.480   1.173   0.767
   89SOL     OW  312   1.466   0.608   0.972
   89SOL    HW1  313   1.406   0.529   0.973
   89SOL    HW2  314   1.530   0.603   1.049
   90SOL     OW  315   1.829   0.804   0.391
   90SOL    HW1  316   1.890   0.745   0.444
   90SOL    HW2  317   1.822   0.771   0.298
   91SOL     OW  318   0.477   1.418   0.172
   91SOL    HW1  319   0.435   1.353   0.236
   91SOL    HW2  320   0.426   1.417   0.086
   92SOL     OW  321   1.671   1.265   0.654
   92SOL    HW1  322   1.771   1.264   0.661
   92SOL    HW2  323   1.638   1.359   0.666
   93SOL     OW  324   1.390   0.557   0.066
   93SOL    HW1  325   1.334   0.549   0.148
   93SOL    HW2  326   1.463   0.490   0.069
   94SOL     OW  327   0.510   0.260   0.305
   94SOL    HW1  328   0.563   0.205   0.240
   94SOL    HW2  329   0.493   0.350   0.266
   95SOL     OW  330   1.753   1.240   1.563
   95SOL    HW1  331   1.843   1.198   1.550
   95SOL    HW2  332   1.764   1.334   1.596
   96SOL     OW  333   1.054   1.350   1.336
   96SOL    HW1  334   0.973   1.320   1.386
   96SOL    HW2  335   1.135   1.310   1.378
   97SOL     OW  336   1.613   1.629   1.657
   97SOL    HW1  337   1.598   1.664   1.564
   97SOL    HW2  338   1.699   1.578   1.659
   98SOL     OW  339   1.136   1.218   1.105
   98SOL    HW1  340   1.076   1.252   1.178
   98SOL    HW2  341   1.102   1.248   1.016
   99SOL     OW  342   1.624   1.097   1.079
   99SOL    HW1  343   1.620   1.162   1.155
   99SOL    HW2  344   1.549   1.113   1.016
  100SOL     OW  345   0.895   0.148   1.388
  100SOL    HW1  346   0.912   0.111   1.297
  100SOL    HW2  347   0.982   0.176   1.429
  101SOL     OW  348   0.980   1.114   1.721
  101SOL    HW1  349   0.886   1.134   1.748
  101SOL    HW2  350   0.982   1.032   1.664
  102SOL     OW  351   0.713   1.058   0.376
  102SOL    HW1  352   0.695   1.042   0.473
  102SOL    HW2  353   0.793   1.005   0.347
  103SOL     OW  354   0.429   0.807   1.249
  103SOL    HW1  355   0.500   0.822   1.318
  103SOL    HW2  356   0.388   0.717   1.262
  104SOL     OW  357   1.261   0.379   1.285
  104SOL    HW1  358   1.298   0.458   1.334
  104SOL    HW2  359   1.166   0.398   1.260
  105SOL     OW  360   0.068   1.566   1.318
  105SOL    HW1  361   0.018   1.651   1.332
  105SOL    HW2  362   0.165   1.580   1.340
  106SOL     OW  363   0.355   1.100   0.494
  106SOL    HW1  364   0.336   1.174   0.430
  106SOL    HW2  365   0.361   1.013   0.444
  107SOL     OW  366   0.552   0.548   0.863
  107SOL    HW1  367   0.566   0.606   0.783
  107SOL    HW2  368   0.621   0.567   0.931
  108SOL     OW  369   1.237   1.343   0.408
  108SOL    HW1  370   1.300   1.417   0.432
  108SOL    HW2  371   1.145   1.368   0.437
  109SOL     OW  372   1.286   1.461   1.147
  109SOL    HW1  373   1.345   1.467   1.228
  109SOL    HW2  374   1.232   1.378   1.151
  110SOL     OW  375   1.583   0.632   0.483
  110SOL    HW1  376   1.528   0.681   0.551
  110SOL    HW2  377   1.643   0.697   0.437
  111SOL     OW  378   0.351   1.533   1.310
  111SOL    HW1  379   0.331   1.486   1.224
  111SOL    HW2  380   0.450   1.545   1.319
  112SOL     OW  381   0.424   0.734   1.598
  112SOL    HW1  382   0.482   0.789   1.538
  112SOL    HW2  383   0.471   0.649   1.621
  113SOL     OW  384   1.608   0.785   1.684
  113SOL    HW1  385   1.516   0.826   1.682
  113SOL    HW2  386   1.664   0.825   1.613
  114SOL     OW  387   0.997   0.135   1.735
  114SOL    HW1  388   1.039   0.183   1.658
  114SOL    HW2  389   1.001   0.037   1.721
  115SOL     OW  390   0.470   0.040   1.757
  115SOL    HW1  391   0.412   6.970   1.717
  115SOL    HW2  392   0.417   0.124   1.771
  116SOL     OW  393   0.587   0.872   1.032
  116SOL    HW1  394   0.619   0.967   1.028
  116SOL    HW2  395   0.528   0.860   1.111
  117SOL     OW  396   1.353   0.857   1.026
  117SOL    HW1  397   1.263   0.851   0.982
  117SOL    HW2  398   1.400   0.770   1.018
  118SOL     OW  399   1.199   0.523   0.272
  118SOL    HW1  400   1.216   0.444   0.331
  118SOL    HW2  401   1.158   0.597   0.326
  119SOL     OW  402   0.324   0.213   1.246
  119SOL    HW1  403   0.274   0.234   1.330
  119SOL    HW2  404   0.297   0.123   1.213
  120SOL     OW  405   0.096   1.307   1.264
  120SOL    HW1  406   0.104   1.245   1.342
  120SOL    HW2  407   0.086   1.401   1.297
  121SOL     OW  408   0.729   0.636   1.055
  121SOL    HW1  409   0.804   0.614   0.993
  121SOL    HW2  410   0.693   0.727   1.034
  122SOL     OW  411   1.736   0.960   1.856
  122SOL    HW1  412   1.692   0.892   1.796
  122SOL    HW2  413   1.676   0.979   1.933
  123SOL     OW  414   0.343   0.062   0.625
  123SOL    HW1  415   0.313   0.146   0.670
  123SOL    HW2  416   0.289   6.985   0.658
  124SOL     OW  417   1.626   0.396   0.355
  124SOL    HW1  418   1.658   0.321   0.413
  124SOL    HW2  419   1.600   0.474   0.412
  125SOL     OW  420   1.025   0.756   0.958
  125SOL    HW1  421   1.020   0.778   1.056
  125SOL    HW2  422   0.997   0.661   0.944
  126SOL     OW  423   0.982   1.563   1.717
  126SOL    HW1  424   0.965   1.611   1.631
  126SOL    HW2  425   1.030   1.477   1.699
  127SOL     OW  426   1.855   1.504   1.604
  127SOL    HW1  427   1.873   1.530   1.509
  127SOL    HW2  428   1.938   1.516   1.658
  128SOL     OW  429   0.364   0.917   1.798
  128SOL    HW1  430   0.441   0.942   1.857
  128SOL    HW2  431   0.394   0.848   1.732
  129SOL     OW  432   1.522   0.267   0.139
  129SOL    HW1  433   1.448   0.203   0.160
  129SOL    HW2  434   1.552   0.311   0.223
  130SOL     OW  435   1.290   0.821   0.032
  130SOL    HW1  436   1.339   0.734   0.024
  130SOL    HW2  437   1.318   0.882   6.958
  131SOL     OW  438   1.069   1.337   0.854
  131SOL    HW1  439   1.073   1.259   0.792
  131SOL    HW2  440   1.129   1.410   0.821
  132SOL     OW  441   0.320   0.802   0.942
  132SOL    HW1  442   0.417   0.829   0.941
  132SOL    HW2  443   0.312   0.709   0.977
  133SOL     OW  444   0.332   0.529   1.012
  133SOL    HW1  445   0.288   0.440   0.995
  133SOL    HW2  446   0.413   0.538   0.955
  134SOL     OW  447   1.125   0.410   1.672
  134SOL    HW1  448   1.077   0.453   1.748
  134SOL    HW2  449   1.223   0.430   1.679
  135SOL     OW  450   1.137   0.224   1.485
  135SOL    HW1  451   1.136   0.298   1.551
  135SOL    HW2  452   1.193   0.250   1.406
  136SOL     OW  453   6.994   1.299   0.221
  136SOL    HW1  454   6.924   1.323   0.289
  136SOL    HW2  455   0.025   1.205   0.237
  137SOL     OW  456   0.097   1.759   0.948
  137SOL    HW1  457   0.075   1.686   0.884
  137SOL    HW2  458   0.184   1.800   0.922
  138SOL     OW  459   0.494   1.577   0.904
  138SOL    HW1  460   0.564   1.643   0.931
  138SOL    HW2  461   0.534   1.508   0.844
  139SOL     OW  462   0.977   0.794   1.224
  139SOL    HW1  463   1.036   0.769   1.301
  139SOL    HW2  464   0.887   0.752   1.236
  140SOL     OW  465   0.051   0.599   1.108
  140SOL    HW1  466   0.132   0.563   1.062
  140SOL    HW2  467   0.057   0.580   1.206
  141SOL     OW  468   0.203   0.521   1.726
  141SOL    HW1  469   0.290   0.482   1.695
  141SOL    HW2  470   0.184   0.605   1.676
  142SOL     OW  471   1.380   0.936   1.655
  142SOL    HW1  472   1.403   1.033   1.656
  142SOL    HW2  473   1.377   0.904   1.560
  143SOL     OW  474   0.814   0.578   0.372
  143SOL    HW1  475   0.827   0.498   0.313
  143SOL    HW2  476   0.733   0.628   0.343
  144SOL     OW  477   1.642   0.605   1.181
  144SOL    HW1  478   1.623   0.544   1.259
  144SOL    HW2  479   1.733   0.585   1.145
  145SOL     OW  480   0.285   1.560   1.740
  145SOL    HW1  481   0.229   1.627   1.789
  145SOL    HW2  482   0.265   1.469   1.776
  146SOL     OW  483   0.706   0.462   1.257
  146SOL    HW1  484   0.656   0.381   1.228
  146SOL    HW2  485   0.707   0.529   1.183
  147SOL     OW  486   0.922   1.681   1.471
  147SOL    HW1  487   0.895   1.635   1.386
  147SOL    HW2  488   0.920   1.780   1.457
  148SOL     OW  489   0.455   0.493   0.181
  148SOL    HW1  490   0.511   0.573   0.203
  148SOL    HW2  491   0.360   0.513   0.206
  149SOL     OW  492   0.165   1.123   1.470
  149SOL    HW1  493   0.155   1.062   1.548
  149SOL    HW2  494   0.179   1.068   1.387
  150SOL     OW  495   1.316   1.044   1.220
  150SOL    HW1  496   1.344   0.976   1.152
  150SOL    HW2  497   1.248   1.106   1.179
  151SOL     OW  498   1.301   0.844   0.306
  151SOL    HW1  499   1.219   0.817   0.357
  151SOL    HW2  500   1.287   0.826   0.209
  152SOL     OW  501   1.780   1.731   1.156
  152SOL    HW1  502   1.841   1.765   1.085
  152SOL    HW2  503   1.749   1.639   1.132
  153SOL     OW  504   1.242   1.733   1.107
  153SOL    HW1  505   1.327   1.761   1.063
  153SOL    HW2  506   1.246   1.636   1.130
  154SOL     OW  507   0.071   1.246   1.006
  154SOL    HW1  508   0.088   1.265   1.102
  154SOL    HW2  509   6.973   1.231   0.991
  155SOL     OW  510   0.681   1.673   1.736
  155SOL    HW1  511   0.617   1.750   1.731
  155SOL    HW2  512   0.752   1.685   1.666
  156SOL     OW  513   0.894   0.110   0.128
  156SOL    HW1  514   0.983   0.138   0.092
  156SOL    HW2  515   0.905   0.032   0.189
  157SOL     OW  516   1.719   0.174   0.483
  157SOL    HW1  517   1.796   0.146   0.426
  157SOL    HW2  518   1.704   0.106   0.555
  158SOL     OW  519   1.389   1.566   0.490
  158SOL    HW1  520   1.456   1.592   0.420
  158SOL    HW2  521   1.339   1.647   0.520
  159SOL     OW  522   0.139   1.786   1.852
  159SOL    HW1  523   0.094   1.712   1.903
  159SOL    HW2  524   0.194   1.841   1.915
  160SOL     OW  525   1.282   0.924   0.669
  160SOL    HW1  526   1.357   0.859   0.684
  160SOL    HW2  527   1.316   1.002   0.617
  161SOL     OW  528   0.805   1.278   1.427
  161SOL    HW1  529   0.776   1.321   1.512
  161SOL    HW2  530   0.735   1.294   1.357
  162SOL     OW  531   0.674   1.604   0.192
  162SOL    HW1  532   0.681   1.649   0.102
  162SOL    HW2  533   0.616   1.523   0.183
  163SOL     OW  534   1.618   1.728   1.387
  163SOL    HW1  535   1.675   1.729   1.305
  163SOL    HW2  536   1.603   1.822   1.419
  164SOL     OW  537   1.866   0.162   0.955
  164SOL    HW1  538   1.864   0.062   0.945
  164SOL    HW2  539   1.775   0.199   0.938
  165SOL     OW  540   0.285   0.337   0.716
  165SOL    HW1  541   0.198   0.378   0.690
  165SOL    HW2  542   0.282   0.310   0.813
  166SOL     OW  543   1.217   1.596   0.036
  166SOL    HW1  544   1.211   1.502   0.069
  166SOL    HW2  545   1.130   1.622   6.993
  167SOL     OW  546   0.823   1.010   1.378
  167SOL    HW1  547   0.873   0.995   1.292
  167SOL    HW2  548   0.820   1.108   1.397
  168SOL     OW  549   0.923   0.914   0.293
  168SOL    HW1  550   0.978   0.942   0.215
  168SOL    HW2  551   0.970   0.841   0.343
  169SOL     OW  552   1.480   1.670   0.048
  169SOL    HW1  553   1.384   1.641   0.041
  169SOL    HW2  554   1.524   1.661   6.959
  170SOL     OW  555   0.372   1.307   1.486
  170SOL    HW1  556   0.359   1.388   1.429
  170SOL    HW2  557   0.302   1.239   1.464
  171SOL     OW  558   1.613   1.284   1.284
  171SOL    HW1  559   1.677   1.265   1.359
  171SOL    HW2  560   1.548   1.354   1.312
  172SOL     OW  561   1.060   1.106   0.714
  172SOL    HW1  562   0.983   1.056   0.755
  172SOL    HW2  563   1.127   1.041   0.679
  173SOL     OW  564   1.024   0.249   0.951
  173SOL    HW1  565   1.002   0.202   0.866
  173SOL    HW2  566   1.015   0.185   1.028
  174SOL     OW  567   0.611   1.483   0.483
  174SOL    HW1  568   0.653   1.430   0.409
  174SOL    HW2  569   0.539   1.541   0.446
  175SOL     OW  570   1.732   0.392   1.376
  175SOL    HW1  571   1.801   0.465   1.381
  175SOL    HW2  572   1.769   0.315   1.323
  176SOL     OW  573   0.284   1.301   0.331
  176SOL    HW1  574   0.198   1.300   0.281
  176SOL    HW2  575   0.278   1.366   0.407
  177SOL     OW  576   0.120   0.973   1.703
  177SOL    HW1  577   0.066   1.024   1.770
  177SOL    HW2  578   0.211   0.956   1.740
  178SOL     OW  579   0.670   0.236   1.507
  178SOL    HW1  580   0.751   0.209   1.455
  178SOL    HW2  581   0.698   0.267   1.598
  179SOL     OW  582   0.069   0.420   0.053
  179SOL    HW1  583   6.982   0.372   0.065
  179SOL    HW2  584   0.105   0.402   6.961
  180SOL     OW  585   1.424   0.858   1.396
  180SOL    HW1  586   1.369   0.921   1.342
  180SOL    HW2  587   1.518   0.859   1.361
  181SOL     OW  588   0.024   0.178   0.329
  181SOL    HW1  589   0.081   0.259   0.310
  181SOL    HW2  590   0.061   0.100   0.280
  182SOL     OW  591   1.187   1.343   0.130
  182SOL    HW1  592   1.089   1.327   0.116
  182SOL    HW2  593   1.208   1.336   0.228
  183SOL     OW  594   0.624   0.830   1.434
  183SOL    HW1  595   0.680   0.912   1.419
  183SOL    HW2  596   0.684   0.751   1.445
  184SOL     OW  597   1.485   1.787   0.987
  184SOL    HW1  598   1.506   1.848   0.910
  184SOL    HW2  599   1.570   1.752   1.027
  185SOL     OW  600   0.717   0.561   1.708
  185SOL    HW1  601   0.763   0.631   1.761
  185SOL    HW2  602   0.740   0.470   1.744
  186SOL     OW  603   1.473   1.197   1.635
  186SOL    HW1  604   1.458   1.210   1.733
  186SOL    HW2  605   1.569   1.215   1.613
  187SOL     OW  606   0.372   1.745   1.563
  187SOL    HW1  607   0.285   1.792   1.548
  187SOL    HW2  608   0.356   1.661   1.615
  188SOL     OW  609   1.666   0.879   1.256
  188SOL    HW1  610   1.661   0.788   1.214
  188SOL    HW2  611   1.654   0.948   1.185
  189SOL     OW  612   1.225   0.317   0.455
  189SOL    HW1  613   1.295   0.246   0.444
  189SOL    HW2  614   1.246   0.372   0.536
  190SOL     OW  615   0.589   0.738   0.666
  190SOL    HW1  616   0.629   0.829   0.659
  190SOL    HW2  617   0.519   0.726   0.596
  191SOL     OW  618   1.750   0.369   1.648
  191SOL    HW1  619   1.741   0.384   1.549
  191SOL    HW2  620   1.678   0.307   1.679
  192SOL     OW  621   1.752   0.932   1.510
  192SOL    HW1  622   1.740   1.029   1.531
  192SOL    HW2  623   1.731   0.917   1.413
  193SOL     OW  624   0.902   1.382   0.051
  193SOL    HW1  625   0.839   1.358   0.125
  193SOL    HW2  626   0.905   1.482   0.042
  194SOL     OW  627   0.665   1.788   0.942
  194SOL    HW1  628   0.644   1.882   0.919
  194SOL    HW2  629   0.764   1.772   0.932
  195SOL     OW  630   0.869   0.970   0.857
  195SOL    HW1  631   0.920   0.893   0.893
  195SOL    HW2  632   0.827   1.021   0.932
  196SOL     OW  633   1.080   0.984   0.080
  196SOL    HW1  634   1.079   1.044   0.000
  196SOL    HW2  635   1.159   0.923   0.075
  197SOL     OW  636   1.847   1.558   0.846
  197SOL    HW1  637   1.770   1.544   0.783
  197SOL    HW2  638   1.846   1.485   0.915
  198SOL     OW  639   0.242   1.308   1.865
  198SOL    HW1  640   0.150   1.276   1.842
  198SOL    HW2  641   0.251   1.318   1.964
  199SOL     OW  642   0.148   1.275   0.691
  199SOL    HW1  643   0.093   1.229   0.761
  199SOL    HW2  644   0.184   1.207   0.627
  200SOL     OW  645   0.685   1.408   1.635
  200SOL    HW1  646   0.603   1.358   1.663
  200SOL    HW2  647   0.681   1.502   1.671
  201SOL     OW  648   1.852   0.183   1.247
  201SOL    HW1  649   1.774   0.122   1.244
  201SOL    HW2  650   1.878   0.209   1.153
  202SOL     OW  651   0.454   0.433   0.525
  202SOL    HW1  652   0.487   0.357   0.469
  202SOL    HW2  653   0.407   0.397   0.605
  203SOL     OW  654   1.692   1.484   1.096
  203SOL    HW1  655   1.612   1.466   1.039
  203SOL    HW2  656   1.702   1.412   1.164
  204SOL     OW  657   0.333   0.552   1.289
  204SOL    HW1  658   0.394   0.500   1.349
  204SOL    HW2  659   0.351   0.528   1.194
  205SOL     OW  660   0.827   1.579   0.681
  205SOL    HW1  661   0.815   1.636   0.599
  205SOL    HW2  662   0.750   1.515   0.688
  206SOL     OW  663   1.413   0.215   1.130
  206SOL    HW1  664   1.496   0.173   1.167
  206SOL    HW2  665   1.365   0.265   1.203
  207SOL     OW  666   0.977   0.054   1.137
  207SOL    HW1  667   0.920   6.989   1.086
  207SOL    HW2  668   1.034   0.005   1.202
  208SOL     OW  669   0.781   1.320   0.310
  208SOL    HW1  670   0.748   1.227   0.328
  208SOL    HW2  671   0.859   1.340   0.368
  209SOL     OW  672   0.626   1.558   1.289
  209SOL    HW1  673   0.623   1.645   1.339
  209SOL    HW2  674   0.716   1.546   1.248
  210SOL     OW  675   1.345   0.057   0.156
  210SOL    HW1  676   1.362   6.962   0.131
  210SOL    HW2  677   1.247   0.077   0.147
  211SOL     OW  678   1.269   0.452   0.687
  211SOL    HW1  679   1.224   0.542   0.683
  211SOL    HW2  680   1.288   0.428   0.782
  212SOL     OW  681   1.618   0.256   0.913
  212SOL    HW1  682   1.529   0.237   0.955
  212SOL    HW2  683   1.606   0.322   0.839
  213SOL     OW  684   0.074   1.054   0.312
  213SOL    HW1  685   0.164   1.012   0.300
  213SOL    HW2  686   0.004   0.982   0.312
  214SOL     OW  687   0.889   1.663   0.353
  214SOL    HW1  688   0.814   1.634   0.293
  214SOL    HW2  689   0.861   1.742   0.407
  215SOL     OW  690   0.197   0.649   1.989
  215SOL    HW1  691   0.169   0.582   2.057
  215SOL    HW2  692   0.220   0.603   1.903
  216SOL     OW  693   0.221   0.289   2.848
  216SOL    HW1  694   0.280   0.249   2.918
  216SOL    HW2  695   0.127   0.260   2.863
  217SOL     OW  696   6.995   0.391   2.519
  217SOL    HW1  697   6.940   0.409   2.600
  217SOL    HW2  698   0.023   0.295   2.519
  218SOL     OW  699   0.569   1.296   3.047
  218SOL    HW1  700   0.479   1.294   3.004
  218SOL    HW2  701   0.587   1.388   3.082
  219SOL     OW  702   1.564   1.513   2.569
  219SOL    HW1  703   1.521   1.489   2.657
  219SOL    HW2  704   1.493   1.520   2.499
  220SOL     OW  705   1.134   0.702   2.558
  220SOL    HW1  706   1.185   0.786   2.540
  220SOL    HW2  707   1.083   0.711   2.643
  221SOL     OW  708   1.767   0.602   2.085
  221SOL    HW1  709   1.746   0.598   1.987
  221SOL    HW2  710   1.730   0.521   2.130
  222SOL     OW  711   0.744   1.141   2.902
  222SOL    HW1  712   0.676   1.176   2.966
  222SOL    HW2  713   0.789   1.218   2.856
  223SOL     OW  714   0.870   0.767   3.681
  223SOL    HW1  715   0.862   0.835   3.754
  223SOL    HW2  716   0.896   0.812   3.596
  224SOL     OW  717   0.683   1.001   2.512
  224SOL    HW1  718   0.755   0.990   2.581
  224SOL    HW2  719   0.608   1.056   2.550
  225SOL     OW  720   0.712   1.152   3.680
  225SOL    HW1  721   0.765   1.231   3.713
  225SOL    HW2  722   0.628   1.184   3.638
  226SOL     OW  723   0.333   1.421   2.927
  226SOL    HW1  724   0.254   1.382   2.879
  226SOL    HW2  725   0.385   1.479   2.864
  227SOL     OW  726   1.458   1.501   3.219
  227SOL    HW1  727   1.515   1.583   3.226
  227SOL    HW2  728   1.388   1.503   3.290
  228SOL     OW  729   0.451   0.404   3.354
  228SOL    HW1  730   0.536   0.352   3.354
  228SOL    HW2  731   0.373   0.343   3.366
  229SOL     OW  732   1.616   0.457   2.591
  229SOL    HW1  733   1.553   0.487   2.519
  229SOL    HW2  734   1.626   0.530   2.658
  230SOL     OW  735   0.226   1.710   2.328
  230SOL    HW1  736   0.240   1.789   2.387
  230SOL    HW2  737   0.297   1.706   2.259
  231SOL     OW  738   1.137   1.340   3.559
  231SOL    HW1  739   1.183   1.338   3.648
  231SOL    HW2  740   1.081   1.257   3.549
  232SOL     OW  741   0.275   1.442   2.382
  232SOL    HW1  742   0.253   1.539   2.388
  232SOL    HW2  743   0.225   1.391   2.452
  233SOL     OW  744   0.268   1.082   2.768
  233SOL    HW1  745   0.264   0.987   2.798
  233SOL    HW2  746   0.197   1.135   2.815
  234SOL     OW  747   0.603   1.796   3.289
  234SOL    HW1  748   0.517   1.772   3.336
  234SOL    HW2  749   0.632   1.887   3.317
  235SOL     OW  750   0.581   0.987   2.002
  235SOL    HW1  751   0.629   1.035   1.928
  235SOL    HW2  752   0.621   1.015   2.090
  236SOL     OW  753   1.579   0.131   3.309
  236SOL    HW1  754   1.590   0.226   3.278
  236SOL    HW2  755   1.602   0.126   3.407
  237SOL     OW  756   0.131   0.620   2.430
  237SOL    HW1  757   0.069   0.546   2.456
  237SOL    HW2  758   0.121   0.696   2.495
  238SOL     OW  759   1.846   1.756   2.195
  238SOL    HW1  760   1.915   1.725   2.260
  238SOL    HW2  761   1.862   1.852   2.171
  239SOL     OW  762   0.037   1.593   2.009
  239SOL    HW1  763   0.027   1.494   2.021
  239SOL    HW2  764   6.961   1.640   2.055
  240SOL     OW  765   1.690   0.920   2.508
  240SOL    HW1  766   1.775   0.870   2.493
  240SOL    HW2  767   1.667   0.974   2.427
  241SOL     OW  768   1.652   1.105   2.294
  241SOL    HW1  769   1.741   1.102   2.248
  241SOL    HW2  770   1.655   1.171   2.368
  242SOL     OW  771   0.145   0.734   3.438
  242SOL    HW1  772   0.244   0.742   3.424
  242SOL    HW2  773   0.109   0.821   3.470
  243SOL     OW  774   0.611   1.390   2.597
  243SOL    HW1  775   0.564   1.302   2.610
  243SOL    HW2  776   0.598   1.420   2.502
  244SOL     OW  777   1.289   1.235   3.284
  244SOL    HW1  778   1.316   1.165   3.218
  244SOL    HW2  779   1.348   1.231   3.364
  245SOL     OW  780   0.833   0.025   2.381
  245SOL    HW1  781   0.872   0.115   2.361
  245SOL    HW2  782   0.733   0.032   2.380
  246SOL     OW  783   0.204   0.961   3.125
  246SOL    HW1  784   0.287   0.909   3.107
  246SOL    HW2  785   0.132   0.931   3.061
  247SOL     OW  786   1.532   0.999   2.066
  247SOL    HW1  787   1.458   0.939   2.096
  247SOL    HW2  788   1.578   1.037   2.146
  248SOL     OW  789   1.183   1.810   3.484
  248SOL    HW1  790   1.190   1.879   3.411
  248SOL    HW2  791   1.202   1.720   3.447
  249SOL     OW  792   0.328   0.267   3.669
  249SOL    HW1  793   0.388   0.332   3.715
  249SOL    HW2  794   0.237   0.269   3.712
  250SOL     OW  795   1.465   1.420   2.810
  250SOL    HW1  796   1.398   1.439   2.882
  250SOL    HW2  797   1.457   1.325   2.781
  251SOL     OW  798   1.651   1.747   2.438
  251SOL    HW1  799   1.633   1.719   2.344
  251SOL    HW2  800   1.629   1.672   2.500
  252SOL     OW  801   0.591   0.718   2.127
  252SOL    HW1  802   0.600   0.806   2.080
  252SOL    HW2  803   0.526   0.728   2.203
  253SOL     OW  804   1.283   0.367   2.811
  253SOL    HW1  805   1.186   0.343   2.814
  253SOL    HW2  806   1.332   0.315   2.882
  254SOL     OW  807   1.583   1.672   2.170
  254SOL    HW1  808   1.679   1.701   2.166
  254SOL    HW2  809   1.550   1.655   2.077
  255SOL     OW  810   0.793   0.616   3.318
  255SOL    HW1  811   0.765   0.590   3.411
  255SOL    HW2  812   0.754   0.551   3.253
  256SOL     OW  813   1.394   0.473   3.542
  256SOL    HW1  814   1.392   0.519   3.631
  256SOL    HW2  815   1.451   0.391   3.548
  257SOL     OW  816   0.953   0.885   3.444
  257SOL    HW1  817   1.011   0.813   3.406
  257SOL    HW2  818   0.900   0.927   3.371
  258SOL     OW  819   0.995   0.412   3.090
  258SOL    HW1  820   0.909   0.435   3.136
  258SOL    HW2  821   0.975   0.361   3.006
  259SOL     OW  822   1.050   0.698   2.287
  259SOL    HW1  823   1.071   0.694   2.385
  259SOL    HW2  824   0.964   0.652   2.270
  260SOL     OW  825   0.103   0.818   2.635
  260SOL    HW1  826   0.195   0.806   2.673
  260SOL    HW2  827   0.043   0.856   2.706
  261SOL     OW  828   0.121   1.869   3.452
  261SOL    HW1  829   0.131   1.843   3.548
  261SOL    HW2  830   0.031   1.840   3.419
  262SOL     OW  831   0.890   0.355   2.062
  262SOL    HW1  832   0.936   0.416   1.997
  262SOL    HW2  833   0.869   0.269   2.017
  263SOL     OW  834   1.702   0.573   3.687
  263SOL    HW1  835   1.665   0.652   3.639
  263SOL    HW2  836   1.730   0.503   3.621
  264SOL     OW  837   1.379   1.143   2.396
  264SOL    HW1  838   1.464   1.127   2.345
  264SOL    HW2  839   1.323   1.210   2.348
  265SOL     OW  840   0.508   0.197   2.770
  265SOL    HW1  841   0.551   0.224   2.856
  265SOL    HW2  842   0.532   0.263   2.698
  266SOL     OW  843   0.996   1.443   2.327
  266SOL    HW1  844   0.963   1.523   2.277
  266SOL    HW2  845   0.980   1.456   2.424
  267SOL     OW  846   0.357   1.818   2.728
  267SOL    HW1  847   0.397   1.727   2.739
  267SOL    HW2  848   0.426   1.888   2.749
  268SOL     OW  849   1.798   1.057   2.733
  268SOL    HW1  850   1.746   1.035   2.651
  268SOL    HW2  851   1.735   1.063   2.811
  269SOL     OW  852   1.227   1.536   3.376
  269SOL    HW1  853   1.214   1.462   3.442
  269SOL    HW2  854   1.159   1.528   3.303
  270SOL     OW  855   0.318   0.946   2.112
  270SOL    HW1  856   0.405   0.972   2.070
  270SOL    HW2  857   0.289   0.857   2.077
  271SOL     OW  858   1.483   0.749   2.586
  271SOL    HW1  859   1.476   0.705   2.676
  271SOL    HW2  860   1.563   0.809   2.585
  272SOL     OW  861   0.472   1.260   3.590
  272SOL    HW1  862   0.444   1.270   3.495
  272SOL    HW2  863   0.390   1.262   3.648
  273SOL     OW  864   1.122   1.776   2.089
  273SOL    HW1  865   1.042   1.738   2.137
  273SOL    HW2  866   1.151   1.712   2.018
  274SOL     OW  867   0.205   0.278   3.373
  274SOL    HW1  868   0.145   0.359   3.365
  274SOL    HW2  869   0.207   0.249   3.468
  275SOL     OW  870   1.625   1.382   1.950
  275SOL    HW1  871   1.586   1.473   1.934
  275SOL    HW2  872   1.555   1.312   1.931
  276SOL     OW  873   0.468   1.734   2.180
  276SOL    HW1  874   0.509   1.796   2.247
  276SOL    HW2  875   0.540   1.699   2.120
  277SOL     OW  876   1.425   0.131   2.288
  277SOL    HW1  877   1.404   0.088   2.200
  277SOL    HW2  878   1.524   0.137   2.299
  278SOL     OW  879   0.259   1.794   3.086
  278SOL    HW1  880   0.310   1.721   3.131
  278SOL    HW2  881   0.216   1.759   3.003
  279SOL     OW  882   0.936   1.702   2.758
  279SOL    HW1  883   1.018   1.654   2.790
  279SOL    HW2  884   0.893   1.650   2.684
  280SOL     OW  885   0.399   0.688   2.333
  280SOL    HW1  886   0.427   0.594   2.350
  280SOL    HW2  887   0.302   0.699   2.356
  281SOL     OW  888   1.530   0.230   3.589
  281SOL    HW1  889   1.544   0.237   3.688
  281SOL    HW2  890   1.445   0.181   3.570
  282SOL     OW  891   0.644   0.112   1.965
  282SOL    HW1  892   0.684   0.037   2.018
  282SOL    HW2  893   0.583   0.074   1.895
  283SOL     OW  894   0.762   0.277   3.627
  283SOL    HW1  895   0.850   0.229   3.621
  283SOL    HW2  896   0.707   0.237   3.700
  284SOL     OW  897   0.876   1.516   3.054
  284SOL    HW1  898   0.856   1.479   2.963
  284SOL    HW2  899   0.949   1.461   3.096
  285SOL     OW  900   1.342   0.591   3.299
  285SOL    HW1  901   1.372   0.556   3.388
  285SOL    HW2  902   1.377   0.684   3.287
  286SOL     OW  903   0.820   1.390   2.803
  286SOL    HW1  904   0.909   1.378   2.760
  286SOL    HW2  905   0.750   1.395   2.732
  287SOL     OW  906   0.927   0.510   2.758
  287SOL    HW1  907   0.899   0.505   2.662
  287SOL    HW2  908   0.960   0.421   2.789
  288SOL     OW  909   0.569   0.063   2.347
  288SOL    HW1  910   0.491   0.053   2.410
  288SOL    HW2  911   0.553   0.140   2.286
  289SOL     OW  912   1.426   1.199   1.905
  289SOL    HW1  913   1.459   1.121   1.958
  289SOL    HW2  914   1.337   1.228   1.941
  290SOL     OW  915   0.306   0.046   2.059
  290SOL    HW1  916   0.337   0.139   2.045
  290SOL    HW2  917   0.371   6.997   2.116
  291SOL     OW  918   0.950   0.266   2.318
  291SOL    HW1  919   0.919   0.301   2.230
  291SOL    HW2  920   1.049   0.274   2.325
  292SOL     OW  921   1.080   0.683   3.316
  292SOL    HW1  922   1.005   0.618   3.328
  292SOL    HW2  923   1.167   0.634   3.316
  293SOL     OW  924   1.221   1.569   2.656
  293SOL    HW1  925   1.235   1.639   2.586
  293SOL    HW2  926   1.291   1.577   2.726
  294SOL     OW  927   0.467   1.150   2.595
  294SOL    HW1  928   0.400   1.129   2.667
  294SOL    HW2  929   0.425   1.137   2.505
  295SOL     OW  930   1.264   1.792   2.472
  295SOL    HW1  931   1.315   1.854   2.413
  295SOL    HW2  932   1.191   1.843   2.518
  296SOL     OW  933   1.017   0.537   1.894
  296SOL    HW1  934   0.974   0.624   1.870
  296SOL    HW2  935   1.089   0.553   1.961
  297SOL     OW  936   0.081   0.541   3.243
  297SOL    HW1  937   0.175   0.542   3.210
  297SOL    HW2  938   0.069   0.613   3.311
  298SOL     OW  939   0.581   0.241   3.031
  298SOL    HW1  940   0.632   0.165   3.071
  298SOL    HW2  941   0.485   0.236   3.060
  299SOL     OW  942   0.866   0.464   2.498
  299SOL    HW1  943   0.814   0.524   2.437
  299SOL    HW2  944   0.893   0.382   2.449
  300SOL     OW  945   0.959   0.028   2.633
  300SOL    HW1  946   0.904   0.028   2.549
  300SOL    HW2  947   1.030   6.958   2.626
  301SOL     OW  948   1.445   1.161   2.720
  301SOL    HW1  949   1.369   1.097   2.724
  301SOL    HW2  950   1.474   1.173   2.625
  302SOL     OW  951   1.466   0.608   2.833
  302SOL    HW1  952   1.406   0.528   2.835
  302SOL    HW2  953   1.530   0.603   2.911
  303SOL     OW  954   1.842   0.810   2.242
  303SOL    HW1  955   1.900   0.762   2.308
  303SOL    HW2  956   1.812   0.747   2.171
  304SOL     OW  957   0.495   1.420   2.016
  304SOL    HW1  958   0.414   1.394   2.068
  304SOL    HW2  959   0.484   1.392   1.920
  305SOL     OW  960   1.674   1.266   2.506
  305SOL    HW1  961   1.773   1.264   2.518
  305SOL    HW2  962   1.640   1.358   2.526
  306SOL     OW  963   1.391   0.575   1.933
  306SOL    HW1  964   1.328   0.552   2.007
  306SOL    HW2  965   1.485   0.559   1.963
  307SOL     OW  966   0.525   0.263   2.165
  307SOL    HW1  967   0.579   0.211   2.098
  307SOL    HW2  968   0.502   0.352   2.127
  308SOL     OW  969   1.753   1.240   3.424
  308SOL    HW1  970   1.843   1.198   3.412
  308SOL    HW2  971   1.764   1.334   3.458
  309SOL     OW  972   1.054   1.349   3.197
  309SOL    HW1  973   0.973   1.320   3.248
  309SOL    HW2  974   1.136   1.310   3.240
  310SOL     OW  975   1.613   1.629   3.518
  310SOL    HW1  976   1.598   1.664   3.426
  310SOL    HW2  977   1.699   1.578   3.521
  311SOL     OW  978   1.136   1.217   2.967
  311SOL    HW1  979   1.076   1.252   3.040
  311SOL    HW2  980   1.102   1.248   2.878
  312SOL     OW  981   1.625   1.097   2.941
  312SOL    HW1  982   1.621   1.162   3.017
  312SOL    HW2  983   1.548   1.113   2.879
  313SOL     OW  984   0.895   0.148   3.250
  313SOL    HW1  985   0.912   0.111   3.159
  313SOL    HW2  986   0.982   0.176   3.291
  314SOL     OW  987   0.980   1.114   3.583
  314SOL    HW1  988   0.886   1.134   3.610
  314SOL    HW2  989   0.982   1.032   3.526
  315SOL     OW  990   0.711   1.057   2.236
  315SOL    HW1  991   0.695   1.041   2.333
  315SOL    HW2  992   0.790   1.004   2.206
  316SOL     OW  993   0.429   0.807   3.111
  316SOL    HW1  994   0.500   0.822   3.180
  316SOL    HW2  995   0.388   0.717   3.124
  317SOL     OW  996   1.261   0.379   3.148
  317SOL    HW1  997   1.298   0.458   3.196
  317SOL    HW2  998   1.166   0.398   3.122
  318SOL     OW  999   0.068   1.566   3.180
  318SOL    HW1 1000   0.018   1.652   3.194
  318SOL    HW2 1001   0.165   1.579   3.201
  319SOL     OW 1002   0.341   1.116   2.354
  319SOL    HW1 1003   0.352   1.195   2.294
  319SOL    HW2 1004   0.340   1.032   2.299
  320SOL     OW 1005   0.552   0.548   2.725
  320SOL    HW1 1006   0.566   0.606   2.645
  320SOL    HW2 1007   0.622   0.567   2.794
  321SOL     OW 1008   1.246   1.354   2.254
  321SOL    HW1 1009   1.307   1.427   2.285
  321SOL    HW2 1010   1.153   1.374   2.285
  322SOL     OW 1011   1.287   1.461   3.009
  322SOL    HW1 1012   1.345   1.467   3.090
  322SOL    HW2 1013   1.232   1.378   3.014
  323SOL     OW 1014   1.573   0.623   2.346
  323SOL    HW1 1015   1.525   0.678   2.415
  323SOL    HW2 1016   1.625   0.683   2.286
  324SOL     OW 1017   0.351   1.533   3.172
  324SOL    HW1 1018   0.332   1.486   3.086
  324SOL    HW2 1019   0.450   1.545   3.181
  325SOL     OW 1020   0.424   0.734   3.460
  325SOL    HW1 1021   0.482   0.788   3.400
  325SOL    HW2 1022   0.470   0.648   3.483
  326SOL     OW 1023   1.607   0.785   3.547
  326SOL    HW1 1024   1.516   0.826   3.544
  326SOL    HW2 1025   1.664   0.825   3.475
  327SOL     OW 1026   0.997   0.135   3.597
  327SOL    HW1 1027   1.039   0.182   3.520
  327SOL    HW2 1028   1.001   0.037   3.583
  328SOL     OW 1029   0.470   0.041   3.619
  328SOL    HW1 1030   0.412   6.970   3.578
  328SOL    HW2 1031   0.417   0.124   3.633
  329SOL     OW 1032   0.587   0.873   2.894
  329SOL    HW1 1033   0.620   0.967   2.891
  329SOL    HW2 1034   0.528   0.860   2.973
  330SOL     OW 1035   1.353   0.858   2.887
  330SOL    HW1 1036   1.262   0.850   2.846
  330SOL    HW2 1037   1.400   0.770   2.879
  331SOL     OW 1038   1.199   0.527   2.126
  331SOL    HW1 1039   1.211   0.444   2.181
  331SOL    HW2 1040   1.154   0.597   2.181
  332SOL     OW 1041   0.325   0.213   3.108
  332SOL    HW1 1042   0.274   0.234   3.192
  332SOL    HW2 1043   0.297   0.123   3.074
  333SOL     OW 1044   0.096   1.307   3.126
  333SOL    HW1 1045   0.105   1.245   3.204
  333SOL    HW2 1046   0.086   1.401   3.159
  334SOL     OW 1047   0.729   0.636   2.917
  334SOL    HW1 1048   0.804   0.614   2.854
  334SOL    HW2 1049   0.693   0.727   2.896
  335SOL     OW 1050   1.736   0.960   3.717
  335SOL    HW1 1051   1.692   0.892   3.658
  335SOL    HW2 1052   1.676   0.979   3.795
  336SOL     OW 1053   0.346   0.061   2.491
  336SOL    HW1 1054   0.314   0.146   2.533
  336SOL    HW2 1055   0.290   6.985   2.522
  337SOL     OW 1056   1.626   0.392   2.208
  337SOL    HW1 1057   1.656   0.314   2.263
  337SOL    HW2 1058   1.595   0.466   2.268
  338SOL     OW 1059   1.025   0.756   2.820
  338SOL    HW1 1060   1.020   0.778   2.918
  338SOL    HW2 1061   0.997   0.662   2.805
  339SOL     OW 1062   0.982   1.563   3.579
  339SOL    HW1 1063   0.965   1.611   3.493
  339SOL    HW2 1064   1.030   1.477   3.561
  340SOL     OW 1065   1.855   1.504   3.466
  340SOL    HW1 1066   1.873   1.530   3.371
  340SOL    HW2 1067   1.938   1.516   3.520
  341SOL     OW 1068   0.364   0.917   3.660
  341SOL    HW1 1069   0.441   0.942   3.719
  341SOL    HW2 1070   0.394   0.848   3.593
  342SOL     OW 1071   1.539   0.235   1.997
  342SOL    HW1 1072   1.440   0.229   2.007
  342SOL    HW2 1073   1.576   0.293   2.069
  343SOL     OW 1074   1.289   0.826   1.889
  343SOL    HW1 1075   1.329   0.735   1.896
  343SOL    HW2 1076   1.320   0.869   1.804
  344SOL     OW 1077   1.070   1.337   2.716
  344SOL    HW1 1078   1.073   1.259   2.654
  344SOL    HW2 1079   1.129   1.410   2.682
  345SOL     OW 1080   0.321   0.803   2.803
  345SOL    HW1 1081   0.417   0.829   2.803
  345SOL    HW2 1082   0.312   0.710   2.838
  346SOL     OW 1083   0.331   0.529   2.874
  346SOL    HW1 1084   0.288   0.440   2.857
  346SOL    HW2 1085   0.413   0.538   2.817
  347SOL     OW 1086   1.125   0.410   3.534
  347SOL    HW1 1087   1.077   0.453   3.610
  347SOL    HW2 1088   1.223   0.430   3.541
  348SOL     OW 1089   1.136   0.224   3.347
  348SOL    HW1 1090   1.136   0.299   3.413
  348SOL    HW2 1091   1.193   0.250   3.268
  349SOL     OW 1092   6.991   1.323   2.078
  349SOL    HW1 1093   6.918   1.348   2.142
  349SOL    HW2 1094   0.021   1.229   2.097
  350SOL     OW 1095   0.097   1.758   2.810
  350SOL    HW1 1096   0.076   1.684   2.746
  350SOL    HW2 1097   0.183   1.801   2.784
  351SOL     OW 1098   0.494   1.578   2.766
  351SOL    HW1 1099   0.564   1.644   2.793
  351SOL    HW2 1100   0.535   1.510   2.706
  352SOL     OW 1101   0.977   0.795   3.086
  352SOL    HW1 1102   1.036   0.769   3.163
  352SOL    HW2 1103   0.887   0.752   3.097
  353SOL     OW 1104   0.051   0.601   2.971
  353SOL    HW1 1105   0.131   0.563   2.924
  353SOL    HW2 1106   0.057   0.581   3.068
  354SOL     OW 1107   0.203   0.520   3.588
  354SOL    HW1 1108   0.289   0.482   3.557
  354SOL    HW2 1109   0.184   0.605   3.538
  355SOL     OW 1110   1.380   0.936   3.517
  355SOL    HW1 1111   1.403   1.033   3.518
  355SOL    HW2 1112   1.377   0.904   3.423
  356SOL     OW 1113   0.816   0.576   2.221
  356SOL    HW1 1114   0.828   0.495   2.163
  356SOL    HW2 1115   0.737   0.629   2.189
  357SOL     OW 1116   1.642   0.605   3.043
  357SOL    HW1 1117   1.623   0.545   3.120
  357SOL    HW2 1118   1.733   0.586   3.007
  358SOL     OW 1119   0.285   1.560   3.602
  358SOL    HW1 1120   0.229   1.627   3.651
  358SOL    HW2 1121   0.265   1.469   3.638
  359SOL     OW 1122   0.707   0.462   3.119
  359SOL    HW1 1123   0.656   0.381   3.091
  359SOL    HW2 1124   0.707   0.529   3.045
  360SOL     OW 1125   0.922   1.681   3.332
  360SOL    HW1 1126   0.895   1.635   3.248
  360SOL    HW2 1127   0.920   1.780   3.319
  361SOL     OW 1128   0.458   0.492   2.038
  361SOL    HW1 1129   0.521   0.568   2.056
  361SOL    HW2 1130   0.368   0.516   2.073
  362SOL     OW 1131   0.165   1.123   3.332
  362SOL    HW1 1132   0.155   1.062   3.410
  362SOL    HW2 1133   0.179   1.069   3.249
  363SOL     OW 1134   1.317   1.044   3.081
  363SOL    HW1 1135   1.344   0.976   3.013
  363SOL    HW2 1136   1.248   1.105   3.041
  364SOL     OW 1137   1.315   0.856   2.162
  364SOL    HW1 1138   1.238   0.829   2.220
  364SOL    HW2 1139   1.290   0.844   2.066
  365SOL     OW 1140   1.779   1.731   3.018
  365SOL    HW1 1141   1.840   1.765   2.946
  365SOL    HW2 1142   1.748   1.639   2.993
  366SOL     OW 1143   1.241   1.733   2.968
  366SOL    HW1 1144   1.327   1.761   2.925
  366SOL    HW2 1145   1.246   1.636   2.992
  367SOL     OW 1146   0.071   1.245   2.867
  367SOL    HW1 1147   0.088   1.265   2.964
  367SOL    HW2 1148   6.973   1.231   2.853
  368SOL     OW 1149   0.681   1.673   3.598
  368SOL    HW1 1150   0.617   1.750   3.593
  368SOL    HW2 1151   0.752   1.685   3.528
  369SOL     OW 1152   1.707   0.164   2.332
  369SOL    HW1 1153   1.792   0.148   2.282
  369SOL    HW2 1154   1.704   0.106   2.413
  370SOL     OW 1155   1.395   1.570   2.349
  370SOL    HW1 1156   1.458   1.602   2.278
  370SOL    HW2 1157   1.340   1.647   2.381
  371SOL     OW 1158   0.139   1.786   3.714
  371SOL    HW1 1159   0.094   1.712   3.765
  371SOL    HW2 1160   0.194   1.841   3.777
  372SOL     OW 1161   1.282   0.928   2.528
  372SOL    HW1 1162   1.357   0.864   2.545
  372SOL    HW2 1163   1.315   1.005   2.473
  373SOL     OW 1164   0.805   1.278   3.289
  373SOL    HW1 1165   0.776   1.321   3.375
  373SOL    HW2 1166   0.735   1.294   3.219
  374SOL     OW 1167   0.672   1.622   2.016
  374SOL    HW1 1168   0.687   1.641   1.918
  374SOL    HW2 1169   0.615   1.541   2.026
  375SOL     OW 1170   1.618   1.728   3.249
  375SOL    HW1 1171   1.674   1.730   3.167
  375SOL    HW2 1172   1.603   1.822   3.281
  376SOL     OW 1173   1.866   0.162   2.817
  376SOL    HW1 1174   1.864   0.063   2.806
  376SOL    HW2 1175   1.775   0.199   2.801
  377SOL     OW 1176   0.286   0.337   2.580
  377SOL    HW1 1177   0.197   0.374   2.552
  377SOL    HW2 1178   0.282   0.310   2.676
  378SOL     OW 1179   1.208   1.601   1.895
  378SOL    HW1 1180   1.199   1.507   1.928
  378SOL    HW2 1181   1.141   1.618   1.823
  379SOL     OW 1182   0.823   1.010   3.240
  379SOL    HW1 1183   0.874   0.994   3.155
  379SOL    HW2 1184   0.821   1.108   3.259
  380SOL     OW 1185   0.919   0.910   2.149
  380SOL    HW1 1186   0.980   0.946   2.078
  380SOL    HW2 1187   0.966   0.839   2.201
  381SOL     OW 1188   1.489   1.629   1.904
  381SOL    HW1 1189   1.390   1.618   1.893
  381SOL    HW2 1190   1.532   1.635   1.814
  382SOL     OW 1191   0.372   1.307   3.348
  382SOL    HW1 1192   0.359   1.388   3.291
  382SOL    HW2 1193   0.302   1.239   3.326
  383SOL     OW 1194   1.614   1.284   3.146
  383SOL    HW1 1195   1.677   1.265   3.221
  383SOL    HW2 1196   1.548   1.354   3.174
  384SOL     OW 1197   1.060   1.106   2.576
  384SOL    HW1 1198   0.984   1.056   2.616
  384SOL    HW2 1199   1.128   1.041   2.542
  385SOL     OW 1200   1.024   0.249   2.813
  385SOL    HW1 1201   1.002   0.202   2.728
  385SOL    HW2 1202   1.015   0.185   2.890
  386SOL     OW 1203   0.607   1.487   2.343
  386SOL    HW1 1204   0.657   1.433   2.275
  386SOL    HW2 1205   0.530   1.533   2.299
  387SOL     OW 1206   1.732   0.392   3.237
  387SOL    HW1 1207   1.801   0.465   3.243
  387SOL    HW2 1208   1.769   0.315   3.185
  388SOL     OW 1209   0.255   1.350   2.135
  388SOL    HW1 1210   0.157   1.351   2.118
  388SOL    HW2 1211   0.273   1.387   2.227
  389SOL     OW 1212   0.120   0.973   3.565
  389SOL    HW1 1213   0.066   1.024   3.632
  389SOL    HW2 1214   0.211   0.956   3.602
  390SOL     OW 1215   0.670   0.236   3.370
  390SOL    HW1 1216   0.751   0.209   3.317
  390SOL    HW2 1217   0.698   0.268   3.460
  391SOL     OW 1218   0.081   0.315   1.911
  391SOL    HW1 1219   6.989   0.277   1.905
  391SOL    HW2 1220   0.082   0.406   1.868
  392SOL     OW 1221   1.425   0.858   3.258
  392SOL    HW1 1222   1.369   0.921   3.204
  392SOL    HW2 1223   1.519   0.859   3.224
  393SOL     OW 1224   0.038   0.180   2.189
  393SOL    HW1 1225   0.064   0.257   2.130
  393SOL    HW2 1226   0.076   0.095   2.153
  394SOL     OW 1227   1.180   1.338   1.982
  394SOL    HW1 1228   1.084   1.311   1.975
  394SOL    HW2 1229   1.208   1.339   2.078
  395SOL     OW 1230   0.624   0.830   3.296
  395SOL    HW1 1231   0.680   0.912   3.281
  395SOL    HW2 1232   0.684   0.751   3.307
  396SOL     OW 1233   1.485   1.787   2.849
  396SOL    HW1 1234   1.506   1.848   2.773
  396SOL    HW2 1235   1.570   1.754   2.890
  397SOL     OW 1236   0.717   0.560   3.570
  397SOL    HW1 1237   0.763   0.631   3.624
  397SOL    HW2 1238   0.740   0.470   3.606
  398SOL     OW 1239   1.473   1.197   3.497
  398SOL    HW1 1240   1.458   1.210   3.595
  398SOL    HW2 1241   1.569   1.215   3.475
  399SOL     OW 1242   0.372   1.745   3.425
  399SOL    HW1 1243   0.285   1.792   3.410
  399SOL    HW2 1244   0.356   1.661   3.477
  400SOL     OW 1245   1.666   0.879   3.118
  400SOL    HW1 1246   1.661   0.788   3.077
  400SOL    HW2 1247   1.654   0.948   3.047
  401SOL     OW 1248   1.225   0.318   2.318
  401SOL    HW1 1249   1.294   0.247   2.311
  401SOL    HW2 1250   1.244   0.375   2.398
  402SOL     OW 1251   0.589   0.738   2.529
  402SOL    HW1 1252   0.629   0.829   2.520
  402SOL    HW2 1253   0.519   0.726   2.459
  403SOL     OW 1254   1.750   0.370   3.510
  403SOL    HW1 1255   1.741   0.385   3.411
  403SOL    HW2 1256   1.678   0.308   3.541
  404SOL     OW 1257   1.752   0.932   3.372
  404SOL    HW1 1258   1.740   1.029   3.393
  404SOL    HW2 1259   1.731   0.917   3.275
  405SOL     OW 1260   0.869   1.364   1.906
  405SOL    HW1 1261   0.825   1.388   1.992
  405SOL    HW2 1262   0.882   1.446   1.850
  406SOL     OW 1263   0.666   1.787   2.805
  406SOL    HW1 1264   0.642   1.881   2.782
  406SOL    HW2 1265   0.764   1.773   2.793
  407SOL     OW 1266   0.869   0.970   2.718
  407SOL    HW1 1267   0.920   0.893   2.755
  407SOL    HW2 1268   0.826   1.021   2.793
  408SOL     OW 1269   1.077   0.988   1.946
  408SOL    HW1 1270   1.050   1.043   1.867
  408SOL    HW2 1271   1.155   0.931   1.922
  409SOL     OW 1272   1.847   1.556   2.709
  409SOL    HW1 1273   1.770   1.544   2.646
  409SOL    HW2 1274   1.842   1.487   2.781
  410SOL     OW 1275   0.242   1.308   3.727
  410SOL    HW1 1276   0.150   1.275   3.705
  410SOL    HW2 1277   0.251   1.318   3.826
  411SOL     OW 1278   0.150   1.272   2.552
  411SOL    HW1 1279   0.100   1.225   2.625
  411SOL    HW2 1280   0.197   1.204   2.495
  412SOL     OW 1281   0.685   1.408   3.497
  412SOL    HW1 1282   0.603   1.358   3.525
  412SOL    HW2 1283   0.681   1.502   3.533
  413SOL     OW 1284   1.852   0.183   3.109
  413SOL    HW1 1285   1.774   0.121   3.106
  413SOL    HW2 1286   1.878   0.209   3.015
  414SOL     OW 1287   0.454   0.433   2.387
  414SOL    HW1 1288   0.488   0.357   2.331
  414SOL    HW2 1289   0.404   0.398   2.465
  415SOL     OW 1290   1.694   1.483   2.956
  415SOL    HW1 1291   1.613   1.465   2.901
  415SOL    HW2 1292   1.703   1.412   3.026
  416SOL     OW 1293   0.333   0.552   3.151
  416SOL    HW1 1294   0.394   0.500   3.210
  416SOL    HW2 1295   0.350   0.528   3.056
  417SOL     OW 1296   0.828   1.579   2.540
  417SOL    HW1 1297   0.816   1.640   2.462
  417SOL    HW2 1298   0.751   1.516   2.547
  418SOL     OW 1299   1.412   0.215   2.992
  418SOL    HW1 1300   1.495   0.173   3.029
  418SOL    HW2 1301   1.365   0.264   3.065
  419SOL     OW 1302   0.977   0.055   2.998
  419SOL    HW1 1303   0.920   6.990   2.948
  419SOL    HW2 1304   1.034   0.005   3.064
  420SOL     OW 1305   0.774   1.331   2.183
  420SOL    HW1 1306   0.746   1.236   2.191
  420SOL    HW2 1307   0.859   1.345   2.234
  421SOL     OW 1308   0.626   1.558   3.152
  421SOL    HW1 1309   0.623   1.645   3.201
  421SOL    HW2 1310   0.716   1.547   3.110
  422SOL     OW 1311   1.323   0.017   2.053
  422SOL    HW1 1312   1.371   6.950   1.995
  422SOL    HW2 1313   1.248   6.972   2.100
  423SOL     OW 1314   1.269   0.454   2.549
  423SOL    HW1 1315   1.224   0.543   2.546
  423SOL    HW2 1316   1.288   0.429   2.645
  424SOL     OW 1317   1.618   0.258   2.777
  424SOL    HW1 1318   1.529   0.236   2.817
  424SOL    HW2 1319   1.606   0.321   2.701
  425SOL     OW 1320   0.071   1.065   2.139
  425SOL    HW1 1321   0.164   1.028   2.139
  425SOL    HW2 1322   0.006   0.992   2.160
  426SOL     OW 1323   0.884   1.662   2.203
  426SOL    HW1 1324   0.811   1.640   2.139
  426SOL    HW2 1325   0.857   1.739   2.261
  427SOL     OW 1326   0.196   0.650   3.851
  427SOL    HW1 1327   0.169   0.582   3.919
  427SOL    HW2 1328   0.220   0.603   3.765
  428SOL     OW 1329   0.221   0.289   4.710
  428SOL    HW1 1330   0.280   0.249   4.780
  428SOL    HW2 1331   0.127   0.260   4.725
  429SOL     OW 1332   6.995   0.391   4.381
  429SOL    HW1 1333   6.940   0.409   4.462
  429SOL    HW2 1334   0.023   0.295   4.381
  430SOL     OW 1335   0.569   1.296   4.909
  430SOL    HW1 1336   0.479   1.294   4.866
  430SOL    HW2 1337   0.587   1.388   4.944
  431SOL     OW 1338   1.564   1.513   4.431
  431SOL    HW1 1339   1.521   1.489   4.519
  431SOL    HW2 1340   1.493   1.520   4.361
  432SOL     OW 1341   1.134   0.702   4.420
  432SOL    HW1 1342   1.185   0.786   4.402
  432SOL    HW2 1343   1.083   0.711   4.505
  433SOL     OW 1344   1.767   0.602   3.947
  433SOL    HW1 1345   1.746   0.598   3.849
  433SOL    HW2 1346   1.730   0.521   3.992
  434SOL     OW 1347   0.744   1.141   4.764
  434SOL    HW1 1348   0.676   1.176   4.828
  434SOL    HW2 1349   0.789   1.218   4.718
  435SOL     OW 1350   0.870   0.767   5.543
  435SOL    HW1 1351   0.862   0.835   5.616
  435SOL    HW2 1352   0.896   0.812   5.458
  436SOL     OW 1353   0.683   1.001   4.374
  436SOL    HW1 1354   0.755   0.990   4.443
  436SOL    HW2 1355   0.608   1.056   4.412
  437SOL     OW 1356   0.713   1.153   5.542
  437SOL    HW1 1357   0.765   1.231   5.575
  437SOL    HW2 1358   0.628   1.184   5.500
  438SOL     OW 1359   0.333   1.421   4.789
  438SOL    HW1 1360   0.254   1.382   4.741
  438SOL    HW2 1361   0.385   1.479   4.726
  439SOL     OW 1362   1.458   1.501   5.081
  439SOL    HW1 1363   1.515   1.583   5.088
  439SOL    HW2 1364   1.388   1.503   5.152
  440SOL     OW 1365   0.451   0.405   5.216
  440SOL    HW1 1366   0.536   0.352   5.216
  440SOL    HW2 1367   0.373   0.343   5.227
  441SOL     OW 1368   1.616   0.457   4.453
  441SOL    HW1 1369   1.553   0.487   4.381
  441SOL    HW2 1370   1.626   0.530   4.520
  442SOL     OW 1371   0.226   1.710   4.190
  442SOL    HW1 1372   0.240   1.789   4.249
  442SOL    HW2 1373   0.297   1.706   4.121
  443SOL     OW 1374   1.137   1.340   5.421
  443SOL    HW1 1375   1.183   1.338   5.510
  443SOL    HW2 1376   1.081   1.257   5.411
  444SOL     OW 1377   0.275   1.442   4.243
  444SOL    HW1 1378   0.253   1.539   4.251
  444SOL    HW2 1379   0.225   1.391   4.314
  445SOL     OW 1380   0.268   1.082   4.630
  445SOL    HW1 1381   0.264   0.987   4.660
  445SOL    HW2 1382   0.197   1.135   4.677
  446SOL     OW 1383   0.603   1.796   5.151
  446SOL    HW1 1384   0.517   1.772   5.198
  446SOL    HW2 1385   0.632   1.887   5.179
  447SOL     OW 1386   0.581   0.987   3.864
  447SOL    HW1 1387   0.629   1.035   3.790
  447SOL    HW2 1388   0.621   1.015   3.952
  448SOL     OW 1389   1.579   0.131   5.171
  448SOL    HW1 1390   1.589   0.226   5.140
  448SOL    HW2 1391   1.602   0.126   5.269
  449SOL     OW 1392   0.131   0.620   4.292
  449SOL    HW1 1393   0.069   0.546   4.318
  449SOL    HW2 1394   0.121   0.696   4.357
  450SOL     OW 1395   1.846   1.756   4.057
  450SOL    HW1 1396   1.915   1.725   4.122
  450SOL    HW2 1397   1.862   1.852   4.033
  451SOL     OW 1398   0.037   1.593   3.871
  451SOL    HW1 1399   0.027   1.494   3.883
  451SOL    HW2 1400   6.962   1.640   3.918
  452SOL     OW 1401   1.690   0.920   4.370
  452SOL    HW1 1402   1.775   0.870   4.355
  452SOL    HW2 1403   1.667   0.974   4.289
  453SOL     OW 1404   1.652   1.105   4.156
  453SOL    HW1 1405   1.741   1.102   4.110
  453SOL    HW2 1406   1.655   1.171   4.230
  454SOL     OW 1407   0.145   0.734   5.300
  454SOL    HW1 1408   0.244   0.742   5.286
  454SOL    HW2 1409   0.109   0.821   5.332
  455SOL     OW 1410   0.611   1.390   4.459
  455SOL    HW1 1411   0.564   1.302   4.472
  455SOL    HW2 1412   0.598   1.420   4.364
  456SOL     OW 1413   1.289   1.235   5.146
  456SOL    HW1 1414   1.316   1.165   5.080
  456SOL    HW2 1415   1.348   1.231   5.226
  457SOL     OW 1416   0.833   0.025   4.243
  457SOL    HW1 1417   0.872   0.115   4.223
  457SOL    HW2 1418   0.733   0.032   4.242
  458SOL     OW 1419   0.204   0.961   4.987
  458SOL    HW1 1420   0.287   0.909   4.969
  458SOL    HW2 1421   0.132   0.931   4.923
  459SOL     OW 1422   1.532   0.999   3.928
  459SOL    HW1 1423   1.458   0.939   3.958
  459SOL    HW2 1424   1.578   1.037   4.008
  460SOL     OW 1425   1.183   1.811   5.346
  460SOL    HW1 1426   1.190   1.879   5.273
  460SOL    HW2 1427   1.202   1.720   5.309
  461SOL     OW 1428   0.328   0.267   5.531
  461SOL    HW1 1429   0.388   0.332   5.577
  461SOL    HW2 1430   0.237   0.269   5.574
  462SOL     OW 1431   1.465   1.420   4.672
  462SOL    HW1 1432   1.398   1.439   4.744
  462SOL    HW2 1433   1.457   1.325   4.643
  463SOL     OW 1434   1.651   1.747   4.300
  463SOL    HW1 1435   1.633   1.719   4.206
  463SOL    HW2 1436   1.629   1.672   4.362
  464SOL     OW 1437   0.591   0.718   3.989
  464SOL    HW1 1438   0.600   0.806   3.942
  464SOL    HW2 1439   0.526   0.728   4.065
  465SOL     OW 1440   1.283   0.367   4.673
  465SOL    HW1 1441   1.186   0.343   4.676
  465SOL    HW2 1442   1.332   0.315   4.744
  466SOL     OW 1443   1.583   1.672   4.032
  466SOL    HW1 1444   1.679   1.701   4.028
  466SOL    HW2 1445   1.550   1.655   3.939
  467SOL     OW 1446   0.792   0.616   5.180
  467SOL    HW1 1447   0.765   0.590   5.273
  467SOL    HW2 1448   0.754   0.551   5.115
  468SOL     OW 1449   1.394   0.473   5.404
  468SOL    HW1 1450   1.392   0.519   5.493
  468SOL    HW2 1451   1.451   0.391   5.410
  469SOL     OW 1452   0.953   0.885   5.306
  469SOL    HW1 1453   1.011   0.813   5.268
  469SOL    HW2 1454   0.900   0.927   5.233
  470SOL     OW 1455   0.995   0.412   4.952
  470SOL    HW1 1456   0.909   0.435   4.998
  470SOL    HW2 1457   0.975   0.361   4.868
  471SOL     OW 1458   1.050   0.698   4.149
  471SOL    HW1 1459   1.071   0.694   4.247
  471SOL    HW2 1460   0.964   0.652   4.132
  472SOL     OW 1461   0.102   0.818   4.497
  472SOL    HW1 1462   0.195   0.806   4.535
  472SOL    HW2 1463   0.043   0.856   4.568
  473SOL     OW 1464   0.121   1.869   5.314
  473SOL    HW1 1465   0.131   1.843   5.410
  473SOL    HW2 1466   0.031   1.840   5.281
  474SOL     OW 1467   0.890   0.355   3.924
  474SOL    HW1 1468   0.936   0.416   3.859
  474SOL    HW2 1469   0.869   0.268   3.879
  475SOL     OW 1470   1.702   0.573   5.549
  475SOL    HW1 1471   1.665   0.652   5.501
  475SOL    HW2 1472   1.730   0.503   5.483
  476SOL     OW 1473   1.379   1.143   4.258
  476SOL    HW1 1474   1.464   1.127   4.207
  476SOL    HW2 1475   1.323   1.210   4.210
  477SOL     OW 1476   0.507   0.197   4.632
  477SOL    HW1 1477   0.551   0.224   4.717
  477SOL    HW2 1478   0.532   0.262   4.560
  478SOL     OW 1479   0.996   1.442   4.189
  478SOL    HW1 1480   0.963   1.523   4.139
  478SOL    HW2 1481   0.980   1.456   4.286
  479SOL     OW 1482   0.357   1.818   4.590
  479SOL    HW1 1483   0.397   1.727   4.601
  479SOL    HW2 1484   0.426   1.888   4.611
  480SOL     OW 1485   1.798   1.057   4.595
  480SOL    HW1 1486   1.746   1.035   4.513
  480SOL    HW2 1487   1.735   1.063   4.673
  481SOL     OW 1488   1.227   1.536   5.238
  481SOL    HW1 1489   1.214   1.462   5.304
  481SOL    HW2 1490   1.159   1.528   5.165
  482SOL     OW 1491   0.318   0.946   3.974
  482SOL    HW1 1492   0.405   0.972   3.932
  482SOL    HW2 1493   0.289   0.857   3.939
  483SOL     OW 1494   1.483   0.749   4.449
  483SOL    HW1 1495   1.476   0.705   4.538
  483SOL    HW2 1496   1.563   0.809   4.447
  484SOL     OW 1497   0.472   1.260   5.452
  484SOL    HW1 1498   0.444   1.270   5.357
  484SOL    HW2 1499   0.390   1.262   5.510
  485SOL     OW 1500   1.121   1.776   3.951
  485SOL    HW1 1501   1.043   1.738   3.999
  485SOL    HW2 1502   1.151   1.712   3.880
  486SOL     OW 1503   0.205   0.278   5.235
  486SOL    HW1 1504   0.146   0.359   5.226
  486SOL    HW2 1505   0.207   0.249   5.330
  487SOL     OW 1506   1.625   1.382   3.812
  487SOL    HW1 1507   1.586   1.472   3.796
  487SOL    HW2 1508   1.555   1.312   3.793
  488SOL     OW 1509   0.468   1.734   4.042
  488SOL    HW1 1510   0.509   1.796   4.109
  488SOL    HW2 1511   0.540   1.699   3.982
  489SOL     OW 1512   1.425   0.131   4.150
  489SOL    HW1 1513   1.404   0.088   4.062
  489SOL    HW2 1514   1.524   0.137   4.161
  490SOL     OW 1515   0.259   1.794   4.948
  490SOL    HW1 1516   0.310   1.721   4.993
  490SOL    HW2 1517   0.216   1.759   4.865
  491SOL     OW 1518   0.936   1.702   4.621
  491SOL    HW1 1519   1.018   1.654   4.652
  491SOL    HW2 1520   0.893   1.650   4.546
  492SOL     OW 1521   0.399   0.688   4.195
  492SOL    HW1 1522   0.427   0.594   4.212
  492SOL    HW2 1523   0.302   0.699   4.218
  493SOL     OW 1524   1.530   0.230   5.451
  493SOL    HW1 1525   1.544   0.237   5.550
  493SOL    HW2 1526   1.445   0.181   5.432
  494SOL     OW 1527   0.644   0.111   3.827
  494SOL    HW1 1528   0.684   0.037   3.880
  494SOL    HW2 1529   0.583   0.074   3.757
  495SOL     OW 1530   0.762   0.276   5.488
  495SOL    HW1 1531   0.850   0.229   5.483
  495SOL    HW2 1532   0.708   0.237   5.563
  496SOL     OW 1533   0.876   1.516   4.916
  496SOL    HW1 1534   0.856   1.479   4.825
  496SOL    HW2 1535   0.949   1.461   4.958
  497SOL     OW 1536   1.342   0.591   5.161
  497SOL    HW1 1537   1.372   0.556   5.250
  497SOL    HW2 1538   1.377   0.684   5.149
  498SOL     OW 1539   0.820   1.390   4.665
  498SOL    HW1 1540   0.909   1.378   4.622
  498SOL    HW2 1541   0.750   1.395   4.594
  499SOL     OW 1542   0.927   0.510   4.620
  499SOL    HW1 1543   0.899   0.505   4.524
  499SOL    HW2 1544   0.960   0.421   4.651
  500SOL     OW 1545   0.569   0.063   4.209
  500SOL    HW1 1546   0.492   0.053   4.272
  500SOL    HW2 1547   0.553   0.140   4.148
  501SOL     OW 1548   1.426   1.199   3.767
  501SOL    HW1 1549   1.459   1.121   3.820
  501SOL    HW2 1550   1.337   1.228   3.803
  502SOL     OW 1551   0.305   0.046   3.921
  502SOL    HW1 1552   0.337   0.139   3.907
  502SOL    HW2 1553   0.371   6.996   3.978
  503SOL     OW 1554   0.950   0.266   4.181
  503SOL    HW1 1555   0.919   0.301   4.092
  503SOL    HW2 1556   1.049   0.274   4.187
  504SOL     OW 1557   1.080   0.683   5.178
  504SOL    HW1 1558   1.005   0.618   5.190
  504SOL    HW2 1559   1.168   0.634   5.178
  505SOL     OW 1560   1.221   1.569   4.518
  505SOL    HW1 1561   1.235   1.639   4.448
  505SOL    HW2 1562   1.291   1.577   4.588
  506SOL     OW 1563   0.467   1.150   4.457
  506SOL    HW1 1564   0.400   1.129   4.529
  506SOL    HW2 1565   0.424   1.137   4.367
  507SOL     OW 1566   1.264   1.792   4.334
  507SOL    HW1 1567   1.315   1.854   4.275
  507SOL    HW2 1568   1.191   1.842   4.380
  508SOL     OW 1569   1.017   0.537   3.756
  508SOL    HW1 1570   0.974   0.624   3.732
  508SOL    HW2 1571   1.089   0.553   3.823
  509SOL     OW 1572   0.081   0.541   5.105
  509SOL    HW1 1573   0.175   0.541   5.072
  509SOL    HW2 1574   0.069   0.613   5.173
  510SOL     OW 1575   0.581   0.241   4.893
  510SOL    HW1 1576   0.632   0.165   4.933
  510SOL    HW2 1577   0.485   0.236   4.922
  511SOL     OW 1578   0.866   0.464   4.360
  511SOL    HW1 1579   0.814   0.524   4.299
  511SOL    HW2 1580   0.894   0.382   4.311
  512SOL     OW 1581   0.959   0.028   4.495
  512SOL    HW1 1582   0.904   0.028   4.411
  512SOL    HW2 1583   1.030   6.958   4.488
  513SOL     OW 1584   1.445   1.161   4.582
  513SOL    HW1 1585   1.369   1.097   4.586
  513SOL    HW2 1586   1.474   1.173   4.487
  514SOL     OW 1587   1.466   0.608   4.695
  514SOL    HW1 1588   1.406   0.528   4.697
  514SOL    HW2 1589   1.530   0.603   4.773
  515SOL     OW 1590   1.842   0.810   4.104
  515SOL    HW1 1591   1.900   0.762   4.170
  515SOL    HW2 1592   1.812   0.747   4.033
  516SOL     OW 1593   0.496   1.420   3.878
  516SOL    HW1 1594   0.414   1.394   3.930
  516SOL    HW2 1595   0.484   1.392   3.782
  517SOL     OW 1596   1.674   1.266   4.368
  517SOL    HW1 1597   1.773   1.264   4.380
  517SOL    HW2 1598   1.640   1.358   4.388
  518SOL     OW 1599   1.391   0.575   3.795
  518SOL    HW1 1600   1.328   0.552   3.869
  518SOL    HW2 1601   1.485   0.559   3.825
  519SOL     OW 1602   0.525   0.263   4.027
  519SOL    HW1 1603   0.579   0.211   3.960
  519SOL    HW2 1604   0.503   0.352   3.989
  520SOL     OW 1605   1.753   1.240   5.286
  520SOL    HW1 1606   1.843   1.198   5.274
  520SOL    HW2 1607   1.764   1.334   5.320
  521SOL     OW 1608   1.054   1.349   5.059
  521SOL    HW1 1609   0.973   1.320   5.110
  521SOL    HW2 1610   1.136   1.310   5.102
  522SOL     OW 1611   1.613   1.629   5.380
  522SOL    HW1 1612   1.598   1.664   5.288
  522SOL    HW2 1613   1.699   1.578   5.383
  523SOL     OW 1614   1.136   1.217   4.829
  523SOL    HW1 1615   1.076   1.252   4.902
  523SOL    HW2 1616   1.102   1.248   4.740
  524SOL     OW 1617   1.625   1.097   4.803
  524SOL    HW1 1618   1.621   1.162   4.879
  524SOL    HW2 1619   1.548   1.113   4.741
  525SOL     OW 1620   0.895   0.148   5.112
  525SOL    HW1 1621   0.912   0.111   5.021
  525SOL    HW2 1622   0.982   0.176   5.153
  526SOL     OW 1623   0.980   1.114   5.445
  526SOL    HW1 1624   0.886   1.134   5.472
  526SOL    HW2 1625   0.982   1.032   5.388
  527SOL     OW 1626   0.711   1.057   4.098
  527SOL    HW1 1627   0.695   1.041   4.195
  527SOL    HW2 1628   0.790   1.004   4.068
  528SOL     OW 1629   0.429   0.807   4.972
  528SOL    HW1 1630   0.500   0.822   5.042
  528SOL    HW2 1631   0.388   0.717   4.986
  529SOL     OW 1632   1.261   0.379   5.010
  529SOL    HW1 1633   1.298   0.458   5.058
  529SOL    HW2 1634   1.166   0.398   4.984
  530SOL     OW 1635   0.068   1.566   5.042
  530SOL    HW1 1636   0.018   1.651   5.057
  530SOL    HW2 1637   0.165   1.580   5.063
  531SOL     OW 1638   0.341   1.116   4.216
  531SOL    HW1 1639   0.352   1.195   4.156
  531SOL    HW2 1640   0.340   1.032   4.161
  532SOL     OW 1641   0.552   0.548   4.587
  532SOL    HW1 1642   0.566   0.606   4.507
  532SOL    HW2 1643   0.622   0.567   4.656
  533SOL     OW 1644   1.246   1.354   4.116
  533SOL    HW1 1645   1.307   1.427   4.147
  533SOL    HW2 1646   1.153   1.374   4.147
  534SOL     OW 1647   1.287   1.461   4.871
  534SOL    HW1 1648   1.345   1.467   4.952
  534SOL    HW2 1649   1.232   1.378   4.876
  535SOL     OW 1650   1.573   0.623   4.208
  535SOL    HW1 1651   1.525   0.678   4.277
  535SOL    HW2 1652   1.625   0.683   4.148
  536SOL     OW 1653   0.351   1.533   5.034
  536SOL    HW1 1654   0.332   1.486   4.948
  536SOL    HW2 1655   0.450   1.545   5.043
  537SOL     OW 1656   0.424   0.734   5.322
  537SOL    HW1 1657   0.482   0.788   5.262
  537SOL    HW2 1658   0.470   0.648   5.345
  538SOL     OW 1659   1.608   0.785   5.409
  538SOL    HW1 1660   1.516   0.826   5.406
  538SOL    HW2 1661   1.664   0.825   5.337
  539SOL     OW 1662   0.997   0.135   5.459
  539SOL    HW1 1663   1.039   0.182   5.382
  539SOL    HW2 1664   1.001   0.037   5.445
  540SOL     OW 1665   0.470   0.040   5.481
  540SOL    HW1 1666   0.413   6.970   5.439
  540SOL    HW2 1667   0.416   0.124   5.495
  541SOL     OW 1668   0.587   0.873   4.756
  541SOL    HW1 1669   0.620   0.967   4.754
  541SOL    HW2 1670   0.528   0.860   4.835
  542SOL     OW 1671   1.353   0.858   4.749
  542SOL    HW1 1672   1.262   0.850   4.708
  542SOL    HW2 1673   1.400   0.770   4.741
  543SOL     OW 1674   1.199   0.527   3.988
  543SOL    HW1 1675   1.211   0.445   4.043
  543SOL    HW2 1676   1.154   0.597   4.044
  544SOL     OW 1677   0.325   0.213   4.970
  544SOL    HW1 1678   0.274   0.234   5.054
  544SOL    HW2 1679   0.297   0.123   4.936
  545SOL     OW 1680   0.096   1.307   4.988
  545SOL    HW1 1681   0.105   1.245   5.066
  545SOL    HW2 1682   0.087   1.401   5.021
  546SOL     OW 1683   0.730   0.636   4.779
  546SOL    HW1 1684   0.804   0.614   4.716
  546SOL    HW2 1685   0.693   0.727   4.758
  547SOL     OW 1686   1.736   0.960   5.579
  547SOL    HW1 1687   1.692   0.892   5.520
  547SOL    HW2 1688   1.676   0.979   5.657
  548SOL     OW 1689   0.346   0.061   4.353
  548SOL    HW1 1690   0.314   0.146   4.395
  548SOL    HW2 1691   0.290   6.985   4.384
  549SOL     OW 1692   1.626   0.392   4.070
  549SOL    HW1 1693   1.656   0.314   4.125
  549SOL    HW2 1694   1.595   0.466   4.130
  550SOL     OW 1695   1.025   0.756   4.682
  550SOL    HW1 1696   1.020   0.778   4.780
  550SOL    HW2 1697   0.997   0.662   4.668
  551SOL     OW 1698   0.982   1.563   5.441
  551SOL    HW1 1699   0.965   1.611   5.355
  551SOL    HW2 1700   1.030   1.477   5.423
  552SOL     OW 1701   1.855   1.504   5.328
  552SOL    HW1 1702   1.873   1.530   5.233
  552SOL    HW2 1703   1.938   1.516   5.382
  553SOL     OW 1704   0.364   0.917   5.522
  553SOL    HW1 1705   0.441   0.942   5.581
  553SOL    HW2 1706   0.394   0.848   5.456
  554SOL     OW 1707   1.539   0.235   3.859
  554SOL    HW1 1708   1.440   0.230   3.869
  554SOL    HW2 1709   1.576   0.293   3.931
  555SOL     OW 1710   1.289   0.826   3.751
  555SOL    HW1 1711   1.329   0.735   3.758
  555SOL    HW2 1712   1.320   0.869   3.666
  556SOL     OW 1713   1.070   1.337   4.578
  556SOL    HW1 1714   1.073   1.259   4.516
  556SOL    HW2 1715   1.129   1.410   4.544
  557SOL     OW 1716   0.321   0.803   4.665
  557SOL    HW1 1717   0.418   0.829   4.665
  557SOL    HW2 1718   0.312   0.710   4.700
  558SOL     OW 1719   0.331   0.529   4.736
  558SOL    HW1 1720   0.288   0.440   4.719
  558SOL    HW2 1721   0.413   0.538   4.679
  559SOL     OW 1722   1.125   0.411   5.395
  559SOL    HW1 1723   1.077   0.453   5.472
  559SOL    HW2 1724   1.223   0.430   5.403
  560SOL     OW 1725   1.136   0.224   5.209
  560SOL    HW1 1726   1.136   0.299   5.275
  560SOL    HW2 1727   1.193   0.250   5.130
  561SOL     OW 1728   6.991   1.323   3.940
  561SOL    HW1 1729   6.918   1.348   4.004
  561SOL    HW2 1730   0.021   1.229   3.959
  562SOL     OW 1731   0.097   1.758   4.672
  562SOL    HW1 1732   0.076   1.684   4.608
  562SOL    HW2 1733   0.183   1.801   4.646
  563SOL     OW 1734   0.494   1.578   4.628
  563SOL    HW1 1735   0.564   1.644   4.655
  563SOL    HW2 1736   0.535   1.510   4.568
  564SOL     OW 1737   0.976   0.795   4.948
  564SOL    HW1 1738   1.036   0.769   5.025
  564SOL    HW2 1739   0.887   0.752   4.959
  565SOL     OW 1740   0.051   0.601   4.833
  565SOL    HW1 1741   0.131   0.563   4.786
  565SOL    HW2 1742   0.057   0.581   4.930
  566SOL     OW 1743   0.203   0.520   5.450
  566SOL    HW1 1744   0.290   0.482   5.419
  566SOL    HW2 1745   0.184   0.605   5.400
  567SOL     OW 1746   1.380   0.936   5.379
  567SOL    HW1 1747   1.403   1.033   5.380
  567SOL    HW2 1748   1.377   0.904   5.285
  568SOL     OW 1749   0.816   0.576   4.083
  568SOL    HW1 1750   0.828   0.495   4.025
  568SOL    HW2 1751   0.737   0.629   4.051
  569SOL     OW 1752   1.642   0.605   4.905
  569SOL    HW1 1753   1.623   0.545   4.982
  569SOL    HW2 1754   1.733   0.586   4.869
  570SOL     OW 1755   0.285   1.560   5.464
  570SOL    HW1 1756   0.229   1.627   5.513
  570SOL    HW2 1757   0.265   1.469   5.500
  571SOL     OW 1758   0.707   0.462   4.981
  571SOL    HW1 1759   0.656   0.381   4.953
  571SOL    HW2 1760   0.707   0.529   4.907
  572SOL     OW 1761   0.922   1.681   5.194
  572SOL    HW1 1762   0.895   1.635   5.109
  572SOL    HW2 1763   0.920   1.780   5.181
  573SOL     OW 1764   0.458   0.492   3.900
  573SOL    HW1 1765   0.521   0.568   3.918
  573SOL    HW2 1766   0.368   0.515   3.937
  574SOL     OW 1767   0.166   1.123   5.194
  574SOL    HW1 1768   0.155   1.062   5.272
  574SOL    HW2 1769   0.180   1.069   5.111
  575SOL     OW 1770   1.317   1.044   4.943
  575SOL    HW1 1771   1.344   0.976   4.875
  575SOL    HW2 1772   1.248   1.105   4.903
  576SOL     OW 1773   1.315   0.856   4.024
  576SOL    HW1 1774   1.238   0.829   4.082
  576SOL    HW2 1775   1.290   0.844   3.928
  577SOL     OW 1776   1.779   1.731   4.880
  577SOL    HW1 1777   1.840   1.765   4.809
  577SOL    HW2 1778   1.748   1.639   4.856
  578SOL     OW 1779   1.241   1.733   4.830
  578SOL    HW1 1780   1.327   1.761   4.787
  578SOL    HW2 1781   1.246   1.636   4.854
  579SOL     OW 1782   0.071   1.245   4.729
  579SOL    HW1 1783   0.088   1.265   4.826
  579SOL    HW2 1784   6.973   1.231   4.715
  580SOL     OW 1785   0.681   1.673   5.460
  580SOL    HW1 1786   0.617   1.750   5.456
  580SOL    HW2 1787   0.752   1.685   5.390
  581SOL     OW 1788   1.707   0.164   4.194
  581SOL    HW1 1789   1.792   0.148   4.144
  581SOL    HW2 1790   1.704   0.106   4.275
  582SOL     OW 1791   1.395   1.570   4.211
  582SOL    HW1 1792   1.458   1.602   4.140
  582SOL    HW2 1793   1.340   1.647   4.244
  583SOL     OW 1794   0.139   1.786   5.576
  583SOL    HW1 1795   0.094   1.712   5.627
  583SOL    HW2 1796   0.194   1.841   5.639
  584SOL     OW 1797   1.282   0.928   4.390
  584SOL    HW1 1798   1.357   0.864   4.407
  584SOL    HW2 1799   1.315   1.005   4.335
  585SOL     OW 1800   0.805   1.278   5.151
  585SOL    HW1 1801   0.776   1.321   5.237
  585SOL    HW2 1802   0.735   1.294   5.081
  586SOL     OW 1803   0.672   1.622   3.878
  586SOL    HW1 1804   0.687   1.641   3.780
  586SOL    HW2 1805   0.615   1.541   3.888
  587SOL     OW 1806   1.618   1.728   5.111
  587SOL    HW1 1807   1.675   1.730   5.029
  587SOL    HW2 1808   1.603   1.822   5.143
  588SOL     OW 1809   1.866   0.162   4.679
  588SOL    HW1 1810   1.864   0.063   4.668
  588SOL    HW2 1811   1.775   0.199   4.663
  589SOL     OW 1812   0.286   0.337   4.442
  589SOL    HW1 1813   0.197   0.374   4.414
  589SOL    HW2 1814   0.282   0.310   4.538
  590SOL     OW 1815   1.208   1.601   3.757
  590SOL    HW1 1816   1.199   1.507   3.790
  590SOL    HW2 1817   1.141   1.618   3.685
  591SOL     OW 1818   0.823   1.010   5.102
  591SOL    HW1 1819   0.874   0.994   5.017
  591SOL    HW2 1820   0.821   1.108   5.121
  592SOL     OW 1821   0.919   0.910   4.011
  592SOL    HW1 1822   0.980   0.946   3.940
  592SOL    HW2 1823   0.965   0.839   4.063
  593SOL     OW 1824   1.489   1.629   3.766
  593SOL    HW1 1825   1.390   1.618   3.755
  593SOL    HW2 1826   1.532   1.635   3.676
  594SOL     OW 1827   0.372   1.307   5.210
  594SOL    HW1 1828   0.359   1.388   5.153
  594SOL    HW2 1829   0.302   1.239   5.188
  595SOL     OW 1830   1.614   1.284   5.008
  595SOL    HW1 1831   1.677   1.265   5.083
  595SOL    HW2 1832   1.548   1.354   5.036
  596SOL     OW 1833   1.060   1.106   4.438
  596SOL    HW1 1834   0.984   1.056   4.478
  596SOL    HW2 1835   1.128   1.041   4.404
  597SOL     OW 1836   1.024   0.249   4.675
  597SOL    HW1 1837   1.002   0.202   4.590
  597SOL    HW2 1838   1.015   0.185   4.752
  598SOL     OW 1839   0.607   1.487   4.205
  598SOL    HW1 1840   0.657   1.433   4.137
  598SOL    HW2 1841   0.530   1.533   4.161
  599SOL     OW 1842   1.732   0.392   5.099
  599SOL    HW1 1843   1.801   0.465   5.105
  599SOL    HW2 1844   1.769   0.315   5.047
  600SOL     OW 1845   0.255   1.350   3.997
  600SOL    HW1 1846   0.157   1.351   3.980
  600SOL    HW2 1847   0.273   1.387   4.089
  601SOL     OW 1848   0.120   0.973   5.427
  601SOL    HW1 1849   0.066   1.024   5.493
  601SOL    HW2 1850   0.211   0.956   5.464
  602SOL     OW 1851   0.670   0.236   5.231
  602SOL    HW1 1852   0.751   0.209   5.179
  602SOL    HW2 1853   0.698   0.267   5.322
  603SOL     OW 1854   0.081   0.315   3.773
  603SOL    HW1 1855   6.988   0.278   3.767
  603SOL    HW2 1856   0.082   0.406   3.730
  604SOL     OW 1857   1.425   0.858   5.120
  604SOL    HW1 1858   1.369   0.921   5.066
  604SOL    HW2 1859   1.519   0.859   5.086
  605SOL     OW 1860   0.039   0.181   4.051
  605SOL    HW1 1861   0.064   0.257   3.991
  605SOL    HW2 1862   0.077   0.096   4.015
  606SOL     OW 1863   1.180   1.338   3.844
  606SOL    HW1 1864   1.084   1.311   3.837
  606SOL    HW2 1865   1.208   1.339   3.940
  607SOL     OW 1866   0.624   0.831   5.158
  607SOL    HW1 1867   0.680   0.912   5.143
  607SOL    HW2 1868   0.684   0.751   5.169
  608SOL     OW 1869   1.485   1.787   4.711
  608SOL    HW1 1870   1.506   1.848   4.635
  608SOL    HW2 1871   1.570   1.754   4.752
  609SOL     OW 1872   0.717   0.560   5.432
  609SOL    HW1 1873   0.763   0.631   5.486
  609SOL    HW2 1874   0.740   0.470   5.468
  610SOL     OW 1875   1.473   1.197   5.359
  610SOL    HW1 1876   1.458   1.210   5.457
  610SOL    HW2 1877   1.569   1.215   5.337
  611SOL     OW 1878   0.372   1.745   5.287
  611SOL    HW1 1879   0.285   1.792   5.272
  611SOL    HW2 1880   0.356   1.661   5.339
  612SOL     OW 1881   1.666   0.879   4.980
  612SOL    HW1 1882   1.661   0.788   4.939
  612SOL    HW2 1883   1.654   0.948   4.909
  613SOL     OW 1884   1.225   0.318   4.180
  613SOL    HW1 1885   1.294   0.247   4.172
  613SOL    HW2 1886   1.244   0.375   4.260
  614SOL     OW 1887   0.589   0.738   4.391
  614SOL    HW1 1888   0.629   0.829   4.382
  614SOL    HW2 1889   0.519   0.726   4.321
  615SOL     OW 1890   1.750   0.370   5.372
  615SOL    HW1 1891   1.741   0.384   5.273
  615SOL    HW2 1892   1.679   0.308   5.403
  616SOL     OW 1893   1.752   0.932   5.234
  616SOL    HW1 1894   1.740   1.029   5.255
  616SOL    HW2 1895   1.731   0.917   5.137
  617SOL     OW 1896   0.869   1.364   3.768
  617SOL    HW1 1897   0.825   1.388   3.854
  617SOL    HW2 1898   0.882   1.446   3.712
  618SOL     OW 1899   0.666   1.787   4.667
  618SOL    HW1 1900   0.642   1.881   4.644
  618SOL    HW2 1901   0.764   1.773   4.655
  619SOL     OW 1902   0.869   0.970   4.580
  619SOL    HW1 1903   0.920   0.893   4.617
  619SOL    HW2 1904   0.826   1.021   4.655
  620SOL     OW 1905   1.077   0.988   3.808
  620SOL    HW1 1906   1.050   1.043   3.729
  620SOL    HW2 1907   1.155   0.931   3.784
  621SOL     OW 1908   1.847   1.556   4.571
  621SOL    HW1 1909   1.770   1.544   4.508
  621SOL    HW2 1910   1.842   1.487   4.643
  622SOL     OW 1911   0.242   1.308   5.589
  622SOL    HW1 1912   0.150   1.276   5.567
  622SOL    HW2 1913   0.251   1.318   5.688
  623SOL     OW 1914   0.150   1.271   4.414
  623SOL    HW1 1915   0.101   1.225   4.487
  623SOL    HW2 1916   0.198   1.204   4.357
  624SOL     OW 1917   0.685   1.408   5.359
  624SOL    HW1 1918   0.603   1.358   5.387
  624SOL    HW2 1919   0.681   1.502   5.395
  625SOL     OW 1920   1.852   0.183   4.971
  625SOL    HW1 1921   1.774   0.121   4.968
  625SOL    HW2 1922   1.877   0.209   4.877
  626SOL     OW 1923   0.454   0.433   4.249
  626SOL    HW1 1924   0.488   0.357   4.193
  626SOL    HW2 1925   0.404   0.398   4.327
  627SOL     OW 1926   1.694   1.483   4.818
  627SOL    HW1 1927   1.613   1.465   4.763
  627SOL    HW2 1928   1.703   1.412   4.888
  628SOL     OW 1929   0.333   0.552   5.013
  628SOL    HW1 1930   0.394   0.500   5.072
  628SOL    HW2 1931   0.350   0.528   4.918
  629SOL     OW 1932   0.828   1.579   4.402
  629SOL    HW1 1933   0.815   1.640   4.324
  629SOL    HW2 1934   0.751   1.516   4.409
  630SOL     OW 1935   1.412   0.215   4.854
  630SOL    HW1 1936   1.495   0.173   4.891
  630SOL    HW2 1937   1.365   0.264   4.927
  631SOL     OW 1938   0.977   0.055   4.860
  631SOL    HW1 1939   0.920   6.990   4.810
  631SOL    HW2 1940   1.034   0.005   4.926
  632SOL     OW 1941   0.774   1.331   4.045
  632SOL    HW1 1942   0.746   1.236   4.053
  632SOL    HW2 1943   0.859   1.345   4.096
  633SOL     OW 1944   0.626   1.558   5.014
  633SOL    HW1 1945   0.623   1.645   5.063
  633SOL    HW2 1946   0.716   1.547   4.972
  634SOL     OW 1947   1.323   0.017   3.915
  634SOL    HW1 1948   1.371   6.950   3.857
  634SOL    HW2 1949   1.247   6.972   3.962
  635SOL     OW 1950   1.269   0.454   4.411
  635SOL    HW1 1951   1.224   0.543   4.408
  635SOL    HW2 1952   1.288   0.429   4.507
  636SOL     OW 1953   1.618   0.258   4.639
  636SOL    HW1 1954   1.529   0.235   4.679
  636SOL    HW2 1955   1.606   0.321   4.563
  637SOL     OW 1956   0.071   1.065   4.001
  637SOL    HW1 1957   0.164   1.028   4.001
  637SOL    HW2 1958   0.006   0.992   4.022
  638SOL     OW 1959   0.884   1.662   4.065
  638SOL    HW1 1960   0.811   1.640   4.001
  638SOL    HW2 1961   0.858   1.739   4.123
  639SOL     OW 1962   0.196   0.649   5.713
  639SOL    HW1 1963   0.169   0.582   5.781
  639SOL    HW2 1964   0.220   0.603   5.627
  640SOL     OW 1965   0.220   0.291   6.572
  640SOL    HW1 1966   0.281   0.248   6.639
  640SOL    HW2 1967   0.125   0.263   6.590
  641SOL     OW 1968   6.995   0.391   6.243
  641SOL    HW1 1969   6.940   0.408   6.325
  641SOL    HW2 1970   0.024   0.295   6.242
  642SOL     OW 1971   0.560   1.283   6.758
  642SOL    HW1 1972   0.473   1.303   6.714
  642SOL    HW2 1973   0.588   1.360   6.814
  643SOL     OW 1974   1.563   1.512   6.294
  643SOL    HW1 1975   1.519   1.490   6.381
  643SOL    HW2 1976   1.493   1.520   6.222
  644SOL     OW 1977   1.133   0.702   6.282
  644SOL    HW1 1978   1.185   0.786   6.266
  644SOL    HW2 1979   1.081   0.710   6.367
  645SOL     OW 1980   1.768   0.602   5.809
  645SOL    HW1 1981   1.746   0.598   5.711
  645SOL    HW2 1982   1.730   0.522   5.854
  646SOL     OW 1983   0.757   1.144   6.627
  646SOL    HW1 1984   0.683   1.170   6.690
  646SOL    HW2 1985   0.790   1.224   6.579
  647SOL     OW 1986   0.683   1.001   6.236
  647SOL    HW1 1987   0.754   0.989   6.305
  647SOL    HW2 1988   0.609   1.056   6.274
  648SOL     OW 1989   0.336   1.405   6.640
  648SOL    HW1 1990   0.253   1.374   6.594
  648SOL    HW2 1991   0.385   1.469   6.582
  649SOL     OW 1992   1.617   0.459   6.313
  649SOL    HW1 1993   1.553   0.487   6.242
  649SOL    HW2 1994   1.621   0.530   6.384
  650SOL     OW 1995   0.226   1.710   6.052
  650SOL    HW1 1996   0.240   1.789   6.111
  650SOL    HW2 1997   0.297   1.706   5.982
  651SOL     OW 1998   0.275   1.442   6.105
  651SOL    HW1 1999   0.253   1.540   6.112
  651SOL    HW2 2000   0.225   1.391   6.175
  652SOL     OW 2001   0.267   1.080   6.489
  652SOL    HW1 2002   0.266   0.986   6.522
  652SOL    HW2 2003   0.195   1.133   6.534
  653SOL     OW 2004   0.611   1.806   6.985
  653SOL    HW1 2005   0.518   1.784   0.013
  653SOL    HW2 2006   0.637   1.896   0.019
  654SOL     OW 2007   0.581   0.987   5.726
  654SOL    HW1 2008   0.629   1.035   5.652
  654SOL    HW2 2009   0.621   1.015   5.814
  655SOL     OW 2010   0.131   0.620   6.153
  655SOL    HW1 2011   0.069   0.546   6.179
  655SOL    HW2 2012   0.122   0.695   6.218
  656SOL     OW 2013   1.846   1.756   5.919
  656SOL    HW1 2014   1.915   1.725   5.984
  656SOL    HW2 2015   1.862   1.852   5.895
  657SOL     OW 2016   0.037   1.593   5.733
  657SOL    HW1 2017   0.027   1.494   5.745
  657SOL    HW2 2018   6.962   1.640   5.779
  658SOL     OW 2019   1.690   0.920   6.231
  658SOL    HW1 2020   1.775   0.869   6.215
  658SOL    HW2 2021   1.667   0.973   6.149
  659SOL     OW 2022   1.652   1.105   6.017
  659SOL    HW1 2023   1.741   1.102   5.972
  659SOL    HW2 2024   1.655   1.172   6.092
  660SOL     OW 2025   0.611   1.390   6.321
  660SOL    HW1 2026   0.564   1.303   6.335
  660SOL    HW2 2027   0.598   1.420   6.226
  661SOL     OW 2028   0.833   0.025   6.101
  661SOL    HW1 2029   0.872   0.115   6.084
  661SOL    HW2 2030   0.733   0.031   6.102
  662SOL     OW 2031   0.204   0.954   6.831
  662SOL    HW1 2032   0.292   0.908   6.823
  662SOL    HW2 2033   0.141   0.918   6.763
  663SOL     OW 2034   1.532   0.999   5.790
  663SOL    HW1 2035   1.458   0.939   5.819
  663SOL    HW2 2036   1.578   1.037   5.870
  664SOL     OW 2037   1.456   1.423   6.533
  664SOL    HW1 2038   1.397   1.437   6.613
  664SOL    HW2 2039   1.452   1.327   6.506
  665SOL     OW 2040   1.651   1.747   6.162
  665SOL    HW1 2041   1.633   1.719   6.068
  665SOL    HW2 2042   1.629   1.672   6.225
  666SOL     OW 2043   0.591   0.718   5.851
  666SOL    HW1 2044   0.600   0.806   5.804
  666SOL    HW2 2045   0.526   0.728   5.927
  667SOL     OW 2046   1.282   0.364   6.537
  667SOL    HW1 2047   1.185   0.341   6.538
  667SOL    HW2 2048   1.330   0.314   6.609
  668SOL     OW 2049   1.583   1.672   5.894
  668SOL    HW1 2050   1.679   1.700   5.890
  668SOL    HW2 2051   1.550   1.655   5.801
  669SOL     OW 2052   0.795   0.622   0.041
  669SOL    HW1 2053   0.737   0.651   0.116
  669SOL    HW2 2054   0.744   0.562   6.980
  670SOL     OW 2055   1.005   0.390   6.794
  670SOL    HW1 2056   0.957   0.447   6.861
  670SOL    HW2 2057   0.939   0.352   6.729
  671SOL     OW 2058   1.050   0.698   6.011
  671SOL    HW1 2059   1.071   0.694   6.109
  671SOL    HW2 2060   0.964   0.651   5.994
  672SOL     OW 2061   0.105   0.816   6.358
  672SOL    HW1 2062   0.197   0.806   6.396
  672SOL    HW2 2063   0.044   0.855   6.427
  673SOL     OW 2064   0.108   1.831   0.174
  673SOL    HW1 2065   0.095   1.802   0.269
  673SOL    HW2 2066   0.020   1.853   0.134
  674SOL     OW 2067   0.890   0.355   5.786
  674SOL    HW1 2068   0.936   0.416   5.721
  674SOL    HW2 2069   0.870   0.268   5.741
  675SOL     OW 2070   1.379   1.143   6.120
  675SOL    HW1 2071   1.464   1.127   6.069
  675SOL    HW2 2072   1.323   1.210   6.072
  676SOL     OW 2073   0.508   0.203   6.497
  676SOL    HW1 2074   0.559   0.237   6.576
  676SOL    HW2 2075   0.528   0.260   6.417
  677SOL     OW 2076   0.996   1.443   6.051
  677SOL    HW1 2077   0.964   1.523   6.000
  677SOL    HW2 2078   0.979   1.456   6.148
  678SOL     OW 2079   0.357   1.818   6.450
  678SOL    HW1 2080   0.396   1.727   6.464
  678SOL    HW2 2081   0.426   1.887   6.472
  679SOL     OW 2082   1.802   1.058   6.450
  679SOL    HW1 2083   1.751   1.033   6.367
  679SOL    HW2 2084   1.741   1.057   6.529
  680SOL     OW 2085   0.318   0.946   5.836
  680SOL    HW1 2086   0.405   0.972   5.794
  680SOL    HW2 2087   0.289   0.857   5.801
  681SOL     OW 2088   1.482   0.748   6.308
  681SOL    HW1 2089   1.474   0.704   6.397
  681SOL    HW2 2090   1.562   0.809   6.309
  682SOL     OW 2091   1.122   1.776   5.813
  682SOL    HW1 2092   1.043   1.738   5.861
  682SOL    HW2 2093   1.151   1.712   5.742
  683SOL     OW 2094   1.625   1.382   5.674
  683SOL    HW1 2095   1.586   1.472   5.658
  683SOL    HW2 2096   1.555   1.312   5.655
  684SOL     OW 2097   0.468   1.734   5.904
  684SOL    HW1 2098   0.509   1.796   5.971
  684SOL    HW2 2099   0.540   1.699   5.844
  685SOL     OW 2100   1.425   0.131   6.011
  685SOL    HW1 2101   1.405   0.088   5.923
  685SOL    HW2 2102   1.524   0.137   6.023
  686SOL     OW 2103   0.256   1.809   6.782
  686SOL    HW1 2104   0.308   1.736   6.825
  686SOL    HW2 2105   0.191   1.769   6.717
  687SOL     OW 2106   0.936   1.701   6.481
  687SOL    HW1 2107   1.019   1.654   6.511
  687SOL    HW2 2108   0.893   1.649   6.407
  688SOL     OW 2109   0.399   0.688   6.057
  688SOL    HW1 2110   0.427   0.594   6.073
  688SOL    HW2 2111   0.302   0.699   6.080
  689SOL     OW 2112   0.643   0.111   5.689
  689SOL    HW1 2113   0.684   0.037   5.742
  689SOL    HW2 2114   0.583   0.074   5.619
  690SOL     OW 2115   0.875   1.518   6.760
  690SOL    HW1 2116   0.854   1.483   6.668
  690SOL    HW2 2117   0.913   1.444   6.816
  691SOL     OW 2118   0.819   1.389   6.520
  691SOL    HW1 2119   0.908   1.378   6.477
  691SOL    HW2 2120   0.748   1.394   6.449
  692SOL     OW 2121   0.928   0.510   6.483
  692SOL    HW1 2122   0.899   0.505   6.387
  692SOL    HW2 2123   0.965   0.421   6.511
  693SOL     OW 2124   0.569   0.063   6.071
  693SOL    HW1 2125   0.492   0.054   6.134
  693SOL    HW2 2126   0.552   0.140   6.010
  694SOL     OW 2127   1.426   1.199   5.629
  694SOL    HW1 2128   1.459   1.121   5.682
  694SOL    HW2 2129   1.337   1.228   5.665
  695SOL     OW 2130   0.305   0.046   5.783
  695SOL    HW1 2131   0.337   0.139   5.768
  695SOL    HW2 2132   0.372   6.996   5.839
  696SOL     OW 2133   0.950   0.266   6.043
  696SOL    HW1 2134   0.919   0.302   5.955
  696SOL    HW2 2135   1.049   0.274   6.049
  697SOL     OW 2136   1.220   1.570   6.381
  697SOL    HW1 2137   1.233   1.641   6.311
  697SOL    HW2 2138   1.296   1.571   6.445
  698SOL     OW 2139   0.467   1.150   6.318
  698SOL    HW1 2140   0.401   1.129   6.390
  698SOL    HW2 2141   0.425   1.137   6.229
  699SOL     OW 2142   1.263   1.792   6.196
  699SOL    HW1 2143   1.315   1.854   6.137
  699SOL    HW2 2144   1.189   1.842   6.241
  700SOL     OW 2145   1.017   0.537   5.618
  700SOL    HW1 2146   0.974   0.624   5.594
  700SOL    HW2 2147   1.089   0.553   5.685
  701SOL     OW 2148   0.592   0.218   6.766
  701SOL    HW1 2149   0.612   0.123   6.742
  701SOL    HW2 2150   0.495   0.227   6.789
  702SOL     OW 2151   0.865   0.465   6.222
  702SOL    HW1 2152   0.814   0.524   6.159
  702SOL    HW2 2153   0.893   0.382   6.175
  703SOL     OW 2154   0.957   0.031   6.351
  703SOL    HW1 2155   0.905   0.027   6.265
  703SOL    HW2 2156   1.027   6.960   6.351
  704SOL     OW 2157   1.439   1.161   6.442
  704SOL    HW1 2158   1.370   1.089   6.446
  704SOL    HW2 2159   1.469   1.174   6.347
  705SOL     OW 2160   1.464   0.605   6.552
  705SOL    HW1 2161   1.404   0.525   6.558
  705SOL    HW2 2162   1.530   0.603   6.627
  706SOL     OW 2163   1.843   0.810   5.966
  706SOL    HW1 2164   1.901   0.762   6.032
  706SOL    HW2 2165   1.813   0.746   5.895
  707SOL     OW 2166   0.495   1.420   5.740
  707SOL    HW1 2167   0.414   1.394   5.792
  707SOL    HW2 2168   0.484   1.392   5.644
  708SOL     OW 2169   1.674   1.267   6.228
  708SOL    HW1 2170   1.773   1.265   6.241
  708SOL    HW2 2171   1.640   1.359   6.250
  709SOL     OW 2172   1.391   0.575   5.657
  709SOL    HW1 2173   1.328   0.551   5.731
  709SOL    HW2 2174   1.485   0.559   5.687
  710SOL     OW 2175   0.525   0.263   5.889
  710SOL    HW1 2176   0.579   0.211   5.822
  710SOL    HW2 2177   0.502   0.352   5.851
  711SOL     OW 2178   1.751   1.196   0.182
  711SOL    HW1 2179   1.849   1.175   0.183
  711SOL    HW2 2180   1.738   1.291   0.156
  712SOL     OW 2181   1.119   1.237   6.695
  712SOL    HW1 2182   1.035   1.198   6.733
  712SOL    HW2 2183   1.105   1.261   6.599
  713SOL     OW 2184   1.622   1.079   6.647
  713SOL    HW1 2185   1.624   1.149   6.719
  713SOL    HW2 2186   1.545   1.098   6.585
  714SOL     OW 2187   0.711   1.057   5.960
  714SOL    HW1 2188   0.695   1.041   6.057
  714SOL    HW2 2189   0.790   1.004   5.930
  715SOL     OW 2190   0.437   0.807   6.845
  715SOL    HW1 2191   0.491   0.832   6.926
  715SOL    HW2 2192   0.395   0.717   6.860
  716SOL     OW 2193   1.264   0.385   6.871
  716SOL    HW1 2194   1.294   0.463   6.926
  716SOL    HW2 2195   1.172   0.402   6.837
  717SOL     OW 2196   0.084   1.572   6.856
  717SOL    HW1 2197   0.034   1.605   6.936
  717SOL    HW2 2198   0.182   1.576   6.873
  718SOL     OW 2199   0.341   1.116   6.077
  718SOL    HW1 2200   0.352   1.195   6.017
  718SOL    HW2 2201   0.340   1.032   6.023
  719SOL     OW 2202   0.550   0.548   6.449
  719SOL    HW1 2203   0.564   0.606   6.369
  719SOL    HW2 2204   0.621   0.568   6.517
  720SOL     OW 2205   1.246   1.354   5.978
  720SOL    HW1 2206   1.307   1.427   6.009
  720SOL    HW2 2207   1.153   1.374   6.008
  721SOL     OW 2208   1.282   1.450   6.746
  721SOL    HW1 2209   1.314   1.442   6.841
  721SOL    HW2 2210   1.221   1.374   6.725
  722SOL     OW 2211   1.572   0.624   6.068
  722SOL    HW1 2212   1.526   0.677   6.139
  722SOL    HW2 2213   1.625   0.685   6.009
  723SOL     OW 2214   0.364   1.570   6.852
  723SOL    HW1 2215   0.343   1.499   6.785
  723SOL    HW2 2216   0.462   1.566   6.875
  724SOL     OW 2217   0.587   0.871   6.621
  724SOL    HW1 2218   0.618   0.966   6.617
  724SOL    HW2 2219   0.531   0.858   6.703
  725SOL     OW 2220   1.348   0.857   6.594
  725SOL    HW1 2221   1.257   0.841   6.556
  725SOL    HW2 2222   1.400   0.771   6.593
  726SOL     OW 2223   1.198   0.527   5.850
  726SOL    HW1 2224   1.211   0.445   5.905
  726SOL    HW2 2225   1.154   0.597   5.906
  727SOL     OW 2226   0.331   0.214   6.829
  727SOL    HW1 2227   0.277   0.225   6.912
  727SOL    HW2 2228   0.316   0.123   6.791
  728SOL     OW 2229   0.054   1.301   6.834
  728SOL    HW1 2230   0.086   1.236   6.903
  728SOL    HW2 2231   0.086   1.392   6.857
  729SOL     OW 2232   0.727   0.629   6.641
  729SOL    HW1 2233   0.805   0.608   6.582
  729SOL    HW2 2234   0.695   0.722   6.624
  730SOL     OW 2235   0.349   0.061   6.220
  730SOL    HW1 2236   0.310   0.145   6.257
  730SOL    HW2 2237   0.292   6.984   6.246
  731SOL     OW 2238   1.626   0.392   5.931
  731SOL    HW1 2239   1.655   0.314   5.987
  731SOL    HW2 2240   1.595   0.466   5.991
  732SOL     OW 2241   1.023   0.757   6.550
  732SOL    HW1 2242   1.017   0.778   6.648
  732SOL    HW2 2243   0.997   0.662   6.534
  733SOL     OW 2244   1.915   1.476   0.195
  733SOL    HW1 2245   1.894   1.508   0.103
  733SOL    HW2 2246   1.927   1.554   0.256
  734SOL     OW 2247   1.539   0.235   5.721
  734SOL    HW1 2248   1.440   0.229   5.731
  734SOL    HW2 2249   1.577   0.294   5.793
  735SOL     OW 2250   1.289   0.826   5.613
  735SOL    HW1 2251   1.329   0.735   5.620
  735SOL    HW2 2252   1.320   0.869   5.528
  736SOL     OW 2253   1.072   1.336   6.439
  736SOL    HW1 2254   1.075   1.259   6.375
  736SOL    HW2 2255   1.130   1.410   6.404
  737SOL     OW 2256   0.321   0.803   6.531
  737SOL    HW1 2257   0.417   0.829   6.529
  737SOL    HW2 2258   0.313   0.708   6.564
  738SOL     OW 2259   0.333   0.529   6.603
  738SOL    HW1 2260   0.290   0.441   6.585
  738SOL    HW2 2261   0.414   0.539   6.544
  739SOL     OW 2262   1.133   0.222   0.064
  739SOL    HW1 2263   1.159   0.286   0.136
  739SOL    HW2 2264   1.165   0.257   6.976
  740SOL     OW 2265   6.991   1.323   5.802
  740SOL    HW1 2266   6.918   1.348   5.867
  740SOL    HW2 2267   0.020   1.229   5.821
  741SOL     OW 2268   0.096   1.761   6.532
  741SOL    HW1 2269   0.076   1.687   6.468
  741SOL    HW2 2270   0.185   1.802   6.509
  742SOL     OW 2271   0.494   1.578   6.491
  742SOL    HW1 2272   0.563   1.644   6.519
  742SOL    HW2 2273   0.535   1.510   6.430
  743SOL     OW 2274   0.979   0.796   6.822
  743SOL    HW1 2275   1.058   0.777   6.881
  743SOL    HW2 2276   0.898   0.752   6.860
  744SOL     OW 2277   0.064   0.608   6.698
  744SOL    HW1 2278   0.121   0.562   6.630
  744SOL    HW2 2279   0.098   0.587   6.790
  745SOL     OW 2280   0.816   0.576   5.945
  745SOL    HW1 2281   0.828   0.495   5.887
  745SOL    HW2 2282   0.737   0.629   5.913
  746SOL     OW 2283   1.647   0.610   6.752
  746SOL    HW1 2284   1.632   0.553   6.832
  746SOL    HW2 2285   1.741   0.600   6.721
  747SOL     OW 2286   0.675   0.468   6.852
  747SOL    HW1 2287   0.649   0.377   6.821
  747SOL    HW2 2288   0.688   0.528   6.773
  748SOL     OW 2289   0.941   1.662   6.999
  748SOL    HW1 2290   0.910   1.653   6.904
  748SOL    HW2 2291   0.924   1.755   0.031
  749SOL     OW 2292   0.458   0.492   5.762
  749SOL    HW1 2293   0.521   0.568   5.780
  749SOL    HW2 2294   0.367   0.516   5.798
  750SOL     OW 2295   0.161   1.126   0.029
  750SOL    HW1 2296   0.182   1.078   0.114
  750SOL    HW2 2297   0.177   1.065   6.951
  751SOL     OW 2298   1.286   1.006   6.813
  751SOL    HW1 2299   1.324   0.955   6.736
  751SOL    HW2 2300   1.258   1.097   6.782
  752SOL     OW 2301   1.315   0.856   5.885
  752SOL    HW1 2302   1.238   0.829   5.944
  752SOL    HW2 2303   1.289   0.844   5.790
  753SOL     OW 2304   1.782   1.747   6.741
  753SOL    HW1 2305   1.844   1.772   6.666
  753SOL    HW2 2306   1.744   1.656   6.724
  754SOL     OW 2307   1.246   1.725   6.699
  754SOL    HW1 2308   1.329   1.755   6.652
  754SOL    HW2 2309   1.251   1.628   6.719
  755SOL     OW 2310   0.062   1.243   6.575
  755SOL    HW1 2311   0.069   1.263   6.673
  755SOL    HW2 2312   6.966   1.230   6.551
  756SOL     OW 2313   1.707   0.165   6.056
  756SOL    HW1 2314   1.792   0.147   6.007
  756SOL    HW2 2315   1.703   0.106   6.137
  757SOL     OW 2316   1.395   1.570   6.073
  757SOL    HW1 2317   1.458   1.602   6.002
  757SOL    HW2 2318   1.340   1.647   6.106
  758SOL     OW 2319   1.281   0.928   6.252
  758SOL    HW1 2320   1.356   0.863   6.269
  758SOL    HW2 2321   1.315   1.004   6.198
  759SOL     OW 2322   0.672   1.622   5.740
  759SOL    HW1 2323   0.687   1.641   5.642
  759SOL    HW2 2324   0.615   1.541   5.750
  760SOL     OW 2325   1.866   0.164   6.532
  760SOL    HW1 2326   1.862   0.064   6.529
  760SOL    HW2 2327   1.774   0.201   6.518
  761SOL     OW 2328   0.286   0.339   6.305
  761SOL    HW1 2329   0.197   0.374   6.275
  761SOL    HW2 2330   0.281   0.312   6.401
  762SOL     OW 2331   1.208   1.601   5.619
  762SOL    HW1 2332   1.199   1.507   5.652
  762SOL    HW2 2333   1.141   1.618   5.547
  763SOL     OW 2334   0.778   1.026   6.952
  763SOL    HW1 2335   0.836   0.983   6.883
  763SOL    HW2 2336   0.825   1.105   6.990
  764SOL     OW 2337   0.919   0.910   5.873
  764SOL    HW1 2338   0.980   0.946   5.803
  764SOL    HW2 2339   0.966   0.839   5.925
  765SOL     OW 2340   1.489   1.629   5.628
  765SOL    HW1 2341   1.390   1.618   5.617
  765SOL    HW2 2342   1.532   1.635   5.538
  766SOL     OW 2343   1.618   1.269   6.833
  766SOL    HW1 2344   1.701   1.285   6.886
  766SOL    HW2 2345   1.541   1.252   6.894
  767SOL     OW 2346   1.060   1.106   6.299
  767SOL    HW1 2347   0.983   1.055   6.339
  767SOL    HW2 2348   1.128   1.041   6.266
  768SOL     OW 2349   1.025   0.246   6.524
  768SOL    HW1 2350   0.998   0.195   6.442
  768SOL    HW2 2351   1.023   0.186   6.603
  769SOL     OW 2352   0.607   1.487   6.067
  769SOL    HW1 2353   0.657   1.433   5.999
  769SOL    HW2 2354   0.530   1.533   6.023
  770SOL     OW 2355   1.700   0.429   6.947
  770SOL    HW1 2356   1.765   0.439   0.022
  770SOL    HW2 2357   1.716   0.342   6.900
  771SOL     OW 2358   0.255   1.350   5.859
  771SOL    HW1 2359   0.157   1.351   5.842
  771SOL    HW2 2360   0.274   1.387   5.951
  772SOL     OW 2361   0.081   0.315   5.635
  772SOL    HW1 2362   6.988   0.278   5.629
  772SOL    HW2 2363   0.083   0.406   5.592
  773SOL     OW 2364   0.039   0.181   5.913
  773SOL    HW1 2365   0.064   0.257   5.853
  773SOL    HW2 2366   0.077   0.096   5.877
  774SOL     OW 2367   1.180   1.338   5.706
  774SOL    HW1 2368   1.084   1.311   5.699
  774SOL    HW2 2369   1.208   1.339   5.802
  775SOL     OW 2370   1.487   1.782   6.574
  775SOL    HW1 2371   1.502   1.845   6.498
  775SOL    HW2 2372   1.575   1.757   6.614
  776SOL     OW 2373   1.494   1.295   0.285
  776SOL    HW1 2374   1.409   1.247   0.310
  776SOL    HW2 2375   1.565   1.229   0.264
  777SOL     OW 2376   0.375   1.763   0.101
  777SOL    HW1 2377   0.286   1.808   0.100
  777SOL    HW2 2378   0.400   1.738   0.194
  778SOL     OW 2379   1.698   0.877   6.830
  778SOL    HW1 2380   1.666   0.787   6.801
  778SOL    HW2 2381   1.665   0.946   6.766
  779SOL     OW 2382   1.225   0.319   6.042
  779SOL    HW1 2383   1.294   0.247   6.035
  779SOL    HW2 2384   1.244   0.375   6.123
  780SOL     OW 2385   0.587   0.739   6.254
  780SOL    HW1 2386   0.629   0.829   6.244
  780SOL    HW2 2387   0.518   0.726   6.182
  781SOL     OW 2388   1.772   0.912   0.093
  781SOL    HW1 2389   1.758   1.008   0.118
  781SOL    HW2 2390   1.744   0.899   6.998
  782SOL     OW 2391   0.869   1.364   5.630
  782SOL    HW1 2392   0.825   1.388   5.716
  782SOL    HW2 2393   0.882   1.446   5.574
  783SOL     OW 2394   0.667   1.786   6.533
  783SOL    HW1 2395   0.642   1.879   6.506
  783SOL    HW2 2396   0.765   1.772   6.519
  784SOL     OW 2397   0.869   0.969   6.442
  784SOL    HW1 2398   0.919   0.891   6.480
  784SOL    HW2 2399   0.828   1.023   6.517
  785SOL     OW 2400   1.076   0.988   5.670
  785SOL    HW1 2401   1.050   1.043   5.591
  785SOL    HW2 2402   1.155   0.931   5.646
  786SOL     OW 2403   1.850   1.557   6.432
  786SOL    HW1 2404   1.772   1.544   6.371
  786SOL    HW2 2405   1.849   1.485   6.502
  787SOL     OW 2406   0.151   1.271   6.275
  787SOL    HW1 2407   0.106   1.226   6.352
  787SOL    HW2 2408   0.197   1.204   6.218
  788SOL     OW 2409   1.850   0.190   6.849
  788SOL    HW1 2410   1.780   0.120   6.865
  788SOL    HW2 2411   1.857   0.208   6.751
  789SOL     OW 2412   0.454   0.434   6.111
  789SOL    HW1 2413   0.488   0.358   6.055
  789SOL    HW2 2414   0.404   0.398   6.190
  790SOL     OW 2415   1.680   1.503   6.683
  790SOL    HW1 2416   1.606   1.483   6.619
  790SOL    HW2 2417   1.690   1.427   6.747
  791SOL     OW 2418   0.323   0.552   6.880
  791SOL    HW1 2419   0.389   0.495   6.929
  791SOL    HW2 2420   0.332   0.536   6.782
  792SOL     OW 2421   0.829   1.579   6.263
  792SOL    HW1 2422   0.817   1.641   6.185
  792SOL    HW2 2423   0.751   1.516   6.268
  793SOL     OW 2424   1.411   0.213   6.721
  793SOL    HW1 2425   1.499   0.181   6.754
  793SOL    HW2 2426   1.367   0.268   6.792
  794SOL     OW 2427   0.996   0.050   6.709
  794SOL    HW1 2428   0.913   6.996   6.696
  794SOL    HW2 2429   1.041   0.021   6.794
  795SOL     OW 2430   0.774   1.331   5.907
  795SOL    HW1 2431   0.746   1.235   5.915
  795SOL    HW2 2432   0.859   1.345   5.958
  796SOL     OW 2433   0.634   1.561   6.874
  796SOL    HW1 2434   0.629   1.657   6.901
  796SOL    HW2 2435   0.720   1.545   6.824
  797SOL     OW 2436   1.324   0.017   5.776
  797SOL    HW1 2437   1.371   6.949   5.719
  797SOL    HW2 2438   1.248   6.973   5.824
  798SOL     OW 2439   1.270   0.454   6.275
  798SOL    HW1 2440   1.225   0.543   6.272
  798SOL    HW2 2441   1.288   0.428   6.369
  799SOL     OW 2442   1.616   0.261   6.498
  799SOL    HW1 2443   1.525   0.237   6.533
  799SOL    HW2 2444   1.607   0.324   6.421
  800SOL     OW 2445   0.071   1.065   5.863
  800SOL    HW1 2446   0.164   1.028   5.863
  800SOL    HW2 2447   0.006   0.992   5.884
  801SOL     OW 2448   0.884   1.662   5.927
  801SOL    HW1 2449   0.810   1.640   5.863
  801SOL    HW2 2450   0.857   1.739   5.984
  802SOL     OW 2451   0.229   2.513   0.127
  802SOL    HW1 2452   0.154   2.460   0.166
  802SOL    HW2 2453   0.249   2.480   0.035
  803SOL     OW 2454   0.231   2.133   0.987
  803SOL    HW1 2455   0.282   2.101   1.068
  803SOL    HW2 2456   0.134   2.116   1.000
  804SOL     OW 2457   6.987   2.249   0.657
  804SOL    HW1 2458   6.939   2.248   0.745
  804SOL    HW2 2459   0.003   2.155   0.627
  805SOL     OW 2460   0.569   3.157   1.185
  805SOL    HW1 2461   0.479   3.154   1.142
  805SOL    HW2 2462   0.586   3.250   1.219
  806SOL     OW 2463   1.562   3.376   0.707
  806SOL    HW1 2464   1.520   3.351   0.795
  806SOL    HW2 2465   1.492   3.380   0.636
  807SOL     OW 2466   1.131   2.564   0.696
  807SOL    HW1 2467   1.185   2.647   0.680
  807SOL    HW2 2468   1.081   2.573   0.782
  808SOL     OW 2469   1.785   2.440   0.198
  808SOL    HW1 2470   1.718   2.491   0.144
  808SOL    HW2 2471   1.737   2.379   0.262
  809SOL     OW 2472   0.745   3.003   1.040
  809SOL    HW1 2473   0.676   3.037   1.104
  809SOL    HW2 2474   0.789   3.081   0.994
  810SOL     OW 2475   0.872   2.628   1.820
  810SOL    HW1 2476   0.862   2.696   1.892
  810SOL    HW2 2477   0.896   2.673   1.734
  811SOL     OW 2478   0.682   2.860   0.651
  811SOL    HW1 2479   0.754   2.851   0.720
  811SOL    HW2 2480   0.608   2.917   0.688
  812SOL     OW 2481   0.713   3.015   1.818
  812SOL    HW1 2482   0.765   3.093   1.851
  812SOL    HW2 2483   0.628   3.046   1.776
  813SOL     OW 2484   0.332   3.283   1.065
  813SOL    HW1 2485   0.255   3.242   1.018
  813SOL    HW2 2486   0.384   3.340   1.001
  814SOL     OW 2487   1.458   3.363   1.357
  814SOL    HW1 2488   1.515   3.445   1.365
  814SOL    HW2 2489   1.388   3.365   1.428
  815SOL     OW 2490   0.443   2.257   1.492
  815SOL    HW1 2491   0.526   2.201   1.494
  815SOL    HW2 2492   0.363   2.198   1.501
  816SOL     OW 2493   1.611   2.310   0.744
  816SOL    HW1 2494   1.534   2.328   0.684
  816SOL    HW2 2495   1.621   2.385   0.809
  817SOL     OW 2496   0.199   3.612   0.468
  817SOL    HW1 2497   0.241   3.677   0.531
  817SOL    HW2 2498   0.270   3.566   0.415
  818SOL     OW 2499   1.137   3.202   1.697
  818SOL    HW1 2500   1.183   3.200   1.786
  818SOL    HW2 2501   1.081   3.119   1.687
  819SOL     OW 2502   0.267   3.326   0.540
  819SOL    HW1 2503   0.240   3.420   0.564
  819SOL    HW2 2504   0.224   3.262   0.603
  820SOL     OW 2505   0.270   2.945   0.908
  820SOL    HW1 2506   0.264   2.849   0.937
  820SOL    HW2 2507   0.198   2.998   0.952
  821SOL     OW 2508   0.602   3.658   1.427
  821SOL    HW1 2509   0.517   3.635   1.474
  821SOL    HW2 2510   0.632   3.749   1.455
  822SOL     OW 2511   0.586   2.831   0.146
  822SOL    HW1 2512   0.643   2.853   0.067
  822SOL    HW2 2513   0.622   2.876   0.228
  823SOL     OW 2514   1.597   1.986   1.470
  823SOL    HW1 2515   1.614   2.067   1.412
  823SOL    HW2 2516   1.583   2.016   1.564
  824SOL     OW 2517   0.130   2.481   0.571
  824SOL    HW1 2518   0.063   2.411   0.595
  824SOL    HW2 2519   0.123   2.558   0.635
  825SOL     OW 2520   1.846   3.626   0.345
  825SOL    HW1 2521   1.912   3.592   0.413
  825SOL    HW2 2522   1.847   3.726   0.345
  826SOL     OW 2523   6.972   3.414   0.120
  826SOL    HW1 2524   6.969   3.319   0.151
  826SOL    HW2 2525   0.019   3.470   0.189
  827SOL     OW 2526   1.691   2.778   0.648
  827SOL    HW1 2527   1.775   2.727   0.628
  827SOL    HW2 2528   1.668   2.836   0.570
  828SOL     OW 2529   1.654   2.961   0.443
  828SOL    HW1 2530   1.723   2.981   0.375
  828SOL    HW2 2531   1.659   3.029   0.517
  829SOL     OW 2532   0.145   2.593   1.581
  829SOL    HW1 2533   0.243   2.600   1.566
  829SOL    HW2 2534   0.109   2.681   1.612
  830SOL     OW 2535   0.612   3.251   0.736
  830SOL    HW1 2536   0.564   3.164   0.750
  830SOL    HW2 2537   0.601   3.280   0.641
  831SOL     OW 2538   1.289   3.097   1.422
  831SOL    HW1 2539   1.316   3.027   1.356
  831SOL    HW2 2540   1.348   3.093   1.502
  832SOL     OW 2541   0.820   1.874   0.513
  832SOL    HW1 2542   0.865   1.960   0.490
  832SOL    HW2 2543   0.721   1.889   0.521
  833SOL     OW 2544   0.204   2.823   1.262
  833SOL    HW1 2545   0.287   2.770   1.245
  833SOL    HW2 2546   0.132   2.792   1.201
  834SOL     OW 2547   1.492   2.877   0.209
  834SOL    HW1 2548   1.425   2.811   0.244
  834SOL    HW2 2549   1.575   2.873   0.264
  835SOL     OW 2550   1.183   3.673   1.622
  835SOL    HW1 2551   1.190   3.741   1.549
  835SOL    HW2 2552   1.202   3.582   1.585
  836SOL     OW 2553   0.351   2.113   1.828
  836SOL    HW1 2554   0.400   2.195   1.856
  836SOL    HW2 2555   0.254   2.122   1.853
  837SOL     OW 2556   1.464   3.283   0.947
  837SOL    HW1 2557   1.397   3.301   1.019
  837SOL    HW2 2558   1.457   3.187   0.919
  838SOL     OW 2559   1.649   3.610   0.580
  838SOL    HW1 2560   1.628   3.584   0.486
  838SOL    HW2 2561   1.627   3.534   0.642
  839SOL     OW 2562   0.599   2.581   0.265
  839SOL    HW1 2563   0.605   2.671   0.221
  839SOL    HW2 2564   0.535   2.585   0.341
  840SOL     OW 2565   1.277   2.219   0.932
  840SOL    HW1 2566   1.183   2.185   0.940
  840SOL    HW2 2567   1.336   2.167   0.994
  841SOL     OW 2568   1.583   3.540   0.317
  841SOL    HW1 2569   1.681   3.554   0.311
  841SOL    HW2 2570   1.544   3.537   0.224
  842SOL     OW 2571   0.790   2.475   1.450
  842SOL    HW1 2572   0.764   2.451   1.544
  842SOL    HW2 2573   0.751   2.407   1.387
  843SOL     OW 2574   1.391   2.332   1.679
  843SOL    HW1 2575   1.392   2.381   1.766
  843SOL    HW2 2576   1.453   2.253   1.685
  844SOL     OW 2577   0.953   2.747   1.582
  844SOL    HW1 2578   1.011   2.675   1.545
  844SOL    HW2 2579   0.900   2.789   1.509
  845SOL     OW 2580   0.994   2.269   1.230
  845SOL    HW1 2581   0.905   2.292   1.270
  845SOL    HW2 2582   0.980   2.219   1.145
  846SOL     OW 2583   1.051   2.562   0.428
  846SOL    HW1 2584   1.074   2.559   0.525
  846SOL    HW2 2585   0.965   2.514   0.412
  847SOL     OW 2586   0.105   2.678   0.772
  847SOL    HW1 2587   0.196   2.667   0.813
  847SOL    HW2 2588   0.043   2.720   0.839
  848SOL     OW 2589   0.121   3.731   1.590
  848SOL    HW1 2590   0.131   3.705   1.686
  848SOL    HW2 2591   0.031   3.703   1.557
  849SOL     OW 2592   0.888   2.205   0.207
  849SOL    HW1 2593   0.938   2.265   0.145
  849SOL    HW2 2594   0.903   2.110   0.181
  850SOL     OW 2595   1.702   2.435   1.826
  850SOL    HW1 2596   1.666   2.514   1.776
  850SOL    HW2 2597   1.732   2.365   1.761
  851SOL     OW 2598   1.381   3.003   0.548
  851SOL    HW1 2599   1.466   2.994   0.496
  851SOL    HW2 2600   1.323   3.072   0.503
  852SOL     OW 2601   0.551   2.041   0.899
  852SOL    HW1 2602   0.556   2.066   0.996
  852SOL    HW2 2603   0.559   2.123   0.843
  853SOL     OW 2604   0.990   3.302   0.471
  853SOL    HW1 2605   0.959   3.383   0.422
  853SOL    HW2 2606   0.973   3.315   0.569
  854SOL     OW 2607   0.358   3.678   0.866
  854SOL    HW1 2608   0.397   3.586   0.877
  854SOL    HW2 2609   0.427   3.746   0.890
  855SOL     OW 2610   1.800   2.917   0.873
  855SOL    HW1 2611   1.749   2.896   0.789
  855SOL    HW2 2612   1.736   2.923   0.950
  856SOL     OW 2613   1.227   3.398   1.514
  856SOL    HW1 2614   1.214   3.324   1.580
  856SOL    HW2 2615   1.159   3.390   1.441
  857SOL     OW 2616   0.310   2.803   0.227
  857SOL    HW1 2617   0.401   2.825   0.192
  857SOL    HW2 2618   0.287   2.709   0.200
  858SOL     OW 2619   1.484   2.607   0.723
  858SOL    HW1 2620   1.478   2.566   0.814
  858SOL    HW2 2621   1.563   2.668   0.719
  859SOL     OW 2622   0.472   3.122   1.728
  859SOL    HW1 2623   0.444   3.132   1.632
  859SOL    HW2 2624   0.391   3.124   1.786
  860SOL     OW 2625   1.119   3.628   0.236
  860SOL    HW1 2626   1.049   3.583   0.291
  860SOL    HW2 2627   1.156   3.563   0.170
  861SOL     OW 2628   0.196   2.131   1.491
  861SOL    HW1 2629   0.112   2.184   1.473
  861SOL    HW2 2630   0.173   2.047   1.539
  862SOL     OW 2631   1.622   3.290   0.073
  862SOL    HW1 2632   1.584   3.381   0.086
  862SOL    HW2 2633   1.558   3.221   0.108
  863SOL     OW 2634   0.482   3.574   0.352
  863SOL    HW1 2635   0.513   3.649   0.411
  863SOL    HW2 2636   0.558   3.541   0.297
  864SOL     OW 2637   1.405   1.968   0.442
  864SOL    HW1 2638   1.396   1.939   0.346
  864SOL    HW2 2639   1.501   1.978   0.465
  865SOL     OW 2640   0.259   3.656   1.224
  865SOL    HW1 2641   0.310   3.583   1.269
  865SOL    HW2 2642   0.215   3.621   1.142
  866SOL     OW 2643   0.936   3.564   0.897
  866SOL    HW1 2644   1.019   3.516   0.927
  866SOL    HW2 2645   0.893   3.512   0.824
  867SOL     OW 2646   0.402   2.549   0.469
  867SOL    HW1 2647   0.424   2.454   0.488
  867SOL    HW2 2648   0.305   2.566   0.490
  868SOL     OW 2649   1.529   2.085   1.728
  868SOL    HW1 2650   1.540   2.106   1.825
  868SOL    HW2 2651   1.457   2.017   1.716
  869SOL     OW 2652   0.764   2.139   1.757
  869SOL    HW1 2653   0.847   2.085   1.750
  869SOL    HW2 2654   0.711   2.110   1.837
  870SOL     OW 2655   0.876   3.378   1.192
  870SOL    HW1 2656   0.856   3.341   1.101
  870SOL    HW2 2657   0.949   3.323   1.234
  871SOL     OW 2658   1.340   2.451   1.435
  871SOL    HW1 2659   1.370   2.416   1.524
  871SOL    HW2 2660   1.376   2.543   1.422
  872SOL     OW 2661   0.819   3.252   0.941
  872SOL    HW1 2662   0.909   3.240   0.898
  872SOL    HW2 2663   0.749   3.257   0.870
  873SOL     OW 2664   0.927   2.368   0.900
  873SOL    HW1 2665   0.900   2.361   0.803
  873SOL    HW2 2666   0.960   2.280   0.932
  874SOL     OW 2667   0.551   1.930   0.502
  874SOL    HW1 2668   0.470   1.930   0.560
  874SOL    HW2 2669   0.546   2.007   0.438
  875SOL     OW 2670   1.419   3.075   0.014
  875SOL    HW1 2671   1.449   2.994   0.064
  875SOL    HW2 2672   1.335   3.110   0.054
  876SOL     OW 2673   0.949   2.112   0.462
  876SOL    HW1 2674   0.917   2.152   0.376
  876SOL    HW2 2675   1.047   2.126   0.470
  877SOL     OW 2676   1.080   2.544   1.456
  877SOL    HW1 2677   1.005   2.478   1.462
  877SOL    HW2 2678   1.167   2.496   1.451
  878SOL     OW 2679   1.219   3.431   0.795
  878SOL    HW1 2680   1.234   3.500   0.724
  878SOL    HW2 2681   1.291   3.438   0.864
  879SOL     OW 2682   0.468   3.013   0.735
  879SOL    HW1 2683   0.400   2.992   0.805
  879SOL    HW2 2684   0.429   2.998   0.644
  880SOL     OW 2685   1.263   3.654   0.609
  880SOL    HW1 2686   1.317   3.717   0.553
  880SOL    HW2 2687   1.191   3.705   0.656
  881SOL     OW 2688   1.062   2.438   0.032
  881SOL    HW1 2689   0.968   2.464   0.050
  881SOL    HW2 2690   1.112   2.429   0.119
  882SOL     OW 2691   0.073   2.414   1.376
  882SOL    HW1 2692   0.169   2.406   1.347
  882SOL    HW2 2693   0.066   2.482   1.449
  883SOL     OW 2694   0.564   2.084   1.170
  883SOL    HW1 2695   0.614   2.008   1.210
  883SOL    HW2 2696   0.470   2.083   1.202
  884SOL     OW 2697   0.864   2.318   0.639
  884SOL    HW1 2698   0.822   2.382   0.574
  884SOL    HW2 2699   0.894   2.236   0.591
  885SOL     OW 2700   1.015   1.914   0.746
  885SOL    HW1 2701   0.954   1.912   0.666
  885SOL    HW2 2702   0.993   1.839   0.807
  886SOL     OW 2703   1.446   3.023   0.860
  886SOL    HW1 2704   1.369   2.959   0.861
  886SOL    HW2 2705   1.479   3.035   0.766
  887SOL     OW 2706   1.468   2.469   0.972
  887SOL    HW1 2707   1.406   2.390   0.972
  887SOL    HW2 2708   1.529   2.464   1.051
  888SOL     OW 2709   1.829   2.667   0.390
  888SOL    HW1 2710   1.890   2.606   0.442
  888SOL    HW2 2711   1.823   2.635   0.296
  889SOL     OW 2712   0.477   3.280   0.172
  889SOL    HW1 2713   0.435   3.215   0.236
  889SOL    HW2 2714   0.426   3.279   0.086
  890SOL     OW 2715   1.671   3.127   0.653
  890SOL    HW1 2716   1.771   3.126   0.661
  890SOL    HW2 2717   1.638   3.221   0.666
  891SOL     OW 2718   1.392   2.416   0.068
  891SOL    HW1 2719   1.332   2.412   0.148
  891SOL    HW2 2720   1.455   2.338   0.071
  892SOL     OW 2721   0.514   2.123   0.314
  892SOL    HW1 2722   0.518   2.056   0.240
  892SOL    HW2 2723   0.493   2.213   0.276
  893SOL     OW 2724   1.753   3.102   1.562
  893SOL    HW1 2725   1.843   3.060   1.550
  893SOL    HW2 2726   1.764   3.196   1.596
  894SOL     OW 2727   1.054   3.212   1.336
  894SOL    HW1 2728   0.973   3.182   1.386
  894SOL    HW2 2729   1.135   3.172   1.378
  895SOL     OW 2730   1.613   3.491   1.657
  895SOL    HW1 2731   1.598   3.526   1.564
  895SOL    HW2 2732   1.699   3.440   1.659
  896SOL     OW 2733   1.136   3.080   1.105
  896SOL    HW1 2734   1.076   3.114   1.178
  896SOL    HW2 2735   1.102   3.110   1.016
  897SOL     OW 2736   1.625   2.959   1.079
  897SOL    HW1 2737   1.621   3.024   1.155
  897SOL    HW2 2738   1.549   2.976   1.016
  898SOL     OW 2739   0.923   1.957   1.392
  898SOL    HW1 2740   0.944   1.934   1.297
  898SOL    HW2 2741   1.002   2.000   1.434
  899SOL     OW 2742   0.980   2.976   1.721
  899SOL    HW1 2743   0.886   2.996   1.748
  899SOL    HW2 2744   0.982   2.894   1.664
  900SOL     OW 2745   0.713   2.920   0.376
  900SOL    HW1 2746   0.695   2.903   0.473
  900SOL    HW2 2747   0.793   2.867   0.347
  901SOL     OW 2748   0.429   2.667   1.249
  901SOL    HW1 2749   0.499   2.683   1.318
  901SOL    HW2 2750   0.386   2.578   1.264
  902SOL     OW 2751   1.263   2.239   1.280
  902SOL    HW1 2752   1.300   2.318   1.329
  902SOL    HW2 2753   1.168   2.256   1.255
  903SOL     OW 2754   0.068   3.428   1.318
  903SOL    HW1 2755   0.018   3.513   1.333
  903SOL    HW2 2756   0.164   3.442   1.340
  904SOL     OW 2757   0.355   2.962   0.494
  904SOL    HW1 2758   0.336   3.037   0.430
  904SOL    HW2 2759   0.361   2.876   0.443
  905SOL     OW 2760   0.550   2.403   0.859
  905SOL    HW1 2761   0.564   2.464   0.781
  905SOL    HW2 2762   0.617   2.424   0.930
  906SOL     OW 2763   1.237   3.205   0.408
  906SOL    HW1 2764   1.300   3.279   0.432
  906SOL    HW2 2765   1.145   3.230   0.437
  907SOL     OW 2766   1.287   3.323   1.147
  907SOL    HW1 2767   1.345   3.329   1.228
  907SOL    HW2 2768   1.232   3.240   1.152
  908SOL     OW 2769   1.587   2.491   0.478
  908SOL    HW1 2770   1.529   2.532   0.549
  908SOL    HW2 2771   1.642   2.563   0.436
  909SOL     OW 2772   0.351   3.395   1.310
  909SOL    HW1 2773   0.331   3.348   1.224
  909SOL    HW2 2774   0.450   3.407   1.319
  910SOL     OW 2775   0.423   2.597   1.598
  910SOL    HW1 2776   0.483   2.650   1.538
  910SOL    HW2 2777   0.466   2.511   1.622
  911SOL     OW 2778   1.607   2.647   1.684
  911SOL    HW1 2779   1.517   2.688   1.682
  911SOL    HW2 2780   1.664   2.687   1.612
  912SOL     OW 2781   0.997   1.995   1.750
  912SOL    HW1 2782   1.055   2.074   1.734
  912SOL    HW2 2783   1.046   1.912   1.724
  913SOL     OW 2784   0.496   1.898   1.749
  913SOL    HW1 2785   0.451   1.841   1.680
  913SOL    HW2 2786   0.439   1.978   1.768
  914SOL     OW 2787   0.587   2.733   1.032
  914SOL    HW1 2788   0.618   2.827   1.028
  914SOL    HW2 2789   0.527   2.721   1.112
  915SOL     OW 2790   1.353   2.719   1.026
  915SOL    HW1 2791   1.264   2.713   0.982
  915SOL    HW2 2792   1.401   2.631   1.017
  916SOL     OW 2793   1.197   2.385   0.273
  916SOL    HW1 2794   1.215   2.306   0.332
  916SOL    HW2 2795   1.158   2.459   0.328
  917SOL     OW 2796   0.308   2.058   1.246
  917SOL    HW1 2797   0.269   2.094   1.331
  917SOL    HW2 2798   0.291   1.960   1.240
  918SOL     OW 2799   0.096   3.169   1.264
  918SOL    HW1 2800   0.104   3.107   1.341
  918SOL    HW2 2801   0.086   3.263   1.297
  919SOL     OW 2802   0.722   2.491   1.054
  919SOL    HW1 2803   0.801   2.472   0.995
  919SOL    HW2 2804   0.689   2.584   1.036
  920SOL     OW 2805   1.735   2.822   1.855
  920SOL    HW1 2806   1.692   2.754   1.796
  920SOL    HW2 2807   1.676   2.841   1.933
  921SOL     OW 2808   0.311   1.935   0.631
  921SOL    HW1 2809   0.288   2.030   0.655
  921SOL    HW2 2810   0.320   1.882   0.715
  922SOL     OW 2811   1.629   2.244   0.369
  922SOL    HW1 2812   1.645   2.172   0.437
  922SOL    HW2 2813   1.602   2.328   0.416
  923SOL     OW 2814   1.023   2.617   0.958
  923SOL    HW1 2815   1.019   2.639   1.056
  923SOL    HW2 2816   0.996   2.521   0.945
  924SOL     OW 2817   0.983   3.425   1.717
  924SOL    HW1 2818   0.965   3.473   1.631
  924SOL    HW2 2819   1.030   3.339   1.699
  925SOL     OW 2820   1.855   3.366   1.604
  925SOL    HW1 2821   1.873   3.392   1.509
  925SOL    HW2 2822   1.938   3.378   1.658
  926SOL     OW 2823   0.365   2.779   1.799
  926SOL    HW1 2824   0.442   2.804   1.857
  926SOL    HW2 2825   0.393   2.711   1.732
  927SOL     OW 2826   1.493   2.154   0.146
  927SOL    HW1 2827   1.451   2.064   0.159
  927SOL    HW2 2828   1.545   2.179   0.228
  928SOL     OW 2829   1.292   2.683   0.033
  928SOL    HW1 2830   1.340   2.596   0.024
  928SOL    HW2 2831   1.319   2.743   6.958
  929SOL     OW 2832   1.069   3.199   0.854
  929SOL    HW1 2833   1.073   3.121   0.792
  929SOL    HW2 2834   1.129   3.272   0.821
  930SOL     OW 2835   0.321   2.662   0.941
  930SOL    HW1 2836   0.417   2.688   0.943
  930SOL    HW2 2837   0.310   2.571   0.982
  931SOL     OW 2838   0.332   2.382   1.014
  931SOL    HW1 2839   0.292   2.291   0.999
  931SOL    HW2 2840   0.411   2.394   0.954
  932SOL     OW 2841   1.134   2.235   1.691
  932SOL    HW1 2842   1.081   2.292   1.754
  932SOL    HW2 2843   1.226   2.272   1.683
  933SOL     OW 2844   1.161   2.066   1.475
  933SOL    HW1 2845   1.147   2.128   1.552
  933SOL    HW2 2846   1.204   2.115   1.399
  934SOL     OW 2847   6.994   3.161   0.221
  934SOL    HW1 2848   6.924   3.185   0.289
  934SOL    HW2 2849   0.025   3.068   0.237
  935SOL     OW 2850   0.097   3.621   0.948
  935SOL    HW1 2851   0.075   3.548   0.884
  935SOL    HW2 2852   0.184   3.663   0.922
  936SOL     OW 2853   0.494   3.439   0.904
  936SOL    HW1 2854   0.564   3.505   0.931
  936SOL    HW2 2855   0.535   3.370   0.844
  937SOL     OW 2856   0.976   2.655   1.225
  937SOL    HW1 2857   1.037   2.632   1.300
  937SOL    HW2 2858   0.886   2.615   1.240
  938SOL     OW 2859   0.049   2.468   1.106
  938SOL    HW1 2860   0.124   2.419   1.061
  938SOL    HW2 2861   0.051   2.448   1.204
  939SOL     OW 2862   0.210   2.374   1.723
  939SOL    HW1 2863   0.284   2.328   1.675
  939SOL    HW2 2864   0.188   2.459   1.677
  940SOL     OW 2865   1.380   2.798   1.655
  940SOL    HW1 2866   1.403   2.895   1.656
  940SOL    HW2 2867   1.376   2.765   1.560
  941SOL     OW 2868   0.817   2.430   0.371
  941SOL    HW1 2869   0.826   2.353   0.308
  941SOL    HW2 2870   0.740   2.488   0.341
  942SOL     OW 2871   1.643   2.465   1.182
  942SOL    HW1 2872   1.626   2.405   1.260
  942SOL    HW2 2873   1.734   2.447   1.145
  943SOL     OW 2874   0.285   3.422   1.740
  943SOL    HW1 2875   0.229   3.489   1.789
  943SOL    HW2 2876   0.265   3.331   1.776
  944SOL     OW 2877   0.704   2.311   1.254
  944SOL    HW1 2878   0.651   2.231   1.229
  944SOL    HW2 2879   0.702   2.378   1.180
  945SOL     OW 2880   0.922   3.543   1.470
  945SOL    HW1 2881   0.895   3.497   1.386
  945SOL    HW2 2882   0.920   3.642   1.457
  946SOL     OW 2883   0.462   2.358   0.193
  946SOL    HW1 2884   0.521   2.437   0.213
  946SOL    HW2 2885   0.366   2.386   0.195
  947SOL     OW 2886   0.166   2.985   1.469
  947SOL    HW1 2887   0.155   2.924   1.548
  947SOL    HW2 2888   0.180   2.931   1.387
  948SOL     OW 2889   1.316   2.906   1.220
  948SOL    HW1 2890   1.344   2.838   1.152
  948SOL    HW2 2891   1.248   2.967   1.179
  949SOL     OW 2892   1.301   2.707   0.307
  949SOL    HW1 2893   1.219   2.680   0.357
  949SOL    HW2 2894   1.288   2.688   0.209
  950SOL     OW 2895   1.780   3.593   1.156
  950SOL    HW1 2896   1.841   3.627   1.085
  950SOL    HW2 2897   1.749   3.501   1.132
  951SOL     OW 2898   1.241   3.595   1.107
  951SOL    HW1 2899   1.327   3.623   1.063
  951SOL    HW2 2900   1.246   3.498   1.130
  952SOL     OW 2901   0.071   3.108   1.005
  952SOL    HW1 2902   0.088   3.128   1.102
  952SOL    HW2 2903   6.973   3.093   0.991
  953SOL     OW 2904   0.681   3.535   1.736
  953SOL    HW1 2905   0.617   3.612   1.732
  953SOL    HW2 2906   0.752   3.547   1.666
  954SOL     OW 2907   0.938   1.941   0.112
  954SOL    HW1 2908   1.009   1.994   0.066
  954SOL    HW2 2909   0.980   1.881   0.180
  955SOL     OW 2910   1.703   2.012   0.510
  955SOL    HW1 2911   1.784   2.012   0.451
  955SOL    HW2 2912   1.693   1.923   0.553
  956SOL     OW 2913   1.389   3.428   0.490
  956SOL    HW1 2914   1.455   3.454   0.420
  956SOL    HW2 2915   1.339   3.509   0.520
  957SOL     OW 2916   0.139   3.648   1.852
  957SOL    HW1 2917   0.094   3.574   1.903
  957SOL    HW2 2918   0.194   3.703   1.915
  958SOL     OW 2919   1.282   2.786   0.669
  958SOL    HW1 2920   1.357   2.720   0.683
  958SOL    HW2 2921   1.316   2.864   0.617
  959SOL     OW 2922   0.805   3.140   1.427
  959SOL    HW1 2923   0.776   3.183   1.512
  959SOL    HW2 2924   0.735   3.156   1.357
  960SOL     OW 2925   0.674   3.466   0.192
  960SOL    HW1 2926   0.681   3.511   0.103
  960SOL    HW2 2927   0.616   3.385   0.183
  961SOL     OW 2928   1.618   3.590   1.387
  961SOL    HW1 2929   1.675   3.591   1.305
  961SOL    HW2 2930   1.603   3.684   1.419
  962SOL     OW 2931   1.842   2.032   0.963
  962SOL    HW1 2932   1.876   1.941   0.941
  962SOL    HW2 2933   1.751   2.044   0.925
  963SOL     OW 2934   0.261   2.186   0.717
  963SOL    HW1 2935   0.182   2.244   0.696
  963SOL    HW2 2936   0.263   2.166   0.815
  964SOL     OW 2937   1.217   3.458   0.036
  964SOL    HW1 2938   1.211   3.364   0.069
  964SOL    HW2 2939   1.131   3.484   6.993
  965SOL     OW 2940   0.824   2.872   1.378
  965SOL    HW1 2941   0.873   2.857   1.292
  965SOL    HW2 2942   0.820   2.970   1.398
  966SOL     OW 2943   0.922   2.774   0.293
  966SOL    HW1 2944   0.978   2.804   0.215
  966SOL    HW2 2945   0.971   2.703   0.343
  967SOL     OW 2946   1.480   3.531   0.048
  967SOL    HW1 2947   1.384   3.503   0.042
  967SOL    HW2 2948   1.523   3.523   6.958
  968SOL     OW 2949   0.373   3.168   1.486
  968SOL    HW1 2950   0.359   3.250   1.429
  968SOL    HW2 2951   0.302   3.101   1.464
  969SOL     OW 2952   1.614   3.146   1.284
  969SOL    HW1 2953   1.677   3.127   1.359
  969SOL    HW2 2954   1.548   3.216   1.312
  970SOL     OW 2955   1.060   2.968   0.714
  970SOL    HW1 2956   0.984   2.918   0.755
  970SOL    HW2 2957   1.128   2.903   0.679
  971SOL     OW 2958   1.022   2.101   0.967
  971SOL    HW1 2959   1.017   2.056   0.877
  971SOL    HW2 2960   1.020   2.031   1.039
  972SOL     OW 2961   0.611   3.344   0.483
  972SOL    HW1 2962   0.653   3.292   0.409
  972SOL    HW2 2963   0.539   3.403   0.446
  973SOL     OW 2964   1.731   2.256   1.381
  973SOL    HW1 2965   1.803   2.324   1.381
  973SOL    HW2 2966   1.756   2.180   1.320
  974SOL     OW 2967   0.284   3.162   0.331
  974SOL    HW1 2968   0.198   3.163   0.280
  974SOL    HW2 2969   0.279   3.228   0.407
  975SOL     OW 2970   0.120   2.836   1.702
  975SOL    HW1 2971   0.066   2.886   1.769
  975SOL    HW2 2972   0.211   2.818   1.740
  976SOL     OW 2973   0.682   2.058   1.499
  976SOL    HW1 2974   0.769   2.033   1.455
  976SOL    HW2 2975   0.700   2.090   1.592
  977SOL     OW 2976   0.062   2.241   0.021
  977SOL    HW1 2977   6.971   2.229   6.981
  977SOL    HW2 2978   0.123   2.281   6.954
  978SOL     OW 2979   1.424   2.719   1.395
  978SOL    HW1 2980   1.369   2.783   1.342
  978SOL    HW2 2981   1.518   2.720   1.362
  979SOL     OW 2982   0.028   2.050   0.355
  979SOL    HW1 2983   0.064   2.138   0.321
  979SOL    HW2 2984   0.105   1.988   0.371
  980SOL     OW 2985   1.187   3.206   0.130
  980SOL    HW1 2986   1.089   3.189   0.116
  980SOL    HW2 2987   1.208   3.198   0.227
  981SOL     OW 2988   0.624   2.692   1.434
  981SOL    HW1 2989   0.680   2.774   1.419
  981SOL    HW2 2990   0.683   2.612   1.444
  982SOL     OW 2991   1.485   3.649   0.987
  982SOL    HW1 2992   1.507   3.710   0.911
  982SOL    HW2 2993   1.570   3.614   1.027
  983SOL     OW 2994   0.718   2.421   1.704
  983SOL    HW1 2995   0.764   2.489   1.762
  983SOL    HW2 2996   0.740   2.329   1.736
  984SOL     OW 2997   1.473   3.059   1.635
  984SOL    HW1 2998   1.458   3.072   1.733
  984SOL    HW2 2999   1.569   3.077   1.613
  985SOL     OW 3000   0.372   3.607   1.563
  985SOL    HW1 3001   0.285   3.654   1.548
  985SOL    HW2 3002   0.356   3.523   1.615
  986SOL     OW 3003   1.666   2.740   1.256
  986SOL    HW1 3004   1.661   2.649   1.214
  986SOL    HW2 3005   1.654   2.810   1.185
  987SOL     OW 3006   1.222   2.176   0.461
  987SOL    HW1 3007   1.286   2.101   0.452
  987SOL    HW2 3008   1.246   2.232   0.540
  988SOL     OW 3009   0.589   2.598   0.666
  988SOL    HW1 3010   0.629   2.689   0.661
  988SOL    HW2 3011   0.518   2.588   0.596
  989SOL     OW 3012   1.752   2.227   1.652
  989SOL    HW1 3013   1.742   2.243   1.554
  989SOL    HW2 3014   1.678   2.167   1.684
  990SOL     OW 3015   1.752   2.794   1.510
  990SOL    HW1 3016   1.741   2.891   1.531
  990SOL    HW2 3017   1.731   2.779   1.413
  991SOL     OW 3018   0.902   3.244   0.051
  991SOL    HW1 3019   0.839   3.220   0.125
  991SOL    HW2 3020   0.905   3.344   0.042
  992SOL     OW 3021   0.665   3.650   0.942
  992SOL    HW1 3022   0.644   3.744   0.919
  992SOL    HW2 3023   0.764   3.634   0.932
  993SOL     OW 3024   0.869   2.832   0.856
  993SOL    HW1 3025   0.920   2.754   0.893
  993SOL    HW2 3026   0.827   2.883   0.932
  994SOL     OW 3027   1.080   2.846   0.080
  994SOL    HW1 3028   1.080   2.905   6.999
  994SOL    HW2 3029   1.159   2.784   0.076
  995SOL     OW 3030   1.846   3.419   0.846
  995SOL    HW1 3031   1.770   3.406   0.783
  995SOL    HW2 3032   1.846   3.347   0.915
  996SOL     OW 3033   0.242   3.170   1.865
  996SOL    HW1 3034   0.151   3.138   1.842
  996SOL    HW2 3035   0.251   3.180   1.964
  997SOL     OW 3036   0.148   3.137   0.691
  997SOL    HW1 3037   0.095   3.091   0.763
  997SOL    HW2 3038   0.183   3.069   0.627
  998SOL     OW 3039   0.685   3.271   1.635
  998SOL    HW1 3040   0.603   3.220   1.663
  998SOL    HW2 3041   0.681   3.364   1.671
  999SOL     OW 3042   1.805   2.045   1.234
  999SOL    HW1 3043   1.820   1.949   1.258
  999SOL    HW2 3044   1.818   2.057   1.135
 1000SOL     OW 3045   0.440   2.292   0.528
 1000SOL    HW1 3046   0.484   2.219   0.475
 1000SOL    HW2 3047   0.399   2.252   0.610
 1001SOL     OW 3048   1.692   3.346   1.095
 1001SOL    HW1 3049   1.612   3.327   1.039
 1001SOL    HW2 3050   1.702   3.274   1.164
 1002SOL     OW 3051   0.331   2.413   1.291
 1002SOL    HW1 3052   0.388   2.358   1.352
 1002SOL    HW2 3053   0.348   2.387   1.196
 1003SOL     OW 3054   0.827   3.441   0.681
 1003SOL    HW1 3055   0.815   3.499   0.600
 1003SOL    HW2 3056   0.750   3.378   0.688
 1004SOL     OW 3057   1.431   2.093   1.117
 1004SOL    HW1 3058   1.453   2.003   1.154
 1004SOL    HW2 3059   1.376   2.144   1.183
 1005SOL     OW 3060   1.010   1.878   1.138
 1005SOL    HW1 3061   0.946   1.814   1.096
 1005SOL    HW2 3062   1.101   1.838   1.140
 1006SOL     OW 3063   0.781   3.182   0.310
 1006SOL    HW1 3064   0.749   3.089   0.329
 1006SOL    HW2 3065   0.859   3.202   0.368
 1007SOL     OW 3066   0.626   3.420   1.289
 1007SOL    HW1 3067   0.623   3.507   1.339
 1007SOL    HW2 3068   0.716   3.409   1.248
 1008SOL     OW 3069   1.360   1.906   0.180
 1008SOL    HW1 3070   1.403   1.844   0.114
 1008SOL    HW2 3071   1.266   1.876   0.197
 1009SOL     OW 3072   1.289   2.325   0.680
 1009SOL    HW1 3073   1.238   2.411   0.683
 1009SOL    HW2 3074   1.288   2.282   0.771
 1010SOL     OW 3075   1.587   2.066   0.883
 1010SOL    HW1 3076   1.528   2.085   0.962
 1010SOL    HW2 3077   1.588   2.146   0.823
 1011SOL     OW 3078   0.075   2.916   0.311
 1011SOL    HW1 3079   0.166   2.875   0.300
 1011SOL    HW2 3080   0.006   2.844   0.312
 1012SOL     OW 3081   0.889   3.524   0.353
 1012SOL    HW1 3082   0.814   3.496   0.293
 1012SOL    HW2 3083   0.861   3.604   0.407
 1013SOL     OW 3084   0.188   2.514   1.982
 1013SOL    HW1 3085   0.175   2.448   2.056
 1013SOL    HW2 3086   0.227   2.468   1.903
 1014SOL     OW 3087   0.231   2.133   2.849
 1014SOL    HW1 3088   0.281   2.102   2.930
 1014SOL    HW2 3089   0.133   2.116   2.862
 1015SOL     OW 3090   6.990   2.247   2.515
 1015SOL    HW1 3091   6.942   2.243   2.603
 1015SOL    HW2 3092   0.011   2.154   2.485
 1016SOL     OW 3093   0.560   3.148   3.038
 1016SOL    HW1 3094   0.471   3.162   2.996
 1016SOL    HW2 3095   0.591   3.232   3.082
 1017SOL     OW 3096   1.563   3.375   2.570
 1017SOL    HW1 3097   1.521   3.352   2.657
 1017SOL    HW2 3098   1.493   3.382   2.499
 1018SOL     OW 3099   1.133   2.564   2.558
 1018SOL    HW1 3100   1.185   2.648   2.541
 1018SOL    HW2 3101   1.082   2.573   2.644
 1019SOL     OW 3102   1.769   2.462   2.085
 1019SOL    HW1 3103   1.746   2.458   1.988
 1019SOL    HW2 3104   1.731   2.382   2.132
 1020SOL     OW 3105   0.747   3.003   2.904
 1020SOL    HW1 3106   0.673   3.037   2.962
 1020SOL    HW2 3107   0.790   3.079   2.857
 1021SOL     OW 3108   0.873   2.627   3.683
 1021SOL    HW1 3109   0.876   2.693   3.758
 1021SOL    HW2 3110   0.897   2.672   3.597
 1022SOL     OW 3111   0.683   2.862   2.512
 1022SOL    HW1 3112   0.755   2.852   2.581
 1022SOL    HW2 3113   0.608   2.918   2.550
 1023SOL     OW 3114   0.333   3.281   2.926
 1023SOL    HW1 3115   0.254   3.243   2.877
 1023SOL    HW2 3116   0.385   3.340   2.865
 1024SOL     OW 3117   1.469   3.362   3.200
 1024SOL    HW1 3118   1.521   3.447   3.210
 1024SOL    HW2 3119   1.404   3.354   3.275
 1025SOL     OW 3120   0.444   2.257   3.355
 1025SOL    HW1 3121   0.526   2.201   3.356
 1025SOL    HW2 3122   0.363   2.199   3.363
 1026SOL     OW 3123   1.612   2.308   2.606
 1026SOL    HW1 3124   1.536   2.328   2.543
 1026SOL    HW2 3125   1.621   2.384   2.671
 1027SOL     OW 3126   0.226   3.572   2.328
 1027SOL    HW1 3127   0.240   3.651   2.387
 1027SOL    HW2 3128   0.297   3.568   2.259
 1028SOL     OW 3129   1.165   3.196   3.573
 1028SOL    HW1 3130   1.195   3.198   3.668
 1028SOL    HW2 3131   1.113   3.113   3.555
 1029SOL     OW 3132   0.274   3.304   2.381
 1029SOL    HW1 3133   0.253   3.401   2.388
 1029SOL    HW2 3134   0.225   3.253   2.452
 1030SOL     OW 3135   0.267   2.944   2.767
 1030SOL    HW1 3136   0.264   2.849   2.798
 1030SOL    HW2 3137   0.197   2.997   2.815
 1031SOL     OW 3138   0.611   3.651   3.306
 1031SOL    HW1 3139   0.520   3.633   3.345
 1031SOL    HW2 3140   0.637   3.745   3.325
 1032SOL     OW 3141   0.582   2.849   2.002
 1032SOL    HW1 3142   0.629   2.897   1.928
 1032SOL    HW2 3143   0.621   2.877   2.090
 1033SOL     OW 3144   1.596   1.986   3.332
 1033SOL    HW1 3145   1.615   2.066   3.274
 1033SOL    HW2 3146   1.582   2.016   3.426
 1034SOL     OW 3147   0.131   2.478   2.436
 1034SOL    HW1 3148   0.063   2.409   2.459
 1034SOL    HW2 3149   0.122   2.556   2.497
 1035SOL     OW 3150   1.846   3.618   2.195
 1035SOL    HW1 3151   1.915   3.587   2.260
 1035SOL    HW2 3152   1.863   3.714   2.171
 1036SOL     OW 3153   0.037   3.455   2.009
 1036SOL    HW1 3154   0.027   3.356   2.021
 1036SOL    HW2 3155   6.961   3.502   2.055
 1037SOL     OW 3156   1.691   2.783   2.508
 1037SOL    HW1 3157   1.775   2.732   2.491
 1037SOL    HW2 3158   1.667   2.837   2.428
 1038SOL     OW 3159   1.652   2.967   2.294
 1038SOL    HW1 3160   1.741   2.965   2.248
 1038SOL    HW2 3161   1.654   3.034   2.368
 1039SOL     OW 3162   0.144   2.593   3.443
 1039SOL    HW1 3163   0.243   2.600   3.427
 1039SOL    HW2 3164   0.109   2.681   3.473
 1040SOL     OW 3165   0.611   3.251   2.596
 1040SOL    HW1 3166   0.564   3.164   2.610
 1040SOL    HW2 3167   0.598   3.282   2.502
 1041SOL     OW 3168   1.277   3.067   3.286
 1041SOL    HW1 3169   1.313   3.004   3.217
 1041SOL    HW2 3170   1.342   3.075   3.361
 1042SOL     OW 3171   0.816   1.871   2.370
 1042SOL    HW1 3172   0.862   1.957   2.348
 1042SOL    HW2 3173   0.718   1.886   2.378
 1043SOL     OW 3174   0.204   2.824   3.124
 1043SOL    HW1 3175   0.287   2.771   3.107
 1043SOL    HW2 3176   0.131   2.792   3.063
 1044SOL     OW 3177   1.532   2.861   2.066
 1044SOL    HW1 3178   1.458   2.801   2.095
 1044SOL    HW2 3179   1.578   2.899   2.146
 1045SOL     OW 3180   0.351   2.113   3.691
 1045SOL    HW1 3181   0.400   2.195   3.718
 1045SOL    HW2 3182   0.254   2.122   3.715
 1046SOL     OW 3183   1.465   3.282   2.811
 1046SOL    HW1 3184   1.396   3.302   2.881
 1046SOL    HW2 3185   1.456   3.187   2.782
 1047SOL     OW 3186   1.652   3.609   2.438
 1047SOL    HW1 3187   1.633   3.581   2.344
 1047SOL    HW2 3188   1.628   3.534   2.500
 1048SOL     OW 3189   0.590   2.579   2.128
 1048SOL    HW1 3190   0.600   2.667   2.080
 1048SOL    HW2 3191   0.526   2.590   2.204
 1049SOL     OW 3192   1.277   2.219   2.795
 1049SOL    HW1 3193   1.184   2.185   2.802
 1049SOL    HW2 3194   1.336   2.167   2.857
 1050SOL     OW 3195   1.583   3.535   2.170
 1050SOL    HW1 3196   1.679   3.563   2.166
 1050SOL    HW2 3197   1.550   3.517   2.077
 1051SOL     OW 3198   0.788   2.476   3.312
 1051SOL    HW1 3199   0.764   2.451   3.406
 1051SOL    HW2 3200   0.751   2.408   3.249
 1052SOL     OW 3201   1.391   2.332   3.541
 1052SOL    HW1 3202   1.392   2.381   3.628
 1052SOL    HW2 3203   1.453   2.253   3.547
 1053SOL     OW 3204   0.950   2.749   3.444
 1053SOL    HW1 3205   1.008   2.676   3.407
 1053SOL    HW2 3206   0.900   2.792   3.370
 1054SOL     OW 3207   0.993   2.270   3.092
 1054SOL    HW1 3208   0.903   2.290   3.130
 1054SOL    HW2 3209   0.982   2.219   3.006
 1055SOL     OW 3210   1.049   2.560   2.287
 1055SOL    HW1 3211   1.071   2.555   2.385
 1055SOL    HW2 3212   0.963   2.513   2.269
 1056SOL     OW 3213   0.102   2.680   2.636
 1056SOL    HW1 3214   0.194   2.669   2.673
 1056SOL    HW2 3215   0.043   2.719   2.706
 1057SOL     OW 3216   0.123   3.734   3.452
 1057SOL    HW1 3217   0.129   3.707   3.548
 1057SOL    HW2 3218   0.037   3.701   3.413
 1058SOL     OW 3219   0.896   2.214   2.059
 1058SOL    HW1 3220   0.936   2.282   1.996
 1058SOL    HW2 3221   0.904   2.123   2.019
 1059SOL     OW 3222   1.701   2.435   3.688
 1059SOL    HW1 3223   1.665   2.514   3.638
 1059SOL    HW2 3224   1.732   2.365   3.623
 1060SOL     OW 3225   1.379   3.005   2.397
 1060SOL    HW1 3226   1.463   2.989   2.345
 1060SOL    HW2 3227   1.323   3.072   2.349
 1061SOL     OW 3228   0.550   2.038   2.761
 1061SOL    HW1 3229   0.556   2.067   2.856
 1061SOL    HW2 3230   0.554   2.118   2.701
 1062SOL     OW 3231   0.996   3.305   2.326
 1062SOL    HW1 3232   0.964   3.385   2.276
 1062SOL    HW2 3233   0.979   3.318   2.424
 1063SOL     OW 3234   0.357   3.680   2.729
 1063SOL    HW1 3235   0.398   3.589   2.739
 1063SOL    HW2 3236   0.426   3.750   2.749
 1064SOL     OW 3237   1.799   2.920   2.732
 1064SOL    HW1 3238   1.747   2.896   2.650
 1064SOL    HW2 3239   1.736   2.925   2.810
 1065SOL     OW 3240   1.266   3.345   3.369
 1065SOL    HW1 3241   1.242   3.284   3.444
 1065SOL    HW2 3242   1.187   3.358   3.309
 1066SOL     OW 3243   0.318   2.807   2.112
 1066SOL    HW1 3244   0.405   2.833   2.070
 1066SOL    HW2 3245   0.287   2.720   2.074
 1067SOL     OW 3246   1.483   2.611   2.585
 1067SOL    HW1 3247   1.476   2.566   2.674
 1067SOL    HW2 3248   1.563   2.670   2.584
 1068SOL     OW 3249   0.445   3.089   3.620
 1068SOL    HW1 3250   0.444   3.112   3.522
 1068SOL    HW2 3251   0.357   3.113   3.661
 1069SOL     OW 3252   1.122   3.638   2.089
 1069SOL    HW1 3253   1.043   3.600   2.137
 1069SOL    HW2 3254   1.151   3.574   2.018
 1070SOL     OW 3255   0.196   2.131   3.353
 1070SOL    HW1 3256   0.113   2.184   3.335
 1070SOL    HW2 3257   0.173   2.047   3.401
 1071SOL     OW 3258   1.625   3.244   1.950
 1071SOL    HW1 3259   1.586   3.335   1.934
 1071SOL    HW2 3260   1.556   3.174   1.931
 1072SOL     OW 3261   0.468   3.596   2.180
 1072SOL    HW1 3262   0.509   3.658   2.247
 1072SOL    HW2 3263   0.540   3.561   2.120
 1073SOL     OW 3264   1.401   1.966   2.297
 1073SOL    HW1 3265   1.389   1.941   2.202
 1073SOL    HW2 3266   1.499   1.976   2.317
 1074SOL     OW 3267   0.256   3.655   3.088
 1074SOL    HW1 3268   0.309   3.582   3.131
 1074SOL    HW2 3269   0.219   3.622   3.000
 1075SOL     OW 3270   0.935   3.563   2.758
 1075SOL    HW1 3271   1.016   3.515   2.791
 1075SOL    HW2 3272   0.893   3.511   2.683
 1076SOL     OW 3273   0.401   2.545   2.336
 1076SOL    HW1 3274   0.429   2.451   2.357
 1076SOL    HW2 3275   0.303   2.555   2.355
 1077SOL     OW 3276   1.529   2.085   3.590
 1077SOL    HW1 3277   1.540   2.106   3.687
 1077SOL    HW2 3278   1.457   2.017   3.578
 1078SOL     OW 3279   0.641   1.979   1.964
 1078SOL    HW1 3280   0.710   1.910   1.985
 1078SOL    HW2 3281   0.584   1.948   1.888
 1079SOL     OW 3282   0.764   2.139   3.619
 1079SOL    HW1 3283   0.848   2.085   3.612
 1079SOL    HW2 3284   0.711   2.109   3.699
 1080SOL     OW 3285   0.867   3.362   3.044
 1080SOL    HW1 3286   0.849   3.326   2.952
 1080SOL    HW2 3287   0.946   3.315   3.083
 1081SOL     OW 3288   1.339   2.451   3.298
 1081SOL    HW1 3289   1.370   2.416   3.386
 1081SOL    HW2 3290   1.376   2.543   3.284
 1082SOL     OW 3291   0.819   3.246   2.797
 1082SOL    HW1 3292   0.909   3.238   2.754
 1082SOL    HW2 3293   0.749   3.254   2.726
 1083SOL     OW 3294   0.927   2.370   2.761
 1083SOL    HW1 3295   0.901   2.363   2.664
 1083SOL    HW2 3296   0.959   2.281   2.793
 1084SOL     OW 3297   0.546   1.926   2.358
 1084SOL    HW1 3298   0.464   1.922   2.415
 1084SOL    HW2 3299   0.542   2.006   2.299
 1085SOL     OW 3300   1.426   3.061   1.905
 1085SOL    HW1 3301   1.459   2.983   1.958
 1085SOL    HW2 3302   1.337   3.090   1.941
 1086SOL     OW 3303   0.292   1.904   2.049
 1086SOL    HW1 3304   0.341   1.985   2.016
 1086SOL    HW2 3305   0.356   1.839   2.088
 1087SOL     OW 3306   0.945   2.112   2.319
 1087SOL    HW1 3307   0.914   2.154   2.234
 1087SOL    HW2 3308   1.044   2.126   2.328
 1088SOL     OW 3309   1.079   2.545   3.318
 1088SOL    HW1 3310   1.005   2.477   3.324
 1088SOL    HW2 3311   1.167   2.499   3.314
 1089SOL     OW 3312   1.222   3.430   2.655
 1089SOL    HW1 3313   1.234   3.501   2.585
 1089SOL    HW2 3314   1.291   3.441   2.726
 1090SOL     OW 3315   0.466   3.011   2.595
 1090SOL    HW1 3316   0.400   2.991   2.666
 1090SOL    HW2 3317   0.424   2.998   2.505
 1091SOL     OW 3318   1.263   3.654   2.472
 1091SOL    HW1 3319   1.315   3.716   2.413
 1091SOL    HW2 3320   1.190   3.704   2.518
 1092SOL     OW 3321   1.021   2.399   1.891
 1092SOL    HW1 3322   0.976   2.485   1.867
 1092SOL    HW2 3323   1.090   2.416   1.960
 1093SOL     OW 3324   0.074   2.414   3.238
 1093SOL    HW1 3325   0.169   2.406   3.209
 1093SOL    HW2 3326   0.066   2.482   3.311
 1094SOL     OW 3327   0.564   2.086   3.032
 1094SOL    HW1 3328   0.614   2.008   3.070
 1094SOL    HW2 3329   0.469   2.084   3.064
 1095SOL     OW 3330   0.866   2.321   2.500
 1095SOL    HW1 3331   0.816   2.381   2.438
 1095SOL    HW2 3332   0.894   2.238   2.450
 1096SOL     OW 3333   1.017   1.915   2.608
 1096SOL    HW1 3334   0.956   1.915   2.529
 1096SOL    HW2 3335   0.992   1.839   2.668
 1097SOL     OW 3336   1.444   3.024   2.720
 1097SOL    HW1 3337   1.368   2.959   2.724
 1097SOL    HW2 3338   1.473   3.035   2.625
 1098SOL     OW 3339   1.468   2.468   2.833
 1098SOL    HW1 3340   1.407   2.389   2.833
 1098SOL    HW2 3341   1.529   2.462   2.912
 1099SOL     OW 3342   1.843   2.672   2.242
 1099SOL    HW1 3343   1.901   2.624   2.307
 1099SOL    HW2 3344   1.813   2.608   2.171
 1100SOL     OW 3345   0.495   3.282   2.016
 1100SOL    HW1 3346   0.414   3.256   2.068
 1100SOL    HW2 3347   0.484   3.254   1.920
 1101SOL     OW 3348   1.674   3.129   2.505
 1101SOL    HW1 3349   1.773   3.127   2.517
 1101SOL    HW2 3350   1.639   3.221   2.526
 1102SOL     OW 3351   1.390   2.436   1.933
 1102SOL    HW1 3352   1.327   2.414   2.007
 1102SOL    HW2 3353   1.483   2.410   1.958
 1103SOL     OW 3354   0.530   2.124   2.172
 1103SOL    HW1 3355   0.577   2.069   2.103
 1103SOL    HW2 3356   0.503   2.212   2.133
 1104SOL     OW 3357   1.750   3.083   3.417
 1104SOL    HW1 3358   1.839   3.037   3.414
 1104SOL    HW2 3359   1.763   3.178   3.445
 1105SOL     OW 3360   1.051   3.191   3.202
 1105SOL    HW1 3361   0.987   3.199   3.279
 1105SOL    HW2 3362   1.136   3.148   3.234
 1106SOL     OW 3363   1.595   3.407   3.494
 1106SOL    HW1 3364   1.585   3.462   3.412
 1106SOL    HW2 3365   1.690   3.374   3.500
 1107SOL     OW 3366   1.140   3.079   2.965
 1107SOL    HW1 3367   1.078   3.107   3.039
 1107SOL    HW2 3368   1.104   3.110   2.878
 1108SOL     OW 3369   1.626   2.959   2.941
 1108SOL    HW1 3370   1.624   3.023   3.017
 1108SOL    HW2 3371   1.549   2.976   2.880
 1109SOL     OW 3372   0.922   1.957   3.254
 1109SOL    HW1 3373   0.944   1.934   3.159
 1109SOL    HW2 3374   1.002   2.000   3.296
 1110SOL     OW 3375   1.007   2.974   3.581
 1110SOL    HW1 3376   0.916   3.006   3.606
 1110SOL    HW2 3377   1.000   2.891   3.526
 1111SOL     OW 3378   0.711   2.919   2.236
 1111SOL    HW1 3379   0.695   2.903   2.333
 1111SOL    HW2 3380   0.790   2.866   2.206
 1112SOL     OW 3381   0.428   2.667   3.111
 1112SOL    HW1 3382   0.498   2.683   3.180
 1112SOL    HW2 3383   0.386   2.578   3.126
 1113SOL     OW 3384   1.263   2.239   3.142
 1113SOL    HW1 3385   1.299   2.318   3.191
 1113SOL    HW2 3386   1.167   2.257   3.117
 1114SOL     OW 3387   0.069   3.430   3.190
 1114SOL    HW1 3388   0.028   3.520   3.177
 1114SOL    HW2 3389   0.168   3.441   3.205
 1115SOL     OW 3390   0.341   2.978   2.354
 1115SOL    HW1 3391   0.352   3.057   2.294
 1115SOL    HW2 3392   0.340   2.894   2.298
 1116SOL     OW 3393   0.549   2.405   2.725
 1116SOL    HW1 3394   0.563   2.464   2.645
 1116SOL    HW2 3395   0.619   2.426   2.795
 1117SOL     OW 3396   1.246   3.216   2.254
 1117SOL    HW1 3397   1.307   3.289   2.285
 1117SOL    HW2 3398   1.153   3.236   2.285
 1118SOL     OW 3399   1.281   3.322   3.007
 1118SOL    HW1 3400   1.345   3.327   3.084
 1118SOL    HW2 3401   1.233   3.235   3.010
 1119SOL     OW 3402   1.578   2.483   2.344
 1119SOL    HW1 3403   1.527   2.532   2.415
 1119SOL    HW2 3404   1.625   2.549   2.286
 1120SOL     OW 3405   0.352   3.393   3.172
 1120SOL    HW1 3406   0.331   3.344   3.087
 1120SOL    HW2 3407   0.450   3.410   3.177
 1121SOL     OW 3408   0.423   2.595   3.458
 1121SOL    HW1 3409   0.484   2.649   3.399
 1121SOL    HW2 3410   0.466   2.508   3.481
 1122SOL     OW 3411   1.607   2.646   3.546
 1122SOL    HW1 3412   1.516   2.688   3.544
 1122SOL    HW2 3413   1.664   2.687   3.475
 1123SOL     OW 3414   0.997   1.995   3.612
 1123SOL    HW1 3415   1.055   2.074   3.595
 1123SOL    HW2 3416   1.046   1.912   3.586
 1124SOL     OW 3417   0.496   1.898   3.611
 1124SOL    HW1 3418   0.451   1.841   3.542
 1124SOL    HW2 3419   0.439   1.978   3.630
 1125SOL     OW 3420   0.588   2.733   2.896
 1125SOL    HW1 3421   0.618   2.828   2.891
 1125SOL    HW2 3422   0.527   2.721   2.974
 1126SOL     OW 3423   1.352   2.716   2.881
 1126SOL    HW1 3424   1.262   2.707   2.839
 1126SOL    HW2 3425   1.401   2.628   2.874
 1127SOL     OW 3426   1.198   2.389   2.127
 1127SOL    HW1 3427   1.211   2.306   2.182
 1127SOL    HW2 3428   1.154   2.459   2.182
 1128SOL     OW 3429   0.307   2.058   3.108
 1128SOL    HW1 3430   0.269   2.094   3.193
 1128SOL    HW2 3431   0.291   1.960   3.103
 1129SOL     OW 3432   0.092   3.172   3.127
 1129SOL    HW1 3433   0.108   3.107   3.202
 1129SOL    HW2 3434   0.086   3.265   3.165
 1130SOL     OW 3435   0.727   2.494   2.918
 1130SOL    HW1 3436   0.802   2.473   2.856
 1130SOL    HW2 3437   0.691   2.585   2.898
 1131SOL     OW 3438   1.736   2.821   3.717
 1131SOL    HW1 3439   1.692   2.754   3.659
 1131SOL    HW2 3440   1.676   2.842   3.795
 1132SOL     OW 3441   0.301   1.923   2.486
 1132SOL    HW1 3442   0.281   2.019   2.505
 1132SOL    HW2 3443   0.313   1.874   2.573
 1133SOL     OW 3444   1.626   2.242   2.225
 1133SOL    HW1 3445   1.652   2.169   2.288
 1133SOL    HW2 3446   1.598   2.322   2.277
 1134SOL     OW 3447   1.024   2.618   2.821
 1134SOL    HW1 3448   1.019   2.641   2.919
 1134SOL    HW2 3449   0.997   2.523   2.808
 1135SOL     OW 3450   1.854   3.333   3.460
 1135SOL    HW1 3451   1.885   3.376   3.375
 1135SOL    HW2 3452   1.918   3.356   3.534
 1136SOL     OW 3453   0.354   2.768   3.662
 1136SOL    HW1 3454   0.432   2.804   3.714
 1136SOL    HW2 3455   0.388   2.703   3.594
 1137SOL     OW 3456   1.528   2.131   1.992
 1137SOL    HW1 3457   1.458   2.063   2.017
 1137SOL    HW2 3458   1.564   2.173   2.075
 1138SOL     OW 3459   1.289   2.688   1.889
 1138SOL    HW1 3460   1.330   2.597   1.897
 1138SOL    HW2 3461   1.320   2.731   1.804
 1139SOL     OW 3462   1.072   3.199   2.716
 1139SOL    HW1 3463   1.075   3.121   2.653
 1139SOL    HW2 3464   1.131   3.272   2.681
 1140SOL     OW 3465   0.321   2.663   2.803
 1140SOL    HW1 3466   0.418   2.687   2.802
 1140SOL    HW2 3467   0.310   2.572   2.842
 1141SOL     OW 3468   0.330   2.382   2.876
 1141SOL    HW1 3469   0.291   2.291   2.860
 1141SOL    HW2 3470   0.410   2.394   2.818
 1142SOL     OW 3471   1.134   2.235   3.553
 1142SOL    HW1 3472   1.081   2.291   3.617
 1142SOL    HW2 3473   1.226   2.272   3.544
 1143SOL     OW 3474   1.161   2.066   3.337
 1143SOL    HW1 3475   1.147   2.128   3.414
 1143SOL    HW2 3476   1.204   2.115   3.261
 1144SOL     OW 3477   6.991   3.185   2.078
 1144SOL    HW1 3478   6.918   3.210   2.142
 1144SOL    HW2 3479   0.021   3.091   2.097
 1145SOL     OW 3480   0.097   3.619   2.810
 1145SOL    HW1 3481   0.076   3.545   2.746
 1145SOL    HW2 3482   0.183   3.663   2.784
 1146SOL     OW 3483   0.493   3.439   2.767
 1146SOL    HW1 3484   0.563   3.506   2.794
 1146SOL    HW2 3485   0.534   3.371   2.706
 1147SOL     OW 3486   0.971   2.659   3.089
 1147SOL    HW1 3487   1.032   2.634   3.164
 1147SOL    HW2 3488   0.886   2.607   3.097
 1148SOL     OW 3489   0.049   2.469   2.968
 1148SOL    HW1 3490   0.123   2.419   2.922
 1148SOL    HW2 3491   0.051   2.448   3.066
 1149SOL     OW 3492   0.210   2.374   3.585
 1149SOL    HW1 3493   0.284   2.328   3.537
 1149SOL    HW2 3494   0.188   2.460   3.539
 1150SOL     OW 3495   1.378   2.795   3.517
 1150SOL    HW1 3496   1.401   2.892   3.519
 1150SOL    HW2 3497   1.375   2.764   3.422
 1151SOL     OW 3498   0.816   2.434   2.220
 1151SOL    HW1 3499   0.827   2.354   2.162
 1151SOL    HW2 3500   0.738   2.488   2.189
 1152SOL     OW 3501   1.643   2.465   3.043
 1152SOL    HW1 3502   1.626   2.405   3.122
 1152SOL    HW2 3503   1.734   2.447   3.007
 1153SOL     OW 3504   0.280   3.425   3.600
 1153SOL    HW1 3505   0.228   3.494   3.651
 1153SOL    HW2 3506   0.259   3.334   3.637
 1154SOL     OW 3507   0.706   2.311   3.117
 1154SOL    HW1 3508   0.651   2.231   3.091
 1154SOL    HW2 3509   0.703   2.379   3.043
 1155SOL     OW 3510   0.456   2.351   2.044
 1155SOL    HW1 3511   0.513   2.431   2.061
 1155SOL    HW2 3512   0.370   2.361   2.093
 1156SOL     OW 3513   0.169   2.988   3.330
 1156SOL    HW1 3514   0.156   2.928   3.409
 1156SOL    HW2 3515   0.183   2.933   3.248
 1157SOL     OW 3516   1.321   2.900   3.074
 1157SOL    HW1 3517   1.346   2.833   3.005
 1157SOL    HW2 3518   1.254   2.964   3.035
 1158SOL     OW 3519   1.315   2.719   2.162
 1158SOL    HW1 3520   1.239   2.691   2.220
 1158SOL    HW2 3521   1.290   2.706   2.066
 1159SOL     OW 3522   1.783   3.587   3.014
 1159SOL    HW1 3523   1.844   3.624   2.943
 1159SOL    HW2 3524   1.752   3.496   2.988
 1160SOL     OW 3525   1.242   3.595   2.971
 1160SOL    HW1 3526   1.328   3.622   2.927
 1160SOL    HW2 3527   1.246   3.497   2.993
 1161SOL     OW 3528   0.071   3.108   2.868
 1161SOL    HW1 3529   0.087   3.129   2.965
 1161SOL    HW2 3530   6.974   3.092   2.854
 1162SOL     OW 3531   0.670   3.578   3.633
 1162SOL    HW1 3532   0.600   3.649   3.627
 1162SOL    HW2 3533   0.692   3.545   3.541
 1163SOL     OW 3534   1.719   2.011   2.362
 1163SOL    HW1 3535   1.795   2.001   2.297
 1163SOL    HW2 3536   1.702   1.923   2.407
 1164SOL     OW 3537   1.395   3.432   2.349
 1164SOL    HW1 3538   1.458   3.464   2.278
 1164SOL    HW2 3539   1.340   3.509   2.382
 1165SOL     OW 3540   0.135   3.649   3.714
 1165SOL    HW1 3541   0.094   3.574   3.766
 1165SOL    HW2 3542   0.192   3.704   3.775
 1166SOL     OW 3543   1.282   2.790   2.528
 1166SOL    HW1 3544   1.357   2.725   2.544
 1166SOL    HW2 3545   1.315   2.867   2.474
 1167SOL     OW 3546   0.672   3.484   2.016
 1167SOL    HW1 3547   0.687   3.503   1.918
 1167SOL    HW2 3548   0.615   3.403   2.025
 1168SOL     OW 3549   1.623   3.587   3.237
 1168SOL    HW1 3550   1.685   3.579   3.159
 1168SOL    HW2 3551   1.600   3.683   3.252
 1169SOL     OW 3552   1.842   2.032   2.826
 1169SOL    HW1 3553   1.876   1.941   2.803
 1169SOL    HW2 3554   1.751   2.044   2.786
 1170SOL     OW 3555   0.263   2.179   2.576
 1170SOL    HW1 3556   0.187   2.240   2.556
 1170SOL    HW2 3557   0.265   2.159   2.674
 1171SOL     OW 3558   1.208   3.463   1.895
 1171SOL    HW1 3559   1.199   3.369   1.928
 1171SOL    HW2 3560   1.141   3.480   1.823
 1172SOL     OW 3561   0.824   2.877   3.235
 1172SOL    HW1 3562   0.874   2.843   3.156
 1172SOL    HW2 3563   0.799   2.973   3.221
 1173SOL     OW 3564   0.919   2.772   2.149
 1173SOL    HW1 3565   0.980   2.808   2.079
 1173SOL    HW2 3566   0.966   2.701   2.201
 1174SOL     OW 3567   1.489   3.491   1.904
 1174SOL    HW1 3568   1.390   3.480   1.893
 1174SOL    HW2 3569   1.532   3.497   1.814
 1175SOL     OW 3570   0.378   3.169   3.361
 1175SOL    HW1 3571   0.367   3.250   3.304
 1175SOL    HW2 3572   0.309   3.101   3.337
 1176SOL     OW 3573   1.619   3.142   3.148
 1176SOL    HW1 3574   1.673   3.118   3.229
 1176SOL    HW2 3575   1.556   3.216   3.170
 1177SOL     OW 3576   1.060   2.968   2.575
 1177SOL    HW1 3577   0.984   2.918   2.616
 1177SOL    HW2 3578   1.128   2.903   2.542
 1178SOL     OW 3579   1.022   2.101   2.829
 1178SOL    HW1 3580   1.018   2.057   2.740
 1178SOL    HW2 3581   1.020   2.031   2.901
 1179SOL     OW 3582   0.606   3.348   2.342
 1179SOL    HW1 3583   0.656   3.295   2.274
 1179SOL    HW2 3584   0.530   3.396   2.298
 1180SOL     OW 3585   1.730   2.256   3.243
 1180SOL    HW1 3586   1.803   2.324   3.243
 1180SOL    HW2 3587   1.756   2.181   3.182
 1181SOL     OW 3588   0.255   3.212   2.135
 1181SOL    HW1 3589   0.157   3.213   2.118
 1181SOL    HW2 3590   0.273   3.249   2.227
 1182SOL     OW 3591   0.116   2.836   3.562
 1182SOL    HW1 3592   0.064   2.888   3.630
 1182SOL    HW2 3593   0.206   2.814   3.600
 1183SOL     OW 3594   0.682   2.058   3.361
 1183SOL    HW1 3595   0.769   2.033   3.317
 1183SOL    HW2 3596   0.700   2.090   3.454
 1184SOL     OW 3597   0.099   2.181   1.900
 1184SOL    HW1 3598   0.002   2.155   1.897
 1184SOL    HW2 3599   0.113   2.266   1.849
 1185SOL     OW 3600   1.424   2.717   3.256
 1185SOL    HW1 3601   1.370   2.780   3.200
 1185SOL    HW2 3602   1.519   2.719   3.226
 1186SOL     OW 3603   0.078   2.049   2.204
 1186SOL    HW1 3604   0.023   2.044   2.120
 1186SOL    HW2 3605   0.152   1.983   2.199
 1187SOL     OW 3606   1.180   3.200   1.982
 1187SOL    HW1 3607   1.084   3.173   1.975
 1187SOL    HW2 3608   1.208   3.201   2.078
 1188SOL     OW 3609   0.624   2.694   3.296
 1188SOL    HW1 3610   0.680   2.775   3.281
 1188SOL    HW2 3611   0.683   2.613   3.305
 1189SOL     OW 3612   1.485   3.646   2.847
 1189SOL    HW1 3613   1.504   3.709   2.773
 1189SOL    HW2 3614   1.570   3.617   2.890
 1190SOL     OW 3615   0.719   2.421   3.565
 1190SOL    HW1 3616   0.764   2.487   3.625
 1190SOL    HW2 3617   0.740   2.328   3.597
 1191SOL     OW 3618   1.470   3.054   3.493
 1191SOL    HW1 3619   1.452   3.072   3.590
 1191SOL    HW2 3620   1.566   3.075   3.473
 1192SOL     OW 3621   0.371   3.608   3.424
 1192SOL    HW1 3622   0.284   3.655   3.408
 1192SOL    HW2 3623   0.354   3.525   3.476
 1193SOL     OW 3624   1.667   2.740   3.117
 1193SOL    HW1 3625   1.662   2.649   3.076
 1193SOL    HW2 3626   1.655   2.809   3.046
 1194SOL     OW 3627   1.219   2.179   2.322
 1194SOL    HW1 3628   1.283   2.102   2.311
 1194SOL    HW2 3629   1.246   2.234   2.401
 1195SOL     OW 3630   0.588   2.600   2.532
 1195SOL    HW1 3631   0.629   2.691   2.522
 1195SOL    HW2 3632   0.519   2.586   2.461
 1196SOL     OW 3633   1.752   2.227   3.514
 1196SOL    HW1 3634   1.742   2.243   3.416
 1196SOL    HW2 3635   1.678   2.167   3.546
 1197SOL     OW 3636   1.748   2.794   3.371
 1197SOL    HW1 3637   1.732   2.891   3.393
 1197SOL    HW2 3638   1.730   2.779   3.274
 1198SOL     OW 3639   0.869   3.226   1.906
 1198SOL    HW1 3640   0.825   3.250   1.992
 1198SOL    HW2 3641   0.882   3.308   1.850
 1199SOL     OW 3642   0.665   3.648   2.803
 1199SOL    HW1 3643   0.642   3.743   2.781
 1199SOL    HW2 3644   0.763   3.635   2.795
 1200SOL     OW 3645   0.869   2.832   2.718
 1200SOL    HW1 3646   0.920   2.755   2.755
 1200SOL    HW2 3647   0.827   2.883   2.793
 1201SOL     OW 3648   1.077   2.850   1.946
 1201SOL    HW1 3649   1.050   2.905   1.867
 1201SOL    HW2 3650   1.155   2.793   1.922
 1202SOL     OW 3651   1.847   3.419   2.710
 1202SOL    HW1 3652   1.771   3.408   2.646
 1202SOL    HW2 3653   1.842   3.349   2.781
 1203SOL     OW 3654   0.221   3.181   3.730
 1203SOL    HW1 3655   0.132   3.135   3.721
 1203SOL    HW2 3656   0.242   3.193   3.827
 1204SOL     OW 3657   0.150   3.133   2.552
 1204SOL    HW1 3658   0.102   3.086   2.626
 1204SOL    HW2 3659   0.197   3.066   2.495
 1205SOL     OW 3660   1.805   2.045   3.096
 1205SOL    HW1 3661   1.821   1.949   3.120
 1205SOL    HW2 3662   1.817   2.056   2.997
 1206SOL     OW 3663   0.455   2.291   2.401
 1206SOL    HW1 3664   0.478   2.223   2.332
 1206SOL    HW2 3665   0.397   2.249   2.471
 1207SOL     OW 3666   1.695   3.341   2.956
 1207SOL    HW1 3667   1.613   3.325   2.901
 1207SOL    HW2 3668   1.703   3.270   3.026
 1208SOL     OW 3669   0.331   2.414   3.153
 1208SOL    HW1 3670   0.388   2.358   3.213
 1208SOL    HW2 3671   0.347   2.387   3.058
 1209SOL     OW 3672   0.829   3.440   2.539
 1209SOL    HW1 3673   0.816   3.502   2.462
 1209SOL    HW2 3674   0.751   3.378   2.546
 1210SOL     OW 3675   1.431   2.092   2.979
 1210SOL    HW1 3676   1.454   2.003   3.017
 1210SOL    HW2 3677   1.376   2.144   3.046
 1211SOL     OW 3678   1.010   1.878   3.001
 1211SOL    HW1 3679   0.946   1.815   2.958
 1211SOL    HW2 3680   1.101   1.838   3.002
 1212SOL     OW 3681   0.774   3.193   2.183
 1212SOL    HW1 3682   0.746   3.098   2.191
 1212SOL    HW2 3683   0.859   3.207   2.234
 1213SOL     OW 3684   0.622   3.431   3.142
 1213SOL    HW1 3685   0.626   3.514   3.198
 1213SOL    HW2 3686   0.712   3.413   3.102
 1214SOL     OW 3687   1.353   1.913   2.031
 1214SOL    HW1 3688   1.395   1.846   1.969
 1214SOL    HW2 3689   1.261   1.883   2.054
 1215SOL     OW 3690   1.291   2.326   2.543
 1215SOL    HW1 3691   1.239   2.411   2.545
 1215SOL    HW2 3692   1.289   2.283   2.633
 1216SOL     OW 3693   1.586   2.066   2.745
 1216SOL    HW1 3694   1.528   2.085   2.824
 1216SOL    HW2 3695   1.588   2.145   2.685
 1217SOL     OW 3696   0.071   2.927   2.139
 1217SOL    HW1 3697   0.164   2.890   2.139
 1217SOL    HW2 3698   0.006   2.854   2.160
 1218SOL     OW 3699   0.885   3.524   2.203
 1218SOL    HW1 3700   0.811   3.502   2.139
 1218SOL    HW2 3701   0.858   3.601   2.260
 1219SOL     OW 3702   0.186   2.513   3.846
 1219SOL    HW1 3703   0.174   2.446   3.919
 1219SOL    HW2 3704   0.227   2.469   3.766
 1220SOL     OW 3705   0.231   2.133   4.711
 1220SOL    HW1 3706   0.281   2.102   4.792
 1220SOL    HW2 3707   0.133   2.116   4.724
 1221SOL     OW 3708   6.990   2.247   4.377
 1221SOL    HW1 3709   6.942   2.243   4.465
 1221SOL    HW2 3710   0.012   2.154   4.347
 1222SOL     OW 3711   0.569   3.158   4.909
 1222SOL    HW1 3712   0.478   3.156   4.866
 1222SOL    HW2 3713   0.587   3.250   4.944
 1223SOL     OW 3714   1.563   3.375   4.431
 1223SOL    HW1 3715   1.521   3.351   4.518
 1223SOL    HW2 3716   1.492   3.382   4.361
 1224SOL     OW 3717   1.133   2.565   4.419
 1224SOL    HW1 3718   1.185   2.648   4.403
 1224SOL    HW2 3719   1.083   2.573   4.506
 1225SOL     OW 3720   1.769   2.462   3.947
 1225SOL    HW1 3721   1.745   2.458   3.850
 1225SOL    HW2 3722   1.731   2.382   3.994
 1226SOL     OW 3723   0.744   3.003   4.764
 1226SOL    HW1 3724   0.676   3.038   4.828
 1226SOL    HW2 3725   0.789   3.080   4.718
 1227SOL     OW 3726   0.872   2.628   5.544
 1227SOL    HW1 3727   0.862   2.696   5.616
 1227SOL    HW2 3728   0.897   2.673   5.458
 1228SOL     OW 3729   0.683   2.863   4.374
 1228SOL    HW1 3730   0.754   2.852   4.442
 1228SOL    HW2 3731   0.608   2.918   4.412
 1229SOL     OW 3732   0.713   3.015   5.542
 1229SOL    HW1 3733   0.765   3.093   5.575
 1229SOL    HW2 3734   0.628   3.046   5.500
 1230SOL     OW 3735   0.333   3.283   4.789
 1230SOL    HW1 3736   0.254   3.244   4.741
 1230SOL    HW2 3737   0.385   3.341   4.726
 1231SOL     OW 3738   1.458   3.363   5.081
 1231SOL    HW1 3739   1.515   3.445   5.088
 1231SOL    HW2 3740   1.388   3.365   5.152
 1232SOL     OW 3741   0.443   2.257   5.217
 1232SOL    HW1 3742   0.526   2.201   5.218
 1232SOL    HW2 3743   0.363   2.198   5.225
 1233SOL     OW 3744   1.612   2.309   4.468
 1233SOL    HW1 3745   1.536   2.328   4.405
 1233SOL    HW2 3746   1.621   2.384   4.533
 1234SOL     OW 3747   0.225   3.572   4.190
 1234SOL    HW1 3748   0.240   3.651   4.250
 1234SOL    HW2 3749   0.297   3.568   4.121
 1235SOL     OW 3750   1.137   3.202   5.421
 1235SOL    HW1 3751   1.183   3.200   5.510
 1235SOL    HW2 3752   1.081   3.119   5.411
 1236SOL     OW 3753   0.275   3.304   4.245
 1236SOL    HW1 3754   0.253   3.402   4.252
 1236SOL    HW2 3755   0.225   3.254   4.315
 1237SOL     OW 3756   0.268   2.944   4.629
 1237SOL    HW1 3757   0.264   2.849   4.660
 1237SOL    HW2 3758   0.197   2.997   4.677
 1238SOL     OW 3759   0.603   3.658   5.152
 1238SOL    HW1 3760   0.517   3.635   5.198
 1238SOL    HW2 3761   0.632   3.749   5.179
 1239SOL     OW 3762   0.570   2.855   3.868
 1239SOL    HW1 3763   0.589   2.923   3.796
 1239SOL    HW2 3764   0.620   2.879   3.951
 1240SOL     OW 3765   1.596   1.986   5.194
 1240SOL    HW1 3766   1.614   2.066   5.136
 1240SOL    HW2 3767   1.582   2.016   5.288
 1241SOL     OW 3768   0.131   2.478   4.298
 1241SOL    HW1 3769   0.063   2.409   4.321
 1241SOL    HW2 3770   0.121   2.557   4.359
 1242SOL     OW 3771   1.847   3.619   4.058
 1242SOL    HW1 3772   1.917   3.588   4.123
 1242SOL    HW2 3773   1.865   3.714   4.032
 1243SOL     OW 3774   0.043   3.454   3.874
 1243SOL    HW1 3775   0.034   3.355   3.886
 1243SOL    HW2 3776   6.966   3.500   3.919
 1244SOL     OW 3777   1.691   2.783   4.370
 1244SOL    HW1 3778   1.775   2.732   4.353
 1244SOL    HW2 3779   1.667   2.837   4.290
 1245SOL     OW 3780   1.652   2.967   4.156
 1245SOL    HW1 3781   1.740   2.964   4.110
 1245SOL    HW2 3782   1.654   3.034   4.230
 1246SOL     OW 3783   0.145   2.593   5.305
 1246SOL    HW1 3784   0.243   2.600   5.290
 1246SOL    HW2 3785   0.109   2.681   5.336
 1247SOL     OW 3786   0.611   3.252   4.459
 1247SOL    HW1 3787   0.564   3.164   4.473
 1247SOL    HW2 3788   0.598   3.282   4.365
 1248SOL     OW 3789   1.289   3.097   5.146
 1248SOL    HW1 3790   1.316   3.027   5.080
 1248SOL    HW2 3791   1.348   3.093   5.226
 1249SOL     OW 3792   0.816   1.871   4.231
 1249SOL    HW1 3793   0.862   1.957   4.210
 1249SOL    HW2 3794   0.718   1.886   4.240
 1250SOL     OW 3795   0.205   2.824   4.985
 1250SOL    HW1 3796   0.288   2.770   4.969
 1250SOL    HW2 3797   0.132   2.791   4.925
 1251SOL     OW 3798   1.532   2.861   3.928
 1251SOL    HW1 3799   1.458   2.801   3.959
 1251SOL    HW2 3800   1.578   2.900   4.007
 1252SOL     OW 3801   1.183   3.673   5.346
 1252SOL    HW1 3802   1.190   3.741   5.273
 1252SOL    HW2 3803   1.202   3.582   5.309
 1253SOL     OW 3804   0.351   2.113   5.553
 1253SOL    HW1 3805   0.400   2.195   5.579
 1253SOL    HW2 3806   0.254   2.122   5.577
 1254SOL     OW 3807   1.465   3.282   4.672
 1254SOL    HW1 3808   1.398   3.301   4.744
 1254SOL    HW2 3809   1.457   3.187   4.643
 1255SOL     OW 3810   1.650   3.610   4.302
 1255SOL    HW1 3811   1.636   3.582   4.206
 1255SOL    HW2 3812   1.628   3.534   4.362
 1256SOL     OW 3813   0.589   2.579   3.990
 1256SOL    HW1 3814   0.597   2.667   3.942
 1256SOL    HW2 3815   0.525   2.589   4.067
 1257SOL     OW 3816   1.277   2.219   4.657
 1257SOL    HW1 3817   1.183   2.185   4.664
 1257SOL    HW2 3818   1.336   2.167   4.719
 1258SOL     OW 3819   1.585   3.533   4.032
 1258SOL    HW1 3820   1.680   3.562   4.028
 1258SOL    HW2 3821   1.554   3.506   3.940
 1259SOL     OW 3822   0.790   2.475   5.175
 1259SOL    HW1 3823   0.764   2.451   5.268
 1259SOL    HW2 3824   0.751   2.407   5.112
 1260SOL     OW 3825   1.391   2.332   5.403
 1260SOL    HW1 3826   1.392   2.381   5.490
 1260SOL    HW2 3827   1.453   2.253   5.409
 1261SOL     OW 3828   0.953   2.747   5.306
 1261SOL    HW1 3829   1.011   2.675   5.269
 1261SOL    HW2 3830   0.900   2.789   5.233
 1262SOL     OW 3831   0.994   2.269   4.954
 1262SOL    HW1 3832   0.905   2.291   4.993
 1262SOL    HW2 3833   0.981   2.219   4.868
 1263SOL     OW 3834   1.049   2.561   4.149
 1263SOL    HW1 3835   1.071   2.556   4.247
 1263SOL    HW2 3836   0.963   2.512   4.132
 1264SOL     OW 3837   0.102   2.681   4.498
 1264SOL    HW1 3838   0.194   2.669   4.534
 1264SOL    HW2 3839   0.042   2.717   4.570
 1265SOL     OW 3840   0.121   3.731   5.314
 1265SOL    HW1 3841   0.131   3.705   5.410
 1265SOL    HW2 3842   0.031   3.702   5.281
 1266SOL     OW 3843   0.896   2.214   3.921
 1266SOL    HW1 3844   0.936   2.281   3.859
 1266SOL    HW2 3845   0.903   2.123   3.881
 1267SOL     OW 3846   1.702   2.435   5.550
 1267SOL    HW1 3847   1.666   2.514   5.500
 1267SOL    HW2 3848   1.732   2.365   5.485
 1268SOL     OW 3849   1.379   3.004   4.259
 1268SOL    HW1 3850   1.464   2.989   4.207
 1268SOL    HW2 3851   1.323   3.072   4.211
 1269SOL     OW 3852   0.550   2.038   4.623
 1269SOL    HW1 3853   0.556   2.067   4.718
 1269SOL    HW2 3854   0.555   2.118   4.563
 1270SOL     OW 3855   0.994   3.304   4.189
 1270SOL    HW1 3856   0.963   3.384   4.138
 1270SOL    HW2 3857   0.979   3.319   4.287
 1271SOL     OW 3858   0.357   3.680   4.590
 1271SOL    HW1 3859   0.397   3.589   4.601
 1271SOL    HW2 3860   0.426   3.750   4.611
 1272SOL     OW 3861   1.798   2.919   4.595
 1272SOL    HW1 3862   1.747   2.896   4.513
 1272SOL    HW2 3863   1.736   2.924   4.673
 1273SOL     OW 3864   1.227   3.398   5.238
 1273SOL    HW1 3865   1.214   3.324   5.304
 1273SOL    HW2 3866   1.159   3.390   5.165
 1274SOL     OW 3867   0.315   2.806   3.975
 1274SOL    HW1 3868   0.403   2.831   3.935
 1274SOL    HW2 3869   0.284   2.719   3.936
 1275SOL     OW 3870   1.483   2.611   4.447
 1275SOL    HW1 3871   1.476   2.566   4.536
 1275SOL    HW2 3872   1.563   2.670   4.446
 1276SOL     OW 3873   0.472   3.122   5.452
 1276SOL    HW1 3874   0.444   3.132   5.357
 1276SOL    HW2 3875   0.391   3.124   5.511
 1277SOL     OW 3876   1.116   3.637   3.943
 1277SOL    HW1 3877   1.039   3.602   3.996
 1277SOL    HW2 3878   1.150   3.564   3.883
 1278SOL     OW 3879   0.196   2.131   5.215
 1278SOL    HW1 3880   0.112   2.183   5.198
 1278SOL    HW2 3881   0.173   2.046   5.263
 1279SOL     OW 3882   1.627   3.225   3.814
 1279SOL    HW1 3883   1.592   3.318   3.805
 1279SOL    HW2 3884   1.554   3.160   3.791
 1280SOL     OW 3885   0.467   3.596   4.044
 1280SOL    HW1 3886   0.507   3.659   4.110
 1280SOL    HW2 3887   0.539   3.559   3.985
 1281SOL     OW 3888   1.401   1.966   4.159
 1281SOL    HW1 3889   1.389   1.941   4.064
 1281SOL    HW2 3890   1.499   1.976   4.179
 1282SOL     OW 3891   0.259   3.656   4.948
 1282SOL    HW1 3892   0.310   3.583   4.993
 1282SOL    HW2 3893   0.216   3.621   4.865
 1283SOL     OW 3894   0.936   3.564   4.621
 1283SOL    HW1 3895   1.018   3.517   4.652
 1283SOL    HW2 3896   0.893   3.512   4.546
 1284SOL     OW 3897   0.401   2.545   4.198
 1284SOL    HW1 3898   0.429   2.451   4.219
 1284SOL    HW2 3899   0.303   2.556   4.217
 1285SOL     OW 3900   1.529   2.085   5.452
 1285SOL    HW1 3901   1.540   2.106   5.549
 1285SOL    HW2 3902   1.456   2.017   5.440
 1286SOL     OW 3903   0.641   1.979   3.826
 1286SOL    HW1 3904   0.710   1.910   3.847
 1286SOL    HW2 3905   0.584   1.948   3.750
 1287SOL     OW 3906   0.764   2.139   5.481
 1287SOL    HW1 3907   0.848   2.085   5.474
 1287SOL    HW2 3908   0.711   2.110   5.561
 1288SOL     OW 3909   0.876   3.378   4.916
 1288SOL    HW1 3910   0.856   3.341   4.825
 1288SOL    HW2 3911   0.949   3.323   4.958
 1289SOL     OW 3912   1.340   2.451   5.159
 1289SOL    HW1 3913   1.370   2.416   5.248
 1289SOL    HW2 3914   1.375   2.543   5.146
 1290SOL     OW 3915   0.820   3.252   4.665
 1290SOL    HW1 3916   0.910   3.240   4.622
 1290SOL    HW2 3917   0.750   3.257   4.594
 1291SOL     OW 3918   0.927   2.369   4.623
 1291SOL    HW1 3919   0.901   2.362   4.526
 1291SOL    HW2 3920   0.960   2.280   4.655
 1292SOL     OW 3921   0.546   1.926   4.220
 1292SOL    HW1 3922   0.464   1.922   4.277
 1292SOL    HW2 3923   0.542   2.006   4.161
 1293SOL     OW 3924   1.420   3.055   3.765
 1293SOL    HW1 3925   1.456   2.979   3.819
 1293SOL    HW2 3926   1.334   3.087   3.804
 1294SOL     OW 3927   0.292   1.904   3.911
 1294SOL    HW1 3928   0.341   1.985   3.878
 1294SOL    HW2 3929   0.356   1.839   3.950
 1295SOL     OW 3930   0.945   2.112   4.181
 1295SOL    HW1 3931   0.914   2.154   4.096
 1295SOL    HW2 3932   1.044   2.126   4.190
 1296SOL     OW 3933   1.080   2.544   5.180
 1296SOL    HW1 3934   1.005   2.478   5.185
 1296SOL    HW2 3935   1.167   2.496   5.175
 1297SOL     OW 3936   1.220   3.431   4.518
 1297SOL    HW1 3937   1.234   3.501   4.448
 1297SOL    HW2 3938   1.291   3.439   4.588
 1298SOL     OW 3939   0.467   3.012   4.457
 1298SOL    HW1 3940   0.400   2.991   4.528
 1298SOL    HW2 3941   0.424   2.999   4.367
 1299SOL     OW 3942   1.264   3.654   4.334
 1299SOL    HW1 3943   1.317   3.716   4.276
 1299SOL    HW2 3944   1.191   3.705   4.380
 1300SOL     OW 3945   1.022   2.397   3.753
 1300SOL    HW1 3946   0.977   2.484   3.729
 1300SOL    HW2 3947   1.091   2.414   3.823
 1301SOL     OW 3948   0.073   2.414   5.100
 1301SOL    HW1 3949   0.169   2.406   5.071
 1301SOL    HW2 3950   0.066   2.482   5.173
 1302SOL     OW 3951   0.564   2.086   4.894
 1302SOL    HW1 3952   0.614   2.008   4.933
 1302SOL    HW2 3953   0.469   2.083   4.926
 1303SOL     OW 3954   0.866   2.320   4.361
 1303SOL    HW1 3955   0.815   2.381   4.300
 1303SOL    HW2 3956   0.894   2.238   4.312
 1304SOL     OW 3957   1.017   1.915   4.470
 1304SOL    HW1 3958   0.956   1.915   4.391
 1304SOL    HW2 3959   0.993   1.839   4.530
 1305SOL     OW 3960   1.445   3.023   4.582
 1305SOL    HW1 3961   1.369   2.958   4.586
 1305SOL    HW2 3962   1.475   3.035   4.487
 1306SOL     OW 3963   1.468   2.469   4.695
 1306SOL    HW1 3964   1.406   2.390   4.695
 1306SOL    HW2 3965   1.529   2.463   4.774
 1307SOL     OW 3966   1.842   2.671   4.105
 1307SOL    HW1 3967   1.900   2.623   4.170
 1307SOL    HW2 3968   1.812   2.608   4.033
 1308SOL     OW 3969   0.497   3.274   3.871
 1308SOL    HW1 3970   0.415   3.253   3.925
 1308SOL    HW2 3971   0.487   3.235   3.779
 1309SOL     OW 3972   1.673   3.128   4.368
 1309SOL    HW1 3973   1.773   3.126   4.380
 1309SOL    HW2 3974   1.640   3.220   4.388
 1310SOL     OW 3975   1.391   2.435   3.795
 1310SOL    HW1 3976   1.328   2.413   3.870
 1310SOL    HW2 3977   1.484   2.409   3.820
 1311SOL     OW 3978   0.530   2.124   4.034
 1311SOL    HW1 3979   0.577   2.069   3.965
 1311SOL    HW2 3980   0.502   2.212   3.995
 1312SOL     OW 3981   1.753   3.102   5.286
 1312SOL    HW1 3982   1.843   3.060   5.274
 1312SOL    HW2 3983   1.764   3.196   5.320
 1313SOL     OW 3984   1.054   3.211   5.059
 1313SOL    HW1 3985   0.973   3.182   5.110
 1313SOL    HW2 3986   1.136   3.172   5.102
 1314SOL     OW 3987   1.613   3.491   5.381
 1314SOL    HW1 3988   1.598   3.526   5.288
 1314SOL    HW2 3989   1.699   3.440   5.383
 1315SOL     OW 3990   1.136   3.079   4.829
 1315SOL    HW1 3991   1.076   3.114   4.902
 1315SOL    HW2 3992   1.102   3.110   4.740
 1316SOL     OW 3993   1.625   2.959   4.803
 1316SOL    HW1 3994   1.621   3.024   4.879
 1316SOL    HW2 3995   1.548   2.975   4.741
 1317SOL     OW 3996   0.923   1.957   5.116
 1317SOL    HW1 3997   0.944   1.934   5.021
 1317SOL    HW2 3998   1.002   2.000   5.159
 1318SOL     OW 3999   0.980   2.976   5.445
 1318SOL    HW1 4000   0.886   2.996   5.472
 1318SOL    HW2 4001   0.982   2.894   5.388
 1319SOL     OW 4002   0.711   2.917   4.098
 1319SOL    HW1 4003   0.694   2.902   4.195
 1319SOL    HW2 4004   0.791   2.864   4.068
 1320SOL     OW 4005   0.429   2.667   4.973
 1320SOL    HW1 4006   0.499   2.683   5.042
 1320SOL    HW2 4007   0.386   2.578   4.988
 1321SOL     OW 4008   1.263   2.238   5.004
 1321SOL    HW1 4009   1.300   2.318   5.053
 1321SOL    HW2 4010   1.168   2.256   4.979
 1322SOL     OW 4011   0.068   3.428   5.042
 1322SOL    HW1 4012   0.018   3.514   5.057
 1322SOL    HW2 4013   0.165   3.441   5.063
 1323SOL     OW 4014   0.341   2.977   4.215
 1323SOL    HW1 4015   0.351   3.056   4.155
 1323SOL    HW2 4016   0.339   2.894   4.161
 1324SOL     OW 4017   0.549   2.405   4.587
 1324SOL    HW1 4018   0.563   2.463   4.507
 1324SOL    HW2 4019   0.618   2.426   4.656
 1325SOL     OW 4020   1.246   3.215   4.121
 1325SOL    HW1 4021   1.307   3.289   4.150
 1325SOL    HW2 4022   1.152   3.236   4.150
 1326SOL     OW 4023   1.287   3.323   4.871
 1326SOL    HW1 4024   1.345   3.329   4.952
 1326SOL    HW2 4025   1.232   3.240   4.876
 1327SOL     OW 4026   1.578   2.483   4.206
 1327SOL    HW1 4027   1.527   2.532   4.277
 1327SOL    HW2 4028   1.626   2.549   4.148
 1328SOL     OW 4029   0.351   3.395   5.034
 1328SOL    HW1 4030   0.332   3.347   4.948
 1328SOL    HW2 4031   0.450   3.407   5.043
 1329SOL     OW 4032   0.423   2.597   5.322
 1329SOL    HW1 4033   0.484   2.650   5.262
 1329SOL    HW2 4034   0.466   2.510   5.346
 1330SOL     OW 4035   1.607   2.647   5.408
 1330SOL    HW1 4036   1.517   2.688   5.406
 1330SOL    HW2 4037   1.664   2.687   5.337
 1331SOL     OW 4038   0.997   1.995   5.474
 1331SOL    HW1 4039   1.055   2.074   5.458
 1331SOL    HW2 4040   1.046   1.912   5.448
 1332SOL     OW 4041   0.495   1.898   5.473
 1332SOL    HW1 4042   0.450   1.841   5.404
 1332SOL    HW2 4043   0.439   1.978   5.492
 1333SOL     OW 4044   0.587   2.733   4.757
 1333SOL    HW1 4045   0.620   2.828   4.754
 1333SOL    HW2 4046   0.528   2.721   4.836
 1334SOL     OW 4047   1.353   2.719   4.749
 1334SOL    HW1 4048   1.263   2.712   4.707
 1334SOL    HW2 4049   1.401   2.632   4.741
 1335SOL     OW 4050   1.198   2.389   3.989
 1335SOL    HW1 4051   1.211   2.306   4.043
 1335SOL    HW2 4052   1.154   2.459   4.045
 1336SOL     OW 4053   0.307   2.058   4.970
 1336SOL    HW1 4054   0.269   2.094   5.055
 1336SOL    HW2 4055   0.291   1.960   4.965
 1337SOL     OW 4056   0.096   3.169   4.987
 1337SOL    HW1 4057   0.105   3.107   5.065
 1337SOL    HW2 4058   0.086   3.263   5.021
 1338SOL     OW 4059   0.725   2.493   4.779
 1338SOL    HW1 4060   0.802   2.472   4.719
 1338SOL    HW2 4061   0.691   2.585   4.760
 1339SOL     OW 4062   1.735   2.822   5.579
 1339SOL    HW1 4063   1.692   2.754   5.520
 1339SOL    HW2 4064   1.676   2.841   5.657
 1340SOL     OW 4065   0.301   1.923   4.348
 1340SOL    HW1 4066   0.281   2.019   4.367
 1340SOL    HW2 4067   0.313   1.874   4.435
 1341SOL     OW 4068   1.626   2.242   4.087
 1341SOL    HW1 4069   1.652   2.169   4.150
 1341SOL    HW2 4070   1.598   2.323   4.139
 1342SOL     OW 4071   1.024   2.617   4.682
 1342SOL    HW1 4072   1.019   2.639   4.779
 1342SOL    HW2 4073   0.997   2.522   4.668
 1343SOL     OW 4074   0.982   3.425   5.441
 1343SOL    HW1 4075   0.965   3.473   5.355
 1343SOL    HW2 4076   1.030   3.339   5.423
 1344SOL     OW 4077   1.855   3.366   5.328
 1344SOL    HW1 4078   1.873   3.392   5.233
 1344SOL    HW2 4079   1.938   3.378   5.382
 1345SOL     OW 4080   0.365   2.779   5.523
 1345SOL    HW1 4081   0.442   2.804   5.581
 1345SOL    HW2 4082   0.393   2.711   5.456
 1346SOL     OW 4083   1.527   2.131   3.854
 1346SOL    HW1 4084   1.458   2.063   3.879
 1346SOL    HW2 4085   1.564   2.173   3.937
 1347SOL     OW 4086   1.292   2.686   3.752
 1347SOL    HW1 4087   1.333   2.595   3.759
 1347SOL    HW2 4088   1.322   2.730   3.667
 1348SOL     OW 4089   1.070   3.199   4.578
 1348SOL    HW1 4090   1.073   3.121   4.515
 1348SOL    HW2 4091   1.129   3.272   4.544
 1349SOL     OW 4092   0.321   2.663   4.665
 1349SOL    HW1 4093   0.418   2.688   4.666
 1349SOL    HW2 4094   0.310   2.572   4.704
 1350SOL     OW 4095   0.329   2.382   4.738
 1350SOL    HW1 4096   0.291   2.291   4.722
 1350SOL    HW2 4097   0.410   2.394   4.679
 1351SOL     OW 4098   1.134   2.235   5.415
 1351SOL    HW1 4099   1.081   2.292   5.478
 1351SOL    HW2 4100   1.226   2.272   5.407
 1352SOL     OW 4101   1.161   2.066   5.199
 1352SOL    HW1 4102   1.147   2.128   5.276
 1352SOL    HW2 4103   1.204   2.115   5.123
 1353SOL     OW 4104   6.991   3.185   3.943
 1353SOL    HW1 4105   6.918   3.210   4.007
 1353SOL    HW2 4106   0.020   3.091   3.961
 1354SOL     OW 4107   0.097   3.620   4.672
 1354SOL    HW1 4108   0.076   3.546   4.608
 1354SOL    HW2 4109   0.183   3.663   4.647
 1355SOL     OW 4110   0.494   3.440   4.629
 1355SOL    HW1 4111   0.564   3.507   4.655
 1355SOL    HW2 4112   0.535   3.372   4.568
 1356SOL     OW 4113   0.976   2.656   4.948
 1356SOL    HW1 4114   1.036   2.632   5.025
 1356SOL    HW2 4115   0.886   2.614   4.962
 1357SOL     OW 4116   0.049   2.469   4.830
 1357SOL    HW1 4117   0.124   2.420   4.784
 1357SOL    HW2 4118   0.051   2.449   4.928
 1358SOL     OW 4119   0.210   2.374   5.447
 1358SOL    HW1 4120   0.285   2.328   5.399
 1358SOL    HW2 4121   0.188   2.459   5.401
 1359SOL     OW 4122   1.380   2.798   5.379
 1359SOL    HW1 4123   1.403   2.895   5.380
 1359SOL    HW2 4124   1.376   2.765   5.284
 1360SOL     OW 4125   0.816   2.434   4.082
 1360SOL    HW1 4126   0.827   2.354   4.024
 1360SOL    HW2 4127   0.738   2.488   4.051
 1361SOL     OW 4128   1.643   2.465   4.906
 1361SOL    HW1 4129   1.626   2.405   4.984
 1361SOL    HW2 4130   1.734   2.447   4.869
 1362SOL     OW 4131   0.285   3.422   5.464
 1362SOL    HW1 4132   0.229   3.489   5.513
 1362SOL    HW2 4133   0.265   3.331   5.500
 1363SOL     OW 4134   0.705   2.312   4.979
 1363SOL    HW1 4135   0.651   2.232   4.952
 1363SOL    HW2 4136   0.703   2.379   4.905
 1364SOL     OW 4137   0.922   3.543   5.194
 1364SOL    HW1 4138   0.895   3.497   5.110
 1364SOL    HW2 4139   0.920   3.642   5.181
 1365SOL     OW 4140   0.456   2.351   3.906
 1365SOL    HW1 4141   0.513   2.431   3.923
 1365SOL    HW2 4142   0.369   2.360   3.954
 1366SOL     OW 4143   0.166   2.985   5.193
 1366SOL    HW1 4144   0.155   2.924   5.271
 1366SOL    HW2 4145   0.180   2.931   5.110
 1367SOL     OW 4146   1.316   2.906   4.943
 1367SOL    HW1 4147   1.344   2.838   4.875
 1367SOL    HW2 4148   1.248   2.967   4.903
 1368SOL     OW 4149   1.315   2.718   4.025
 1368SOL    HW1 4150   1.238   2.690   4.082
 1368SOL    HW2 4151   1.292   2.703   3.929
 1369SOL     OW 4152   1.779   3.593   4.880
 1369SOL    HW1 4153   1.840   3.627   4.809
 1369SOL    HW2 4154   1.749   3.501   4.856
 1370SOL     OW 4155   1.241   3.595   4.830
 1370SOL    HW1 4156   1.327   3.623   4.787
 1370SOL    HW2 4157   1.246   3.498   4.854
 1371SOL     OW 4158   0.071   3.108   4.729
 1371SOL    HW1 4159   0.088   3.128   4.826
 1371SOL    HW2 4160   6.973   3.093   4.715
 1372SOL     OW 4161   0.681   3.535   5.460
 1372SOL    HW1 4162   0.617   3.612   5.456
 1372SOL    HW2 4163   0.752   3.547   5.390
 1373SOL     OW 4164   1.719   2.011   4.224
 1373SOL    HW1 4165   1.795   2.001   4.159
 1373SOL    HW2 4166   1.702   1.923   4.269
 1374SOL     OW 4167   1.394   3.433   4.210
 1374SOL    HW1 4168   1.459   3.465   4.141
 1374SOL    HW2 4169   1.340   3.510   4.244
 1375SOL     OW 4170   0.139   3.648   5.576
 1375SOL    HW1 4171   0.094   3.574   5.627
 1375SOL    HW2 4172   0.194   3.703   5.639
 1376SOL     OW 4173   1.282   2.790   4.390
 1376SOL    HW1 4174   1.356   2.725   4.406
 1376SOL    HW2 4175   1.315   2.867   4.336
 1377SOL     OW 4176   0.805   3.140   5.151
 1377SOL    HW1 4177   0.776   3.183   5.237
 1377SOL    HW2 4178   0.735   3.156   5.081
 1378SOL     OW 4179   0.669   3.482   3.887
 1378SOL    HW1 4180   0.675   3.517   3.793
 1378SOL    HW2 4181   0.614   3.398   3.888
 1379SOL     OW 4182   1.618   3.590   5.111
 1379SOL    HW1 4183   1.675   3.591   5.029
 1379SOL    HW2 4184   1.603   3.684   5.143
 1380SOL     OW 4185   1.842   2.032   4.688
 1380SOL    HW1 4186   1.876   1.941   4.665
 1380SOL    HW2 4187   1.751   2.044   4.648
 1381SOL     OW 4188   0.263   2.179   4.438
 1381SOL    HW1 4189   0.187   2.240   4.418
 1381SOL    HW2 4190   0.265   2.159   4.536
 1382SOL     OW 4191   1.212   3.447   3.770
 1382SOL    HW1 4192   1.204   3.355   3.809
 1382SOL    HW2 4193   1.177   3.448   3.677
 1383SOL     OW 4194   0.824   2.872   5.102
 1383SOL    HW1 4195   0.873   2.857   5.016
 1383SOL    HW2 4196   0.820   2.970   5.122
 1384SOL     OW 4197   0.918   2.770   4.011
 1384SOL    HW1 4198   0.981   2.804   3.941
 1384SOL    HW2 4199   0.964   2.700   4.065
 1385SOL     OW 4200   1.488   3.459   3.774
 1385SOL    HW1 4201   1.388   3.457   3.773
 1385SOL    HW2 4202   1.522   3.453   3.680
 1386SOL     OW 4203   0.372   3.169   5.210
 1386SOL    HW1 4204   0.359   3.250   5.153
 1386SOL    HW2 4205   0.302   3.101   5.188
 1387SOL     OW 4206   1.614   3.146   5.008
 1387SOL    HW1 4207   1.677   3.127   5.084
 1387SOL    HW2 4208   1.548   3.216   5.036
 1388SOL     OW 4209   1.060   2.968   4.437
 1388SOL    HW1 4210   0.984   2.918   4.478
 1388SOL    HW2 4211   1.129   2.903   4.404
 1389SOL     OW 4212   1.022   2.101   4.691
 1389SOL    HW1 4213   1.018   2.057   4.601
 1389SOL    HW2 4214   1.020   2.031   4.763
 1390SOL     OW 4215   0.606   3.348   4.205
 1390SOL    HW1 4216   0.655   3.294   4.136
 1390SOL    HW2 4217   0.532   3.398   4.161
 1391SOL     OW 4218   1.731   2.256   5.105
 1391SOL    HW1 4219   1.803   2.324   5.105
 1391SOL    HW2 4220   1.756   2.181   5.044
 1392SOL     OW 4221   0.256   3.214   3.999
 1392SOL    HW1 4222   0.157   3.212   3.984
 1392SOL    HW2 4223   0.276   3.250   4.090
 1393SOL     OW 4224   0.120   2.836   5.426
 1393SOL    HW1 4225   0.066   2.886   5.493
 1393SOL    HW2 4226   0.211   2.818   5.464
 1394SOL     OW 4227   0.682   2.057   5.223
 1394SOL    HW1 4228   0.769   2.033   5.179
 1394SOL    HW2 4229   0.700   2.090   5.316
 1395SOL     OW 4230   0.099   2.181   3.762
 1395SOL    HW1 4231   0.002   2.155   3.759
 1395SOL    HW2 4232   0.113   2.266   3.711
 1396SOL     OW 4233   1.424   2.719   5.119
 1396SOL    HW1 4234   1.369   2.783   5.066
 1396SOL    HW2 4235   1.518   2.720   5.086
 1397SOL     OW 4236   0.078   2.049   4.066
 1397SOL    HW1 4237   0.023   2.044   3.982
 1397SOL    HW2 4238   0.152   1.983   4.061
 1398SOL     OW 4239   1.184   3.191   3.853
 1398SOL    HW1 4240   1.084   3.191   3.844
 1398SOL    HW2 4241   1.208   3.189   3.950
 1399SOL     OW 4242   0.624   2.692   5.158
 1399SOL    HW1 4243   0.680   2.774   5.143
 1399SOL    HW2 4244   0.683   2.612   5.168
 1400SOL     OW 4245   1.485   3.649   4.711
 1400SOL    HW1 4246   1.506   3.710   4.634
 1400SOL    HW2 4247   1.570   3.616   4.751
 1401SOL     OW 4248   0.718   2.421   5.428
 1401SOL    HW1 4249   0.764   2.489   5.486
 1401SOL    HW2 4250   0.740   2.329   5.460
 1402SOL     OW 4251   1.473   3.059   5.359
 1402SOL    HW1 4252   1.458   3.072   5.457
 1402SOL    HW2 4253   1.569   3.077   5.337
 1403SOL     OW 4254   0.372   3.607   5.287
 1403SOL    HW1 4255   0.285   3.654   5.272
 1403SOL    HW2 4256   0.356   3.523   5.339
 1404SOL     OW 4257   1.666   2.740   4.980
 1404SOL    HW1 4258   1.661   2.649   4.939
 1404SOL    HW2 4259   1.654   2.810   4.909
 1405SOL     OW 4260   1.219   2.179   4.184
 1405SOL    HW1 4261   1.283   2.102   4.173
 1405SOL    HW2 4262   1.246   2.234   4.263
 1406SOL     OW 4263   0.589   2.599   4.393
 1406SOL    HW1 4264   0.629   2.690   4.384
 1406SOL    HW2 4265   0.520   2.587   4.322
 1407SOL     OW 4266   1.752   2.227   5.376
 1407SOL    HW1 4267   1.742   2.243   5.278
 1407SOL    HW2 4268   1.678   2.167   5.408
 1408SOL     OW 4269   1.752   2.794   5.234
 1408SOL    HW1 4270   1.741   2.891   5.255
 1408SOL    HW2 4271   1.731   2.779   5.137
 1409SOL     OW 4272   0.914   3.234   3.811
 1409SOL    HW1 4273   0.853   3.221   3.889
 1409SOL    HW2 4274   0.874   3.301   3.748
 1410SOL     OW 4275   0.666   3.649   4.667
 1410SOL    HW1 4276   0.642   3.743   4.644
 1410SOL    HW2 4277   0.764   3.635   4.655
 1411SOL     OW 4278   0.869   2.832   4.580
 1411SOL    HW1 4279   0.919   2.754   4.616
 1411SOL    HW2 4280   0.826   2.883   4.655
 1412SOL     OW 4281   1.076   2.840   3.807
 1412SOL    HW1 4282   1.062   2.903   3.731
 1412SOL    HW2 4283   1.157   2.784   3.789
 1413SOL     OW 4284   1.847   3.419   4.571
 1413SOL    HW1 4285   1.771   3.407   4.508
 1413SOL    HW2 4286   1.842   3.349   4.643
 1414SOL     OW 4287   0.242   3.170   5.589
 1414SOL    HW1 4288   0.150   3.137   5.566
 1414SOL    HW2 4289   0.251   3.180   5.688
 1415SOL     OW 4290   0.150   3.133   4.414
 1415SOL    HW1 4291   0.103   3.086   4.489
 1415SOL    HW2 4292   0.197   3.066   4.358
 1416SOL     OW 4293   0.685   3.270   5.359
 1416SOL    HW1 4294   0.603   3.220   5.387
 1416SOL    HW2 4295   0.681   3.364   5.395
 1417SOL     OW 4296   1.805   2.045   4.958
 1417SOL    HW1 4297   1.820   1.949   4.982
 1417SOL    HW2 4298   1.818   2.056   4.859
 1418SOL     OW 4299   0.455   2.291   4.263
 1418SOL    HW1 4300   0.478   2.223   4.194
 1418SOL    HW2 4301   0.397   2.250   4.333
 1419SOL     OW 4302   1.693   3.345   4.818
 1419SOL    HW1 4303   1.612   3.327   4.763
 1419SOL    HW2 4304   1.703   3.274   4.888
 1420SOL     OW 4305   0.331   2.414   5.015
 1420SOL    HW1 4306   0.388   2.358   5.076
 1420SOL    HW2 4307   0.348   2.387   4.920
 1421SOL     OW 4308   0.828   3.441   4.402
 1421SOL    HW1 4309   0.815   3.502   4.324
 1421SOL    HW2 4310   0.751   3.378   4.409
 1422SOL     OW 4311   1.431   2.092   4.841
 1422SOL    HW1 4312   1.454   2.003   4.879
 1422SOL    HW2 4313   1.376   2.144   4.908
 1423SOL     OW 4314   1.010   1.878   4.862
 1423SOL    HW1 4315   0.946   1.815   4.820
 1423SOL    HW2 4316   1.101   1.838   4.864
 1424SOL     OW 4317   0.776   3.186   4.048
 1424SOL    HW1 4318   0.746   3.091   4.063
 1424SOL    HW2 4319   0.857   3.204   4.102
 1425SOL     OW 4320   0.626   3.420   5.014
 1425SOL    HW1 4321   0.623   3.507   5.063
 1425SOL    HW2 4322   0.716   3.409   4.972
 1426SOL     OW 4323   1.353   1.913   3.893
 1426SOL    HW1 4324   1.395   1.846   3.831
 1426SOL    HW2 4325   1.261   1.883   3.916
 1427SOL     OW 4326   1.291   2.326   4.405
 1427SOL    HW1 4327   1.238   2.411   4.407
 1427SOL    HW2 4328   1.289   2.283   4.495
 1428SOL     OW 4329   1.586   2.066   4.607
 1428SOL    HW1 4330   1.528   2.085   4.686
 1428SOL    HW2 4331   1.588   2.145   4.547
 1429SOL     OW 4332   0.070   2.927   4.002
 1429SOL    HW1 4333   0.163   2.889   4.001
 1429SOL    HW2 4334   0.005   2.855   4.022
 1430SOL     OW 4335   0.884   3.524   4.065
 1430SOL    HW1 4336   0.809   3.502   4.003
 1430SOL    HW2 4337   0.857   3.601   4.123
 1431SOL     OW 4338   0.188   2.514   5.706
 1431SOL    HW1 4339   0.175   2.448   5.780
 1431SOL    HW2 4340   0.227   2.469   5.627
 1432SOL     OW 4341   0.228   2.138   6.569
 1432SOL    HW1 4342   0.281   2.106   6.647
 1432SOL    HW2 4343   0.131   2.115   6.583
 1433SOL     OW 4344   6.990   2.247   6.239
 1433SOL    HW1 4345   6.941   2.243   6.326
 1433SOL    HW2 4346   0.010   2.154   6.208
 1434SOL     OW 4347   0.560   3.144   6.758
 1434SOL    HW1 4348   0.473   3.165   6.714
 1434SOL    HW2 4349   0.588   3.222   6.814
 1435SOL     OW 4350   1.563   3.375   6.294
 1435SOL    HW1 4351   1.519   3.352   6.380
 1435SOL    HW2 4352   1.494   3.382   6.222
 1436SOL     OW 4353   1.132   2.564   6.282
 1436SOL    HW1 4354   1.184   2.649   6.266
 1436SOL    HW2 4355   1.081   2.572   6.367
 1437SOL     OW 4356   1.769   2.462   5.809
 1437SOL    HW1 4357   1.746   2.458   5.712
 1437SOL    HW2 4358   1.731   2.383   5.856
 1438SOL     OW 4359   0.756   3.006   6.627
 1438SOL    HW1 4360   0.683   3.032   6.690
 1438SOL    HW2 4361   0.789   3.086   6.579
 1439SOL     OW 4362   0.683   2.862   6.236
 1439SOL    HW1 4363   0.755   2.851   6.305
 1439SOL    HW2 4364   0.609   2.918   6.274
 1440SOL     OW 4365   0.336   3.267   6.640
 1440SOL    HW1 4366   0.253   3.236   6.594
 1440SOL    HW2 4367   0.385   3.331   6.582
 1441SOL     OW 4368   1.611   2.309   6.329
 1441SOL    HW1 4369   1.535   2.326   6.267
 1441SOL    HW2 4370   1.614   2.382   6.398
 1442SOL     OW 4371   0.226   3.572   6.052
 1442SOL    HW1 4372   0.240   3.651   6.111
 1442SOL    HW2 4373   0.297   3.568   5.982
 1443SOL     OW 4374   0.275   3.304   6.105
 1443SOL    HW1 4375   0.253   3.402   6.112
 1443SOL    HW2 4376   0.225   3.254   6.175
 1444SOL     OW 4377   0.267   2.942   6.489
 1444SOL    HW1 4378   0.266   2.848   6.522
 1444SOL    HW2 4379   0.195   2.995   6.534
 1445SOL     OW 4380   0.611   3.667   6.985
 1445SOL    HW1 4381   0.518   3.646   0.013
 1445SOL    HW2 4382   0.637   3.758   0.020
 1446SOL     OW 4383   0.581   2.849   5.726
 1446SOL    HW1 4384   0.629   2.897   5.652
 1446SOL    HW2 4385   0.621   2.877   5.814
 1447SOL     OW 4386   0.132   2.477   6.159
 1447SOL    HW1 4387   0.063   2.408   6.183
 1447SOL    HW2 4388   0.122   2.556   6.221
 1448SOL     OW 4389   1.846   3.618   5.919
 1448SOL    HW1 4390   1.915   3.587   5.984
 1448SOL    HW2 4391   1.862   3.714   5.895
 1449SOL     OW 4392   0.037   3.455   5.733
 1449SOL    HW1 4393   0.027   3.356   5.745
 1449SOL    HW2 4394   6.961   3.502   5.779
 1450SOL     OW 4395   1.691   2.783   6.231
 1450SOL    HW1 4396   1.775   2.731   6.212
 1450SOL    HW2 4397   1.667   2.837   6.150
 1451SOL     OW 4398   1.652   2.967   6.017
 1451SOL    HW1 4399   1.741   2.965   5.972
 1451SOL    HW2 4400   1.654   3.034   6.092
 1452SOL     OW 4401   0.611   3.252   6.321
 1452SOL    HW1 4402   0.564   3.165   6.334
 1452SOL    HW2 4403   0.598   3.282   6.226
 1453SOL     OW 4404   0.816   1.870   6.094
 1453SOL    HW1 4405   0.862   1.956   6.072
 1453SOL    HW2 4406   0.718   1.886   6.103
 1454SOL     OW 4407   0.203   2.813   6.832
 1454SOL    HW1 4408   0.291   2.768   6.823
 1454SOL    HW2 4409   0.140   2.779   6.762
 1455SOL     OW 4410   1.532   2.861   5.790
 1455SOL    HW1 4411   1.458   2.801   5.819
 1455SOL    HW2 4412   1.578   2.899   5.870
 1456SOL     OW 4413   1.456   3.285   6.533
 1456SOL    HW1 4414   1.397   3.299   6.613
 1456SOL    HW2 4415   1.452   3.189   6.506
 1457SOL     OW 4416   1.651   3.609   6.162
 1457SOL    HW1 4417   1.633   3.581   6.068
 1457SOL    HW2 4418   1.629   3.534   6.224
 1458SOL     OW 4419   0.590   2.580   5.852
 1458SOL    HW1 4420   0.600   2.667   5.804
 1458SOL    HW2 4421   0.526   2.590   5.928
 1459SOL     OW 4422   1.275   2.216   6.517
 1459SOL    HW1 4423   1.181   2.184   6.525
 1459SOL    HW2 4424   1.333   2.166   6.582
 1460SOL     OW 4425   1.583   3.534   5.894
 1460SOL    HW1 4426   1.679   3.562   5.890
 1460SOL    HW2 4427   1.550   3.517   5.801
 1461SOL     OW 4428   0.795   2.471   0.046
 1461SOL    HW1 4429   0.733   2.513   0.112
 1461SOL    HW2 4430   0.742   2.416   6.981
 1462SOL     OW 4431   1.005   2.255   6.794
 1462SOL    HW1 4432   0.945   2.309   6.853
 1462SOL    HW2 4433   0.950   2.208   6.725
 1463SOL     OW 4434   1.049   2.561   6.011
 1463SOL    HW1 4435   1.071   2.555   6.108
 1463SOL    HW2 4436   0.963   2.513   5.994
 1464SOL     OW 4437   0.104   2.679   6.358
 1464SOL    HW1 4438   0.197   2.669   6.396
 1464SOL    HW2 4439   0.044   2.718   6.428
 1465SOL     OW 4440   0.108   3.692   0.174
 1465SOL    HW1 4441   0.094   3.665   0.270
 1465SOL    HW2 4442   0.020   3.715   0.133
 1466SOL     OW 4443   0.896   2.215   5.783
 1466SOL    HW1 4444   0.936   2.282   5.720
 1466SOL    HW2 4445   0.904   2.123   5.743
 1467SOL     OW 4446   1.379   3.005   6.120
 1467SOL    HW1 4447   1.463   2.989   6.069
 1467SOL    HW2 4448   1.323   3.072   6.072
 1468SOL     OW 4449   0.550   2.037   6.482
 1468SOL    HW1 4450   0.563   2.066   6.577
 1468SOL    HW2 4451   0.554   2.116   6.422
 1469SOL     OW 4452   0.996   3.305   6.051
 1469SOL    HW1 4453   0.964   3.385   6.000
 1469SOL    HW2 4454   0.979   3.318   6.148
 1470SOL     OW 4455   0.357   3.680   6.450
 1470SOL    HW1 4456   0.396   3.589   6.464
 1470SOL    HW2 4457   0.426   3.750   6.472
 1471SOL     OW 4458   1.803   2.919   6.450
 1471SOL    HW1 4459   1.752   2.894   6.367
 1471SOL    HW2 4460   1.741   2.919   6.528
 1472SOL     OW 4461   0.318   2.807   5.836
 1472SOL    HW1 4462   0.405   2.833   5.794
 1472SOL    HW2 4463   0.287   2.720   5.798
 1473SOL     OW 4464   1.482   2.611   6.307
 1473SOL    HW1 4465   1.474   2.564   6.395
 1473SOL    HW2 4466   1.563   2.670   6.308
 1474SOL     OW 4467   1.122   3.638   5.813
 1474SOL    HW1 4468   1.042   3.600   5.861
 1474SOL    HW2 4469   1.151   3.574   5.742
 1475SOL     OW 4470   1.625   3.244   5.674
 1475SOL    HW1 4471   1.586   3.335   5.658
 1475SOL    HW2 4472   1.556   3.174   5.655
 1476SOL     OW 4473   0.469   3.596   5.904
 1476SOL    HW1 4474   0.509   3.658   5.971
 1476SOL    HW2 4475   0.540   3.561   5.844
 1477SOL     OW 4476   1.401   1.966   6.022
 1477SOL    HW1 4477   1.389   1.941   5.926
 1477SOL    HW2 4478   1.499   1.975   6.041
 1478SOL     OW 4479   0.255   3.671   6.782
 1478SOL    HW1 4480   0.308   3.598   6.825
 1478SOL    HW2 4481   0.191   3.631   6.716
 1479SOL     OW 4482   0.936   3.563   6.481
 1479SOL    HW1 4483   1.019   3.516   6.510
 1479SOL    HW2 4484   0.893   3.511   6.407
 1480SOL     OW 4485   0.400   2.545   6.060
 1480SOL    HW1 4486   0.429   2.452   6.080
 1480SOL    HW2 4487   0.303   2.555   6.079
 1481SOL     OW 4488   0.641   1.979   5.688
 1481SOL    HW1 4489   0.711   1.910   5.708
 1481SOL    HW2 4490   0.584   1.948   5.612
 1482SOL     OW 4491   0.875   3.380   6.760
 1482SOL    HW1 4492   0.854   3.346   6.668
 1482SOL    HW2 4493   0.913   3.306   6.815
 1483SOL     OW 4494   0.819   3.251   6.520
 1483SOL    HW1 4495   0.908   3.240   6.477
 1483SOL    HW2 4496   0.748   3.256   6.449
 1484SOL     OW 4497   0.927   2.370   6.485
 1484SOL    HW1 4498   0.901   2.362   6.389
 1484SOL    HW2 4499   0.965   2.283   6.517
 1485SOL     OW 4500   0.546   1.926   6.082
 1485SOL    HW1 4501   0.464   1.922   6.138
 1485SOL    HW2 4502   0.543   2.006   6.023
 1486SOL     OW 4503   1.426   3.061   5.629
 1486SOL    HW1 4504   1.459   2.983   5.682
 1486SOL    HW2 4505   1.337   3.090   5.665
 1487SOL     OW 4506   0.292   1.904   5.773
 1487SOL    HW1 4507   0.341   1.985   5.740
 1487SOL    HW2 4508   0.356   1.839   5.812
 1488SOL     OW 4509   0.945   2.112   6.043
 1488SOL    HW1 4510   0.914   2.154   5.958
 1488SOL    HW2 4511   1.044   2.125   6.052
 1489SOL     OW 4512   1.220   3.432   6.381
 1489SOL    HW1 4513   1.233   3.503   6.311
 1489SOL    HW2 4514   1.296   3.433   6.445
 1490SOL     OW 4515   0.467   3.012   6.318
 1490SOL    HW1 4516   0.401   2.991   6.390
 1490SOL    HW2 4517   0.425   2.999   6.229
 1491SOL     OW 4518   1.263   3.654   6.196
 1491SOL    HW1 4519   1.315   3.716   6.137
 1491SOL    HW2 4520   1.189   3.704   6.241
 1492SOL     OW 4521   1.021   2.399   5.615
 1492SOL    HW1 4522   0.976   2.485   5.591
 1492SOL    HW2 4523   1.090   2.416   5.684
 1493SOL     OW 4524   0.581   2.082   6.751
 1493SOL    HW1 4525   0.625   1.998   6.784
 1493SOL    HW2 4526   0.485   2.082   6.779
 1494SOL     OW 4527   0.865   2.321   6.223
 1494SOL    HW1 4528   0.816   2.381   6.160
 1494SOL    HW2 4529   0.894   2.238   6.175
 1495SOL     OW 4530   1.019   1.910   6.327
 1495SOL    HW1 4531   0.956   1.911   6.249
 1495SOL    HW2 4532   0.993   1.836   6.390
 1496SOL     OW 4533   1.439   3.023   6.442
 1496SOL    HW1 4534   1.370   2.951   6.445
 1496SOL    HW2 4535   1.469   3.036   6.347
 1497SOL     OW 4536   1.465   2.466   6.551
 1497SOL    HW1 4537   1.404   2.388   6.556
 1497SOL    HW2 4538   1.529   2.464   6.628
 1498SOL     OW 4539   1.843   2.672   5.966
 1498SOL    HW1 4540   1.901   2.624   6.031
 1498SOL    HW2 4541   1.813   2.608   5.895
 1499SOL     OW 4542   0.495   3.282   5.740
 1499SOL    HW1 4543   0.414   3.256   5.792
 1499SOL    HW2 4544   0.484   3.254   5.644
 1500SOL     OW 4545   1.674   3.129   6.228
 1500SOL    HW1 4546   1.773   3.127   6.241
 1500SOL    HW2 4547   1.640   3.221   6.250
 1501SOL     OW 4548   1.390   2.436   5.657
 1501SOL    HW1 4549   1.327   2.414   5.731
 1501SOL    HW2 4550   1.483   2.409   5.682
 1502SOL     OW 4551   0.530   2.124   5.896
 1502SOL    HW1 4552   0.577   2.069   5.827
 1502SOL    HW2 4553   0.503   2.212   5.856
 1503SOL     OW 4554   1.752   3.058   0.182
 1503SOL    HW1 4555   1.850   3.038   0.182
 1503SOL    HW2 4556   1.737   3.153   0.156
 1504SOL     OW 4557   1.119   3.099   6.695
 1504SOL    HW1 4558   1.035   3.060   6.732
 1504SOL    HW2 4559   1.105   3.123   6.599
 1505SOL     OW 4560   1.622   2.941   6.647
 1505SOL    HW1 4561   1.624   3.011   6.719
 1505SOL    HW2 4562   1.546   2.960   6.586
 1506SOL     OW 4563   0.711   2.919   5.960
 1506SOL    HW1 4564   0.695   2.903   6.057
 1506SOL    HW2 4565   0.790   2.866   5.930
 1507SOL     OW 4566   0.437   2.666   6.845
 1507SOL    HW1 4567   0.490   2.693   6.925
 1507SOL    HW2 4568   0.395   2.577   6.861
 1508SOL     OW 4569   1.269   2.249   6.856
 1508SOL    HW1 4570   1.296   2.324   6.917
 1508SOL    HW2 4571   1.174   2.263   6.827
 1509SOL     OW 4572   0.084   3.433   6.856
 1509SOL    HW1 4573   0.034   3.468   6.935
 1509SOL    HW2 4574   0.182   3.438   6.873
 1510SOL     OW 4575   0.341   2.978   6.077
 1510SOL    HW1 4576   0.352   3.057   6.018
 1510SOL    HW2 4577   0.340   2.894   6.022
 1511SOL     OW 4578   0.547   2.407   6.451
 1511SOL    HW1 4579   0.561   2.464   6.370
 1511SOL    HW2 4580   0.618   2.426   6.518
 1512SOL     OW 4581   1.246   3.216   5.978
 1512SOL    HW1 4582   1.307   3.289   6.009
 1512SOL    HW2 4583   1.153   3.236   6.008
 1513SOL     OW 4584   1.282   3.312   6.746
 1513SOL    HW1 4585   1.314   3.305   6.841
 1513SOL    HW2 4586   1.221   3.236   6.725
 1514SOL     OW 4587   1.577   2.483   6.067
 1514SOL    HW1 4588   1.528   2.531   6.140
 1514SOL    HW2 4589   1.624   2.550   6.010
 1515SOL     OW 4590   0.364   3.432   6.852
 1515SOL    HW1 4591   0.343   3.361   6.785
 1515SOL    HW2 4592   0.462   3.428   6.875
 1516SOL     OW 4593   0.587   2.732   6.621
 1516SOL    HW1 4594   0.618   2.827   6.616
 1516SOL    HW2 4595   0.531   2.720   6.703
 1517SOL     OW 4596   1.349   2.718   6.594
 1517SOL    HW1 4597   1.258   2.703   6.555
 1517SOL    HW2 4598   1.401   2.633   6.592
 1518SOL     OW 4599   1.198   2.389   5.851
 1518SOL    HW1 4600   1.211   2.306   5.906
 1518SOL    HW2 4601   1.154   2.459   5.906
 1519SOL     OW 4602   0.323   2.061   6.820
 1519SOL    HW1 4603   0.308   2.076   6.917
 1519SOL    HW2 4604   0.299   1.967   6.796
 1520SOL     OW 4605   0.054   3.162   6.834
 1520SOL    HW1 4606   0.086   3.098   6.903
 1520SOL    HW2 4607   0.086   3.254   6.856
 1521SOL     OW 4608   0.726   2.489   6.641
 1521SOL    HW1 4609   0.804   2.468   6.582
 1521SOL    HW2 4610   0.695   2.583   6.623
 1522SOL     OW 4611   0.301   1.923   6.209
 1522SOL    HW1 4612   0.281   2.019   6.227
 1522SOL    HW2 4613   0.313   1.874   6.296
 1523SOL     OW 4614   1.626   2.242   5.949
 1523SOL    HW1 4615   1.652   2.169   6.012
 1523SOL    HW2 4616   1.598   2.323   6.001
 1524SOL     OW 4617   1.022   2.619   6.550
 1524SOL    HW1 4618   1.018   2.640   6.648
 1524SOL    HW2 4619   0.997   2.523   6.535
 1525SOL     OW 4620   1.917   3.338   0.195
 1525SOL    HW1 4621   1.895   3.370   0.103
 1525SOL    HW2 4622   1.925   3.416   0.256
 1526SOL     OW 4623   1.528   2.131   5.716
 1526SOL    HW1 4624   1.458   2.063   5.741
 1526SOL    HW2 4625   1.564   2.173   5.799
 1527SOL     OW 4626   1.289   2.688   5.613
 1527SOL    HW1 4627   1.330   2.597   5.621
 1527SOL    HW2 4628   1.320   2.731   5.528
 1528SOL     OW 4629   1.072   3.198   6.439
 1528SOL    HW1 4630   1.075   3.121   6.376
 1528SOL    HW2 4631   1.130   3.272   6.404
 1529SOL     OW 4632   0.320   2.664   6.532
 1529SOL    HW1 4633   0.417   2.688   6.529
 1529SOL    HW2 4634   0.311   2.570   6.567
 1530SOL     OW 4635   0.328   2.385   6.604
 1530SOL    HW1 4636   0.290   2.294   6.586
 1530SOL    HW2 4637   0.410   2.397   6.547
 1531SOL     OW 4638   1.141   2.101   0.054
 1531SOL    HW1 4639   1.199   2.130   0.130
 1531SOL    HW2 4640   1.178   2.137   6.968
 1532SOL     OW 4641   6.991   3.185   5.802
 1532SOL    HW1 4642   6.918   3.210   5.867
 1532SOL    HW2 4643   0.020   3.091   5.821
 1533SOL     OW 4644   0.097   3.622   6.532
 1533SOL    HW1 4645   0.076   3.549   6.468
 1533SOL    HW2 4646   0.185   3.664   6.509
 1534SOL     OW 4647   0.494   3.440   6.492
 1534SOL    HW1 4648   0.563   3.506   6.519
 1534SOL    HW2 4649   0.535   3.372   6.430
 1535SOL     OW 4650   0.981   2.659   6.823
 1535SOL    HW1 4651   1.059   2.636   6.881
 1535SOL    HW2 4652   0.899   2.613   6.857
 1536SOL     OW 4653   0.059   2.474   6.693
 1536SOL    HW1 4654   0.121   2.426   6.631
 1536SOL    HW2 4655   0.047   2.420   6.776
 1537SOL     OW 4656   0.816   2.434   5.945
 1537SOL    HW1 4657   0.827   2.354   5.886
 1537SOL    HW2 4658   0.738   2.488   5.913
 1538SOL     OW 4659   1.647   2.472   6.752
 1538SOL    HW1 4660   1.631   2.413   6.831
 1538SOL    HW2 4661   1.741   2.461   6.721
 1539SOL     OW 4662   0.674   2.326   6.850
 1539SOL    HW1 4663   0.643   2.236   6.818
 1539SOL    HW2 4664   0.689   2.386   6.772
 1540SOL     OW 4665   0.941   3.524   6.999
 1540SOL    HW1 4666   0.910   3.516   6.904
 1540SOL    HW2 4667   0.924   3.617   0.032
 1541SOL     OW 4668   0.456   2.351   5.768
 1541SOL    HW1 4669   0.513   2.431   5.785
 1541SOL    HW2 4670   0.370   2.360   5.817
 1542SOL     OW 4671   0.161   2.988   0.029
 1542SOL    HW1 4672   0.180   2.940   0.114
 1542SOL    HW2 4673   0.176   2.926   6.952
 1543SOL     OW 4674   1.286   2.868   6.813
 1543SOL    HW1 4675   1.324   2.816   6.736
 1543SOL    HW2 4676   1.258   2.959   6.781
 1544SOL     OW 4677   1.315   2.719   5.886
 1544SOL    HW1 4678   1.239   2.691   5.944
 1544SOL    HW2 4679   1.290   2.706   5.790
 1545SOL     OW 4680   1.782   3.609   6.741
 1545SOL    HW1 4681   1.844   3.634   6.666
 1545SOL    HW2 4682   1.745   3.518   6.724
 1546SOL     OW 4683   1.246   3.587   6.699
 1546SOL    HW1 4684   1.329   3.617   6.652
 1546SOL    HW2 4685   1.251   3.489   6.719
 1547SOL     OW 4686   0.062   3.104   6.575
 1547SOL    HW1 4687   0.069   3.125   6.673
 1547SOL    HW2 4688   6.966   3.092   6.551
 1548SOL     OW 4689   1.720   2.011   6.086
 1548SOL    HW1 4690   1.795   2.001   6.021
 1548SOL    HW2 4691   1.702   1.923   6.131
 1549SOL     OW 4692   1.395   3.432   6.073
 1549SOL    HW1 4693   1.458   3.464   6.002
 1549SOL    HW2 4694   1.340   3.509   6.106
 1550SOL     OW 4695   1.281   2.790   6.252
 1550SOL    HW1 4696   1.356   2.725   6.268
 1550SOL    HW2 4697   1.315   2.867   6.198
 1551SOL     OW 4698   0.672   3.484   5.740
 1551SOL    HW1 4699   0.687   3.503   5.642
 1551SOL    HW2 4700   0.615   3.403   5.749
 1552SOL     OW 4701   1.841   2.034   6.557
 1552SOL    HW1 4702   1.875   1.943   6.533
 1552SOL    HW2 4703   1.750   2.047   6.518
 1553SOL     OW 4704   0.263   2.180   6.296
 1553SOL    HW1 4705   0.186   2.240   6.275
 1553SOL    HW2 4706   0.264   2.161   6.394
 1554SOL     OW 4707   1.208   3.463   5.619
 1554SOL    HW1 4708   1.199   3.369   5.652
 1554SOL    HW2 4709   1.141   3.480   5.547
 1555SOL     OW 4710   0.778   2.887   6.952
 1555SOL    HW1 4711   0.837   2.843   6.884
 1555SOL    HW2 4712   0.824   2.967   6.989
 1556SOL     OW 4713   0.919   2.772   5.873
 1556SOL    HW1 4714   0.980   2.808   5.803
 1556SOL    HW2 4715   0.966   2.701   5.925
 1557SOL     OW 4716   1.489   3.491   5.628
 1557SOL    HW1 4717   1.390   3.480   5.617
 1557SOL    HW2 4718   1.532   3.497   5.538
 1558SOL     OW 4719   1.618   3.131   6.833
 1558SOL    HW1 4720   1.701   3.147   6.887
 1558SOL    HW2 4721   1.541   3.114   6.894
 1559SOL     OW 4722   1.060   2.968   6.299
 1559SOL    HW1 4723   0.983   2.917   6.339
 1559SOL    HW2 4724   1.128   2.903   6.266
 1560SOL     OW 4725   1.019   2.099   6.541
 1560SOL    HW1 4726   1.018   2.049   6.454
 1560SOL    HW2 4727   1.021   2.033   6.616
 1561SOL     OW 4728   0.607   3.349   6.067
 1561SOL    HW1 4729   0.657   3.295   5.999
 1561SOL    HW2 4730   0.530   3.395   6.023
 1562SOL     OW 4731   1.698   2.285   6.943
 1562SOL    HW1 4732   1.760   2.293   0.021
 1562SOL    HW2 4733   1.705   2.193   6.904
 1563SOL     OW 4734   0.255   3.212   5.859
 1563SOL    HW1 4735   0.157   3.213   5.842
 1563SOL    HW2 4736   0.274   3.249   5.951
 1564SOL     OW 4737   0.673   2.051   0.080
 1564SOL    HW1 4738   0.765   2.028   0.048
 1564SOL    HW2 4739   0.677   2.131   0.140
 1565SOL     OW 4740   0.099   2.181   5.624
 1565SOL    HW1 4741   0.003   2.155   5.621
 1565SOL    HW2 4742   0.113   2.266   5.573
 1566SOL     OW 4743   0.077   2.050   5.928
 1566SOL    HW1 4744   0.023   2.044   5.844
 1566SOL    HW2 4745   0.152   1.983   5.923
 1567SOL     OW 4746   1.180   3.200   5.706
 1567SOL    HW1 4747   1.084   3.173   5.699
 1567SOL    HW2 4748   1.208   3.201   5.802
 1568SOL     OW 4749   1.487   3.644   6.574
 1568SOL    HW1 4750   1.502   3.707   6.498
 1568SOL    HW2 4751   1.575   3.619   6.614
 1569SOL     OW 4752   1.493   3.157   0.286
 1569SOL    HW1 4753   1.409   3.110   0.310
 1569SOL    HW2 4754   1.564   3.090   0.264
 1570SOL     OW 4755   0.375   3.625   0.101
 1570SOL    HW1 4756   0.287   3.671   0.100
 1570SOL    HW2 4757   0.400   3.601   0.195
 1571SOL     OW 4758   1.700   2.739   6.829
 1571SOL    HW1 4759   1.666   2.649   6.802
 1571SOL    HW2 4760   1.666   2.808   6.766
 1572SOL     OW 4761   1.219   2.179   6.046
 1572SOL    HW1 4762   1.283   2.102   6.035
 1572SOL    HW2 4763   1.246   2.234   6.125
 1573SOL     OW 4764   0.587   2.600   6.256
 1573SOL    HW1 4765   0.629   2.691   6.246
 1573SOL    HW2 4766   0.519   2.587   6.184
 1574SOL     OW 4767   1.775   2.773   0.093
 1574SOL    HW1 4768   1.759   2.868   0.119
 1574SOL    HW2 4769   1.746   2.760   6.998
 1575SOL     OW 4770   0.869   3.226   5.630
 1575SOL    HW1 4771   0.824   3.251   5.716
 1575SOL    HW2 4772   0.882   3.308   5.574
 1576SOL     OW 4773   0.667   3.648   6.533
 1576SOL    HW1 4774   0.642   3.741   6.506
 1576SOL    HW2 4775   0.765   3.634   6.519
 1577SOL     OW 4776   0.869   2.831   6.442
 1577SOL    HW1 4777   0.918   2.753   6.480
 1577SOL    HW2 4778   0.829   2.884   6.517
 1578SOL     OW 4779   1.077   2.850   5.670
 1578SOL    HW1 4780   1.050   2.905   5.591
 1578SOL    HW2 4781   1.155   2.793   5.646
 1579SOL     OW 4782   1.849   3.419   6.432
 1579SOL    HW1 4783   1.772   3.406   6.370
 1579SOL    HW2 4784   1.848   3.347   6.502
 1580SOL     OW 4785   0.151   3.134   6.275
 1580SOL    HW1 4786   0.106   3.087   6.352
 1580SOL    HW2 4787   0.197   3.066   6.218
 1581SOL     OW 4788   1.812   2.036   6.836
 1581SOL    HW1 4789   1.794   1.938   6.838
 1581SOL    HW2 4790   1.825   2.065   6.741
 1582SOL     OW 4791   0.456   2.292   6.125
 1582SOL    HW1 4792   0.479   2.223   6.055
 1582SOL    HW2 4793   0.397   2.250   6.194
 1583SOL     OW 4794   1.681   3.364   6.682
 1583SOL    HW1 4795   1.606   3.345   6.619
 1583SOL    HW2 4796   1.690   3.289   6.747
 1584SOL     OW 4797   0.319   2.403   6.884
 1584SOL    HW1 4798   0.392   2.347   6.924
 1584SOL    HW2 4799   0.322   2.395   6.784
 1585SOL     OW 4800   0.829   3.441   6.263
 1585SOL    HW1 4801   0.817   3.503   6.185
 1585SOL    HW2 4802   0.750   3.379   6.268
 1586SOL     OW 4803   1.433   2.097   6.704
 1586SOL    HW1 4804   1.467   2.015   6.751
 1586SOL    HW2 4805   1.379   2.152   6.767
 1587SOL     OW 4806   1.016   1.881   6.714
 1587SOL    HW1 4807   0.953   1.814   6.674
 1587SOL    HW2 4808   1.106   1.839   6.724
 1588SOL     OW 4809   0.774   3.193   5.907
 1588SOL    HW1 4810   0.746   3.097   5.915
 1588SOL    HW2 4811   0.859   3.207   5.957
 1589SOL     OW 4812   0.634   3.423   6.874
 1589SOL    HW1 4813   0.629   3.519   6.901
 1589SOL    HW2 4814   0.720   3.407   6.824
 1590SOL     OW 4815   1.353   1.913   5.755
 1590SOL    HW1 4816   1.395   1.846   5.693
 1590SOL    HW2 4817   1.261   1.883   5.778
 1591SOL     OW 4818   1.292   2.325   6.267
 1591SOL    HW1 4819   1.239   2.410   6.269
 1591SOL    HW2 4820   1.289   2.281   6.356
 1592SOL     OW 4821   1.587   2.067   6.471
 1592SOL    HW1 4822   1.525   2.086   6.548
 1592SOL    HW2 4823   1.588   2.146   6.409
 1593SOL     OW 4824   0.071   2.927   5.863
 1593SOL    HW1 4825   0.164   2.890   5.863
 1593SOL    HW2 4826   0.006   2.854   5.884
 1594SOL     OW 4827   0.884   3.524   5.927
 1594SOL    HW1 4828   0.810   3.502   5.863
 1594SOL    HW2 4829   0.857   3.601   5.984
 1595SOL     OW 4830   0.229   4.375   0.127
 1595SOL    HW1 4831   0.154   4.323   0.166
 1595SOL    HW2 4832   0.249   4.342   0.035
 1596SOL     OW 4833   0.231   3.995   0.987
 1596SOL    HW1 4834   0.282   3.963   1.068
 1596SOL    HW2 4835   0.134   3.978   1.000
 1597SOL     OW 4836   6.987   4.111   0.657
 1597SOL    HW1 4837   6.939   4.111   0.745
 1597SOL    HW2 4838   0.003   4.017   0.627
 1598SOL     OW 4839   0.569   5.019   1.185
 1598SOL    HW1 4840   0.479   5.016   1.142
 1598SOL    HW2 4841   0.586   5.112   1.219
 1599SOL     OW 4842   1.562   5.238   0.707
 1599SOL    HW1 4843   1.520   5.213   0.795
 1599SOL    HW2 4844   1.492   5.242   0.636
 1600SOL     OW 4845   1.131   4.426   0.696
 1600SOL    HW1 4846   1.185   4.509   0.680
 1600SOL    HW2 4847   1.081   4.435   0.782
 1601SOL     OW 4848   1.785   4.302   0.198
 1601SOL    HW1 4849   1.718   4.353   0.144
 1601SOL    HW2 4850   1.737   4.241   0.262
 1602SOL     OW 4851   0.745   4.865   1.040
 1602SOL    HW1 4852   0.676   4.899   1.104
 1602SOL    HW2 4853   0.789   4.943   0.994
 1603SOL     OW 4854   0.872   4.490   1.820
 1603SOL    HW1 4855   0.862   4.558   1.893
 1603SOL    HW2 4856   0.897   4.536   1.735
 1604SOL     OW 4857   0.682   4.722   0.651
 1604SOL    HW1 4858   0.754   4.713   0.720
 1604SOL    HW2 4859   0.608   4.779   0.688
 1605SOL     OW 4860   0.713   4.877   1.818
 1605SOL    HW1 4861   0.765   4.955   1.851
 1605SOL    HW2 4862   0.628   4.908   1.776
 1606SOL     OW 4863   0.332   5.145   1.065
 1606SOL    HW1 4864   0.255   5.104   1.018
 1606SOL    HW2 4865   0.384   5.202   1.001
 1607SOL     OW 4866   1.458   5.225   1.357
 1607SOL    HW1 4867   1.515   5.307   1.365
 1607SOL    HW2 4868   1.388   5.227   1.428
 1608SOL     OW 4869   0.443   4.119   1.492
 1608SOL    HW1 4870   0.526   4.063   1.494
 1608SOL    HW2 4871   0.363   4.060   1.501
 1609SOL     OW 4872   1.611   4.172   0.744
 1609SOL    HW1 4873   1.534   4.190   0.684
 1609SOL    HW2 4874   1.621   4.247   0.810
 1610SOL     OW 4875   0.199   5.474   0.468
 1610SOL    HW1 4876   0.241   5.539   0.531
 1610SOL    HW2 4877   0.270   5.428   0.415
 1611SOL     OW 4878   1.137   5.064   1.697
 1611SOL    HW1 4879   1.183   5.062   1.786
 1611SOL    HW2 4880   1.081   4.981   1.687
 1612SOL     OW 4881   0.266   5.188   0.540
 1612SOL    HW1 4882   0.240   5.282   0.564
 1612SOL    HW2 4883   0.223   5.124   0.603
 1613SOL     OW 4884   0.270   4.807   0.908
 1613SOL    HW1 4885   0.264   4.711   0.937
 1613SOL    HW2 4886   0.198   4.860   0.952
 1614SOL     OW 4887   0.602   5.520   1.427
 1614SOL    HW1 4888   0.517   5.497   1.474
 1614SOL    HW2 4889   0.632   5.612   1.455
 1615SOL     OW 4890   0.586   4.692   0.146
 1615SOL    HW1 4891   0.643   4.715   0.067
 1615SOL    HW2 4892   0.622   4.738   0.228
 1616SOL     OW 4893   1.597   3.849   1.470
 1616SOL    HW1 4894   1.614   3.929   1.412
 1616SOL    HW2 4895   1.582   3.877   1.564
 1617SOL     OW 4896   0.130   4.343   0.571
 1617SOL    HW1 4897   0.063   4.273   0.595
 1617SOL    HW2 4898   0.122   4.420   0.635
 1618SOL     OW 4899   1.847   5.488   0.345
 1618SOL    HW1 4900   1.912   5.454   0.413
 1618SOL    HW2 4901   1.847   5.588   0.345
 1619SOL     OW 4902   6.972   5.276   0.121
 1619SOL    HW1 4903   6.969   5.181   0.151
 1619SOL    HW2 4904   0.019   5.332   0.189
 1620SOL     OW 4905   1.691   4.640   0.648
 1620SOL    HW1 4906   1.775   4.589   0.628
 1620SOL    HW2 4907   1.668   4.698   0.570
 1621SOL     OW 4908   1.654   4.823   0.443
 1621SOL    HW1 4909   1.723   4.843   0.374
 1621SOL    HW2 4910   1.659   4.891   0.517
 1622SOL     OW 4911   0.145   4.455   1.581
 1622SOL    HW1 4912   0.243   4.462   1.566
 1622SOL    HW2 4913   0.109   4.543   1.612
 1623SOL     OW 4914   0.612   5.113   0.736
 1623SOL    HW1 4915   0.564   5.026   0.750
 1623SOL    HW2 4916   0.601   5.142   0.641
 1624SOL     OW 4917   1.289   4.959   1.422
 1624SOL    HW1 4918   1.316   4.889   1.356
 1624SOL    HW2 4919   1.348   4.955   1.502
 1625SOL     OW 4920   0.820   3.736   0.513
 1625SOL    HW1 4921   0.865   3.822   0.490
 1625SOL    HW2 4922   0.721   3.751   0.521
 1626SOL     OW 4923   0.204   4.685   1.262
 1626SOL    HW1 4924   0.287   4.632   1.245
 1626SOL    HW2 4925   0.132   4.654   1.201
 1627SOL     OW 4926   1.492   4.739   0.209
 1627SOL    HW1 4927   1.425   4.673   0.244
 1627SOL    HW2 4928   1.575   4.735   0.265
 1628SOL     OW 4929   1.183   5.535   1.622
 1628SOL    HW1 4930   1.190   5.602   1.549
 1628SOL    HW2 4931   1.202   5.444   1.585
 1629SOL     OW 4932   0.351   3.975   1.828
 1629SOL    HW1 4933   0.400   4.057   1.856
 1629SOL    HW2 4934   0.254   3.984   1.853
 1630SOL     OW 4935   1.464   5.145   0.947
 1630SOL    HW1 4936   1.397   5.163   1.019
 1630SOL    HW2 4937   1.457   5.049   0.919
 1631SOL     OW 4938   1.649   5.472   0.580
 1631SOL    HW1 4939   1.628   5.446   0.486
 1631SOL    HW2 4940   1.627   5.396   0.642
 1632SOL     OW 4941   0.600   4.443   0.265
 1632SOL    HW1 4942   0.605   4.533   0.221
 1632SOL    HW2 4943   0.535   4.447   0.341
 1633SOL     OW 4944   1.277   4.080   0.932
 1633SOL    HW1 4945   1.183   4.047   0.940
 1633SOL    HW2 4946   1.336   4.029   0.994
 1634SOL     OW 4947   1.583   5.402   0.317
 1634SOL    HW1 4948   1.681   5.416   0.311
 1634SOL    HW2 4949   1.544   5.398   0.224
 1635SOL     OW 4950   0.790   4.337   1.450
 1635SOL    HW1 4951   0.765   4.313   1.544
 1635SOL    HW2 4952   0.751   4.269   1.387
 1636SOL     OW 4953   1.391   4.194   1.679
 1636SOL    HW1 4954   1.392   4.243   1.766
 1636SOL    HW2 4955   1.453   4.115   1.686
 1637SOL     OW 4956   0.953   4.609   1.582
 1637SOL    HW1 4957   1.011   4.537   1.545
 1637SOL    HW2 4958   0.900   4.651   1.509
 1638SOL     OW 4959   0.994   4.131   1.230
 1638SOL    HW1 4960   0.905   4.154   1.270
 1638SOL    HW2 4961   0.980   4.081   1.145
 1639SOL     OW 4962   1.051   4.424   0.428
 1639SOL    HW1 4963   1.074   4.421   0.525
 1639SOL    HW2 4964   0.965   4.376   0.412
 1640SOL     OW 4965   0.105   4.540   0.772
 1640SOL    HW1 4966   0.196   4.530   0.813
 1640SOL    HW2 4967   0.043   4.582   0.839
 1641SOL     OW 4968   0.121   5.593   1.590
 1641SOL    HW1 4969   0.131   5.567   1.686
 1641SOL    HW2 4970   0.031   5.565   1.557
 1642SOL     OW 4971   0.888   4.067   0.207
 1642SOL    HW1 4972   0.938   4.127   0.145
 1642SOL    HW2 4973   0.903   3.972   0.181
 1643SOL     OW 4974   1.702   4.297   1.826
 1643SOL    HW1 4975   1.666   4.376   1.776
 1643SOL    HW2 4976   1.732   4.227   1.761
 1644SOL     OW 4977   1.381   4.865   0.548
 1644SOL    HW1 4978   1.466   4.856   0.496
 1644SOL    HW2 4979   1.323   4.934   0.503
 1645SOL     OW 4980   0.551   3.903   0.899
 1645SOL    HW1 4981   0.556   3.928   0.996
 1645SOL    HW2 4982   0.559   3.986   0.843
 1646SOL     OW 4983   0.990   5.164   0.471
 1646SOL    HW1 4984   0.959   5.245   0.422
 1646SOL    HW2 4985   0.973   5.177   0.569
 1647SOL     OW 4986   0.358   5.540   0.866
 1647SOL    HW1 4987   0.397   5.448   0.877
 1647SOL    HW2 4988   0.427   5.608   0.890
 1648SOL     OW 4989   1.800   4.779   0.873
 1648SOL    HW1 4990   1.749   4.758   0.789
 1648SOL    HW2 4991   1.736   4.785   0.950
 1649SOL     OW 4992   1.227   5.260   1.514
 1649SOL    HW1 4993   1.214   5.186   1.580
 1649SOL    HW2 4994   1.159   5.252   1.441
 1650SOL     OW 4995   0.310   4.665   0.227
 1650SOL    HW1 4996   0.401   4.687   0.192
 1650SOL    HW2 4997   0.287   4.571   0.201
 1651SOL     OW 4998   1.484   4.469   0.723
 1651SOL    HW1 4999   1.478   4.428   0.814
 1651SOL    HW2 5000   1.563   4.530   0.719
 1652SOL     OW 5001   0.472   4.984   1.728
 1652SOL    HW1 5002   0.444   4.994   1.632
 1652SOL    HW2 5003   0.391   4.986   1.786
 1653SOL     OW 5004   1.119   5.490   0.236
 1653SOL    HW1 5005   1.049   5.445   0.292
 1653SOL    HW2 5006   1.156   5.425   0.170
 1654SOL     OW 5007   0.196   3.993   1.491
 1654SOL    HW1 5008   0.112   4.046   1.474
 1654SOL    HW2 5009   0.173   3.909   1.539
 1655SOL     OW 5010   1.622   5.152   0.073
 1655SOL    HW1 5011   1.583   5.243   0.086
 1655SOL    HW2 5012   1.558   5.083   0.107
 1656SOL     OW 5013   0.482   5.436   0.353
 1656SOL    HW1 5014   0.513   5.511   0.411
 1656SOL    HW2 5015   0.559   5.403   0.297
 1657SOL     OW 5016   1.405   3.830   0.442
 1657SOL    HW1 5017   1.396   3.801   0.347
 1657SOL    HW2 5018   1.501   3.840   0.465
 1658SOL     OW 5019   0.259   5.518   1.224
 1658SOL    HW1 5020   0.310   5.445   1.269
 1658SOL    HW2 5021   0.215   5.483   1.142
 1659SOL     OW 5022   0.936   5.426   0.897
 1659SOL    HW1 5023   1.019   5.378   0.927
 1659SOL    HW2 5024   0.893   5.374   0.824
 1660SOL     OW 5025   0.402   4.411   0.469
 1660SOL    HW1 5026   0.424   4.316   0.488
 1660SOL    HW2 5027   0.305   4.428   0.490
 1661SOL     OW 5028   1.529   3.947   1.728
 1661SOL    HW1 5029   1.540   3.968   1.825
 1661SOL    HW2 5030   1.456   3.879   1.716
 1662SOL     OW 5031   0.764   4.001   1.757
 1662SOL    HW1 5032   0.847   3.947   1.750
 1662SOL    HW2 5033   0.711   3.972   1.837
 1663SOL     OW 5034   0.877   5.240   1.192
 1663SOL    HW1 5035   0.856   5.204   1.101
 1663SOL    HW2 5036   0.949   5.185   1.234
 1664SOL     OW 5037   1.340   4.313   1.435
 1664SOL    HW1 5038   1.370   4.278   1.524
 1664SOL    HW2 5039   1.376   4.405   1.422
 1665SOL     OW 5040   0.819   5.114   0.941
 1665SOL    HW1 5041   0.909   5.102   0.898
 1665SOL    HW2 5042   0.749   5.119   0.870
 1666SOL     OW 5043   0.927   4.230   0.899
 1666SOL    HW1 5044   0.900   4.223   0.803
 1666SOL    HW2 5045   0.960   4.142   0.932
 1667SOL     OW 5046   0.551   3.792   0.502
 1667SOL    HW1 5047   0.470   3.792   0.561
 1667SOL    HW2 5048   0.546   3.868   0.438
 1668SOL     OW 5049   1.419   4.937   0.014
 1668SOL    HW1 5050   1.449   4.856   0.064
 1668SOL    HW2 5051   1.335   4.972   0.054
 1669SOL     OW 5052   0.949   3.974   0.462
 1669SOL    HW1 5053   0.917   4.014   0.376
 1669SOL    HW2 5054   1.047   3.988   0.470
 1670SOL     OW 5055   1.080   4.406   1.456
 1670SOL    HW1 5056   1.005   4.340   1.462
 1670SOL    HW2 5057   1.167   4.358   1.451
 1671SOL     OW 5058   1.219   5.293   0.795
 1671SOL    HW1 5059   1.234   5.362   0.724
 1671SOL    HW2 5060   1.291   5.299   0.864
 1672SOL     OW 5061   0.468   4.875   0.735
 1672SOL    HW1 5062   0.400   4.854   0.805
 1672SOL    HW2 5063   0.429   4.860   0.644
 1673SOL     OW 5064   1.263   5.516   0.609
 1673SOL    HW1 5065   1.317   5.579   0.553
 1673SOL    HW2 5066   1.191   5.567   0.656
 1674SOL     OW 5067   1.063   4.301   0.032
 1674SOL    HW1 5068   0.968   4.326   0.050
 1674SOL    HW2 5069   1.112   4.291   0.119
 1675SOL     OW 5070   0.073   4.276   1.376
 1675SOL    HW1 5071   0.169   4.268   1.347
 1675SOL    HW2 5072   0.066   4.344   1.449
 1676SOL     OW 5073   0.564   3.946   1.170
 1676SOL    HW1 5074   0.614   3.870   1.211
 1676SOL    HW2 5075   0.470   3.945   1.202
 1677SOL     OW 5076   0.864   4.180   0.639
 1677SOL    HW1 5077   0.822   4.244   0.574
 1677SOL    HW2 5078   0.894   4.098   0.591
 1678SOL     OW 5079   1.015   3.776   0.746
 1678SOL    HW1 5080   0.954   3.774   0.666
 1678SOL    HW2 5081   0.993   3.701   0.807
 1679SOL     OW 5082   1.446   4.885   0.860
 1679SOL    HW1 5083   1.369   4.821   0.861
 1679SOL    HW2 5084   1.479   4.897   0.766
 1680SOL     OW 5085   1.468   4.331   0.972
 1680SOL    HW1 5086   1.406   4.252   0.972
 1680SOL    HW2 5087   1.529   4.326   1.051
 1681SOL     OW 5088   1.829   4.529   0.390
 1681SOL    HW1 5089   1.890   4.468   0.442
 1681SOL    HW2 5090   1.823   4.497   0.296
 1682SOL     OW 5091   0.477   5.142   0.172
 1682SOL    HW1 5092   0.435   5.077   0.236
 1682SOL    HW2 5093   0.426   5.141   0.086
 1683SOL     OW 5094   1.671   4.989   0.653
 1683SOL    HW1 5095   1.771   4.988   0.661
 1683SOL    HW2 5096   1.638   5.083   0.666
 1684SOL     OW 5097   1.392   4.278   0.068
 1684SOL    HW1 5098   1.332   4.274   0.148
 1684SOL    HW2 5099   1.455   4.201   0.071
 1685SOL     OW 5100   0.514   3.985   0.314
 1685SOL    HW1 5101   0.518   3.918   0.240
 1685SOL    HW2 5102   0.493   4.075   0.276
 1686SOL     OW 5103   1.753   4.964   1.562
 1686SOL    HW1 5104   1.843   4.922   1.550
 1686SOL    HW2 5105   1.764   5.058   1.596
 1687SOL     OW 5106   1.054   5.074   1.336
 1687SOL    HW1 5107   0.973   5.044   1.386
 1687SOL    HW2 5108   1.135   5.034   1.378
 1688SOL     OW 5109   1.613   5.353   1.657
 1688SOL    HW1 5110   1.598   5.388   1.564
 1688SOL    HW2 5111   1.699   5.302   1.659
 1689SOL     OW 5112   1.136   4.942   1.105
 1689SOL    HW1 5113   1.076   4.976   1.178
 1689SOL    HW2 5114   1.102   4.972   1.016
 1690SOL     OW 5115   1.625   4.821   1.079
 1690SOL    HW1 5116   1.621   4.886   1.155
 1690SOL    HW2 5117   1.549   4.838   1.016
 1691SOL     OW 5118   0.923   3.819   1.392
 1691SOL    HW1 5119   0.944   3.796   1.297
 1691SOL    HW2 5120   1.002   3.862   1.434
 1692SOL     OW 5121   0.980   4.838   1.721
 1692SOL    HW1 5122   0.886   4.858   1.748
 1692SOL    HW2 5123   0.982   4.756   1.664
 1693SOL     OW 5124   0.713   4.782   0.376
 1693SOL    HW1 5125   0.695   4.765   0.473
 1693SOL    HW2 5126   0.793   4.728   0.347
 1694SOL     OW 5127   0.429   4.529   1.249
 1694SOL    HW1 5128   0.498   4.545   1.318
 1694SOL    HW2 5129   0.386   4.440   1.264
 1695SOL     OW 5130   1.263   4.101   1.280
 1695SOL    HW1 5131   1.300   4.180   1.328
 1695SOL    HW2 5132   1.168   4.118   1.255
 1696SOL     OW 5133   0.068   5.290   1.318
 1696SOL    HW1 5134   0.017   5.375   1.334
 1696SOL    HW2 5135   0.164   5.304   1.340
 1697SOL     OW 5136   0.355   4.824   0.494
 1697SOL    HW1 5137   0.336   4.899   0.430
 1697SOL    HW2 5138   0.361   4.738   0.443
 1698SOL     OW 5139   0.550   4.265   0.859
 1698SOL    HW1 5140   0.564   4.326   0.781
 1698SOL    HW2 5141   0.617   4.286   0.930
 1699SOL     OW 5142   1.237   5.067   0.408
 1699SOL    HW1 5143   1.300   5.141   0.432
 1699SOL    HW2 5144   1.145   5.092   0.437
 1700SOL     OW 5145   1.286   5.185   1.147
 1700SOL    HW1 5146   1.345   5.191   1.228
 1700SOL    HW2 5147   1.232   5.102   1.151
 1701SOL     OW 5148   1.587   4.354   0.478
 1701SOL    HW1 5149   1.529   4.394   0.549
 1701SOL    HW2 5150   1.642   4.425   0.436
 1702SOL     OW 5151   0.351   5.257   1.310
 1702SOL    HW1 5152   0.331   5.210   1.224
 1702SOL    HW2 5153   0.450   5.269   1.319
 1703SOL     OW 5154   0.423   4.459   1.598
 1703SOL    HW1 5155   0.484   4.512   1.538
 1703SOL    HW2 5156   0.466   4.373   1.622
 1704SOL     OW 5157   1.608   4.509   1.684
 1704SOL    HW1 5158   1.517   4.550   1.682
 1704SOL    HW2 5159   1.665   4.549   1.612
 1705SOL     OW 5160   0.997   3.857   1.750
 1705SOL    HW1 5161   1.055   3.936   1.734
 1705SOL    HW2 5162   1.046   3.774   1.724
 1706SOL     OW 5163   0.496   3.760   1.749
 1706SOL    HW1 5164   0.450   3.703   1.680
 1706SOL    HW2 5165   0.439   3.840   1.768
 1707SOL     OW 5166   0.587   4.594   1.032
 1707SOL    HW1 5167   0.618   4.689   1.028
 1707SOL    HW2 5168   0.527   4.583   1.112
 1708SOL     OW 5169   1.353   4.581   1.026
 1708SOL    HW1 5170   1.264   4.574   0.982
 1708SOL    HW2 5171   1.401   4.493   1.017
 1709SOL     OW 5172   1.197   4.247   0.273
 1709SOL    HW1 5173   1.215   4.168   0.332
 1709SOL    HW2 5174   1.158   4.321   0.328
 1710SOL     OW 5175   0.308   3.920   1.246
 1710SOL    HW1 5176   0.269   3.956   1.330
 1710SOL    HW2 5177   0.291   3.822   1.240
 1711SOL     OW 5178   0.096   5.031   1.264
 1711SOL    HW1 5179   0.104   4.969   1.341
 1711SOL    HW2 5180   0.086   5.125   1.297
 1712SOL     OW 5181   0.722   4.353   1.054
 1712SOL    HW1 5182   0.801   4.334   0.995
 1712SOL    HW2 5183   0.689   4.446   1.036
 1713SOL     OW 5184   1.735   4.684   1.855
 1713SOL    HW1 5185   1.692   4.616   1.796
 1713SOL    HW2 5186   1.676   4.703   1.933
 1714SOL     OW 5187   0.310   3.797   0.631
 1714SOL    HW1 5188   0.288   3.892   0.655
 1714SOL    HW2 5189   0.320   3.744   0.715
 1715SOL     OW 5190   1.629   4.106   0.369
 1715SOL    HW1 5191   1.645   4.034   0.437
 1715SOL    HW2 5192   1.602   4.190   0.416
 1716SOL     OW 5193   1.023   4.479   0.958
 1716SOL    HW1 5194   1.019   4.501   1.056
 1716SOL    HW2 5195   0.996   4.383   0.945
 1717SOL     OW 5196   0.983   5.287   1.717
 1717SOL    HW1 5197   0.965   5.335   1.630
 1717SOL    HW2 5198   1.030   5.201   1.699
 1718SOL     OW 5199   1.855   5.228   1.604
 1718SOL    HW1 5200   1.873   5.254   1.509
 1718SOL    HW2 5201   1.938   5.240   1.658
 1719SOL     OW 5202   0.365   4.641   1.798
 1719SOL    HW1 5203   0.442   4.666   1.857
 1719SOL    HW2 5204   0.393   4.573   1.731
 1720SOL     OW 5205   1.493   4.015   0.146
 1720SOL    HW1 5206   1.451   3.926   0.159
 1720SOL    HW2 5207   1.545   4.041   0.228
 1721SOL     OW 5208   1.292   4.545   0.033
 1721SOL    HW1 5209   1.340   4.458   0.024
 1721SOL    HW2 5210   1.319   4.605   6.958
 1722SOL     OW 5211   1.069   5.061   0.854
 1722SOL    HW1 5212   1.073   4.983   0.792
 1722SOL    HW2 5213   1.129   5.134   0.820
 1723SOL     OW 5214   0.321   4.524   0.941
 1723SOL    HW1 5215   0.417   4.550   0.943
 1723SOL    HW2 5216   0.310   4.433   0.982
 1724SOL     OW 5217   0.332   4.244   1.014
 1724SOL    HW1 5218   0.293   4.153   0.999
 1724SOL    HW2 5219   0.411   4.256   0.954
 1725SOL     OW 5220   1.134   4.097   1.691
 1725SOL    HW1 5221   1.081   4.154   1.754
 1725SOL    HW2 5222   1.226   4.134   1.683
 1726SOL     OW 5223   1.161   3.928   1.475
 1726SOL    HW1 5224   1.147   3.990   1.552
 1726SOL    HW2 5225   1.204   3.977   1.399
 1727SOL     OW 5226   6.994   5.023   0.221
 1727SOL    HW1 5227   6.924   5.047   0.289
 1727SOL    HW2 5228   0.025   4.930   0.237
 1728SOL     OW 5229   0.097   5.483   0.948
 1728SOL    HW1 5230   0.075   5.410   0.884
 1728SOL    HW2 5231   0.184   5.525   0.922
 1729SOL     OW 5232   0.494   5.301   0.904
 1729SOL    HW1 5233   0.564   5.367   0.931
 1729SOL    HW2 5234   0.535   5.232   0.844
 1730SOL     OW 5235   0.976   4.517   1.225
 1730SOL    HW1 5236   1.037   4.494   1.300
 1730SOL    HW2 5237   0.886   4.477   1.240
 1731SOL     OW 5238   0.050   4.330   1.106
 1731SOL    HW1 5239   0.124   4.281   1.061
 1731SOL    HW2 5240   0.050   4.310   1.204
 1732SOL     OW 5241   0.210   4.236   1.723
 1732SOL    HW1 5242   0.284   4.190   1.675
 1732SOL    HW2 5243   0.188   4.321   1.677
 1733SOL     OW 5244   1.380   4.660   1.655
 1733SOL    HW1 5245   1.403   4.757   1.656
 1733SOL    HW2 5246   1.376   4.627   1.560
 1734SOL     OW 5247   0.817   4.292   0.371
 1734SOL    HW1 5248   0.826   4.215   0.308
 1734SOL    HW2 5249   0.740   4.350   0.341
 1735SOL     OW 5250   1.643   4.327   1.182
 1735SOL    HW1 5251   1.626   4.267   1.260
 1735SOL    HW2 5252   1.734   4.309   1.145
 1736SOL     OW 5253   0.285   5.284   1.740
 1736SOL    HW1 5254   0.229   5.351   1.789
 1736SOL    HW2 5255   0.265   5.193   1.776
 1737SOL     OW 5256   0.705   4.173   1.254
 1737SOL    HW1 5257   0.651   4.093   1.229
 1737SOL    HW2 5258   0.702   4.240   1.180
 1738SOL     OW 5259   0.922   5.405   1.470
 1738SOL    HW1 5260   0.895   5.359   1.386
 1738SOL    HW2 5261   0.920   5.504   1.457
 1739SOL     OW 5262   0.462   4.220   0.194
 1739SOL    HW1 5263   0.521   4.298   0.213
 1739SOL    HW2 5264   0.366   4.248   0.195
 1740SOL     OW 5265   0.166   4.847   1.469
 1740SOL    HW1 5266   0.155   4.786   1.548
 1740SOL    HW2 5267   0.180   4.793   1.387
 1741SOL     OW 5268   1.316   4.768   1.220
 1741SOL    HW1 5269   1.344   4.700   1.152
 1741SOL    HW2 5270   1.248   4.829   1.179
 1742SOL     OW 5271   1.301   4.569   0.307
 1742SOL    HW1 5272   1.219   4.542   0.357
 1742SOL    HW2 5273   1.288   4.550   0.209
 1743SOL     OW 5274   1.780   5.455   1.156
 1743SOL    HW1 5275   1.841   5.489   1.085
 1743SOL    HW2 5276   1.749   5.363   1.132
 1744SOL     OW 5277   1.242   5.457   1.107
 1744SOL    HW1 5278   1.327   5.486   1.063
 1744SOL    HW2 5279   1.246   5.360   1.130
 1745SOL     OW 5280   0.071   4.970   1.005
 1745SOL    HW1 5281   0.089   4.990   1.102
 1745SOL    HW2 5282   6.973   4.954   0.991
 1746SOL     OW 5283   0.681   5.397   1.736
 1746SOL    HW1 5284   0.617   5.474   1.732
 1746SOL    HW2 5285   0.752   5.409   1.666
 1747SOL     OW 5286   0.938   3.803   0.112
 1747SOL    HW1 5287   1.009   3.856   0.066
 1747SOL    HW2 5288   0.980   3.743   0.180
 1748SOL     OW 5289   1.703   3.874   0.510
 1748SOL    HW1 5290   1.784   3.874   0.451
 1748SOL    HW2 5291   1.693   3.785   0.553
 1749SOL     OW 5292   1.389   5.290   0.490
 1749SOL    HW1 5293   1.455   5.316   0.420
 1749SOL    HW2 5294   1.339   5.371   0.520
 1750SOL     OW 5295   0.139   5.510   1.852
 1750SOL    HW1 5296   0.094   5.436   1.903
 1750SOL    HW2 5297   0.194   5.565   1.915
 1751SOL     OW 5298   1.282   4.647   0.669
 1751SOL    HW1 5299   1.357   4.582   0.683
 1751SOL    HW2 5300   1.316   4.726   0.617
 1752SOL     OW 5301   0.805   5.002   1.427
 1752SOL    HW1 5302   0.776   5.045   1.512
 1752SOL    HW2 5303   0.735   5.018   1.357
 1753SOL     OW 5304   0.674   5.328   0.192
 1753SOL    HW1 5305   0.681   5.373   0.103
 1753SOL    HW2 5306   0.616   5.247   0.183
 1754SOL     OW 5307   1.618   5.452   1.387
 1754SOL    HW1 5308   1.675   5.453   1.305
 1754SOL    HW2 5309   1.603   5.546   1.419
 1755SOL     OW 5310   1.842   3.894   0.963
 1755SOL    HW1 5311   1.876   3.802   0.941
 1755SOL    HW2 5312   1.751   3.906   0.925
 1756SOL     OW 5313   0.261   4.048   0.717
 1756SOL    HW1 5314   0.182   4.106   0.696
 1756SOL    HW2 5315   0.262   4.028   0.815
 1757SOL     OW 5316   1.217   5.320   0.036
 1757SOL    HW1 5317   1.211   5.226   0.069
 1757SOL    HW2 5318   1.131   5.346   6.993
 1758SOL     OW 5319   0.824   4.734   1.378
 1758SOL    HW1 5320   0.873   4.719   1.292
 1758SOL    HW2 5321   0.820   4.832   1.398
 1759SOL     OW 5322   0.922   4.636   0.293
 1759SOL    HW1 5323   0.978   4.666   0.215
 1759SOL    HW2 5324   0.971   4.565   0.343
 1760SOL     OW 5325   1.480   5.393   0.048
 1760SOL    HW1 5326   1.384   5.365   0.041
 1760SOL    HW2 5327   1.523   5.385   6.958
 1761SOL     OW 5328   0.373   5.030   1.486
 1761SOL    HW1 5329   0.359   5.112   1.429
 1761SOL    HW2 5330   0.302   4.963   1.464
 1762SOL     OW 5331   1.614   5.008   1.284
 1762SOL    HW1 5332   1.677   4.989   1.360
 1762SOL    HW2 5333   1.548   5.078   1.312
 1763SOL     OW 5334   1.060   4.830   0.714
 1763SOL    HW1 5335   0.984   4.780   0.755
 1763SOL    HW2 5336   1.127   4.765   0.679
 1764SOL     OW 5337   1.022   3.963   0.967
 1764SOL    HW1 5338   1.017   3.918   0.877
 1764SOL    HW2 5339   1.020   3.893   1.039
 1765SOL     OW 5340   0.611   5.206   0.483
 1765SOL    HW1 5341   0.653   5.154   0.409
 1765SOL    HW2 5342   0.539   5.266   0.446
 1766SOL     OW 5343   1.731   4.118   1.381
 1766SOL    HW1 5344   1.803   4.186   1.381
 1766SOL    HW2 5345   1.756   4.042   1.320
 1767SOL     OW 5346   0.284   5.024   0.331
 1767SOL    HW1 5347   0.198   5.026   0.280
 1767SOL    HW2 5348   0.279   5.090   0.407
 1768SOL     OW 5349   0.120   4.698   1.702
 1768SOL    HW1 5350   0.066   4.748   1.769
 1768SOL    HW2 5351   0.211   4.680   1.740
 1769SOL     OW 5352   0.682   3.920   1.499
 1769SOL    HW1 5353   0.769   3.895   1.455
 1769SOL    HW2 5354   0.700   3.952   1.592
 1770SOL     OW 5355   0.062   4.102   0.021
 1770SOL    HW1 5356   6.971   4.091   6.981
 1770SOL    HW2 5357   0.123   4.143   6.954
 1771SOL     OW 5358   1.424   4.581   1.395
 1771SOL    HW1 5359   1.369   4.645   1.342
 1771SOL    HW2 5360   1.518   4.582   1.362
 1772SOL     OW 5361   0.029   3.912   0.354
 1772SOL    HW1 5362   0.063   4.000   0.321
 1772SOL    HW2 5363   0.105   3.850   0.373
 1773SOL     OW 5364   1.187   5.068   0.130
 1773SOL    HW1 5365   1.089   5.051   0.115
 1773SOL    HW2 5366   1.208   5.060   0.227
 1774SOL     OW 5367   0.624   4.554   1.434
 1774SOL    HW1 5368   0.680   4.636   1.419
 1774SOL    HW2 5369   0.683   4.474   1.444
 1775SOL     OW 5370   1.485   5.511   0.988
 1775SOL    HW1 5371   1.507   5.571   0.911
 1775SOL    HW2 5372   1.570   5.476   1.027
 1776SOL     OW 5373   0.719   4.283   1.704
 1776SOL    HW1 5374   0.764   4.351   1.762
 1776SOL    HW2 5375   0.740   4.191   1.736
 1777SOL     OW 5376   1.473   4.921   1.635
 1777SOL    HW1 5377   1.458   4.934   1.733
 1777SOL    HW2 5378   1.569   4.939   1.613
 1778SOL     OW 5379   0.372   5.469   1.563
 1778SOL    HW1 5380   0.285   5.516   1.548
 1778SOL    HW2 5381   0.356   5.385   1.615
 1779SOL     OW 5382   1.666   4.602   1.256
 1779SOL    HW1 5383   1.661   4.511   1.214
 1779SOL    HW2 5384   1.654   4.672   1.185
 1780SOL     OW 5385   1.222   4.038   0.461
 1780SOL    HW1 5386   1.286   3.963   0.452
 1780SOL    HW2 5387   1.246   4.094   0.540
 1781SOL     OW 5388   0.589   4.460   0.666
 1781SOL    HW1 5389   0.629   4.551   0.661
 1781SOL    HW2 5390   0.518   4.450   0.596
 1782SOL     OW 5391   1.751   4.089   1.652
 1782SOL    HW1 5392   1.741   4.105   1.554
 1782SOL    HW2 5393   1.678   4.029   1.684
 1783SOL     OW 5394   1.752   4.656   1.510
 1783SOL    HW1 5395   1.741   4.753   1.531
 1783SOL    HW2 5396   1.731   4.641   1.413
 1784SOL     OW 5397   0.902   5.106   0.051
 1784SOL    HW1 5398   0.839   5.082   0.125
 1784SOL    HW2 5399   0.905   5.206   0.042
 1785SOL     OW 5400   0.665   5.512   0.942
 1785SOL    HW1 5401   0.644   5.606   0.919
 1785SOL    HW2 5402   0.764   5.496   0.932
 1786SOL     OW 5403   0.869   4.694   0.857
 1786SOL    HW1 5404   0.920   4.616   0.893
 1786SOL    HW2 5405   0.827   4.745   0.932
 1787SOL     OW 5406   1.081   4.708   0.081
 1787SOL    HW1 5407   1.079   4.766   6.999
 1787SOL    HW2 5408   1.159   4.646   0.076
 1788SOL     OW 5409   1.846   5.281   0.846
 1788SOL    HW1 5410   1.770   5.268   0.783
 1788SOL    HW2 5411   1.846   5.209   0.915
 1789SOL     OW 5412   0.242   5.032   1.865
 1789SOL    HW1 5413   0.151   4.999   1.842
 1789SOL    HW2 5414   0.251   5.042   1.964
 1790SOL     OW 5415   0.148   4.999   0.691
 1790SOL    HW1 5416   0.095   4.953   0.763
 1790SOL    HW2 5417   0.183   4.931   0.627
 1791SOL     OW 5418   0.685   5.133   1.635
 1791SOL    HW1 5419   0.604   5.082   1.663
 1791SOL    HW2 5420   0.681   5.226   1.671
 1792SOL     OW 5421   1.805   3.907   1.234
 1792SOL    HW1 5422   1.819   3.811   1.258
 1792SOL    HW2 5423   1.818   3.919   1.135
 1793SOL     OW 5424   0.439   4.153   0.528
 1793SOL    HW1 5425   0.484   4.081   0.475
 1793SOL    HW2 5426   0.399   4.114   0.611
 1794SOL     OW 5427   1.692   5.208   1.096
 1794SOL    HW1 5428   1.612   5.190   1.039
 1794SOL    HW2 5429   1.702   5.136   1.164
 1795SOL     OW 5430   0.331   4.276   1.291
 1795SOL    HW1 5431   0.388   4.220   1.352
 1795SOL    HW2 5432   0.348   4.249   1.196
 1796SOL     OW 5433   0.827   5.303   0.681
 1796SOL    HW1 5434   0.815   5.361   0.600
 1796SOL    HW2 5435   0.750   5.240   0.688
 1797SOL     OW 5436   1.431   3.954   1.117
 1797SOL    HW1 5437   1.453   3.864   1.154
 1797SOL    HW2 5438   1.376   4.006   1.183
 1798SOL     OW 5439   1.010   3.740   1.138
 1798SOL    HW1 5440   0.946   3.676   1.096
 1798SOL    HW2 5441   1.101   3.700   1.140
 1799SOL     OW 5442   0.781   5.043   0.310
 1799SOL    HW1 5443   0.749   4.951   0.329
 1799SOL    HW2 5444   0.859   5.064   0.368
 1800SOL     OW 5445   0.626   5.282   1.289
 1800SOL    HW1 5446   0.623   5.369   1.339
 1800SOL    HW2 5447   0.716   5.271   1.248
 1801SOL     OW 5448   1.360   3.768   0.180
 1801SOL    HW1 5449   1.403   3.707   0.114
 1801SOL    HW2 5450   1.266   3.738   0.197
 1802SOL     OW 5451   1.289   4.187   0.680
 1802SOL    HW1 5452   1.238   4.273   0.683
 1802SOL    HW2 5453   1.288   4.144   0.771
 1803SOL     OW 5454   1.587   3.928   0.883
 1803SOL    HW1 5455   1.528   3.947   0.962
 1803SOL    HW2 5456   1.588   4.008   0.823
 1804SOL     OW 5457   0.075   4.778   0.311
 1804SOL    HW1 5458   0.166   4.737   0.300
 1804SOL    HW2 5459   0.006   4.706   0.312
 1805SOL     OW 5460   0.889   5.387   0.353
 1805SOL    HW1 5461   0.814   5.358   0.293
 1805SOL    HW2 5462   0.861   5.466   0.407
 1806SOL     OW 5463   0.187   4.377   1.982
 1806SOL    HW1 5464   0.175   4.311   2.056
 1806SOL    HW2 5465   0.227   4.331   1.903
 1807SOL     OW 5466   0.231   3.995   2.849
 1807SOL    HW1 5467   0.281   3.963   2.929
 1807SOL    HW2 5468   0.133   3.978   2.863
 1808SOL     OW 5469   6.990   4.109   2.515
 1808SOL    HW1 5470   6.942   4.106   2.603
 1808SOL    HW2 5471   0.011   4.016   2.485
 1809SOL     OW 5472   0.569   5.020   3.047
 1809SOL    HW1 5473   0.479   5.017   3.004
 1809SOL    HW2 5474   0.587   5.112   3.082
 1810SOL     OW 5475   1.564   5.237   2.570
 1810SOL    HW1 5476   1.521   5.213   2.657
 1810SOL    HW2 5477   1.493   5.244   2.499
 1811SOL     OW 5478   1.133   4.426   2.557
 1811SOL    HW1 5479   1.185   4.510   2.541
 1811SOL    HW2 5480   1.083   4.434   2.643
 1812SOL     OW 5481   1.769   4.324   2.085
 1812SOL    HW1 5482   1.746   4.320   1.988
 1812SOL    HW2 5483   1.731   4.245   2.132
 1813SOL     OW 5484   0.745   4.865   2.902
 1813SOL    HW1 5485   0.676   4.900   2.966
 1813SOL    HW2 5486   0.789   4.943   2.856
 1814SOL     OW 5487   0.873   4.491   3.683
 1814SOL    HW1 5488   0.862   4.560   3.755
 1814SOL    HW2 5489   0.897   4.536   3.597
 1815SOL     OW 5490   0.683   4.725   2.512
 1815SOL    HW1 5491   0.755   4.714   2.581
 1815SOL    HW2 5492   0.608   4.780   2.550
 1816SOL     OW 5493   0.713   4.877   3.680
 1816SOL    HW1 5494   0.765   4.955   3.713
 1816SOL    HW2 5495   0.628   4.908   3.638
 1817SOL     OW 5496   0.333   5.145   2.927
 1817SOL    HW1 5497   0.254   5.106   2.879
 1817SOL    HW2 5498   0.385   5.203   2.864
 1818SOL     OW 5499   1.458   5.225   3.219
 1818SOL    HW1 5500   1.515   5.307   3.227
 1818SOL    HW2 5501   1.388   5.227   3.290
 1819SOL     OW 5502   0.443   4.120   3.356
 1819SOL    HW1 5503   0.525   4.063   3.356
 1819SOL    HW2 5504   0.362   4.061   3.364
 1820SOL     OW 5505   1.611   4.170   2.606
 1820SOL    HW1 5506   1.535   4.188   2.544
 1820SOL    HW2 5507   1.620   4.246   2.671
 1821SOL     OW 5508   0.226   5.434   2.328
 1821SOL    HW1 5509   0.240   5.513   2.387
 1821SOL    HW2 5510   0.297   5.430   2.259
 1822SOL     OW 5511   1.137   5.064   3.559
 1822SOL    HW1 5512   1.183   5.062   3.648
 1822SOL    HW2 5513   1.081   4.981   3.549
 1823SOL     OW 5514   0.275   5.166   2.382
 1823SOL    HW1 5515   0.252   5.263   2.389
 1823SOL    HW2 5516   0.225   5.115   2.452
 1824SOL     OW 5517   0.268   4.806   2.768
 1824SOL    HW1 5518   0.264   4.711   2.798
 1824SOL    HW2 5519   0.197   4.859   2.815
 1825SOL     OW 5520   0.603   5.520   3.290
 1825SOL    HW1 5521   0.517   5.496   3.336
 1825SOL    HW2 5522   0.632   5.611   3.317
 1826SOL     OW 5523   0.582   4.711   2.002
 1826SOL    HW1 5524   0.629   4.759   1.928
 1826SOL    HW2 5525   0.621   4.739   2.090
 1827SOL     OW 5526   1.589   3.862   3.251
 1827SOL    HW1 5527   1.610   3.955   3.218
 1827SOL    HW2 5528   1.559   3.867   3.346
 1828SOL     OW 5529   0.131   4.340   2.436
 1828SOL    HW1 5530   0.063   4.271   2.459
 1828SOL    HW2 5531   0.121   4.419   2.497
 1829SOL     OW 5532   1.846   5.480   2.195
 1829SOL    HW1 5533   1.915   5.449   2.260
 1829SOL    HW2 5534   1.862   5.576   2.171
 1830SOL     OW 5535   0.037   5.317   2.009
 1830SOL    HW1 5536   0.027   5.218   2.021
 1830SOL    HW2 5537   6.962   5.364   2.056
 1831SOL     OW 5538   1.691   4.645   2.508
 1831SOL    HW1 5539   1.775   4.594   2.490
 1831SOL    HW2 5540   1.667   4.699   2.428
 1832SOL     OW 5541   1.652   4.829   2.294
 1832SOL    HW1 5542   1.741   4.827   2.248
 1832SOL    HW2 5543   1.654   4.896   2.368
 1833SOL     OW 5544   0.145   4.455   3.442
 1833SOL    HW1 5545   0.243   4.462   3.427
 1833SOL    HW2 5546   0.109   4.543   3.474
 1834SOL     OW 5547   0.612   5.114   2.597
 1834SOL    HW1 5548   0.564   5.027   2.610
 1834SOL    HW2 5549   0.599   5.144   2.502
 1835SOL     OW 5550   1.289   4.959   3.284
 1835SOL    HW1 5551   1.316   4.889   3.218
 1835SOL    HW2 5552   1.348   4.955   3.364
 1836SOL     OW 5553   0.816   3.732   2.369
 1836SOL    HW1 5554   0.862   3.818   2.348
 1836SOL    HW2 5555   0.718   3.748   2.378
 1837SOL     OW 5556   0.205   4.686   3.124
 1837SOL    HW1 5557   0.288   4.632   3.108
 1837SOL    HW2 5558   0.132   4.654   3.063
 1838SOL     OW 5559   1.532   4.723   2.066
 1838SOL    HW1 5560   1.458   4.663   2.095
 1838SOL    HW2 5561   1.578   4.761   2.146
 1839SOL     OW 5562   1.183   5.535   3.484
 1839SOL    HW1 5563   1.190   5.603   3.411
 1839SOL    HW2 5564   1.202   5.444   3.447
 1840SOL     OW 5565   0.346   3.982   3.692
 1840SOL    HW1 5566   0.396   4.064   3.720
 1840SOL    HW2 5567   0.250   3.991   3.719
 1841SOL     OW 5568   1.465   5.144   2.810
 1841SOL    HW1 5569   1.398   5.163   2.881
 1841SOL    HW2 5570   1.457   5.048   2.781
 1842SOL     OW 5571   1.651   5.471   2.438
 1842SOL    HW1 5572   1.633   5.443   2.344
 1842SOL    HW2 5573   1.629   5.396   2.500
 1843SOL     OW 5574   0.590   4.441   2.128
 1843SOL    HW1 5575   0.600   4.529   2.080
 1843SOL    HW2 5576   0.526   4.452   2.204
 1844SOL     OW 5577   1.278   4.079   2.795
 1844SOL    HW1 5578   1.184   4.046   2.803
 1844SOL    HW2 5579   1.337   4.027   2.857
 1845SOL     OW 5580   1.583   5.396   2.170
 1845SOL    HW1 5581   1.679   5.425   2.166
 1845SOL    HW2 5582   1.550   5.379   2.077
 1846SOL     OW 5583   0.793   4.336   3.312
 1846SOL    HW1 5584   0.765   4.315   3.405
 1846SOL    HW2 5585   0.752   4.270   3.249
 1847SOL     OW 5586   1.397   4.197   3.547
 1847SOL    HW1 5587   1.386   4.246   3.634
 1847SOL    HW2 5588   1.483   4.146   3.548
 1848SOL     OW 5589   0.953   4.609   3.445
 1848SOL    HW1 5590   1.011   4.537   3.407
 1848SOL    HW2 5591   0.899   4.651   3.372
 1849SOL     OW 5592   0.998   4.143   3.082
 1849SOL    HW1 5593   0.913   4.156   3.132
 1849SOL    HW2 5594   0.983   4.078   3.007
 1850SOL     OW 5595   1.049   4.423   2.287
 1850SOL    HW1 5596   1.071   4.418   2.385
 1850SOL    HW2 5597   0.963   4.375   2.269
 1851SOL     OW 5598   0.102   4.543   2.636
 1851SOL    HW1 5599   0.194   4.531   2.673
 1851SOL    HW2 5600   0.042   4.579   2.708
 1852SOL     OW 5601   0.121   5.593   3.452
 1852SOL    HW1 5602   0.131   5.567   3.548
 1852SOL    HW2 5603   0.031   5.565   3.419
 1853SOL     OW 5604   0.896   4.076   2.059
 1853SOL    HW1 5605   0.936   4.143   1.996
 1853SOL    HW2 5606   0.904   3.985   2.019
 1854SOL     OW 5607   1.707   4.303   3.689
 1854SOL    HW1 5608   1.668   4.383   3.642
 1854SOL    HW2 5609   1.723   4.230   3.622
 1855SOL     OW 5610   1.379   4.867   2.397
 1855SOL    HW1 5611   1.463   4.851   2.345
 1855SOL    HW2 5612   1.323   4.934   2.349
 1856SOL     OW 5613   0.549   3.900   2.760
 1856SOL    HW1 5614   0.556   3.929   2.856
 1856SOL    HW2 5615   0.555   3.981   2.701
 1857SOL     OW 5616   0.996   5.167   2.327
 1857SOL    HW1 5617   0.963   5.247   2.277
 1857SOL    HW2 5618   0.980   5.180   2.424
 1858SOL     OW 5619   0.357   5.542   2.728
 1858SOL    HW1 5620   0.397   5.451   2.739
 1858SOL    HW2 5621   0.426   5.612   2.749
 1859SOL     OW 5622   1.798   4.781   2.733
 1859SOL    HW1 5623   1.747   4.758   2.651
 1859SOL    HW2 5624   1.735   4.787   2.811
 1860SOL     OW 5625   1.227   5.260   3.376
 1860SOL    HW1 5626   1.214   5.186   3.442
 1860SOL    HW2 5627   1.158   5.253   3.303
 1861SOL     OW 5628   0.318   4.670   2.112
 1861SOL    HW1 5629   0.405   4.695   2.070
 1861SOL    HW2 5630   0.287   4.582   2.075
 1862SOL     OW 5631   1.483   4.473   2.585
 1862SOL    HW1 5632   1.475   4.428   2.674
 1862SOL    HW2 5633   1.563   4.532   2.584
 1863SOL     OW 5634   0.472   4.984   3.590
 1863SOL    HW1 5635   0.444   4.994   3.494
 1863SOL    HW2 5636   0.391   4.986   3.648
 1864SOL     OW 5637   1.122   5.500   2.089
 1864SOL    HW1 5638   1.043   5.462   2.137
 1864SOL    HW2 5639   1.151   5.436   2.018
 1865SOL     OW 5640   0.196   3.994   3.352
 1865SOL    HW1 5641   0.113   4.047   3.335
 1865SOL    HW2 5642   0.172   3.910   3.401
 1866SOL     OW 5643   1.625   5.106   1.950
 1866SOL    HW1 5644   1.586   5.197   1.934
 1866SOL    HW2 5645   1.556   5.036   1.931
 1867SOL     OW 5646   0.468   5.458   2.180
 1867SOL    HW1 5647   0.509   5.520   2.247
 1867SOL    HW2 5648   0.540   5.423   2.120
 1868SOL     OW 5649   1.401   3.828   2.297
 1868SOL    HW1 5650   1.389   3.803   2.202
 1868SOL    HW2 5651   1.499   3.837   2.317
 1869SOL     OW 5652   0.259   5.518   3.086
 1869SOL    HW1 5653   0.309   5.445   3.131
 1869SOL    HW2 5654   0.216   5.483   3.003
 1870SOL     OW 5655   0.936   5.426   2.758
 1870SOL    HW1 5656   1.017   5.378   2.790
 1870SOL    HW2 5657   0.893   5.374   2.684
 1871SOL     OW 5658   0.400   4.407   2.336
 1871SOL    HW1 5659   0.429   4.314   2.357
 1871SOL    HW2 5660   0.303   4.418   2.356
 1872SOL     OW 5661   0.641   3.841   1.964
 1872SOL    HW1 5662   0.710   3.772   1.985
 1872SOL    HW2 5663   0.584   3.810   1.888
 1873SOL     OW 5664   0.739   4.016   3.620
 1873SOL    HW1 5665   0.831   3.977   3.627
 1873SOL    HW2 5666   0.685   3.989   3.699
 1874SOL     OW 5667   0.877   5.240   3.054
 1874SOL    HW1 5668   0.856   5.203   2.963
 1874SOL    HW2 5669   0.948   5.185   3.096
 1875SOL     OW 5670   1.342   4.313   3.300
 1875SOL    HW1 5671   1.370   4.280   3.390
 1875SOL    HW2 5672   1.375   4.407   3.287
 1876SOL     OW 5673   0.820   5.114   2.803
 1876SOL    HW1 5674   0.909   5.102   2.760
 1876SOL    HW2 5675   0.749   5.119   2.732
 1877SOL     OW 5676   0.927   4.233   2.760
 1877SOL    HW1 5677   0.901   4.223   2.664
 1877SOL    HW2 5678   0.959   4.145   2.795
 1878SOL     OW 5679   0.546   3.788   2.358
 1878SOL    HW1 5680   0.464   3.784   2.415
 1878SOL    HW2 5681   0.542   3.868   2.299
 1879SOL     OW 5682   1.426   4.923   1.905
 1879SOL    HW1 5683   1.459   4.845   1.958
 1879SOL    HW2 5684   1.337   4.952   1.941
 1880SOL     OW 5685   0.292   3.766   2.049
 1880SOL    HW1 5686   0.341   3.847   2.017
 1880SOL    HW2 5687   0.356   3.701   2.088
 1881SOL     OW 5688   0.945   3.974   2.319
 1881SOL    HW1 5689   0.914   4.016   2.234
 1881SOL    HW2 5690   1.044   3.988   2.328
 1882SOL     OW 5691   1.079   4.406   3.318
 1882SOL    HW1 5692   1.002   4.343   3.321
 1882SOL    HW2 5693   1.165   4.355   3.314
 1883SOL     OW 5694   1.221   5.293   2.656
 1883SOL    HW1 5695   1.235   5.363   2.586
 1883SOL    HW2 5696   1.291   5.302   2.726
 1884SOL     OW 5697   0.467   4.874   2.595
 1884SOL    HW1 5698   0.400   4.853   2.667
 1884SOL    HW2 5699   0.425   4.861   2.505
 1885SOL     OW 5700   1.264   5.516   2.472
 1885SOL    HW1 5701   1.315   5.578   2.413
 1885SOL    HW2 5702   1.191   5.566   2.518
 1886SOL     OW 5703   1.021   4.261   1.891
 1886SOL    HW1 5704   0.976   4.347   1.867
 1886SOL    HW2 5705   1.090   4.278   1.961
 1887SOL     OW 5706   0.074   4.275   3.238
 1887SOL    HW1 5707   0.169   4.268   3.209
 1887SOL    HW2 5708   0.066   4.344   3.310
 1888SOL     OW 5709   0.565   3.949   3.031
 1888SOL    HW1 5710   0.618   3.876   3.073
 1888SOL    HW2 5711   0.470   3.944   3.064
 1889SOL     OW 5712   0.866   4.182   2.499
 1889SOL    HW1 5713   0.816   4.243   2.438
 1889SOL    HW2 5714   0.894   4.100   2.449
 1890SOL     OW 5715   1.018   3.776   2.607
 1890SOL    HW1 5716   0.957   3.776   2.529
 1890SOL    HW2 5717   0.993   3.701   2.669
 1891SOL     OW 5718   1.445   4.885   2.720
 1891SOL    HW1 5719   1.368   4.820   2.724
 1891SOL    HW2 5720   1.473   4.897   2.625
 1892SOL     OW 5721   1.467   4.331   2.833
 1892SOL    HW1 5722   1.405   4.252   2.833
 1892SOL    HW2 5723   1.528   4.326   2.911
 1893SOL     OW 5724   1.843   4.534   2.242
 1893SOL    HW1 5725   1.901   4.486   2.307
 1893SOL    HW2 5726   1.813   4.470   2.171
 1894SOL     OW 5727   0.495   5.144   2.016
 1894SOL    HW1 5728   0.414   5.118   2.068
 1894SOL    HW2 5729   0.484   5.116   1.920
 1895SOL     OW 5730   1.674   4.991   2.505
 1895SOL    HW1 5731   1.773   4.989   2.517
 1895SOL    HW2 5732   1.640   5.083   2.526
 1896SOL     OW 5733   1.390   4.298   1.933
 1896SOL    HW1 5734   1.327   4.276   2.007
 1896SOL    HW2 5735   1.483   4.271   1.958
 1897SOL     OW 5736   0.529   3.986   2.172
 1897SOL    HW1 5737   0.577   3.931   2.103
 1897SOL    HW2 5738   0.502   4.074   2.133
 1898SOL     OW 5739   1.753   4.964   3.424
 1898SOL    HW1 5740   1.843   4.922   3.412
 1898SOL    HW2 5741   1.764   5.058   3.458
 1899SOL     OW 5742   1.054   5.074   3.198
 1899SOL    HW1 5743   0.973   5.044   3.248
 1899SOL    HW2 5744   1.135   5.034   3.240
 1900SOL     OW 5745   1.614   5.353   3.519
 1900SOL    HW1 5746   1.598   5.388   3.426
 1900SOL    HW2 5747   1.699   5.302   3.521
 1901SOL     OW 5748   1.136   4.942   2.967
 1901SOL    HW1 5749   1.076   4.976   3.040
 1901SOL    HW2 5750   1.102   4.972   2.878
 1902SOL     OW 5751   1.625   4.821   2.941
 1902SOL    HW1 5752   1.621   4.887   3.017
 1902SOL    HW2 5753   1.548   4.837   2.879
 1903SOL     OW 5754   0.900   3.858   3.233
 1903SOL    HW1 5755   0.929   3.805   3.153
 1903SOL    HW2 5756   0.981   3.901   3.274
 1904SOL     OW 5757   0.980   4.838   3.583
 1904SOL    HW1 5758   0.886   4.858   3.610
 1904SOL    HW2 5759   0.982   4.756   3.527
 1905SOL     OW 5760   0.711   4.781   2.236
 1905SOL    HW1 5761   0.695   4.765   2.333
 1905SOL    HW2 5762   0.790   4.728   2.206
 1906SOL     OW 5763   0.429   4.529   3.111
 1906SOL    HW1 5764   0.499   4.545   3.180
 1906SOL    HW2 5765   0.387   4.440   3.126
 1907SOL     OW 5766   1.268   4.115   3.130
 1907SOL    HW1 5767   1.303   4.192   3.184
 1907SOL    HW2 5768   1.174   4.132   3.102
 1908SOL     OW 5769   0.068   5.290   3.180
 1908SOL    HW1 5770   0.018   5.376   3.195
 1908SOL    HW2 5771   0.165   5.304   3.201
 1909SOL     OW 5772   0.341   4.839   2.354
 1909SOL    HW1 5773   0.352   4.919   2.294
 1909SOL    HW2 5774   0.340   4.756   2.299
 1910SOL     OW 5775   0.549   4.267   2.725
 1910SOL    HW1 5776   0.563   4.326   2.645
 1910SOL    HW2 5777   0.618   4.287   2.794
 1911SOL     OW 5778   1.246   5.078   2.254
 1911SOL    HW1 5779   1.307   5.151   2.285
 1911SOL    HW2 5780   1.153   5.098   2.285
 1912SOL     OW 5781   1.287   5.185   3.009
 1912SOL    HW1 5782   1.345   5.191   3.090
 1912SOL    HW2 5783   1.231   5.102   3.013
 1913SOL     OW 5784   1.578   4.345   2.344
 1913SOL    HW1 5785   1.527   4.393   2.415
 1913SOL    HW2 5786   1.624   4.412   2.286
 1914SOL     OW 5787   0.351   5.257   3.172
 1914SOL    HW1 5788   0.331   5.210   3.086
 1914SOL    HW2 5789   0.450   5.269   3.181
 1915SOL     OW 5790   0.423   4.459   3.460
 1915SOL    HW1 5791   0.483   4.512   3.400
 1915SOL    HW2 5792   0.466   4.372   3.484
 1916SOL     OW 5793   1.607   4.510   3.546
 1916SOL    HW1 5794   1.516   4.552   3.543
 1916SOL    HW2 5795   1.664   4.550   3.474
 1917SOL     OW 5796   0.978   3.904   3.665
 1917SOL    HW1 5797   1.043   3.970   3.625
 1917SOL    HW2 5798   1.009   3.811   3.645
 1918SOL     OW 5799   0.484   3.769   3.611
 1918SOL    HW1 5800   0.441   3.714   3.539
 1918SOL    HW2 5801   0.427   3.849   3.630
 1919SOL     OW 5802   0.587   4.595   2.895
 1919SOL    HW1 5803   0.619   4.690   2.892
 1919SOL    HW2 5804   0.528   4.583   2.974
 1920SOL     OW 5805   1.353   4.581   2.887
 1920SOL    HW1 5806   1.262   4.574   2.846
 1920SOL    HW2 5807   1.401   4.493   2.878
 1921SOL     OW 5808   1.198   4.251   2.127
 1921SOL    HW1 5809   1.211   4.168   2.182
 1921SOL    HW2 5810   1.154   4.321   2.182
 1922SOL     OW 5811   0.308   3.919   3.108
 1922SOL    HW1 5812   0.270   3.956   3.193
 1922SOL    HW2 5813   0.290   3.820   3.104
 1923SOL     OW 5814   0.096   5.031   3.125
 1923SOL    HW1 5815   0.105   4.969   3.203
 1923SOL    HW2 5816   0.086   5.125   3.159
 1924SOL     OW 5817   0.725   4.355   2.917
 1924SOL    HW1 5818   0.802   4.334   2.857
 1924SOL    HW2 5819   0.692   4.447   2.897
 1925SOL     OW 5820   1.735   4.684   3.717
 1925SOL    HW1 5821   1.692   4.617   3.658
 1925SOL    HW2 5822   1.676   4.703   3.795
 1926SOL     OW 5823   0.301   3.784   2.487
 1926SOL    HW1 5824   0.281   3.881   2.505
 1926SOL    HW2 5825   0.313   3.736   2.573
 1927SOL     OW 5826   1.626   4.104   2.225
 1927SOL    HW1 5827   1.652   4.031   2.288
 1927SOL    HW2 5828   1.598   4.185   2.277
 1928SOL     OW 5829   1.024   4.480   2.821
 1928SOL    HW1 5830   1.020   4.502   2.918
 1928SOL    HW2 5831   0.997   4.385   2.806
 1929SOL     OW 5832   0.983   5.288   3.579
 1929SOL    HW1 5833   0.965   5.335   3.492
 1929SOL    HW2 5834   1.030   5.201   3.560
 1930SOL     OW 5835   1.855   5.228   3.466
 1930SOL    HW1 5836   1.873   5.254   3.371
 1930SOL    HW2 5837   1.938   5.240   3.520
 1931SOL     OW 5838   0.365   4.641   3.660
 1931SOL    HW1 5839   0.442   4.665   3.718
 1931SOL    HW2 5840   0.393   4.573   3.593
 1932SOL     OW 5841   1.528   3.993   1.992
 1932SOL    HW1 5842   1.458   3.925   2.017
 1932SOL    HW2 5843   1.564   4.035   2.076
 1933SOL     OW 5844   1.289   4.550   1.889
 1933SOL    HW1 5845   1.330   4.459   1.897
 1933SOL    HW2 5846   1.320   4.593   1.804
 1934SOL     OW 5847   1.070   5.061   2.716
 1934SOL    HW1 5848   1.073   4.983   2.654
 1934SOL    HW2 5849   1.129   5.134   2.682
 1935SOL     OW 5850   0.321   4.525   2.803
 1935SOL    HW1 5851   0.418   4.550   2.804
 1935SOL    HW2 5852   0.310   4.434   2.842
 1936SOL     OW 5853   0.329   4.244   2.875
 1936SOL    HW1 5854   0.291   4.153   2.860
 1936SOL    HW2 5855   0.410   4.257   2.817
 1937SOL     OW 5856   1.137   4.105   3.561
 1937SOL    HW1 5857   1.088   4.166   3.623
 1937SOL    HW2 5858   1.233   4.134   3.554
 1938SOL     OW 5859   1.125   3.977   3.321
 1938SOL    HW1 5860   1.130   4.028   3.407
 1938SOL    HW2 5861   1.187   4.019   3.254
 1939SOL     OW 5862   6.991   5.047   2.078
 1939SOL    HW1 5863   6.918   5.072   2.142
 1939SOL    HW2 5864   0.021   4.953   2.097
 1940SOL     OW 5865   0.097   5.482   2.810
 1940SOL    HW1 5866   0.076   5.408   2.746
 1940SOL    HW2 5867   0.183   5.525   2.784
 1941SOL     OW 5868   0.494   5.302   2.766
 1941SOL    HW1 5869   0.564   5.368   2.793
 1941SOL    HW2 5870   0.535   5.234   2.706
 1942SOL     OW 5871   0.976   4.519   3.087
 1942SOL    HW1 5872   1.035   4.494   3.163
 1942SOL    HW2 5873   0.887   4.474   3.098
 1943SOL     OW 5874   0.050   4.331   2.968
 1943SOL    HW1 5875   0.124   4.282   2.923
 1943SOL    HW2 5876   0.051   4.310   3.066
 1944SOL     OW 5877   0.209   4.236   3.585
 1944SOL    HW1 5878   0.284   4.190   3.537
 1944SOL    HW2 5879   0.188   4.322   3.538
 1945SOL     OW 5880   1.380   4.660   3.517
 1945SOL    HW1 5881   1.402   4.757   3.518
 1945SOL    HW2 5882   1.376   4.628   3.422
 1946SOL     OW 5883   0.816   4.297   2.220
 1946SOL    HW1 5884   0.827   4.216   2.161
 1946SOL    HW2 5885   0.738   4.350   2.189
 1947SOL     OW 5886   1.643   4.329   3.042
 1947SOL    HW1 5887   1.626   4.269   3.120
 1947SOL    HW2 5888   1.734   4.311   3.006
 1948SOL     OW 5889   0.285   5.284   3.602
 1948SOL    HW1 5890   0.229   5.351   3.651
 1948SOL    HW2 5891   0.265   5.193   3.638
 1949SOL     OW 5892   0.700   4.176   3.118
 1949SOL    HW1 5893   0.649   4.095   3.090
 1949SOL    HW2 5894   0.701   4.242   3.043
 1950SOL     OW 5895   0.922   5.405   3.332
 1950SOL    HW1 5896   0.895   5.359   3.247
 1950SOL    HW2 5897   0.920   5.504   3.319
 1951SOL     OW 5898   0.456   4.213   2.044
 1951SOL    HW1 5899   0.513   4.293   2.061
 1951SOL    HW2 5900   0.369   4.222   2.093
 1952SOL     OW 5901   0.166   4.847   3.331
 1952SOL    HW1 5902   0.155   4.786   3.410
 1952SOL    HW2 5903   0.180   4.793   3.248
 1953SOL     OW 5904   1.317   4.768   3.081
 1953SOL    HW1 5905   1.344   4.700   3.013
 1953SOL    HW2 5906   1.249   4.829   3.042
 1954SOL     OW 5907   1.315   4.581   2.162
 1954SOL    HW1 5908   1.239   4.553   2.220
 1954SOL    HW2 5909   1.290   4.568   2.066
 1955SOL     OW 5910   1.779   5.455   3.018
 1955SOL    HW1 5911   1.840   5.489   2.947
 1955SOL    HW2 5912   1.748   5.363   2.993
 1956SOL     OW 5913   1.241   5.457   2.968
 1956SOL    HW1 5914   1.327   5.485   2.925
 1956SOL    HW2 5915   1.246   5.360   2.992
 1957SOL     OW 5916   0.071   4.970   2.867
 1957SOL    HW1 5917   0.088   4.990   2.964
 1957SOL    HW2 5918   6.973   4.955   2.853
 1958SOL     OW 5919   0.681   5.397   3.598
 1958SOL    HW1 5920   0.617   5.473   3.594
 1958SOL    HW2 5921   0.751   5.409   3.527
 1959SOL     OW 5922   1.720   3.873   2.362
 1959SOL    HW1 5923   1.795   3.863   2.297
 1959SOL    HW2 5924   1.702   3.785   2.407
 1960SOL     OW 5925   1.395   5.294   2.349
 1960SOL    HW1 5926   1.458   5.326   2.278
 1960SOL    HW2 5927   1.340   5.371   2.382
 1961SOL     OW 5928   0.139   5.509   3.714
 1961SOL    HW1 5929   0.094   5.436   3.765
 1961SOL    HW2 5930   0.194   5.565   3.777
 1962SOL     OW 5931   1.282   4.652   2.528
 1962SOL    HW1 5932   1.356   4.587   2.543
 1962SOL    HW2 5933   1.315   4.729   2.474
 1963SOL     OW 5934   0.805   5.002   3.289
 1963SOL    HW1 5935   0.776   5.045   3.374
 1963SOL    HW2 5936   0.735   5.018   3.219
 1964SOL     OW 5937   0.672   5.346   2.016
 1964SOL    HW1 5938   0.687   5.365   1.918
 1964SOL    HW2 5939   0.615   5.265   2.026
 1965SOL     OW 5940   1.618   5.452   3.249
 1965SOL    HW1 5941   1.675   5.454   3.167
 1965SOL    HW2 5942   1.603   5.546   3.281
 1966SOL     OW 5943   1.843   3.892   2.824
 1966SOL    HW1 5944   1.876   3.801   2.801
 1966SOL    HW2 5945   1.751   3.905   2.786
 1967SOL     OW 5946   0.263   4.040   2.576
 1967SOL    HW1 5947   0.187   4.102   2.556
 1967SOL    HW2 5948   0.265   4.021   2.674
 1968SOL     OW 5949   1.208   5.325   1.895
 1968SOL    HW1 5950   1.199   5.231   1.928
 1968SOL    HW2 5951   1.141   5.342   1.823
 1969SOL     OW 5952   0.823   4.734   3.240
 1969SOL    HW1 5953   0.873   4.718   3.155
 1969SOL    HW2 5954   0.820   4.832   3.259
 1970SOL     OW 5955   0.919   4.634   2.149
 1970SOL    HW1 5956   0.980   4.670   2.079
 1970SOL    HW2 5957   0.966   4.563   2.201
 1971SOL     OW 5958   1.489   5.353   1.904
 1971SOL    HW1 5959   1.390   5.342   1.893
 1971SOL    HW2 5960   1.532   5.359   1.814
 1972SOL     OW 5961   0.372   5.031   3.348
 1972SOL    HW1 5962   0.359   5.112   3.291
 1972SOL    HW2 5963   0.302   4.963   3.326
 1973SOL     OW 5964   1.614   5.008   3.146
 1973SOL    HW1 5965   1.677   4.990   3.222
 1973SOL    HW2 5966   1.548   5.078   3.174
 1974SOL     OW 5967   1.060   4.830   2.576
 1974SOL    HW1 5968   0.984   4.780   2.616
 1974SOL    HW2 5969   1.128   4.765   2.542
 1975SOL     OW 5970   1.023   3.961   2.830
 1975SOL    HW1 5971   1.019   3.918   2.740
 1975SOL    HW2 5972   1.019   3.891   2.901
 1976SOL     OW 5973   0.607   5.211   2.343
 1976SOL    HW1 5974   0.657   5.157   2.274
 1976SOL    HW2 5975   0.530   5.257   2.299
 1977SOL     OW 5976   1.734   4.118   3.239
 1977SOL    HW1 5977   1.801   4.192   3.246
 1977SOL    HW2 5978   1.770   4.047   3.179
 1978SOL     OW 5979   0.255   5.074   2.136
 1978SOL    HW1 5980   0.157   5.075   2.118
 1978SOL    HW2 5981   0.273   5.111   2.227
 1979SOL     OW 5982   0.120   4.698   3.564
 1979SOL    HW1 5983   0.066   4.748   3.631
 1979SOL    HW2 5984   0.211   4.680   3.602
 1980SOL     OW 5985   0.669   3.923   3.362
 1980SOL    HW1 5986   0.755   3.907   3.312
 1980SOL    HW2 5987   0.690   3.955   3.454
 1981SOL     OW 5988   0.099   4.042   1.900
 1981SOL    HW1 5989   0.002   4.017   1.897
 1981SOL    HW2 5990   0.112   4.127   1.850
 1982SOL     OW 5991   1.424   4.580   3.257
 1982SOL    HW1 5992   1.368   4.644   3.204
 1982SOL    HW2 5993   1.518   4.582   3.224
 1983SOL     OW 5994   0.078   3.911   2.204
 1983SOL    HW1 5995   0.023   3.906   2.120
 1983SOL    HW2 5996   0.152   3.845   2.199
 1984SOL     OW 5997   1.180   5.062   1.982
 1984SOL    HW1 5998   1.084   5.035   1.975
 1984SOL    HW2 5999   1.208   5.063   2.078
 1985SOL     OW 6000   0.624   4.553   3.296
 1985SOL    HW1 6001   0.680   4.635   3.281
 1985SOL    HW2 6002   0.683   4.474   3.305
 1986SOL     OW 6003   1.485   5.511   2.849
 1986SOL    HW1 6004   1.506   5.572   2.773
 1986SOL    HW2 6005   1.570   5.478   2.890
 1987SOL     OW 6006   0.714   4.291   3.564
 1987SOL    HW1 6007   0.763   4.353   3.624
 1987SOL    HW2 6008   0.728   4.197   3.594
 1988SOL     OW 6009   1.473   4.920   3.497
 1988SOL    HW1 6010   1.458   4.934   3.595
 1988SOL    HW2 6011   1.569   4.939   3.475
 1989SOL     OW 6012   0.372   5.469   3.425
 1989SOL    HW1 6013   0.285   5.516   3.410
 1989SOL    HW2 6014   0.356   5.385   3.477
 1990SOL     OW 6015   1.666   4.603   3.118
 1990SOL    HW1 6016   1.661   4.512   3.076
 1990SOL    HW2 6017   1.654   4.673   3.047
 1991SOL     OW 6018   1.219   4.041   2.322
 1991SOL    HW1 6019   1.283   3.964   2.312
 1991SOL    HW2 6020   1.246   4.096   2.401
 1992SOL     OW 6021   0.589   4.462   2.531
 1992SOL    HW1 6022   0.629   4.552   2.522
 1992SOL    HW2 6023   0.519   4.449   2.460
 1993SOL     OW 6024   1.723   4.101   3.511
 1993SOL    HW1 6025   1.725   4.108   3.411
 1993SOL    HW2 6026   1.716   4.005   3.538
 1994SOL     OW 6027   1.752   4.656   3.372
 1994SOL    HW1 6028   1.741   4.753   3.394
 1994SOL    HW2 6029   1.731   4.642   3.275
 1995SOL     OW 6030   0.869   5.088   1.906
 1995SOL    HW1 6031   0.825   5.112   1.992
 1995SOL    HW2 6032   0.881   5.171   1.851
 1996SOL     OW 6033   0.666   5.511   2.805
 1996SOL    HW1 6034   0.642   5.605   2.782
 1996SOL    HW2 6035   0.764   5.497   2.793
 1997SOL     OW 6036   0.869   4.694   2.718
 1997SOL    HW1 6037   0.920   4.616   2.755
 1997SOL    HW2 6038   0.826   4.745   2.793
 1998SOL     OW 6039   1.077   4.712   1.946
 1998SOL    HW1 6040   1.050   4.767   1.867
 1998SOL    HW2 6041   1.156   4.655   1.922
 1999SOL     OW 6042   1.847   5.280   2.709
 1999SOL    HW1 6043   1.770   5.269   2.646
 1999SOL    HW2 6044   1.841   5.211   2.781
 2000SOL     OW 6045   0.242   5.032   3.727
 2000SOL    HW1 6046   0.151   4.999   3.704
 2000SOL    HW2 6047   0.251   5.042   3.826
 2001SOL     OW 6048   0.150   4.995   2.552
 2001SOL    HW1 6049   0.101   4.949   2.626
 2001SOL    HW2 6050   0.198   4.928   2.495
 2002SOL     OW 6051   0.685   5.132   3.497
 2002SOL    HW1 6052   0.604   5.082   3.525
 2002SOL    HW2 6053   0.681   5.226   3.533
 2003SOL     OW 6054   1.831   3.918   3.094
 2003SOL    HW1 6055   1.805   3.826   3.123
 2003SOL    HW2 6056   1.838   3.921   2.994
 2004SOL     OW 6057   0.455   4.153   2.401
 2004SOL    HW1 6058   0.478   4.085   2.332
 2004SOL    HW2 6059   0.397   4.112   2.471
 2005SOL     OW 6060   1.694   5.207   2.956
 2005SOL    HW1 6061   1.613   5.189   2.901
 2005SOL    HW2 6062   1.703   5.136   3.026
 2006SOL     OW 6063   0.331   4.275   3.153
 2006SOL    HW1 6064   0.389   4.221   3.214
 2006SOL    HW2 6065   0.348   4.249   3.058
 2007SOL     OW 6066   0.828   5.303   2.540
 2007SOL    HW1 6067   0.815   5.364   2.462
 2007SOL    HW2 6068   0.751   5.240   2.547
 2008SOL     OW 6069   1.433   3.954   2.982
 2008SOL    HW1 6070   1.456   3.867   3.027
 2008SOL    HW2 6071   1.376   4.009   3.043
 2009SOL     OW 6072   1.009   3.738   3.001
 2009SOL    HW1 6073   0.945   3.671   2.964
 2009SOL    HW2 6074   1.101   3.699   3.004
 2010SOL     OW 6075   0.775   5.055   2.182
 2010SOL    HW1 6076   0.746   4.960   2.191
 2010SOL    HW2 6077   0.859   5.069   2.234
 2011SOL     OW 6078   0.626   5.282   3.152
 2011SOL    HW1 6079   0.623   5.369   3.202
 2011SOL    HW2 6080   0.716   5.271   3.110
 2012SOL     OW 6081   1.353   3.775   2.031
 2012SOL    HW1 6082   1.395   3.708   1.969
 2012SOL    HW2 6083   1.261   3.745   2.054
 2013SOL     OW 6084   1.292   4.188   2.543
 2013SOL    HW1 6085   1.239   4.272   2.546
 2013SOL    HW2 6086   1.290   4.144   2.633
 2014SOL     OW 6087   1.587   3.927   2.746
 2014SOL    HW1 6088   1.528   3.945   2.825
 2014SOL    HW2 6089   1.587   4.007   2.686
 2015SOL     OW 6090   0.071   4.789   2.139
 2015SOL    HW1 6091   0.164   4.752   2.139
 2015SOL    HW2 6092   0.006   4.716   2.160
 2016SOL     OW 6093   0.884   5.386   2.203
 2016SOL    HW1 6094   0.811   5.364   2.139
 2016SOL    HW2 6095   0.858   5.463   2.261
 2017SOL     OW 6096   0.189   4.377   3.844
 2017SOL    HW1 6097   0.175   4.310   3.918
 2017SOL    HW2 6098   0.227   4.331   3.764
 2018SOL     OW 6099   0.231   3.995   4.711
 2018SOL    HW1 6100   0.281   3.964   4.792
 2018SOL    HW2 6101   0.133   3.978   4.724
 2019SOL     OW 6102   6.990   4.109   4.377
 2019SOL    HW1 6103   6.942   4.106   4.465
 2019SOL    HW2 6104   0.011   4.016   4.347
 2020SOL     OW 6105   0.569   5.020   4.909
 2020SOL    HW1 6106   0.479   5.017   4.866
 2020SOL    HW2 6107   0.587   5.112   4.944
 2021SOL     OW 6108   1.564   5.237   4.432
 2021SOL    HW1 6109   1.521   5.213   4.519
 2021SOL    HW2 6110   1.493   5.244   4.361
 2022SOL     OW 6111   1.133   4.427   4.420
 2022SOL    HW1 6112   1.185   4.510   4.403
 2022SOL    HW2 6113   1.083   4.435   4.506
 2023SOL     OW 6114   1.771   4.323   3.949
 2023SOL    HW1 6115   1.746   4.321   3.852
 2023SOL    HW2 6116   1.730   4.245   3.996
 2024SOL     OW 6117   0.745   4.865   4.764
 2024SOL    HW1 6118   0.676   4.900   4.828
 2024SOL    HW2 6119   0.789   4.942   4.718
 2025SOL     OW 6120   0.872   4.490   5.544
 2025SOL    HW1 6121   0.862   4.558   5.616
 2025SOL    HW2 6122   0.897   4.535   5.458
 2026SOL     OW 6123   0.683   4.724   4.374
 2026SOL    HW1 6124   0.755   4.714   4.443
 2026SOL    HW2 6125   0.608   4.780   4.412
 2027SOL     OW 6126   0.713   4.877   5.542
 2027SOL    HW1 6127   0.765   4.955   5.575
 2027SOL    HW2 6128   0.628   4.908   5.500
 2028SOL     OW 6129   0.333   5.145   4.789
 2028SOL    HW1 6130   0.254   5.106   4.741
 2028SOL    HW2 6131   0.385   5.203   4.726
 2029SOL     OW 6132   1.458   5.225   5.081
 2029SOL    HW1 6133   1.515   5.307   5.088
 2029SOL    HW2 6134   1.388   5.227   5.152
 2030SOL     OW 6135   0.443   4.119   5.217
 2030SOL    HW1 6136   0.526   4.063   5.218
 2030SOL    HW2 6137   0.363   4.060   5.225
 2031SOL     OW 6138   1.612   4.171   4.468
 2031SOL    HW1 6139   1.536   4.189   4.406
 2031SOL    HW2 6140   1.621   4.246   4.533
 2032SOL     OW 6141   0.226   5.434   4.190
 2032SOL    HW1 6142   0.240   5.513   4.249
 2032SOL    HW2 6143   0.297   5.430   4.120
 2033SOL     OW 6144   1.137   5.064   5.421
 2033SOL    HW1 6145   1.183   5.062   5.510
 2033SOL    HW2 6146   1.081   4.981   5.411
 2034SOL     OW 6147   0.275   5.166   4.244
 2034SOL    HW1 6148   0.253   5.263   4.250
 2034SOL    HW2 6149   0.225   5.115   4.314
 2035SOL     OW 6150   0.268   4.806   4.630
 2035SOL    HW1 6151   0.264   4.711   4.660
 2035SOL    HW2 6152   0.197   4.859   4.677
 2036SOL     OW 6153   0.603   5.520   5.152
 2036SOL    HW1 6154   0.517   5.496   5.198
 2036SOL    HW2 6155   0.632   5.611   5.179
 2037SOL     OW 6156   0.582   4.711   3.864
 2037SOL    HW1 6157   0.629   4.759   3.790
 2037SOL    HW2 6158   0.621   4.739   3.952
 2038SOL     OW 6159   1.597   3.848   5.194
 2038SOL    HW1 6160   1.614   3.928   5.136
 2038SOL    HW2 6161   1.582   3.878   5.288
 2039SOL     OW 6162   0.132   4.340   4.298
 2039SOL    HW1 6163   0.063   4.271   4.321
 2039SOL    HW2 6164   0.122   4.418   4.359
 2040SOL     OW 6165   1.846   5.480   4.057
 2040SOL    HW1 6166   1.915   5.449   4.122
 2040SOL    HW2 6167   1.863   5.576   4.033
 2041SOL     OW 6168   0.037   5.317   3.871
 2041SOL    HW1 6169   0.027   5.218   3.883
 2041SOL    HW2 6170   6.961   5.364   3.917
 2042SOL     OW 6171   1.691   4.645   4.371
 2042SOL    HW1 6172   1.775   4.594   4.353
 2042SOL    HW2 6173   1.667   4.699   4.290
 2043SOL     OW 6174   1.652   4.829   4.156
 2043SOL    HW1 6175   1.741   4.827   4.110
 2043SOL    HW2 6176   1.654   4.896   4.230
 2044SOL     OW 6177   0.145   4.455   5.305
 2044SOL    HW1 6178   0.243   4.462   5.290
 2044SOL    HW2 6179   0.109   4.543   5.336
 2045SOL     OW 6180   0.611   5.114   4.459
 2045SOL    HW1 6181   0.564   5.027   4.472
 2045SOL    HW2 6182   0.598   5.144   4.364
 2046SOL     OW 6183   1.289   4.959   5.146
 2046SOL    HW1 6184   1.316   4.889   5.080
 2046SOL    HW2 6185   1.348   4.955   5.226
 2047SOL     OW 6186   0.816   3.733   4.232
 2047SOL    HW1 6187   0.862   3.819   4.209
 2047SOL    HW2 6188   0.718   3.749   4.240
 2048SOL     OW 6189   0.204   4.685   4.986
 2048SOL    HW1 6190   0.287   4.632   4.969
 2048SOL    HW2 6191   0.132   4.654   4.924
 2049SOL     OW 6192   1.532   4.723   3.928
 2049SOL    HW1 6193   1.459   4.663   3.957
 2049SOL    HW2 6194   1.578   4.761   4.008
 2050SOL     OW 6195   1.183   5.535   5.346
 2050SOL    HW1 6196   1.190   5.603   5.273
 2050SOL    HW2 6197   1.202   5.444   5.309
 2051SOL     OW 6198   0.351   3.975   5.553
 2051SOL    HW1 6199   0.400   4.057   5.579
 2051SOL    HW2 6200   0.254   3.984   5.578
 2052SOL     OW 6201   1.465   5.144   4.672
 2052SOL    HW1 6202   1.398   5.163   4.744
 2052SOL    HW2 6203   1.457   5.048   4.643
 2053SOL     OW 6204   1.651   5.471   4.300
 2053SOL    HW1 6205   1.633   5.443   4.206
 2053SOL    HW2 6206   1.629   5.396   4.362
 2054SOL     OW 6207   0.590   4.441   3.990
 2054SOL    HW1 6208   0.600   4.529   3.942
 2054SOL    HW2 6209   0.526   4.452   4.066
 2055SOL     OW 6210   1.277   4.081   4.657
 2055SOL    HW1 6211   1.184   4.047   4.664
 2055SOL    HW2 6212   1.336   4.029   4.719
 2056SOL     OW 6213   1.583   5.396   4.032
 2056SOL    HW1 6214   1.679   5.425   4.028
 2056SOL    HW2 6215   1.550   5.379   3.939
 2057SOL     OW 6216   0.790   4.337   5.175
 2057SOL    HW1 6217   0.764   4.313   5.268
 2057SOL    HW2 6218   0.751   4.269   5.112
 2058SOL     OW 6219   1.391   4.194   5.403
 2058SOL    HW1 6220   1.392   4.243   5.490
 2058SOL    HW2 6221   1.453   4.115   5.409
 2059SOL     OW 6222   0.953   4.609   5.306
 2059SOL    HW1 6223   1.011   4.537   5.269
 2059SOL    HW2 6224   0.900   4.651   5.233
 2060SOL     OW 6225   0.994   4.131   4.954
 2060SOL    HW1 6226   0.905   4.153   4.993
 2060SOL    HW2 6227   0.981   4.081   4.868
 2061SOL     OW 6228   1.049   4.423   4.149
 2061SOL    HW1 6229   1.070   4.418   4.247
 2061SOL    HW2 6230   0.963   4.374   4.131
 2062SOL     OW 6231   0.102   4.542   4.498
 2062SOL    HW1 6232   0.194   4.531   4.535
 2062SOL    HW2 6233   0.042   4.580   4.569
 2063SOL     OW 6234   0.121   5.593   5.314
 2063SOL    HW1 6235   0.131   5.567   5.410
 2063SOL    HW2 6236   0.031   5.565   5.281
 2064SOL     OW 6237   0.898   4.073   3.916
 2064SOL    HW1 6238   0.937   4.145   3.859
 2064SOL    HW2 6239   0.908   3.985   3.870
 2065SOL     OW 6240   1.702   4.297   5.550
 2065SOL    HW1 6241   1.666   4.376   5.500
 2065SOL    HW2 6242   1.732   4.227   5.485
 2066SOL     OW 6243   1.379   4.867   4.259
 2066SOL    HW1 6244   1.463   4.851   4.207
 2066SOL    HW2 6245   1.323   4.934   4.211
 2067SOL     OW 6246   0.550   3.900   4.623
 2067SOL    HW1 6247   0.555   3.929   4.718
 2067SOL    HW2 6248   0.554   3.980   4.563
 2068SOL     OW 6249   0.996   5.167   4.189
 2068SOL    HW1 6250   0.963   5.247   4.138
 2068SOL    HW2 6251   0.980   5.180   4.286
 2069SOL     OW 6252   0.357   5.542   4.590
 2069SOL    HW1 6253   0.397   5.451   4.601
 2069SOL    HW2 6254   0.426   5.612   4.611
 2070SOL     OW 6255   1.798   4.781   4.595
 2070SOL    HW1 6256   1.747   4.758   4.513
 2070SOL    HW2 6257   1.735   4.787   4.673
 2071SOL     OW 6258   1.227   5.260   5.238
 2071SOL    HW1 6259   1.214   5.186   5.304
 2071SOL    HW2 6260   1.159   5.253   5.165
 2072SOL     OW 6261   0.318   4.669   3.974
 2072SOL    HW1 6262   0.405   4.695   3.932
 2072SOL    HW2 6263   0.287   4.582   3.936
 2073SOL     OW 6264   1.483   4.473   4.447
 2073SOL    HW1 6265   1.476   4.428   4.536
 2073SOL    HW2 6266   1.563   4.532   4.446
 2074SOL     OW 6267   0.472   4.984   5.452
 2074SOL    HW1 6268   0.444   4.994   5.356
 2074SOL    HW2 6269   0.391   4.986   5.510
 2075SOL     OW 6270   1.122   5.500   3.951
 2075SOL    HW1 6271   1.043   5.462   3.999
 2075SOL    HW2 6272   1.151   5.436   3.880
 2076SOL     OW 6273   0.196   3.993   5.215
 2076SOL    HW1 6274   0.113   4.046   5.197
 2076SOL    HW2 6275   0.172   3.909   5.263
 2077SOL     OW 6276   1.625   5.106   3.812
 2077SOL    HW1 6277   1.586   5.196   3.796
 2077SOL    HW2 6278   1.555   5.036   3.793
 2078SOL     OW 6279   0.468   5.458   4.042
 2078SOL    HW1 6280   0.509   5.520   4.109
 2078SOL    HW2 6281   0.540   5.423   3.982
 2079SOL     OW 6282   1.403   3.830   4.165
 2079SOL    HW1 6283   1.389   3.809   4.068
 2079SOL    HW2 6284   1.501   3.838   4.183
 2080SOL     OW 6285   0.259   5.518   4.948
 2080SOL    HW1 6286   0.309   5.445   4.993
 2080SOL    HW2 6287   0.216   5.483   4.865
 2081SOL     OW 6288   0.936   5.426   4.620
 2081SOL    HW1 6289   1.018   5.378   4.652
 2081SOL    HW2 6290   0.893   5.374   4.546
 2082SOL     OW 6291   0.401   4.407   4.198
 2082SOL    HW1 6292   0.429   4.314   4.219
 2082SOL    HW2 6293   0.303   4.417   4.217
 2083SOL     OW 6294   1.529   3.947   5.452
 2083SOL    HW1 6295   1.540   3.968   5.549
 2083SOL    HW2 6296   1.456   3.879   5.440
 2084SOL     OW 6297   0.632   3.842   3.829
 2084SOL    HW1 6298   0.708   3.779   3.838
 2084SOL    HW2 6299   0.575   3.814   3.751
 2085SOL     OW 6300   0.764   4.001   5.481
 2085SOL    HW1 6301   0.848   3.947   5.475
 2085SOL    HW2 6302   0.711   3.972   5.561
 2086SOL     OW 6303   0.876   5.240   4.916
 2086SOL    HW1 6304   0.856   5.203   4.825
 2086SOL    HW2 6305   0.949   5.185   4.958
 2087SOL     OW 6306   1.340   4.313   5.159
 2087SOL    HW1 6307   1.370   4.278   5.248
 2087SOL    HW2 6308   1.375   4.405   5.146
 2088SOL     OW 6309   0.820   5.114   4.665
 2088SOL    HW1 6310   0.909   5.102   4.622
 2088SOL    HW2 6311   0.749   5.119   4.594
 2089SOL     OW 6312   0.927   4.231   4.623
 2089SOL    HW1 6313   0.901   4.224   4.526
 2089SOL    HW2 6314   0.960   4.142   4.655
 2090SOL     OW 6315   0.546   3.788   4.221
 2090SOL    HW1 6316   0.463   3.784   4.277
 2090SOL    HW2 6317   0.543   3.869   4.162
 2091SOL     OW 6318   1.426   4.923   3.767
 2091SOL    HW1 6319   1.459   4.845   3.821
 2091SOL    HW2 6320   1.337   4.952   3.803
 2092SOL     OW 6321   0.292   3.766   3.910
 2092SOL    HW1 6322   0.342   3.847   3.878
 2092SOL    HW2 6323   0.356   3.701   3.950
 2093SOL     OW 6324   0.946   3.974   4.179
 2093SOL    HW1 6325   0.915   4.013   4.093
 2093SOL    HW2 6326   1.044   3.988   4.189
 2094SOL     OW 6327   1.080   4.406   5.180
 2094SOL    HW1 6328   1.005   4.340   5.185
 2094SOL    HW2 6329   1.167   4.358   5.175
 2095SOL     OW 6330   1.221   5.293   4.518
 2095SOL    HW1 6331   1.235   5.363   4.448
 2095SOL    HW2 6332   1.291   5.302   4.588
 2096SOL     OW 6333   0.467   4.874   4.457
 2096SOL    HW1 6334   0.400   4.853   4.529
 2096SOL    HW2 6335   0.425   4.861   4.367
 2097SOL     OW 6336   1.264   5.516   4.334
 2097SOL    HW1 6337   1.315   5.578   4.275
 2097SOL    HW2 6338   1.191   5.566   4.380
 2098SOL     OW 6339   1.022   4.265   3.755
 2098SOL    HW1 6340   0.976   4.351   3.731
 2098SOL    HW2 6341   1.089   4.282   3.827
 2099SOL     OW 6342   0.074   4.276   5.100
 2099SOL    HW1 6343   0.169   4.268   5.071
 2099SOL    HW2 6344   0.066   4.344   5.173
 2100SOL     OW 6345   0.564   3.948   4.894
 2100SOL    HW1 6346   0.614   3.870   4.933
 2100SOL    HW2 6347   0.469   3.946   4.925
 2101SOL     OW 6348   0.866   4.182   4.361
 2101SOL    HW1 6349   0.815   4.243   4.300
 2101SOL    HW2 6350   0.894   4.100   4.311
 2102SOL     OW 6351   1.017   3.777   4.470
 2102SOL    HW1 6352   0.956   3.777   4.391
 2102SOL    HW2 6353   0.992   3.701   4.530
 2103SOL     OW 6354   1.445   4.885   4.582
 2103SOL    HW1 6355   1.368   4.820   4.586
 2103SOL    HW2 6356   1.473   4.897   4.487
 2104SOL     OW 6357   1.468   4.331   4.695
 2104SOL    HW1 6358   1.406   4.252   4.695
 2104SOL    HW2 6359   1.529   4.325   4.774
 2105SOL     OW 6360   1.844   4.534   4.103
 2105SOL    HW1 6361   1.901   4.486   4.170
 2105SOL    HW2 6362   1.813   4.470   4.033
 2106SOL     OW 6363   0.496   5.144   3.878
 2106SOL    HW1 6364   0.414   5.118   3.930
 2106SOL    HW2 6365   0.484   5.116   3.782
 2107SOL     OW 6366   1.674   4.991   4.367
 2107SOL    HW1 6367   1.773   4.989   4.379
 2107SOL    HW2 6368   1.640   5.083   4.388
 2108SOL     OW 6369   1.389   4.298   3.799
 2108SOL    HW1 6370   1.324   4.278   3.872
 2108SOL    HW2 6371   1.477   4.257   3.820
 2109SOL     OW 6372   0.528   3.987   4.037
 2109SOL    HW1 6373   0.574   3.931   3.968
 2109SOL    HW2 6374   0.502   4.075   3.996
 2110SOL     OW 6375   1.753   4.964   5.286
 2110SOL    HW1 6376   1.843   4.922   5.274
 2110SOL    HW2 6377   1.764   5.058   5.320
 2111SOL     OW 6378   1.054   5.073   5.059
 2111SOL    HW1 6379   0.973   5.044   5.110
 2111SOL    HW2 6380   1.135   5.034   5.102
 2112SOL     OW 6381   1.614   5.353   5.381
 2112SOL    HW1 6382   1.598   5.388   5.288
 2112SOL    HW2 6383   1.699   5.302   5.383
 2113SOL     OW 6384   1.136   4.941   4.829
 2113SOL    HW1 6385   1.076   4.976   4.902
 2113SOL    HW2 6386   1.102   4.972   4.740
 2114SOL     OW 6387   1.625   4.821   4.803
 2114SOL    HW1 6388   1.621   4.886   4.879
 2114SOL    HW2 6389   1.548   4.837   4.741
 2115SOL     OW 6390   0.923   3.819   5.116
 2115SOL    HW1 6391   0.944   3.796   5.021
 2115SOL    HW2 6392   1.002   3.862   5.159
 2116SOL     OW 6393   0.980   4.838   5.445
 2116SOL    HW1 6394   0.886   4.858   5.472
 2116SOL    HW2 6395   0.982   4.756   5.388
 2117SOL     OW 6396   0.711   4.781   4.098
 2117SOL    HW1 6397   0.695   4.765   4.195
 2117SOL    HW2 6398   0.790   4.728   4.068
 2118SOL     OW 6399   0.429   4.529   4.973
 2118SOL    HW1 6400   0.499   4.545   5.042
 2118SOL    HW2 6401   0.386   4.440   4.988
 2119SOL     OW 6402   1.263   4.100   5.004
 2119SOL    HW1 6403   1.300   4.180   5.053
 2119SOL    HW2 6404   1.168   4.118   4.979
 2120SOL     OW 6405   0.068   5.290   5.042
 2120SOL    HW1 6406   0.018   5.376   5.056
 2120SOL    HW2 6407   0.165   5.304   5.063
 2121SOL     OW 6408   0.341   4.839   4.216
 2121SOL    HW1 6409   0.352   4.919   4.156
 2121SOL    HW2 6410   0.340   4.756   4.160
 2122SOL     OW 6411   0.549   4.267   4.587
 2122SOL    HW1 6412   0.563   4.325   4.507
 2122SOL    HW2 6413   0.618   4.288   4.656
 2123SOL     OW 6414   1.246   5.078   4.116
 2123SOL    HW1 6415   1.307   5.151   4.147
 2123SOL    HW2 6416   1.153   5.098   4.146
 2124SOL     OW 6417   1.287   5.185   4.871
 2124SOL    HW1 6418   1.345   5.191   4.952
 2124SOL    HW2 6419   1.232   5.102   4.876
 2125SOL     OW 6420   1.577   4.345   4.207
 2125SOL    HW1 6421   1.526   4.394   4.278
 2125SOL    HW2 6422   1.624   4.412   4.148
 2126SOL     OW 6423   0.351   5.257   5.034
 2126SOL    HW1 6424   0.332   5.210   4.948
 2126SOL    HW2 6425   0.450   5.269   5.043
 2127SOL     OW 6426   0.423   4.459   5.322
 2127SOL    HW1 6427   0.483   4.512   5.262
 2127SOL    HW2 6428   0.466   4.372   5.346
 2128SOL     OW 6429   1.607   4.509   5.408
 2128SOL    HW1 6430   1.517   4.550   5.406
 2128SOL    HW2 6431   1.664   4.549   5.336
 2129SOL     OW 6432   0.997   3.857   5.474
 2129SOL    HW1 6433   1.055   3.936   5.458
 2129SOL    HW2 6434   1.046   3.774   5.448
 2130SOL     OW 6435   0.495   3.760   5.473
 2130SOL    HW1 6436   0.450   3.703   5.404
 2130SOL    HW2 6437   0.439   3.840   5.492
 2131SOL     OW 6438   0.588   4.595   4.757
 2131SOL    HW1 6439   0.619   4.690   4.753
 2131SOL    HW2 6440   0.528   4.583   4.836
 2132SOL     OW 6441   1.353   4.581   4.749
 2132SOL    HW1 6442   1.263   4.574   4.707
 2132SOL    HW2 6443   1.401   4.494   4.741
 2133SOL     OW 6444   1.196   4.251   3.989
 2133SOL    HW1 6445   1.209   4.168   4.043
 2133SOL    HW2 6446   1.153   4.321   4.046
 2134SOL     OW 6447   0.307   3.920   4.970
 2134SOL    HW1 6448   0.269   3.956   5.055
 2134SOL    HW2 6449   0.291   3.822   4.965
 2135SOL     OW 6450   0.096   5.031   4.988
 2135SOL    HW1 6451   0.105   4.969   5.065
 2135SOL    HW2 6452   0.086   5.125   5.021
 2136SOL     OW 6453   0.725   4.355   4.779
 2136SOL    HW1 6454   0.802   4.334   4.719
 2136SOL    HW2 6455   0.691   4.447   4.760
 2137SOL     OW 6456   1.735   4.684   5.579
 2137SOL    HW1 6457   1.692   4.616   5.520
 2137SOL    HW2 6458   1.676   4.703   5.657
 2138SOL     OW 6459   0.300   3.784   4.349
 2138SOL    HW1 6460   0.281   3.881   4.367
 2138SOL    HW2 6461   0.313   3.736   4.435
 2139SOL     OW 6462   1.630   4.105   4.089
 2139SOL    HW1 6463   1.653   4.031   4.151
 2139SOL    HW2 6464   1.600   4.185   4.142
 2140SOL     OW 6465   1.024   4.479   4.682
 2140SOL    HW1 6466   1.019   4.501   4.779
 2140SOL    HW2 6467   0.997   4.384   4.668
 2141SOL     OW 6468   0.983   5.287   5.441
 2141SOL    HW1 6469   0.965   5.335   5.354
 2141SOL    HW2 6470   1.030   5.201   5.422
 2142SOL     OW 6471   1.855   5.228   5.328
 2142SOL    HW1 6472   1.873   5.254   5.233
 2142SOL    HW2 6473   1.938   5.240   5.382
 2143SOL     OW 6474   0.365   4.641   5.523
 2143SOL    HW1 6475   0.442   4.666   5.581
 2143SOL    HW2 6476   0.393   4.573   5.456
 2144SOL     OW 6477   1.532   4.013   3.852
 2144SOL    HW1 6478   1.463   3.943   3.867
 2144SOL    HW2 6479   1.568   4.044   3.940
 2145SOL     OW 6480   1.289   4.550   3.751
 2145SOL    HW1 6481   1.332   4.460   3.761
 2145SOL    HW2 6482   1.320   4.592   3.666
 2146SOL     OW 6483   1.070   5.061   4.578
 2146SOL    HW1 6484   1.073   4.983   4.516
 2146SOL    HW2 6485   1.129   5.134   4.544
 2147SOL     OW 6486   0.321   4.525   4.665
 2147SOL    HW1 6487   0.418   4.550   4.665
 2147SOL    HW2 6488   0.310   4.434   4.704
 2148SOL     OW 6489   0.329   4.244   4.738
 2148SOL    HW1 6490   0.291   4.153   4.722
 2148SOL    HW2 6491   0.410   4.256   4.680
 2149SOL     OW 6492   1.134   4.097   5.416
 2149SOL    HW1 6493   1.081   4.154   5.478
 2149SOL    HW2 6494   1.226   4.134   5.407
 2150SOL     OW 6495   1.161   3.928   5.199
 2150SOL    HW1 6496   1.147   3.990   5.276
 2150SOL    HW2 6497   1.204   3.977   5.123
 2151SOL     OW 6498   6.991   5.047   3.940
 2151SOL    HW1 6499   6.918   5.072   4.004
 2151SOL    HW2 6500   0.021   4.953   3.959
 2152SOL     OW 6501   0.097   5.482   4.672
 2152SOL    HW1 6502   0.076   5.408   4.608
 2152SOL    HW2 6503   0.183   5.525   4.646
 2153SOL     OW 6504   0.494   5.302   4.629
 2153SOL    HW1 6505   0.564   5.369   4.655
 2153SOL    HW2 6506   0.535   5.234   4.568
 2154SOL     OW 6507   0.976   4.518   4.948
 2154SOL    HW1 6508   1.036   4.493   5.025
 2154SOL    HW2 6509   0.886   4.476   4.962
 2155SOL     OW 6510   0.049   4.331   4.830
 2155SOL    HW1 6511   0.124   4.282   4.784
 2155SOL    HW2 6512   0.051   4.310   4.928
 2156SOL     OW 6513   0.210   4.236   5.447
 2156SOL    HW1 6514   0.285   4.190   5.399
 2156SOL    HW2 6515   0.188   4.321   5.401
 2157SOL     OW 6516   1.380   4.660   5.379
 2157SOL    HW1 6517   1.403   4.757   5.380
 2157SOL    HW2 6518   1.376   4.627   5.284
 2158SOL     OW 6519   0.817   4.295   4.081
 2158SOL    HW1 6520   0.826   4.214   4.023
 2158SOL    HW2 6521   0.738   4.349   4.050
 2159SOL     OW 6522   1.643   4.327   4.906
 2159SOL    HW1 6523   1.626   4.267   4.984
 2159SOL    HW2 6524   1.734   4.309   4.869
 2160SOL     OW 6525   0.285   5.284   5.464
 2160SOL    HW1 6526   0.229   5.352   5.513
 2160SOL    HW2 6527   0.265   5.193   5.500
 2161SOL     OW 6528   0.705   4.174   4.979
 2161SOL    HW1 6529   0.651   4.094   4.952
 2161SOL    HW2 6530   0.703   4.241   4.905
 2162SOL     OW 6531   0.922   5.405   5.194
 2162SOL    HW1 6532   0.895   5.359   5.110
 2162SOL    HW2 6533   0.920   5.504   5.181
 2163SOL     OW 6534   0.457   4.213   3.905
 2163SOL    HW1 6535   0.514   4.293   3.923
 2163SOL    HW2 6536   0.370   4.223   3.954
 2164SOL     OW 6537   0.166   4.847   5.193
 2164SOL    HW1 6538   0.155   4.786   5.272
 2164SOL    HW2 6539   0.180   4.793   5.110
 2165SOL     OW 6540   1.317   4.768   4.943
 2165SOL    HW1 6541   1.344   4.700   4.875
 2165SOL    HW2 6542   1.248   4.829   4.903
 2166SOL     OW 6543   1.315   4.581   4.024
 2166SOL    HW1 6544   1.239   4.553   4.083
 2166SOL    HW2 6545   1.290   4.568   3.928
 2167SOL     OW 6546   1.779   5.455   4.880
 2167SOL    HW1 6547   1.840   5.489   4.809
 2167SOL    HW2 6548   1.748   5.363   4.856
 2168SOL     OW 6549   1.241   5.457   4.830
 2168SOL    HW1 6550   1.327   5.485   4.787
 2168SOL    HW2 6551   1.246   5.360   4.854
 2169SOL     OW 6552   0.071   4.969   4.729
 2169SOL    HW1 6553   0.088   4.990   4.826
 2169SOL    HW2 6554   6.973   4.955   4.715
 2170SOL     OW 6555   0.681   5.397   5.460
 2170SOL    HW1 6556   0.617   5.473   5.456
 2170SOL    HW2 6557   0.751   5.409   5.389
 2171SOL     OW 6558   1.719   3.873   4.224
 2171SOL    HW1 6559   1.794   3.862   4.159
 2171SOL    HW2 6560   1.702   3.785   4.269
 2172SOL     OW 6561   1.395   5.294   4.211
 2172SOL    HW1 6562   1.458   5.326   4.140
 2172SOL    HW2 6563   1.340   5.371   4.244
 2173SOL     OW 6564   0.139   5.509   5.576
 2173SOL    HW1 6565   0.094   5.436   5.627
 2173SOL    HW2 6566   0.194   5.565   5.639
 2174SOL     OW 6567   1.282   4.652   4.390
 2174SOL    HW1 6568   1.356   4.587   4.406
 2174SOL    HW2 6569   1.315   4.729   4.336
 2175SOL     OW 6570   0.805   5.002   5.151
 2175SOL    HW1 6571   0.776   5.045   5.237
 2175SOL    HW2 6572   0.735   5.018   5.081
 2176SOL     OW 6573   0.672   5.346   3.878
 2176SOL    HW1 6574   0.687   5.365   3.780
 2176SOL    HW2 6575   0.615   5.265   3.887
 2177SOL     OW 6576   1.618   5.452   5.111
 2177SOL    HW1 6577   1.675   5.453   5.029
 2177SOL    HW2 6578   1.603   5.546   5.143
 2178SOL     OW 6579   1.842   3.894   4.688
 2178SOL    HW1 6580   1.876   3.803   4.665
 2178SOL    HW2 6581   1.751   3.906   4.648
 2179SOL     OW 6582   0.263   4.040   4.438
 2179SOL    HW1 6583   0.187   4.102   4.418
 2179SOL    HW2 6584   0.265   4.021   4.536
 2180SOL     OW 6585   1.208   5.325   3.757
 2180SOL    HW1 6586   1.199   5.231   3.790
 2180SOL    HW2 6587   1.141   5.342   3.685
 2181SOL     OW 6588   0.824   4.734   5.102
 2181SOL    HW1 6589   0.873   4.719   5.016
 2181SOL    HW2 6590   0.820   4.832   5.122
 2182SOL     OW 6591   0.919   4.634   4.011
 2182SOL    HW1 6592   0.980   4.670   3.941
 2182SOL    HW2 6593   0.966   4.563   4.063
 2183SOL     OW 6594   1.489   5.353   3.766
 2183SOL    HW1 6595   1.390   5.342   3.755
 2183SOL    HW2 6596   1.532   5.359   3.676
 2184SOL     OW 6597   0.372   5.031   5.210
 2184SOL    HW1 6598   0.359   5.112   5.153
 2184SOL    HW2 6599   0.302   4.963   5.188
 2185SOL     OW 6600   1.614   5.008   5.008
 2185SOL    HW1 6601   1.677   4.989   5.084
 2185SOL    HW2 6602   1.548   5.078   5.036
 2186SOL     OW 6603   1.060   4.830   4.438
 2186SOL    HW1 6604   0.984   4.780   4.478
 2186SOL    HW2 6605   1.128   4.765   4.404
 2187SOL     OW 6606   1.022   3.963   4.691
 2187SOL    HW1 6607   1.018   3.919   4.601
 2187SOL    HW2 6608   1.020   3.893   4.763
 2188SOL     OW 6609   0.607   5.211   4.205
 2188SOL    HW1 6610   0.657   5.157   4.137
 2188SOL    HW2 6611   0.530   5.257   4.161
 2189SOL     OW 6612   1.731   4.118   5.105
 2189SOL    HW1 6613   1.803   4.186   5.105
 2189SOL    HW2 6614   1.756   4.042   5.044
 2190SOL     OW 6615   0.255   5.074   3.998
 2190SOL    HW1 6616   0.157   5.075   3.980
 2190SOL    HW2 6617   0.273   5.111   4.089
 2191SOL     OW 6618   0.120   4.698   5.426
 2191SOL    HW1 6619   0.066   4.748   5.493
 2191SOL    HW2 6620   0.211   4.680   5.464
 2192SOL     OW 6621   0.682   3.919   5.223
 2192SOL    HW1 6622   0.769   3.895   5.179
 2192SOL    HW2 6623   0.700   3.952   5.316
 2193SOL     OW 6624   0.095   4.046   3.765
 2193SOL    HW1 6625   6.999   4.018   3.760
 2193SOL    HW2 6626   0.109   4.129   3.711
 2194SOL     OW 6627   1.424   4.581   5.119
 2194SOL    HW1 6628   1.369   4.645   5.066
 2194SOL    HW2 6629   1.518   4.582   5.086
 2195SOL     OW 6630   0.078   3.911   4.066
 2195SOL    HW1 6631   0.024   3.908   3.982
 2195SOL    HW2 6632   0.152   3.845   4.061
 2196SOL     OW 6633   1.180   5.062   3.844
 2196SOL    HW1 6634   1.084   5.035   3.837
 2196SOL    HW2 6635   1.207   5.063   3.940
 2197SOL     OW 6636   0.624   4.554   5.158
 2197SOL    HW1 6637   0.680   4.636   5.143
 2197SOL    HW2 6638   0.683   4.474   5.168
 2198SOL     OW 6639   1.485   5.511   4.711
 2198SOL    HW1 6640   1.506   5.572   4.635
 2198SOL    HW2 6641   1.570   5.478   4.752
 2199SOL     OW 6642   0.718   4.283   5.428
 2199SOL    HW1 6643   0.764   4.351   5.486
 2199SOL    HW2 6644   0.740   4.191   5.460
 2200SOL     OW 6645   1.473   4.921   5.359
 2200SOL    HW1 6646   1.458   4.934   5.457
 2200SOL    HW2 6647   1.569   4.939   5.337
 2201SOL     OW 6648   0.372   5.469   5.287
 2201SOL    HW1 6649   0.285   5.516   5.272
 2201SOL    HW2 6650   0.356   5.385   5.339
 2202SOL     OW 6651   1.666   4.602   4.980
 2202SOL    HW1 6652   1.661   4.511   4.939
 2202SOL    HW2 6653   1.654   4.672   4.909
 2203SOL     OW 6654   1.219   4.041   4.184
 2203SOL    HW1 6655   1.283   3.965   4.174
 2203SOL    HW2 6656   1.246   4.097   4.263
 2204SOL     OW 6657   0.589   4.462   4.394
 2204SOL    HW1 6658   0.629   4.552   4.384
 2204SOL    HW2 6659   0.520   4.448   4.322
 2205SOL     OW 6660   1.751   4.089   5.376
 2205SOL    HW1 6661   1.742   4.105   5.278
 2205SOL    HW2 6662   1.678   4.029   5.408
 2206SOL     OW 6663   1.752   4.656   5.234
 2206SOL    HW1 6664   1.741   4.753   5.255
 2206SOL    HW2 6665   1.731   4.641   5.137
 2207SOL     OW 6666   0.870   5.088   3.768
 2207SOL    HW1 6667   0.825   5.112   3.854
 2207SOL    HW2 6668   0.882   5.171   3.712
 2208SOL     OW 6669   0.666   5.511   4.667
 2208SOL    HW1 6670   0.642   5.605   4.644
 2208SOL    HW2 6671   0.764   5.497   4.655
 2209SOL     OW 6672   0.869   4.694   4.580
 2209SOL    HW1 6673   0.920   4.616   4.617
 2209SOL    HW2 6674   0.827   4.745   4.655
 2210SOL     OW 6675   1.077   4.713   3.808
 2210SOL    HW1 6676   1.050   4.767   3.729
 2210SOL    HW2 6677   1.155   4.655   3.784
 2211SOL     OW 6678   1.847   5.280   4.571
 2211SOL    HW1 6679   1.770   5.269   4.508
 2211SOL    HW2 6680   1.842   5.211   4.643
 2212SOL     OW 6681   0.242   5.032   5.589
 2212SOL    HW1 6682   0.150   5.000   5.566
 2212SOL    HW2 6683   0.251   5.042   5.688
 2213SOL     OW 6684   0.150   4.995   4.414
 2213SOL    HW1 6685   0.101   4.948   4.488
 2213SOL    HW2 6686   0.197   4.928   4.357
 2214SOL     OW 6687   0.685   5.132   5.359
 2214SOL    HW1 6688   0.603   5.082   5.387
 2214SOL    HW2 6689   0.681   5.226   5.395
 2215SOL     OW 6690   1.805   3.907   4.958
 2215SOL    HW1 6691   1.820   3.811   4.982
 2215SOL    HW2 6692   1.818   3.918   4.859
 2216SOL     OW 6693   0.455   4.153   4.263
 2216SOL    HW1 6694   0.478   4.085   4.194
 2216SOL    HW2 6695   0.397   4.112   4.333
 2217SOL     OW 6696   1.694   5.207   4.818
 2217SOL    HW1 6697   1.613   5.189   4.763
 2217SOL    HW2 6698   1.703   5.136   4.888
 2218SOL     OW 6699   0.331   4.276   5.015
 2218SOL    HW1 6700   0.388   4.220   5.076
 2218SOL    HW2 6701   0.348   4.249   4.920
 2219SOL     OW 6702   0.828   5.303   4.402
 2219SOL    HW1 6703   0.815   5.364   4.324
 2219SOL    HW2 6704   0.751   5.240   4.409
 2220SOL     OW 6705   1.431   3.954   4.841
 2220SOL    HW1 6706   1.454   3.865   4.879
 2220SOL    HW2 6707   1.376   4.006   4.908
 2221SOL     OW 6708   1.010   3.740   4.863
 2221SOL    HW1 6709   0.946   3.677   4.819
 2221SOL    HW2 6710   1.101   3.700   4.864
 2222SOL     OW 6711   0.774   5.055   4.045
 2222SOL    HW1 6712   0.746   4.960   4.053
 2222SOL    HW2 6713   0.859   5.069   4.096
 2223SOL     OW 6714   0.626   5.282   5.014
 2223SOL    HW1 6715   0.623   5.369   5.064
 2223SOL    HW2 6716   0.716   5.271   4.972
 2224SOL     OW 6717   1.348   3.781   3.903
 2224SOL    HW1 6718   1.393   3.720   3.838
 2224SOL    HW2 6719   1.256   3.747   3.923
 2225SOL     OW 6720   1.292   4.188   4.405
 2225SOL    HW1 6721   1.238   4.273   4.407
 2225SOL    HW2 6722   1.289   4.145   4.495
 2226SOL     OW 6723   1.587   3.928   4.607
 2226SOL    HW1 6724   1.527   3.947   4.686
 2226SOL    HW2 6725   1.588   4.007   4.547
 2227SOL     OW 6726   0.071   4.789   4.001
 2227SOL    HW1 6727   0.164   4.752   4.001
 2227SOL    HW2 6728   0.006   4.716   4.022
 2228SOL     OW 6729   0.884   5.386   4.065
 2228SOL    HW1 6730   0.811   5.364   4.001
 2228SOL    HW2 6731   0.857   5.463   4.123
 2229SOL     OW 6732   0.188   4.376   5.706
 2229SOL    HW1 6733   0.175   4.310   5.780
 2229SOL    HW2 6734   0.228   4.331   5.627
 2230SOL     OW 6735   0.228   4.000   6.569
 2230SOL    HW1 6736   0.281   3.968   6.647
 2230SOL    HW2 6737   0.131   3.978   6.583
 2231SOL     OW 6738   6.990   4.109   6.239
 2231SOL    HW1 6739   6.941   4.105   6.326
 2231SOL    HW2 6740   0.010   4.016   6.208
 2232SOL     OW 6741   0.560   5.006   6.758
 2232SOL    HW1 6742   0.473   5.027   6.714
 2232SOL    HW2 6743   0.588   5.085   6.814
 2233SOL     OW 6744   1.563   5.237   6.294
 2233SOL    HW1 6745   1.519   5.214   6.380
 2233SOL    HW2 6746   1.494   5.244   6.222
 2234SOL     OW 6747   1.132   4.426   6.282
 2234SOL    HW1 6748   1.184   4.510   6.266
 2234SOL    HW2 6749   1.081   4.434   6.367
 2235SOL     OW 6750   1.769   4.324   5.809
 2235SOL    HW1 6751   1.746   4.320   5.712
 2235SOL    HW2 6752   1.731   4.245   5.856
 2236SOL     OW 6753   0.757   4.868   6.628
 2236SOL    HW1 6754   0.683   4.894   6.690
 2236SOL    HW2 6755   0.790   4.948   6.579
 2237SOL     OW 6756   0.683   4.724   6.236
 2237SOL    HW1 6757   0.755   4.713   6.305
 2237SOL    HW2 6758   0.609   4.780   6.274
 2238SOL     OW 6759   0.337   5.129   6.640
 2238SOL    HW1 6760   0.253   5.098   6.594
 2238SOL    HW2 6761   0.385   5.193   6.582
 2239SOL     OW 6762   1.611   4.171   6.329
 2239SOL    HW1 6763   1.535   4.188   6.267
 2239SOL    HW2 6764   1.614   4.244   6.398
 2240SOL     OW 6765   0.226   5.433   6.052
 2240SOL    HW1 6766   0.240   5.513   6.111
 2240SOL    HW2 6767   0.297   5.430   5.982
 2241SOL     OW 6768   0.275   5.166   6.105
 2241SOL    HW1 6769   0.253   5.264   6.112
 2241SOL    HW2 6770   0.225   5.116   6.175
 2242SOL     OW 6771   0.267   4.804   6.489
 2242SOL    HW1 6772   0.265   4.710   6.522
 2242SOL    HW2 6773   0.195   4.857   6.534
 2243SOL     OW 6774   0.611   5.529   6.985
 2243SOL    HW1 6775   0.518   5.508   0.014
 2243SOL    HW2 6776   0.637   5.619   0.020
 2244SOL     OW 6777   0.581   4.711   5.726
 2244SOL    HW1 6778   0.629   4.759   5.652
 2244SOL    HW2 6779   0.621   4.739   5.814
 2245SOL     OW 6780   0.132   4.339   6.159
 2245SOL    HW1 6781   0.063   4.270   6.183
 2245SOL    HW2 6782   0.122   4.418   6.221
 2246SOL     OW 6783   1.846   5.480   5.919
 2246SOL    HW1 6784   1.915   5.449   5.984
 2246SOL    HW2 6785   1.862   5.576   5.895
 2247SOL     OW 6786   0.037   5.317   5.733
 2247SOL    HW1 6787   0.026   5.218   5.745
 2247SOL    HW2 6788   6.961   5.364   5.778
 2248SOL     OW 6789   1.691   4.645   6.231
 2248SOL    HW1 6790   1.775   4.593   6.212
 2248SOL    HW2 6791   1.667   4.699   6.150
 2249SOL     OW 6792   1.652   4.829   6.017
 2249SOL    HW1 6793   1.741   4.827   5.972
 2249SOL    HW2 6794   1.654   4.896   6.092
 2250SOL     OW 6795   0.611   5.114   6.321
 2250SOL    HW1 6796   0.563   5.027   6.334
 2250SOL    HW2 6797   0.598   5.144   6.226
 2251SOL     OW 6798   0.816   3.732   6.094
 2251SOL    HW1 6799   0.862   3.818   6.072
 2251SOL    HW2 6800   0.718   3.748   6.103
 2252SOL     OW 6801   0.203   4.675   6.833
 2252SOL    HW1 6802   0.291   4.630   6.823
 2252SOL    HW2 6803   0.140   4.641   6.762
 2253SOL     OW 6804   1.532   4.723   5.790
 2253SOL    HW1 6805   1.458   4.663   5.819
 2253SOL    HW2 6806   1.578   4.761   5.870
 2254SOL     OW 6807   1.456   5.147   6.533
 2254SOL    HW1 6808   1.397   5.161   6.613
 2254SOL    HW2 6809   1.452   5.051   6.506
 2255SOL     OW 6810   1.651   5.471   6.162
 2255SOL    HW1 6811   1.633   5.443   6.068
 2255SOL    HW2 6812   1.629   5.396   6.224
 2256SOL     OW 6813   0.590   4.442   5.852
 2256SOL    HW1 6814   0.600   4.529   5.804
 2256SOL    HW2 6815   0.526   4.452   5.928
 2257SOL     OW 6816   1.275   4.078   6.517
 2257SOL    HW1 6817   1.181   4.046   6.525
 2257SOL    HW2 6818   1.333   4.028   6.582
 2258SOL     OW 6819   1.583   5.396   5.894
 2258SOL    HW1 6820   1.679   5.424   5.890
 2258SOL    HW2 6821   1.550   5.379   5.801
 2259SOL     OW 6822   0.795   4.333   0.046
 2259SOL    HW1 6823   0.733   4.375   0.112
 2259SOL    HW2 6824   0.742   4.278   6.982
 2260SOL     OW 6825   1.005   4.117   6.795
 2260SOL    HW1 6826   0.945   4.171   6.853
 2260SOL    HW2 6827   0.950   4.070   6.725
 2261SOL     OW 6828   1.049   4.423   6.011
 2261SOL    HW1 6829   1.071   4.417   6.108
 2261SOL    HW2 6830   0.963   4.375   5.994
 2262SOL     OW 6831   0.104   4.541   6.358
 2262SOL    HW1 6832   0.197   4.531   6.396
 2262SOL    HW2 6833   0.044   4.581   6.427
 2263SOL     OW 6834   0.108   5.554   0.174
 2263SOL    HW1 6835   0.095   5.527   0.270
 2263SOL    HW2 6836   0.020   5.577   0.134
 2264SOL     OW 6837   0.896   4.077   5.783
 2264SOL    HW1 6838   0.936   4.144   5.720
 2264SOL    HW2 6839   0.904   3.985   5.743
 2265SOL     OW 6840   1.379   4.867   6.120
 2265SOL    HW1 6841   1.463   4.851   6.069
 2265SOL    HW2 6842   1.323   4.934   6.072
 2266SOL     OW 6843   0.550   3.898   6.482
 2266SOL    HW1 6844   0.563   3.928   6.577
 2266SOL    HW2 6845   0.554   3.978   6.421
 2267SOL     OW 6846   0.996   5.167   6.051
 2267SOL    HW1 6847   0.964   5.247   6.000
 2267SOL    HW2 6848   0.979   5.180   6.148
 2268SOL     OW 6849   0.357   5.542   6.450
 2268SOL    HW1 6850   0.396   5.451   6.465
 2268SOL    HW2 6851   0.426   5.612   6.472
 2269SOL     OW 6852   1.803   4.781   6.450
 2269SOL    HW1 6853   1.752   4.756   6.367
 2269SOL    HW2 6854   1.741   4.781   6.528
 2270SOL     OW 6855   0.318   4.669   5.836
 2270SOL    HW1 6856   0.405   4.695   5.794
 2270SOL    HW2 6857   0.287   4.582   5.798
 2271SOL     OW 6858   1.482   4.473   6.307
 2271SOL    HW1 6859   1.474   4.426   6.395
 2271SOL    HW2 6860   1.563   4.532   6.308
 2272SOL     OW 6861   1.122   5.499   5.813
 2272SOL    HW1 6862   1.042   5.462   5.861
 2272SOL    HW2 6863   1.151   5.436   5.742
 2273SOL     OW 6864   1.625   5.106   5.674
 2273SOL    HW1 6865   1.586   5.197   5.658
 2273SOL    HW2 6866   1.556   5.036   5.655
 2274SOL     OW 6867   0.469   5.458   5.904
 2274SOL    HW1 6868   0.509   5.520   5.971
 2274SOL    HW2 6869   0.540   5.423   5.844
 2275SOL     OW 6870   1.401   3.828   6.022
 2275SOL    HW1 6871   1.389   3.803   5.926
 2275SOL    HW2 6872   1.499   3.837   6.041
 2276SOL     OW 6873   0.255   5.533   6.782
 2276SOL    HW1 6874   0.308   5.460   6.825
 2276SOL    HW2 6875   0.191   5.493   6.716
 2277SOL     OW 6876   0.936   5.425   6.481
 2277SOL    HW1 6877   1.019   5.378   6.510
 2277SOL    HW2 6878   0.893   5.373   6.407
 2278SOL     OW 6879   0.401   4.407   6.060
 2278SOL    HW1 6880   0.429   4.314   6.080
 2278SOL    HW2 6881   0.303   4.417   6.079
 2279SOL     OW 6882   0.641   3.841   5.688
 2279SOL    HW1 6883   0.711   3.772   5.708
 2279SOL    HW2 6884   0.584   3.810   5.612
 2280SOL     OW 6885   0.875   5.242   6.760
 2280SOL    HW1 6886   0.854   5.208   6.668
 2280SOL    HW2 6887   0.913   5.168   6.815
 2281SOL     OW 6888   0.819   5.113   6.520
 2281SOL    HW1 6889   0.908   5.102   6.477
 2281SOL    HW2 6890   0.748   5.118   6.449
 2282SOL     OW 6891   0.927   4.232   6.485
 2282SOL    HW1 6892   0.901   4.224   6.389
 2282SOL    HW2 6893   0.965   4.145   6.516
 2283SOL     OW 6894   0.546   3.788   6.082
 2283SOL    HW1 6895   0.464   3.784   6.138
 2283SOL    HW2 6896   0.543   3.868   6.023
 2284SOL     OW 6897   1.426   4.923   5.629
 2284SOL    HW1 6898   1.459   4.845   5.682
 2284SOL    HW2 6899   1.337   4.952   5.665
 2285SOL     OW 6900   0.292   3.766   5.773
 2285SOL    HW1 6901   0.341   3.846   5.739
 2285SOL    HW2 6902   0.356   3.701   5.812
 2286SOL     OW 6903   0.945   3.974   6.043
 2286SOL    HW1 6904   0.914   4.016   5.958
 2286SOL    HW2 6905   1.044   3.987   6.052
 2287SOL     OW 6906   1.219   5.294   6.381
 2287SOL    HW1 6907   1.233   5.365   6.311
 2287SOL    HW2 6908   1.296   5.295   6.445
 2288SOL     OW 6909   0.467   4.874   6.318
 2288SOL    HW1 6910   0.401   4.853   6.390
 2288SOL    HW2 6911   0.425   4.861   6.229
 2289SOL     OW 6912   1.263   5.516   6.196
 2289SOL    HW1 6913   1.315   5.578   6.137
 2289SOL    HW2 6914   1.189   5.566   6.241
 2290SOL     OW 6915   1.021   4.261   5.615
 2290SOL    HW1 6916   0.976   4.347   5.591
 2290SOL    HW2 6917   1.090   4.278   5.684
 2291SOL     OW 6918   0.581   3.944   6.751
 2291SOL    HW1 6919   0.625   3.860   6.784
 2291SOL    HW2 6920   0.485   3.944   6.779
 2292SOL     OW 6921   0.865   4.183   6.223
 2292SOL    HW1 6922   0.816   4.243   6.160
 2292SOL    HW2 6923   0.894   4.100   6.175
 2293SOL     OW 6924   1.019   3.772   6.327
 2293SOL    HW1 6925   0.956   3.773   6.250
 2293SOL    HW2 6926   0.993   3.698   6.390
 2294SOL     OW 6927   1.439   4.885   6.442
 2294SOL    HW1 6928   1.370   4.813   6.445
 2294SOL    HW2 6929   1.469   4.898   6.347
 2295SOL     OW 6930   1.465   4.328   6.551
 2295SOL    HW1 6931   1.404   4.250   6.556
 2295SOL    HW2 6932   1.529   4.326   6.628
 2296SOL     OW 6933   1.843   4.534   5.966
 2296SOL    HW1 6934   1.901   4.486   6.031
 2296SOL    HW2 6935   1.813   4.470   5.895
 2297SOL     OW 6936   0.495   5.144   5.740
 2297SOL    HW1 6937   0.414   5.118   5.792
 2297SOL    HW2 6938   0.484   5.116   5.644
 2298SOL     OW 6939   1.674   4.991   6.228
 2298SOL    HW1 6940   1.773   4.989   6.241
 2298SOL    HW2 6941   1.640   5.083   6.250
 2299SOL     OW 6942   1.390   4.298   5.657
 2299SOL    HW1 6943   1.327   4.276   5.731
 2299SOL    HW2 6944   1.483   4.271   5.682
 2300SOL     OW 6945   0.530   3.986   5.896
 2300SOL    HW1 6946   0.577   3.931   5.827
 2300SOL    HW2 6947   0.503   4.074   5.856
 2301SOL     OW 6948   1.752   4.920   0.182
 2301SOL    HW1 6949   1.850   4.900   0.181
 2301SOL    HW2 6950   1.737   5.015   0.157
 2302SOL     OW 6951   1.119   4.961   6.695
 2302SOL    HW1 6952   1.035   4.922   6.732
 2302SOL    HW2 6953   1.105   4.985   6.599
 2303SOL     OW 6954   1.622   4.803   6.647
 2303SOL    HW1 6955   1.624   4.873   6.719
 2303SOL    HW2 6956   1.546   4.822   6.586
 2304SOL     OW 6957   0.711   4.781   5.960
 2304SOL    HW1 6958   0.695   4.765   6.057
 2304SOL    HW2 6959   0.790   4.728   5.930
 2305SOL     OW 6960   0.437   4.528   6.845
 2305SOL    HW1 6961   0.490   4.555   6.925
 2305SOL    HW2 6962   0.395   4.439   6.861
 2306SOL     OW 6963   1.268   4.111   6.856
 2306SOL    HW1 6964   1.296   4.186   6.917
 2306SOL    HW2 6965   1.174   4.125   6.827
 2307SOL     OW 6966   0.084   5.294   6.856
 2307SOL    HW1 6967   0.034   5.331   6.934
 2307SOL    HW2 6968   0.182   5.300   6.872
 2308SOL     OW 6969   0.341   4.840   6.077
 2308SOL    HW1 6970   0.352   4.919   6.018
 2308SOL    HW2 6971   0.340   4.756   6.022
 2309SOL     OW 6972   0.547   4.269   6.451
 2309SOL    HW1 6973   0.561   4.326   6.370
 2309SOL    HW2 6974   0.618   4.288   6.518
 2310SOL     OW 6975   1.246   5.078   5.978
 2310SOL    HW1 6976   1.307   5.151   6.009
 2310SOL    HW2 6977   1.153   5.098   6.008
 2311SOL     OW 6978   1.282   5.174   6.746
 2311SOL    HW1 6979   1.313   5.167   6.841
 2311SOL    HW2 6980   1.221   5.098   6.725
 2312SOL     OW 6981   1.577   4.345   6.067
 2312SOL    HW1 6982   1.528   4.393   6.140
 2312SOL    HW2 6983   1.624   4.412   6.010
 2313SOL     OW 6984   0.364   5.294   6.852
 2313SOL    HW1 6985   0.343   5.223   6.785
 2313SOL    HW2 6986   0.462   5.290   6.875
 2314SOL     OW 6987   0.587   4.594   6.621
 2314SOL    HW1 6988   0.618   4.689   6.616
 2314SOL    HW2 6989   0.531   4.582   6.703
 2315SOL     OW 6990   1.349   4.580   6.595
 2315SOL    HW1 6991   1.258   4.565   6.555
 2315SOL    HW2 6992   1.401   4.495   6.592
 2316SOL     OW 6993   1.198   4.251   5.851
 2316SOL    HW1 6994   1.211   4.168   5.906
 2316SOL    HW2 6995   1.154   4.321   5.906
 2317SOL     OW 6996   0.323   3.923   6.820
 2317SOL    HW1 6997   0.308   3.938   6.917
 2317SOL    HW2 6998   0.299   3.829   6.796
 2318SOL     OW 6999   0.054   5.024   6.834
 2318SOL    HW1 7000   0.087   4.960   6.903
 2318SOL    HW2 7001   0.085   5.116   6.856
 2319SOL     OW 7002   0.726   4.351   6.641
 2319SOL    HW1 7003   0.804   4.330   6.582
 2319SOL    HW2 7004   0.695   4.445   6.623
 2320SOL     OW 7005   0.301   3.785   6.209
 2320SOL    HW1 7006   0.281   3.881   6.227
 2320SOL    HW2 7007   0.313   3.736   6.296
 2321SOL     OW 7008   1.626   4.104   5.949
 2321SOL    HW1 7009   1.652   4.031   6.012
 2321SOL    HW2 7010   1.598   4.185   6.001
 2322SOL     OW 7011   1.022   4.481   6.550
 2322SOL    HW1 7012   1.018   4.502   6.648
 2322SOL    HW2 7013   0.997   4.385   6.535
 2323SOL     OW 7014   1.916   5.200   0.195
 2323SOL    HW1 7015   1.895   5.232   0.103
 2323SOL    HW2 7016   1.926   5.278   0.256
 2324SOL     OW 7017   1.528   3.993   5.716
 2324SOL    HW1 7018   1.458   3.925   5.741
 2324SOL    HW2 7019   1.564   4.035   5.799
 2325SOL     OW 7020   1.289   4.550   5.613
 2325SOL    HW1 7021   1.330   4.459   5.621
 2325SOL    HW2 7022   1.320   4.593   5.528
 2326SOL     OW 7023   1.072   5.060   6.439
 2326SOL    HW1 7024   1.075   4.983   6.376
 2326SOL    HW2 7025   1.130   5.134   6.404
 2327SOL     OW 7026   0.320   4.526   6.532
 2327SOL    HW1 7027   0.417   4.550   6.529
 2327SOL    HW2 7028   0.311   4.432   6.567
 2328SOL     OW 7029   0.328   4.247   6.604
 2328SOL    HW1 7030   0.290   4.156   6.586
 2328SOL    HW2 7031   0.410   4.259   6.547
 2329SOL     OW 7032   1.141   3.963   0.054
 2329SOL    HW1 7033   1.199   3.993   0.130
 2329SOL    HW2 7034   1.178   3.999   6.968
 2330SOL     OW 7035   6.991   5.047   5.802
 2330SOL    HW1 7036   6.918   5.072   5.867
 2330SOL    HW2 7037   0.020   4.953   5.821
 2331SOL     OW 7038   0.097   5.484   6.533
 2331SOL    HW1 7039   0.076   5.410   6.468
 2331SOL    HW2 7040   0.185   5.526   6.509
 2332SOL     OW 7041   0.494   5.302   6.492
 2332SOL    HW1 7042   0.563   5.368   6.519
 2332SOL    HW2 7043   0.535   5.235   6.430
 2333SOL     OW 7044   0.981   4.521   6.823
 2333SOL    HW1 7045   1.059   4.498   6.881
 2333SOL    HW2 7046   0.899   4.475   6.857
 2334SOL     OW 7047   0.059   4.336   6.693
 2334SOL    HW1 7048   0.121   4.288   6.631
 2334SOL    HW2 7049   0.048   4.282   6.776
 2335SOL     OW 7050   0.816   4.296   5.945
 2335SOL    HW1 7051   0.827   4.216   5.886
 2335SOL    HW2 7052   0.738   4.350   5.913
 2336SOL     OW 7053   1.647   4.334   6.752
 2336SOL    HW1 7054   1.631   4.275   6.831
 2336SOL    HW2 7055   1.741   4.323   6.721
 2337SOL     OW 7056   0.674   4.188   6.850
 2337SOL    HW1 7057   0.643   4.098   6.818
 2337SOL    HW2 7058   0.689   4.248   6.772
 2338SOL     OW 7059   0.941   5.386   6.999
 2338SOL    HW1 7060   0.910   5.377   6.904
 2338SOL    HW2 7061   0.924   5.479   0.031
 2339SOL     OW 7062   0.457   4.213   5.768
 2339SOL    HW1 7063   0.514   4.293   5.785
 2339SOL    HW2 7064   0.370   4.223   5.816
 2340SOL     OW 7065   0.161   4.850   0.029
 2340SOL    HW1 7066   0.180   4.802   0.114
 2340SOL    HW2 7067   0.176   4.788   6.952
 2341SOL     OW 7068   1.286   4.730   6.813
 2341SOL    HW1 7069   1.324   4.678   6.736
 2341SOL    HW2 7070   1.258   4.821   6.781
 2342SOL     OW 7071   1.315   4.581   5.886
 2342SOL    HW1 7072   1.239   4.553   5.944
 2342SOL    HW2 7073   1.290   4.568   5.790
 2343SOL     OW 7074   1.783   5.471   6.741
 2343SOL    HW1 7075   1.844   5.496   6.667
 2343SOL    HW2 7076   1.745   5.380   6.724
 2344SOL     OW 7077   1.246   5.449   6.700
 2344SOL    HW1 7078   1.329   5.479   6.652
 2344SOL    HW2 7079   1.251   5.351   6.719
 2345SOL     OW 7080   0.062   4.966   6.575
 2345SOL    HW1 7081   0.069   4.987   6.673
 2345SOL    HW2 7082   6.966   4.954   6.551
 2346SOL     OW 7083   1.720   3.873   6.086
 2346SOL    HW1 7084   1.795   3.863   6.021
 2346SOL    HW2 7085   1.702   3.785   6.131
 2347SOL     OW 7086   1.395   5.294   6.073
 2347SOL    HW1 7087   1.458   5.326   6.002
 2347SOL    HW2 7088   1.340   5.371   6.106
 2348SOL     OW 7089   1.281   4.652   6.252
 2348SOL    HW1 7090   1.356   4.587   6.268
 2348SOL    HW2 7091   1.315   4.729   6.198
 2349SOL     OW 7092   0.673   5.346   5.740
 2349SOL    HW1 7093   0.687   5.365   5.642
 2349SOL    HW2 7094   0.615   5.265   5.749
 2350SOL     OW 7095   1.841   3.896   6.557
 2350SOL    HW1 7096   1.875   3.805   6.533
 2350SOL    HW2 7097   1.750   3.909   6.518
 2351SOL     OW 7098   0.263   4.042   6.296
 2351SOL    HW1 7099   0.186   4.102   6.275
 2351SOL    HW2 7100   0.264   4.023   6.394
 2352SOL     OW 7101   1.208   5.325   5.619
 2352SOL    HW1 7102   1.199   5.231   5.652
 2352SOL    HW2 7103   1.141   5.342   5.547
 2353SOL     OW 7104   0.778   4.749   6.952
 2353SOL    HW1 7105   0.837   4.706   6.884
 2353SOL    HW2 7106   0.824   4.830   6.989
 2354SOL     OW 7107   0.919   4.634   5.873
 2354SOL    HW1 7108   0.980   4.670   5.803
 2354SOL    HW2 7109   0.966   4.563   5.925
 2355SOL     OW 7110   1.489   5.353   5.628
 2355SOL    HW1 7111   1.390   5.342   5.617
 2355SOL    HW2 7112   1.532   5.359   5.538
 2356SOL     OW 7113   1.618   4.993   6.833
 2356SOL    HW1 7114   1.701   5.009   6.887
 2356SOL    HW2 7115   1.541   4.976   6.894
 2357SOL     OW 7116   1.060   4.830   6.300
 2357SOL    HW1 7117   0.983   4.779   6.340
 2357SOL    HW2 7118   1.128   4.765   6.266
 2358SOL     OW 7119   1.019   3.961   6.541
 2358SOL    HW1 7120   1.018   3.911   6.454
 2358SOL    HW2 7121   1.021   3.895   6.616
 2359SOL     OW 7122   0.607   5.211   6.067
 2359SOL    HW1 7123   0.657   5.157   5.999
 2359SOL    HW2 7124   0.530   5.257   6.023
 2360SOL     OW 7125   1.698   4.147   6.943
 2360SOL    HW1 7126   1.760   4.155   0.021
 2360SOL    HW2 7127   1.705   4.055   6.904
 2361SOL     OW 7128   0.255   5.074   5.860
 2361SOL    HW1 7129   0.157   5.076   5.842
 2361SOL    HW2 7130   0.274   5.111   5.951
 2362SOL     OW 7131   0.673   3.913   0.080
 2362SOL    HW1 7132   0.765   3.891   0.047
 2362SOL    HW2 7133   0.677   3.993   0.140
 2363SOL     OW 7134   0.099   4.043   5.624
 2363SOL    HW1 7135   0.003   4.017   5.621
 2363SOL    HW2 7136   0.113   4.128   5.573
 2364SOL     OW 7137   0.077   3.911   5.928
 2364SOL    HW1 7138   0.023   3.906   5.844
 2364SOL    HW2 7139   0.152   3.845   5.923
 2365SOL     OW 7140   1.180   5.062   5.706
 2365SOL    HW1 7141   1.084   5.035   5.699
 2365SOL    HW2 7142   1.207   5.063   5.802
 2366SOL     OW 7143   1.487   5.506   6.574
 2366SOL    HW1 7144   1.502   5.569   6.498
 2366SOL    HW2 7145   1.575   5.481   6.614
 2367SOL     OW 7146   1.493   5.019   0.286
 2367SOL    HW1 7147   1.409   4.972   0.310
 2367SOL    HW2 7148   1.564   4.952   0.264
 2368SOL     OW 7149   0.375   5.487   0.101
 2368SOL    HW1 7150   0.287   5.533   0.100
 2368SOL    HW2 7151   0.400   5.463   0.195
 2369SOL     OW 7152   1.700   4.601   6.829
 2369SOL    HW1 7153   1.666   4.511   6.802
 2369SOL    HW2 7154   1.666   4.670   6.766
 2370SOL     OW 7155   1.219   4.041   6.046
 2370SOL    HW1 7156   1.283   3.964   6.035
 2370SOL    HW2 7157   1.246   4.096   6.125
 2371SOL     OW 7158   0.587   4.462   6.256
 2371SOL    HW1 7159   0.629   4.553   6.246
 2371SOL    HW2 7160   0.519   4.449   6.184
 2372SOL     OW 7161   1.775   4.635   0.093
 2372SOL    HW1 7162   1.758   4.730   0.119
 2372SOL    HW2 7163   1.746   4.622   6.998
 2373SOL     OW 7164   0.870   5.088   5.630
 2373SOL    HW1 7165   0.824   5.113   5.716
 2373SOL    HW2 7166   0.882   5.170   5.574
 2374SOL     OW 7167   0.667   5.510   6.533
 2374SOL    HW1 7168   0.642   5.603   6.506
 2374SOL    HW2 7169   0.765   5.496   6.518
 2375SOL     OW 7170   0.869   4.693   6.442
 2375SOL    HW1 7171   0.918   4.615   6.480
 2375SOL    HW2 7172   0.829   4.747   6.517
 2376SOL     OW 7173   1.077   4.712   5.670
 2376SOL    HW1 7174   1.050   4.767   5.591
 2376SOL    HW2 7175   1.155   4.655   5.646
 2377SOL     OW 7176   1.849   5.281   6.432
 2377SOL    HW1 7177   1.772   5.268   6.370
 2377SOL    HW2 7178   1.848   5.209   6.502
 2378SOL     OW 7179   0.151   4.996   6.276
 2378SOL    HW1 7180   0.106   4.949   6.352
 2378SOL    HW2 7181   0.197   4.928   6.218
 2379SOL     OW 7182   1.812   3.898   6.836
 2379SOL    HW1 7183   1.794   3.800   6.838
 2379SOL    HW2 7184   1.825   3.927   6.741
 2380SOL     OW 7185   0.456   4.153   6.125
 2380SOL    HW1 7186   0.479   4.086   6.055
 2380SOL    HW2 7187   0.397   4.112   6.194
 2381SOL     OW 7188   1.680   5.226   6.682
 2381SOL    HW1 7189   1.606   5.207   6.619
 2381SOL    HW2 7190   1.690   5.151   6.747
 2382SOL     OW 7191   0.319   4.265   6.884
 2382SOL    HW1 7192   0.392   4.209   6.924
 2382SOL    HW2 7193   0.322   4.257   6.784
 2383SOL     OW 7194   0.829   5.303   6.263
 2383SOL    HW1 7195   0.817   5.365   6.185
 2383SOL    HW2 7196   0.750   5.241   6.268
 2384SOL     OW 7197   1.433   3.959   6.704
 2384SOL    HW1 7198   1.467   3.877   6.751
 2384SOL    HW2 7199   1.379   4.014   6.767
 2385SOL     OW 7200   1.016   3.743   6.714
 2385SOL    HW1 7201   0.953   3.676   6.674
 2385SOL    HW2 7202   1.106   3.701   6.724
 2386SOL     OW 7203   0.774   5.055   5.907
 2386SOL    HW1 7204   0.746   4.960   5.915
 2386SOL    HW2 7205   0.859   5.068   5.957
 2387SOL     OW 7206   0.634   5.285   6.874
 2387SOL    HW1 7207   0.629   5.381   6.901
 2387SOL    HW2 7208   0.719   5.269   6.824
 2388SOL     OW 7209   1.353   3.775   5.755
 2388SOL    HW1 7210   1.395   3.708   5.693
 2388SOL    HW2 7211   1.261   3.745   5.778
 2389SOL     OW 7212   1.292   4.187   6.267
 2389SOL    HW1 7213   1.239   4.272   6.269
 2389SOL    HW2 7214   1.289   4.143   6.356
 2390SOL     OW 7215   1.587   3.929   6.471
 2390SOL    HW1 7216   1.525   3.948   6.548
 2390SOL    HW2 7217   1.588   4.008   6.410
 2391SOL     OW 7218   0.071   4.789   5.863
 2391SOL    HW1 7219   0.164   4.752   5.863
 2391SOL    HW2 7220   0.006   4.716   5.884
 2392SOL     OW 7221   0.884   5.386   5.927
 2392SOL    HW1 7222   0.810   5.364   5.863
 2392SOL    HW2 7223   0.857   5.463   5.984
 2393SOL     OW 7224   0.230   6.235   0.129
 2393SOL    HW1 7225   0.153   6.183   0.166
 2393SOL    HW2 7226   0.249   6.205   0.036
 2394SOL     OW 7227   0.231   5.857   0.987
 2394SOL    HW1 7228   0.281   5.825   1.068
 2394SOL    HW2 7229   0.133   5.840   1.000
 2395SOL     OW 7230   6.987   5.973   0.657
 2395SOL    HW1 7231   6.939   5.972   0.745
 2395SOL    HW2 7232   0.003   5.879   0.627
 2396SOL     OW 7233   0.569   6.869   1.173
 2396SOL    HW1 7234   0.492   6.868   1.109
 2396SOL    HW2 7235   0.545   6.925   1.253
 2397SOL     OW 7236   1.539   0.056   0.687
 2397SOL    HW1 7237   1.519   0.053   0.785
 2397SOL    HW2 7238   1.458   0.089   0.638
 2398SOL     OW 7239   1.130   6.286   0.696
 2398SOL    HW1 7240   1.183   6.369   0.681
 2398SOL    HW2 7241   1.080   6.294   0.782
 2399SOL     OW 7242   1.782   6.169   0.203
 2399SOL    HW1 7243   1.714   6.210   0.142
 2399SOL    HW2 7244   1.737   6.104   0.264
 2400SOL     OW 7245   0.766   6.748   1.026
 2400SOL    HW1 7246   0.696   6.783   1.088
 2400SOL    HW2 7247   0.764   6.801   0.941
 2401SOL     OW 7248   0.874   6.352   1.821
 2401SOL    HW1 7249   0.859   6.419   1.895
 2401SOL    HW2 7250   0.899   6.400   1.737
 2402SOL     OW 7251   0.684   6.583   0.651
 2402SOL    HW1 7252   0.755   6.573   0.720
 2402SOL    HW2 7253   0.608   6.636   0.687
 2403SOL     OW 7254   0.690   6.734   1.815
 2403SOL    HW1 7255   0.729   6.824   1.832
 2403SOL    HW2 7256   0.605   6.744   1.763
 2404SOL     OW 7257   0.344   0.007   1.049
 2404SOL    HW1 7258   0.270   6.955   1.007
 2404SOL    HW2 7259   0.393   0.058   0.979
 2405SOL     OW 7260   0.444   5.981   1.491
 2405SOL    HW1 7261   0.526   5.924   1.493
 2405SOL    HW2 7262   0.363   5.923   1.501
 2406SOL     OW 7263   1.611   6.034   0.744
 2406SOL    HW1 7264   1.534   6.052   0.684
 2406SOL    HW2 7265   1.621   6.109   0.810
 2407SOL     OW 7266   0.266   6.670   0.916
 2407SOL    HW1 7267   0.256   6.574   0.943
 2407SOL    HW2 7268   0.192   6.724   0.955
 2408SOL     OW 7269   0.587   6.550   0.141
 2408SOL    HW1 7270   0.650   6.567   0.065
 2408SOL    HW2 7271   0.623   6.592   0.224
 2409SOL     OW 7272   1.597   5.711   1.469
 2409SOL    HW1 7273   1.614   5.791   1.412
 2409SOL    HW2 7274   1.582   5.740   1.564
 2410SOL     OW 7275   0.130   6.205   0.571
 2410SOL    HW1 7276   0.063   6.135   0.595
 2410SOL    HW2 7277   0.122   6.282   0.635
 2411SOL     OW 7278   1.691   6.495   0.650
 2411SOL    HW1 7279   1.779   6.448   0.639
 2411SOL    HW2 7280   1.672   6.550   0.569
 2412SOL     OW 7281   1.660   6.673   0.444
 2412SOL    HW1 7282   1.722   6.697   0.370
 2412SOL    HW2 7283   1.670   6.738   0.520
 2413SOL     OW 7284   0.145   6.317   1.581
 2413SOL    HW1 7285   0.243   6.325   1.566
 2413SOL    HW2 7286   0.109   6.404   1.615
 2414SOL     OW 7287   1.314   6.817   1.431
 2414SOL    HW1 7288   1.338   6.747   1.364
 2414SOL    HW2 7289   1.373   6.808   1.511
 2415SOL     OW 7290   0.820   5.598   0.513
 2415SOL    HW1 7291   0.865   5.684   0.490
 2415SOL    HW2 7292   0.721   5.613   0.521
 2416SOL     OW 7293   0.212   6.554   1.264
 2416SOL    HW1 7294   0.290   6.494   1.245
 2416SOL    HW2 7295   0.133   6.524   1.209
 2417SOL     OW 7296   1.505   6.590   0.209
 2417SOL    HW1 7297   1.433   6.527   0.239
 2417SOL    HW2 7298   1.578   6.592   0.277
 2418SOL     OW 7299   0.351   5.838   1.827
 2418SOL    HW1 7300   0.400   5.920   1.857
 2418SOL    HW2 7301   0.255   5.846   1.852
 2419SOL     OW 7302   1.458   6.989   0.947
 2419SOL    HW1 7303   1.390   0.016   1.016
 2419SOL    HW2 7304   1.441   6.895   0.918
 2420SOL     OW 7305   0.600   6.304   0.266
 2420SOL    HW1 7306   0.604   6.393   0.221
 2420SOL    HW2 7307   0.535   6.308   0.342
 2421SOL     OW 7308   1.277   5.942   0.933
 2421SOL    HW1 7309   1.184   5.909   0.940
 2421SOL    HW2 7310   1.336   5.891   0.995
 2422SOL     OW 7311   0.790   6.198   1.451
 2422SOL    HW1 7312   0.765   6.174   1.545
 2422SOL    HW2 7313   0.752   6.130   1.388
 2423SOL     OW 7314   1.392   6.056   1.680
 2423SOL    HW1 7315   1.392   6.105   1.767
 2423SOL    HW2 7316   1.453   5.977   1.686
 2424SOL     OW 7317   0.956   6.474   1.583
 2424SOL    HW1 7318   1.015   6.400   1.548
 2424SOL    HW2 7319   0.901   6.511   1.509
 2425SOL     OW 7320   0.994   5.993   1.230
 2425SOL    HW1 7321   0.905   6.015   1.270
 2425SOL    HW2 7322   0.981   5.943   1.145
 2426SOL     OW 7323   1.051   6.287   0.427
 2426SOL    HW1 7324   1.074   6.283   0.525
 2426SOL    HW2 7325   0.965   6.239   0.411
 2427SOL     OW 7326   0.104   6.403   0.771
 2427SOL    HW1 7327   0.194   6.391   0.813
 2427SOL    HW2 7328   0.042   6.445   0.838
 2428SOL     OW 7329   0.886   5.927   0.209
 2428SOL    HW1 7330   0.930   5.990   0.145
 2428SOL    HW2 7331   0.904   5.833   0.182
 2429SOL     OW 7332   1.702   6.158   1.825
 2429SOL    HW1 7333   1.666   6.237   1.775
 2429SOL    HW2 7334   1.732   6.089   1.760
 2430SOL     OW 7335   1.390   6.722   0.557
 2430SOL    HW1 7336   1.481   6.715   0.518
 2430SOL    HW2 7337   1.351   6.812   0.535
 2431SOL     OW 7338   0.551   5.765   0.899
 2431SOL    HW1 7339   0.556   5.790   0.996
 2431SOL    HW2 7340   0.559   5.847   0.843
 2432SOL     OW 7341   1.799   6.639   0.877
 2432SOL    HW1 7342   1.748   6.626   0.792
 2432SOL    HW2 7343   1.736   6.647   0.954
 2433SOL     OW 7344   0.319   6.520   0.246
 2433SOL    HW1 7345   0.404   6.545   0.199
 2433SOL    HW2 7346   0.289   6.430   0.215
 2434SOL     OW 7347   1.484   6.329   0.723
 2434SOL    HW1 7348   1.479   6.288   0.815
 2434SOL    HW2 7349   1.563   6.390   0.718
 2435SOL     OW 7350   0.196   5.856   1.491
 2435SOL    HW1 7351   0.113   5.908   1.474
 2435SOL    HW2 7352   0.173   5.771   1.539
 2436SOL     OW 7353   1.646   0.027   0.079
 2436SOL    HW1 7354   1.623   0.123   0.095
 2436SOL    HW2 7355   1.563   6.971   0.082
 2437SOL     OW 7356   1.405   5.692   0.442
 2437SOL    HW1 7357   1.396   5.663   0.346
 2437SOL    HW2 7358   1.501   5.702   0.465
 2438SOL     OW 7359   0.402   6.272   0.469
 2438SOL    HW1 7360   0.424   6.176   0.489
 2438SOL    HW2 7361   0.306   6.290   0.490
 2439SOL     OW 7362   1.529   5.809   1.728
 2439SOL    HW1 7363   1.539   5.830   1.825
 2439SOL    HW2 7364   1.457   5.741   1.717
 2440SOL     OW 7365   0.764   5.863   1.757
 2440SOL    HW1 7366   0.847   5.809   1.750
 2440SOL    HW2 7367   0.711   5.833   1.837
 2441SOL     OW 7368   1.340   6.174   1.436
 2441SOL    HW1 7369   1.370   6.139   1.524
 2441SOL    HW2 7370   1.376   6.266   1.422
 2442SOL     OW 7371   0.927   6.092   0.899
 2442SOL    HW1 7372   0.900   6.084   0.803
 2442SOL    HW2 7373   0.960   6.003   0.932
 2443SOL     OW 7374   0.551   5.654   0.502
 2443SOL    HW1 7375   0.470   5.654   0.561
 2443SOL    HW2 7376   0.546   5.730   0.438
 2444SOL     OW 7377   1.418   6.796   0.038
 2444SOL    HW1 7378   1.470   6.725   0.085
 2444SOL    HW2 7379   1.333   6.757   0.002
 2445SOL     OW 7380   0.949   5.836   0.462
 2445SOL    HW1 7381   0.916   5.876   0.377
 2445SOL    HW2 7382   1.047   5.850   0.471
 2446SOL     OW 7383   1.080   6.268   1.457
 2446SOL    HW1 7384   1.005   6.203   1.462
 2446SOL    HW2 7385   1.167   6.219   1.452
 2447SOL     OW 7386   1.269   0.147   0.742
 2447SOL    HW1 7387   1.237   0.231   0.698
 2447SOL    HW2 7388   1.281   0.164   0.840
 2448SOL     OW 7389   0.464   6.711   0.738
 2448SOL    HW1 7390   0.394   6.702   0.809
 2448SOL    HW2 7391   0.420   6.715   0.649
 2449SOL     OW 7392   1.067   6.177   0.030
 2449SOL    HW1 7393   0.969   6.189   0.048
 2449SOL    HW2 7394   1.114   6.156   0.116
 2450SOL     OW 7395   0.073   6.138   1.376
 2450SOL    HW1 7396   0.169   6.131   1.347
 2450SOL    HW2 7397   0.066   6.206   1.449
 2451SOL     OW 7398   0.564   5.808   1.170
 2451SOL    HW1 7399   0.614   5.731   1.210
 2451SOL    HW2 7400   0.470   5.807   1.202
 2452SOL     OW 7401   0.864   6.042   0.639
 2452SOL    HW1 7402   0.823   6.106   0.574
 2452SOL    HW2 7403   0.894   5.960   0.590
 2453SOL     OW 7404   1.015   5.638   0.746
 2453SOL    HW1 7405   0.954   5.636   0.666
 2453SOL    HW2 7406   0.993   5.563   0.807
 2454SOL     OW 7407   1.439   6.733   0.862
 2454SOL    HW1 7408   1.363   6.669   0.862
 2454SOL    HW2 7409   1.470   6.748   0.768
 2455SOL     OW 7410   1.468   6.191   0.971
 2455SOL    HW1 7411   1.406   6.113   0.972
 2455SOL    HW2 7412   1.529   6.186   1.051
 2456SOL     OW 7413   1.836   6.394   0.385
 2456SOL    HW1 7414   1.892   6.335   0.443
 2456SOL    HW2 7415   1.823   6.351   0.296
 2457SOL     OW 7416   1.678   6.832   0.653
 2457SOL    HW1 7417   1.776   6.845   0.669
 2457SOL    HW2 7418   1.630   6.918   0.669
 2458SOL     OW 7419   1.391   6.141   0.069
 2458SOL    HW1 7420   1.331   6.137   0.149
 2458SOL    HW2 7421   1.455   6.064   0.072
 2459SOL     OW 7422   0.513   5.847   0.314
 2459SOL    HW1 7423   0.518   5.780   0.239
 2459SOL    HW2 7424   0.493   5.937   0.276
 2460SOL     OW 7425   1.754   6.814   1.567
 2460SOL    HW1 7426   1.839   6.764   1.587
 2460SOL    HW2 7427   1.770   6.912   1.579
 2461SOL     OW 7428   1.076   6.895   1.327
 2461SOL    HW1 7429   0.996   6.879   1.385
 2461SOL    HW2 7430   1.160   6.878   1.379
 2462SOL     OW 7431   1.136   6.761   1.101
 2462SOL    HW1 7432   1.103   6.811   1.182
 2462SOL    HW2 7433   1.080   6.786   1.022
 2463SOL     OW 7434   1.624   6.682   1.082
 2463SOL    HW1 7435   1.612   6.738   1.164
 2463SOL    HW2 7436   1.547   6.698   1.020
 2464SOL     OW 7437   0.922   5.681   1.392
 2464SOL    HW1 7438   0.944   5.658   1.297
 2464SOL    HW2 7439   1.002   5.724   1.434
 2465SOL     OW 7440   0.968   6.696   1.737
 2465SOL    HW1 7441   0.870   6.710   1.754
 2465SOL    HW2 7442   0.981   6.622   1.672
 2466SOL     OW 7443   0.706   6.632   0.373
 2466SOL    HW1 7444   0.693   6.623   0.472
 2466SOL    HW2 7445   0.789   6.583   0.346
 2467SOL     OW 7446   0.428   6.390   1.249
 2467SOL    HW1 7447   0.498   6.406   1.319
 2467SOL    HW2 7448   0.386   6.301   1.264
 2468SOL     OW 7449   1.263   5.962   1.279
 2468SOL    HW1 7450   1.300   6.041   1.329
 2468SOL    HW2 7451   1.168   5.980   1.254
 2469SOL     OW 7452   0.031   0.145   1.351
 2469SOL    HW1 7453   6.954   0.208   1.342
 2469SOL    HW2 7454   0.094   0.179   1.421
 2470SOL     OW 7455   0.343   6.705   0.489
 2470SOL    HW1 7456   0.394   6.777   0.441
 2470SOL    HW2 7457   0.344   6.621   0.435
 2471SOL     OW 7458   0.550   6.127   0.859
 2471SOL    HW1 7459   0.564   6.189   0.781
 2471SOL    HW2 7460   0.617   6.148   0.930
 2472SOL     OW 7461   1.585   6.214   0.479
 2472SOL    HW1 7462   1.529   6.255   0.552
 2472SOL    HW2 7463   1.638   6.286   0.434
 2473SOL     OW 7464   0.423   6.318   1.598
 2473SOL    HW1 7465   0.484   6.370   1.539
 2473SOL    HW2 7466   0.466   6.231   1.622
 2474SOL     OW 7467   1.607   6.370   1.684
 2474SOL    HW1 7468   1.515   6.410   1.681
 2474SOL    HW2 7469   1.663   6.411   1.613
 2475SOL     OW 7470   0.997   5.719   1.749
 2475SOL    HW1 7471   1.056   5.798   1.733
 2475SOL    HW2 7472   1.046   5.636   1.724
 2476SOL     OW 7473   0.496   5.622   1.748
 2476SOL    HW1 7474   0.450   5.565   1.680
 2476SOL    HW2 7475   0.439   5.702   1.768
 2477SOL     OW 7476   0.586   6.452   1.033
 2477SOL    HW1 7477   0.607   6.549   1.021
 2477SOL    HW2 7478   0.526   6.440   1.112
 2478SOL     OW 7479   1.358   6.440   1.027
 2478SOL    HW1 7480   1.267   6.438   0.985
 2478SOL    HW2 7481   1.402   6.351   1.015
 2479SOL     OW 7482   1.196   6.109   0.272
 2479SOL    HW1 7483   1.214   6.030   0.331
 2479SOL    HW2 7484   1.156   6.182   0.327
 2480SOL     OW 7485   0.308   5.782   1.246
 2480SOL    HW1 7486   0.268   5.818   1.331
 2480SOL    HW2 7487   0.291   5.684   1.241
 2481SOL     OW 7488   0.110   6.902   1.271
 2481SOL    HW1 7489   0.111   6.828   1.339
 2481SOL    HW2 7490   0.067   6.983   1.310
 2482SOL     OW 7491   0.724   6.214   1.055
 2482SOL    HW1 7492   0.802   6.195   0.994
 2482SOL    HW2 7493   0.690   6.306   1.037
 2483SOL     OW 7494   1.734   6.547   1.853
 2483SOL    HW1 7495   1.691   6.477   1.796
 2483SOL    HW2 7496   1.678   6.563   1.934
 2484SOL     OW 7497   0.310   5.659   0.631
 2484SOL    HW1 7498   0.288   5.754   0.655
 2484SOL    HW2 7499   0.320   5.606   0.715
 2485SOL     OW 7500   1.630   5.968   0.369
 2485SOL    HW1 7501   1.646   5.895   0.436
 2485SOL    HW2 7502   1.602   6.052   0.416
 2486SOL     OW 7503   1.024   6.339   0.959
 2486SOL    HW1 7504   1.020   6.362   1.056
 2486SOL    HW2 7505   0.997   6.244   0.946
 2487SOL     OW 7506   1.855   0.066   1.600
 2487SOL    HW1 7507   1.890   0.141   1.545
 2487SOL    HW2 7508   1.910   0.056   1.683
 2488SOL     OW 7509   0.368   6.504   1.795
 2488SOL    HW1 7510   0.441   6.518   1.862
 2488SOL    HW2 7511   0.395   6.433   1.731
 2489SOL     OW 7512   1.491   5.878   0.147
 2489SOL    HW1 7513   1.451   5.788   0.159
 2489SOL    HW2 7514   1.544   5.903   0.228
 2490SOL     OW 7515   1.293   6.411   0.031
 2490SOL    HW1 7516   1.337   6.321   0.024
 2490SOL    HW2 7517   1.324   6.469   6.955
 2491SOL     OW 7518   0.318   6.384   0.941
 2491SOL    HW1 7519   0.415   6.411   0.939
 2491SOL    HW2 7520   0.309   6.294   0.982
 2492SOL     OW 7521   0.332   6.105   1.014
 2492SOL    HW1 7522   0.293   6.015   0.999
 2492SOL    HW2 7523   0.411   6.118   0.954
 2493SOL     OW 7524   1.134   5.959   1.691
 2493SOL    HW1 7525   1.081   6.016   1.754
 2493SOL    HW2 7526   1.226   5.996   1.683
 2494SOL     OW 7527   1.161   5.790   1.475
 2494SOL    HW1 7528   1.147   5.852   1.552
 2494SOL    HW2 7529   1.204   5.839   1.399
 2495SOL     OW 7530   0.011   6.907   0.212
 2495SOL    HW1 7531   6.931   6.929   0.267
 2495SOL    HW2 7532   0.049   6.819   0.241
 2496SOL     OW 7533   0.976   6.378   1.225
 2496SOL    HW1 7534   1.036   6.354   1.301
 2496SOL    HW2 7535   0.887   6.334   1.238
 2497SOL     OW 7536   0.049   6.190   1.106
 2497SOL    HW1 7537   0.124   6.141   1.061
 2497SOL    HW2 7538   0.050   6.171   1.204
 2498SOL     OW 7539   0.209   6.098   1.724
 2498SOL    HW1 7540   0.283   6.052   1.676
 2498SOL    HW2 7541   0.187   6.184   1.677
 2499SOL     OW 7542   1.379   6.523   1.655
 2499SOL    HW1 7543   1.409   6.619   1.654
 2499SOL    HW2 7544   1.376   6.489   1.561
 2500SOL     OW 7545   0.817   6.155   0.371
 2500SOL    HW1 7546   0.825   6.077   0.310
 2500SOL    HW2 7547   0.740   6.212   0.342
 2501SOL     OW 7548   1.643   6.188   1.182
 2501SOL    HW1 7549   1.626   6.129   1.260
 2501SOL    HW2 7550   1.734   6.171   1.145
 2502SOL     OW 7551   0.705   6.035   1.255
 2502SOL    HW1 7552   0.651   5.955   1.229
 2502SOL    HW2 7553   0.703   6.101   1.181
 2503SOL     OW 7554   0.462   6.082   0.193
 2503SOL    HW1 7555   0.521   6.159   0.214
 2503SOL    HW2 7556   0.366   6.111   0.195
 2504SOL     OW 7557   0.187   6.706   1.480
 2504SOL    HW1 7558   0.166   6.643   1.554
 2504SOL    HW2 7559   0.199   6.655   1.395
 2505SOL     OW 7560   1.330   6.624   1.224
 2505SOL    HW1 7561   1.359   6.556   1.156
 2505SOL    HW2 7562   1.256   6.680   1.185
 2506SOL     OW 7563   1.302   6.434   0.304
 2506SOL    HW1 7564   1.222   6.405   0.358
 2506SOL    HW2 7565   1.285   6.415   0.207
 2507SOL     OW 7566   0.074   6.839   1.012
 2507SOL    HW1 7567   0.090   6.857   1.109
 2507SOL    HW2 7568   6.977   6.816   0.999
 2508SOL     OW 7569   0.938   5.664   0.112
 2508SOL    HW1 7570   1.009   5.718   0.066
 2508SOL    HW2 7571   0.981   5.604   0.180
 2509SOL     OW 7572   1.703   5.736   0.510
 2509SOL    HW1 7573   1.784   5.736   0.451
 2509SOL    HW2 7574   1.693   5.647   0.553
 2510SOL     OW 7575   1.281   6.506   0.671
 2510SOL    HW1 7576   1.356   6.441   0.686
 2510SOL    HW2 7577   1.315   6.584   0.619
 2511SOL     OW 7578   0.817   6.844   1.418
 2511SOL    HW1 7579   0.791   6.886   1.505
 2511SOL    HW2 7580   0.744   6.858   1.352
 2512SOL     OW 7581   1.842   5.756   0.963
 2512SOL    HW1 7582   1.876   5.664   0.941
 2512SOL    HW2 7583   1.751   5.768   0.925
 2513SOL     OW 7584   0.261   5.910   0.717
 2513SOL    HW1 7585   0.183   5.968   0.696
 2513SOL    HW2 7586   0.262   5.889   0.815
 2514SOL     OW 7587   0.826   6.582   1.370
 2514SOL    HW1 7588   0.883   6.559   1.291
 2514SOL    HW2 7589   0.830   6.680   1.387
 2515SOL     OW 7590   0.924   6.500   0.290
 2515SOL    HW1 7591   0.984   6.537   0.219
 2515SOL    HW2 7592   0.973   6.429   0.341
 2516SOL     OW 7593   0.389   6.896   1.513
 2516SOL    HW1 7594   0.356   6.970   1.454
 2516SOL    HW2 7595   0.327   6.818   1.506
 2517SOL     OW 7596   1.605   6.846   1.313
 2517SOL    HW1 7597   1.680   6.835   1.378
 2517SOL    HW2 7598   1.536   6.908   1.352
 2518SOL     OW 7599   1.059   6.696   0.728
 2518SOL    HW1 7600   0.980   6.645   0.762
 2518SOL    HW2 7601   1.125   6.633   0.687
 2519SOL     OW 7602   1.022   5.824   0.967
 2519SOL    HW1 7603   1.017   5.780   0.877
 2519SOL    HW2 7604   1.020   5.755   1.039
 2520SOL     OW 7605   1.731   5.980   1.380
 2520SOL    HW1 7606   1.803   6.049   1.381
 2520SOL    HW2 7607   1.756   5.905   1.320
 2521SOL     OW 7608   0.120   6.559   1.704
 2521SOL    HW1 7609   0.065   6.615   1.766
 2521SOL    HW2 7610   0.211   6.545   1.743
 2522SOL     OW 7611   0.682   5.782   1.499
 2522SOL    HW1 7612   0.769   5.757   1.456
 2522SOL    HW2 7613   0.700   5.814   1.592
 2523SOL     OW 7614   0.061   5.965   0.021
 2523SOL    HW1 7615   6.971   5.953   6.980
 2523SOL    HW2 7616   0.124   6.004   6.954
 2524SOL     OW 7617   1.427   6.439   1.399
 2524SOL    HW1 7618   1.373   6.503   1.344
 2524SOL    HW2 7619   1.521   6.439   1.367
 2525SOL     OW 7620   0.028   5.774   0.354
 2525SOL    HW1 7621   0.064   5.862   0.322
 2525SOL    HW2 7622   0.105   5.712   0.373
 2526SOL     OW 7623   0.623   6.414   1.435
 2526SOL    HW1 7624   0.681   6.493   1.415
 2526SOL    HW2 7625   0.680   6.332   1.445
 2527SOL     OW 7626   0.719   6.145   1.704
 2527SOL    HW1 7627   0.766   6.212   1.763
 2527SOL    HW2 7628   0.740   6.053   1.736
 2528SOL     OW 7629   1.485   6.779   1.646
 2528SOL    HW1 7630   1.472   6.798   1.743
 2528SOL    HW2 7631   1.581   6.793   1.622
 2529SOL     OW 7632   1.668   6.462   1.254
 2529SOL    HW1 7633   1.661   6.371   1.213
 2529SOL    HW2 7634   1.655   6.531   1.183
 2530SOL     OW 7635   1.222   5.901   0.461
 2530SOL    HW1 7636   1.286   5.825   0.452
 2530SOL    HW2 7637   1.246   5.956   0.540
 2531SOL     OW 7638   0.588   6.322   0.667
 2531SOL    HW1 7639   0.629   6.413   0.662
 2531SOL    HW2 7640   0.518   6.313   0.596
 2532SOL     OW 7641   1.751   5.951   1.652
 2532SOL    HW1 7642   1.741   5.967   1.554
 2532SOL    HW2 7643   1.678   5.891   1.684
 2533SOL     OW 7644   1.744   6.519   1.507
 2533SOL    HW1 7645   1.737   6.618   1.525
 2533SOL    HW2 7646   1.729   6.502   1.410
 2534SOL     OW 7647   0.867   6.550   0.859
 2534SOL    HW1 7648   0.921   6.473   0.893
 2534SOL    HW2 7649   0.835   6.606   0.936
 2535SOL     OW 7650   1.090   6.586   0.085
 2535SOL    HW1 7651   1.035   6.591   0.002
 2535SOL    HW2 7652   1.168   6.524   0.070
 2536SOL     OW 7653   0.249   6.870   1.853
 2536SOL    HW1 7654   0.153   6.870   1.826
 2536SOL    HW2 7655   0.262   6.935   1.929
 2537SOL     OW 7656   0.169   6.858   0.666
 2537SOL    HW1 7657   0.104   6.811   0.726
 2537SOL    HW2 7658   0.209   6.792   0.603
 2538SOL     OW 7659   0.709   6.969   1.631
 2538SOL    HW1 7660   0.612   6.958   1.652
 2538SOL    HW2 7661   0.728   0.066   1.613
 2539SOL     OW 7662   1.805   5.769   1.234
 2539SOL    HW1 7663   1.819   5.673   1.258
 2539SOL    HW2 7664   1.818   5.781   1.135
 2540SOL     OW 7665   0.439   6.014   0.528
 2540SOL    HW1 7666   0.484   5.942   0.475
 2540SOL    HW2 7667   0.399   5.975   0.611
 2541SOL     OW 7668   1.646   0.043   1.137
 2541SOL    HW1 7669   1.599   0.028   1.050
 2541SOL    HW2 7670   1.642   6.961   1.193
 2542SOL     OW 7671   0.331   6.137   1.291
 2542SOL    HW1 7672   0.388   6.082   1.352
 2542SOL    HW2 7673   0.348   6.111   1.196
 2543SOL     OW 7674   1.431   5.816   1.117
 2543SOL    HW1 7675   1.453   5.726   1.154
 2543SOL    HW2 7676   1.377   5.867   1.183
 2544SOL     OW 7677   1.010   5.602   1.138
 2544SOL    HW1 7678   0.946   5.538   1.096
 2544SOL    HW2 7679   1.101   5.562   1.140
 2545SOL     OW 7680   0.808   6.878   0.288
 2545SOL    HW1 7681   0.764   6.791   0.312
 2545SOL    HW2 7682   0.822   6.932   0.371
 2546SOL     OW 7683   1.360   5.630   0.179
 2546SOL    HW1 7684   1.403   5.568   0.114
 2546SOL    HW2 7685   1.266   5.600   0.197
 2547SOL     OW 7686   1.289   6.049   0.680
 2547SOL    HW1 7687   1.237   6.134   0.683
 2547SOL    HW2 7688   1.289   6.006   0.771
 2548SOL     OW 7689   1.587   5.790   0.883
 2548SOL    HW1 7690   1.528   5.809   0.962
 2548SOL    HW2 7691   1.588   5.870   0.823
 2549SOL     OW 7692   0.080   6.647   0.295
 2549SOL    HW1 7693   0.169   6.603   0.297
 2549SOL    HW2 7694   0.008   6.578   0.301
 2550SOL     OW 7695   0.191   6.240   1.982
 2550SOL    HW1 7696   0.175   6.175   2.056
 2550SOL    HW2 7697   0.227   6.192   1.902
 2551SOL     OW 7698   0.231   5.857   2.849
 2551SOL    HW1 7699   0.281   5.826   2.930
 2551SOL    HW2 7700   0.133   5.840   2.862
 2552SOL     OW 7701   6.990   5.971   2.515
 2552SOL    HW1 7702   6.942   5.968   2.603
 2552SOL    HW2 7703   0.011   5.878   2.486
 2553SOL     OW 7704   0.569   6.869   3.035
 2553SOL    HW1 7705   0.493   6.867   2.971
 2553SOL    HW2 7706   0.545   6.925   3.115
 2554SOL     OW 7707   1.541   0.056   2.552
 2554SOL    HW1 7708   1.519   0.051   2.649
 2554SOL    HW2 7709   1.462   0.090   2.501
 2555SOL     OW 7710   1.131   6.287   2.557
 2555SOL    HW1 7711   1.184   6.370   2.541
 2555SOL    HW2 7712   1.081   6.295   2.643
 2556SOL     OW 7713   1.770   6.184   2.084
 2556SOL    HW1 7714   1.746   6.180   1.987
 2556SOL    HW2 7715   1.731   6.105   2.132
 2557SOL     OW 7716   0.767   6.749   2.888
 2557SOL    HW1 7717   0.697   6.783   2.951
 2557SOL    HW2 7718   0.764   6.801   2.803
 2558SOL     OW 7719   0.874   6.352   3.683
 2558SOL    HW1 7720   0.859   6.419   3.756
 2558SOL    HW2 7721   0.899   6.400   3.599
 2559SOL     OW 7722   0.685   6.585   2.511
 2559SOL    HW1 7723   0.756   6.574   2.581
 2559SOL    HW2 7724   0.609   6.637   2.548
 2560SOL     OW 7725   0.690   6.734   3.677
 2560SOL    HW1 7726   0.729   6.825   3.693
 2560SOL    HW2 7727   0.605   6.744   3.625
 2561SOL     OW 7728   0.343   0.008   2.911
 2561SOL    HW1 7729   0.270   6.955   2.869
 2561SOL    HW2 7730   0.393   0.058   2.841
 2562SOL     OW 7731   0.444   5.981   3.354
 2562SOL    HW1 7732   0.526   5.925   3.356
 2562SOL    HW2 7733   0.363   5.923   3.363
 2563SOL     OW 7734   1.611   6.033   2.606
 2563SOL    HW1 7735   1.535   6.051   2.544
 2563SOL    HW2 7736   1.621   6.108   2.670
 2564SOL     OW 7737   0.265   6.669   2.777
 2564SOL    HW1 7738   0.255   6.574   2.804
 2564SOL    HW2 7739   0.191   6.723   2.817
 2565SOL     OW 7740   0.579   6.565   2.004
 2565SOL    HW1 7741   0.624   6.616   1.931
 2565SOL    HW2 7742   0.618   6.591   2.092
 2566SOL     OW 7743   1.597   5.710   3.332
 2566SOL    HW1 7744   1.614   5.790   3.274
 2566SOL    HW2 7745   1.582   5.740   3.426
 2567SOL     OW 7746   0.132   6.201   2.436
 2567SOL    HW1 7747   0.063   6.132   2.459
 2567SOL    HW2 7748   0.122   6.280   2.496
 2568SOL     OW 7749   1.689   6.503   2.506
 2568SOL    HW1 7750   1.777   6.458   2.492
 2568SOL    HW2 7751   1.667   6.558   2.426
 2569SOL     OW 7752   1.652   6.692   2.288
 2569SOL    HW1 7753   1.741   6.686   2.243
 2569SOL    HW2 7754   1.659   6.751   2.368
 2570SOL     OW 7755   0.145   6.317   3.443
 2570SOL    HW1 7756   0.243   6.325   3.428
 2570SOL    HW2 7757   0.109   6.404   3.477
 2571SOL     OW 7758   1.314   6.817   3.293
 2571SOL    HW1 7759   1.338   6.747   3.226
 2571SOL    HW2 7760   1.373   6.808   3.373
 2572SOL     OW 7761   0.816   5.595   2.369
 2572SOL    HW1 7762   0.862   5.681   2.348
 2572SOL    HW2 7763   0.718   5.610   2.378
 2573SOL     OW 7764   0.212   6.554   3.126
 2573SOL    HW1 7765   0.290   6.495   3.107
 2573SOL    HW2 7766   0.134   6.524   3.071
 2574SOL     OW 7767   1.535   6.587   2.063
 2574SOL    HW1 7768   1.461   6.526   2.092
 2574SOL    HW2 7769   1.583   6.622   2.144
 2575SOL     OW 7770   0.351   5.837   3.690
 2575SOL    HW1 7771   0.400   5.919   3.718
 2575SOL    HW2 7772   0.254   5.846   3.715
 2576SOL     OW 7773   1.458   6.989   2.809
 2576SOL    HW1 7774   1.389   0.014   2.878
 2576SOL    HW2 7775   1.441   6.895   2.779
 2577SOL     OW 7776   0.590   6.301   2.129
 2577SOL    HW1 7777   0.598   6.389   2.082
 2577SOL    HW2 7778   0.526   6.311   2.206
 2578SOL     OW 7779   1.277   5.943   2.795
 2578SOL    HW1 7780   1.184   5.909   2.802
 2578SOL    HW2 7781   1.336   5.891   2.857
 2579SOL     OW 7782   0.790   6.198   3.313
 2579SOL    HW1 7783   0.765   6.174   3.407
 2579SOL    HW2 7784   0.752   6.130   3.250
 2580SOL     OW 7785   1.392   6.056   3.542
 2580SOL    HW1 7786   1.392   6.105   3.629
 2580SOL    HW2 7787   1.453   5.977   3.548
 2581SOL     OW 7788   0.956   6.474   3.445
 2581SOL    HW1 7789   1.015   6.400   3.410
 2581SOL    HW2 7790   0.901   6.511   3.371
 2582SOL     OW 7791   0.994   5.993   3.092
 2582SOL    HW1 7792   0.904   6.015   3.131
 2582SOL    HW2 7793   0.981   5.944   3.006
 2583SOL     OW 7794   1.049   6.285   2.287
 2583SOL    HW1 7795   1.071   6.280   2.384
 2583SOL    HW2 7796   0.963   6.237   2.269
 2584SOL     OW 7797   0.103   6.404   2.634
 2584SOL    HW1 7798   0.194   6.392   2.673
 2584SOL    HW2 7799   0.042   6.445   2.703
 2585SOL     OW 7800   0.895   5.938   2.059
 2585SOL    HW1 7801   0.936   6.005   1.996
 2585SOL    HW2 7802   0.903   5.846   2.019
 2586SOL     OW 7803   1.702   6.159   3.687
 2586SOL    HW1 7804   1.666   6.237   3.637
 2586SOL    HW2 7805   1.732   6.089   3.622
 2587SOL     OW 7806   1.386   6.722   2.408
 2587SOL    HW1 7807   1.467   6.715   2.349
 2587SOL    HW2 7808   1.333   6.803   2.383
 2588SOL     OW 7809   0.550   5.762   2.761
 2588SOL    HW1 7810   0.556   5.791   2.856
 2588SOL    HW2 7811   0.554   5.842   2.701
 2589SOL     OW 7812   1.798   6.639   2.738
 2589SOL    HW1 7813   1.746   6.629   2.653
 2589SOL    HW2 7814   1.735   6.646   2.815
 2590SOL     OW 7815   0.318   6.528   2.116
 2590SOL    HW1 7816   0.404   6.554   2.072
 2590SOL    HW2 7817   0.286   6.441   2.078
 2591SOL     OW 7818   1.484   6.332   2.585
 2591SOL    HW1 7819   1.478   6.289   2.676
 2591SOL    HW2 7820   1.563   6.393   2.582
 2592SOL     OW 7821   0.196   5.856   3.353
 2592SOL    HW1 7822   0.113   5.908   3.336
 2592SOL    HW2 7823   0.173   5.771   3.401
 2593SOL     OW 7824   1.640   6.969   1.946
 2593SOL    HW1 7825   1.607   0.061   1.964
 2593SOL    HW2 7826   1.562   6.907   1.933
 2594SOL     OW 7827   1.401   5.690   2.297
 2594SOL    HW1 7828   1.389   5.665   2.201
 2594SOL    HW2 7829   1.499   5.700   2.317
 2595SOL     OW 7830   0.401   6.268   2.336
 2595SOL    HW1 7831   0.429   6.174   2.357
 2595SOL    HW2 7832   0.304   6.279   2.355
 2596SOL     OW 7833   1.529   5.809   3.590
 2596SOL    HW1 7834   1.539   5.830   3.687
 2596SOL    HW2 7835   1.456   5.741   3.578
 2597SOL     OW 7836   0.641   5.703   1.964
 2597SOL    HW1 7837   0.710   5.633   1.985
 2597SOL    HW2 7838   0.584   5.672   1.888
 2598SOL     OW 7839   0.764   5.863   3.619
 2598SOL    HW1 7840   0.848   5.809   3.613
 2598SOL    HW2 7841   0.711   5.834   3.699
 2599SOL     OW 7842   1.340   6.174   3.297
 2599SOL    HW1 7843   1.370   6.139   3.386
 2599SOL    HW2 7844   1.376   6.266   3.284
 2600SOL     OW 7845   0.927   6.092   2.761
 2600SOL    HW1 7846   0.901   6.086   2.664
 2600SOL    HW2 7847   0.960   6.003   2.793
 2601SOL     OW 7848   0.546   5.650   2.358
 2601SOL    HW1 7849   0.464   5.646   2.415
 2601SOL    HW2 7850   0.542   5.730   2.299
 2602SOL     OW 7851   1.419   6.788   1.921
 2602SOL    HW1 7852   1.473   6.717   1.967
 2602SOL    HW2 7853   1.325   6.756   1.909
 2603SOL     OW 7854   0.292   5.628   2.049
 2603SOL    HW1 7855   0.341   5.709   2.017
 2603SOL    HW2 7856   0.356   5.563   2.088
 2604SOL     OW 7857   0.945   5.836   2.319
 2604SOL    HW1 7858   0.914   5.878   2.234
 2604SOL    HW2 7859   1.044   5.850   2.328
 2605SOL     OW 7860   1.080   6.268   3.319
 2605SOL    HW1 7861   1.004   6.203   3.324
 2605SOL    HW2 7862   1.166   6.219   3.314
 2606SOL     OW 7863   1.269   0.147   2.603
 2606SOL    HW1 7864   1.237   0.231   2.560
 2606SOL    HW2 7865   1.281   0.162   2.701
 2607SOL     OW 7866   0.465   6.710   2.601
 2607SOL    HW1 7867   0.394   6.702   2.672
 2607SOL    HW2 7868   0.421   6.713   2.511
 2608SOL     OW 7869   1.021   6.123   1.891
 2608SOL    HW1 7870   0.976   6.209   1.867
 2608SOL    HW2 7871   1.090   6.139   1.961
 2609SOL     OW 7872   0.074   6.138   3.238
 2609SOL    HW1 7873   0.169   6.131   3.209
 2609SOL    HW2 7874   0.066   6.206   3.311
 2610SOL     OW 7875   0.564   5.810   3.032
 2610SOL    HW1 7876   0.614   5.732   3.071
 2610SOL    HW2 7877   0.469   5.808   3.064
 2611SOL     OW 7878   0.866   6.044   2.500
 2611SOL    HW1 7879   0.815   6.106   2.439
 2611SOL    HW2 7880   0.893   5.962   2.449
 2612SOL     OW 7881   1.017   5.639   2.608
 2612SOL    HW1 7882   0.956   5.639   2.529
 2612SOL    HW2 7883   0.993   5.563   2.668
 2613SOL     OW 7884   1.440   6.734   2.720
 2613SOL    HW1 7885   1.364   6.669   2.721
 2613SOL    HW2 7886   1.470   6.748   2.625
 2614SOL     OW 7887   1.468   6.192   2.833
 2614SOL    HW1 7888   1.406   6.113   2.833
 2614SOL    HW2 7889   1.529   6.186   2.912
 2615SOL     OW 7890   1.843   6.392   2.242
 2615SOL    HW1 7891   1.901   6.344   2.309
 2615SOL    HW2 7892   1.814   6.327   2.171
 2616SOL     OW 7893   1.679   6.832   2.510
 2616SOL    HW1 7894   1.777   6.843   2.527
 2616SOL    HW2 7895   1.632   6.918   2.530
 2617SOL     OW 7896   1.390   6.160   1.933
 2617SOL    HW1 7897   1.327   6.138   2.008
 2617SOL    HW2 7898   1.483   6.133   1.959
 2618SOL     OW 7899   0.529   5.848   2.172
 2618SOL    HW1 7900   0.577   5.793   2.103
 2618SOL    HW2 7901   0.502   5.936   2.133
 2619SOL     OW 7902   1.754   6.814   3.430
 2619SOL    HW1 7903   1.839   6.764   3.450
 2619SOL    HW2 7904   1.770   6.912   3.441
 2620SOL     OW 7905   1.076   6.895   3.189
 2620SOL    HW1 7906   0.996   6.879   3.247
 2620SOL    HW2 7907   1.159   6.878   3.241
 2621SOL     OW 7908   1.137   6.763   2.963
 2621SOL    HW1 7909   1.104   6.811   3.044
 2621SOL    HW2 7910   1.078   6.785   2.885
 2622SOL     OW 7911   1.623   6.682   2.944
 2622SOL    HW1 7912   1.612   6.738   3.026
 2622SOL    HW2 7913   1.547   6.698   2.882
 2623SOL     OW 7914   0.923   5.681   3.254
 2623SOL    HW1 7915   0.944   5.658   3.159
 2623SOL    HW2 7916   1.002   5.724   3.297
 2624SOL     OW 7917   0.968   6.696   3.599
 2624SOL    HW1 7918   0.870   6.710   3.616
 2624SOL    HW2 7919   0.981   6.622   3.534
 2625SOL     OW 7920   0.707   6.637   2.232
 2625SOL    HW1 7921   0.695   6.629   2.331
 2625SOL    HW2 7922   0.789   6.587   2.204
 2626SOL     OW 7923   0.428   6.390   3.111
 2626SOL    HW1 7924   0.498   6.405   3.181
 2626SOL    HW2 7925   0.386   6.301   3.126
 2627SOL     OW 7926   1.263   5.962   3.142
 2627SOL    HW1 7927   1.299   6.041   3.190
 2627SOL    HW2 7928   1.167   5.980   3.116
 2628SOL     OW 7929   0.031   0.146   3.213
 2628SOL    HW1 7930   6.954   0.209   3.204
 2628SOL    HW2 7931   0.094   0.179   3.283
 2629SOL     OW 7932   0.338   6.705   2.355
 2629SOL    HW1 7933   0.386   6.777   2.305
 2629SOL    HW2 7934   0.333   6.623   2.298
 2630SOL     OW 7935   0.550   6.129   2.725
 2630SOL    HW1 7936   0.563   6.188   2.645
 2630SOL    HW2 7937   0.619   6.150   2.794
 2631SOL     OW 7938   1.577   6.208   2.343
 2631SOL    HW1 7939   1.528   6.255   2.416
 2631SOL    HW2 7940   1.628   6.275   2.289
 2632SOL     OW 7941   0.423   6.318   3.460
 2632SOL    HW1 7942   0.484   6.370   3.401
 2632SOL    HW2 7943   0.465   6.231   3.483
 2633SOL     OW 7944   1.607   6.370   3.546
 2633SOL    HW1 7945   1.515   6.410   3.543
 2633SOL    HW2 7946   1.663   6.411   3.475
 2634SOL     OW 7947   0.997   5.719   3.612
 2634SOL    HW1 7948   1.055   5.798   3.595
 2634SOL    HW2 7949   1.046   5.636   3.586
 2635SOL     OW 7950   0.495   5.622   3.611
 2635SOL    HW1 7951   0.450   5.565   3.542
 2635SOL    HW2 7952   0.439   5.702   3.630
 2636SOL     OW 7953   0.587   6.452   2.896
 2636SOL    HW1 7954   0.606   6.549   2.883
 2636SOL    HW2 7955   0.526   6.440   2.974
 2637SOL     OW 7956   1.357   6.440   2.889
 2637SOL    HW1 7957   1.266   6.438   2.848
 2637SOL    HW2 7958   1.402   6.351   2.877
 2638SOL     OW 7959   1.198   6.113   2.127
 2638SOL    HW1 7960   1.211   6.031   2.181
 2638SOL    HW2 7961   1.153   6.183   2.182
 2639SOL     OW 7962   0.307   5.782   3.108
 2639SOL    HW1 7963   0.268   5.818   3.193
 2639SOL    HW2 7964   0.291   5.684   3.103
 2640SOL     OW 7965   0.111   6.902   3.133
 2640SOL    HW1 7966   0.111   6.828   3.201
 2640SOL    HW2 7967   0.067   6.983   3.173
 2641SOL     OW 7968   0.727   6.215   2.918
 2641SOL    HW1 7969   0.803   6.196   2.856
 2641SOL    HW2 7970   0.691   6.307   2.900
 2642SOL     OW 7971   1.734   6.547   3.715
 2642SOL    HW1 7972   1.691   6.477   3.658
 2642SOL    HW2 7973   1.678   6.563   3.796
 2643SOL     OW 7974   0.301   5.647   2.486
 2643SOL    HW1 7975   0.281   5.743   2.505
 2643SOL    HW2 7976   0.313   5.598   2.573
 2644SOL     OW 7977   1.626   5.966   2.225
 2644SOL    HW1 7978   1.652   5.893   2.288
 2644SOL    HW2 7979   1.598   6.047   2.276
 2645SOL     OW 7980   1.024   6.340   2.820
 2645SOL    HW1 7981   1.020   6.362   2.918
 2645SOL    HW2 7982   0.997   6.245   2.807
 2646SOL     OW 7983   1.855   0.066   3.462
 2646SOL    HW1 7984   1.891   0.141   3.407
 2646SOL    HW2 7985   1.910   0.056   3.545
 2647SOL     OW 7986   0.368   6.504   3.657
 2647SOL    HW1 7987   0.441   6.517   3.724
 2647SOL    HW2 7988   0.395   6.433   3.593
 2648SOL     OW 7989   1.527   5.855   1.992
 2648SOL    HW1 7990   1.458   5.787   2.017
 2648SOL    HW2 7991   1.564   5.897   2.075
 2649SOL     OW 7992   1.288   6.410   1.886
 2649SOL    HW1 7993   1.329   6.320   1.896
 2649SOL    HW2 7994   1.320   6.451   1.800
 2650SOL     OW 7995   0.318   6.385   2.804
 2650SOL    HW1 7996   0.415   6.410   2.799
 2650SOL    HW2 7997   0.309   6.294   2.843
 2651SOL     OW 7998   0.330   6.106   2.876
 2651SOL    HW1 7999   0.291   6.015   2.860
 2651SOL    HW2 8000   0.410   6.118   2.818
 2652SOL     OW 8001   1.134   5.959   3.553
 2652SOL    HW1 8002   1.081   6.016   3.616
 2652SOL    HW2 8003   1.226   5.996   3.545
 2653SOL     OW 8004   1.162   5.789   3.337
 2653SOL    HW1 8005   1.147   5.852   3.414
 2653SOL    HW2 8006   1.204   5.839   3.261
 2654SOL     OW 8007   6.983   6.914   2.065
 2654SOL    HW1 8008   6.913   6.931   2.134
 2654SOL    HW2 8009   0.037   6.835   2.091
 2655SOL     OW 8010   0.976   6.379   3.087
 2655SOL    HW1 8011   1.035   6.354   3.163
 2655SOL    HW2 8012   0.887   6.333   3.098
 2656SOL     OW 8013   0.048   6.190   2.968
 2656SOL    HW1 8014   0.123   6.142   2.923
 2656SOL    HW2 8015   0.051   6.171   3.066
 2657SOL     OW 8016   0.209   6.098   3.586
 2657SOL    HW1 8017   0.283   6.052   3.537
 2657SOL    HW2 8018   0.187   6.184   3.539
 2658SOL     OW 8019   1.379   6.523   3.517
 2658SOL    HW1 8020   1.409   6.619   3.516
 2658SOL    HW2 8021   1.376   6.489   3.423
 2659SOL     OW 8022   0.817   6.159   2.220
 2659SOL    HW1 8023   0.827   6.078   2.161
 2659SOL    HW2 8024   0.738   6.212   2.189
 2660SOL     OW 8025   1.643   6.188   3.044
 2660SOL    HW1 8026   1.626   6.128   3.122
 2660SOL    HW2 8027   1.734   6.171   3.007
 2661SOL     OW 8028   0.705   6.035   3.117
 2661SOL    HW1 8029   0.651   5.955   3.091
 2661SOL    HW2 8030   0.704   6.102   3.043
 2662SOL     OW 8031   0.456   6.074   2.043
 2662SOL    HW1 8032   0.513   6.154   2.062
 2662SOL    HW2 8033   0.369   6.084   2.092
 2663SOL     OW 8034   0.186   6.706   3.342
 2663SOL    HW1 8035   0.166   6.643   3.416
 2663SOL    HW2 8036   0.198   6.655   3.257
 2664SOL     OW 8037   1.330   6.624   3.086
 2664SOL    HW1 8038   1.359   6.556   3.018
 2664SOL    HW2 8039   1.257   6.680   3.047
 2665SOL     OW 8040   1.316   6.447   2.159
 2665SOL    HW1 8041   1.243   6.416   2.221
 2665SOL    HW2 8042   1.288   6.430   2.064
 2666SOL     OW 8043   0.074   6.839   2.875
 2666SOL    HW1 8044   0.090   6.857   2.972
 2666SOL    HW2 8045   6.977   6.816   2.861
 2667SOL     OW 8046   1.719   5.735   2.362
 2667SOL    HW1 8047   1.795   5.725   2.297
 2667SOL    HW2 8048   1.702   5.647   2.407
 2668SOL     OW 8049   1.282   6.508   2.531
 2668SOL    HW1 8050   1.356   6.443   2.547
 2668SOL    HW2 8051   1.317   6.586   2.479
 2669SOL     OW 8052   0.817   6.844   3.280
 2669SOL    HW1 8053   0.791   6.886   3.367
 2669SOL    HW2 8054   0.743   6.858   3.214
 2670SOL     OW 8055   1.842   5.756   2.826
 2670SOL    HW1 8056   1.876   5.665   2.803
 2670SOL    HW2 8057   1.751   5.768   2.786
 2671SOL     OW 8058   0.263   5.902   2.576
 2671SOL    HW1 8059   0.187   5.964   2.555
 2671SOL    HW2 8060   0.265   5.883   2.674
 2672SOL     OW 8061   1.246   0.212   1.873
 2672SOL    HW1 8062   1.250   0.145   1.947
 2672SOL    HW2 8063   1.155   0.212   1.833
 2673SOL     OW 8064   0.826   6.582   3.232
 2673SOL    HW1 8065   0.883   6.559   3.153
 2673SOL    HW2 8066   0.831   6.680   3.249
 2674SOL     OW 8067   0.919   6.495   2.142
 2674SOL    HW1 8068   0.986   6.536   2.079
 2674SOL    HW2 8069   0.965   6.426   2.198
 2675SOL     OW 8070   0.388   6.896   3.375
 2675SOL    HW1 8071   0.356   6.970   3.316
 2675SOL    HW2 8072   0.327   6.818   3.368
 2676SOL     OW 8073   1.605   6.846   3.175
 2676SOL    HW1 8074   1.680   6.835   3.239
 2676SOL    HW2 8075   1.536   6.908   3.214
 2677SOL     OW 8076   1.061   6.694   2.587
 2677SOL    HW1 8077   0.981   6.645   2.622
 2677SOL    HW2 8078   1.128   6.629   2.551
 2678SOL     OW 8079   1.022   5.825   2.829
 2678SOL    HW1 8080   1.018   5.781   2.739
 2678SOL    HW2 8081   1.019   5.755   2.901
 2679SOL     OW 8082   1.731   5.980   3.243
 2679SOL    HW1 8083   1.803   6.049   3.243
 2679SOL    HW2 8084   1.756   5.905   3.182
 2680SOL     OW 8085   0.120   6.559   3.566
 2680SOL    HW1 8086   0.065   6.615   3.629
 2680SOL    HW2 8087   0.211   6.545   3.605
 2681SOL     OW 8088   0.682   5.782   3.361
 2681SOL    HW1 8089   0.769   5.757   3.317
 2681SOL    HW2 8090   0.700   5.814   3.454
 2682SOL     OW 8091   0.099   5.903   1.899
 2682SOL    HW1 8092   0.002   5.878   1.899
 2682SOL    HW2 8093   0.111   5.989   1.850
 2683SOL     OW 8094   1.427   6.439   3.261
 2683SOL    HW1 8095   1.373   6.503   3.206
 2683SOL    HW2 8096   1.521   6.439   3.229
 2684SOL     OW 8097   0.077   5.773   2.204
 2684SOL    HW1 8098   0.023   5.768   2.120
 2684SOL    HW2 8099   0.152   5.707   2.199
 2685SOL     OW 8100   0.623   6.413   3.297
 2685SOL    HW1 8101   0.681   6.493   3.277
 2685SOL    HW2 8102   0.680   6.332   3.307
 2686SOL     OW 8103   0.719   6.145   3.566
 2686SOL    HW1 8104   0.766   6.211   3.625
 2686SOL    HW2 8105   0.740   6.052   3.598
 2687SOL     OW 8106   1.485   6.779   3.508
 2687SOL    HW1 8107   1.472   6.798   3.606
 2687SOL    HW2 8108   1.581   6.793   3.484
 2688SOL     OW 8109   1.668   6.462   3.116
 2688SOL    HW1 8110   1.661   6.371   3.075
 2688SOL    HW2 8111   1.655   6.531   3.045
 2689SOL     OW 8112   1.220   5.903   2.321
 2689SOL    HW1 8113   1.283   5.826   2.311
 2689SOL    HW2 8114   1.246   5.958   2.401
 2690SOL     OW 8115   0.588   6.324   2.532
 2690SOL    HW1 8116   0.629   6.415   2.523
 2690SOL    HW2 8117   0.519   6.311   2.460
 2691SOL     OW 8118   1.751   5.950   3.514
 2691SOL    HW1 8119   1.742   5.967   3.416
 2691SOL    HW2 8120   1.678   5.891   3.546
 2692SOL     OW 8121   1.744   6.519   3.369
 2692SOL    HW1 8122   1.737   6.617   3.387
 2692SOL    HW2 8123   1.729   6.502   3.272
 2693SOL     OW 8124   0.867   6.551   2.720
 2693SOL    HW1 8125   0.920   6.473   2.754
 2693SOL    HW2 8126   0.836   6.606   2.797
 2694SOL     OW 8127   1.091   6.586   1.952
 2694SOL    HW1 8128   1.051   6.633   1.874
 2694SOL    HW2 8129   1.159   6.519   1.921
 2695SOL     OW 8130   0.249   6.870   3.716
 2695SOL    HW1 8131   0.153   6.870   3.687
 2695SOL    HW2 8132   0.261   6.935   3.791
 2696SOL     OW 8133   0.170   6.857   2.528
 2696SOL    HW1 8134   0.107   6.809   2.589
 2696SOL    HW2 8135   0.213   6.792   2.466
 2697SOL     OW 8136   0.709   6.969   3.493
 2697SOL    HW1 8137   0.612   6.957   3.514
 2697SOL    HW2 8138   0.728   0.066   3.475
 2698SOL     OW 8139   1.805   5.769   3.096
 2698SOL    HW1 8140   1.820   5.673   3.120
 2698SOL    HW2 8141   1.818   5.781   2.998
 2699SOL     OW 8142   0.455   6.014   2.402
 2699SOL    HW1 8143   0.477   5.946   2.332
 2699SOL    HW2 8144   0.397   5.973   2.471
 2700SOL     OW 8145   1.646   0.043   2.999
 2700SOL    HW1 8146   1.598   0.027   2.912
 2700SOL    HW2 8147   1.642   6.961   3.055
 2701SOL     OW 8148   0.331   6.137   3.153
 2701SOL    HW1 8149   0.388   6.082   3.213
 2701SOL    HW2 8150   0.347   6.111   3.058
 2702SOL     OW 8151   1.431   5.816   2.979
 2702SOL    HW1 8152   1.453   5.726   3.017
 2702SOL    HW2 8153   1.376   5.868   3.046
 2703SOL     OW 8154   1.010   5.602   3.001
 2703SOL    HW1 8155   0.946   5.539   2.958
 2703SOL    HW2 8156   1.101   5.562   3.002
 2704SOL     OW 8157   0.761   6.907   2.128
 2704SOL    HW1 8158   0.737   6.812   2.149
 2704SOL    HW2 8159   0.801   6.950   2.209
 2705SOL     OW 8160   1.354   5.637   2.031
 2705SOL    HW1 8161   1.395   5.569   1.969
 2705SOL    HW2 8162   1.261   5.607   2.054
 2706SOL     OW 8163   1.291   6.049   2.543
 2706SOL    HW1 8164   1.238   6.134   2.545
 2706SOL    HW2 8165   1.289   6.007   2.633
 2707SOL     OW 8166   1.586   5.790   2.745
 2707SOL    HW1 8167   1.528   5.809   2.824
 2707SOL    HW2 8168   1.588   5.870   2.685
 2708SOL     OW 8169   0.072   6.649   2.141
 2708SOL    HW1 8170   0.165   6.612   2.138
 2708SOL    HW2 8171   0.007   6.576   2.159
 2709SOL     OW 8172   0.191   6.240   3.844
 2709SOL    HW1 8173   0.175   6.174   3.918
 2709SOL    HW2 8174   0.227   6.192   3.764
 2710SOL     OW 8175   0.231   5.857   4.711
 2710SOL    HW1 8176   0.281   5.826   4.792
 2710SOL    HW2 8177   0.133   5.840   4.724
 2711SOL     OW 8178   6.990   5.971   4.377
 2711SOL    HW1 8179   6.942   5.968   4.465
 2711SOL    HW2 8180   0.011   5.878   4.347
 2712SOL     OW 8181   0.569   6.869   4.897
 2712SOL    HW1 8182   0.492   6.867   4.833
 2712SOL    HW2 8183   0.545   6.925   4.976
 2713SOL     OW 8184   1.541   0.056   4.414
 2713SOL    HW1 8185   1.519   0.051   4.511
 2713SOL    HW2 8186   1.462   0.090   4.363
 2714SOL     OW 8187   1.131   6.287   4.419
 2714SOL    HW1 8188   1.184   6.370   4.403
 2714SOL    HW2 8189   1.081   6.295   4.505
 2715SOL     OW 8190   1.770   6.184   3.946
 2715SOL    HW1 8191   1.746   6.180   3.849
 2715SOL    HW2 8192   1.731   6.105   3.994
 2716SOL     OW 8193   0.767   6.749   4.750
 2716SOL    HW1 8194   0.697   6.783   4.813
 2716SOL    HW2 8195   0.764   6.801   4.665
 2717SOL     OW 8196   0.874   6.352   5.545
 2717SOL    HW1 8197   0.860   6.419   5.618
 2717SOL    HW2 8198   0.899   6.400   5.461
 2718SOL     OW 8199   0.685   6.585   4.373
 2718SOL    HW1 8200   0.756   6.574   4.443
 2718SOL    HW2 8201   0.609   6.637   4.410
 2719SOL     OW 8202   0.690   6.734   5.539
 2719SOL    HW1 8203   0.729   6.824   5.556
 2719SOL    HW2 8204   0.605   6.744   5.487
 2720SOL     OW 8205   0.343   0.008   4.773
 2720SOL    HW1 8206   0.270   6.955   4.731
 2720SOL    HW2 8207   0.393   0.058   4.703
 2721SOL     OW 8208   0.444   5.981   5.217
 2721SOL    HW1 8209   0.526   5.925   5.218
 2721SOL    HW2 8210   0.363   5.923   5.225
 2722SOL     OW 8211   1.611   6.033   4.468
 2722SOL    HW1 8212   1.535   6.051   4.406
 2722SOL    HW2 8213   1.622   6.108   4.532
 2723SOL     OW 8214   0.265   6.669   4.639
 2723SOL    HW1 8215   0.255   6.574   4.666
 2723SOL    HW2 8216   0.191   6.723   4.679
 2724SOL     OW 8217   0.579   6.565   3.866
 2724SOL    HW1 8218   0.624   6.616   3.793
 2724SOL    HW2 8219   0.618   6.591   3.954
 2725SOL     OW 8220   1.597   5.710   5.194
 2725SOL    HW1 8221   1.614   5.790   5.136
 2725SOL    HW2 8222   1.582   5.740   5.288
 2726SOL     OW 8223   0.132   6.201   4.298
 2726SOL    HW1 8224   0.063   6.132   4.321
 2726SOL    HW2 8225   0.122   6.280   4.358
 2727SOL     OW 8226   1.689   6.503   4.368
 2727SOL    HW1 8227   1.777   6.458   4.353
 2727SOL    HW2 8228   1.666   6.559   4.288
 2728SOL     OW 8229   1.652   6.692   4.150
 2728SOL    HW1 8230   1.741   6.686   4.105
 2728SOL    HW2 8231   1.659   6.751   4.230
 2729SOL     OW 8232   0.145   6.317   5.305
 2729SOL    HW1 8233   0.243   6.325   5.290
 2729SOL    HW2 8234   0.109   6.404   5.339
 2730SOL     OW 8235   1.314   6.817   5.155
 2730SOL    HW1 8236   1.338   6.747   5.088
 2730SOL    HW2 8237   1.373   6.808   5.235
 2731SOL     OW 8238   0.816   5.595   4.232
 2731SOL    HW1 8239   0.862   5.681   4.210
 2731SOL    HW2 8240   0.718   5.610   4.240
 2732SOL     OW 8241   0.211   6.554   4.988
 2732SOL    HW1 8242   0.290   6.495   4.969
 2732SOL    HW2 8243   0.134   6.524   4.933
 2733SOL     OW 8244   1.535   6.587   3.925
 2733SOL    HW1 8245   1.461   6.526   3.954
 2733SOL    HW2 8246   1.583   6.622   4.006
 2734SOL     OW 8247   0.351   5.837   5.552
 2734SOL    HW1 8248   0.400   5.919   5.580
 2734SOL    HW2 8249   0.254   5.846   5.577
 2735SOL     OW 8250   1.458   6.989   4.671
 2735SOL    HW1 8251   1.389   0.014   4.740
 2735SOL    HW2 8252   1.441   6.895   4.641
 2736SOL     OW 8253   0.590   6.301   3.992
 2736SOL    HW1 8254   0.598   6.389   3.943
 2736SOL    HW2 8255   0.526   6.311   4.068
 2737SOL     OW 8256   1.277   5.943   4.657
 2737SOL    HW1 8257   1.184   5.909   4.664
 2737SOL    HW2 8258   1.336   5.891   4.719
 2738SOL     OW 8259   0.790   6.198   5.175
 2738SOL    HW1 8260   0.765   6.174   5.269
 2738SOL    HW2 8261   0.752   6.130   5.112
 2739SOL     OW 8262   1.392   6.056   5.404
 2739SOL    HW1 8263   1.392   6.105   5.491
 2739SOL    HW2 8264   1.453   5.977   5.409
 2740SOL     OW 8265   0.956   6.474   5.307
 2740SOL    HW1 8266   1.015   6.400   5.272
 2740SOL    HW2 8267   0.901   6.511   5.233
 2741SOL     OW 8268   0.994   5.993   4.954
 2741SOL    HW1 8269   0.904   6.014   4.993
 2741SOL    HW2 8270   0.981   5.944   4.868
 2742SOL     OW 8271   1.049   6.285   4.149
 2742SOL    HW1 8272   1.071   6.280   4.246
 2742SOL    HW2 8273   0.963   6.237   4.131
 2743SOL     OW 8274   0.103   6.404   4.496
 2743SOL    HW1 8275   0.194   6.392   4.535
 2743SOL    HW2 8276   0.042   6.445   4.564
 2744SOL     OW 8277   0.896   5.938   3.921
 2744SOL    HW1 8278   0.936   6.005   3.858
 2744SOL    HW2 8279   0.903   5.847   3.881
 2745SOL     OW 8280   1.702   6.159   5.549
 2745SOL    HW1 8281   1.666   6.237   5.499
 2745SOL    HW2 8282   1.732   6.089   5.484
 2746SOL     OW 8283   1.386   6.722   4.270
 2746SOL    HW1 8284   1.467   6.715   4.211
 2746SOL    HW2 8285   1.333   6.802   4.245
 2747SOL     OW 8286   0.550   5.762   4.622
 2747SOL    HW1 8287   0.556   5.791   4.718
 2747SOL    HW2 8288   0.554   5.842   4.563
 2748SOL     OW 8289   1.798   6.639   4.600
 2748SOL    HW1 8290   1.746   6.629   4.515
 2748SOL    HW2 8291   1.735   6.646   4.677
 2749SOL     OW 8292   0.318   6.528   3.978
 2749SOL    HW1 8293   0.404   6.554   3.934
 2749SOL    HW2 8294   0.286   6.441   3.940
 2750SOL     OW 8295   1.484   6.332   4.447
 2750SOL    HW1 8296   1.479   6.289   4.538
 2750SOL    HW2 8297   1.563   6.393   4.444
 2751SOL     OW 8298   0.196   5.856   5.215
 2751SOL    HW1 8299   0.113   5.908   5.198
 2751SOL    HW2 8300   0.173   5.771   5.263
 2752SOL     OW 8301   1.640   6.969   3.808
 2752SOL    HW1 8302   1.607   0.062   3.826
 2752SOL    HW2 8303   1.562   6.907   3.795
 2753SOL     OW 8304   1.401   5.690   4.159
 2753SOL    HW1 8305   1.389   5.665   4.064
 2753SOL    HW2 8306   1.499   5.700   4.179
 2754SOL     OW 8307   0.401   6.268   4.198
 2754SOL    HW1 8308   0.429   6.174   4.220
 2754SOL    HW2 8309   0.304   6.279   4.217
 2755SOL     OW 8310   1.529   5.809   5.452
 2755SOL    HW1 8311   1.539   5.830   5.549
 2755SOL    HW2 8312   1.456   5.741   5.440
 2756SOL     OW 8313   0.641   5.703   3.826
 2756SOL    HW1 8314   0.710   5.633   3.847
 2756SOL    HW2 8315   0.584   5.672   3.750
 2757SOL     OW 8316   0.764   5.863   5.481
 2757SOL    HW1 8317   0.847   5.809   5.475
 2757SOL    HW2 8318   0.711   5.834   5.561
 2758SOL     OW 8319   1.340   6.174   5.159
 2758SOL    HW1 8320   1.370   6.139   5.248
 2758SOL    HW2 8321   1.376   6.266   5.146
 2759SOL     OW 8322   0.927   6.092   4.623
 2759SOL    HW1 8323   0.901   6.086   4.526
 2759SOL    HW2 8324   0.960   6.003   4.655
 2760SOL     OW 8325   0.546   5.650   4.220
 2760SOL    HW1 8326   0.464   5.646   4.277
 2760SOL    HW2 8327   0.543   5.730   4.161
 2761SOL     OW 8328   1.419   6.788   3.783
 2761SOL    HW1 8329   1.473   6.717   3.829
 2761SOL    HW2 8330   1.325   6.756   3.770
 2762SOL     OW 8331   0.292   5.628   3.911
 2762SOL    HW1 8332   0.341   5.709   3.879
 2762SOL    HW2 8333   0.356   5.563   3.950
 2763SOL     OW 8334   0.945   5.836   4.181
 2763SOL    HW1 8335   0.914   5.878   4.096
 2763SOL    HW2 8336   1.044   5.850   4.190
 2764SOL     OW 8337   1.080   6.268   5.181
 2764SOL    HW1 8338   1.004   6.203   5.186
 2764SOL    HW2 8339   1.166   6.219   5.175
 2765SOL     OW 8340   1.269   0.147   4.465
 2765SOL    HW1 8341   1.237   0.231   4.422
 2765SOL    HW2 8342   1.281   0.162   4.563
 2766SOL     OW 8343   0.465   6.711   4.463
 2766SOL    HW1 8344   0.394   6.702   4.534
 2766SOL    HW2 8345   0.421   6.713   4.373
 2767SOL     OW 8346   1.021   6.123   3.753
 2767SOL    HW1 8347   0.976   6.209   3.729
 2767SOL    HW2 8348   1.090   6.139   3.823
 2768SOL     OW 8349   0.074   6.138   5.100
 2768SOL    HW1 8350   0.169   6.130   5.071
 2768SOL    HW2 8351   0.066   6.206   5.173
 2769SOL     OW 8352   0.564   5.810   4.894
 2769SOL    HW1 8353   0.614   5.732   4.932
 2769SOL    HW2 8354   0.469   5.808   4.925
 2770SOL     OW 8355   0.866   6.044   4.362
 2770SOL    HW1 8356   0.815   6.106   4.301
 2770SOL    HW2 8357   0.893   5.962   4.311
 2771SOL     OW 8358   1.017   5.639   4.470
 2771SOL    HW1 8359   0.957   5.639   4.391
 2771SOL    HW2 8360   0.993   5.563   4.530
 2772SOL     OW 8361   1.440   6.734   4.582
 2772SOL    HW1 8362   1.364   6.669   4.583
 2772SOL    HW2 8363   1.470   6.748   4.487
 2773SOL     OW 8364   1.468   6.192   4.695
 2773SOL    HW1 8365   1.407   6.113   4.695
 2773SOL    HW2 8366   1.529   6.186   4.774
 2774SOL     OW 8367   1.843   6.392   4.104
 2774SOL    HW1 8368   1.901   6.344   4.171
 2774SOL    HW2 8369   1.814   6.327   4.033
 2775SOL     OW 8370   1.679   6.832   4.372
 2775SOL    HW1 8371   1.777   6.843   4.389
 2775SOL    HW2 8372   1.632   6.918   4.392
 2776SOL     OW 8373   1.390   6.160   3.795
 2776SOL    HW1 8374   1.327   6.138   3.870
 2776SOL    HW2 8375   1.483   6.133   3.821
 2777SOL     OW 8376   0.529   5.848   4.034
 2777SOL    HW1 8377   0.577   5.793   3.965
 2777SOL    HW2 8378   0.502   5.935   3.995
 2778SOL     OW 8379   1.754   6.814   5.292
 2778SOL    HW1 8380   1.839   6.764   5.311
 2778SOL    HW2 8381   1.770   6.912   5.303
 2779SOL     OW 8382   1.076   6.895   5.051
 2779SOL    HW1 8383   0.996   6.879   5.109
 2779SOL    HW2 8384   1.159   6.878   5.103
 2780SOL     OW 8385   1.137   6.763   4.825
 2780SOL    HW1 8386   1.104   6.811   4.906
 2780SOL    HW2 8387   1.078   6.785   4.747
 2781SOL     OW 8388   1.623   6.682   4.806
 2781SOL    HW1 8389   1.612   6.738   4.888
 2781SOL    HW2 8390   1.547   6.698   4.744
 2782SOL     OW 8391   0.923   5.681   5.116
 2782SOL    HW1 8392   0.944   5.658   5.021
 2782SOL    HW2 8393   1.002   5.724   5.159
 2783SOL     OW 8394   0.968   6.697   5.461
 2783SOL    HW1 8395   0.870   6.710   5.477
 2783SOL    HW2 8396   0.981   6.622   5.396
 2784SOL     OW 8397   0.707   6.637   4.094
 2784SOL    HW1 8398   0.695   6.629   4.193
 2784SOL    HW2 8399   0.789   6.587   4.066
 2785SOL     OW 8400   0.428   6.390   4.973
 2785SOL    HW1 8401   0.499   6.405   5.043
 2785SOL    HW2 8402   0.386   6.301   4.988
 2786SOL     OW 8403   1.263   5.962   5.004
 2786SOL    HW1 8404   1.299   6.041   5.052
 2786SOL    HW2 8405   1.167   5.980   4.978
 2787SOL     OW 8406   0.031   0.146   5.075
 2787SOL    HW1 8407   6.954   0.209   5.066
 2787SOL    HW2 8408   0.094   0.179   5.145
 2788SOL     OW 8409   0.338   6.705   4.217
 2788SOL    HW1 8410   0.386   6.777   4.167
 2788SOL    HW2 8411   0.333   6.623   4.160
 2789SOL     OW 8412   0.550   6.129   4.587
 2789SOL    HW1 8413   0.563   6.188   4.507
 2789SOL    HW2 8414   0.619   6.150   4.656
 2790SOL     OW 8415   1.577   6.208   4.205
 2790SOL    HW1 8416   1.528   6.255   4.278
 2790SOL    HW2 8417   1.628   6.275   4.151
 2791SOL     OW 8418   0.423   6.318   5.322
 2791SOL    HW1 8419   0.484   6.370   5.263
 2791SOL    HW2 8420   0.465   6.231   5.345
 2792SOL     OW 8421   1.607   6.370   5.408
 2792SOL    HW1 8422   1.515   6.410   5.405
 2792SOL    HW2 8423   1.663   6.411   5.337
 2793SOL     OW 8424   0.997   5.719   5.474
 2793SOL    HW1 8425   1.055   5.798   5.458
 2793SOL    HW2 8426   1.046   5.636   5.448
 2794SOL     OW 8427   0.495   5.622   5.473
 2794SOL    HW1 8428   0.450   5.565   5.404
 2794SOL    HW2 8429   0.439   5.702   5.492
 2795SOL     OW 8430   0.587   6.452   4.758
 2795SOL    HW1 8431   0.606   6.549   4.745
 2795SOL    HW2 8432   0.526   6.440   4.836
 2796SOL     OW 8433   1.357   6.440   4.751
 2796SOL    HW1 8434   1.266   6.438   4.710
 2796SOL    HW2 8435   1.402   6.351   4.739
 2797SOL     OW 8436   1.198   6.113   3.989
 2797SOL    HW1 8437   1.211   6.031   4.043
 2797SOL    HW2 8438   1.153   6.183   4.045
 2798SOL     OW 8439   0.307   5.782   4.970
 2798SOL    HW1 8440   0.268   5.818   5.055
 2798SOL    HW2 8441   0.291   5.684   4.965
 2799SOL     OW 8442   0.111   6.902   4.995
 2799SOL    HW1 8443   0.111   6.828   5.063
 2799SOL    HW2 8444   0.067   6.983   5.035
 2800SOL     OW 8445   0.727   6.215   4.781
 2800SOL    HW1 8446   0.803   6.196   4.718
 2800SOL    HW2 8447   0.691   6.307   4.762
 2801SOL     OW 8448   1.734   6.547   5.577
 2801SOL    HW1 8449   1.691   6.477   5.520
 2801SOL    HW2 8450   1.678   6.563   5.658
 2802SOL     OW 8451   0.301   5.647   4.348
 2802SOL    HW1 8452   0.281   5.743   4.367
 2802SOL    HW2 8453   0.313   5.598   4.435
 2803SOL     OW 8454   1.626   5.966   4.087
 2803SOL    HW1 8455   1.652   5.893   4.150
 2803SOL    HW2 8456   1.598   6.047   4.138
 2804SOL     OW 8457   1.024   6.340   4.682
 2804SOL    HW1 8458   1.020   6.362   4.780
 2804SOL    HW2 8459   0.997   6.245   4.669
 2805SOL     OW 8460   1.855   0.066   5.324
 2805SOL    HW1 8461   1.891   0.141   5.269
 2805SOL    HW2 8462   1.910   0.056   5.407
 2806SOL     OW 8463   0.367   6.503   5.520
 2806SOL    HW1 8464   0.441   6.518   5.586
 2806SOL    HW2 8465   0.395   6.432   5.455
 2807SOL     OW 8466   1.527   5.855   3.854
 2807SOL    HW1 8467   1.458   5.787   3.879
 2807SOL    HW2 8468   1.564   5.897   3.937
 2808SOL     OW 8469   1.288   6.410   3.748
 2808SOL    HW1 8470   1.330   6.320   3.758
 2808SOL    HW2 8471   1.320   6.451   3.662
 2809SOL     OW 8472   0.318   6.385   4.666
 2809SOL    HW1 8473   0.415   6.410   4.661
 2809SOL    HW2 8474   0.309   6.294   4.705
 2810SOL     OW 8475   0.330   6.106   4.738
 2810SOL    HW1 8476   0.291   6.015   4.722
 2810SOL    HW2 8477   0.410   6.118   4.680
 2811SOL     OW 8478   1.134   5.959   5.415
 2811SOL    HW1 8479   1.081   6.016   5.478
 2811SOL    HW2 8480   1.226   5.996   5.407
 2812SOL     OW 8481   1.162   5.789   5.199
 2812SOL    HW1 8482   1.147   5.852   5.276
 2812SOL    HW2 8483   1.204   5.839   5.123
 2813SOL     OW 8484   6.983   6.914   3.927
 2813SOL    HW1 8485   6.913   6.931   3.996
 2813SOL    HW2 8486   0.037   6.835   3.953
 2814SOL     OW 8487   0.976   6.379   4.949
 2814SOL    HW1 8488   1.035   6.354   5.025
 2814SOL    HW2 8489   0.887   6.333   4.959
 2815SOL     OW 8490   0.048   6.190   4.830
 2815SOL    HW1 8491   0.123   6.142   4.784
 2815SOL    HW2 8492   0.051   6.171   4.928
 2816SOL     OW 8493   0.209   6.098   5.448
 2816SOL    HW1 8494   0.284   6.052   5.399
 2816SOL    HW2 8495   0.187   6.184   5.401
 2817SOL     OW 8496   1.379   6.523   5.379
 2817SOL    HW1 8497   1.409   6.619   5.378
 2817SOL    HW2 8498   1.376   6.489   5.285
 2818SOL     OW 8499   0.817   6.159   4.082
 2818SOL    HW1 8500   0.827   6.078   4.023
 2818SOL    HW2 8501   0.738   6.212   4.052
 2819SOL     OW 8502   1.643   6.188   4.906
 2819SOL    HW1 8503   1.626   6.128   4.984
 2819SOL    HW2 8504   1.734   6.171   4.869
 2820SOL     OW 8505   0.705   6.035   4.979
 2820SOL    HW1 8506   0.651   5.955   4.953
 2820SOL    HW2 8507   0.704   6.102   4.905
 2821SOL     OW 8508   0.456   6.074   3.906
 2821SOL    HW1 8509   0.513   6.154   3.924
 2821SOL    HW2 8510   0.369   6.084   3.954
 2822SOL     OW 8511   0.186   6.706   5.204
 2822SOL    HW1 8512   0.166   6.643   5.278
 2822SOL    HW2 8513   0.198   6.655   5.119
 2823SOL     OW 8514   1.330   6.624   4.948
 2823SOL    HW1 8515   1.359   6.556   4.880
 2823SOL    HW2 8516   1.257   6.680   4.909
 2824SOL     OW 8517   1.316   6.447   4.021
 2824SOL    HW1 8518   1.243   6.416   4.083
 2824SOL    HW2 8519   1.288   6.430   3.926
 2825SOL     OW 8520   0.074   6.839   4.737
 2825SOL    HW1 8521   0.090   6.857   4.834
 2825SOL    HW2 8522   6.977   6.816   4.723
 2826SOL     OW 8523   1.719   5.735   4.224
 2826SOL    HW1 8524   1.795   5.725   4.159
 2826SOL    HW2 8525   1.702   5.647   4.269
 2827SOL     OW 8526   1.282   6.508   4.394
 2827SOL    HW1 8527   1.356   6.443   4.409
 2827SOL    HW2 8528   1.317   6.586   4.341
 2828SOL     OW 8529   0.817   6.844   5.142
 2828SOL    HW1 8530   0.791   6.886   5.229
 2828SOL    HW2 8531   0.744   6.858   5.076
 2829SOL     OW 8532   1.842   5.756   4.688
 2829SOL    HW1 8533   1.876   5.665   4.665
 2829SOL    HW2 8534   1.751   5.768   4.648
 2830SOL     OW 8535   0.263   5.902   4.438
 2830SOL    HW1 8536   0.187   5.964   4.417
 2830SOL    HW2 8537   0.265   5.883   4.536
 2831SOL     OW 8538   1.245   0.212   3.736
 2831SOL    HW1 8539   1.251   0.145   3.809
 2831SOL    HW2 8540   1.154   0.211   3.696
 2832SOL     OW 8541   0.826   6.582   5.094
 2832SOL    HW1 8542   0.883   6.559   5.015
 2832SOL    HW2 8543   0.831   6.680   5.111
 2833SOL     OW 8544   0.919   6.495   4.004
 2833SOL    HW1 8545   0.986   6.536   3.941
 2833SOL    HW2 8546   0.965   6.426   4.060
 2834SOL     OW 8547   0.388   6.896   5.238
 2834SOL    HW1 8548   0.356   6.970   5.177
 2834SOL    HW2 8549   0.326   6.818   5.230
 2835SOL     OW 8550   1.604   6.846   5.037
 2835SOL    HW1 8551   1.680   6.835   5.101
 2835SOL    HW2 8552   1.536   6.908   5.076
 2836SOL     OW 8553   1.061   6.694   4.449
 2836SOL    HW1 8554   0.981   6.645   4.484
 2836SOL    HW2 8555   1.127   6.629   4.413
 2837SOL     OW 8556   1.022   5.825   4.691
 2837SOL    HW1 8557   1.018   5.781   4.601
 2837SOL    HW2 8558   1.020   5.755   4.763
 2838SOL     OW 8559   1.731   5.980   5.105
 2838SOL    HW1 8560   1.803   6.049   5.105
 2838SOL    HW2 8561   1.756   5.905   5.044
 2839SOL     OW 8562   0.120   6.559   5.428
 2839SOL    HW1 8563   0.065   6.615   5.491
 2839SOL    HW2 8564   0.211   6.545   5.467
 2840SOL     OW 8565   0.682   5.781   5.223
 2840SOL    HW1 8566   0.769   5.757   5.179
 2840SOL    HW2 8567   0.700   5.814   5.316
 2841SOL     OW 8568   0.099   5.904   3.762
 2841SOL    HW1 8569   0.002   5.879   3.760
 2841SOL    HW2 8570   0.112   5.989   3.712
 2842SOL     OW 8571   1.427   6.439   5.123
 2842SOL    HW1 8572   1.373   6.503   5.068
 2842SOL    HW2 8573   1.521   6.439   5.090
 2843SOL     OW 8574   0.077   5.773   4.066
 2843SOL    HW1 8575   0.023   5.768   3.982
 2843SOL    HW2 8576   0.152   5.707   4.061
 2844SOL     OW 8577   0.623   6.413   5.159
 2844SOL    HW1 8578   0.681   6.493   5.139
 2844SOL    HW2 8579   0.680   6.332   5.169
 2845SOL     OW 8580   0.719   6.145   5.428
 2845SOL    HW1 8581   0.765   6.212   5.487
 2845SOL    HW2 8582   0.740   6.053   5.460
 2846SOL     OW 8583   1.485   6.779   5.370
 2846SOL    HW1 8584   1.472   6.798   5.468
 2846SOL    HW2 8585   1.581   6.793   5.346
 2847SOL     OW 8586   1.668   6.462   4.978
 2847SOL    HW1 8587   1.661   6.371   4.937
 2847SOL    HW2 8588   1.655   6.531   4.907
 2848SOL     OW 8589   1.220   5.903   4.183
 2848SOL    HW1 8590   1.283   5.826   4.173
 2848SOL    HW2 8591   1.246   5.958   4.263
 2849SOL     OW 8592   0.588   6.324   4.394
 2849SOL    HW1 8593   0.629   6.415   4.385
 2849SOL    HW2 8594   0.519   6.311   4.323
 2850SOL     OW 8595   1.752   5.950   5.376
 2850SOL    HW1 8596   1.742   5.967   5.278
 2850SOL    HW2 8597   1.678   5.891   5.408
 2851SOL     OW 8598   1.744   6.519   5.231
 2851SOL    HW1 8599   1.737   6.617   5.249
 2851SOL    HW2 8600   1.729   6.502   5.134
 2852SOL     OW 8601   0.867   6.551   4.582
 2852SOL    HW1 8602   0.920   6.473   4.616
 2852SOL    HW2 8603   0.836   6.606   4.659
 2853SOL     OW 8604   1.091   6.586   3.814
 2853SOL    HW1 8605   1.051   6.633   3.736
 2853SOL    HW2 8606   1.159   6.519   3.783
 2854SOL     OW 8607   0.249   6.870   5.578
 2854SOL    HW1 8608   0.153   6.871   5.548
 2854SOL    HW2 8609   0.261   6.935   5.653
 2855SOL     OW 8610   0.170   6.857   4.390
 2855SOL    HW1 8611   0.107   6.809   4.451
 2855SOL    HW2 8612   0.213   6.792   4.328
 2856SOL     OW 8613   0.709   6.969   5.355
 2856SOL    HW1 8614   0.612   6.958   5.376
 2856SOL    HW2 8615   0.728   0.066   5.337
 2857SOL     OW 8616   1.805   5.769   4.958
 2857SOL    HW1 8617   1.820   5.673   4.982
 2857SOL    HW2 8618   1.818   5.781   4.860
 2858SOL     OW 8619   0.456   6.014   4.264
 2858SOL    HW1 8620   0.477   5.946   4.194
 2858SOL    HW2 8621   0.397   5.973   4.333
 2859SOL     OW 8622   1.646   0.043   4.861
 2859SOL    HW1 8623   1.598   0.027   4.774
 2859SOL    HW2 8624   1.642   6.961   4.917
 2860SOL     OW 8625   0.331   6.137   5.015
 2860SOL    HW1 8626   0.388   6.082   5.075
 2860SOL    HW2 8627   0.347   6.111   4.920
 2861SOL     OW 8628   1.431   5.816   4.841
 2861SOL    HW1 8629   1.454   5.727   4.879
 2861SOL    HW2 8630   1.376   5.867   4.908
 2862SOL     OW 8631   1.010   5.602   4.863
 2862SOL    HW1 8632   0.946   5.539   4.820
 2862SOL    HW2 8633   1.101   5.562   4.864
 2863SOL     OW 8634   0.761   6.907   3.990
 2863SOL    HW1 8635   0.737   6.812   4.011
 2863SOL    HW2 8636   0.801   6.950   4.071
 2864SOL     OW 8637   1.353   5.637   3.893
 2864SOL    HW1 8638   1.395   5.570   3.831
 2864SOL    HW2 8639   1.261   5.607   3.916
 2865SOL     OW 8640   1.291   6.049   4.405
 2865SOL    HW1 8641   1.238   6.134   4.407
 2865SOL    HW2 8642   1.289   6.007   4.495
 2866SOL     OW 8643   1.586   5.790   4.607
 2866SOL    HW1 8644   1.528   5.809   4.686
 2866SOL    HW2 8645   1.588   5.870   4.547
 2867SOL     OW 8646   0.072   6.649   4.003
 2867SOL    HW1 8647   0.165   6.612   4.000
 2867SOL    HW2 8648   0.007   6.576   4.021
 2868SOL     OW 8649   0.191   6.240   5.706
 2868SOL    HW1 8650   0.175   6.174   5.780
 2868SOL    HW2 8651   0.227   6.192   5.626
 2869SOL     OW 8652   0.228   5.862   6.569
 2869SOL    HW1 8653   0.281   5.830   6.647
 2869SOL    HW2 8654   0.131   5.840   6.583
 2870SOL     OW 8655   6.989   5.971   6.239
 2870SOL    HW1 8656   6.941   5.967   6.327
 2870SOL    HW2 8657   0.010   5.878   6.208
 2871SOL     OW 8658   0.562   6.879   6.769
 2871SOL    HW1 8659   0.494   6.893   6.696
 2871SOL    HW2 8660   0.515   6.876   6.857
 2872SOL     OW 8661   1.541   0.056   6.275
 2872SOL    HW1 8662   1.517   0.050   6.372
 2872SOL    HW2 8663   1.462   0.092   6.224
 2873SOL     OW 8664   1.131   6.286   6.282
 2873SOL    HW1 8665   1.183   6.370   6.266
 2873SOL    HW2 8666   1.080   6.294   6.368
 2874SOL     OW 8667   1.770   6.184   5.808
 2874SOL    HW1 8668   1.746   6.180   5.711
 2874SOL    HW2 8669   1.731   6.105   5.856
 2875SOL     OW 8670   0.756   6.740   6.616
 2875SOL    HW1 8671   0.691   6.782   6.679
 2875SOL    HW2 8672   0.769   6.800   6.536
 2876SOL     OW 8673   0.685   6.585   6.235
 2876SOL    HW1 8674   0.756   6.574   6.304
 2876SOL    HW2 8675   0.609   6.638   6.272
 2877SOL     OW 8676   0.340   0.012   6.631
 2877SOL    HW1 8677   0.267   6.957   6.590
 2877SOL    HW2 8678   0.388   0.062   6.559
 2878SOL     OW 8679   1.611   6.033   6.329
 2878SOL    HW1 8680   1.534   6.050   6.267
 2878SOL    HW2 8681   1.616   6.107   6.396
 2879SOL     OW 8682   0.264   6.667   6.497
 2879SOL    HW1 8683   0.256   6.573   6.528
 2879SOL    HW2 8684   0.190   6.722   6.538
 2880SOL     OW 8685   0.579   6.565   5.728
 2880SOL    HW1 8686   0.624   6.616   5.655
 2880SOL    HW2 8687   0.618   6.591   5.816
 2881SOL     OW 8688   0.132   6.200   6.159
 2881SOL    HW1 8689   0.062   6.132   6.183
 2881SOL    HW2 8690   0.123   6.279   6.220
 2882SOL     OW 8691   1.689   6.503   6.227
 2882SOL    HW1 8692   1.776   6.457   6.210
 2882SOL    HW2 8693   1.665   6.559   6.148
 2883SOL     OW 8694   1.652   6.692   6.011
 2883SOL    HW1 8695   1.741   6.687   5.966
 2883SOL    HW2 8696   1.659   6.752   6.091
 2884SOL     OW 8697   0.816   5.594   6.094
 2884SOL    HW1 8698   0.862   5.680   6.072
 2884SOL    HW2 8699   0.718   5.610   6.103
 2885SOL     OW 8700   0.199   6.525   6.840
 2885SOL    HW1 8701   0.289   6.484   6.827
 2885SOL    HW2 8702   0.140   6.501   6.763
 2886SOL     OW 8703   1.535   6.587   5.787
 2886SOL    HW1 8704   1.461   6.526   5.816
 2886SOL    HW2 8705   1.583   6.622   5.868
 2887SOL     OW 8706   1.455   6.994   6.530
 2887SOL    HW1 8707   1.394   0.020   6.605
 2887SOL    HW2 8708   1.438   6.899   6.504
 2888SOL     OW 8709   0.590   6.301   5.853
 2888SOL    HW1 8710   0.598   6.389   5.805
 2888SOL    HW2 8711   0.526   6.311   5.929
 2889SOL     OW 8712   1.276   5.940   6.518
 2889SOL    HW1 8713   1.181   5.908   6.525
 2889SOL    HW2 8714   1.333   5.890   6.582
 2890SOL     OW 8715   0.798   6.186   0.050
 2890SOL    HW1 8716   0.736   6.234   0.112
 2890SOL    HW2 8717   0.744   6.135   6.983
 2891SOL     OW 8718   1.003   5.977   6.799
 2891SOL    HW1 8719   0.938   6.034   6.849
 2891SOL    HW2 8720   0.955   5.932   6.723
 2892SOL     OW 8721   1.049   6.285   6.011
 2892SOL    HW1 8722   1.071   6.280   6.108
 2892SOL    HW2 8723   0.963   6.237   5.993
 2893SOL     OW 8724   0.106   6.402   6.356
 2893SOL    HW1 8725   0.196   6.391   6.397
 2893SOL    HW2 8726   0.045   6.448   6.421
 2894SOL     OW 8727   0.896   5.938   5.783
 2894SOL    HW1 8728   0.936   6.005   5.720
 2894SOL    HW2 8729   0.903   5.847   5.743
 2895SOL     OW 8730   1.386   6.722   6.133
 2895SOL    HW1 8731   1.466   6.715   6.073
 2895SOL    HW2 8732   1.333   6.803   6.108
 2896SOL     OW 8733   0.550   5.760   6.482
 2896SOL    HW1 8734   0.563   5.790   6.577
 2896SOL    HW2 8735   0.554   5.840   6.421
 2897SOL     OW 8736   1.805   6.638   6.452
 2897SOL    HW1 8737   1.752   6.626   6.368
 2897SOL    HW2 8738   1.742   6.639   6.530
 2898SOL     OW 8739   0.318   6.528   5.840
 2898SOL    HW1 8740   0.404   6.554   5.796
 2898SOL    HW2 8741   0.286   6.441   5.801
 2899SOL     OW 8742   1.484   6.332   6.307
 2899SOL    HW1 8743   1.477   6.288   6.397
 2899SOL    HW2 8744   1.563   6.393   6.306
 2900SOL     OW 8745   1.640   6.969   5.670
 2900SOL    HW1 8746   1.607   0.062   5.688
 2900SOL    HW2 8747   1.562   6.907   5.657
 2901SOL     OW 8748   1.401   5.690   6.022
 2901SOL    HW1 8749   1.389   5.665   5.926
 2901SOL    HW2 8750   1.499   5.699   6.041
 2902SOL     OW 8751   0.401   6.268   6.060
 2902SOL    HW1 8752   0.429   6.175   6.081
 2902SOL    HW2 8753   0.304   6.279   6.078
 2903SOL     OW 8754   0.641   5.703   5.688
 2903SOL    HW1 8755   0.711   5.634   5.708
 2903SOL    HW2 8756   0.584   5.672   5.612
 2904SOL     OW 8757   0.928   6.092   6.485
 2904SOL    HW1 8758   0.901   6.086   6.389
 2904SOL    HW2 8759   0.964   6.004   6.516
 2905SOL     OW 8760   0.546   5.650   6.082
 2905SOL    HW1 8761   0.464   5.646   6.138
 2905SOL    HW2 8762   0.543   5.730   6.023
 2906SOL     OW 8763   1.419   6.788   5.645
 2906SOL    HW1 8764   1.473   6.717   5.691
 2906SOL    HW2 8765   1.325   6.755   5.633
 2907SOL     OW 8766   0.292   5.628   5.773
 2907SOL    HW1 8767   0.341   5.709   5.740
 2907SOL    HW2 8768   0.357   5.563   5.812
 2908SOL     OW 8769   0.945   5.836   6.043
 2908SOL    HW1 8770   0.914   5.878   5.958
 2908SOL    HW2 8771   1.044   5.850   6.052
 2909SOL     OW 8772   1.270   0.148   6.323
 2909SOL    HW1 8773   1.234   0.233   6.286
 2909SOL    HW2 8774   1.277   0.155   6.422
 2910SOL     OW 8775   0.464   6.711   6.324
 2910SOL    HW1 8776   0.394   6.702   6.394
 2910SOL    HW2 8777   0.421   6.714   6.234
 2911SOL     OW 8778   1.021   6.123   5.615
 2911SOL    HW1 8779   0.976   6.209   5.591
 2911SOL    HW2 8780   1.090   6.139   5.685
 2912SOL     OW 8781   0.581   5.806   6.751
 2912SOL    HW1 8782   0.625   5.722   6.784
 2912SOL    HW2 8783   0.484   5.806   6.779
 2913SOL     OW 8784   0.865   6.044   6.224
 2913SOL    HW1 8785   0.816   6.106   6.162
 2913SOL    HW2 8786   0.893   5.962   6.174
 2914SOL     OW 8787   1.019   5.635   6.328
 2914SOL    HW1 8788   0.956   5.636   6.250
 2914SOL    HW2 8789   0.993   5.561   6.390
 2915SOL     OW 8790   1.436   6.736   6.443
 2915SOL    HW1 8791   1.362   6.668   6.446
 2915SOL    HW2 8792   1.465   6.750   6.349
 2916SOL     OW 8793   1.466   6.189   6.551
 2916SOL    HW1 8794   1.404   6.110   6.557
 2916SOL    HW2 8795   1.529   6.187   6.629
 2917SOL     OW 8796   1.843   6.391   5.966
 2917SOL    HW1 8797   1.901   6.344   6.032
 2917SOL    HW2 8798   1.814   6.327   5.895
 2918SOL     OW 8799   1.680   6.834   6.232
 2918SOL    HW1 8800   1.778   6.845   6.250
 2918SOL    HW2 8801   1.632   6.919   6.253
 2919SOL     OW 8802   1.390   6.160   5.657
 2919SOL    HW1 8803   1.327   6.138   5.732
 2919SOL    HW2 8804   1.483   6.133   5.683
 2920SOL     OW 8805   0.530   5.848   5.896
 2920SOL    HW1 8806   0.577   5.793   5.827
 2920SOL    HW2 8807   0.502   5.936   5.856
 2921SOL     OW 8808   1.742   6.787   0.182
 2921SOL    HW1 8809   1.835   6.762   0.212
 2921SOL    HW2 8810   1.742   6.882   0.151
 2922SOL     OW 8811   1.067   6.901   6.929
 2922SOL    HW1 8812   0.975   6.881   6.964
 2922SOL    HW2 8813   1.133   6.898   0.004
 2923SOL     OW 8814   1.131   6.761   6.702
 2923SOL    HW1 8815   1.102   6.818   6.778
 2923SOL    HW2 8816   1.093   6.798   6.617
 2924SOL     OW 8817   1.622   6.664   6.647
 2924SOL    HW1 8818   1.620   6.726   6.725
 2924SOL    HW2 8819   1.545   6.683   6.587
 2925SOL     OW 8820   0.707   6.637   5.956
 2925SOL    HW1 8821   0.695   6.629   6.055
 2925SOL    HW2 8822   0.789   6.587   5.928
 2926SOL     OW 8823   0.438   6.390   6.846
 2926SOL    HW1 8824   0.493   6.415   6.926
 2926SOL    HW2 8825   0.396   6.301   6.861
 2927SOL     OW 8826   1.267   5.973   6.856
 2927SOL    HW1 8827   1.295   6.049   6.916
 2927SOL    HW2 8828   1.172   5.986   6.828
 2928SOL     OW 8829   0.060   0.139   6.952
 2928SOL    HW1 8830   6.967   0.165   6.974
 2928SOL    HW2 8831   0.113   0.126   0.036
 2929SOL     OW 8832   0.338   6.705   6.078
 2929SOL    HW1 8833   0.387   6.777   6.028
 2929SOL    HW2 8834   0.333   6.623   6.021
 2930SOL     OW 8835   0.547   6.132   6.451
 2930SOL    HW1 8836   0.561   6.189   6.370
 2930SOL    HW2 8837   0.618   6.150   6.518
 2931SOL     OW 8838   1.577   6.208   6.066
 2931SOL    HW1 8839   1.529   6.254   6.141
 2931SOL    HW2 8840   1.628   6.276   6.013
 2932SOL     OW 8841   0.589   6.452   6.620
 2932SOL    HW1 8842   0.614   6.548   6.609
 2932SOL    HW2 8843   0.532   6.443   6.702
 2933SOL     OW 8844   1.353   6.437   6.605
 2933SOL    HW1 8845   1.262   6.432   6.565
 2933SOL    HW2 8846   1.399   6.349   6.594
 2934SOL     OW 8847   1.198   6.113   5.851
 2934SOL    HW1 8848   1.211   6.031   5.905
 2934SOL    HW2 8849   1.153   6.183   5.907
 2935SOL     OW 8850   0.323   5.785   6.820
 2935SOL    HW1 8851   0.308   5.800   6.917
 2935SOL    HW2 8852   0.299   5.691   6.796
 2936SOL     OW 8853   0.081   6.888   6.853
 2936SOL    HW1 8854   0.119   6.825   6.921
 2936SOL    HW2 8855   0.071   6.979   6.893
 2937SOL     OW 8856   0.727   6.212   6.642
 2937SOL    HW1 8857   0.804   6.192   6.582
 2937SOL    HW2 8858   0.694   6.305   6.623
 2938SOL     OW 8859   0.301   5.647   6.209
 2938SOL    HW1 8860   0.281   5.743   6.227
 2938SOL    HW2 8861   0.313   5.598   6.296
 2939SOL     OW 8862   1.626   5.966   5.949
 2939SOL    HW1 8863   1.652   5.894   6.012
 2939SOL    HW2 8864   1.597   6.047   6.000
 2940SOL     OW 8865   1.023   6.341   6.550
 2940SOL    HW1 8866   1.022   6.361   6.648
 2940SOL    HW2 8867   0.997   6.245   6.536
 2941SOL     OW 8868   1.527   5.855   5.716
 2941SOL    HW1 8869   1.458   5.787   5.741
 2941SOL    HW2 8870   1.564   5.897   5.799
 2942SOL     OW 8871   1.288   6.410   5.609
 2942SOL    HW1 8872   1.329   6.320   5.620
 2942SOL    HW2 8873   1.319   6.451   5.524
 2943SOL     OW 8874   0.318   6.387   6.534
 2943SOL    HW1 8875   0.414   6.412   6.525
 2943SOL    HW2 8876   0.311   6.293   6.568
 2944SOL     OW 8877   0.329   6.109   6.604
 2944SOL    HW1 8878   0.290   6.018   6.586
 2944SOL    HW2 8879   0.411   6.122   6.547
 2945SOL     OW 8880   1.141   5.825   0.055
 2945SOL    HW1 8881   1.200   5.854   0.131
 2945SOL    HW2 8882   1.178   5.860   6.969
 2946SOL     OW 8883   6.982   6.914   5.789
 2946SOL    HW1 8884   6.913   6.931   5.859
 2946SOL    HW2 8885   0.037   6.835   5.815
 2947SOL     OW 8886   0.990   6.375   6.825
 2947SOL    HW1 8887   1.061   6.335   6.883
 2947SOL    HW2 8888   0.900   6.347   6.857
 2948SOL     OW 8889   0.058   6.194   6.692
 2948SOL    HW1 8890   0.119   6.147   6.629
 2948SOL    HW2 8891   0.058   6.146   6.780
 2949SOL     OW 8892   0.817   6.158   5.944
 2949SOL    HW1 8893   0.827   6.078   5.886
 2949SOL    HW2 8894   0.738   6.212   5.914
 2950SOL     OW 8895   1.647   6.195   6.753
 2950SOL    HW1 8896   1.632   6.136   6.832
 2950SOL    HW2 8897   1.742   6.184   6.721
 2951SOL     OW 8898   0.674   6.050   6.850
 2951SOL    HW1 8899   0.643   5.960   6.818
 2951SOL    HW2 8900   0.689   6.110   6.772
 2952SOL     OW 8901   0.457   6.074   5.768
 2952SOL    HW1 8902   0.514   6.154   5.786
 2952SOL    HW2 8903   0.369   6.084   5.815
 2953SOL     OW 8904   0.188   6.712   0.031
 2953SOL    HW1 8905   0.154   6.675   0.118
 2953SOL    HW2 8906   0.190   6.640   6.962
 2954SOL     OW 8907   1.315   6.601   6.819
 2954SOL    HW1 8908   1.351   6.541   6.747
 2954SOL    HW2 8909   1.247   6.663   6.780
 2955SOL     OW 8910   1.316   6.447   5.883
 2955SOL    HW1 8911   1.243   6.416   5.945
 2955SOL    HW2 8912   1.288   6.430   5.788
 2956SOL     OW 8913   0.073   6.835   6.593
 2956SOL    HW1 8914   0.080   6.852   6.691
 2956SOL    HW2 8915   6.977   6.827   6.567
 2957SOL     OW 8916   1.720   5.735   6.086
 2957SOL    HW1 8917   1.795   5.725   6.021
 2957SOL    HW2 8918   1.702   5.647   6.131
 2958SOL     OW 8919   1.282   6.508   6.255
 2958SOL    HW1 8920   1.356   6.443   6.271
 2958SOL    HW2 8921   1.317   6.586   6.203
 2959SOL     OW 8922   0.814   6.841   0.017
 2959SOL    HW1 8923   0.810   6.856   0.115
 2959SOL    HW2 8924   0.727   6.871   6.976
 2960SOL     OW 8925   1.841   5.759   6.557
 2960SOL    HW1 8926   1.875   5.668   6.533
 2960SOL    HW2 8927   1.750   5.771   6.518
 2961SOL     OW 8928   0.263   5.903   6.296
 2961SOL    HW1 8929   0.186   5.964   6.274
 2961SOL    HW2 8930   0.264   5.885   6.394
 2962SOL     OW 8931   1.245   0.212   5.597
 2962SOL    HW1 8932   1.251   0.145   5.671
 2962SOL    HW2 8933   1.153   0.210   5.558
 2963SOL     OW 8934   0.793   6.584   6.940
 2963SOL    HW1 8935   0.847   6.562   6.859
 2963SOL    HW2 8936   0.811   6.678   6.968
 2964SOL     OW 8937   0.919   6.495   5.866
 2964SOL    HW1 8938   0.985   6.536   5.803
 2964SOL    HW2 8939   0.965   6.426   5.922
 2965SOL     OW 8940   0.405   6.886   6.998
 2965SOL    HW1 8941   0.381   6.966   0.052
 2965SOL    HW2 8942   0.335   6.815   0.008
 2966SOL     OW 8943   1.618   6.831   6.855
 2966SOL    HW1 8944   1.699   6.850   6.912
 2966SOL    HW2 8945   1.538   6.821   6.914
 2967SOL     OW 8946   1.061   6.693   6.308
 2967SOL    HW1 8947   0.982   6.644   6.345
 2967SOL    HW2 8948   1.128   6.627   6.274
 2968SOL     OW 8949   1.020   5.823   6.543
 2968SOL    HW1 8950   1.018   5.774   6.455
 2968SOL    HW2 8951   1.021   5.757   6.617
 2969SOL     OW 8952   1.698   6.009   6.945
 2969SOL    HW1 8953   1.765   6.015   0.018
 2969SOL    HW2 8954   1.701   5.918   6.904
 2970SOL     OW 8955   0.672   5.775   0.080
 2970SOL    HW1 8956   0.764   5.754   0.045
 2970SOL    HW2 8957   0.677   5.854   0.141
 2971SOL     OW 8958   0.099   5.904   5.624
 2971SOL    HW1 8959   0.002   5.879   5.622
 2971SOL    HW2 8960   0.112   5.989   5.573
 2972SOL     OW 8961   0.077   5.773   5.928
 2972SOL    HW1 8962   0.022   5.767   5.845
 2972SOL    HW2 8963   0.152   5.707   5.923
 2973SOL     OW 8964   1.470   6.856   0.318
 2973SOL    HW1 8965   1.418   6.774   0.339
 2973SOL    HW2 8966   1.548   6.832   0.260
 2974SOL     OW 8967   1.696   6.461   6.828
 2974SOL    HW1 8968   1.664   6.371   6.801
 2974SOL    HW2 8969   1.664   6.530   6.763
 2975SOL     OW 8970   1.219   5.903   6.045
 2975SOL    HW1 8971   1.283   5.826   6.035
 2975SOL    HW2 8972   1.246   5.958   6.125
 2976SOL     OW 8973   0.586   6.325   6.256
 2976SOL    HW1 8974   0.628   6.415   6.247
 2976SOL    HW2 8975   0.519   6.311   6.184
 2977SOL     OW 8976   1.785   6.505   0.083
 2977SOL    HW1 8977   1.751   6.594   0.113
 2977SOL    HW2 8978   1.750   6.486   6.991
 2978SOL     OW 8979   0.868   6.550   6.444
 2978SOL    HW1 8980   0.921   6.473   6.479
 2978SOL    HW2 8981   0.833   6.604   6.520
 2979SOL     OW 8982   1.091   6.586   5.676
 2979SOL    HW1 8983   1.051   6.633   5.598
 2979SOL    HW2 8984   1.159   6.519   5.645
 2980SOL     OW 8985   0.170   6.858   6.249
 2980SOL    HW1 8986   0.109   6.809   6.312
 2980SOL    HW2 8987   0.214   6.792   6.188
 2981SOL     OW 8988   1.812   5.760   6.836
 2981SOL    HW1 8989   1.794   5.662   6.838
 2981SOL    HW2 8990   1.825   5.789   6.741
 2982SOL     OW 8991   0.457   6.015   6.125
 2982SOL    HW1 8992   0.478   5.947   6.055
 2982SOL    HW2 8993   0.397   5.973   6.194
 2983SOL     OW 8994   1.650   0.051   6.712
 2983SOL    HW1 8995   1.602   0.044   6.625
 2983SOL    HW2 8996   1.644   6.965   6.761
 2984SOL     OW 8997   0.318   6.127   6.883
 2984SOL    HW1 8998   0.391   6.072   6.924
 2984SOL    HW2 8999   0.323   6.119   6.784
 2985SOL     OW 9000   1.433   5.821   6.704
 2985SOL    HW1 9001   1.466   5.739   6.751
 2985SOL    HW2 9002   1.379   5.876   6.767
 2986SOL     OW 9003   1.016   5.604   6.714
 2986SOL    HW1 9004   0.953   5.538   6.674
 2986SOL    HW2 9005   1.106   5.562   6.724
 2987SOL     OW 9006   0.761   6.907   5.851
 2987SOL    HW1 9007   0.737   6.812   5.872
 2987SOL    HW2 9008   0.801   6.950   5.932
 2988SOL     OW 9009   1.353   5.637   5.755
 2988SOL    HW1 9010   1.395   5.570   5.693
 2988SOL    HW2 9011   1.261   5.607   5.778
 2989SOL     OW 9012   1.292   6.049   6.267
 2989SOL    HW1 9013   1.239   6.134   6.269
 2989SOL    HW2 9014   1.289   6.005   6.357
 2990SOL     OW 9015   1.587   5.792   6.471
 2990SOL    HW1 9016   1.525   5.810   6.548
 2990SOL    HW2 9017   1.588   5.870   6.409
 2991SOL     OW 9018   0.072   6.649   5.865
 2991SOL    HW1 9019   0.165   6.611   5.862
 2991SOL    HW2 9020   0.007   6.576   5.883
 2992SOL     OW 9021   2.083   0.644   0.136
 2992SOL    HW1 9022   1.989   0.623   0.163
 2992SOL    HW2 9023   2.095   0.623   0.039
 2993SOL     OW 9024   2.085   0.302   0.996
 2993SOL    HW1 9025   2.124   0.264   1.080
 2993SOL    HW2 9026   2.002   0.251   0.973
 2994SOL     OW 9027   1.867   0.390   0.630
 2994SOL    HW1 9028   1.781   0.416   0.675
 2994SOL    HW2 9029   1.850   0.313   0.568
 2995SOL     OW 9030   2.431   1.296   1.184
 2995SOL    HW1 9031   2.340   1.292   1.141
 2995SOL    HW2 9032   2.447   1.388   1.218
 2996SOL     OW 9033   3.425   1.513   0.709
 2996SOL    HW1 9034   3.384   1.488   0.796
 2996SOL    HW2 9035   3.355   1.516   0.638
 2997SOL     OW 9036   2.995   0.700   0.696
 2997SOL    HW1 9037   3.048   0.784   0.680
 2997SOL    HW2 9038   2.943   0.709   0.781
 2998SOL     OW 9039   3.645   0.584   0.203
 2998SOL    HW1 9040   3.580   0.632   0.145
 2998SOL    HW2 9041   3.597   0.515   0.258
 2999SOL     OW 9042   2.608   1.141   1.041
 2999SOL    HW1 9043   2.539   1.176   1.105
 2999SOL    HW2 9044   2.651   1.218   0.994
 3000SOL     OW 9045   2.733   0.767   1.820
 3000SOL    HW1 9046   2.722   0.835   1.892
 3000SOL    HW2 9047   2.759   0.812   1.735
 3001SOL     OW 9048   2.545   0.998   0.650
 3001SOL    HW1 9049   2.616   0.988   0.720
 3001SOL    HW2 9050   2.471   1.055   0.686
 3002SOL     OW 9051   2.573   1.153   1.817
 3002SOL    HW1 9052   2.625   1.232   1.850
 3002SOL    HW2 9053   2.488   1.185   1.776
 3003SOL     OW 9054   2.188   1.424   1.066
 3003SOL    HW1 9055   2.112   1.379   1.019
 3003SOL    HW2 9056   2.241   1.476   0.999
 3004SOL     OW 9057   3.320   1.501   1.357
 3004SOL    HW1 9058   3.377   1.583   1.364
 3004SOL    HW2 9059   3.250   1.503   1.428
 3005SOL     OW 9060   2.306   0.398   1.484
 3005SOL    HW1 9061   2.391   0.347   1.489
 3005SOL    HW2 9062   2.229   0.335   1.489
 3006SOL     OW 9063   3.477   0.459   0.732
 3006SOL    HW1 9064   3.413   0.487   0.660
 3006SOL    HW2 9065   3.488   0.534   0.798
 3007SOL     OW 9066   2.087   1.720   0.473
 3007SOL    HW1 9067   2.104   1.799   0.532
 3007SOL    HW2 9068   2.172   1.693   0.428
 3008SOL     OW 9069   2.999   1.340   1.698
 3008SOL    HW1 9070   3.046   1.338   1.786
 3008SOL    HW2 9071   2.943   1.258   1.688
 3009SOL     OW 9072   2.084   1.446   0.539
 3009SOL    HW1 9073   2.069   1.544   0.547
 3009SOL    HW2 9074   2.027   1.397   0.605
 3010SOL     OW 9075   2.130   1.091   0.900
 3010SOL    HW1 9076   2.125   0.996   0.933
 3010SOL    HW2 9077   2.067   1.147   0.953
 3011SOL     OW 9078   2.462   1.796   1.427
 3011SOL    HW1 9079   2.379   1.772   1.476
 3011SOL    HW2 9080   2.493   1.887   1.455
 3012SOL     OW 9081   2.449   0.968   0.146
 3012SOL    HW1 9082   2.507   0.990   0.068
 3012SOL    HW2 9083   2.486   1.012   0.228
 3013SOL     OW 9084   3.441   0.131   1.447
 3013SOL    HW1 9085   3.452   0.226   1.416
 3013SOL    HW2 9086   3.463   0.126   1.545
 3014SOL     OW 9087   1.978   0.654   0.562
 3014SOL    HW1 9088   1.949   0.560   0.582
 3014SOL    HW2 9089   1.971   0.709   0.646
 3015SOL     OW 9090   3.699   1.764   0.346
 3015SOL    HW1 9091   3.769   1.733   0.411
 3015SOL    HW2 9092   3.705   1.863   0.336
 3016SOL     OW 9093   3.553   0.914   0.650
 3016SOL    HW1 9094   3.637   0.863   0.632
 3016SOL    HW2 9095   3.531   0.971   0.571
 3017SOL     OW 9096   3.517   1.096   0.445
 3017SOL    HW1 9097   3.586   1.115   0.375
 3017SOL    HW2 9098   3.522   1.165   0.517
 3018SOL     OW 9099   1.984   0.748   1.583
 3018SOL    HW1 9100   2.080   0.776   1.585
 3018SOL    HW2 9101   1.926   0.830   1.584
 3019SOL     OW 9102   2.474   1.388   0.737
 3019SOL    HW1 9103   2.427   1.301   0.750
 3019SOL    HW2 9104   2.464   1.418   0.642
 3020SOL     OW 9105   3.151   1.236   1.422
 3020SOL    HW1 9106   3.178   1.165   1.356
 3020SOL    HW2 9107   3.210   1.231   1.502
 3021SOL     OW 9108   2.683   0.028   0.522
 3021SOL    HW1 9109   2.724   0.117   0.502
 3021SOL    HW2 9110   2.584   0.037   0.524
 3022SOL     OW 9111   2.052   0.962   1.277
 3022SOL    HW1 9112   2.141   0.919   1.262
 3022SOL    HW2 9113   1.983   0.917   1.220
 3023SOL     OW 9114   3.354   1.019   0.213
 3023SOL    HW1 9115   3.287   0.953   0.246
 3023SOL    HW2 9116   3.441   1.004   0.261
 3024SOL     OW 9117   3.044   1.810   1.622
 3024SOL    HW1 9118   3.052   1.878   1.549
 3024SOL    HW2 9119   3.064   1.719   1.585
 3025SOL     OW 9120   2.181   0.269   1.790
 3025SOL    HW1 9121   2.245   0.336   1.829
 3025SOL    HW2 9122   2.095   0.272   1.840
 3026SOL     OW 9123   3.326   1.420   0.948
 3026SOL    HW1 9124   3.259   1.439   1.020
 3026SOL    HW2 9125   3.318   1.325   0.919
 3027SOL     OW 9126   3.507   1.749   0.582
 3027SOL    HW1 9127   3.487   1.723   0.488
 3027SOL    HW2 9128   3.489   1.672   0.643
 3028SOL     OW 9129   2.459   0.716   0.266
 3028SOL    HW1 9130   2.465   0.806   0.223
 3028SOL    HW2 9131   2.393   0.719   0.341
 3029SOL     OW 9132   3.145   0.366   0.949
 3029SOL    HW1 9133   3.048   0.343   0.952
 3029SOL    HW2 9134   3.194   0.315   1.020
 3030SOL     OW 9135   3.439   1.677   0.316
 3030SOL    HW1 9136   3.534   1.708   0.314
 3030SOL    HW2 9137   3.404   1.668   0.223
 3031SOL     OW 9138   2.655   0.615   1.454
 3031SOL    HW1 9139   2.628   0.590   1.547
 3031SOL    HW2 9140   2.616   0.550   1.389
 3032SOL     OW 9141   3.256   0.473   1.680
 3032SOL    HW1 9142   3.254   0.519   1.769
 3032SOL    HW2 9143   3.313   0.391   1.686
 3033SOL     OW 9144   2.815   0.886   1.582
 3033SOL    HW1 9145   2.874   0.814   1.545
 3033SOL    HW2 9146   2.761   0.927   1.509
 3034SOL     OW 9147   2.857   0.412   1.228
 3034SOL    HW1 9148   2.771   0.435   1.274
 3034SOL    HW2 9149   2.837   0.362   1.144
 3035SOL     OW 9150   2.914   0.699   0.427
 3035SOL    HW1 9151   2.937   0.697   0.525
 3035SOL    HW2 9152   2.827   0.654   0.412
 3036SOL     OW 9153   1.951   0.824   0.778
 3036SOL    HW1 9154   2.036   0.813   0.830
 3036SOL    HW2 9155   1.901   0.903   0.813
 3037SOL     OW 9156   1.990   1.869   1.587
 3037SOL    HW1 9157   1.995   1.842   1.683
 3037SOL    HW2 9158   1.904   1.838   1.547
 3038SOL     OW 9159   2.747   0.368   0.210
 3038SOL    HW1 9160   2.790   0.423   0.138
 3038SOL    HW2 9161   2.733   0.275   0.177
 3039SOL     OW 9162   3.564   0.573   1.825
 3039SOL    HW1 9163   3.527   0.652   1.777
 3039SOL    HW2 9164   3.592   0.503   1.759
 3040SOL     OW 9165   3.244   1.141   0.549
 3040SOL    HW1 9166   3.327   1.128   0.496
 3040SOL    HW2 9167   3.184   1.207   0.504
 3041SOL     OW 9168   2.368   0.192   0.909
 3041SOL    HW1 9169   2.406   0.221   0.997
 3041SOL    HW2 9170   2.393   0.258   0.839
 3042SOL     OW 9171   2.855   1.440   0.470
 3042SOL    HW1 9172   2.823   1.520   0.421
 3042SOL    HW2 9173   2.837   1.451   0.568
 3043SOL     OW 9174   2.218   1.813   0.867
 3043SOL    HW1 9175   2.261   1.723   0.875
 3043SOL    HW2 9176   2.285   1.884   0.888
 3044SOL     OW 9177   3.661   1.055   0.873
 3044SOL    HW1 9178   3.610   1.033   0.790
 3044SOL    HW2 9179   3.598   1.062   0.950
 3045SOL     OW 9180   3.088   1.536   1.514
 3045SOL    HW1 9181   3.075   1.462   1.580
 3045SOL    HW2 9182   3.022   1.527   1.441
 3046SOL     OW 9183   2.177   0.956   0.230
 3046SOL    HW1 9184   2.269   0.971   0.194
 3046SOL    HW2 9185   2.147   0.863   0.209
 3047SOL     OW 9186   3.345   0.746   0.725
 3047SOL    HW1 9187   3.340   0.705   0.816
 3047SOL    HW2 9188   3.425   0.807   0.721
 3048SOL     OW 9189   2.330   1.264   1.731
 3048SOL    HW1 9190   2.304   1.271   1.635
 3048SOL    HW2 9191   2.248   1.262   1.788
 3049SOL     OW 9192   2.982   1.766   0.241
 3049SOL    HW1 9193   2.909   1.720   0.293
 3049SOL    HW2 9194   3.019   1.703   0.173
 3050SOL     OW 9195   2.054   0.273   1.511
 3050SOL    HW1 9196   1.995   0.352   1.496
 3050SOL    HW2 9197   2.075   0.265   1.608
 3051SOL     OW 9198   3.508   1.431   0.101
 3051SOL    HW1 9199   3.461   1.514   0.072
 3051SOL    HW2 9200   3.444   1.371   0.150
 3052SOL     OW 9201   2.350   1.699   0.380
 3052SOL    HW1 9202   2.377   1.785   0.424
 3052SOL    HW2 9203   2.408   1.683   0.300
 3053SOL     OW 9204   3.287   0.132   0.425
 3053SOL    HW1 9205   3.272   0.062   0.355
 3053SOL    HW2 9206   3.385   0.141   0.443
 3054SOL     OW 9207   2.121   1.792   1.227
 3054SOL    HW1 9208   2.172   1.720   1.274
 3054SOL    HW2 9209   2.102   1.762   1.133
 3055SOL     OW 9210   2.798   1.702   0.897
 3055SOL    HW1 9211   2.880   1.654   0.928
 3055SOL    HW2 9212   2.755   1.650   0.823
 3056SOL     OW 9213   2.259   0.686   0.471
 3056SOL    HW1 9214   2.279   0.589   0.488
 3056SOL    HW2 9215   2.163   0.704   0.489
 3057SOL     OW 9216   3.392   0.230   1.727
 3057SOL    HW1 9217   3.406   0.236   1.826
 3057SOL    HW2 9218   3.306   0.182   1.709
 3058SOL     OW 9219   2.484   0.120   0.107
 3058SOL    HW1 9220   2.582   0.108   0.118
 3058SOL    HW2 9221   2.463   0.141   0.012
 3059SOL     OW 9222   2.623   0.277   1.765
 3059SOL    HW1 9223   2.711   0.229   1.759
 3059SOL    HW2 9224   2.569   0.237   1.839
 3060SOL     OW 9225   2.737   1.515   1.192
 3060SOL    HW1 9226   2.717   1.479   1.101
 3060SOL    HW2 9227   2.810   1.461   1.235
 3061SOL     OW 9228   3.204   0.591   1.437
 3061SOL    HW1 9229   3.234   0.556   1.526
 3061SOL    HW2 9230   3.239   0.684   1.424
 3062SOL     OW 9231   2.681   1.390   0.941
 3062SOL    HW1 9232   2.771   1.378   0.898
 3062SOL    HW2 9233   2.611   1.395   0.870
 3063SOL     OW 9234   2.789   0.510   0.897
 3063SOL    HW1 9235   2.761   0.504   0.801
 3063SOL    HW2 9236   2.822   0.421   0.927
 3064SOL     OW 9237   2.416   0.065   0.497
 3064SOL    HW1 9238   2.335   0.055   0.553
 3064SOL    HW2 9239   2.404   0.142   0.433
 3065SOL     OW 9240   3.284   1.213   0.013
 3065SOL    HW1 9241   3.313   1.131   0.064
 3065SOL    HW2 9242   3.200   1.250   0.054
 3066SOL     OW 9243   2.178   0.071   0.195
 3066SOL    HW1 9244   2.227   0.157   0.205
 3066SOL    HW2 9245   2.210   0.006   0.264
 3067SOL     OW 9246   2.811   0.263   0.458
 3067SOL    HW1 9247   2.779   0.304   0.373
 3067SOL    HW2 9248   2.910   0.271   0.464
 3068SOL     OW 9249   2.942   0.683   1.455
 3068SOL    HW1 9250   2.867   0.619   1.465
 3068SOL    HW2 9251   3.029   0.634   1.454
 3069SOL     OW 9252   3.081   1.567   0.796
 3069SOL    HW1 9253   3.096   1.637   0.726
 3069SOL    HW2 9254   3.154   1.574   0.865
 3070SOL     OW 9255   2.332   1.151   0.731
 3070SOL    HW1 9256   2.262   1.130   0.799
 3070SOL    HW2 9257   2.294   1.143   0.639
 3071SOL     OW 9258   3.120   1.786   0.611
 3071SOL    HW1 9259   3.174   1.849   0.555
 3071SOL    HW2 9260   3.047   1.837   0.657
 3072SOL     OW 9261   2.921   0.567   0.032
 3072SOL    HW1 9262   2.830   0.605   0.047
 3072SOL    HW2 9263   2.973   0.568   0.117
 3073SOL     OW 9264   1.952   0.552   1.397
 3073SOL    HW1 9265   2.045   0.553   1.361
 3073SOL    HW2 9266   1.942   0.626   1.464
 3074SOL     OW 9267   2.432   0.241   1.174
 3074SOL    HW1 9268   2.485   0.170   1.220
 3074SOL    HW2 9269   2.337   0.237   1.204
 3075SOL     OW 9270   2.728   0.463   0.637
 3075SOL    HW1 9271   2.682   0.524   0.574
 3075SOL    HW2 9272   2.755   0.379   0.589
 3076SOL     OW 9273   2.819   0.029   0.769
 3076SOL    HW1 9274   2.763   0.029   0.687
 3076SOL    HW2 9275   2.891   6.959   0.761
 3077SOL     OW 9276   3.307   1.161   0.860
 3077SOL    HW1 9277   3.231   1.096   0.862
 3077SOL    HW2 9278   3.339   1.172   0.765
 3078SOL     OW 9279   3.328   0.608   0.972
 3078SOL    HW1 9280   3.268   0.529   0.973
 3078SOL    HW2 9281   3.392   0.603   1.049
 3079SOL     OW 9282   3.692   0.806   0.391
 3079SOL    HW1 9283   3.752   0.746   0.443
 3079SOL    HW2 9284   3.684   0.772   0.297
 3080SOL     OW 9285   2.331   1.427   0.153
 3080SOL    HW1 9286   2.268   1.384   0.218
 3080SOL    HW2 9287   2.310   1.396   0.060
 3081SOL     OW 9288   3.534   1.266   0.652
 3081SOL    HW1 9289   3.634   1.264   0.660
 3081SOL    HW2 9290   3.501   1.359   0.667
 3082SOL     OW 9291   3.252   0.558   0.066
 3082SOL    HW1 9292   3.196   0.549   0.148
 3082SOL    HW2 9293   3.326   0.490   0.069
 3083SOL     OW 9294   2.374   0.263   0.307
 3083SOL    HW1 9295   2.426   0.207   0.242
 3083SOL    HW2 9296   2.355   0.352   0.267
 3084SOL     OW 9297   3.615   1.240   1.563
 3084SOL    HW1 9298   3.705   1.198   1.550
 3084SOL    HW2 9299   3.626   1.334   1.596
 3085SOL     OW 9300   2.916   1.350   1.336
 3085SOL    HW1 9301   2.835   1.321   1.387
 3085SOL    HW2 9302   2.998   1.310   1.378
 3086SOL     OW 9303   3.475   1.629   1.656
 3086SOL    HW1 9304   3.460   1.664   1.564
 3086SOL    HW2 9305   3.561   1.578   1.659
 3087SOL     OW 9306   2.998   1.218   1.105
 3087SOL    HW1 9307   2.938   1.252   1.178
 3087SOL    HW2 9308   2.964   1.248   1.016
 3088SOL     OW 9309   3.486   1.097   1.079
 3088SOL    HW1 9310   3.482   1.162   1.155
 3088SOL    HW2 9311   3.411   1.113   1.016
 3089SOL     OW 9312   2.758   0.148   1.388
 3089SOL    HW1 9313   2.774   0.111   1.297
 3089SOL    HW2 9314   2.845   0.176   1.429
 3090SOL     OW 9315   2.842   1.114   1.721
 3090SOL    HW1 9316   2.747   1.134   1.748
 3090SOL    HW2 9317   2.844   1.032   1.665
 3091SOL     OW 9318   2.575   1.058   0.375
 3091SOL    HW1 9319   2.556   1.042   0.472
 3091SOL    HW2 9320   2.655   1.005   0.347
 3092SOL     OW 9321   2.285   0.816   1.253
 3092SOL    HW1 9322   2.358   0.828   1.321
 3092SOL    HW2 9323   2.245   0.725   1.263
 3093SOL     OW 9324   3.123   0.379   1.285
 3093SOL    HW1 9325   3.160   0.458   1.334
 3093SOL    HW2 9326   3.028   0.398   1.259
 3094SOL     OW 9327   1.936   1.572   1.353
 3094SOL    HW1 9328   1.900   1.642   1.291
 3094SOL    HW2 9329   2.036   1.570   1.347
 3095SOL     OW 9330   2.226   1.120   0.482
 3095SOL    HW1 9331   2.202   1.196   0.422
 3095SOL    HW2 9332   2.222   1.034   0.431
 3096SOL     OW 9333   2.415   0.546   0.860
 3096SOL    HW1 9334   2.430   0.605   0.781
 3096SOL    HW2 9335   2.485   0.566   0.930
 3097SOL     OW 9336   3.106   1.345   0.406
 3097SOL    HW1 9337   3.164   1.420   0.435
 3097SOL    HW2 9338   3.011   1.363   0.433
 3098SOL     OW 9339   3.148   1.461   1.147
 3098SOL    HW1 9340   3.207   1.467   1.228
 3098SOL    HW2 9341   3.094   1.378   1.151
 3099SOL     OW 9342   3.444   0.632   0.483
 3099SOL    HW1 9343   3.390   0.681   0.551
 3099SOL    HW2 9344   3.505   0.696   0.436
 3100SOL     OW 9345   2.210   1.529   1.310
 3100SOL    HW1 9346   2.193   1.485   1.222
 3100SOL    HW2 9347   2.308   1.543   1.323
 3101SOL     OW 9348   2.280   0.744   1.601
 3101SOL    HW1 9349   2.342   0.793   1.540
 3101SOL    HW2 9350   2.319   0.654   1.624
 3102SOL     OW 9351   3.470   0.785   1.684
 3102SOL    HW1 9352   3.378   0.826   1.682
 3102SOL    HW2 9353   3.526   0.825   1.613
 3103SOL     OW 9354   2.858   0.135   1.735
 3103SOL    HW1 9355   2.900   0.183   1.658
 3103SOL    HW2 9356   2.863   0.037   1.721
 3104SOL     OW 9357   2.326   0.039   1.758
 3104SOL    HW1 9358   2.262   6.966   1.733
 3104SOL    HW2 9359   2.276   0.125   1.768
 3105SOL     OW 9360   2.446   0.872   1.033
 3105SOL    HW1 9361   2.481   0.966   1.030
 3105SOL    HW2 9362   2.386   0.862   1.113
 3106SOL     OW 9363   3.215   0.858   1.025
 3106SOL    HW1 9364   3.125   0.851   0.983
 3106SOL    HW2 9365   3.262   0.770   1.018
 3107SOL     OW 9366   3.061   0.523   0.272
 3107SOL    HW1 9367   3.078   0.444   0.331
 3107SOL    HW2 9368   3.019   0.596   0.326
 3108SOL     OW 9369   2.172   0.209   1.248
 3108SOL    HW1 9370   2.109   0.220   1.324
 3108SOL    HW2 9371   2.160   0.119   1.206
 3109SOL     OW 9372   1.914   1.310   1.276
 3109SOL    HW1 9373   1.946   1.249   1.348
 3109SOL    HW2 9374   1.916   1.404   1.308
 3110SOL     OW 9375   2.590   0.636   1.055
 3110SOL    HW1 9376   2.665   0.615   0.993
 3110SOL    HW2 9377   2.553   0.726   1.034
 3111SOL     OW 9378   3.598   0.960   1.855
 3111SOL    HW1 9379   3.554   0.892   1.796
 3111SOL    HW2 9380   3.538   0.979   1.933
 3112SOL     OW 9381   2.180   0.061   0.627
 3112SOL    HW1 9382   2.159   0.154   0.655
 3112SOL    HW2 9383   2.134   6.996   0.688
 3113SOL     OW 9384   3.488   0.396   0.355
 3113SOL    HW1 9385   3.520   0.321   0.413
 3113SOL    HW2 9386   3.462   0.474   0.413
 3114SOL     OW 9387   2.887   0.756   0.958
 3114SOL    HW1 9388   2.882   0.778   1.056
 3114SOL    HW2 9389   2.859   0.661   0.944
 3115SOL     OW 9390   2.843   1.563   1.717
 3115SOL    HW1 9391   2.827   1.611   1.631
 3115SOL    HW2 9392   2.891   1.477   1.699
 3116SOL     OW 9393   3.717   1.504   1.604
 3116SOL    HW1 9394   3.735   1.530   1.509
 3116SOL    HW2 9395   3.800   1.516   1.658
 3117SOL     OW 9396   2.215   0.918   1.804
 3117SOL    HW1 9397   2.295   0.940   1.860
 3117SOL    HW2 9398   2.241   0.851   1.734
 3118SOL     OW 9399   3.383   0.267   0.138
 3118SOL    HW1 9400   3.310   0.203   0.160
 3118SOL    HW2 9401   3.414   0.311   0.223
 3119SOL     OW 9402   3.154   0.822   0.032
 3119SOL    HW1 9403   3.202   0.735   0.024
 3119SOL    HW2 9404   3.181   0.883   6.957
 3120SOL     OW 9405   2.930   1.337   0.854
 3120SOL    HW1 9406   2.935   1.259   0.792
 3120SOL    HW2 9407   2.990   1.409   0.821
 3121SOL     OW 9408   2.173   0.809   0.943
 3121SOL    HW1 9409   2.269   0.836   0.938
 3121SOL    HW2 9410   2.167   0.714   0.975
 3122SOL     OW 9411   2.197   0.538   1.012
 3122SOL    HW1 9412   2.155   0.449   1.000
 3122SOL    HW2 9413   2.278   0.545   0.953
 3123SOL     OW 9414   2.987   0.409   1.672
 3123SOL    HW1 9415   2.938   0.452   1.748
 3123SOL    HW2 9416   3.085   0.430   1.679
 3124SOL     OW 9417   2.999   0.224   1.484
 3124SOL    HW1 9418   2.998   0.298   1.551
 3124SOL    HW2 9419   3.055   0.250   1.406
 3125SOL     OW 9420   1.955   1.784   0.942
 3125SOL    HW1 9421   1.918   1.703   0.898
 3125SOL    HW2 9422   2.049   1.800   0.910
 3126SOL     OW 9423   2.356   1.576   0.905
 3126SOL    HW1 9424   2.426   1.642   0.932
 3126SOL    HW2 9425   2.396   1.508   0.844
 3127SOL     OW 9426   2.838   0.795   1.224
 3127SOL    HW1 9427   2.898   0.769   1.301
 3127SOL    HW2 9428   2.748   0.752   1.236
 3128SOL     OW 9429   1.897   0.548   1.120
 3128SOL    HW1 9430   1.975   0.532   1.060
 3128SOL    HW2 9431   1.928   0.551   1.215
 3129SOL     OW 9432   2.047   0.529   1.729
 3129SOL    HW1 9433   2.126   0.496   1.676
 3129SOL    HW2 9434   2.006   0.608   1.682
 3130SOL     OW 9435   3.242   0.936   1.655
 3130SOL    HW1 9436   3.265   1.033   1.656
 3130SOL    HW2 9437   3.239   0.904   1.560
 3131SOL     OW 9438   2.678   0.578   0.373
 3131SOL    HW1 9439   2.689   0.498   0.314
 3131SOL    HW2 9440   2.597   0.630   0.344
 3132SOL     OW 9441   3.504   0.605   1.181
 3132SOL    HW1 9442   3.485   0.544   1.259
 3132SOL    HW2 9443   3.595   0.585   1.145
 3133SOL     OW 9444   2.103   1.547   1.726
 3133SOL    HW1 9445   2.081   1.622   1.790
 3133SOL    HW2 9446   2.108   1.461   1.777
 3134SOL     OW 9447   2.568   0.460   1.256
 3134SOL    HW1 9448   2.514   0.381   1.229
 3134SOL    HW2 9449   2.569   0.527   1.182
 3135SOL     OW 9450   2.782   1.681   1.471
 3135SOL    HW1 9451   2.757   1.635   1.386
 3135SOL    HW2 9452   2.782   1.780   1.457
 3136SOL     OW 9453   2.316   0.498   0.183
 3136SOL    HW1 9454   2.381   0.569   0.210
 3136SOL    HW2 9455   2.224   0.536   0.184
 3137SOL     OW 9456   2.004   1.137   1.475
 3137SOL    HW1 9457   2.006   1.092   1.565
 3137SOL    HW2 9458   2.024   1.070   1.404
 3138SOL     OW 9459   3.178   1.044   1.220
 3138SOL    HW1 9460   3.206   0.976   1.152
 3138SOL    HW2 9461   3.110   1.106   1.179
 3139SOL     OW 9462   3.163   0.846   0.306
 3139SOL    HW1 9463   3.082   0.817   0.357
 3139SOL    HW2 9464   3.150   0.826   0.209
 3140SOL     OW 9465   3.641   1.731   1.156
 3140SOL    HW1 9466   3.702   1.765   1.085
 3140SOL    HW2 9467   3.610   1.639   1.132
 3141SOL     OW 9468   3.104   1.733   1.106
 3141SOL    HW1 9469   3.189   1.762   1.063
 3141SOL    HW2 9470   3.109   1.636   1.129
 3142SOL     OW 9471   1.947   1.266   1.010
 3142SOL    HW1 9472   1.931   1.280   1.108
 3142SOL    HW2 9473   1.876   1.207   0.973
 3143SOL     OW 9474   2.542   1.673   1.735
 3143SOL    HW1 9475   2.480   1.751   1.731
 3143SOL    HW2 9476   2.615   1.684   1.667
 3144SOL     OW 9477   2.754   0.111   0.128
 3144SOL    HW1 9478   2.843   0.138   0.091
 3144SOL    HW2 9479   2.766   0.033   0.190
 3145SOL     OW 9480   3.581   0.174   0.483
 3145SOL    HW1 9481   3.658   0.146   0.425
 3145SOL    HW2 9482   3.567   0.106   0.555
 3146SOL     OW 9483   3.252   1.562   0.490
 3146SOL    HW1 9484   3.317   1.592   0.421
 3146SOL    HW2 9485   3.198   1.641   0.522
 3147SOL     OW 9486   2.007   1.787   1.846
 3147SOL    HW1 9487   1.949   1.720   1.891
 3147SOL    HW2 9488   2.056   1.841   1.914
 3148SOL     OW 9489   3.144   0.923   0.669
 3148SOL    HW1 9490   3.218   0.858   0.685
 3148SOL    HW2 9491   3.178   1.002   0.618
 3149SOL     OW 9492   2.667   1.278   1.427
 3149SOL    HW1 9493   2.637   1.321   1.512
 3149SOL    HW2 9494   2.598   1.293   1.356
 3150SOL     OW 9495   2.536   1.603   0.191
 3150SOL    HW1 9496   2.542   1.651   0.103
 3150SOL    HW2 9497   2.476   1.524   0.181
 3151SOL     OW 9498   3.479   1.729   1.387
 3151SOL    HW1 9499   3.537   1.729   1.305
 3151SOL    HW2 9500   3.465   1.822   1.419
 3152SOL     OW 9501   3.728   0.162   0.955
 3152SOL    HW1 9502   3.726   0.062   0.945
 3152SOL    HW2 9503   3.637   0.199   0.938
 3153SOL     OW 9504   2.121   0.314   0.715
 3153SOL    HW1 9505   2.031   0.348   0.688
 3153SOL    HW2 9506   2.128   0.312   0.814
 3154SOL     OW 9507   3.081   1.599   0.039
 3154SOL    HW1 9508   3.074   1.504   0.070
 3154SOL    HW2 9509   2.996   1.625   6.994
 3155SOL     OW 9510   2.685   1.010   1.378
 3155SOL    HW1 9511   2.736   0.994   1.293
 3155SOL    HW2 9512   2.683   1.108   1.397
 3156SOL     OW 9513   2.786   0.914   0.294
 3156SOL    HW1 9514   2.841   0.942   0.216
 3156SOL    HW2 9515   2.833   0.841   0.343
 3157SOL     OW 9516   3.351   1.654   0.041
 3157SOL    HW1 9517   3.253   1.633   0.041
 3157SOL    HW2 9518   3.382   1.667   6.947
 3158SOL     OW 9519   2.228   1.303   1.487
 3158SOL    HW1 9520   2.218   1.383   1.428
 3158SOL    HW2 9521   2.148   1.244   1.476
 3159SOL     OW 9522   3.475   1.284   1.284
 3159SOL    HW1 9523   3.539   1.265   1.359
 3159SOL    HW2 9524   3.410   1.354   1.313
 3160SOL     OW 9525   2.922   1.106   0.714
 3160SOL    HW1 9526   2.845   1.056   0.754
 3160SOL    HW2 9527   2.990   1.041   0.680
 3161SOL     OW 9528   2.887   0.249   0.951
 3161SOL    HW1 9529   2.864   0.203   0.865
 3161SOL    HW2 9530   2.877   0.185   1.027
 3162SOL     OW 9531   2.475   1.477   0.485
 3162SOL    HW1 9532   2.513   1.426   0.408
 3162SOL    HW2 9533   2.414   1.549   0.450
 3163SOL     OW 9534   3.594   0.392   1.375
 3163SOL    HW1 9535   3.663   0.465   1.381
 3163SOL    HW2 9536   3.631   0.315   1.323
 3164SOL     OW 9537   2.130   1.327   0.306
 3164SOL    HW1 9538   2.049   1.343   0.250
 3164SOL    HW2 9539   2.118   1.373   0.395
 3165SOL     OW 9540   1.976   1.033   1.727
 3165SOL    HW1 9541   1.895   1.006   1.778
 3165SOL    HW2 9542   2.057   0.988   1.767
 3166SOL     OW 9543   2.531   0.235   1.507
 3166SOL    HW1 9544   2.613   0.209   1.455
 3166SOL    HW2 9545   2.559   0.269   1.597
 3167SOL     OW 9546   1.972   0.343   0.035
 3167SOL    HW1 9547   1.917   0.282   6.977
 3167SOL    HW2 9548   2.013   0.413   6.978
 3168SOL     OW 9549   3.287   0.858   1.396
 3168SOL    HW1 9550   3.231   0.921   1.342
 3168SOL    HW2 9551   3.380   0.859   1.362
 3169SOL     OW 9552   1.932   0.167   0.307
 3169SOL    HW1 9553   1.920   0.251   0.254
 3169SOL    HW2 9554   2.013   0.118   0.273
 3170SOL     OW 9555   3.048   1.345   0.128
 3170SOL    HW1 9556   2.951   1.327   0.112
 3170SOL    HW2 9557   3.068   1.335   0.225
 3171SOL     OW 9558   2.485   0.830   1.433
 3171SOL    HW1 9559   2.542   0.911   1.418
 3171SOL    HW2 9560   2.544   0.750   1.444
 3172SOL     OW 9561   3.347   1.788   0.987
 3172SOL    HW1 9562   3.371   1.851   0.913
 3172SOL    HW2 9563   3.431   1.752   1.028
 3173SOL     OW 9564   2.582   0.559   1.706
 3173SOL    HW1 9565   2.626   0.630   1.762
 3173SOL    HW2 9566   2.603   0.469   1.744
 3174SOL     OW 9567   3.335   1.197   1.635
 3174SOL    HW1 9568   3.320   1.210   1.733
 3174SOL    HW2 9569   3.431   1.215   1.613
 3175SOL     OW 9570   2.234   1.738   1.566
 3175SOL    HW1 9571   2.150   1.790   1.552
 3175SOL    HW2 9572   2.213   1.650   1.609
 3176SOL     OW 9573   3.528   0.879   1.256
 3176SOL    HW1 9574   3.523   0.788   1.214
 3176SOL    HW2 9575   3.516   0.948   1.185
 3177SOL     OW 9576   3.086   0.316   0.455
 3177SOL    HW1 9577   3.156   0.246   0.444
 3177SOL    HW2 9578   3.107   0.371   0.536
 3178SOL     OW 9579   2.451   0.737   0.665
 3178SOL    HW1 9580   2.490   0.828   0.656
 3178SOL    HW2 9581   2.380   0.724   0.596
 3179SOL     OW 9582   3.612   0.369   1.648
 3179SOL    HW1 9583   3.603   0.384   1.549
 3179SOL    HW2 9584   3.540   0.307   1.679
 3180SOL     OW 9585   3.614   0.932   1.510
 3180SOL    HW1 9586   3.603   1.029   1.531
 3180SOL    HW2 9587   3.593   0.917   1.413
 3181SOL     OW 9588   2.763   1.383   0.051
 3181SOL    HW1 9589   2.702   1.358   0.126
 3181SOL    HW2 9590   2.767   1.482   0.043
 3182SOL     OW 9591   2.526   1.786   0.942
 3182SOL    HW1 9592   2.503   1.881   0.920
 3182SOL    HW2 9593   2.625   1.773   0.931
 3183SOL     OW 9594   2.731   0.970   0.857
 3183SOL    HW1 9595   2.782   0.893   0.893
 3183SOL    HW2 9596   2.689   1.021   0.932
 3184SOL     OW 9597   2.943   0.984   0.081
 3184SOL    HW1 9598   2.937   1.039   6.998
 3184SOL    HW2 9599   3.023   0.924   0.076
 3185SOL     OW 9600   3.709   1.557   0.846
 3185SOL    HW1 9601   3.632   1.543   0.784
 3185SOL    HW2 9602   3.709   1.485   0.916
 3186SOL     OW 9603   2.093   1.299   1.857
 3186SOL    HW1 9604   2.026   1.233   1.823
 3186SOL    HW2 9605   2.078   1.313   1.955
 3187SOL     OW 9606   1.943   1.235   0.664
 3187SOL    HW1 9607   1.960   1.184   0.749
 3187SOL    HW2 9608   1.990   1.190   0.588
 3188SOL     OW 9609   2.544   1.408   1.633
 3188SOL    HW1 9610   2.463   1.359   1.665
 3188SOL    HW2 9611   2.542   1.501   1.670
 3189SOL     OW 9612   3.714   0.183   1.247
 3189SOL    HW1 9613   3.636   0.122   1.244
 3189SOL    HW2 9614   3.740   0.209   1.153
 3190SOL     OW 9615   2.293   0.427   0.525
 3190SOL    HW1 9616   2.325   0.355   0.463
 3190SOL    HW2 9617   2.239   0.386   0.598
 3191SOL     OW 9618   3.554   1.484   1.096
 3191SOL    HW1 9619   3.474   1.465   1.039
 3191SOL    HW2 9620   3.564   1.412   1.164
 3192SOL     OW 9621   2.195   0.558   1.288
 3192SOL    HW1 9622   2.253   0.501   1.347
 3192SOL    HW2 9623   2.213   0.535   1.192
 3193SOL     OW 9624   2.689   1.579   0.680
 3193SOL    HW1 9625   2.677   1.637   0.599
 3193SOL    HW2 9626   2.613   1.515   0.687
 3194SOL     OW 9627   3.275   0.215   1.130
 3194SOL    HW1 9628   3.358   0.173   1.167
 3194SOL    HW2 9629   3.227   0.265   1.203
 3195SOL     OW 9630   2.840   0.055   1.136
 3195SOL    HW1 9631   2.781   6.990   1.088
 3195SOL    HW2 9632   2.897   0.005   1.202
 3196SOL     OW 9633   2.645   1.318   0.306
 3196SOL    HW1 9634   2.611   1.226   0.327
 3196SOL    HW2 9635   2.721   1.339   0.367
 3197SOL     OW 9636   2.485   1.559   1.289
 3197SOL    HW1 9637   2.483   1.646   1.339
 3197SOL    HW2 9638   2.576   1.546   1.249
 3198SOL     OW 9639   3.207   0.057   0.156
 3198SOL    HW1 9640   3.225   6.962   0.131
 3198SOL    HW2 9641   3.109   0.076   0.148
 3199SOL     OW 9642   3.131   0.452   0.687
 3199SOL    HW1 9643   3.086   0.542   0.683
 3199SOL    HW2 9644   3.150   0.428   0.782
 3200SOL     OW 9645   3.480   0.256   0.913
 3200SOL    HW1 9646   3.391   0.237   0.955
 3200SOL    HW2 9647   3.468   0.322   0.839
 3201SOL     OW 9648   1.945   1.053   0.354
 3201SOL    HW1 9649   2.034   1.031   0.316
 3201SOL    HW2 9650   1.893   0.968   0.368
 3202SOL     OW 9651   2.750   1.662   0.353
 3202SOL    HW1 9652   2.675   1.633   0.294
 3202SOL    HW2 9653   2.721   1.741   0.407
 3203SOL     OW 9654   2.083   0.620   1.989
 3203SOL    HW1 9655   1.994   0.619   2.033
 3203SOL    HW2 9656   2.072   0.599   1.892
 3204SOL     OW 9657   2.084   0.302   2.859
 3204SOL    HW1 9658   2.124   0.264   2.942
 3204SOL    HW2 9659   2.001   0.252   2.835
 3205SOL     OW 9660   1.871   0.394   2.490
 3205SOL    HW1 9661   1.782   0.412   2.532
 3205SOL    HW2 9662   1.862   0.320   2.423
 3206SOL     OW 9663   2.430   1.296   3.046
 3206SOL    HW1 9664   2.340   1.293   3.003
 3206SOL    HW2 9665   2.448   1.388   3.080
 3207SOL     OW 9666   3.426   1.513   2.569
 3207SOL    HW1 9667   3.383   1.489   2.657
 3207SOL    HW2 9668   3.355   1.520   2.499
 3208SOL     OW 9669   2.996   0.702   2.558
 3208SOL    HW1 9670   3.047   0.786   2.541
 3208SOL    HW2 9671   2.945   0.711   2.643
 3209SOL     OW 9672   3.629   0.602   2.085
 3209SOL    HW1 9673   3.608   0.598   1.987
 3209SOL    HW2 9674   3.592   0.521   2.130
 3210SOL     OW 9675   2.607   1.141   2.902
 3210SOL    HW1 9676   2.539   1.176   2.967
 3210SOL    HW2 9677   2.651   1.218   2.856
 3211SOL     OW 9678   2.733   0.767   3.682
 3211SOL    HW1 9679   2.722   0.835   3.754
 3211SOL    HW2 9680   2.759   0.812   3.597
 3212SOL     OW 9681   2.546   1.000   2.511
 3212SOL    HW1 9682   2.617   0.989   2.580
 3212SOL    HW2 9683   2.471   1.055   2.548
 3213SOL     OW 9684   2.573   1.153   3.679
 3213SOL    HW1 9685   2.625   1.232   3.712
 3213SOL    HW2 9686   2.488   1.185   3.638
 3214SOL     OW 9687   2.188   1.424   2.928
 3214SOL    HW1 9688   2.112   1.379   2.881
 3214SOL    HW2 9689   2.242   1.476   2.862
 3215SOL     OW 9690   3.320   1.501   3.219
 3215SOL    HW1 9691   3.377   1.583   3.226
 3215SOL    HW2 9692   3.250   1.503   3.290
 3216SOL     OW 9693   2.305   0.398   3.346
 3216SOL    HW1 9694   2.391   0.347   3.351
 3216SOL    HW2 9695   2.228   0.334   3.351
 3217SOL     OW 9696   3.478   0.457   2.591
 3217SOL    HW1 9697   3.415   0.486   2.519
 3217SOL    HW2 9698   3.488   0.530   2.658
 3218SOL     OW 9699   2.084   1.714   2.334
 3218SOL    HW1 9700   2.102   1.793   2.393
 3218SOL    HW2 9701   2.159   1.704   2.268
 3219SOL     OW 9702   2.999   1.340   3.560
 3219SOL    HW1 9703   3.046   1.338   3.648
 3219SOL    HW2 9704   2.943   1.258   3.550
 3220SOL     OW 9705   2.095   1.443   2.398
 3220SOL    HW1 9706   2.079   1.542   2.397
 3220SOL    HW2 9707   2.035   1.400   2.465
 3221SOL     OW 9708   2.130   1.090   2.762
 3221SOL    HW1 9709   2.126   0.996   2.795
 3221SOL    HW2 9710   2.067   1.147   2.816
 3222SOL     OW 9711   2.462   1.796   3.289
 3222SOL    HW1 9712   2.379   1.772   3.339
 3222SOL    HW2 9713   2.493   1.887   3.316
 3223SOL     OW 9714   2.444   0.987   2.002
 3223SOL    HW1 9715   2.492   1.034   1.928
 3223SOL    HW2 9716   2.484   1.015   2.090
 3224SOL     OW 9717   3.441   0.131   3.309
 3224SOL    HW1 9718   3.451   0.226   3.278
 3224SOL    HW2 9719   3.463   0.126   3.407
 3225SOL     OW 9720   1.976   0.661   2.425
 3225SOL    HW1 9721   1.949   0.566   2.443
 3225SOL    HW2 9722   1.970   0.713   2.511
 3226SOL     OW 9723   3.708   1.756   2.195
 3226SOL    HW1 9724   3.777   1.725   2.260
 3226SOL    HW2 9725   3.724   1.852   2.171
 3227SOL     OW 9726   1.891   1.591   1.986
 3227SOL    HW1 9727   1.875   1.494   2.005
 3227SOL    HW2 9728   1.870   1.645   2.067
 3228SOL     OW 9729   3.552   0.920   2.508
 3228SOL    HW1 9730   3.637   0.870   2.493
 3228SOL    HW2 9731   3.529   0.974   2.427
 3229SOL     OW 9732   3.514   1.105   2.294
 3229SOL    HW1 9733   3.603   1.102   2.248
 3229SOL    HW2 9734   3.517   1.171   2.368
 3230SOL     OW 9735   1.984   0.748   3.445
 3230SOL    HW1 9736   2.080   0.775   3.447
 3230SOL    HW2 9737   1.927   0.830   3.447
 3231SOL     OW 9738   2.474   1.390   2.596
 3231SOL    HW1 9739   2.428   1.302   2.608
 3231SOL    HW2 9740   2.461   1.421   2.502
 3232SOL     OW 9741   3.151   1.235   3.284
 3232SOL    HW1 9742   3.178   1.165   3.218
 3232SOL    HW2 9743   3.210   1.231   3.364
 3233SOL     OW 9744   2.685   0.027   2.383
 3233SOL    HW1 9745   2.724   0.117   2.362
 3233SOL    HW2 9746   2.585   0.035   2.385
 3234SOL     OW 9747   2.053   0.962   3.138
 3234SOL    HW1 9748   2.142   0.919   3.123
 3234SOL    HW2 9749   1.983   0.915   3.084
 3235SOL     OW 9750   3.394   0.999   2.066
 3235SOL    HW1 9751   3.320   0.939   2.095
 3235SOL    HW2 9752   3.440   1.037   2.146
 3236SOL     OW 9753   3.044   1.810   3.484
 3236SOL    HW1 9754   3.052   1.879   3.412
 3236SOL    HW2 9755   3.064   1.720   3.446
 3237SOL     OW 9756   2.181   0.269   3.652
 3237SOL    HW1 9757   2.244   0.336   3.691
 3237SOL    HW2 9758   2.094   0.272   3.702
 3238SOL     OW 9759   3.327   1.420   2.810
 3238SOL    HW1 9760   3.260   1.439   2.882
 3238SOL    HW2 9761   3.319   1.325   2.781
 3239SOL     OW 9762   3.513   1.747   2.438
 3239SOL    HW1 9763   3.495   1.719   2.344
 3239SOL    HW2 9764   3.491   1.672   2.500
 3240SOL     OW 9765   2.455   0.719   2.133
 3240SOL    HW1 9766   2.461   0.805   2.082
 3240SOL    HW2 9767   2.387   0.728   2.205
 3241SOL     OW 9768   3.145   0.367   2.811
 3241SOL    HW1 9769   3.048   0.343   2.814
 3241SOL    HW2 9770   3.194   0.315   2.882
 3242SOL     OW 9771   3.445   1.672   2.170
 3242SOL    HW1 9772   3.541   1.701   2.166
 3242SOL    HW2 9773   3.412   1.655   2.077
 3243SOL     OW 9774   2.655   0.616   3.317
 3243SOL    HW1 9775   2.628   0.590   3.410
 3243SOL    HW2 9776   2.616   0.550   3.252
 3244SOL     OW 9777   3.256   0.473   3.542
 3244SOL    HW1 9778   3.254   0.519   3.631
 3244SOL    HW2 9779   3.313   0.391   3.548
 3245SOL     OW 9780   2.816   0.886   3.444
 3245SOL    HW1 9781   2.874   0.813   3.407
 3245SOL    HW2 9782   2.761   0.927   3.371
 3246SOL     OW 9783   2.857   0.412   3.090
 3246SOL    HW1 9784   2.771   0.435   3.136
 3246SOL    HW2 9785   2.837   0.361   3.006
 3247SOL     OW 9786   2.913   0.698   2.287
 3247SOL    HW1 9787   2.933   0.694   2.385
 3247SOL    HW2 9788   2.826   0.652   2.269
 3248SOL     OW 9789   1.950   0.828   2.642
 3248SOL    HW1 9790   2.036   0.815   2.692
 3248SOL    HW2 9791   1.901   0.907   2.678
 3249SOL     OW 9792   1.990   1.869   3.449
 3249SOL    HW1 9793   1.995   1.842   3.545
 3249SOL    HW2 9794   1.904   1.838   3.409
 3250SOL     OW 9795   2.752   0.355   2.062
 3250SOL    HW1 9796   2.798   0.416   1.997
 3250SOL    HW2 9797   2.729   0.269   2.016
 3251SOL     OW 9798   3.564   0.573   3.687
 3251SOL    HW1 9799   3.527   0.652   3.639
 3251SOL    HW2 9800   3.592   0.503   3.621
 3252SOL     OW 9801   3.241   1.143   2.396
 3252SOL    HW1 9802   3.326   1.127   2.345
 3252SOL    HW2 9803   3.185   1.210   2.348
 3253SOL     OW 9804   2.367   0.191   2.772
 3253SOL    HW1 9805   2.406   0.221   2.859
 3253SOL    HW2 9806   2.392   0.255   2.700
 3254SOL     OW 9807   2.858   1.442   2.326
 3254SOL    HW1 9808   2.825   1.523   2.277
 3254SOL    HW2 9809   2.843   1.455   2.424
 3255SOL     OW 9810   2.218   1.813   2.731
 3255SOL    HW1 9811   2.262   1.724   2.738
 3255SOL    HW2 9812   2.285   1.885   2.750
 3256SOL     OW 9813   3.660   1.057   2.733
 3256SOL    HW1 9814   3.608   1.035   2.651
 3256SOL    HW2 9815   3.597   1.063   2.811
 3257SOL     OW 9816   3.089   1.536   3.376
 3257SOL    HW1 9817   3.076   1.462   3.442
 3257SOL    HW2 9818   3.021   1.528   3.303
 3258SOL     OW 9819   2.184   0.959   2.116
 3258SOL    HW1 9820   2.272   0.979   2.072
 3258SOL    HW2 9821   2.147   0.873   2.078
 3259SOL     OW 9822   3.345   0.749   2.586
 3259SOL    HW1 9823   3.338   0.705   2.676
 3259SOL    HW2 9824   3.425   0.809   2.585
 3260SOL     OW 9825   2.330   1.265   3.593
 3260SOL    HW1 9826   2.304   1.271   3.497
 3260SOL    HW2 9827   2.248   1.262   3.650
 3261SOL     OW 9828   2.983   1.776   2.089
 3261SOL    HW1 9829   2.905   1.738   2.137
 3261SOL    HW2 9830   3.013   1.712   2.018
 3262SOL     OW 9831   2.054   0.272   3.373
 3262SOL    HW1 9832   1.995   0.352   3.358
 3262SOL    HW2 9833   2.076   0.265   3.470
 3263SOL     OW 9834   3.487   1.382   1.950
 3263SOL    HW1 9835   3.448   1.472   1.934
 3263SOL    HW2 9836   3.417   1.312   1.931
 3264SOL     OW 9837   2.327   1.735   2.181
 3264SOL    HW1 9838   2.368   1.797   2.247
 3264SOL    HW2 9839   2.398   1.699   2.120
 3265SOL     OW 9840   3.287   0.131   2.288
 3265SOL    HW1 9841   3.266   0.088   2.201
 3265SOL    HW2 9842   3.386   0.137   2.299
 3266SOL     OW 9843   2.120   1.792   3.089
 3266SOL    HW1 9844   2.171   1.720   3.136
 3266SOL    HW2 9845   2.102   1.763   2.995
 3267SOL     OW 9846   2.798   1.702   2.759
 3267SOL    HW1 9847   2.880   1.655   2.789
 3267SOL    HW2 9848   2.755   1.650   2.685
 3268SOL     OW 9849   2.257   0.687   2.337
 3268SOL    HW1 9850   2.278   0.590   2.350
 3268SOL    HW2 9851   2.160   0.703   2.355
 3269SOL     OW 9852   3.392   0.230   3.589
 3269SOL    HW1 9853   3.406   0.237   3.688
 3269SOL    HW2 9854   3.306   0.181   3.571
 3270SOL     OW 9855   2.506   0.112   1.964
 3270SOL    HW1 9856   2.545   0.037   2.018
 3270SOL    HW2 9857   2.444   0.074   1.896
 3271SOL     OW 9858   2.624   0.277   3.627
 3271SOL    HW1 9859   2.711   0.229   3.621
 3271SOL    HW2 9860   2.569   0.237   3.701
 3272SOL     OW 9861   2.736   1.514   3.055
 3272SOL    HW1 9862   2.718   1.479   2.963
 3272SOL    HW2 9863   2.810   1.461   3.097
 3273SOL     OW 9864   3.204   0.591   3.299
 3273SOL    HW1 9865   3.234   0.556   3.388
 3273SOL    HW2 9866   3.239   0.684   3.287
 3274SOL     OW 9867   2.681   1.390   2.802
 3274SOL    HW1 9868   2.771   1.378   2.760
 3274SOL    HW2 9869   2.612   1.395   2.731
 3275SOL     OW 9870   2.789   0.511   2.758
 3275SOL    HW1 9871   2.761   0.505   2.662
 3275SOL    HW2 9872   2.821   0.421   2.789
 3276SOL     OW 9873   2.417   0.066   2.356
 3276SOL    HW1 9874   2.335   0.055   2.413
 3276SOL    HW2 9875   2.404   0.142   2.293
 3277SOL     OW 9876   3.288   1.199   1.905
 3277SOL    HW1 9877   3.321   1.121   1.958
 3277SOL    HW2 9878   3.199   1.228   1.941
 3278SOL     OW 9879   2.173   0.048   2.048
 3278SOL    HW1 9880   2.213   0.139   2.043
 3278SOL    HW2 9881   2.226   6.991   2.111
 3279SOL     OW 9882   2.810   0.264   2.319
 3279SOL    HW1 9883   2.780   0.300   2.231
 3279SOL    HW2 9884   2.910   0.273   2.326
 3280SOL     OW 9885   2.942   0.683   3.317
 3280SOL    HW1 9886   2.867   0.619   3.327
 3280SOL    HW2 9887   3.029   0.634   3.316
 3281SOL     OW 9888   3.082   1.569   2.656
 3281SOL    HW1 9889   3.097   1.639   2.586
 3281SOL    HW2 9890   3.153   1.577   2.726
 3282SOL     OW 9891   2.330   1.151   2.591
 3282SOL    HW1 9892   2.263   1.131   2.662
 3282SOL    HW2 9893   2.288   1.138   2.501
 3283SOL     OW 9894   3.126   1.792   2.472
 3283SOL    HW1 9895   3.177   1.854   2.413
 3283SOL    HW2 9896   3.053   1.843   2.518
 3284SOL     OW 9897   2.880   0.537   1.893
 3284SOL    HW1 9898   2.836   0.624   1.870
 3284SOL    HW2 9899   2.951   0.553   1.961
 3285SOL     OW 9900   1.952   0.552   3.259
 3285SOL    HW1 9901   2.045   0.552   3.222
 3285SOL    HW2 9902   1.942   0.626   3.325
 3286SOL     OW 9903   2.433   0.242   3.036
 3286SOL    HW1 9904   2.486   0.170   3.081
 3286SOL    HW2 9905   2.337   0.237   3.066
 3287SOL     OW 9906   2.728   0.465   2.498
 3287SOL    HW1 9907   2.677   0.525   2.436
 3287SOL    HW2 9908   2.755   0.382   2.449
 3288SOL     OW 9909   2.820   0.029   2.631
 3288SOL    HW1 9910   2.763   0.029   2.549
 3288SOL    HW2 9911   2.890   6.958   2.623
 3289SOL     OW 9912   3.307   1.161   2.720
 3289SOL    HW1 9913   3.231   1.096   2.724
 3289SOL    HW2 9914   3.336   1.173   2.625
 3290SOL     OW 9915   3.328   0.608   2.833
 3290SOL    HW1 9916   3.268   0.528   2.834
 3290SOL    HW2 9917   3.392   0.603   2.911
 3291SOL     OW 9918   3.704   0.810   2.242
 3291SOL    HW1 9919   3.762   0.762   2.308
 3291SOL    HW2 9920   3.674   0.747   2.171
 3292SOL     OW 9921   2.349   1.420   2.018
 3292SOL    HW1 9922   2.269   1.393   2.071
 3292SOL    HW2 9923   2.346   1.376   1.928
 3293SOL     OW 9924   3.536   1.267   2.506
 3293SOL    HW1 9925   3.635   1.264   2.518
 3293SOL    HW2 9926   3.502   1.358   2.526
 3294SOL     OW 9927   3.253   0.575   1.933
 3294SOL    HW1 9928   3.190   0.552   2.007
 3294SOL    HW2 9929   3.347   0.559   1.963
 3295SOL     OW 9930   2.386   0.263   2.166
 3295SOL    HW1 9931   2.442   0.214   2.100
 3295SOL    HW2 9932   2.361   0.353   2.129
 3296SOL     OW 9933   3.615   1.240   3.424
 3296SOL    HW1 9934   3.705   1.198   3.412
 3296SOL    HW2 9935   3.626   1.334   3.458
 3297SOL     OW 9936   2.916   1.350   3.198
 3297SOL    HW1 9937   2.835   1.320   3.248
 3297SOL    HW2 9938   2.998   1.310   3.240
 3298SOL     OW 9939   3.475   1.629   3.518
 3298SOL    HW1 9940   3.460   1.664   3.426
 3298SOL    HW2 9941   3.561   1.578   3.521
 3299SOL     OW 9942   2.998   1.218   2.967
 3299SOL    HW1 9943   2.938   1.252   3.040
 3299SOL    HW2 9944   2.964   1.248   2.878
 3300SOL     OW 9945   3.487   1.097   2.941
 3300SOL    HW1 9946   3.483   1.162   3.017
 3300SOL    HW2 9947   3.410   1.113   2.879
 3301SOL     OW 9948   2.757   0.149   3.250
 3301SOL    HW1 9949   2.774   0.111   3.159
 3301SOL    HW2 9950   2.844   0.176   3.291
 3302SOL     OW 9951   2.842   1.114   3.583
 3302SOL    HW1 9952   2.747   1.134   3.610
 3302SOL    HW2 9953   2.844   1.032   3.527
 3303SOL     OW 9954   2.574   1.059   2.235
 3303SOL    HW1 9955   2.557   1.042   2.332
 3303SOL    HW2 9956   2.653   1.005   2.205
 3304SOL     OW 9957   2.285   0.816   3.115
 3304SOL    HW1 9958   2.358   0.828   3.183
 3304SOL    HW2 9959   2.245   0.725   3.125
 3305SOL     OW 9960   3.123   0.379   3.147
 3305SOL    HW1 9961   3.160   0.458   3.196
 3305SOL    HW2 9962   3.028   0.398   3.122
 3306SOL     OW 9963   1.936   1.572   3.215
 3306SOL    HW1 9964   1.901   1.643   3.154
 3306SOL    HW2 9965   2.036   1.570   3.210
 3307SOL     OW 9966   2.205   1.117   2.349
 3307SOL    HW1 9967   2.211   1.199   2.292
 3307SOL    HW2 9968   2.203   1.036   2.291
 3308SOL     OW 9969   2.415   0.546   2.723
 3308SOL    HW1 9970   2.429   0.606   2.644
 3308SOL    HW2 9971   2.485   0.566   2.792
 3309SOL     OW 9972   3.108   1.354   2.254
 3309SOL    HW1 9973   3.169   1.427   2.285
 3309SOL    HW2 9974   3.015   1.374   2.284
 3310SOL     OW 9975   3.149   1.461   3.009
 3310SOL    HW1 9976   3.207   1.467   3.090
 3310SOL    HW2 9977   3.094   1.378   3.014
 3311SOL     OW 9978   3.435   0.623   2.346
 3311SOL    HW1 9979   3.387   0.678   2.415
 3311SOL    HW2 9980   3.487   0.683   2.286
 3312SOL     OW 9981   2.210   1.529   3.172
 3312SOL    HW1 9982   2.194   1.485   3.084
 3312SOL    HW2 9983   2.308   1.543   3.185
 3313SOL     OW 9984   2.280   0.744   3.463
 3313SOL    HW1 9985   2.342   0.792   3.402
 3313SOL    HW2 9986   2.319   0.654   3.486
 3314SOL     OW 9987   3.470   0.785   3.547
 3314SOL    HW1 9988   3.378   0.826   3.544
 3314SOL    HW2 9989   3.526   0.825   3.475
 3315SOL     OW 9990   2.859   0.135   3.597
 3315SOL    HW1 9991   2.900   0.183   3.520
 3315SOL    HW2 9992   2.863   0.037   3.583
 3316SOL     OW 9993   2.326   0.039   3.620
 3316SOL    HW1 9994   2.262   6.966   3.594
 3316SOL    HW2 9995   2.276   0.125   3.630
 3317SOL     OW 9996   2.446   0.873   2.895
 3317SOL    HW1 9997   2.482   0.966   2.893
 3317SOL    HW2 9998   2.386   0.862   2.975
 3318SOL     OW 9999   3.215   0.858   2.887
 3318SOL    HW110000   3.124   0.850   2.846
 3318SOL    HW210001   3.262   0.770   2.879
 3319SOL     OW10002   3.061   0.527   2.126
 3319SOL    HW110003   3.073   0.444   2.181
 3319SOL    HW210004   3.016   0.597   2.182
 3320SOL     OW10005   2.173   0.209   3.110
 3320SOL    HW110006   2.109   0.219   3.186
 3320SOL    HW210007   2.160   0.119   3.068
 3321SOL     OW10008   1.914   1.310   3.138
 3321SOL    HW110009   1.946   1.249   3.210
 3321SOL    HW210010   1.917   1.405   3.170
 3322SOL     OW10011   2.591   0.636   2.917
 3322SOL    HW110012   2.665   0.615   2.854
 3322SOL    HW210013   2.554   0.726   2.896
 3323SOL     OW10014   3.597   0.960   3.717
 3323SOL    HW110015   3.554   0.892   3.658
 3323SOL    HW210016   3.538   0.979   3.795
 3324SOL     OW10017   2.182   0.060   2.491
 3324SOL    HW110018   2.160   0.154   2.517
 3324SOL    HW210019   2.141   6.996   2.556
 3325SOL     OW10020   3.488   0.392   2.208
 3325SOL    HW110021   3.518   0.314   2.263
 3325SOL    HW210022   3.457   0.466   2.268
 3326SOL     OW10023   2.887   0.756   2.820
 3326SOL    HW110024   2.882   0.778   2.918
 3326SOL    HW210025   2.859   0.662   2.806
 3327SOL     OW10026   2.843   1.563   3.579
 3327SOL    HW110027   2.827   1.611   3.493
 3327SOL    HW210028   2.891   1.477   3.561
 3328SOL     OW10029   3.717   1.504   3.466
 3328SOL    HW110030   3.735   1.530   3.371
 3328SOL    HW210031   3.800   1.516   3.520
 3329SOL     OW10032   2.215   0.918   3.666
 3329SOL    HW110033   2.295   0.940   3.722
 3329SOL    HW210034   2.242   0.852   3.596
 3330SOL     OW10035   3.401   0.235   1.997
 3330SOL    HW110036   3.302   0.229   2.007
 3330SOL    HW210037   3.439   0.293   2.069
 3331SOL     OW10038   3.151   0.826   1.889
 3331SOL    HW110039   3.191   0.735   1.896
 3331SOL    HW210040   3.182   0.869   1.804
 3332SOL     OW10041   2.931   1.337   2.716
 3332SOL    HW110042   2.935   1.259   2.654
 3332SOL    HW210043   2.991   1.410   2.682
 3333SOL     OW10044   2.173   0.809   2.805
 3333SOL    HW110045   2.269   0.835   2.799
 3333SOL    HW210046   2.166   0.714   2.836
 3334SOL     OW10047   2.197   0.539   2.874
 3334SOL    HW110048   2.154   0.449   2.862
 3334SOL    HW210049   2.278   0.545   2.815
 3335SOL     OW10050   2.987   0.410   3.534
 3335SOL    HW110051   2.939   0.452   3.610
 3335SOL    HW210052   3.085   0.430   3.541
 3336SOL     OW10053   2.999   0.224   3.347
 3336SOL    HW110054   2.998   0.298   3.413
 3336SOL    HW210055   3.055   0.250   3.268
 3337SOL     OW10056   1.863   1.316   2.057
 3337SOL    HW110057   1.773   1.335   2.017
 3337SOL    HW210058   1.864   1.222   2.092
 3338SOL     OW10059   1.955   1.784   2.805
 3338SOL    HW110060   1.919   1.703   2.760
 3338SOL    HW210061   2.049   1.801   2.773
 3339SOL     OW10062   2.356   1.576   2.767
 3339SOL    HW110063   2.426   1.642   2.794
 3339SOL    HW210064   2.397   1.508   2.705
 3340SOL     OW10065   2.838   0.795   3.086
 3340SOL    HW110066   2.897   0.769   3.163
 3340SOL    HW210067   2.748   0.752   3.098
 3341SOL     OW10068   1.897   0.550   2.982
 3341SOL    HW110069   1.975   0.531   2.922
 3341SOL    HW210070   1.928   0.551   3.077
 3342SOL     OW10071   2.047   0.529   3.591
 3342SOL    HW110072   2.126   0.496   3.538
 3342SOL    HW210073   2.007   0.607   3.544
 3343SOL     OW10074   3.242   0.936   3.517
 3343SOL    HW110075   3.265   1.033   3.518
 3343SOL    HW210076   3.239   0.904   3.423
 3344SOL     OW10077   2.679   0.576   2.222
 3344SOL    HW110078   2.689   0.495   2.164
 3344SOL    HW210079   2.600   0.629   2.191
 3345SOL     OW10080   3.504   0.605   3.043
 3345SOL    HW110081   3.485   0.545   3.120
 3345SOL    HW210082   3.595   0.586   3.007
 3346SOL     OW10083   2.102   1.547   3.588
 3346SOL    HW110084   2.081   1.622   3.652
 3346SOL    HW210085   2.108   1.461   3.639
 3347SOL     OW10086   2.569   0.461   3.118
 3347SOL    HW110087   2.514   0.381   3.091
 3347SOL    HW210088   2.569   0.528   3.044
 3348SOL     OW10089   2.783   1.681   3.333
 3348SOL    HW110090   2.757   1.635   3.248
 3348SOL    HW210091   2.783   1.780   3.319
 3349SOL     OW10092   2.322   0.495   2.041
 3349SOL    HW110093   2.386   0.567   2.068
 3349SOL    HW210094   2.231   0.535   2.030
 3350SOL     OW10095   2.004   1.137   3.337
 3350SOL    HW110096   2.006   1.092   3.426
 3350SOL    HW210097   2.024   1.071   3.265
 3351SOL     OW10098   3.179   1.044   3.081
 3351SOL    HW110099   3.206   0.976   3.013
 3351SOL    HW210100   3.110   1.105   3.041
 3352SOL     OW10101   3.177   0.856   2.162
 3352SOL    HW110102   3.100   0.829   2.220
 3352SOL    HW210103   3.152   0.844   2.066
 3353SOL     OW10104   3.641   1.731   3.018
 3353SOL    HW110105   3.702   1.765   2.946
 3353SOL    HW210106   3.610   1.639   2.993
 3354SOL     OW10107   3.103   1.733   2.968
 3354SOL    HW110108   3.189   1.761   2.925
 3354SOL    HW210109   3.109   1.636   2.991
 3355SOL     OW10110   1.947   1.265   2.873
 3355SOL    HW110111   1.932   1.280   2.971
 3355SOL    HW210112   1.875   1.207   2.836
 3356SOL     OW10113   2.542   1.673   3.597
 3356SOL    HW110114   2.480   1.751   3.593
 3356SOL    HW210115   2.615   1.684   3.529
 3357SOL     OW10116   3.569   0.164   2.332
 3357SOL    HW110117   3.654   0.148   2.282
 3357SOL    HW210118   3.566   0.106   2.413
 3358SOL     OW10119   3.257   1.570   2.349
 3358SOL    HW110120   3.320   1.602   2.278
 3358SOL    HW210121   3.202   1.647   2.382
 3359SOL     OW10122   2.007   1.787   3.708
 3359SOL    HW110123   1.949   1.719   3.754
 3359SOL    HW210124   2.056   1.841   3.776
 3360SOL     OW10125   3.144   0.928   2.528
 3360SOL    HW110126   3.219   0.864   2.544
 3360SOL    HW210127   3.177   1.005   2.473
 3361SOL     OW10128   2.667   1.278   3.289
 3361SOL    HW110129   2.638   1.321   3.374
 3361SOL    HW210130   2.598   1.294   3.218
 3362SOL     OW10131   2.531   1.621   2.016
 3362SOL    HW110132   2.547   1.639   1.919
 3362SOL    HW210133   2.472   1.540   2.026
 3363SOL     OW10134   3.480   1.729   3.249
 3363SOL    HW110135   3.536   1.730   3.167
 3363SOL    HW210136   3.465   1.822   3.281
 3364SOL     OW10137   3.728   0.162   2.817
 3364SOL    HW110138   3.726   0.063   2.806
 3364SOL    HW210139   3.637   0.199   2.801
 3365SOL     OW10140   2.122   0.313   2.578
 3365SOL    HW110141   2.033   0.350   2.551
 3365SOL    HW210142   2.128   0.311   2.677
 3366SOL     OW10143   3.070   1.601   1.895
 3366SOL    HW110144   3.061   1.507   1.928
 3366SOL    HW210145   3.004   1.618   1.822
 3367SOL     OW10146   2.685   1.010   3.240
 3367SOL    HW110147   2.736   0.994   3.155
 3367SOL    HW210148   2.683   1.108   3.259
 3368SOL     OW10149   2.782   0.911   2.149
 3368SOL    HW110150   2.843   0.946   2.078
 3368SOL    HW210151   2.828   0.839   2.201
 3369SOL     OW10152   3.351   1.629   1.904
 3369SOL    HW110153   3.252   1.618   1.893
 3369SOL    HW210154   3.394   1.635   1.814
 3370SOL     OW10155   2.228   1.303   3.349
 3370SOL    HW110156   2.218   1.383   3.290
 3370SOL    HW210157   2.148   1.244   3.338
 3371SOL     OW10158   3.476   1.284   3.146
 3371SOL    HW110159   3.539   1.266   3.221
 3371SOL    HW210160   3.410   1.354   3.174
 3372SOL     OW10161   2.922   1.106   2.576
 3372SOL    HW110162   2.846   1.056   2.616
 3372SOL    HW210163   2.990   1.042   2.542
 3373SOL     OW10164   2.886   0.249   2.813
 3373SOL    HW110165   2.864   0.202   2.727
 3373SOL    HW210166   2.877   0.185   2.889
 3374SOL     OW10167   2.466   1.486   2.342
 3374SOL    HW110168   2.517   1.432   2.275
 3374SOL    HW210169   2.393   1.536   2.296
 3375SOL     OW10170   3.594   0.392   3.237
 3375SOL    HW110171   3.663   0.465   3.243
 3375SOL    HW210172   3.631   0.315   3.185
 3376SOL     OW10173   2.115   1.348   2.150
 3376SOL    HW110174   2.019   1.341   2.123
 3376SOL    HW210175   2.121   1.386   2.242
 3377SOL     OW10176   1.976   1.032   3.589
 3377SOL    HW110177   1.895   1.005   3.640
 3377SOL    HW210178   2.057   0.988   3.628
 3378SOL     OW10179   2.531   0.236   3.369
 3378SOL    HW110180   2.612   0.209   3.317
 3378SOL    HW210181   2.559   0.269   3.460
 3379SOL     OW10182   1.937   0.334   1.896
 3379SOL    HW110183   1.841   0.312   1.879
 3379SOL    HW210184   1.963   0.414   1.841
 3380SOL     OW10185   3.287   0.858   3.258
 3380SOL    HW110186   3.231   0.921   3.204
 3380SOL    HW210187   3.381   0.859   3.224
 3381SOL     OW10188   1.935   0.178   2.180
 3381SOL    HW110189   1.937   0.249   2.109
 3381SOL    HW210190   1.988   0.099   2.150
 3382SOL     OW10191   3.042   1.338   1.982
 3382SOL    HW110192   2.947   1.308   1.976
 3382SOL    HW210193   3.070   1.339   2.078
 3383SOL     OW10194   2.485   0.830   3.295
 3383SOL    HW110195   2.542   0.911   3.280
 3383SOL    HW210196   2.544   0.750   3.306
 3384SOL     OW10197   3.347   1.786   2.849
 3384SOL    HW110198   3.368   1.848   2.773
 3384SOL    HW210199   3.432   1.754   2.890
 3385SOL     OW10200   2.582   0.559   3.568
 3385SOL    HW110201   2.626   0.630   3.624
 3385SOL    HW210202   2.603   0.469   3.606
 3386SOL     OW10203   3.335   1.197   3.497
 3386SOL    HW110204   3.320   1.210   3.595
 3386SOL    HW210205   3.431   1.215   3.475
 3387SOL     OW10206   2.234   1.738   3.428
 3387SOL    HW110207   2.150   1.789   3.414
 3387SOL    HW210208   2.213   1.650   3.471
 3388SOL     OW10209   3.528   0.879   3.118
 3388SOL    HW110210   3.523   0.788   3.077
 3388SOL    HW210211   3.516   0.948   3.047
 3389SOL     OW10212   3.086   0.318   2.319
 3389SOL    HW110213   3.156   0.247   2.311
 3389SOL    HW210214   3.105   0.375   2.398
 3390SOL     OW10215   2.450   0.738   2.529
 3390SOL    HW110216   2.490   0.829   2.518
 3390SOL    HW210217   2.380   0.724   2.459
 3391SOL     OW10218   3.612   0.369   3.510
 3391SOL    HW110219   3.603   0.384   3.411
 3391SOL    HW210220   3.540   0.307   3.541
 3392SOL     OW10221   3.614   0.932   3.372
 3392SOL    HW110222   3.602   1.029   3.393
 3392SOL    HW210223   3.593   0.917   3.275
 3393SOL     OW10224   2.728   1.364   1.904
 3393SOL    HW110225   2.687   1.388   1.992
 3393SOL    HW210226   2.744   1.447   1.851
 3394SOL     OW10227   2.526   1.786   2.805
 3394SOL    HW110228   2.503   1.881   2.783
 3394SOL    HW210229   2.625   1.773   2.793
 3395SOL     OW10230   2.731   0.970   2.718
 3395SOL    HW110231   2.782   0.893   2.755
 3395SOL    HW210232   2.689   1.021   2.793
 3396SOL     OW10233   2.940   0.989   1.946
 3396SOL    HW110234   2.912   1.043   1.866
 3396SOL    HW210235   3.018   0.931   1.922
 3397SOL     OW10236   3.709   1.556   2.709
 3397SOL    HW110237   3.632   1.544   2.646
 3397SOL    HW210238   3.704   1.487   2.781
 3398SOL     OW10239   2.093   1.299   3.719
 3398SOL    HW110240   2.026   1.233   3.685
 3398SOL    HW210241   2.079   1.313   3.817
 3399SOL     OW10242   1.949   1.230   2.525
 3399SOL    HW110243   1.953   1.184   2.614
 3399SOL    HW210244   2.017   1.190   2.464
 3400SOL     OW10245   2.544   1.408   3.495
 3400SOL    HW110246   2.463   1.359   3.527
 3400SOL    HW210247   2.542   1.501   3.532
 3401SOL     OW10248   3.714   0.183   3.109
 3401SOL    HW110249   3.636   0.122   3.106
 3401SOL    HW210250   3.739   0.209   3.015
 3402SOL     OW10251   2.293   0.427   2.386
 3402SOL    HW110252   2.327   0.356   2.325
 3402SOL    HW210253   2.239   0.384   2.459
 3403SOL     OW10254   3.556   1.483   2.956
 3403SOL    HW110255   3.475   1.465   2.901
 3403SOL    HW210256   3.565   1.412   3.026
 3404SOL     OW10257   2.196   0.558   3.150
 3404SOL    HW110258   2.253   0.501   3.209
 3404SOL    HW210259   2.213   0.535   3.054
 3405SOL     OW10260   2.690   1.580   2.541
 3405SOL    HW110261   2.678   1.640   2.462
 3405SOL    HW210262   2.613   1.516   2.547
 3406SOL     OW10263   3.274   0.215   2.992
 3406SOL    HW110264   3.357   0.173   3.029
 3406SOL    HW210265   3.227   0.265   3.064
 3407SOL     OW10266   2.840   0.055   2.998
 3407SOL    HW110267   2.782   6.990   2.949
 3407SOL    HW210268   2.896   0.005   3.064
 3408SOL     OW10269   2.636   1.332   2.182
 3408SOL    HW110270   2.608   1.236   2.190
 3408SOL    HW210271   2.721   1.345   2.233
 3409SOL     OW10272   2.485   1.559   3.151
 3409SOL    HW110273   2.483   1.646   3.201
 3409SOL    HW210274   2.576   1.546   3.111
 3410SOL     OW10275   3.186   0.017   2.054
 3410SOL    HW110276   3.233   6.951   1.995
 3410SOL    HW210277   3.109   6.972   2.100
 3411SOL     OW10278   3.132   0.454   2.549
 3411SOL    HW110279   3.087   0.543   2.546
 3411SOL    HW210280   3.150   0.429   2.644
 3412SOL     OW10281   3.480   0.258   2.777
 3412SOL    HW110282   3.391   0.236   2.817
 3412SOL    HW210283   3.468   0.321   2.701
 3413SOL     OW10284   1.905   1.065   2.170
 3413SOL    HW110285   2.003   1.064   2.150
 3413SOL    HW210286   1.875   0.972   2.192
 3414SOL     OW10287   2.746   1.661   2.203
 3414SOL    HW110288   2.671   1.640   2.140
 3414SOL    HW210289   2.720   1.739   2.260
 3415SOL     OW10290   2.083   0.620   3.851
 3415SOL    HW110291   1.994   0.619   3.895
 3415SOL    HW210292   2.073   0.599   3.754
 3416SOL     OW10293   2.084   0.302   4.721
 3416SOL    HW110294   2.124   0.264   4.804
 3416SOL    HW210295   2.001   0.252   4.697
 3417SOL     OW10296   1.871   0.394   4.352
 3417SOL    HW110297   1.782   0.411   4.394
 3417SOL    HW210298   1.862   0.320   4.285
 3418SOL     OW10299   2.430   1.296   4.908
 3418SOL    HW110300   2.340   1.293   4.865
 3418SOL    HW210301   2.448   1.388   4.942
 3419SOL     OW10302   3.426   1.513   4.431
 3419SOL    HW110303   3.383   1.489   4.519
 3419SOL    HW210304   3.355   1.520   4.361
 3420SOL     OW10305   2.996   0.702   4.420
 3420SOL    HW110306   3.047   0.786   4.403
 3420SOL    HW210307   2.945   0.711   4.505
 3421SOL     OW10308   3.629   0.602   3.947
 3421SOL    HW110309   3.608   0.598   3.849
 3421SOL    HW210310   3.592   0.521   3.992
 3422SOL     OW10311   2.607   1.141   4.764
 3422SOL    HW110312   2.539   1.176   4.829
 3422SOL    HW210313   2.651   1.218   4.718
 3423SOL     OW10314   2.733   0.767   5.544
 3423SOL    HW110315   2.722   0.835   5.616
 3423SOL    HW210316   2.759   0.812   5.459
 3424SOL     OW10317   2.546   1.000   4.373
 3424SOL    HW110318   2.617   0.989   4.442
 3424SOL    HW210319   2.471   1.055   4.410
 3425SOL     OW10320   2.573   1.153   5.541
 3425SOL    HW110321   2.625   1.232   5.574
 3425SOL    HW210322   2.488   1.185   5.500
 3426SOL     OW10323   2.188   1.424   4.790
 3426SOL    HW110324   2.112   1.379   4.743
 3426SOL    HW210325   2.242   1.476   4.724
 3427SOL     OW10326   3.320   1.501   5.081
 3427SOL    HW110327   3.377   1.583   5.088
 3427SOL    HW210328   3.250   1.503   5.152
 3428SOL     OW10329   2.305   0.398   5.208
 3428SOL    HW110330   2.391   0.347   5.213
 3428SOL    HW210331   2.228   0.334   5.213
 3429SOL     OW10332   3.478   0.457   4.453
 3429SOL    HW110333   3.415   0.486   4.381
 3429SOL    HW210334   3.488   0.530   4.520
 3430SOL     OW10335   2.084   1.714   4.196
 3430SOL    HW110336   2.102   1.793   4.255
 3430SOL    HW210337   2.159   1.704   4.130
 3431SOL     OW10338   2.999   1.340   5.422
 3431SOL    HW110339   3.046   1.338   5.510
 3431SOL    HW210340   2.943   1.258   5.412
 3432SOL     OW10341   2.095   1.443   4.260
 3432SOL    HW110342   2.079   1.542   4.259
 3432SOL    HW210343   2.035   1.400   4.327
 3433SOL     OW10344   2.130   1.090   4.624
 3433SOL    HW110345   2.126   0.996   4.657
 3433SOL    HW210346   2.067   1.147   4.678
 3434SOL     OW10347   2.462   1.796   5.151
 3434SOL    HW110348   2.379   1.773   5.201
 3434SOL    HW210349   2.493   1.887   5.178
 3435SOL     OW10350   2.444   0.987   3.864
 3435SOL    HW110351   2.492   1.034   3.790
 3435SOL    HW210352   2.484   1.015   3.952
 3436SOL     OW10353   3.441   0.131   5.171
 3436SOL    HW110354   3.451   0.226   5.140
 3436SOL    HW210355   3.463   0.126   5.269
 3437SOL     OW10356   1.976   0.661   4.287
 3437SOL    HW110357   1.949   0.566   4.305
 3437SOL    HW210358   1.970   0.713   4.373
 3438SOL     OW10359   3.708   1.756   4.057
 3438SOL    HW110360   3.777   1.725   4.122
 3438SOL    HW210361   3.724   1.852   4.033
 3439SOL     OW10362   1.891   1.591   3.848
 3439SOL    HW110363   1.875   1.494   3.867
 3439SOL    HW210364   1.870   1.645   3.929
 3440SOL     OW10365   3.552   0.920   4.370
 3440SOL    HW110366   3.637   0.870   4.355
 3440SOL    HW210367   3.529   0.974   4.289
 3441SOL     OW10368   3.514   1.105   4.156
 3441SOL    HW110369   3.603   1.102   4.110
 3441SOL    HW210370   3.517   1.171   4.230
 3442SOL     OW10371   1.984   0.748   5.307
 3442SOL    HW110372   2.080   0.775   5.309
 3442SOL    HW210373   1.927   0.830   5.309
 3443SOL     OW10374   2.474   1.390   4.458
 3443SOL    HW110375   2.428   1.302   4.470
 3443SOL    HW210376   2.461   1.421   4.364
 3444SOL     OW10377   3.151   1.235   5.146
 3444SOL    HW110378   3.178   1.165   5.080
 3444SOL    HW210379   3.211   1.231   5.226
 3445SOL     OW10380   2.685   0.027   4.245
 3445SOL    HW110381   2.724   0.117   4.225
 3445SOL    HW210382   2.585   0.035   4.247
 3446SOL     OW10383   2.053   0.962   5.000
 3446SOL    HW110384   2.142   0.919   4.985
 3446SOL    HW210385   1.983   0.915   4.946
 3447SOL     OW10386   3.394   0.999   3.928
 3447SOL    HW110387   3.320   0.939   3.957
 3447SOL    HW210388   3.440   1.037   4.008
 3448SOL     OW10389   3.044   1.810   5.346
 3448SOL    HW110390   3.052   1.879   5.274
 3448SOL    HW210391   3.064   1.719   5.308
 3449SOL     OW10392   2.181   0.269   5.514
 3449SOL    HW110393   2.244   0.336   5.553
 3449SOL    HW210394   2.094   0.272   5.564
 3450SOL     OW10395   3.327   1.420   4.672
 3450SOL    HW110396   3.260   1.439   4.744
 3450SOL    HW210397   3.319   1.325   4.643
 3451SOL     OW10398   3.513   1.747   4.300
 3451SOL    HW110399   3.495   1.719   4.206
 3451SOL    HW210400   3.491   1.672   4.362
 3452SOL     OW10401   2.455   0.719   3.995
 3452SOL    HW110402   2.461   0.805   3.944
 3452SOL    HW210403   2.387   0.728   4.067
 3453SOL     OW10404   3.145   0.367   4.673
 3453SOL    HW110405   3.048   0.343   4.676
 3453SOL    HW210406   3.194   0.315   4.744
 3454SOL     OW10407   3.445   1.672   4.032
 3454SOL    HW110408   3.541   1.701   4.028
 3454SOL    HW210409   3.412   1.655   3.939
 3455SOL     OW10410   2.655   0.616   5.179
 3455SOL    HW110411   2.628   0.590   5.272
 3455SOL    HW210412   2.616   0.550   5.114
 3456SOL     OW10413   3.256   0.473   5.404
 3456SOL    HW110414   3.254   0.519   5.493
 3456SOL    HW210415   3.313   0.391   5.410
 3457SOL     OW10416   2.816   0.886   5.306
 3457SOL    HW110417   2.874   0.813   5.269
 3457SOL    HW210418   2.761   0.927   5.233
 3458SOL     OW10419   2.857   0.412   4.952
 3458SOL    HW110420   2.771   0.435   4.998
 3458SOL    HW210421   2.837   0.361   4.868
 3459SOL     OW10422   2.913   0.698   4.149
 3459SOL    HW110423   2.933   0.694   4.247
 3459SOL    HW210424   2.826   0.652   4.131
 3460SOL     OW10425   1.950   0.828   4.504
 3460SOL    HW110426   2.036   0.815   4.554
 3460SOL    HW210427   1.901   0.907   4.540
 3461SOL     OW10428   1.990   1.869   5.311
 3461SOL    HW110429   1.995   1.842   5.407
 3461SOL    HW210430   1.904   1.838   5.271
 3462SOL     OW10431   2.752   0.355   3.924
 3462SOL    HW110432   2.798   0.416   3.859
 3462SOL    HW210433   2.729   0.269   3.878
 3463SOL     OW10434   3.564   0.573   5.549
 3463SOL    HW110435   3.527   0.652   5.501
 3463SOL    HW210436   3.592   0.503   5.483
 3464SOL     OW10437   3.241   1.143   4.258
 3464SOL    HW110438   3.326   1.127   4.207
 3464SOL    HW210439   3.185   1.210   4.210
 3465SOL     OW10440   2.367   0.191   4.634
 3465SOL    HW110441   2.406   0.221   4.721
 3465SOL    HW210442   2.392   0.255   4.562
 3466SOL     OW10443   2.858   1.442   4.188
 3466SOL    HW110444   2.825   1.523   4.139
 3466SOL    HW210445   2.843   1.455   4.286
 3467SOL     OW10446   2.218   1.813   4.593
 3467SOL    HW110447   2.262   1.724   4.600
 3467SOL    HW210448   2.285   1.885   4.612
 3468SOL     OW10449   3.660   1.057   4.595
 3468SOL    HW110450   3.608   1.035   4.513
 3468SOL    HW210451   3.597   1.063   4.673
 3469SOL     OW10452   3.088   1.536   5.238
 3469SOL    HW110453   3.075   1.462   5.304
 3469SOL    HW210454   3.021   1.527   5.165
 3470SOL     OW10455   2.184   0.959   3.977
 3470SOL    HW110456   2.272   0.979   3.934
 3470SOL    HW210457   2.147   0.873   3.940
 3471SOL     OW10458   3.345   0.749   4.448
 3471SOL    HW110459   3.338   0.705   4.538
 3471SOL    HW210460   3.425   0.809   4.447
 3472SOL     OW10461   2.330   1.265   5.455
 3472SOL    HW110462   2.304   1.271   5.359
 3472SOL    HW210463   2.248   1.262   5.512
 3473SOL     OW10464   2.983   1.776   3.951
 3473SOL    HW110465   2.904   1.738   3.999
 3473SOL    HW210466   3.013   1.712   3.880
 3474SOL     OW10467   2.054   0.272   5.235
 3474SOL    HW110468   1.995   0.352   5.220
 3474SOL    HW210469   2.076   0.265   5.332
 3475SOL     OW10470   3.487   1.381   3.812
 3475SOL    HW110471   3.448   1.472   3.796
 3475SOL    HW210472   3.417   1.312   3.793
 3476SOL     OW10473   2.327   1.735   4.043
 3476SOL    HW110474   2.368   1.797   4.109
 3476SOL    HW210475   2.398   1.699   3.982
 3477SOL     OW10476   3.287   0.131   4.150
 3477SOL    HW110477   3.266   0.088   4.062
 3477SOL    HW210478   3.386   0.137   4.161
 3478SOL     OW10479   2.120   1.792   4.951
 3478SOL    HW110480   2.171   1.720   4.998
 3478SOL    HW210481   2.102   1.763   4.857
 3479SOL     OW10482   2.798   1.702   4.621
 3479SOL    HW110483   2.881   1.655   4.651
 3479SOL    HW210484   2.755   1.650   4.547
 3480SOL     OW10485   2.257   0.687   4.199
 3480SOL    HW110486   2.278   0.590   4.212
 3480SOL    HW210487   2.160   0.703   4.217
 3481SOL     OW10488   3.392   0.230   5.451
 3481SOL    HW110489   3.406   0.237   5.550
 3481SOL    HW210490   3.306   0.181   5.433
 3482SOL     OW10491   2.506   0.112   3.826
 3482SOL    HW110492   2.545   0.037   3.880
 3482SOL    HW210493   2.444   0.074   3.757
 3483SOL     OW10494   2.624   0.277   5.489
 3483SOL    HW110495   2.711   0.229   5.483
 3483SOL    HW210496   2.569   0.237   5.563
 3484SOL     OW10497   2.736   1.514   4.917
 3484SOL    HW110498   2.718   1.479   4.825
 3484SOL    HW210499   2.810   1.461   4.959
 3485SOL     OW10500   3.204   0.591   5.161
 3485SOL    HW110501   3.234   0.556   5.250
 3485SOL    HW210502   3.239   0.684   5.149
 3486SOL     OW10503   2.681   1.390   4.664
 3486SOL    HW110504   2.771   1.378   4.622
 3486SOL    HW210505   2.611   1.395   4.593
 3487SOL     OW10506   2.789   0.511   4.620
 3487SOL    HW110507   2.761   0.505   4.524
 3487SOL    HW210508   2.821   0.421   4.651
 3488SOL     OW10509   2.417   0.066   4.219
 3488SOL    HW110510   2.335   0.055   4.275
 3488SOL    HW210511   2.404   0.142   4.155
 3489SOL     OW10512   3.288   1.199   3.767
 3489SOL    HW110513   3.321   1.121   3.820
 3489SOL    HW210514   3.199   1.228   3.803
 3490SOL     OW10515   2.172   0.048   3.910
 3490SOL    HW110516   2.213   0.139   3.905
 3490SOL    HW210517   2.226   6.991   3.973
 3491SOL     OW10518   2.810   0.264   4.181
 3491SOL    HW110519   2.780   0.300   4.093
 3491SOL    HW210520   2.910   0.273   4.187
 3492SOL     OW10521   2.942   0.683   5.178
 3492SOL    HW110522   2.867   0.619   5.189
 3492SOL    HW210523   3.029   0.634   5.178
 3493SOL     OW10524   3.082   1.569   4.518
 3493SOL    HW110525   3.096   1.639   4.448
 3493SOL    HW210526   3.153   1.577   4.588
 3494SOL     OW10527   2.330   1.151   4.453
 3494SOL    HW110528   2.263   1.131   4.524
 3494SOL    HW210529   2.288   1.138   4.363
 3495SOL     OW10530   3.126   1.792   4.334
 3495SOL    HW110531   3.177   1.854   4.275
 3495SOL    HW210532   3.053   1.843   4.380
 3496SOL     OW10533   2.880   0.537   3.755
 3496SOL    HW110534   2.836   0.624   3.732
 3496SOL    HW210535   2.951   0.553   3.823
 3497SOL     OW10536   1.952   0.552   5.121
 3497SOL    HW110537   2.045   0.552   5.084
 3497SOL    HW210538   1.942   0.626   5.187
 3498SOL     OW10539   2.433   0.242   4.898
 3498SOL    HW110540   2.486   0.170   4.943
 3498SOL    HW210541   2.337   0.237   4.928
 3499SOL     OW10542   2.728   0.465   4.360
 3499SOL    HW110543   2.677   0.525   4.298
 3499SOL    HW210544   2.755   0.382   4.311
 3500SOL     OW10545   2.820   0.029   4.494
 3500SOL    HW110546   2.763   0.029   4.411
 3500SOL    HW210547   2.890   6.958   4.485
 3501SOL     OW10548   3.307   1.161   4.582
 3501SOL    HW110549   3.231   1.096   4.586
 3501SOL    HW210550   3.336   1.173   4.487
 3502SOL     OW10551   3.328   0.608   4.695
 3502SOL    HW110552   3.268   0.528   4.696
 3502SOL    HW210553   3.392   0.603   4.773
 3503SOL     OW10554   3.704   0.810   4.104
 3503SOL    HW110555   3.762   0.762   4.170
 3503SOL    HW210556   3.674   0.747   4.033
 3504SOL     OW10557   2.349   1.420   3.879
 3504SOL    HW110558   2.269   1.393   3.933
 3504SOL    HW210559   2.346   1.376   3.790
 3505SOL     OW10560   3.536   1.267   4.368
 3505SOL    HW110561   3.635   1.264   4.380
 3505SOL    HW210562   3.502   1.358   4.388
 3506SOL     OW10563   3.253   0.575   3.795
 3506SOL    HW110564   3.190   0.552   3.869
 3506SOL    HW210565   3.347   0.559   3.825
 3507SOL     OW10566   2.386   0.263   4.028
 3507SOL    HW110567   2.442   0.214   3.962
 3507SOL    HW210568   2.361   0.353   3.991
 3508SOL     OW10569   3.615   1.240   5.286
 3508SOL    HW110570   3.705   1.198   5.274
 3508SOL    HW210571   3.626   1.334   5.320
 3509SOL     OW10572   2.916   1.350   5.060
 3509SOL    HW110573   2.835   1.320   5.110
 3509SOL    HW210574   2.998   1.310   5.102
 3510SOL     OW10575   3.475   1.629   5.380
 3510SOL    HW110576   3.460   1.664   5.288
 3510SOL    HW210577   3.561   1.578   5.383
 3511SOL     OW10578   2.998   1.218   4.829
 3511SOL    HW110579   2.938   1.252   4.902
 3511SOL    HW210580   2.964   1.248   4.740
 3512SOL     OW10581   3.487   1.097   4.803
 3512SOL    HW110582   3.483   1.162   4.879
 3512SOL    HW210583   3.410   1.113   4.741
 3513SOL     OW10584   2.757   0.149   5.112
 3513SOL    HW110585   2.774   0.112   5.021
 3513SOL    HW210586   2.844   0.176   5.153
 3514SOL     OW10587   2.841   1.114   5.445
 3514SOL    HW110588   2.747   1.134   5.472
 3514SOL    HW210589   2.844   1.032   5.389
 3515SOL     OW10590   2.574   1.059   4.097
 3515SOL    HW110591   2.557   1.042   4.194
 3515SOL    HW210592   2.653   1.005   4.067
 3516SOL     OW10593   2.285   0.816   4.977
 3516SOL    HW110594   2.358   0.828   5.045
 3516SOL    HW210595   2.245   0.725   4.987
 3517SOL     OW10596   3.123   0.379   5.009
 3517SOL    HW110597   3.160   0.458   5.058
 3517SOL    HW210598   3.028   0.398   4.984
 3518SOL     OW10599   1.936   1.572   5.077
 3518SOL    HW110600   1.901   1.643   5.016
 3518SOL    HW210601   2.036   1.570   5.071
 3519SOL     OW10602   2.205   1.117   4.211
 3519SOL    HW110603   2.211   1.199   4.154
 3519SOL    HW210604   2.203   1.036   4.153
 3520SOL     OW10605   2.415   0.547   4.585
 3520SOL    HW110606   2.429   0.606   4.506
 3520SOL    HW210607   2.485   0.566   4.654
 3521SOL     OW10608   3.108   1.354   4.116
 3521SOL    HW110609   3.169   1.427   4.147
 3521SOL    HW210610   3.015   1.374   4.146
 3522SOL     OW10611   3.149   1.461   4.871
 3522SOL    HW110612   3.207   1.467   4.952
 3522SOL    HW210613   3.094   1.378   4.876
 3523SOL     OW10614   3.435   0.623   4.208
 3523SOL    HW110615   3.387   0.678   4.277
 3523SOL    HW210616   3.487   0.683   4.148
 3524SOL     OW10617   2.210   1.529   5.034
 3524SOL    HW110618   2.194   1.485   4.946
 3524SOL    HW210619   2.308   1.543   5.047
 3525SOL     OW10620   2.280   0.744   5.325
 3525SOL    HW110621   2.342   0.793   5.264
 3525SOL    HW210622   2.319   0.654   5.348
 3526SOL     OW10623   3.469   0.785   5.409
 3526SOL    HW110624   3.378   0.826   5.406
 3526SOL    HW210625   3.526   0.825   5.337
 3527SOL     OW10626   2.859   0.135   5.459
 3527SOL    HW110627   2.901   0.183   5.382
 3527SOL    HW210628   2.863   0.037   5.445
 3528SOL     OW10629   2.326   0.039   5.482
 3528SOL    HW110630   2.262   6.966   5.456
 3528SOL    HW210631   2.276   0.125   5.492
 3529SOL     OW10632   2.446   0.873   4.757
 3529SOL    HW110633   2.482   0.966   4.755
 3529SOL    HW210634   2.386   0.862   4.837
 3530SOL     OW10635   3.215   0.858   4.749
 3530SOL    HW110636   3.124   0.850   4.708
 3530SOL    HW210637   3.262   0.770   4.741
 3531SOL     OW10638   3.061   0.527   3.988
 3531SOL    HW110639   3.073   0.444   4.043
 3531SOL    HW210640   3.016   0.597   4.044
 3532SOL     OW10641   2.173   0.209   4.972
 3532SOL    HW110642   2.109   0.219   5.048
 3532SOL    HW210643   2.160   0.119   4.930
 3533SOL     OW10644   1.914   1.310   5.000
 3533SOL    HW110645   1.946   1.249   5.072
 3533SOL    HW210646   1.917   1.405   5.032
 3534SOL     OW10647   2.591   0.636   4.779
 3534SOL    HW110648   2.665   0.615   4.716
 3534SOL    HW210649   2.554   0.726   4.758
 3535SOL     OW10650   3.597   0.960   5.579
 3535SOL    HW110651   3.554   0.892   5.520
 3535SOL    HW210652   3.538   0.979   5.657
 3536SOL     OW10653   2.182   0.060   4.353
 3536SOL    HW110654   2.160   0.154   4.380
 3536SOL    HW210655   2.141   6.996   4.418
 3537SOL     OW10656   3.488   0.392   4.070
 3537SOL    HW110657   3.518   0.314   4.125
 3537SOL    HW210658   3.457   0.466   4.130
 3538SOL     OW10659   2.887   0.756   4.682
 3538SOL    HW110660   2.882   0.778   4.780
 3538SOL    HW210661   2.859   0.662   4.668
 3539SOL     OW10662   2.843   1.563   5.441
 3539SOL    HW110663   2.827   1.611   5.355
 3539SOL    HW210664   2.891   1.477   5.423
 3540SOL     OW10665   3.717   1.504   5.328
 3540SOL    HW110666   3.735   1.530   5.233
 3540SOL    HW210667   3.800   1.516   5.382
 3541SOL     OW10668   2.215   0.918   5.528
 3541SOL    HW110669   2.295   0.940   5.584
 3541SOL    HW210670   2.241   0.852   5.458
 3542SOL     OW10671   3.401   0.235   3.859
 3542SOL    HW110672   3.302   0.229   3.869
 3542SOL    HW210673   3.438   0.293   3.931
 3543SOL     OW10674   3.151   0.826   3.751
 3543SOL    HW110675   3.191   0.735   3.758
 3543SOL    HW210676   3.182   0.869   3.666
 3544SOL     OW10677   2.931   1.337   4.578
 3544SOL    HW110678   2.935   1.259   4.516
 3544SOL    HW210679   2.991   1.410   4.544
 3545SOL     OW10680   2.173   0.809   4.667
 3545SOL    HW110681   2.269   0.835   4.661
 3545SOL    HW210682   2.166   0.714   4.698
 3546SOL     OW10683   2.197   0.539   4.736
 3546SOL    HW110684   2.154   0.449   4.724
 3546SOL    HW210685   2.278   0.545   4.677
 3547SOL     OW10686   2.987   0.410   5.396
 3547SOL    HW110687   2.939   0.452   5.472
 3547SOL    HW210688   3.085   0.430   5.403
 3548SOL     OW10689   2.999   0.224   5.209
 3548SOL    HW110690   2.998   0.298   5.275
 3548SOL    HW210691   3.055   0.250   5.130
 3549SOL     OW10692   1.863   1.316   3.919
 3549SOL    HW110693   1.773   1.335   3.879
 3549SOL    HW210694   1.864   1.222   3.954
 3550SOL     OW10695   1.955   1.784   4.667
 3550SOL    HW110696   1.919   1.703   4.622
 3550SOL    HW210697   2.049   1.801   4.635
 3551SOL     OW10698   2.356   1.576   4.629
 3551SOL    HW110699   2.426   1.642   4.656
 3551SOL    HW210700   2.397   1.508   4.567
 3552SOL     OW10701   2.838   0.795   4.948
 3552SOL    HW110702   2.897   0.769   5.025
 3552SOL    HW210703   2.748   0.752   4.960
 3553SOL     OW10704   1.897   0.550   4.844
 3553SOL    HW110705   1.975   0.531   4.784
 3553SOL    HW210706   1.928   0.551   4.939
 3554SOL     OW10707   2.047   0.529   5.453
 3554SOL    HW110708   2.126   0.496   5.400
 3554SOL    HW210709   2.007   0.607   5.406
 3555SOL     OW10710   3.242   0.936   5.379
 3555SOL    HW110711   3.265   1.033   5.380
 3555SOL    HW210712   3.239   0.904   5.285
 3556SOL     OW10713   2.679   0.576   4.084
 3556SOL    HW110714   2.689   0.495   4.026
 3556SOL    HW210715   2.600   0.629   4.053
 3557SOL     OW10716   3.504   0.605   4.905
 3557SOL    HW110717   3.485   0.545   4.982
 3557SOL    HW210718   3.595   0.586   4.869
 3558SOL     OW10719   2.102   1.547   5.450
 3558SOL    HW110720   2.080   1.622   5.514
 3558SOL    HW210721   2.108   1.461   5.501
 3559SOL     OW10722   2.569   0.461   4.980
 3559SOL    HW110723   2.514   0.381   4.953
 3559SOL    HW210724   2.569   0.528   4.906
 3560SOL     OW10725   2.782   1.681   5.195
 3560SOL    HW110726   2.757   1.635   5.110
 3560SOL    HW210727   2.783   1.780   5.181
 3561SOL     OW10728   2.322   0.496   3.903
 3561SOL    HW110729   2.386   0.567   3.930
 3561SOL    HW210730   2.231   0.535   3.892
 3562SOL     OW10731   2.004   1.137   5.199
 3562SOL    HW110732   2.006   1.092   5.288
 3562SOL    HW210733   2.024   1.071   5.127
 3563SOL     OW10734   3.179   1.044   4.943
 3563SOL    HW110735   3.206   0.976   4.875
 3563SOL    HW210736   3.110   1.105   4.903
 3564SOL     OW10737   3.177   0.856   4.024
 3564SOL    HW110738   3.100   0.829   4.082
 3564SOL    HW210739   3.152   0.844   3.928
 3565SOL     OW10740   3.641   1.731   4.880
 3565SOL    HW110741   3.702   1.765   4.809
 3565SOL    HW210742   3.610   1.639   4.856
 3566SOL     OW10743   3.103   1.733   4.830
 3566SOL    HW110744   3.189   1.761   4.787
 3566SOL    HW210745   3.109   1.636   4.853
 3567SOL     OW10746   1.947   1.265   4.735
 3567SOL    HW110747   1.932   1.280   4.833
 3567SOL    HW210748   1.875   1.207   4.698
 3568SOL     OW10749   2.542   1.673   5.459
 3568SOL    HW110750   2.480   1.751   5.454
 3568SOL    HW210751   2.615   1.684   5.391
 3569SOL     OW10752   3.569   0.164   4.194
 3569SOL    HW110753   3.654   0.148   4.144
 3569SOL    HW210754   3.566   0.106   4.275
 3570SOL     OW10755   3.257   1.570   4.211
 3570SOL    HW110756   3.320   1.602   4.140
 3570SOL    HW210757   3.202   1.647   4.244
 3571SOL     OW10758   2.007   1.787   5.570
 3571SOL    HW110759   1.949   1.719   5.615
 3571SOL    HW210760   2.056   1.841   5.638
 3572SOL     OW10761   3.144   0.928   4.390
 3572SOL    HW110762   3.219   0.864   4.407
 3572SOL    HW210763   3.177   1.005   4.336
 3573SOL     OW10764   2.667   1.278   5.151
 3573SOL    HW110765   2.638   1.321   5.236
 3573SOL    HW210766   2.598   1.294   5.080
 3574SOL     OW10767   2.531   1.621   3.878
 3574SOL    HW110768   2.547   1.639   3.781
 3574SOL    HW210769   2.473   1.540   3.888
 3575SOL     OW10770   3.480   1.728   5.111
 3575SOL    HW110771   3.537   1.730   5.029
 3575SOL    HW210772   3.465   1.822   5.143
 3576SOL     OW10773   3.728   0.162   4.679
 3576SOL    HW110774   3.726   0.063   4.668
 3576SOL    HW210775   3.637   0.199   4.663
 3577SOL     OW10776   2.122   0.313   4.440
 3577SOL    HW110777   2.033   0.350   4.413
 3577SOL    HW210778   2.128   0.311   4.539
 3578SOL     OW10779   3.070   1.601   3.757
 3578SOL    HW110780   3.061   1.507   3.790
 3578SOL    HW210781   3.004   1.618   3.684
 3579SOL     OW10782   2.685   1.010   5.102
 3579SOL    HW110783   2.736   0.993   5.017
 3579SOL    HW210784   2.683   1.108   5.121
 3580SOL     OW10785   2.782   0.911   4.011
 3580SOL    HW110786   2.843   0.946   3.940
 3580SOL    HW210787   2.828   0.839   4.063
 3581SOL     OW10788   3.351   1.629   3.766
 3581SOL    HW110789   3.252   1.618   3.755
 3581SOL    HW210790   3.394   1.634   3.676
 3582SOL     OW10791   2.228   1.303   5.211
 3582SOL    HW110792   2.218   1.383   5.152
 3582SOL    HW210793   2.148   1.244   5.200
 3583SOL     OW10794   3.476   1.284   5.008
 3583SOL    HW110795   3.539   1.265   5.083
 3583SOL    HW210796   3.410   1.354   5.036
 3584SOL     OW10797   2.922   1.106   4.438
 3584SOL    HW110798   2.846   1.056   4.478
 3584SOL    HW210799   2.990   1.042   4.404
 3585SOL     OW10800   2.886   0.249   4.675
 3585SOL    HW110801   2.864   0.202   4.589
 3585SOL    HW210802   2.877   0.185   4.751
 3586SOL     OW10803   2.466   1.486   4.204
 3586SOL    HW110804   2.517   1.432   4.137
 3586SOL    HW210805   2.393   1.536   4.158
 3587SOL     OW10806   3.594   0.392   5.099
 3587SOL    HW110807   3.663   0.465   5.105
 3587SOL    HW210808   3.631   0.315   5.047
 3588SOL     OW10809   2.115   1.348   4.012
 3588SOL    HW110810   2.019   1.341   3.985
 3588SOL    HW210811   2.121   1.386   4.104
 3589SOL     OW10812   1.976   1.033   5.451
 3589SOL    HW110813   1.895   1.006   5.502
 3589SOL    HW210814   2.057   0.988   5.490
 3590SOL     OW10815   2.531   0.236   5.231
 3590SOL    HW110816   2.612   0.209   5.179
 3590SOL    HW210817   2.559   0.269   5.322
 3591SOL     OW10818   1.937   0.334   3.758
 3591SOL    HW110819   1.842   0.311   3.741
 3591SOL    HW210820   1.963   0.414   3.703
 3592SOL     OW10821   3.287   0.858   5.120
 3592SOL    HW110822   3.231   0.921   5.066
 3592SOL    HW210823   3.381   0.859   5.086
 3593SOL     OW10824   1.935   0.179   4.042
 3593SOL    HW110825   1.937   0.249   3.971
 3593SOL    HW210826   1.988   0.099   4.012
 3594SOL     OW10827   3.042   1.338   3.844
 3594SOL    HW110828   2.947   1.308   3.838
 3594SOL    HW210829   3.070   1.339   3.940
 3595SOL     OW10830   2.485   0.830   5.157
 3595SOL    HW110831   2.542   0.911   5.142
 3595SOL    HW210832   2.544   0.750   5.168
 3596SOL     OW10833   3.347   1.787   4.711
 3596SOL    HW110834   3.368   1.848   4.635
 3596SOL    HW210835   3.432   1.754   4.752
 3597SOL     OW10836   2.582   0.559   5.430
 3597SOL    HW110837   2.626   0.630   5.486
 3597SOL    HW210838   2.604   0.469   5.468
 3598SOL     OW10839   3.335   1.197   5.359
 3598SOL    HW110840   3.320   1.210   5.457
 3598SOL    HW210841   3.431   1.215   5.337
 3599SOL     OW10842   2.234   1.738   5.290
 3599SOL    HW110843   2.150   1.790   5.276
 3599SOL    HW210844   2.213   1.650   5.333
 3600SOL     OW10845   3.528   0.879   4.980
 3600SOL    HW110846   3.523   0.788   4.939
 3600SOL    HW210847   3.516   0.948   4.909
 3601SOL     OW10848   3.086   0.318   4.181
 3601SOL    HW110849   3.156   0.247   4.173
 3601SOL    HW210850   3.105   0.375   4.260
 3602SOL     OW10851   2.450   0.738   4.391
 3602SOL    HW110852   2.490   0.829   4.380
 3602SOL    HW210853   2.380   0.724   4.321
 3603SOL     OW10854   3.612   0.369   5.372
 3603SOL    HW110855   3.603   0.384   5.273
 3603SOL    HW210856   3.540   0.308   5.403
 3604SOL     OW10857   3.614   0.932   5.234
 3604SOL    HW110858   3.602   1.029   5.255
 3604SOL    HW210859   3.593   0.917   5.137
 3605SOL     OW10860   2.728   1.364   3.766
 3605SOL    HW110861   2.687   1.388   3.854
 3605SOL    HW210862   2.744   1.447   3.713
 3606SOL     OW10863   2.526   1.786   4.667
 3606SOL    HW110864   2.503   1.881   4.645
 3606SOL    HW210865   2.625   1.773   4.655
 3607SOL     OW10866   2.731   0.970   4.580
 3607SOL    HW110867   2.782   0.893   4.617
 3607SOL    HW210868   2.689   1.021   4.655
 3608SOL     OW10869   2.940   0.989   3.808
 3608SOL    HW110870   2.912   1.043   3.728
 3608SOL    HW210871   3.018   0.931   3.784
 3609SOL     OW10872   3.709   1.556   4.571
 3609SOL    HW110873   3.632   1.544   4.508
 3609SOL    HW210874   3.704   1.487   4.643
 3610SOL     OW10875   2.093   1.299   5.581
 3610SOL    HW110876   2.026   1.233   5.547
 3610SOL    HW210877   2.078   1.313   5.679
 3611SOL     OW10878   1.949   1.230   4.387
 3611SOL    HW110879   1.953   1.184   4.476
 3611SOL    HW210880   2.017   1.190   4.326
 3612SOL     OW10881   2.544   1.408   5.357
 3612SOL    HW110882   2.463   1.359   5.389
 3612SOL    HW210883   2.542   1.501   5.394
 3613SOL     OW10884   3.714   0.183   4.971
 3613SOL    HW110885   3.636   0.121   4.969
 3613SOL    HW210886   3.739   0.209   4.877
 3614SOL     OW10887   2.293   0.427   4.248
 3614SOL    HW110888   2.327   0.356   4.187
 3614SOL    HW210889   2.239   0.384   4.321
 3615SOL     OW10890   3.556   1.483   4.818
 3615SOL    HW110891   3.474   1.465   4.763
 3615SOL    HW210892   3.565   1.412   4.888
 3616SOL     OW10893   2.196   0.558   5.012
 3616SOL    HW110894   2.253   0.501   5.071
 3616SOL    HW210895   2.213   0.535   4.916
 3617SOL     OW10896   2.690   1.580   4.403
 3617SOL    HW110897   2.678   1.640   4.324
 3617SOL    HW210898   2.613   1.516   4.409
 3618SOL     OW10899   3.274   0.215   4.854
 3618SOL    HW110900   3.357   0.173   4.891
 3618SOL    HW210901   3.227   0.264   4.926
 3619SOL     OW10902   2.840   0.055   4.860
 3619SOL    HW110903   2.782   6.990   4.811
 3619SOL    HW210904   2.896   0.005   4.926
 3620SOL     OW10905   2.636   1.332   4.044
 3620SOL    HW110906   2.608   1.236   4.052
 3620SOL    HW210907   2.721   1.345   4.095
 3621SOL     OW10908   2.485   1.559   5.013
 3621SOL    HW110909   2.483   1.646   5.063
 3621SOL    HW210910   2.576   1.546   4.973
 3622SOL     OW10911   3.186   0.017   3.915
 3622SOL    HW110912   3.233   6.951   3.857
 3622SOL    HW210913   3.109   6.972   3.962
 3623SOL     OW10914   3.132   0.454   4.411
 3623SOL    HW110915   3.087   0.543   4.408
 3623SOL    HW210916   3.150   0.429   4.506
 3624SOL     OW10917   3.480   0.258   4.639
 3624SOL    HW110918   3.391   0.236   4.679
 3624SOL    HW210919   3.468   0.321   4.563
 3625SOL     OW10920   1.905   1.065   4.031
 3625SOL    HW110921   2.003   1.064   4.012
 3625SOL    HW210922   1.875   0.972   4.054
 3626SOL     OW10923   2.746   1.661   4.065
 3626SOL    HW110924   2.671   1.640   4.002
 3626SOL    HW210925   2.720   1.739   4.122
 3627SOL     OW10926   2.083   0.620   5.713
 3627SOL    HW110927   1.994   0.619   5.757
 3627SOL    HW210928   2.072   0.599   5.616
 3628SOL     OW10929   2.079   0.307   6.586
 3628SOL    HW110930   2.120   0.264   6.666
 3628SOL    HW210931   1.998   0.254   6.558
 3629SOL     OW10932   1.871   0.394   6.214
 3629SOL    HW110933   1.783   0.414   6.255
 3629SOL    HW210934   1.862   0.320   6.147
 3630SOL     OW10935   2.420   1.284   6.758
 3630SOL    HW110936   2.331   1.299   6.714
 3630SOL    HW210937   2.449   1.367   6.805
 3631SOL     OW10938   3.425   1.512   6.294
 3631SOL    HW110939   3.381   1.490   6.380
 3631SOL    HW210940   3.356   1.520   6.222
 3632SOL     OW10941   2.995   0.702   6.282
 3632SOL    HW110942   3.047   0.786   6.266
 3632SOL    HW210943   2.943   0.710   6.367
 3633SOL     OW10944   3.630   0.602   5.809
 3633SOL    HW110945   3.608   0.598   5.711
 3633SOL    HW210946   3.592   0.522   5.854
 3634SOL     OW10947   2.620   1.144   6.629
 3634SOL    HW110948   2.546   1.170   6.691
 3634SOL    HW210949   2.652   1.225   6.580
 3635SOL     OW10950   2.546   1.000   6.235
 3635SOL    HW110951   2.616   0.989   6.305
 3635SOL    HW210952   2.471   1.055   6.272
 3636SOL     OW10953   2.192   1.413   6.645
 3636SOL    HW110954   2.111   1.374   6.601
 3636SOL    HW210955   2.240   1.471   6.580
 3637SOL     OW10956   3.479   0.459   6.313
 3637SOL    HW110957   3.415   0.487   6.241
 3637SOL    HW210958   3.483   0.530   6.383
 3638SOL     OW10959   2.084   1.714   6.058
 3638SOL    HW110960   2.102   1.793   6.116
 3638SOL    HW210961   2.158   1.704   5.992
 3639SOL     OW10962   2.095   1.443   6.122
 3639SOL    HW110963   2.078   1.541   6.122
 3639SOL    HW210964   2.035   1.399   6.189
 3640SOL     OW10965   2.129   1.091   6.488
 3640SOL    HW110966   2.125   0.997   6.522
 3640SOL    HW210967   2.068   1.149   6.543
 3641SOL     OW10968   2.472   1.805   6.988
 3641SOL    HW110969   2.383   1.778   0.025
 3641SOL    HW210970   2.497   1.896   0.022
 3642SOL     OW10971   2.444   0.987   5.726
 3642SOL    HW110972   2.492   1.034   5.652
 3642SOL    HW210973   2.484   1.015   5.814
 3643SOL     OW10974   1.976   0.661   6.150
 3643SOL    HW110975   1.949   0.566   6.167
 3643SOL    HW210976   1.970   0.713   6.235
 3644SOL     OW10977   3.707   1.756   5.919
 3644SOL    HW110978   3.777   1.725   5.984
 3644SOL    HW210979   3.724   1.852   5.896
 3645SOL     OW10980   1.891   1.591   5.710
 3645SOL    HW110981   1.875   1.494   5.729
 3645SOL    HW210982   1.870   1.645   5.791
 3646SOL     OW10983   3.552   0.919   6.231
 3646SOL    HW110984   3.637   0.870   6.216
 3646SOL    HW210985   3.530   0.973   6.150
 3647SOL     OW10986   3.514   1.105   6.018
 3647SOL    HW110987   3.603   1.103   5.972
 3647SOL    HW210988   3.517   1.172   6.092
 3648SOL     OW10989   2.473   1.389   6.320
 3648SOL    HW110990   2.427   1.302   6.333
 3648SOL    HW210991   2.460   1.420   6.225
 3649SOL     OW10992   2.685   0.027   6.104
 3649SOL    HW110993   2.724   0.117   6.085
 3649SOL    HW210994   2.585   0.034   6.107
 3650SOL     OW10995   2.057   0.975   6.840
 3650SOL    HW110996   2.139   0.920   6.828
 3650SOL    HW210997   1.976   0.920   6.823
 3651SOL     OW10998   3.394   0.999   5.790
 3651SOL    HW110999   3.320   0.939   5.820
 3651SOL    HW211000   3.441   1.037   5.870
 3652SOL     OW11001   3.315   1.423   6.532
 3652SOL    HW111002   3.256   1.437   6.612
 3652SOL    HW211003   3.312   1.327   6.505
 3653SOL     OW11004   3.512   1.748   6.162
 3653SOL    HW111005   3.494   1.718   6.068
 3653SOL    HW211006   3.492   1.673   6.225
 3654SOL     OW11007   2.455   0.719   5.857
 3654SOL    HW111008   2.461   0.805   5.806
 3654SOL    HW211009   2.387   0.728   5.929
 3655SOL     OW11010   3.144   0.364   6.537
 3655SOL    HW111011   3.047   0.340   6.538
 3655SOL    HW211012   3.192   0.313   6.609
 3656SOL     OW11013   3.445   1.672   5.894
 3656SOL    HW111014   3.541   1.700   5.890
 3656SOL    HW211015   3.413   1.655   5.801
 3657SOL     OW11016   2.659   0.620   0.042
 3657SOL    HW111017   2.599   0.652   0.116
 3657SOL    HW211018   2.607   0.561   6.980
 3658SOL     OW11019   2.866   0.389   6.795
 3658SOL    HW111020   2.814   0.447   6.859
 3658SOL    HW211021   2.804   0.351   6.726
 3659SOL     OW11022   2.913   0.698   6.011
 3659SOL    HW111023   2.934   0.693   6.109
 3659SOL    HW211024   2.826   0.652   5.993
 3660SOL     OW11025   1.951   0.827   6.366
 3660SOL    HW111026   2.037   0.815   6.416
 3660SOL    HW211027   1.902   0.907   6.402
 3661SOL     OW11028   2.004   1.829   0.138
 3661SOL    HW111029   1.947   1.790   0.211
 3661SOL    HW211030   1.946   1.851   0.059
 3662SOL     OW11031   2.752   0.355   5.786
 3662SOL    HW111032   2.798   0.416   5.721
 3662SOL    HW211033   2.729   0.269   5.741
 3663SOL     OW11034   3.241   1.142   6.120
 3663SOL    HW111035   3.326   1.127   6.069
 3663SOL    HW211036   3.185   1.210   6.071
 3664SOL     OW11037   2.368   0.198   6.499
 3664SOL    HW111038   2.413   0.241   6.577
 3664SOL    HW211039   2.388   0.251   6.416
 3665SOL     OW11040   2.858   1.443   6.050
 3665SOL    HW111041   2.825   1.523   6.000
 3665SOL    HW211042   2.842   1.456   6.148
 3666SOL     OW11043   2.218   1.814   6.455
 3666SOL    HW111044   2.261   1.724   6.462
 3666SOL    HW211045   2.285   1.886   6.473
 3667SOL     OW11046   3.663   1.057   6.452
 3667SOL    HW111047   3.611   1.034   6.369
 3667SOL    HW211048   3.601   1.058   6.531
 3668SOL     OW11049   2.184   0.959   5.840
 3668SOL    HW111050   2.272   0.979   5.796
 3668SOL    HW211051   2.147   0.873   5.802
 3669SOL     OW11052   3.344   0.748   6.309
 3669SOL    HW111053   3.337   0.704   6.398
 3669SOL    HW211054   3.424   0.809   6.308
 3670SOL     OW11055   2.983   1.776   5.813
 3670SOL    HW111056   2.904   1.738   5.861
 3670SOL    HW211057   3.013   1.712   5.742
 3671SOL     OW11058   3.487   1.381   5.674
 3671SOL    HW111059   3.448   1.472   5.658
 3671SOL    HW211060   3.417   1.312   5.655
 3672SOL     OW11061   2.327   1.735   5.905
 3672SOL    HW111062   2.368   1.797   5.971
 3672SOL    HW211063   2.398   1.699   5.844
 3673SOL     OW11064   3.287   0.131   6.011
 3673SOL    HW111065   3.266   0.088   5.924
 3673SOL    HW211066   3.386   0.137   6.023
 3674SOL     OW11067   2.124   1.796   6.814
 3674SOL    HW111068   2.168   1.728   6.872
 3674SOL    HW211069   2.105   1.757   6.724
 3675SOL     OW11070   2.798   1.700   6.482
 3675SOL    HW111071   2.883   1.655   6.508
 3675SOL    HW211072   2.755   1.649   6.407
 3676SOL     OW11073   2.257   0.687   6.061
 3676SOL    HW111074   2.278   0.590   6.074
 3676SOL    HW211075   2.160   0.703   6.079
 3677SOL     OW11076   2.506   0.112   5.688
 3677SOL    HW111077   2.545   0.037   5.742
 3677SOL    HW211078   2.444   0.074   5.619
 3678SOL     OW11079   2.726   1.518   6.764
 3678SOL    HW111080   2.710   1.485   6.671
 3678SOL    HW211081   2.768   1.446   6.818
 3679SOL     OW11082   2.680   1.390   6.520
 3679SOL    HW111083   2.770   1.379   6.478
 3679SOL    HW211084   2.610   1.394   6.449
 3680SOL     OW11085   2.790   0.510   6.483
 3680SOL    HW111086   2.761   0.505   6.387
 3680SOL    HW211087   2.827   0.421   6.511
 3681SOL     OW11088   2.417   0.066   6.082
 3681SOL    HW111089   2.335   0.056   6.138
 3681SOL    HW211090   2.404   0.142   6.018
 3682SOL     OW11091   3.288   1.198   5.629
 3682SOL    HW111092   3.321   1.121   5.682
 3682SOL    HW211093   3.199   1.227   5.665
 3683SOL     OW11094   2.172   0.048   5.773
 3683SOL    HW111095   2.213   0.139   5.767
 3683SOL    HW211096   2.227   6.990   5.834
 3684SOL     OW11097   2.810   0.265   6.043
 3684SOL    HW111098   2.780   0.301   5.955
 3684SOL    HW211099   2.909   0.272   6.050
 3685SOL     OW11100   3.080   1.571   6.382
 3685SOL    HW111101   3.095   1.641   6.312
 3685SOL    HW211102   3.159   1.569   6.444
 3686SOL     OW11103   2.330   1.151   6.316
 3686SOL    HW111104   2.262   1.131   6.387
 3686SOL    HW211105   2.288   1.137   6.226
 3687SOL     OW11106   3.125   1.792   6.196
 3687SOL    HW111107   3.177   1.854   6.137
 3687SOL    HW211108   3.052   1.843   6.241
 3688SOL     OW11109   2.880   0.537   5.618
 3688SOL    HW111110   2.836   0.624   5.594
 3688SOL    HW211111   2.951   0.553   5.685
 3689SOL     OW11112   2.439   0.221   6.775
 3689SOL    HW111113   2.459   0.128   6.744
 3689SOL    HW211114   2.342   0.228   6.797
 3690SOL     OW11115   2.727   0.466   6.222
 3690SOL    HW111116   2.677   0.525   6.159
 3690SOL    HW211117   2.755   0.382   6.175
 3691SOL     OW11118   2.818   0.032   6.349
 3691SOL    HW111119   2.764   0.028   6.266
 3691SOL    HW211120   2.888   6.960   6.348
 3692SOL     OW11121   3.302   1.161   6.442
 3692SOL    HW111122   3.232   1.089   6.444
 3692SOL    HW211123   3.333   1.174   6.348
 3693SOL     OW11124   3.326   0.605   6.552
 3693SOL    HW111125   3.267   0.525   6.558
 3693SOL    HW211126   3.392   0.603   6.627
 3694SOL     OW11127   3.705   0.810   5.966
 3694SOL    HW111128   3.762   0.762   6.032
 3694SOL    HW211129   3.675   0.746   5.895
 3695SOL     OW11130   2.349   1.420   5.742
 3695SOL    HW111131   2.269   1.393   5.795
 3695SOL    HW211132   2.346   1.376   5.652
 3696SOL     OW11133   3.536   1.267   6.230
 3696SOL    HW111134   3.635   1.264   6.242
 3696SOL    HW211135   3.502   1.359   6.251
 3697SOL     OW11136   3.253   0.575   5.657
 3697SOL    HW111137   3.190   0.552   5.731
 3697SOL    HW211138   3.347   0.559   5.688
 3698SOL     OW11139   2.385   0.263   5.890
 3698SOL    HW111140   2.442   0.214   5.824
 3698SOL    HW211141   2.361   0.353   5.853
 3699SOL     OW11142   3.619   1.180   0.172
 3699SOL    HW111143   3.717   1.165   0.157
 3699SOL    HW211144   3.595   1.273   0.146
 3700SOL     OW11145   2.981   1.236   6.695
 3700SOL    HW111146   2.897   1.198   6.733
 3700SOL    HW211147   2.967   1.260   6.599
 3701SOL     OW11148   3.482   1.084   6.650
 3701SOL    HW111149   3.483   1.155   6.721
 3701SOL    HW211150   3.407   1.102   6.587
 3702SOL     OW11151   2.574   1.059   5.959
 3702SOL    HW111152   2.557   1.042   6.056
 3702SOL    HW211153   2.653   1.005   5.929
 3703SOL     OW11154   2.287   0.813   6.846
 3703SOL    HW111155   2.345   0.837   6.924
 3703SOL    HW211156   2.250   0.721   6.860
 3704SOL     OW11157   3.126   0.385   6.871
 3704SOL    HW111158   3.155   0.463   6.926
 3704SOL    HW211159   3.033   0.402   6.837
 3705SOL     OW11160   1.931   1.579   6.937
 3705SOL    HW111161   1.897   1.648   6.873
 3705SOL    HW211162   2.031   1.571   6.927
 3706SOL     OW11163   2.206   1.117   6.073
 3706SOL    HW111164   2.211   1.199   6.016
 3706SOL    HW211165   2.204   1.036   6.015
 3707SOL     OW11166   2.413   0.547   6.447
 3707SOL    HW111167   2.427   0.605   6.367
 3707SOL    HW211168   2.484   0.567   6.515
 3708SOL     OW11169   3.108   1.354   5.978
 3708SOL    HW111170   3.169   1.427   6.009
 3708SOL    HW211171   3.015   1.374   6.008
 3709SOL     OW11172   3.143   1.450   6.747
 3709SOL    HW111173   3.178   1.440   6.839
 3709SOL    HW211174   3.082   1.374   6.726
 3710SOL     OW11175   3.434   0.624   6.068
 3710SOL    HW111176   3.388   0.678   6.138
 3710SOL    HW211177   3.487   0.685   6.009
 3711SOL     OW11178   2.205   1.529   6.885
 3711SOL    HW111179   2.188   1.475   6.802
 3711SOL    HW211180   2.303   1.544   6.896
 3712SOL     OW11181   2.447   0.870   6.623
 3712SOL    HW111182   2.479   0.965   6.617
 3712SOL    HW211183   2.386   0.860   6.702
 3713SOL     OW11184   3.210   0.856   6.596
 3713SOL    HW111185   3.120   0.842   6.556
 3713SOL    HW211186   3.262   0.771   6.594
 3714SOL     OW11187   3.061   0.527   5.850
 3714SOL    HW111188   3.073   0.444   5.905
 3714SOL    HW211189   3.016   0.597   5.906
 3715SOL     OW11190   2.174   0.210   6.835
 3715SOL    HW111191   2.115   0.212   6.916
 3715SOL    HW211192   2.170   0.119   6.793
 3716SOL     OW11193   1.900   1.314   6.869
 3716SOL    HW111194   1.943   1.254   6.936
 3716SOL    HW211195   1.908   1.409   6.900
 3717SOL     OW11196   2.588   0.629   6.641
 3717SOL    HW111197   2.666   0.609   6.581
 3717SOL    HW211198   2.555   0.722   6.624
 3718SOL     OW11199   2.183   0.060   6.218
 3718SOL    HW111200   2.159   0.153   6.244
 3718SOL    HW211201   2.131   6.995   6.274
 3719SOL     OW11202   3.488   0.392   5.931
 3719SOL    HW111203   3.517   0.314   5.987
 3719SOL    HW211204   3.457   0.466   5.991
 3720SOL     OW11205   2.885   0.757   6.550
 3720SOL    HW111206   2.879   0.778   6.648
 3720SOL    HW211207   2.859   0.662   6.534
 3721SOL     OW11208   3.401   0.235   5.721
 3721SOL    HW111209   3.302   0.229   5.731
 3721SOL    HW211210   3.439   0.294   5.793
 3722SOL     OW11211   3.151   0.826   5.613
 3722SOL    HW111212   3.191   0.735   5.620
 3722SOL    HW211213   3.182   0.869   5.528
 3723SOL     OW11214   2.933   1.337   6.439
 3723SOL    HW111215   2.936   1.259   6.376
 3723SOL    HW211216   2.991   1.410   6.404
 3724SOL     OW11217   2.175   0.807   6.528
 3724SOL    HW111218   2.271   0.834   6.521
 3724SOL    HW211219   2.169   0.713   6.560
 3725SOL     OW11220   2.201   0.539   6.607
 3725SOL    HW111221   2.156   0.451   6.592
 3725SOL    HW211222   2.280   0.546   6.546
 3726SOL     OW11223   2.993   0.222   0.064
 3726SOL    HW111224   3.021   0.285   0.137
 3726SOL    HW211225   3.026   0.257   6.976
 3727SOL     OW11226   1.863   1.316   5.781
 3727SOL    HW111227   1.773   1.335   5.741
 3727SOL    HW211228   1.864   1.222   5.816
 3728SOL     OW11229   1.954   1.787   6.526
 3728SOL    HW111230   1.918   1.705   6.482
 3728SOL    HW211231   2.049   1.802   6.496
 3729SOL     OW11232   2.356   1.578   6.490
 3729SOL    HW111233   2.426   1.643   6.518
 3729SOL    HW211234   2.397   1.509   6.429
 3730SOL     OW11235   2.842   0.796   6.823
 3730SOL    HW111236   2.920   0.773   6.881
 3730SOL    HW211237   2.760   0.753   6.859
 3731SOL     OW11238   1.911   0.556   6.712
 3731SOL    HW111239   1.961   0.509   6.639
 3731SOL    HW211240   1.976   0.588   6.782
 3732SOL     OW11241   2.679   0.576   5.946
 3732SOL    HW111242   2.689   0.495   5.888
 3732SOL    HW211243   2.600   0.629   5.916
 3733SOL     OW11244   3.509   0.611   6.752
 3733SOL    HW111245   3.494   0.553   6.832
 3733SOL    HW211246   3.604   0.601   6.721
 3734SOL     OW11247   2.539   0.467   6.853
 3734SOL    HW111248   2.507   0.377   6.823
 3734SOL    HW211249   2.552   0.526   6.772
 3735SOL     OW11250   2.804   1.662   6.998
 3735SOL    HW111251   2.770   1.653   6.905
 3735SOL    HW211252   2.786   1.755   0.031
 3736SOL     OW11253   2.322   0.496   5.766
 3736SOL    HW111254   2.386   0.567   5.792
 3736SOL    HW211255   2.231   0.535   5.755
 3737SOL     OW11256   2.019   1.143   0.049
 3737SOL    HW111257   2.066   1.103   0.127
 3737SOL    HW211258   2.032   1.084   6.969
 3738SOL     OW11259   3.149   1.008   6.813
 3738SOL    HW111260   3.187   0.956   6.737
 3738SOL    HW211261   3.120   1.098   6.781
 3739SOL     OW11262   3.177   0.856   5.886
 3739SOL    HW111263   3.100   0.829   5.944
 3739SOL    HW211264   3.152   0.844   5.790
 3740SOL     OW11265   3.619   1.758   6.726
 3740SOL    HW111266   3.693   1.781   6.662
 3740SOL    HW211267   3.596   1.661   6.716
 3741SOL     OW11268   3.109   1.726   6.700
 3741SOL    HW111269   3.193   1.755   6.653
 3741SOL    HW211270   3.114   1.628   6.718
 3742SOL     OW11271   1.944   1.270   6.600
 3742SOL    HW111272   1.928   1.282   6.698
 3742SOL    HW211273   1.875   1.208   6.563
 3743SOL     OW11274   3.569   0.165   6.056
 3743SOL    HW111275   3.654   0.148   6.007
 3743SOL    HW211276   3.565   0.106   6.137
 3744SOL     OW11277   3.257   1.570   6.073
 3744SOL    HW111278   3.320   1.602   6.002
 3744SOL    HW211279   3.202   1.648   6.106
 3745SOL     OW11280   3.144   0.928   6.253
 3745SOL    HW111281   3.218   0.863   6.269
 3745SOL    HW211282   3.177   1.004   6.198
 3746SOL     OW11283   2.531   1.621   5.740
 3746SOL    HW111284   2.547   1.639   5.643
 3746SOL    HW211285   2.472   1.540   5.750
 3747SOL     OW11286   3.728   0.164   6.532
 3747SOL    HW111287   3.724   0.064   6.528
 3747SOL    HW211288   3.636   0.201   6.519
 3748SOL     OW11289   2.121   0.314   6.303
 3748SOL    HW111290   2.032   0.349   6.274
 3748SOL    HW211291   2.126   0.313   6.403
 3749SOL     OW11292   3.070   1.601   5.619
 3749SOL    HW111293   3.061   1.507   5.652
 3749SOL    HW211294   3.004   1.618   5.546
 3750SOL     OW11295   2.640   1.027   6.951
 3750SOL    HW111296   2.698   0.985   6.882
 3750SOL    HW211297   2.686   1.107   6.989
 3751SOL     OW11298   2.782   0.911   5.873
 3751SOL    HW111299   2.843   0.946   5.803
 3751SOL    HW211300   2.828   0.839   5.925
 3752SOL     OW11301   3.351   1.629   5.628
 3752SOL    HW111302   3.252   1.618   5.617
 3752SOL    HW211303   3.394   1.635   5.538
 3753SOL     OW11304   3.477   1.279   6.835
 3753SOL    HW111305   3.567   1.280   6.879
 3753SOL    HW211306   3.408   1.257   6.903
 3754SOL     OW11307   2.922   1.106   6.300
 3754SOL    HW111308   2.845   1.055   6.339
 3754SOL    HW211309   2.990   1.042   6.266
 3755SOL     OW11310   2.887   0.246   6.524
 3755SOL    HW111311   2.860   0.196   6.442
 3755SOL    HW211312   2.885   0.185   6.603
 3756SOL     OW11313   2.467   1.486   6.066
 3756SOL    HW111314   2.518   1.432   5.999
 3756SOL    HW211315   2.393   1.535   6.020
 3757SOL     OW11316   3.562   0.429   6.947
 3757SOL    HW111317   3.628   0.439   0.021
 3757SOL    HW211318   3.577   0.342   6.900
 3758SOL     OW11319   2.115   1.348   5.874
 3758SOL    HW111320   2.019   1.341   5.847
 3758SOL    HW211321   2.121   1.386   5.967
 3759SOL     OW11322   1.937   0.334   5.620
 3759SOL    HW111323   1.841   0.312   5.603
 3759SOL    HW211324   1.963   0.414   5.565
 3760SOL     OW11325   1.936   0.178   5.905
 3760SOL    HW111326   1.936   0.249   5.834
 3760SOL    HW211327   1.989   0.099   5.874
 3761SOL     OW11328   3.042   1.338   5.706
 3761SOL    HW111329   2.947   1.308   5.700
 3761SOL    HW211330   3.070   1.339   5.802
 3762SOL     OW11331   3.352   1.783   6.577
 3762SOL    HW111332   3.366   1.844   6.500
 3762SOL    HW211333   3.441   1.763   6.620
 3763SOL     OW11334   3.355   1.292   0.283
 3763SOL    HW111335   3.263   1.285   0.322
 3763SOL    HW211336   3.389   1.201   0.260
 3764SOL     OW11337   2.247   1.728   0.100
 3764SOL    HW111338   2.158   1.771   0.115
 3764SOL    HW211339   2.247   1.636   0.138
 3765SOL     OW11340   3.559   0.879   6.830
 3765SOL    HW111341   3.527   0.788   6.800
 3765SOL    HW211342   3.525   0.948   6.766
 3766SOL     OW11343   3.086   0.318   6.043
 3766SOL    HW111344   3.156   0.246   6.035
 3766SOL    HW211345   3.106   0.375   6.123
 3767SOL     OW11346   2.449   0.738   6.253
 3767SOL    HW111347   2.490   0.829   6.242
 3767SOL    HW211348   2.379   0.724   6.183
 3768SOL     OW11349   3.631   0.906   0.093
 3768SOL    HW111350   3.619   1.002   0.120
 3768SOL    HW211351   3.605   0.895   6.997
 3769SOL     OW11352   2.728   1.364   5.628
 3769SOL    HW111353   2.687   1.389   5.716
 3769SOL    HW211354   2.744   1.447   5.574
 3770SOL     OW11355   2.528   1.786   6.533
 3770SOL    HW111356   2.504   1.880   6.507
 3770SOL    HW211357   2.626   1.772   6.520
 3771SOL     OW11358   2.731   0.970   6.443
 3771SOL    HW111359   2.780   0.891   6.480
 3771SOL    HW211360   2.691   1.023   6.518
 3772SOL     OW11361   2.940   0.989   5.670
 3772SOL    HW111362   2.912   1.043   5.590
 3772SOL    HW211363   3.018   0.931   5.646
 3773SOL     OW11364   3.712   1.558   6.432
 3773SOL    HW111365   3.633   1.544   6.373
 3773SOL    HW211366   3.708   1.494   6.509
 3774SOL     OW11367   1.949   1.231   6.250
 3774SOL    HW111368   1.947   1.182   6.337
 3774SOL    HW211369   2.018   1.190   6.190
 3775SOL     OW11370   3.713   0.189   6.849
 3775SOL    HW111371   3.642   0.120   6.865
 3775SOL    HW211372   3.719   0.208   6.751
 3776SOL     OW11373   2.293   0.426   6.111
 3776SOL    HW111374   2.327   0.356   6.049
 3776SOL    HW211375   2.238   0.384   6.183
 3777SOL     OW11376   3.540   1.503   6.677
 3777SOL    HW111377   3.464   1.482   6.617
 3777SOL    HW211378   3.553   1.429   6.743
 3778SOL     OW11379   2.175   0.550   6.879
 3778SOL    HW111380   2.244   0.496   6.928
 3778SOL    HW211381   2.189   0.542   6.781
 3779SOL     OW11382   2.690   1.579   6.263
 3779SOL    HW111383   2.679   1.641   6.185
 3779SOL    HW211384   2.612   1.517   6.268
 3780SOL     OW11385   3.272   0.213   6.721
 3780SOL    HW111386   3.361   0.181   6.753
 3780SOL    HW211387   3.229   0.268   6.792
 3781SOL     OW11388   2.858   0.050   6.709
 3781SOL    HW111389   2.775   6.996   6.695
 3781SOL    HW211390   2.903   0.020   6.794
 3782SOL     OW11391   2.636   1.332   5.906
 3782SOL    HW111392   2.607   1.236   5.914
 3782SOL    HW211393   2.721   1.345   5.957
 3783SOL     OW11394   2.479   1.561   6.868
 3783SOL    HW111395   2.476   1.657   6.898
 3783SOL    HW211396   2.567   1.544   6.823
 3784SOL     OW11397   3.186   0.017   5.777
 3784SOL    HW111398   3.233   6.950   5.719
 3784SOL    HW211399   3.110   6.972   5.824
 3785SOL     OW11400   3.132   0.454   6.274
 3785SOL    HW111401   3.087   0.543   6.272
 3785SOL    HW211402   3.150   0.428   6.369
 3786SOL     OW11403   3.478   0.261   6.498
 3786SOL    HW111404   3.387   0.236   6.532
 3786SOL    HW211405   3.469   0.324   6.421
 3787SOL     OW11406   1.905   1.065   5.893
 3787SOL    HW111407   2.003   1.064   5.874
 3787SOL    HW211408   1.875   0.972   5.916
 3788SOL     OW11409   2.746   1.661   5.927
 3788SOL    HW111410   2.671   1.640   5.864
 3788SOL    HW211411   2.719   1.739   5.984
 3789SOL     OW11412   2.082   2.497   0.136
 3789SOL    HW111413   1.987   2.483   0.160
 3789SOL    HW211414   2.095   2.480   0.038
 3790SOL     OW11415   2.085   2.144   0.994
 3790SOL    HW111416   2.118   2.110   1.082
 3790SOL    HW211417   1.992   2.112   0.978
 3791SOL     OW11418   1.864   2.251   0.636
 3791SOL    HW111419   1.779   2.281   0.681
 3791SOL    HW211420   1.847   2.167   0.585
 3792SOL     OW11421   2.431   3.158   1.184
 3792SOL    HW111422   2.340   3.154   1.141
 3792SOL    HW211423   2.448   3.250   1.218
 3793SOL     OW11424   3.425   3.375   0.709
 3793SOL    HW111425   3.384   3.350   0.796
 3793SOL    HW211426   3.355   3.378   0.638
 3794SOL     OW11427   2.994   2.563   0.696
 3794SOL    HW111428   3.047   2.646   0.680
 3794SOL    HW211429   2.943   2.572   0.782
 3795SOL     OW11430   3.646   2.442   0.201
 3795SOL    HW111431   3.580   2.490   0.144
 3795SOL    HW211432   3.598   2.379   0.263
 3796SOL     OW11433   2.608   3.003   1.040
 3796SOL    HW111434   2.539   3.037   1.105
 3796SOL    HW211435   2.651   3.080   0.994
 3797SOL     OW11436   2.735   2.628   1.821
 3797SOL    HW111437   2.722   2.696   1.893
 3797SOL    HW211438   2.759   2.674   1.735
 3798SOL     OW11439   2.545   2.859   0.650
 3798SOL    HW111440   2.616   2.850   0.720
 3798SOL    HW211441   2.471   2.916   0.686
 3799SOL     OW11442   2.573   3.015   1.817
 3799SOL    HW111443   2.625   3.094   1.849
 3799SOL    HW211444   2.488   3.047   1.776
 3800SOL     OW11445   2.188   3.286   1.066
 3800SOL    HW111446   2.112   3.241   1.019
 3800SOL    HW211447   2.241   3.338   0.999
 3801SOL     OW11448   3.320   3.363   1.357
 3801SOL    HW111449   3.378   3.445   1.364
 3801SOL    HW211450   3.250   3.365   1.429
 3802SOL     OW11451   2.312   2.256   1.479
 3802SOL    HW111452   2.393   2.198   1.487
 3802SOL    HW211453   2.230   2.202   1.497
 3803SOL     OW11454   3.475   2.311   0.747
 3803SOL    HW111455   3.400   2.332   0.683
 3803SOL    HW211456   3.485   2.386   0.813
 3804SOL     OW11457   2.087   3.582   0.473
 3804SOL    HW111458   2.104   3.661   0.532
 3804SOL    HW211459   2.172   3.555   0.428
 3805SOL     OW11460   2.999   3.202   1.698
 3805SOL    HW111461   3.046   3.200   1.786
 3805SOL    HW211462   2.943   3.120   1.688
 3806SOL     OW11463   2.084   3.308   0.539
 3806SOL    HW111464   2.069   3.406   0.547
 3806SOL    HW211465   2.027   3.260   0.605
 3807SOL     OW11466   2.130   2.952   0.900
 3807SOL    HW111467   2.125   2.858   0.933
 3807SOL    HW211468   2.067   3.010   0.953
 3808SOL     OW11469   2.462   3.658   1.427
 3808SOL    HW111470   2.379   3.634   1.476
 3808SOL    HW211471   2.493   3.749   1.455
 3809SOL     OW11472   2.450   2.830   0.146
 3809SOL    HW111473   2.507   2.852   0.067
 3809SOL    HW211474   2.486   2.875   0.228
 3810SOL     OW11475   3.458   1.987   1.470
 3810SOL    HW111476   3.477   2.066   1.412
 3810SOL    HW211477   3.444   2.016   1.564
 3811SOL     OW11478   1.978   2.515   0.562
 3811SOL    HW111479   1.946   2.423   0.583
 3811SOL    HW211480   1.972   2.572   0.645
 3812SOL     OW11481   3.699   3.626   0.346
 3812SOL    HW111482   3.769   3.595   0.411
 3812SOL    HW211483   3.705   3.725   0.336
 3813SOL     OW11484   3.553   2.776   0.650
 3813SOL    HW111485   3.637   2.726   0.632
 3813SOL    HW211486   3.531   2.834   0.571
 3814SOL     OW11487   3.517   2.958   0.445
 3814SOL    HW111488   3.586   2.978   0.375
 3814SOL    HW211489   3.522   3.027   0.517
 3815SOL     OW11490   1.985   2.606   1.585
 3815SOL    HW111491   2.082   2.632   1.587
 3815SOL    HW211492   1.928   2.688   1.587
 3816SOL     OW11493   2.474   3.250   0.737
 3816SOL    HW111494   2.427   3.163   0.750
 3816SOL    HW211495   2.464   3.280   0.642
 3817SOL     OW11496   3.151   3.098   1.422
 3817SOL    HW111497   3.178   3.027   1.356
 3817SOL    HW211498   3.210   3.093   1.502
 3818SOL     OW11499   2.680   1.874   0.514
 3818SOL    HW111500   2.726   1.960   0.490
 3818SOL    HW211501   2.582   1.890   0.522
 3819SOL     OW11502   2.053   2.824   1.276
 3819SOL    HW111503   2.141   2.780   1.261
 3819SOL    HW211504   1.983   2.777   1.223
 3820SOL     OW11505   3.355   2.881   0.213
 3820SOL    HW111506   3.287   2.815   0.245
 3820SOL    HW211507   3.441   2.867   0.263
 3821SOL     OW11508   3.043   3.672   1.622
 3821SOL    HW111509   3.052   3.740   1.549
 3821SOL    HW211510   3.064   3.581   1.585
 3822SOL     OW11511   2.202   2.111   1.829
 3822SOL    HW111512   2.251   2.197   1.844
 3822SOL    HW211513   2.105   2.124   1.850
 3823SOL     OW11514   3.326   3.282   0.948
 3823SOL    HW111515   3.259   3.301   1.020
 3823SOL    HW211516   3.318   3.187   0.919
 3824SOL     OW11517   3.507   3.611   0.582
 3824SOL    HW111518   3.487   3.585   0.488
 3824SOL    HW211519   3.489   3.534   0.643
 3825SOL     OW11520   2.461   2.579   0.266
 3825SOL    HW111521   2.467   2.669   0.223
 3825SOL    HW211522   2.397   2.583   0.342
 3826SOL     OW11523   3.139   2.218   0.932
 3826SOL    HW111524   3.045   2.185   0.940
 3826SOL    HW211525   3.199   2.167   0.994
 3827SOL     OW11526   3.439   3.538   0.316
 3827SOL    HW111527   3.534   3.570   0.314
 3827SOL    HW211528   3.404   3.530   0.223
 3828SOL     OW11529   2.652   2.475   1.450
 3828SOL    HW111530   2.627   2.452   1.544
 3828SOL    HW211531   2.613   2.407   1.387
 3829SOL     OW11532   3.253   2.332   1.679
 3829SOL    HW111533   3.254   2.381   1.766
 3829SOL    HW211534   3.315   2.253   1.685
 3830SOL     OW11535   2.815   2.747   1.583
 3830SOL    HW111536   2.873   2.675   1.545
 3830SOL    HW211537   2.762   2.789   1.509
 3831SOL     OW11538   2.856   2.269   1.230
 3831SOL    HW111539   2.767   2.292   1.270
 3831SOL    HW211540   2.842   2.218   1.145
 3832SOL     OW11541   2.913   2.563   0.429
 3832SOL    HW111542   2.935   2.560   0.526
 3832SOL    HW211543   2.827   2.514   0.413
 3833SOL     OW11544   1.952   2.686   0.777
 3833SOL    HW111545   2.037   2.675   0.829
 3833SOL    HW211546   1.901   2.764   0.812
 3834SOL     OW11547   1.990   3.732   1.587
 3834SOL    HW111548   1.995   3.704   1.683
 3834SOL    HW211549   1.904   3.700   1.547
 3835SOL     OW11550   2.749   2.204   0.206
 3835SOL    HW111551   2.799   2.265   0.145
 3835SOL    HW211552   2.766   2.109   0.180
 3836SOL     OW11553   3.564   2.435   1.826
 3836SOL    HW111554   3.528   2.514   1.776
 3836SOL    HW211555   3.594   2.365   1.761
 3837SOL     OW11556   3.244   3.003   0.549
 3837SOL    HW111557   3.327   2.991   0.496
 3837SOL    HW211558   3.184   3.069   0.504
 3838SOL     OW11559   2.409   2.037   0.900
 3838SOL    HW111560   2.413   2.066   0.995
 3838SOL    HW211561   2.413   2.118   0.841
 3839SOL     OW11562   2.854   3.301   0.470
 3839SOL    HW111563   2.822   3.382   0.421
 3839SOL    HW211564   2.837   3.313   0.568
 3840SOL     OW11565   2.218   3.675   0.867
 3840SOL    HW111566   2.261   3.585   0.875
 3840SOL    HW211567   2.285   3.746   0.888
 3841SOL     OW11568   3.661   2.917   0.873
 3841SOL    HW111569   3.610   2.895   0.790
 3841SOL    HW211570   3.598   2.923   0.950
 3842SOL     OW11571   3.088   3.398   1.514
 3842SOL    HW111572   3.075   3.324   1.580
 3842SOL    HW211573   3.022   3.389   1.441
 3843SOL     OW11574   2.178   2.819   0.231
 3843SOL    HW111575   2.270   2.834   0.195
 3843SOL    HW211576   2.149   2.726   0.211
 3844SOL     OW11577   3.345   2.607   0.723
 3844SOL    HW111578   3.340   2.566   0.815
 3844SOL    HW211579   3.425   2.667   0.719
 3845SOL     OW11580   2.330   3.127   1.731
 3845SOL    HW111581   2.304   3.133   1.635
 3845SOL    HW211582   2.248   3.124   1.788
 3846SOL     OW11583   2.982   3.628   0.241
 3846SOL    HW111584   2.909   3.582   0.293
 3846SOL    HW211585   3.019   3.565   0.173
 3847SOL     OW11586   2.064   2.138   1.503
 3847SOL    HW111587   1.982   2.195   1.498
 3847SOL    HW211588   2.043   2.052   1.549
 3848SOL     OW11589   3.508   3.293   0.101
 3848SOL    HW111590   3.461   3.376   0.072
 3848SOL    HW211591   3.444   3.233   0.150
 3849SOL     OW11592   2.350   3.561   0.380
 3849SOL    HW111593   2.377   3.647   0.424
 3849SOL    HW211594   2.408   3.545   0.300
 3850SOL     OW11595   2.121   3.654   1.227
 3850SOL    HW111596   2.172   3.582   1.274
 3850SOL    HW211597   2.102   3.624   1.133
 3851SOL     OW11598   2.798   3.564   0.897
 3851SOL    HW111599   2.880   3.516   0.928
 3851SOL    HW211600   2.755   3.512   0.823
 3852SOL     OW11601   2.259   2.549   0.470
 3852SOL    HW111602   2.279   2.453   0.488
 3852SOL    HW211603   2.163   2.568   0.489
 3853SOL     OW11604   3.391   2.085   1.728
 3853SOL    HW111605   3.402   2.106   1.825
 3853SOL    HW211606   3.319   2.017   1.717
 3854SOL     OW11607   2.626   2.138   1.757
 3854SOL    HW111608   2.710   2.084   1.751
 3854SOL    HW211609   2.574   2.111   1.838
 3855SOL     OW11610   2.737   3.377   1.192
 3855SOL    HW111611   2.717   3.341   1.101
 3855SOL    HW211612   2.810   3.323   1.235
 3856SOL     OW11613   3.202   2.451   1.435
 3856SOL    HW111614   3.232   2.416   1.524
 3856SOL    HW211615   3.237   2.543   1.422
 3857SOL     OW11616   2.681   3.252   0.941
 3857SOL    HW111617   2.771   3.240   0.898
 3857SOL    HW211618   2.611   3.257   0.870
 3858SOL     OW11619   2.789   2.369   0.900
 3858SOL    HW111620   2.763   2.361   0.803
 3858SOL    HW211621   2.822   2.280   0.932
 3859SOL     OW11622   2.411   1.934   0.505
 3859SOL    HW111623   2.328   1.931   0.560
 3859SOL    HW211624   2.407   2.012   0.442
 3860SOL     OW11625   3.284   3.075   0.013
 3860SOL    HW111626   3.312   2.993   0.063
 3860SOL    HW211627   3.200   3.112   0.054
 3861SOL     OW11628   2.810   2.111   0.461
 3861SOL    HW111629   2.777   2.152   0.376
 3861SOL    HW211630   2.909   2.126   0.469
 3862SOL     OW11631   2.942   2.545   1.456
 3862SOL    HW111632   2.867   2.479   1.462
 3862SOL    HW211633   3.029   2.496   1.452
 3863SOL     OW11634   3.081   3.429   0.796
 3863SOL    HW111635   3.096   3.499   0.726
 3863SOL    HW211636   3.154   3.436   0.865
 3864SOL     OW11637   2.332   3.013   0.731
 3864SOL    HW111638   2.262   2.992   0.799
 3864SOL    HW211639   2.294   3.005   0.639
 3865SOL     OW11640   3.120   3.648   0.611
 3865SOL    HW111641   3.174   3.711   0.555
 3865SOL    HW211642   3.047   3.699   0.657
 3866SOL     OW11643   2.925   2.441   0.031
 3866SOL    HW111644   2.829   2.465   0.050
 3866SOL    HW211645   2.974   2.430   0.118
 3867SOL     OW11646   1.948   2.419   1.391
 3867SOL    HW111647   2.042   2.415   1.359
 3867SOL    HW211648   1.939   2.490   1.461
 3868SOL     OW11649   2.420   2.086   1.171
 3868SOL    HW111650   2.470   2.009   1.213
 3868SOL    HW211651   2.325   2.084   1.201
 3869SOL     OW11652   2.728   2.319   0.639
 3869SOL    HW111653   2.683   2.382   0.575
 3869SOL    HW211654   2.755   2.236   0.590
 3870SOL     OW11655   2.881   1.911   0.742
 3870SOL    HW111656   2.816   1.912   0.666
 3870SOL    HW211657   2.857   1.837   0.806
 3871SOL     OW11658   3.307   3.023   0.860
 3871SOL    HW111659   3.232   2.958   0.862
 3871SOL    HW211660   3.339   3.034   0.765
 3872SOL     OW11661   3.330   2.470   0.973
 3872SOL    HW111662   3.269   2.390   0.972
 3872SOL    HW211663   3.391   2.464   1.051
 3873SOL     OW11664   3.692   2.668   0.390
 3873SOL    HW111665   3.752   2.608   0.442
 3873SOL    HW211666   3.685   2.635   0.296
 3874SOL     OW11667   2.331   3.289   0.153
 3874SOL    HW111668   2.268   3.245   0.218
 3874SOL    HW211669   2.309   3.260   0.060
 3875SOL     OW11670   3.534   3.128   0.651
 3875SOL    HW111671   3.634   3.126   0.660
 3875SOL    HW211672   3.501   3.221   0.666
 3876SOL     OW11673   3.253   2.416   0.068
 3876SOL    HW111674   3.193   2.413   0.147
 3876SOL    HW211675   3.317   2.339   0.071
 3877SOL     OW11676   2.376   2.126   0.313
 3877SOL    HW111677   2.389   2.060   0.239
 3877SOL    HW211678   2.353   2.215   0.273
 3878SOL     OW11679   3.615   3.102   1.562
 3878SOL    HW111680   3.705   3.060   1.550
 3878SOL    HW211681   3.626   3.196   1.596
 3879SOL     OW11682   2.916   3.212   1.336
 3879SOL    HW111683   2.835   3.182   1.386
 3879SOL    HW211684   2.998   3.172   1.378
 3880SOL     OW11685   3.475   3.491   1.656
 3880SOL    HW111686   3.460   3.526   1.564
 3880SOL    HW211687   3.561   3.440   1.659
 3881SOL     OW11688   2.998   3.080   1.105
 3881SOL    HW111689   2.938   3.114   1.178
 3881SOL    HW211690   2.963   3.110   1.016
 3882SOL     OW11691   3.486   2.958   1.079
 3882SOL    HW111692   3.482   3.024   1.155
 3882SOL    HW211693   3.411   2.976   1.016
 3883SOL     OW11694   2.785   1.957   1.392
 3883SOL    HW111695   2.807   1.934   1.297
 3883SOL    HW211696   2.864   2.000   1.435
 3884SOL     OW11697   2.841   2.976   1.721
 3884SOL    HW111698   2.747   2.996   1.748
 3884SOL    HW211699   2.844   2.894   1.665
 3885SOL     OW11700   2.575   2.920   0.375
 3885SOL    HW111701   2.556   2.903   0.472
 3885SOL    HW211702   2.655   2.866   0.347
 3886SOL     OW11703   2.284   2.676   1.253
 3886SOL    HW111704   2.357   2.690   1.321
 3886SOL    HW211705   2.245   2.585   1.265
 3887SOL     OW11706   3.125   2.239   1.280
 3887SOL    HW111707   3.162   2.318   1.329
 3887SOL    HW211708   3.029   2.256   1.255
 3888SOL     OW11709   1.936   3.434   1.353
 3888SOL    HW111710   1.900   3.504   1.291
 3888SOL    HW211711   2.036   3.432   1.347
 3889SOL     OW11712   2.226   2.982   0.482
 3889SOL    HW111713   2.202   3.058   0.423
 3889SOL    HW211714   2.222   2.897   0.430
 3890SOL     OW11715   2.411   2.405   0.860
 3890SOL    HW111716   2.426   2.464   0.781
 3890SOL    HW211717   2.479   2.426   0.931
 3891SOL     OW11718   3.105   3.207   0.406
 3891SOL    HW111719   3.164   3.282   0.435
 3891SOL    HW211720   3.011   3.225   0.433
 3892SOL     OW11721   3.148   3.323   1.147
 3892SOL    HW111722   3.207   3.329   1.228
 3892SOL    HW211723   3.094   3.240   1.152
 3893SOL     OW11724   3.449   2.489   0.480
 3893SOL    HW111725   3.392   2.532   0.550
 3893SOL    HW211726   3.505   2.558   0.435
 3894SOL     OW11727   2.210   3.392   1.310
 3894SOL    HW111728   2.193   3.347   1.222
 3894SOL    HW211729   2.308   3.405   1.323
 3895SOL     OW11730   2.277   2.608   1.600
 3895SOL    HW111731   2.343   2.654   1.541
 3895SOL    HW211732   2.311   2.517   1.623
 3896SOL     OW11733   3.469   2.646   1.684
 3896SOL    HW111734   3.378   2.688   1.682
 3896SOL    HW211735   3.526   2.687   1.613
 3897SOL     OW11736   2.859   1.995   1.750
 3897SOL    HW111737   2.917   2.074   1.734
 3897SOL    HW211738   2.908   1.912   1.724
 3898SOL     OW11739   2.355   1.899   1.750
 3898SOL    HW111740   2.310   1.840   1.682
 3898SOL    HW211741   2.297   1.978   1.768
 3899SOL     OW11742   2.445   2.733   1.034
 3899SOL    HW111743   2.480   2.827   1.030
 3899SOL    HW211744   2.386   2.723   1.114
 3900SOL     OW11745   3.215   2.719   1.026
 3900SOL    HW111746   3.125   2.712   0.982
 3900SOL    HW211747   3.263   2.632   1.017
 3901SOL     OW11748   3.057   2.389   0.272
 3901SOL    HW111749   3.072   2.309   0.330
 3901SOL    HW211750   3.018   2.463   0.327
 3902SOL     OW11751   2.159   2.059   1.246
 3902SOL    HW111752   2.123   2.096   1.332
 3902SOL    HW211753   2.144   1.960   1.243
 3903SOL     OW11754   1.914   3.172   1.276
 3903SOL    HW111755   1.946   3.111   1.348
 3903SOL    HW211756   1.917   3.266   1.308
 3904SOL     OW11757   2.585   2.492   1.055
 3904SOL    HW111758   2.663   2.473   0.995
 3904SOL    HW211759   2.551   2.584   1.036
 3905SOL     OW11760   3.597   2.822   1.855
 3905SOL    HW111761   3.554   2.754   1.796
 3905SOL    HW211762   3.538   2.841   1.933
 3906SOL     OW11763   2.166   1.928   0.629
 3906SOL    HW111764   2.143   2.023   0.650
 3906SOL    HW211765   2.178   1.877   0.714
 3907SOL     OW11766   3.488   2.238   0.375
 3907SOL    HW111767   3.513   2.168   0.442
 3907SOL    HW211768   3.466   2.324   0.422
 3908SOL     OW11769   2.885   2.617   0.959
 3908SOL    HW111770   2.881   2.639   1.056
 3908SOL    HW211771   2.859   2.522   0.945
 3909SOL     OW11772   2.843   3.425   1.717
 3909SOL    HW111773   2.827   3.473   1.631
 3909SOL    HW211774   2.891   3.339   1.699
 3910SOL     OW11775   3.717   3.366   1.604
 3910SOL    HW111776   3.736   3.392   1.509
 3910SOL    HW211777   3.800   3.378   1.658
 3911SOL     OW11778   2.215   2.780   1.805
 3911SOL    HW111779   2.295   2.801   1.860
 3911SOL    HW211780   2.240   2.714   1.734
 3912SOL     OW11781   3.350   2.154   0.153
 3912SOL    HW111782   3.310   2.064   0.167
 3912SOL    HW211783   3.408   2.178   0.231
 3913SOL     OW11784   3.156   2.684   0.033
 3913SOL    HW111785   3.202   2.596   0.024
 3913SOL    HW211786   3.182   2.744   6.957
 3914SOL     OW11787   2.930   3.199   0.854
 3914SOL    HW111788   2.935   3.121   0.792
 3914SOL    HW211789   2.990   3.271   0.821
 3915SOL     OW11790   2.173   2.668   0.943
 3915SOL    HW111791   2.269   2.695   0.940
 3915SOL    HW211792   2.166   2.574   0.976
 3916SOL     OW11793   2.190   2.389   1.011
 3916SOL    HW111794   2.152   2.297   1.001
 3916SOL    HW211795   2.271   2.398   0.953
 3917SOL     OW11796   2.996   2.235   1.692
 3917SOL    HW111797   2.943   2.292   1.754
 3917SOL    HW211798   3.088   2.272   1.683
 3918SOL     OW11799   3.024   2.066   1.475
 3918SOL    HW111800   3.009   2.128   1.552
 3918SOL    HW211801   3.066   2.115   1.399
 3919SOL     OW11802   1.955   3.646   0.942
 3919SOL    HW111803   1.918   3.565   0.898
 3919SOL    HW211804   2.049   3.662   0.910
 3920SOL     OW11805   2.356   3.438   0.905
 3920SOL    HW111806   2.426   3.504   0.931
 3920SOL    HW211807   2.396   3.370   0.844
 3921SOL     OW11808   2.838   2.656   1.225
 3921SOL    HW111809   2.898   2.632   1.301
 3921SOL    HW211810   2.748   2.615   1.240
 3922SOL     OW11811   1.899   2.413   1.117
 3922SOL    HW111812   1.981   2.400   1.062
 3922SOL    HW211813   1.924   2.416   1.214
 3923SOL     OW11814   2.054   2.385   1.730
 3923SOL    HW111815   2.107   2.331   1.664
 3923SOL    HW211816   2.014   2.464   1.684
 3924SOL     OW11817   3.242   2.798   1.655
 3924SOL    HW111818   3.265   2.895   1.656
 3924SOL    HW211819   3.239   2.765   1.560
 3925SOL     OW11820   2.680   2.431   0.370
 3925SOL    HW111821   2.687   2.352   0.308
 3925SOL    HW211822   2.603   2.488   0.342
 3926SOL     OW11823   3.505   2.465   1.182
 3926SOL    HW111824   3.488   2.406   1.261
 3926SOL    HW211825   3.596   2.447   1.145
 3927SOL     OW11826   2.103   3.409   1.726
 3927SOL    HW111827   2.081   3.484   1.790
 3927SOL    HW211828   2.108   3.323   1.776
 3928SOL     OW11829   2.569   2.310   1.253
 3928SOL    HW111830   2.511   2.232   1.229
 3928SOL    HW211831   2.565   2.378   1.180
 3929SOL     OW11832   2.782   3.543   1.471
 3929SOL    HW111833   2.757   3.497   1.386
 3929SOL    HW211834   2.782   3.642   1.457
 3930SOL     OW11835   2.318   2.360   0.189
 3930SOL    HW111836   2.381   2.433   0.214
 3930SOL    HW211837   2.225   2.397   0.185
 3931SOL     OW11838   2.005   2.999   1.475
 3931SOL    HW111839   2.006   2.954   1.564
 3931SOL    HW211840   2.025   2.933   1.403
 3932SOL     OW11841   3.178   2.906   1.220
 3932SOL    HW111842   3.207   2.838   1.152
 3932SOL    HW211843   3.110   2.967   1.179
 3933SOL     OW11844   3.164   2.708   0.306
 3933SOL    HW111845   3.082   2.681   0.357
 3933SOL    HW211846   3.151   2.688   0.209
 3934SOL     OW11847   3.641   3.593   1.156
 3934SOL    HW111848   3.702   3.627   1.085
 3934SOL    HW211849   3.611   3.501   1.132
 3935SOL     OW11850   3.103   3.595   1.106
 3935SOL    HW111851   3.189   3.624   1.063
 3935SOL    HW211852   3.109   3.498   1.129
 3936SOL     OW11853   1.948   3.128   1.010
 3936SOL    HW111854   1.932   3.142   1.108
 3936SOL    HW211855   1.876   3.069   0.973
 3937SOL     OW11856   2.542   3.535   1.735
 3937SOL    HW111857   2.480   3.613   1.730
 3937SOL    HW211858   2.615   3.546   1.667
 3938SOL     OW11859   2.800   1.939   0.113
 3938SOL    HW111860   2.871   1.993   0.067
 3938SOL    HW211861   2.843   1.880   0.182
 3939SOL     OW11862   3.590   2.022   0.528
 3939SOL    HW111863   3.660   2.013   0.457
 3939SOL    HW211864   3.563   1.930   0.558
 3940SOL     OW11865   3.252   3.424   0.490
 3940SOL    HW111866   3.317   3.454   0.421
 3940SOL    HW211867   3.198   3.503   0.522
 3941SOL     OW11868   2.007   3.649   1.846
 3941SOL    HW111869   1.949   3.582   1.891
 3941SOL    HW211870   2.056   3.703   1.914
 3942SOL     OW11871   3.144   2.785   0.669
 3942SOL    HW111872   3.219   2.720   0.684
 3942SOL    HW211873   3.178   2.864   0.618
 3943SOL     OW11874   2.667   3.140   1.427
 3943SOL    HW111875   2.637   3.183   1.512
 3943SOL    HW211876   2.598   3.155   1.356
 3944SOL     OW11877   2.536   3.465   0.191
 3944SOL    HW111878   2.542   3.513   0.103
 3944SOL    HW211879   2.476   3.385   0.181
 3945SOL     OW11880   3.479   3.591   1.387
 3945SOL    HW111881   3.537   3.592   1.305
 3945SOL    HW211882   3.465   3.684   1.419
 3946SOL     OW11883   3.704   2.032   0.963
 3946SOL    HW111884   3.738   1.941   0.941
 3946SOL    HW211885   3.613   2.043   0.923
 3947SOL     OW11886   2.118   2.179   0.717
 3947SOL    HW111887   2.030   2.217   0.690
 3947SOL    HW211888   2.122   2.170   0.816
 3948SOL     OW11889   3.081   3.461   0.039
 3948SOL    HW111890   3.075   3.366   0.070
 3948SOL    HW211891   2.996   3.487   6.993
 3949SOL     OW11892   2.685   2.871   1.377
 3949SOL    HW111893   2.736   2.856   1.293
 3949SOL    HW211894   2.683   2.969   1.398
 3950SOL     OW11895   2.785   2.775   0.293
 3950SOL    HW111896   2.841   2.804   0.215
 3950SOL    HW211897   2.833   2.703   0.344
 3951SOL     OW11898   3.351   3.516   0.041
 3951SOL    HW111899   3.253   3.495   0.041
 3951SOL    HW211900   3.382   3.529   6.947
 3952SOL     OW11901   2.228   3.165   1.487
 3952SOL    HW111902   2.218   3.245   1.428
 3952SOL    HW211903   2.148   3.105   1.476
 3953SOL     OW11904   3.475   3.146   1.284
 3953SOL    HW111905   3.539   3.127   1.359
 3953SOL    HW211906   3.410   3.216   1.313
 3954SOL     OW11907   2.922   2.968   0.713
 3954SOL    HW111908   2.846   2.918   0.754
 3954SOL    HW211909   2.990   2.902   0.680
 3955SOL     OW11910   2.884   2.100   0.966
 3955SOL    HW111911   2.880   2.056   0.877
 3955SOL    HW211912   2.882   2.031   1.038
 3956SOL     OW11913   2.475   3.339   0.485
 3956SOL    HW111914   2.513   3.288   0.408
 3956SOL    HW211915   2.414   3.411   0.451
 3957SOL     OW11916   3.593   2.256   1.380
 3957SOL    HW111917   3.665   2.324   1.381
 3957SOL    HW211918   3.618   2.181   1.320
 3958SOL     OW11919   2.130   3.189   0.307
 3958SOL    HW111920   2.050   3.206   0.249
 3958SOL    HW211921   2.119   3.235   0.395
 3959SOL     OW11922   1.976   2.895   1.727
 3959SOL    HW111923   1.895   2.868   1.778
 3959SOL    HW211924   2.057   2.850   1.767
 3960SOL     OW11925   2.545   2.056   1.500
 3960SOL    HW111926   2.631   2.032   1.455
 3960SOL    HW211927   2.563   2.090   1.592
 3961SOL     OW11928   1.969   2.180   0.017
 3961SOL    HW111929   1.905   2.128   6.961
 3961SOL    HW211930   1.995   2.264   6.969
 3962SOL     OW11931   3.286   2.719   1.395
 3962SOL    HW111932   3.231   2.783   1.342
 3962SOL    HW211933   3.380   2.720   1.362
 3963SOL     OW11934   1.914   2.036   0.333
 3963SOL    HW111935   1.894   2.119   0.282
 3963SOL    HW211936   2.003   2.001   0.306
 3964SOL     OW11937   3.048   3.207   0.128
 3964SOL    HW111938   2.951   3.190   0.112
 3964SOL    HW211939   3.068   3.197   0.225
 3965SOL     OW11940   2.485   2.692   1.433
 3965SOL    HW111941   2.542   2.773   1.419
 3965SOL    HW211942   2.543   2.611   1.443
 3966SOL     OW11943   3.348   3.650   0.987
 3966SOL    HW111944   3.371   3.713   0.913
 3966SOL    HW211945   3.431   3.614   1.028
 3967SOL     OW11946   2.584   2.421   1.703
 3967SOL    HW111947   2.628   2.488   1.762
 3967SOL    HW211948   2.604   2.329   1.736
 3968SOL     OW11949   3.335   3.059   1.635
 3968SOL    HW111950   3.320   3.072   1.733
 3968SOL    HW211951   3.431   3.077   1.613
 3969SOL     OW11952   2.234   3.600   1.566
 3969SOL    HW111953   2.150   3.652   1.552
 3969SOL    HW211954   2.213   3.512   1.609
 3970SOL     OW11955   3.528   2.740   1.256
 3970SOL    HW111956   3.524   2.649   1.215
 3970SOL    HW211957   3.516   2.810   1.185
 3971SOL     OW11958   3.083   2.179   0.457
 3971SOL    HW111959   3.164   2.126   0.429
 3971SOL    HW211960   3.105   2.231   0.539
 3972SOL     OW11961   2.451   2.597   0.665
 3972SOL    HW111962   2.491   2.688   0.658
 3972SOL    HW211963   2.379   2.586   0.596
 3973SOL     OW11964   3.614   2.227   1.652
 3973SOL    HW111965   3.604   2.243   1.554
 3973SOL    HW211966   3.540   2.167   1.684
 3974SOL     OW11967   3.613   2.794   1.510
 3974SOL    HW111968   3.603   2.891   1.531
 3974SOL    HW211969   3.593   2.779   1.413
 3975SOL     OW11970   2.763   3.245   0.051
 3975SOL    HW111971   2.703   3.220   0.127
 3975SOL    HW211972   2.767   3.344   0.043
 3976SOL     OW11973   2.526   3.648   0.942
 3976SOL    HW111974   2.503   3.743   0.920
 3976SOL    HW211975   2.625   3.635   0.932
 3977SOL     OW11976   2.731   2.832   0.857
 3977SOL    HW111977   2.782   2.754   0.894
 3977SOL    HW211978   2.689   2.883   0.932
 3978SOL     OW11979   2.943   2.846   0.081
 3978SOL    HW111980   2.939   2.901   6.998
 3978SOL    HW211981   3.023   2.785   0.077
 3979SOL     OW11982   3.709   3.419   0.846
 3979SOL    HW111983   3.632   3.405   0.784
 3979SOL    HW211984   3.709   3.347   0.916
 3980SOL     OW11985   2.092   3.161   1.857
 3980SOL    HW111986   2.026   3.095   1.822
 3980SOL    HW211987   2.077   3.175   1.954
 3981SOL     OW11988   1.943   3.097   0.664
 3981SOL    HW111989   1.959   3.046   0.749
 3981SOL    HW211990   1.990   3.052   0.589
 3982SOL     OW11991   2.544   3.271   1.633
 3982SOL    HW111992   2.463   3.221   1.665
 3982SOL    HW211993   2.542   3.363   1.670
 3983SOL     OW11994   3.666   2.045   1.234
 3983SOL    HW111995   3.682   1.949   1.258
 3983SOL    HW211996   3.679   2.056   1.135
 3984SOL     OW11997   2.293   2.291   0.527
 3984SOL    HW111998   2.324   2.219   0.465
 3984SOL    HW211999   2.239   2.251   0.601
 3985SOL     OW12000   3.555   3.346   1.095
 3985SOL    HW112001   3.474   3.327   1.039
 3985SOL    HW212002   3.565   3.274   1.164
 3986SOL     OW12003   2.196   2.418   1.289
 3986SOL    HW112004   2.253   2.361   1.349
 3986SOL    HW212005   2.212   2.391   1.194
 3987SOL     OW12006   2.689   3.441   0.680
 3987SOL    HW112007   2.677   3.499   0.600
 3987SOL    HW212008   2.613   3.377   0.687
 3988SOL     OW12009   3.293   2.093   1.117
 3988SOL    HW112010   3.317   2.004   1.155
 3988SOL    HW212011   3.238   2.144   1.184
 3989SOL     OW12012   2.872   1.879   1.138
 3989SOL    HW112013   2.808   1.814   1.096
 3989SOL    HW212014   2.963   1.838   1.140
 3990SOL     OW12015   2.645   3.180   0.306
 3990SOL    HW112016   2.611   3.088   0.327
 3990SOL    HW212017   2.721   3.201   0.367
 3991SOL     OW12018   2.485   3.421   1.289
 3991SOL    HW112019   2.483   3.508   1.339
 3991SOL    HW212020   2.576   3.408   1.249
 3992SOL     OW12021   3.215   1.915   0.185
 3992SOL    HW112022   3.254   1.859   0.112
 3992SOL    HW212023   3.129   1.876   0.215
 3993SOL     OW12024   3.147   2.322   0.679
 3993SOL    HW112025   3.098   2.409   0.682
 3993SOL    HW212026   3.149   2.281   0.770
 3994SOL     OW12027   3.447   2.065   0.883
 3994SOL    HW112028   3.390   2.086   0.962
 3994SOL    HW212029   3.451   2.145   0.823
 3995SOL     OW12030   1.945   2.915   0.355
 3995SOL    HW112031   2.035   2.893   0.317
 3995SOL    HW212032   1.893   2.831   0.368
 3996SOL     OW12033   2.750   3.524   0.353
 3996SOL    HW112034   2.675   3.495   0.294
 3996SOL    HW212035   2.721   3.603   0.407
 3997SOL     OW12036   2.085   2.482   1.989
 3997SOL    HW112037   1.993   2.482   2.029
 3997SOL    HW212038   2.078   2.459   1.892
 3998SOL     OW12039   2.085   2.144   2.856
 3998SOL    HW112040   2.117   2.110   2.945
 3998SOL    HW212041   1.991   2.112   2.840
 3999SOL     OW12042   1.863   2.248   2.496
 3999SOL    HW112043   1.779   2.278   2.541
 3999SOL    HW212044   1.845   2.164   2.444
 4000SOL     OW12045   2.432   3.157   3.047
 4000SOL    HW112046   2.341   3.152   3.004
 4000SOL    HW212047   2.448   3.249   3.080
 4001SOL     OW12048   3.425   3.374   2.570
 4001SOL    HW112049   3.383   3.352   2.658
 4001SOL    HW212050   3.355   3.381   2.500
 4002SOL     OW12051   2.995   2.565   2.557
 4002SOL    HW112052   3.047   2.648   2.541
 4002SOL    HW212053   2.945   2.573   2.644
 4003SOL     OW12054   3.631   2.462   2.085
 4003SOL    HW112055   3.608   2.458   1.988
 4003SOL    HW212056   3.593   2.382   2.132
 4004SOL     OW12057   2.606   3.002   2.900
 4004SOL    HW112058   2.538   3.036   2.965
 4004SOL    HW212059   2.651   3.080   2.855
 4005SOL     OW12060   2.735   2.625   3.683
 4005SOL    HW112061   2.722   2.694   3.754
 4005SOL    HW212062   2.758   2.669   3.597
 4006SOL     OW12063   2.546   2.861   2.511
 4006SOL    HW112064   2.617   2.850   2.580
 4006SOL    HW212065   2.471   2.917   2.548
 4007SOL     OW12066   2.553   3.015   3.685
 4007SOL    HW112067   2.594   3.098   3.723
 4007SOL    HW212068   2.467   3.038   3.640
 4008SOL     OW12069   2.187   3.288   2.929
 4008SOL    HW112070   2.111   3.242   2.884
 4008SOL    HW212071   2.240   3.339   2.862
 4009SOL     OW12072   2.312   2.256   3.342
 4009SOL    HW112073   2.393   2.198   3.349
 4009SOL    HW212074   2.230   2.202   3.359
 4010SOL     OW12075   3.474   2.308   2.606
 4010SOL    HW112076   3.398   2.328   2.544
 4010SOL    HW212077   3.483   2.383   2.672
 4011SOL     OW12078   2.084   3.576   2.334
 4011SOL    HW112079   2.102   3.655   2.392
 4011SOL    HW212080   2.158   3.566   2.268
 4012SOL     OW12081   3.027   3.080   3.517
 4012SOL    HW112082   3.060   3.135   3.594
 4012SOL    HW212083   2.942   3.035   3.543
 4013SOL     OW12084   2.095   3.305   2.398
 4013SOL    HW112085   2.079   3.404   2.398
 4013SOL    HW212086   2.035   3.261   2.465
 4014SOL     OW12087   2.131   2.952   2.764
 4014SOL    HW112088   2.126   2.858   2.796
 4014SOL    HW212089   2.068   3.009   2.816
 4015SOL     OW12090   2.460   3.654   3.299
 4015SOL    HW112091   2.362   3.655   3.319
 4015SOL    HW212092   2.499   3.743   3.320
 4016SOL     OW12093   2.445   2.849   2.002
 4016SOL    HW112094   2.492   2.896   1.928
 4016SOL    HW212095   2.485   2.877   2.090
 4017SOL     OW12096   3.458   1.986   3.332
 4017SOL    HW112097   3.477   2.066   3.274
 4017SOL    HW212098   3.444   2.016   3.426
 4018SOL     OW12099   1.976   2.522   2.425
 4018SOL    HW112100   1.947   2.428   2.442
 4018SOL    HW212101   1.970   2.574   2.510
 4019SOL     OW12102   3.708   3.618   2.195
 4019SOL    HW112103   3.777   3.587   2.260
 4019SOL    HW212104   3.724   3.714   2.172
 4020SOL     OW12105   1.891   3.453   1.985
 4020SOL    HW112106   1.875   3.356   2.004
 4020SOL    HW212107   1.870   3.507   2.067
 4021SOL     OW12108   3.553   2.783   2.508
 4021SOL    HW112109   3.637   2.732   2.492
 4021SOL    HW212110   3.529   2.836   2.427
 4022SOL     OW12111   3.514   2.967   2.294
 4022SOL    HW112112   3.603   2.964   2.248
 4022SOL    HW212113   3.517   3.034   2.368
 4023SOL     OW12114   1.986   2.606   3.447
 4023SOL    HW112115   2.083   2.631   3.449
 4023SOL    HW212116   1.930   2.689   3.453
 4024SOL     OW12117   2.473   3.252   2.596
 4024SOL    HW112118   2.427   3.164   2.608
 4024SOL    HW212119   2.460   3.283   2.502
 4025SOL     OW12120   3.183   3.116   3.259
 4025SOL    HW112121   3.189   3.031   3.206
 4025SOL    HW212122   3.178   3.094   3.356
 4026SOL     OW12123   2.679   1.870   2.370
 4026SOL    HW112124   2.725   1.956   2.348
 4026SOL    HW212125   2.580   1.886   2.378
 4027SOL     OW12126   2.053   2.824   3.135
 4027SOL    HW112127   2.142   2.779   3.121
 4027SOL    HW212128   1.982   2.774   3.086
 4028SOL     OW12129   3.394   2.862   2.066
 4028SOL    HW112130   3.320   2.801   2.095
 4028SOL    HW212131   3.440   2.899   2.146
 4029SOL     OW12132   3.044   3.727   3.462
 4029SOL    HW112133   3.044   3.805   3.400
 4029SOL    HW212134   3.012   3.646   3.414
 4030SOL     OW12135   2.202   2.111   3.691
 4030SOL    HW112136   2.251   2.197   3.706
 4030SOL    HW212137   2.105   2.124   3.712
 4031SOL     OW12138   3.324   3.283   2.811
 4031SOL    HW112139   3.263   3.300   2.889
 4031SOL    HW212140   3.316   3.188   2.783
 4032SOL     OW12141   3.512   3.609   2.438
 4032SOL    HW112142   3.495   3.580   2.344
 4032SOL    HW212143   3.491   3.534   2.501
 4033SOL     OW12144   2.457   2.582   2.134
 4033SOL    HW112145   2.462   2.667   2.082
 4033SOL    HW212146   2.388   2.591   2.206
 4034SOL     OW12147   3.139   2.219   2.795
 4034SOL    HW112148   3.045   2.185   2.802
 4034SOL    HW212149   3.198   2.167   2.857
 4035SOL     OW12150   3.445   3.534   2.170
 4035SOL    HW112151   3.541   3.562   2.166
 4035SOL    HW212152   3.413   3.517   2.077
 4036SOL     OW12153   2.651   2.474   3.312
 4036SOL    HW112154   2.627   2.451   3.406
 4036SOL    HW212155   2.613   2.406   3.249
 4037SOL     OW12156   3.253   2.332   3.542
 4037SOL    HW112157   3.254   2.381   3.628
 4037SOL    HW212158   3.315   2.254   3.548
 4038SOL     OW12159   2.810   2.742   3.442
 4038SOL    HW112160   2.872   2.672   3.407
 4038SOL    HW212161   2.760   2.783   3.366
 4039SOL     OW12162   2.856   2.269   3.092
 4039SOL    HW112163   2.766   2.291   3.131
 4039SOL    HW212164   2.843   2.219   3.006
 4040SOL     OW12165   2.912   2.561   2.287
 4040SOL    HW112166   2.933   2.556   2.385
 4040SOL    HW212167   2.826   2.513   2.270
 4041SOL     OW12168   1.951   2.689   2.641
 4041SOL    HW112169   2.036   2.677   2.692
 4041SOL    HW212170   1.902   2.768   2.678
 4042SOL     OW12171   2.758   2.214   2.058
 4042SOL    HW112172   2.798   2.282   1.996
 4042SOL    HW212173   2.768   2.123   2.019
 4043SOL     OW12174   3.564   2.434   3.688
 4043SOL    HW112175   3.528   2.513   3.639
 4043SOL    HW212176   3.595   2.365   3.623
 4044SOL     OW12177   3.241   3.005   2.396
 4044SOL    HW112178   3.326   2.989   2.346
 4044SOL    HW212179   3.185   3.072   2.348
 4045SOL     OW12180   2.409   2.036   2.762
 4045SOL    HW112181   2.413   2.066   2.857
 4045SOL    HW212182   2.412   2.116   2.702
 4046SOL     OW12183   2.858   3.304   2.326
 4046SOL    HW112184   2.825   3.385   2.277
 4046SOL    HW212185   2.843   3.317   2.424
 4047SOL     OW12186   2.219   3.676   2.730
 4047SOL    HW112187   2.263   3.586   2.738
 4047SOL    HW212188   2.286   3.747   2.749
 4048SOL     OW12189   3.661   2.920   2.732
 4048SOL    HW112190   3.610   2.896   2.649
 4048SOL    HW212191   3.599   2.925   2.810
 4049SOL     OW12192   2.184   2.821   2.116
 4049SOL    HW112193   2.272   2.841   2.072
 4049SOL    HW212194   2.147   2.736   2.078
 4050SOL     OW12195   3.345   2.611   2.585
 4050SOL    HW112196   3.338   2.566   2.674
 4050SOL    HW212197   3.425   2.670   2.584
 4051SOL     OW12198   2.321   3.119   3.588
 4051SOL    HW112199   2.289   3.129   3.493
 4051SOL    HW212200   2.242   3.123   3.649
 4052SOL     OW12201   2.983   3.638   2.089
 4052SOL    HW112202   2.905   3.600   2.137
 4052SOL    HW212203   3.013   3.574   2.018
 4053SOL     OW12204   2.064   2.139   3.364
 4053SOL    HW112205   1.982   2.195   3.360
 4053SOL    HW212206   2.043   2.053   3.411
 4054SOL     OW12207   3.487   3.244   1.950
 4054SOL    HW112208   3.448   3.334   1.934
 4054SOL    HW212209   3.417   3.174   1.931
 4055SOL     OW12210   2.327   3.597   2.181
 4055SOL    HW112211   2.368   3.659   2.247
 4055SOL    HW212212   2.398   3.561   2.120
 4056SOL     OW12213   3.263   1.966   2.298
 4056SOL    HW112214   3.251   1.941   2.202
 4056SOL    HW212215   3.361   1.976   2.317
 4057SOL     OW12216   2.128   3.651   3.086
 4057SOL    HW112217   2.173   3.568   3.119
 4057SOL    HW212218   2.092   3.635   2.994
 4058SOL     OW12219   2.797   3.564   2.759
 4058SOL    HW112220   2.881   3.517   2.788
 4058SOL    HW212221   2.755   3.512   2.685
 4059SOL     OW12222   2.257   2.551   2.337
 4059SOL    HW112223   2.278   2.454   2.350
 4059SOL    HW212224   2.160   2.567   2.354
 4060SOL     OW12225   3.391   2.085   3.590
 4060SOL    HW112226   3.402   2.106   3.687
 4060SOL    HW212227   3.318   2.018   3.578
 4061SOL     OW12228   2.502   1.980   1.964
 4061SOL    HW112229   2.571   1.911   1.986
 4061SOL    HW212230   2.446   1.948   1.887
 4062SOL     OW12231   2.626   2.138   3.619
 4062SOL    HW112232   2.709   2.084   3.613
 4062SOL    HW212233   2.574   2.111   3.700
 4063SOL     OW12234   2.737   3.374   3.055
 4063SOL    HW112235   2.718   3.340   2.963
 4063SOL    HW212236   2.811   3.322   3.097
 4064SOL     OW12237   3.202   2.448   3.297
 4064SOL    HW112238   3.232   2.415   3.386
 4064SOL    HW212239   3.238   2.540   3.281
 4065SOL     OW12240   2.680   3.252   2.802
 4065SOL    HW112241   2.770   3.241   2.760
 4065SOL    HW212242   2.611   3.257   2.731
 4066SOL     OW12243   2.789   2.369   2.760
 4066SOL    HW112244   2.763   2.362   2.664
 4066SOL    HW212245   2.821   2.281   2.793
 4067SOL     OW12246   2.409   1.926   2.357
 4067SOL    HW112247   2.327   1.924   2.414
 4067SOL    HW212248   2.406   2.007   2.298
 4068SOL     OW12249   3.288   3.060   1.905
 4068SOL    HW112250   3.321   2.983   1.958
 4068SOL    HW212251   3.199   3.089   1.941
 4069SOL     OW12252   2.153   1.910   2.048
 4069SOL    HW112253   2.206   1.982   2.002
 4069SOL    HW212254   2.215   1.845   2.091
 4070SOL     OW12255   2.808   2.112   2.319
 4070SOL    HW112256   2.776   2.154   2.234
 4070SOL    HW212257   2.906   2.126   2.328
 4071SOL     OW12258   2.943   2.543   3.316
 4071SOL    HW112259   2.868   2.476   3.322
 4071SOL    HW212260   3.030   2.494   3.312
 4072SOL     OW12261   3.083   3.432   2.657
 4072SOL    HW112262   3.097   3.502   2.587
 4072SOL    HW212263   3.157   3.437   2.724
 4073SOL     OW12264   2.330   3.013   2.591
 4073SOL    HW112265   2.263   2.993   2.662
 4073SOL    HW212266   2.289   3.000   2.501
 4074SOL     OW12267   3.126   3.654   2.471
 4074SOL    HW112268   3.178   3.716   2.412
 4074SOL    HW212269   3.053   3.705   2.518
 4075SOL     OW12270   2.883   2.399   1.891
 4075SOL    HW112271   2.838   2.485   1.867
 4075SOL    HW212272   2.952   2.416   1.960
 4076SOL     OW12273   1.947   2.419   3.253
 4076SOL    HW112274   2.042   2.414   3.221
 4076SOL    HW212275   1.940   2.491   3.323
 4077SOL     OW12276   2.420   2.086   3.033
 4077SOL    HW112277   2.470   2.010   3.075
 4077SOL    HW212278   2.325   2.084   3.063
 4078SOL     OW12279   2.728   2.321   2.499
 4078SOL    HW112280   2.680   2.382   2.436
 4078SOL    HW212281   2.755   2.238   2.450
 4079SOL     OW12282   2.879   1.914   2.608
 4079SOL    HW112283   2.818   1.914   2.529
 4079SOL    HW212284   2.854   1.838   2.669
 4080SOL     OW12285   3.306   3.023   2.720
 4080SOL    HW112286   3.230   2.958   2.724
 4080SOL    HW212287   3.335   3.035   2.626
 4081SOL     OW12288   3.330   2.469   2.833
 4081SOL    HW112289   3.268   2.390   2.833
 4081SOL    HW212290   3.391   2.463   2.912
 4082SOL     OW12291   3.705   2.672   2.242
 4082SOL    HW112292   3.763   2.624   2.307
 4082SOL    HW212293   3.675   2.608   2.171
 4083SOL     OW12294   2.349   3.282   2.017
 4083SOL    HW112295   2.269   3.255   2.071
 4083SOL    HW212296   2.346   3.238   1.928
 4084SOL     OW12297   3.536   3.129   2.505
 4084SOL    HW112298   3.635   3.126   2.518
 4084SOL    HW212299   3.502   3.221   2.527
 4085SOL     OW12300   3.252   2.436   1.933
 4085SOL    HW112301   3.189   2.414   2.007
 4085SOL    HW212302   3.345   2.410   1.958
 4086SOL     OW12303   2.390   2.126   2.173
 4086SOL    HW112304   2.437   2.074   2.102
 4086SOL    HW212305   2.362   2.215   2.135
 4087SOL     OW12306   3.619   3.050   3.426
 4087SOL    HW112307   3.713   3.030   3.398
 4087SOL    HW212308   3.618   3.130   3.485
 4088SOL     OW12309   2.919   3.205   3.187
 4088SOL    HW112310   2.839   3.176   3.238
 4088SOL    HW212311   3.002   3.182   3.239
 4089SOL     OW12312   3.001   3.078   2.961
 4089SOL    HW112313   2.948   3.114   3.037
 4089SOL    HW212314   2.959   3.107   2.875
 4090SOL     OW12315   3.485   2.957   2.937
 4090SOL    HW112316   3.482   3.024   3.010
 4090SOL    HW212317   3.410   2.973   2.873
 4091SOL     OW12318   2.785   1.956   3.254
 4091SOL    HW112319   2.806   1.934   3.159
 4091SOL    HW212320   2.864   2.000   3.297
 4092SOL     OW12321   2.806   2.952   3.604
 4092SOL    HW112322   2.710   2.972   3.623
 4092SOL    HW212323   2.813   2.877   3.539
 4093SOL     OW12324   2.575   2.921   2.235
 4093SOL    HW112325   2.557   2.903   2.332
 4093SOL    HW212326   2.653   2.867   2.205
 4094SOL     OW12327   2.284   2.676   3.115
 4094SOL    HW112328   2.356   2.690   3.183
 4094SOL    HW212329   2.245   2.585   3.126
 4095SOL     OW12330   3.124   2.238   3.141
 4095SOL    HW112331   3.162   2.316   3.190
 4095SOL    HW212332   3.029   2.256   3.116
 4096SOL     OW12333   1.939   3.436   3.221
 4096SOL    HW112334   1.898   3.504   3.161
 4096SOL    HW212335   2.039   3.437   3.209
 4097SOL     OW12336   2.205   2.979   2.349
 4097SOL    HW112337   2.211   3.061   2.292
 4097SOL    HW212338   2.203   2.898   2.291
 4098SOL     OW12339   2.411   2.405   2.724
 4098SOL    HW112340   2.425   2.464   2.645
 4098SOL    HW212341   2.479   2.426   2.793
 4099SOL     OW12342   3.108   3.216   2.254
 4099SOL    HW112343   3.169   3.289   2.285
 4099SOL    HW212344   3.015   3.236   2.284
 4100SOL     OW12345   3.149   3.314   3.019
 4100SOL    HW112346   3.171   3.306   3.116
 4100SOL    HW212347   3.092   3.236   2.990
 4101SOL     OW12348   3.440   2.483   2.344
 4101SOL    HW112349   3.389   2.532   2.415
 4101SOL    HW212350   3.487   2.549   2.286
 4102SOL     OW12351   2.215   3.399   3.169
 4102SOL    HW112352   2.195   3.352   3.084
 4102SOL    HW212353   2.314   3.406   3.181
 4103SOL     OW12354   2.278   2.607   3.462
 4103SOL    HW112355   2.344   2.653   3.403
 4103SOL    HW212356   2.311   2.516   3.485
 4104SOL     OW12357   3.467   2.645   3.549
 4104SOL    HW112358   3.375   2.682   3.543
 4104SOL    HW212359   3.523   2.683   3.476
 4105SOL     OW12360   2.859   1.995   3.612
 4105SOL    HW112361   2.917   2.075   3.596
 4105SOL    HW212362   2.908   1.912   3.586
 4106SOL     OW12363   2.354   1.899   3.612
 4106SOL    HW112364   2.310   1.840   3.544
 4106SOL    HW212365   2.297   1.978   3.630
 4107SOL     OW12366   2.446   2.733   2.896
 4107SOL    HW112367   2.482   2.826   2.893
 4107SOL    HW212368   2.386   2.723   2.975
 4108SOL     OW12369   3.215   2.718   2.885
 4108SOL    HW112370   3.124   2.710   2.843
 4108SOL    HW212371   3.263   2.631   2.877
 4109SOL     OW12372   3.060   2.389   2.127
 4109SOL    HW112373   3.073   2.306   2.182
 4109SOL    HW212374   3.016   2.459   2.182
 4110SOL     OW12375   2.159   2.059   3.109
 4110SOL    HW112376   2.123   2.095   3.194
 4110SOL    HW212377   2.143   1.960   3.105
 4111SOL     OW12378   1.922   3.174   3.138
 4111SOL    HW112379   1.947   3.111   3.211
 4111SOL    HW212380   1.918   3.267   3.174
 4112SOL     OW12381   2.586   2.493   2.917
 4112SOL    HW112382   2.663   2.473   2.856
 4112SOL    HW212383   2.551   2.584   2.898
 4113SOL     OW12384   3.594   2.824   3.716
 4113SOL    HW112385   3.551   2.755   3.659
 4113SOL    HW212386   3.536   2.843   3.795
 4114SOL     OW12387   2.168   1.924   2.490
 4114SOL    HW112388   2.144   2.019   2.508
 4114SOL    HW212389   2.179   1.875   2.576
 4115SOL     OW12390   3.488   2.242   2.225
 4115SOL    HW112391   3.514   2.169   2.288
 4115SOL    HW212392   3.460   2.323   2.277
 4116SOL     OW12393   2.886   2.617   2.820
 4116SOL    HW112394   2.881   2.639   2.918
 4116SOL    HW212395   2.859   2.522   2.806
 4117SOL     OW12396   2.213   2.778   3.667
 4117SOL    HW112397   2.293   2.799   3.725
 4117SOL    HW212398   2.240   2.713   3.596
 4118SOL     OW12399   3.390   2.131   1.992
 4118SOL    HW112400   3.320   2.063   2.017
 4118SOL    HW212401   3.426   2.173   2.075
 4119SOL     OW12402   3.151   2.688   1.889
 4119SOL    HW112403   3.192   2.597   1.897
 4119SOL    HW212404   3.182   2.731   1.804
 4120SOL     OW12405   2.930   3.201   2.715
 4120SOL    HW112406   2.934   3.122   2.653
 4120SOL    HW212407   2.990   3.273   2.681
 4121SOL     OW12408   2.173   2.668   2.805
 4121SOL    HW112409   2.269   2.694   2.800
 4121SOL    HW212410   2.165   2.574   2.838
 4122SOL     OW12411   2.190   2.389   2.873
 4122SOL    HW112412   2.151   2.297   2.862
 4122SOL    HW212413   2.270   2.398   2.815
 4123SOL     OW12414   2.996   2.235   3.554
 4123SOL    HW112415   2.943   2.292   3.617
 4123SOL    HW212416   3.088   2.272   3.545
 4124SOL     OW12417   3.024   2.065   3.337
 4124SOL    HW112418   3.009   2.128   3.414
 4124SOL    HW212419   3.066   2.115   3.261
 4125SOL     OW12420   1.863   3.178   2.057
 4125SOL    HW112421   1.773   3.197   2.017
 4125SOL    HW212422   1.864   3.084   2.092
 4126SOL     OW12423   1.959   3.645   2.807
 4126SOL    HW112424   1.921   3.564   2.761
 4126SOL    HW212425   2.052   3.662   2.772
 4127SOL     OW12426   2.357   3.438   2.768
 4127SOL    HW112427   2.427   3.504   2.795
 4127SOL    HW212428   2.397   3.371   2.706
 4128SOL     OW12429   2.837   2.655   3.086
 4128SOL    HW112430   2.898   2.631   3.162
 4128SOL    HW212431   2.748   2.612   3.100
 4129SOL     OW12432   1.899   2.414   2.979
 4129SOL    HW112433   1.981   2.400   2.924
 4129SOL    HW212434   1.924   2.416   3.076
 4130SOL     OW12435   2.054   2.385   3.592
 4130SOL    HW112436   2.108   2.332   3.526
 4130SOL    HW212437   2.014   2.464   3.546
 4131SOL     OW12438   3.229   2.775   3.512
 4131SOL    HW112439   3.254   2.872   3.516
 4131SOL    HW212440   3.228   2.745   3.417
 4132SOL     OW12441   2.679   2.434   2.222
 4132SOL    HW112442   2.688   2.354   2.162
 4132SOL    HW212443   2.601   2.489   2.193
 4133SOL     OW12444   3.505   2.465   3.043
 4133SOL    HW112445   3.488   2.406   3.122
 4133SOL    HW212446   3.596   2.447   3.007
 4134SOL     OW12447   2.568   2.310   3.115
 4134SOL    HW112448   2.511   2.232   3.091
 4134SOL    HW212449   2.565   2.378   3.042
 4135SOL     OW12450   2.827   3.557   3.310
 4135SOL    HW112451   2.791   3.500   3.235
 4135SOL    HW212452   2.792   3.650   3.300
 4136SOL     OW12453   2.322   2.357   2.048
 4136SOL    HW112454   2.386   2.430   2.073
 4136SOL    HW212455   2.231   2.397   2.034
 4137SOL     OW12456   2.010   2.997   3.336
 4137SOL    HW112457   2.010   2.951   3.424
 4137SOL    HW212458   2.028   2.931   3.263
 4138SOL     OW12459   3.177   2.903   3.080
 4138SOL    HW112460   3.206   2.835   3.013
 4138SOL    HW212461   3.110   2.965   3.039
 4139SOL     OW12462   3.177   2.719   2.162
 4139SOL    HW112463   3.101   2.691   2.220
 4139SOL    HW212464   3.152   2.706   2.066
 4140SOL     OW12465   3.614   3.606   2.974
 4140SOL    HW112466   3.693   3.631   2.918
 4140SOL    HW212467   3.601   3.507   2.970
 4141SOL     OW12468   3.105   3.591   2.969
 4141SOL    HW112469   3.191   3.619   2.926
 4141SOL    HW212470   3.111   3.495   2.996
 4142SOL     OW12471   1.949   3.128   2.873
 4142SOL    HW112472   1.935   3.142   2.971
 4142SOL    HW212473   1.875   3.070   2.837
 4143SOL     OW12474   3.581   2.011   2.361
 4143SOL    HW112475   3.657   2.001   2.297
 4143SOL    HW212476   3.564   1.923   2.407
 4144SOL     OW12477   3.257   3.432   2.349
 4144SOL    HW112478   3.320   3.464   2.278
 4144SOL    HW212479   3.202   3.509   2.382
 4145SOL     OW12480   3.144   2.790   2.528
 4145SOL    HW112481   3.218   2.725   2.544
 4145SOL    HW212482   3.177   2.867   2.473
 4146SOL     OW12483   2.674   3.127   3.266
 4146SOL    HW112484   2.637   3.161   3.353
 4146SOL    HW212485   2.608   3.145   3.193
 4147SOL     OW12486   2.531   3.483   2.016
 4147SOL    HW112487   2.547   3.501   1.919
 4147SOL    HW212488   2.472   3.402   2.026
 4148SOL     OW12489   3.570   3.656   3.237
 4148SOL    HW112490   3.556   3.634   3.140
 4148SOL    HW212491   3.502   3.723   3.266
 4149SOL     OW12492   3.704   2.032   2.826
 4149SOL    HW112493   3.738   1.941   2.803
 4149SOL    HW212494   3.613   2.044   2.786
 4150SOL     OW12495   2.118   2.176   2.578
 4150SOL    HW112496   2.030   2.213   2.550
 4150SOL    HW212497   2.121   2.168   2.677
 4151SOL     OW12498   3.070   3.463   1.895
 4151SOL    HW112499   3.061   3.369   1.928
 4151SOL    HW212500   3.003   3.480   1.823
 4152SOL     OW12501   2.688   2.862   3.233
 4152SOL    HW112502   2.742   2.841   3.152
 4152SOL    HW212503   2.687   2.961   3.248
 4153SOL     OW12504   2.782   2.773   2.149
 4153SOL    HW112505   2.843   2.808   2.078
 4153SOL    HW212506   2.828   2.701   2.201
 4154SOL     OW12507   3.351   3.491   1.904
 4154SOL    HW112508   3.252   3.480   1.893
 4154SOL    HW212509   3.394   3.497   1.814
 4155SOL     OW12510   2.221   3.174   3.348
 4155SOL    HW112511   2.212   3.249   3.282
 4155SOL    HW212512   2.145   3.110   3.336
 4156SOL     OW12513   3.465   3.144   3.137
 4156SOL    HW112514   3.546   3.133   3.195
 4156SOL    HW212515   3.384   3.153   3.195
 4157SOL     OW12516   2.922   2.969   2.577
 4157SOL    HW112517   2.846   2.918   2.616
 4157SOL    HW212518   2.991   2.904   2.542
 4158SOL     OW12519   2.884   2.101   2.829
 4158SOL    HW112520   2.880   2.057   2.739
 4158SOL    HW212521   2.882   2.032   2.901
 4159SOL     OW12522   2.467   3.348   2.342
 4159SOL    HW112523   2.518   3.294   2.275
 4159SOL    HW212524   2.393   3.398   2.296
 4160SOL     OW12525   3.592   2.256   3.243
 4160SOL    HW112526   3.665   2.324   3.243
 4160SOL    HW212527   3.618   2.181   3.182
 4161SOL     OW12528   2.115   3.210   2.151
 4161SOL    HW112529   2.019   3.203   2.123
 4161SOL    HW212530   2.121   3.248   2.243
 4162SOL     OW12531   1.974   2.889   3.584
 4162SOL    HW112532   1.893   2.865   3.638
 4162SOL    HW212533   2.056   2.849   3.627
 4163SOL     OW12534   2.545   2.056   3.362
 4163SOL    HW112535   2.631   2.032   3.317
 4163SOL    HW212536   2.563   2.090   3.454
 4164SOL     OW12537   1.943   2.191   1.892
 4164SOL    HW112538   1.851   2.167   1.861
 4164SOL    HW212539   1.975   2.272   1.843
 4165SOL     OW12540   3.286   2.712   3.252
 4165SOL    HW112541   3.231   2.778   3.201
 4165SOL    HW212542   3.381   2.717   3.222
 4166SOL     OW12543   1.926   2.017   2.165
 4166SOL    HW112544   1.909   2.102   2.115
 4166SOL    HW212545   2.014   1.979   2.138
 4167SOL     OW12546   3.042   3.200   1.982
 4167SOL    HW112547   2.947   3.170   1.976
 4167SOL    HW212548   3.071   3.201   2.078
 4168SOL     OW12549   2.484   2.691   3.296
 4168SOL    HW112550   2.542   2.771   3.278
 4168SOL    HW212551   2.542   2.610   3.306
 4169SOL     OW12552   3.352   3.647   2.851
 4169SOL    HW112553   3.368   3.709   2.774
 4169SOL    HW212554   3.439   3.622   2.893
 4170SOL     OW12555   2.583   2.420   3.565
 4170SOL    HW112556   2.627   2.487   3.625
 4170SOL    HW212557   2.603   2.327   3.598
 4171SOL     OW12558   3.343   3.019   3.503
 4171SOL    HW112559   3.326   3.042   3.599
 4171SOL    HW212560   3.441   3.025   3.483
 4172SOL     OW12561   3.529   2.740   3.114
 4172SOL    HW112562   3.523   2.649   3.073
 4172SOL    HW212563   3.516   2.809   3.043
 4173SOL     OW12564   3.081   2.179   2.322
 4173SOL    HW112565   3.145   2.102   2.311
 4173SOL    HW212566   3.108   2.234   2.401
 4174SOL     OW12567   2.449   2.599   2.530
 4174SOL    HW112568   2.490   2.689   2.520
 4174SOL    HW212569   2.379   2.586   2.460
 4175SOL     OW12570   3.614   2.226   3.514
 4175SOL    HW112571   3.604   2.243   3.416
 4175SOL    HW212572   3.540   2.167   3.546
 4176SOL     OW12573   3.613   2.780   3.369
 4176SOL    HW112574   3.607   2.877   3.394
 4176SOL    HW212575   3.593   2.769   3.272
 4177SOL     OW12576   2.728   3.226   1.904
 4177SOL    HW112577   2.687   3.251   1.992
 4177SOL    HW212578   2.744   3.309   1.851
 4178SOL     OW12579   2.527   3.649   2.808
 4178SOL    HW112580   2.503   3.742   2.783
 4178SOL    HW212581   2.625   3.634   2.794
 4179SOL     OW12582   2.731   2.832   2.718
 4179SOL    HW112583   2.782   2.754   2.755
 4179SOL    HW212584   2.689   2.882   2.793
 4180SOL     OW12585   2.940   2.852   1.946
 4180SOL    HW112586   2.912   2.905   1.866
 4180SOL    HW212587   3.018   2.793   1.922
 4181SOL     OW12588   3.712   3.417   2.707
 4181SOL    HW112589   3.633   3.407   2.646
 4181SOL    HW212590   3.702   3.354   2.785
 4182SOL     OW12591   2.093   3.153   3.722
 4182SOL    HW112592   2.019   3.094   3.688
 4182SOL    HW212593   2.068   3.187   3.813
 4183SOL     OW12594   1.948   3.093   2.526
 4183SOL    HW112595   1.950   3.046   2.614
 4183SOL    HW212596   2.017   3.052   2.465
 4184SOL     OW12597   2.540   3.231   3.468
 4184SOL    HW112598   2.457   3.192   3.508
 4184SOL    HW212599   2.532   3.331   3.466
 4185SOL     OW12600   3.667   2.045   3.096
 4185SOL    HW112601   3.683   1.949   3.120
 4185SOL    HW212602   3.679   2.057   2.997
 4186SOL     OW12603   2.293   2.291   2.389
 4186SOL    HW112604   2.326   2.220   2.326
 4186SOL    HW212605   2.238   2.247   2.461
 4187SOL     OW12606   3.557   3.345   2.951
 4187SOL    HW112607   3.474   3.328   2.898
 4187SOL    HW212608   3.562   3.281   3.028
 4188SOL     OW12609   2.196   2.417   3.151
 4188SOL    HW112610   2.253   2.361   3.211
 4188SOL    HW212611   2.212   2.391   3.056
 4189SOL     OW12612   2.690   3.442   2.541
 4189SOL    HW112613   2.678   3.502   2.461
 4189SOL    HW212614   2.613   3.378   2.546
 4190SOL     OW12615   3.293   2.092   2.979
 4190SOL    HW112616   3.317   2.003   3.018
 4190SOL    HW212617   3.238   2.144   3.045
 4191SOL     OW12618   2.872   1.878   3.000
 4191SOL    HW112619   2.808   1.815   2.957
 4191SOL    HW212620   2.963   1.838   3.002
 4192SOL     OW12621   2.636   3.194   2.182
 4192SOL    HW112622   2.608   3.098   2.190
 4192SOL    HW212623   2.721   3.207   2.233
 4193SOL     OW12624   2.489   3.420   3.158
 4193SOL    HW112625   2.488   3.507   3.207
 4193SOL    HW212626   2.578   3.406   3.116
 4194SOL     OW12627   3.215   1.913   2.031
 4194SOL    HW112628   3.257   1.846   1.970
 4194SOL    HW212629   3.123   1.883   2.054
 4195SOL     OW12630   3.153   2.326   2.543
 4195SOL    HW112631   3.100   2.411   2.545
 4195SOL    HW212632   3.151   2.283   2.633
 4196SOL     OW12633   3.448   2.065   2.745
 4196SOL    HW112634   3.390   2.084   2.824
 4196SOL    HW212635   3.450   2.145   2.685
 4197SOL     OW12636   1.905   2.927   2.170
 4197SOL    HW112637   2.003   2.926   2.150
 4197SOL    HW212638   1.875   2.834   2.192
 4198SOL     OW12639   2.746   3.523   2.203
 4198SOL    HW112640   2.671   3.502   2.140
 4198SOL    HW212641   2.719   3.601   2.260
 4199SOL     OW12642   2.085   2.481   3.851
 4199SOL    HW112643   1.993   2.482   3.891
 4199SOL    HW212644   2.078   2.458   3.754
 4200SOL     OW12645   2.085   2.144   4.718
 4200SOL    HW112646   2.117   2.110   4.807
 4200SOL    HW212647   1.991   2.112   4.702
 4201SOL     OW12648   1.863   2.248   4.358
 4201SOL    HW112649   1.779   2.278   4.403
 4201SOL    HW212650   1.845   2.164   4.306
 4202SOL     OW12651   2.431   3.158   4.908
 4202SOL    HW112652   2.340   3.154   4.866
 4202SOL    HW212653   2.448   3.250   4.942
 4203SOL     OW12654   3.425   3.373   4.433
 4203SOL    HW112655   3.383   3.349   4.520
 4203SOL    HW212656   3.354   3.381   4.362
 4204SOL     OW12657   2.995   2.564   4.420
 4204SOL    HW112658   3.047   2.648   4.403
 4204SOL    HW212659   2.944   2.573   4.506
 4205SOL     OW12660   3.630   2.462   3.948
 4205SOL    HW112661   3.608   2.458   3.850
 4205SOL    HW212662   3.593   2.382   3.995
 4206SOL     OW12663   2.607   3.003   4.765
 4206SOL    HW112664   2.539   3.038   4.829
 4206SOL    HW212665   2.651   3.080   4.718
 4207SOL     OW12666   2.735   2.628   5.545
 4207SOL    HW112667   2.723   2.696   5.617
 4207SOL    HW212668   2.759   2.673   5.459
 4208SOL     OW12669   2.546   2.861   4.373
 4208SOL    HW112670   2.617   2.851   4.443
 4208SOL    HW212671   2.471   2.917   4.410
 4209SOL     OW12672   2.573   3.015   5.541
 4209SOL    HW112673   2.625   3.094   5.573
 4209SOL    HW212674   2.488   3.047   5.500
 4210SOL     OW12675   2.188   3.286   4.790
 4210SOL    HW112676   2.112   3.241   4.743
 4210SOL    HW212677   2.242   3.338   4.723
 4211SOL     OW12678   3.320   3.363   5.081
 4211SOL    HW112679   3.377   3.445   5.088
 4211SOL    HW212680   3.250   3.365   5.152
 4212SOL     OW12681   2.312   2.256   5.204
 4212SOL    HW112682   2.393   2.198   5.211
 4212SOL    HW212683   2.230   2.202   5.222
 4213SOL     OW12684   3.474   2.308   4.468
 4213SOL    HW112685   3.398   2.328   4.405
 4213SOL    HW212686   3.483   2.384   4.533
 4214SOL     OW12687   2.081   3.575   4.199
 4214SOL    HW112688   2.100   3.655   4.257
 4214SOL    HW212689   2.155   3.565   4.133
 4215SOL     OW12690   2.999   3.202   5.421
 4215SOL    HW112691   3.046   3.200   5.510
 4215SOL    HW212692   2.943   3.120   5.412
 4216SOL     OW12693   2.095   3.308   4.268
 4216SOL    HW112694   2.077   3.406   4.265
 4216SOL    HW212695   2.033   3.264   4.333
 4217SOL     OW12696   2.131   2.952   4.625
 4217SOL    HW112697   2.126   2.858   4.657
 4217SOL    HW212698   2.068   3.009   4.677
 4218SOL     OW12699   2.462   3.658   5.151
 4218SOL    HW112700   2.379   3.634   5.200
 4218SOL    HW212701   2.493   3.749   5.179
 4219SOL     OW12702   2.442   2.843   3.869
 4219SOL    HW112703   2.484   2.895   3.794
 4219SOL    HW212704   2.482   2.873   3.956
 4220SOL     OW12705   3.458   1.986   5.194
 4220SOL    HW112706   3.476   2.066   5.136
 4220SOL    HW212707   3.444   2.016   5.288
 4221SOL     OW12708   1.976   2.522   4.288
 4221SOL    HW112709   1.947   2.427   4.305
 4221SOL    HW212710   1.970   2.574   4.373
 4222SOL     OW12711   3.713   3.630   4.078
 4222SOL    HW112712   3.787   3.599   4.137
 4222SOL    HW212713   3.733   3.723   4.046
 4223SOL     OW12714   1.855   3.447   3.848
 4223SOL    HW112715   1.859   3.353   3.881
 4223SOL    HW212716   1.859   3.510   3.925
 4224SOL     OW12717   3.553   2.783   4.371
 4224SOL    HW112718   3.637   2.732   4.353
 4224SOL    HW212719   3.529   2.837   4.290
 4225SOL     OW12720   3.514   2.967   4.155
 4225SOL    HW112721   3.602   2.964   4.109
 4225SOL    HW212722   3.517   3.033   4.230
 4226SOL     OW12723   1.985   2.606   5.309
 4226SOL    HW112724   2.082   2.632   5.311
 4226SOL    HW212725   1.929   2.689   5.311
 4227SOL     OW12726   2.475   3.254   4.454
 4227SOL    HW112727   2.429   3.167   4.466
 4227SOL    HW212728   2.461   3.286   4.360
 4228SOL     OW12729   3.151   3.098   5.146
 4228SOL    HW112730   3.178   3.027   5.080
 4228SOL    HW212731   3.210   3.093   5.226
 4229SOL     OW12732   2.679   1.870   4.232
 4229SOL    HW112733   2.725   1.956   4.210
 4229SOL    HW212734   2.580   1.886   4.240
 4230SOL     OW12735   2.053   2.824   5.000
 4230SOL    HW112736   2.141   2.781   4.985
 4230SOL    HW212737   1.983   2.776   4.947
 4231SOL     OW12738   3.394   2.861   3.928
 4231SOL    HW112739   3.320   2.800   3.958
 4231SOL    HW212740   3.440   2.899   4.008
 4232SOL     OW12741   3.043   3.672   5.346
 4232SOL    HW112742   3.052   3.741   5.273
 4232SOL    HW212743   3.064   3.581   5.308
 4233SOL     OW12744   2.202   2.111   5.554
 4233SOL    HW112745   2.251   2.197   5.567
 4233SOL    HW212746   2.105   2.124   5.574
 4234SOL     OW12747   3.326   3.282   4.672
 4234SOL    HW112748   3.259   3.301   4.744
 4234SOL    HW212749   3.318   3.186   4.643
 4235SOL     OW12750   3.509   3.613   4.314
 4235SOL    HW112751   3.493   3.590   4.218
 4235SOL    HW212752   3.487   3.534   4.371
 4236SOL     OW12753   2.457   2.581   3.997
 4236SOL    HW112754   2.461   2.666   3.944
 4236SOL    HW212755   2.387   2.590   4.068
 4237SOL     OW12756   3.139   2.219   4.657
 4237SOL    HW112757   3.046   2.185   4.664
 4237SOL    HW212758   3.198   2.167   4.719
 4238SOL     OW12759   3.446   3.548   4.050
 4238SOL    HW112760   3.544   3.568   4.046
 4238SOL    HW212761   3.412   3.530   3.958
 4239SOL     OW12762   2.652   2.475   5.174
 4239SOL    HW112763   2.627   2.451   5.268
 4239SOL    HW212764   2.614   2.407   5.111
 4240SOL     OW12765   3.253   2.332   5.403
 4240SOL    HW112766   3.254   2.381   5.490
 4240SOL    HW212767   3.315   2.253   5.409
 4241SOL     OW12768   2.815   2.747   5.307
 4241SOL    HW112769   2.873   2.675   5.269
 4241SOL    HW212770   2.761   2.789   5.233
 4242SOL     OW12771   2.856   2.268   4.954
 4242SOL    HW112772   2.766   2.291   4.993
 4242SOL    HW212773   2.843   2.219   4.868
 4243SOL     OW12774   2.912   2.560   4.150
 4243SOL    HW112775   2.933   2.555   4.247
 4243SOL    HW212776   2.826   2.511   4.132
 4244SOL     OW12777   1.951   2.689   4.504
 4244SOL    HW112778   2.036   2.677   4.554
 4244SOL    HW212779   1.901   2.768   4.540
 4245SOL     OW12780   1.990   3.732   5.311
 4245SOL    HW112781   1.995   3.704   5.407
 4245SOL    HW212782   1.904   3.700   5.271
 4246SOL     OW12783   2.758   2.214   3.920
 4246SOL    HW112784   2.798   2.282   3.859
 4246SOL    HW212785   2.768   2.123   3.881
 4247SOL     OW12786   3.564   2.435   5.550
 4247SOL    HW112787   3.528   2.514   5.500
 4247SOL    HW212788   3.594   2.365   5.485
 4248SOL     OW12789   3.243   3.003   4.261
 4248SOL    HW112790   3.327   2.987   4.208
 4248SOL    HW212791   3.188   3.073   4.215
 4249SOL     OW12792   2.409   2.036   4.624
 4249SOL    HW112793   2.413   2.066   4.719
 4249SOL    HW212794   2.412   2.116   4.564
 4250SOL     OW12795   2.867   3.304   4.199
 4250SOL    HW112796   2.839   3.384   4.146
 4250SOL    HW212797   2.844   3.318   4.295
 4251SOL     OW12798   2.218   3.675   4.594
 4251SOL    HW112799   2.261   3.585   4.600
 4251SOL    HW212800   2.285   3.747   4.612
 4252SOL     OW12801   3.660   2.919   4.595
 4252SOL    HW112802   3.609   2.896   4.512
 4252SOL    HW212803   3.598   2.925   4.673
 4253SOL     OW12804   3.088   3.398   5.238
 4253SOL    HW112805   3.075   3.324   5.304
 4253SOL    HW212806   3.021   3.389   5.165
 4254SOL     OW12807   2.182   2.819   3.979
 4254SOL    HW112808   2.270   2.841   3.937
 4254SOL    HW212809   2.146   2.735   3.939
 4255SOL     OW12810   3.345   2.611   4.448
 4255SOL    HW112811   3.338   2.566   4.537
 4255SOL    HW212812   3.425   2.670   4.446
 4256SOL     OW12813   2.330   3.127   5.455
 4256SOL    HW112814   2.304   3.133   5.359
 4256SOL    HW212815   2.248   3.124   5.512
 4257SOL     OW12816   2.983   3.633   3.946
 4257SOL    HW112817   2.916   3.603   4.013
 4257SOL    HW212818   2.970   3.583   3.861
 4258SOL     OW12819   2.064   2.138   5.227
 4258SOL    HW112820   1.982   2.195   5.222
 4258SOL    HW212821   2.043   2.052   5.273
 4259SOL     OW12822   3.486   3.224   3.833
 4259SOL    HW112823   3.457   3.319   3.843
 4259SOL    HW212824   3.407   3.168   3.807
 4260SOL     OW12825   2.323   3.598   4.048
 4260SOL    HW112826   2.361   3.660   4.116
 4260SOL    HW212827   2.393   3.574   3.981
 4261SOL     OW12828   3.263   1.966   4.160
 4261SOL    HW112829   3.251   1.941   4.064
 4261SOL    HW212830   3.361   1.976   4.179
 4262SOL     OW12831   2.120   3.654   4.951
 4262SOL    HW112832   2.171   3.582   4.998
 4262SOL    HW212833   2.101   3.625   4.857
 4263SOL     OW12834   2.798   3.564   4.621
 4263SOL    HW112835   2.881   3.517   4.653
 4263SOL    HW212836   2.756   3.512   4.548
 4264SOL     OW12837   2.257   2.550   4.200
 4264SOL    HW112838   2.278   2.453   4.213
 4264SOL    HW212839   2.160   2.567   4.216
 4265SOL     OW12840   3.391   2.085   5.452
 4265SOL    HW112841   3.402   2.106   5.549
 4265SOL    HW212842   3.319   2.017   5.440
 4266SOL     OW12843   2.501   1.980   3.826
 4266SOL    HW112844   2.571   1.911   3.847
 4266SOL    HW212845   2.446   1.948   3.749
 4267SOL     OW12846   2.626   2.138   5.481
 4267SOL    HW112847   2.710   2.084   5.475
 4267SOL    HW212848   2.574   2.111   5.562
 4268SOL     OW12849   2.737   3.377   4.916
 4268SOL    HW112850   2.718   3.341   4.825
 4268SOL    HW212851   2.810   3.323   4.959
 4269SOL     OW12852   3.202   2.451   5.159
 4269SOL    HW112853   3.232   2.416   5.248
 4269SOL    HW212854   3.237   2.543   5.146
 4270SOL     OW12855   2.681   3.252   4.664
 4270SOL    HW112856   2.771   3.240   4.622
 4270SOL    HW212857   2.612   3.257   4.593
 4271SOL     OW12858   2.789   2.369   4.622
 4271SOL    HW112859   2.763   2.362   4.526
 4271SOL    HW212860   2.821   2.281   4.655
 4272SOL     OW12861   2.409   1.926   4.219
 4272SOL    HW112862   2.327   1.924   4.276
 4272SOL    HW212863   2.406   2.007   4.160
 4273SOL     OW12864   3.287   3.057   3.765
 4273SOL    HW112865   3.319   2.980   3.820
 4273SOL    HW212866   3.199   3.089   3.801
 4274SOL     OW12867   2.153   1.910   3.910
 4274SOL    HW112868   2.205   1.982   3.864
 4274SOL    HW212869   2.215   1.845   3.953
 4275SOL     OW12870   2.808   2.112   4.181
 4275SOL    HW112871   2.775   2.154   4.096
 4275SOL    HW212872   2.906   2.126   4.190
 4276SOL     OW12873   2.941   2.544   5.180
 4276SOL    HW112874   2.866   2.479   5.185
 4276SOL    HW212875   3.029   2.495   5.175
 4277SOL     OW12876   3.082   3.431   4.518
 4277SOL    HW112877   3.096   3.501   4.448
 4277SOL    HW212878   3.153   3.438   4.588
 4278SOL     OW12879   2.331   3.015   4.452
 4278SOL    HW112880   2.264   2.994   4.523
 4278SOL    HW212881   2.289   3.001   4.362
 4279SOL     OW12882   3.124   3.655   4.333
 4279SOL    HW112883   3.178   3.717   4.276
 4279SOL    HW212884   3.053   3.706   4.381
 4280SOL     OW12885   2.883   2.398   3.753
 4280SOL    HW112886   2.838   2.484   3.729
 4280SOL    HW212887   2.953   2.416   3.822
 4281SOL     OW12888   1.948   2.419   5.115
 4281SOL    HW112889   2.042   2.414   5.083
 4281SOL    HW212890   1.940   2.490   5.185
 4282SOL     OW12891   2.420   2.086   4.895
 4282SOL    HW112892   2.470   2.010   4.937
 4282SOL    HW212893   2.325   2.084   4.925
 4283SOL     OW12894   2.728   2.321   4.361
 4283SOL    HW112895   2.680   2.382   4.298
 4283SOL    HW212896   2.755   2.238   4.312
 4284SOL     OW12897   2.879   1.915   4.470
 4284SOL    HW112898   2.818   1.915   4.391
 4284SOL    HW212899   2.854   1.839   4.531
 4285SOL     OW12900   3.306   3.023   4.582
 4285SOL    HW112901   3.231   2.958   4.586
 4285SOL    HW212902   3.336   3.034   4.487
 4286SOL     OW12903   3.330   2.470   4.695
 4286SOL    HW112904   3.268   2.390   4.695
 4286SOL    HW212905   3.391   2.463   4.774
 4287SOL     OW12906   3.704   2.672   4.105
 4287SOL    HW112907   3.763   2.623   4.170
 4287SOL    HW212908   3.674   2.608   4.033
 4288SOL     OW12909   2.356   3.227   3.919
 4288SOL    HW112910   2.265   3.218   3.960
 4288SOL    HW212911   2.349   3.222   3.819
 4289SOL     OW12912   3.536   3.128   4.367
 4289SOL    HW112913   3.635   3.126   4.380
 4289SOL    HW212914   3.502   3.220   4.389
 4290SOL     OW12915   3.253   2.434   3.796
 4290SOL    HW112916   3.190   2.412   3.870
 4290SOL    HW212917   3.346   2.408   3.821
 4291SOL     OW12918   2.390   2.126   4.035
 4291SOL    HW112919   2.437   2.073   3.964
 4291SOL    HW212920   2.362   2.215   3.997
 4292SOL     OW12921   3.615   3.102   5.286
 4292SOL    HW112922   3.705   3.060   5.275
 4292SOL    HW212923   3.626   3.196   5.320
 4293SOL     OW12924   2.916   3.212   5.060
 4293SOL    HW112925   2.835   3.182   5.110
 4293SOL    HW212926   2.998   3.172   5.102
 4294SOL     OW12927   3.475   3.491   5.380
 4294SOL    HW112928   3.460   3.526   5.288
 4294SOL    HW212929   3.561   3.440   5.383
 4295SOL     OW12930   2.998   3.080   4.829
 4295SOL    HW112931   2.938   3.114   4.902
 4295SOL    HW212932   2.964   3.110   4.740
 4296SOL     OW12933   3.487   2.959   4.803
 4296SOL    HW112934   3.483   3.024   4.879
 4296SOL    HW212935   3.410   2.975   4.741
 4297SOL     OW12936   2.785   1.956   5.116
 4297SOL    HW112937   2.806   1.934   5.021
 4297SOL    HW212938   2.864   2.000   5.158
 4298SOL     OW12939   2.841   2.976   5.445
 4298SOL    HW112940   2.747   2.996   5.472
 4298SOL    HW212941   2.844   2.894   5.389
 4299SOL     OW12942   2.575   2.921   4.097
 4299SOL    HW112943   2.556   2.904   4.194
 4299SOL    HW212944   2.653   2.866   4.068
 4300SOL     OW12945   2.284   2.676   4.978
 4300SOL    HW112946   2.357   2.690   5.045
 4300SOL    HW212947   2.245   2.585   4.988
 4301SOL     OW12948   3.125   2.238   5.004
 4301SOL    HW112949   3.162   2.317   5.053
 4301SOL    HW212950   3.030   2.256   4.979
 4302SOL     OW12951   1.936   3.434   5.077
 4302SOL    HW112952   1.900   3.505   5.015
 4302SOL    HW212953   2.036   3.433   5.071
 4303SOL     OW12954   2.207   2.980   4.210
 4303SOL    HW112955   2.212   3.061   4.153
 4303SOL    HW212956   2.203   2.898   4.153
 4304SOL     OW12957   2.411   2.405   4.586
 4304SOL    HW112958   2.425   2.465   4.507
 4304SOL    HW212959   2.480   2.426   4.655
 4305SOL     OW12960   3.114   3.215   4.129
 4305SOL    HW112961   3.174   3.290   4.157
 4305SOL    HW212962   3.020   3.235   4.157
 4306SOL     OW12963   3.148   3.323   4.871
 4306SOL    HW112964   3.207   3.329   4.952
 4306SOL    HW212965   3.094   3.240   4.876
 4307SOL     OW12966   3.440   2.483   4.206
 4307SOL    HW112967   3.389   2.532   4.277
 4307SOL    HW212968   3.487   2.549   4.148
 4308SOL     OW12969   2.210   3.392   5.034
 4308SOL    HW112970   2.194   3.347   4.946
 4308SOL    HW212971   2.308   3.405   5.046
 4309SOL     OW12972   2.277   2.608   5.324
 4309SOL    HW112973   2.343   2.654   5.265
 4309SOL    HW212974   2.310   2.516   5.347
 4310SOL     OW12975   3.469   2.647   5.408
 4310SOL    HW112976   3.378   2.688   5.406
 4310SOL    HW212977   3.526   2.687   5.337
 4311SOL     OW12978   2.859   1.995   5.474
 4311SOL    HW112979   2.917   2.074   5.458
 4311SOL    HW212980   2.908   1.912   5.448
 4312SOL     OW12981   2.354   1.898   5.474
 4312SOL    HW112982   2.310   1.840   5.406
 4312SOL    HW212983   2.297   1.978   5.492
 4313SOL     OW12984   2.446   2.733   4.758
 4313SOL    HW112985   2.481   2.827   4.755
 4313SOL    HW212986   2.386   2.723   4.837
 4314SOL     OW12987   3.215   2.719   4.749
 4314SOL    HW112988   3.125   2.712   4.707
 4314SOL    HW212989   3.263   2.632   4.741
 4315SOL     OW12990   3.060   2.388   3.989
 4315SOL    HW112991   3.073   2.306   4.044
 4315SOL    HW212992   3.016   2.459   4.045
 4316SOL     OW12993   2.159   2.059   4.971
 4316SOL    HW112994   2.123   2.095   5.056
 4316SOL    HW212995   2.143   1.960   4.967
 4317SOL     OW12996   1.914   3.172   5.000
 4317SOL    HW112997   1.946   3.111   5.072
 4317SOL    HW212998   1.917   3.266   5.032
 4318SOL     OW12999   2.586   2.493   4.779
 4318SOL    HW113000   2.663   2.473   4.718
 4318SOL    HW213001   2.551   2.585   4.760
 4319SOL     OW13002   3.597   2.822   5.579
 4319SOL    HW113003   3.554   2.754   5.520
 4319SOL    HW213004   3.538   2.841   5.657
 4320SOL     OW13005   2.168   1.923   4.352
 4320SOL    HW113006   2.144   2.019   4.370
 4320SOL    HW213007   2.179   1.875   4.438
 4321SOL     OW13008   3.488   2.242   4.087
 4321SOL    HW113009   3.514   2.169   4.150
 4321SOL    HW213010   3.460   2.322   4.139
 4322SOL     OW13011   2.886   2.617   4.682
 4322SOL    HW113012   2.881   2.639   4.780
 4322SOL    HW213013   2.859   2.522   4.668
 4323SOL     OW13014   2.843   3.425   5.441
 4323SOL    HW113015   2.827   3.473   5.355
 4323SOL    HW213016   2.891   3.339   5.423
 4324SOL     OW13017   3.717   3.366   5.328
 4324SOL    HW113018   3.736   3.392   5.233
 4324SOL    HW213019   3.800   3.378   5.382
 4325SOL     OW13020   2.215   2.780   5.529
 4325SOL    HW113021   2.295   2.801   5.584
 4325SOL    HW213022   2.240   2.714   5.458
 4326SOL     OW13023   3.390   2.130   3.854
 4326SOL    HW113024   3.320   2.063   3.879
 4326SOL    HW213025   3.426   2.172   3.937
 4327SOL     OW13026   3.150   2.684   3.754
 4327SOL    HW113027   3.191   2.594   3.764
 4327SOL    HW213028   3.176   2.723   3.665
 4328SOL     OW13029   2.931   3.199   4.578
 4328SOL    HW113030   2.935   3.121   4.516
 4328SOL    HW213031   2.991   3.272   4.544
 4329SOL     OW13032   2.173   2.668   4.667
 4329SOL    HW113033   2.269   2.694   4.662
 4329SOL    HW213034   2.165   2.574   4.700
 4330SOL     OW13035   2.190   2.389   4.735
 4330SOL    HW113036   2.151   2.297   4.724
 4330SOL    HW213037   2.270   2.398   4.677
 4331SOL     OW13038   2.996   2.235   5.416
 4331SOL    HW113039   2.943   2.292   5.478
 4331SOL    HW213040   3.088   2.272   5.407
 4332SOL     OW13041   3.024   2.066   5.199
 4332SOL    HW113042   3.009   2.128   5.276
 4332SOL    HW213043   3.066   2.115   5.124
 4333SOL     OW13044   1.863   3.174   3.922
 4333SOL    HW113045   1.775   3.190   3.879
 4333SOL    HW213046   1.867   3.080   3.957
 4334SOL     OW13047   1.955   3.646   4.667
 4334SOL    HW113048   1.918   3.565   4.622
 4334SOL    HW213049   2.049   3.662   4.635
 4335SOL     OW13050   2.356   3.437   4.629
 4335SOL    HW113051   2.426   3.504   4.655
 4335SOL    HW213052   2.396   3.371   4.566
 4336SOL     OW13053   2.838   2.656   4.949
 4336SOL    HW113054   2.898   2.632   5.025
 4336SOL    HW213055   2.748   2.614   4.962
 4337SOL     OW13056   1.899   2.414   4.841
 4337SOL    HW113057   1.981   2.400   4.786
 4337SOL    HW213058   1.924   2.416   4.938
 4338SOL     OW13059   2.055   2.385   5.454
 4338SOL    HW113060   2.107   2.331   5.388
 4338SOL    HW213061   2.014   2.464   5.408
 4339SOL     OW13062   3.242   2.798   5.379
 4339SOL    HW113063   3.265   2.895   5.380
 4339SOL    HW213064   3.238   2.765   5.284
 4340SOL     OW13065   2.679   2.434   4.084
 4340SOL    HW113066   2.688   2.354   4.024
 4340SOL    HW213067   2.601   2.489   4.055
 4341SOL     OW13068   3.505   2.465   4.906
 4341SOL    HW113069   3.488   2.405   4.984
 4341SOL    HW213070   3.596   2.447   4.869
 4342SOL     OW13071   2.103   3.409   5.450
 4342SOL    HW113072   2.081   3.484   5.514
 4342SOL    HW213073   2.108   3.323   5.501
 4343SOL     OW13074   2.569   2.310   4.978
 4343SOL    HW113075   2.511   2.232   4.953
 4343SOL    HW213076   2.566   2.378   4.904
 4344SOL     OW13077   2.782   3.543   5.195
 4344SOL    HW113078   2.757   3.497   5.110
 4344SOL    HW213079   2.782   3.642   5.181
 4345SOL     OW13080   2.322   2.357   3.910
 4345SOL    HW113081   2.386   2.430   3.935
 4345SOL    HW213082   2.231   2.397   3.896
 4346SOL     OW13083   2.005   2.999   5.199
 4346SOL    HW113084   2.006   2.954   5.288
 4346SOL    HW213085   2.025   2.933   5.127
 4347SOL     OW13086   3.179   2.906   4.943
 4347SOL    HW113087   3.206   2.838   4.875
 4347SOL    HW213088   3.111   2.967   4.903
 4348SOL     OW13089   3.177   2.718   4.026
 4348SOL    HW113090   3.100   2.691   4.084
 4348SOL    HW213091   3.153   2.705   3.930
 4349SOL     OW13092   3.641   3.593   4.880
 4349SOL    HW113093   3.702   3.627   4.809
 4349SOL    HW213094   3.610   3.501   4.856
 4350SOL     OW13095   3.103   3.595   4.829
 4350SOL    HW113096   3.189   3.623   4.786
 4350SOL    HW213097   3.109   3.498   4.853
 4351SOL     OW13098   1.948   3.127   4.735
 4351SOL    HW113099   1.932   3.142   4.832
 4351SOL    HW213100   1.875   3.069   4.698
 4352SOL     OW13101   2.542   3.535   5.459
 4352SOL    HW113102   2.480   3.613   5.455
 4352SOL    HW213103   2.615   3.546   5.391
 4353SOL     OW13104   3.581   2.011   4.224
 4353SOL    HW113105   3.657   2.001   4.159
 4353SOL    HW213106   3.564   1.923   4.269
 4354SOL     OW13107   3.256   3.435   4.214
 4354SOL    HW113108   3.323   3.470   4.149
 4354SOL    HW213109   3.200   3.511   4.248
 4355SOL     OW13110   2.007   3.649   5.570
 4355SOL    HW113111   1.949   3.581   5.615
 4355SOL    HW213112   2.056   3.703   5.638
 4356SOL     OW13113   3.144   2.789   4.390
 4356SOL    HW113114   3.218   2.725   4.406
 4356SOL    HW213115   3.177   2.866   4.336
 4357SOL     OW13116   2.667   3.140   5.151
 4357SOL    HW113117   2.638   3.183   5.236
 4357SOL    HW213118   2.598   3.155   5.080
 4358SOL     OW13119   3.479   3.591   5.111
 4358SOL    HW113120   3.537   3.592   5.029
 4358SOL    HW213121   3.465   3.684   5.143
 4359SOL     OW13122   3.704   2.032   4.688
 4359SOL    HW113123   3.738   1.941   4.665
 4359SOL    HW213124   3.613   2.044   4.648
 4360SOL     OW13125   2.118   2.176   4.440
 4360SOL    HW113126   2.030   2.213   4.412
 4360SOL    HW213127   2.121   2.168   4.539
 4361SOL     OW13128   2.685   2.871   5.102
 4361SOL    HW113129   2.736   2.856   5.017
 4361SOL    HW213130   2.683   2.969   5.122
 4362SOL     OW13131   2.782   2.771   4.014
 4362SOL    HW113132   2.845   2.807   3.945
 4362SOL    HW213133   2.827   2.699   4.066
 4363SOL     OW13134   3.351   3.507   3.795
 4363SOL    HW113135   3.269   3.459   3.764
 4363SOL    HW213136   3.420   3.506   3.723
 4364SOL     OW13137   2.228   3.165   5.211
 4364SOL    HW113138   2.218   3.245   5.152
 4364SOL    HW213139   2.148   3.105   5.200
 4365SOL     OW13140   3.476   3.146   5.008
 4365SOL    HW113141   3.539   3.127   5.083
 4365SOL    HW213142   3.410   3.216   5.036
 4366SOL     OW13143   2.922   2.968   4.438
 4366SOL    HW113144   2.846   2.918   4.478
 4366SOL    HW213145   2.990   2.904   4.404
 4367SOL     OW13146   2.884   2.101   4.691
 4367SOL    HW113147   2.880   2.057   4.601
 4367SOL    HW213148   2.882   2.032   4.763
 4368SOL     OW13149   2.469   3.357   4.197
 4368SOL    HW113150   2.513   3.294   4.133
 4368SOL    HW213151   2.385   3.392   4.157
 4369SOL     OW13152   3.593   2.256   5.105
 4369SOL    HW113153   3.665   2.324   5.105
 4369SOL    HW213154   3.618   2.181   5.044
 4370SOL     OW13155   2.109   3.209   4.023
 4370SOL    HW113156   2.014   3.201   3.992
 4370SOL    HW213157   2.111   3.250   4.114
 4371SOL     OW13158   1.976   2.895   5.451
 4371SOL    HW113159   1.895   2.868   5.502
 4371SOL    HW213160   2.057   2.850   5.490
 4372SOL     OW13161   2.545   2.056   5.224
 4372SOL    HW113162   2.631   2.032   5.179
 4372SOL    HW213163   2.563   2.090   5.316
 4373SOL     OW13164   1.943   2.191   3.753
 4373SOL    HW113165   1.851   2.167   3.722
 4373SOL    HW213166   1.976   2.272   3.705
 4374SOL     OW13167   3.286   2.719   5.119
 4374SOL    HW113168   3.231   2.783   5.066
 4374SOL    HW213169   3.380   2.720   5.086
 4375SOL     OW13170   1.926   2.017   4.027
 4375SOL    HW113171   1.909   2.102   3.977
 4375SOL    HW213172   2.014   1.979   4.000
 4376SOL     OW13173   3.061   3.167   3.864
 4376SOL    HW113174   2.969   3.129   3.860
 4376SOL    HW213175   3.086   3.184   3.959
 4377SOL     OW13176   2.485   2.692   5.157
 4377SOL    HW113177   2.542   2.773   5.143
 4377SOL    HW213178   2.543   2.611   5.167
 4378SOL     OW13179   3.347   3.649   4.710
 4378SOL    HW113180   3.369   3.710   4.634
 4378SOL    HW213181   3.432   3.616   4.752
 4379SOL     OW13182   2.584   2.421   5.427
 4379SOL    HW113183   2.628   2.488   5.486
 4379SOL    HW213184   2.604   2.329   5.460
 4380SOL     OW13185   3.335   3.059   5.359
 4380SOL    HW113186   3.320   3.072   5.457
 4380SOL    HW213187   3.431   3.077   5.337
 4381SOL     OW13188   2.234   3.600   5.290
 4381SOL    HW113189   2.150   3.652   5.276
 4381SOL    HW213190   2.213   3.512   5.333
 4382SOL     OW13191   3.528   2.740   4.980
 4382SOL    HW113192   3.523   2.649   4.939
 4382SOL    HW213193   3.516   2.809   4.909
 4383SOL     OW13194   3.081   2.178   4.184
 4383SOL    HW113195   3.145   2.102   4.174
 4383SOL    HW213196   3.108   2.234   4.263
 4384SOL     OW13197   2.449   2.599   4.393
 4384SOL    HW113198   2.490   2.689   4.382
 4384SOL    HW213199   2.379   2.586   4.322
 4385SOL     OW13200   3.614   2.227   5.376
 4385SOL    HW113201   3.604   2.243   5.278
 4385SOL    HW213202   3.540   2.167   5.408
 4386SOL     OW13203   3.613   2.794   5.234
 4386SOL    HW113204   3.603   2.891   5.255
 4386SOL    HW213205   3.593   2.779   5.137
 4387SOL     OW13206   2.526   3.648   4.666
 4387SOL    HW113207   2.503   3.743   4.645
 4387SOL    HW213208   2.625   3.635   4.656
 4388SOL     OW13209   2.731   2.832   4.581
 4388SOL    HW113210   2.782   2.754   4.617
 4388SOL    HW213211   2.689   2.883   4.656
 4389SOL     OW13212   2.943   2.853   3.816
 4389SOL    HW113213   2.903   2.894   3.735
 4389SOL    HW213214   3.021   2.795   3.789
 4390SOL     OW13215   3.710   3.418   4.571
 4390SOL    HW113216   3.633   3.407   4.508
 4390SOL    HW213217   3.705   3.348   4.643
 4391SOL     OW13218   2.092   3.161   5.581
 4391SOL    HW113219   2.027   3.094   5.546
 4391SOL    HW213220   2.077   3.175   5.678
 4392SOL     OW13221   1.948   3.092   4.388
 4392SOL    HW113222   1.952   3.045   4.476
 4392SOL    HW213223   2.016   3.054   4.325
 4393SOL     OW13224   2.544   3.271   5.357
 4393SOL    HW113225   2.463   3.221   5.389
 4393SOL    HW213226   2.542   3.363   5.394
 4394SOL     OW13227   3.667   2.045   4.958
 4394SOL    HW113228   3.683   1.949   4.982
 4394SOL    HW213229   3.679   2.056   4.859
 4395SOL     OW13230   2.293   2.290   4.251
 4395SOL    HW113231   2.326   2.220   4.188
 4395SOL    HW213232   2.238   2.247   4.323
 4396SOL     OW13233   3.555   3.345   4.818
 4396SOL    HW113234   3.474   3.327   4.763
 4396SOL    HW213235   3.565   3.274   4.888
 4397SOL     OW13236   2.196   2.418   5.013
 4397SOL    HW113237   2.253   2.361   5.073
 4397SOL    HW213238   2.212   2.392   4.918
 4398SOL     OW13239   2.690   3.441   4.404
 4398SOL    HW113240   2.673   3.503   4.328
 4398SOL    HW213241   2.614   3.376   4.412
 4399SOL     OW13242   3.293   2.092   4.841
 4399SOL    HW113243   3.316   2.003   4.880
 4399SOL    HW213244   3.238   2.144   4.908
 4400SOL     OW13245   2.872   1.878   4.862
 4400SOL    HW113246   2.808   1.815   4.819
 4400SOL    HW213247   2.963   1.838   4.864
 4401SOL     OW13248   2.644   3.199   4.051
 4401SOL    HW113249   2.605   3.106   4.050
 4401SOL    HW213250   2.730   3.198   4.102
 4402SOL     OW13251   2.485   3.421   5.013
 4402SOL    HW113252   2.483   3.508   5.063
 4402SOL    HW213253   2.576   3.408   4.973
 4403SOL     OW13254   3.215   1.913   3.893
 4403SOL    HW113255   3.257   1.846   3.831
 4403SOL    HW213256   3.123   1.883   3.916
 4404SOL     OW13257   3.153   2.326   4.405
 4404SOL    HW113258   3.100   2.411   4.407
 4404SOL    HW213259   3.151   2.283   4.495
 4405SOL     OW13260   3.448   2.066   4.607
 4405SOL    HW113261   3.389   2.085   4.686
 4405SOL    HW213262   3.450   2.145   4.547
 4406SOL     OW13263   1.905   2.925   4.033
 4406SOL    HW113264   2.003   2.925   4.012
 4406SOL    HW213265   1.876   2.832   4.055
 4407SOL     OW13266   2.753   3.518   4.072
 4407SOL    HW113267   2.677   3.459   4.047
 4407SOL    HW213268   2.719   3.596   4.125
 4408SOL     OW13269   2.084   2.482   5.713
 4408SOL    HW113270   1.993   2.482   5.753
 4408SOL    HW213271   2.078   2.459   5.616
 4409SOL     OW13272   2.083   2.148   6.582
 4409SOL    HW113273   2.118   2.110   6.667
 4409SOL    HW213274   1.991   2.113   6.565
 4410SOL     OW13275   1.863   2.248   6.221
 4410SOL    HW113276   1.778   2.279   6.265
 4410SOL    HW213277   1.844   2.164   6.169
 4411SOL     OW13278   2.420   3.145   6.758
 4411SOL    HW113279   2.331   3.161   6.714
 4411SOL    HW213280   2.449   3.228   6.805
 4412SOL     OW13281   3.425   3.374   6.294
 4412SOL    HW113282   3.381   3.352   6.380
 4412SOL    HW213283   3.356   3.382   6.222
 4413SOL     OW13284   2.994   2.565   6.282
 4413SOL    HW113285   3.046   2.649   6.266
 4413SOL    HW213286   2.943   2.572   6.367
 4414SOL     OW13287   3.631   2.462   5.809
 4414SOL    HW113288   3.608   2.457   5.712
 4414SOL    HW213289   3.593   2.382   5.856
 4415SOL     OW13290   2.619   3.006   6.629
 4415SOL    HW113291   2.546   3.032   6.691
 4415SOL    HW213292   2.652   3.087   6.580
 4416SOL     OW13293   2.546   2.861   6.235
 4416SOL    HW113294   2.616   2.850   6.305
 4416SOL    HW213295   2.471   2.917   6.272
 4417SOL     OW13296   2.192   3.274   6.645
 4417SOL    HW113297   2.111   3.236   6.601
 4417SOL    HW213298   2.241   3.333   6.580
 4418SOL     OW13299   3.474   2.310   6.329
 4418SOL    HW113300   3.397   2.327   6.267
 4418SOL    HW213301   3.478   2.383   6.398
 4419SOL     OW13302   2.084   3.576   6.058
 4419SOL    HW113303   2.102   3.655   6.116
 4419SOL    HW213304   2.158   3.566   5.992
 4420SOL     OW13305   2.095   3.305   6.122
 4420SOL    HW113306   2.079   3.404   6.122
 4420SOL    HW213307   2.035   3.261   6.189
 4421SOL     OW13308   2.129   2.953   6.488
 4421SOL    HW113309   2.125   2.859   6.523
 4421SOL    HW213310   2.068   3.011   6.542
 4422SOL     OW13311   2.472   3.667   6.988
 4422SOL    HW113312   2.383   3.640   0.025
 4422SOL    HW213313   2.497   3.758   0.022
 4423SOL     OW13314   2.445   2.849   5.726
 4423SOL    HW113315   2.492   2.896   5.651
 4423SOL    HW213316   2.485   2.877   5.814
 4424SOL     OW13317   1.976   2.522   6.150
 4424SOL    HW113318   1.946   2.428   6.166
 4424SOL    HW213319   1.970   2.575   6.235
 4425SOL     OW13320   3.707   3.618   5.919
 4425SOL    HW113321   3.777   3.587   5.984
 4425SOL    HW213322   3.724   3.714   5.896
 4426SOL     OW13323   1.891   3.453   5.710
 4426SOL    HW113324   1.875   3.356   5.729
 4426SOL    HW213325   1.870   3.507   5.791
 4427SOL     OW13326   3.553   2.783   6.231
 4427SOL    HW113327   3.637   2.732   6.214
 4427SOL    HW213328   3.529   2.836   6.150
 4428SOL     OW13329   3.514   2.967   6.018
 4428SOL    HW113330   3.603   2.965   5.972
 4428SOL    HW213331   3.517   3.034   6.092
 4429SOL     OW13332   2.473   3.251   6.320
 4429SOL    HW113333   2.427   3.164   6.333
 4429SOL    HW213334   2.460   3.282   6.225
 4430SOL     OW13335   2.679   1.870   6.094
 4430SOL    HW113336   2.725   1.956   6.072
 4430SOL    HW213337   2.580   1.886   6.102
 4431SOL     OW13338   2.056   2.837   6.842
 4431SOL    HW113339   2.138   2.781   6.827
 4431SOL    HW213340   1.975   2.783   6.821
 4432SOL     OW13341   3.394   2.862   5.790
 4432SOL    HW113342   3.320   2.801   5.819
 4432SOL    HW213343   3.440   2.899   5.870
 4433SOL     OW13344   3.315   3.285   6.532
 4433SOL    HW113345   3.256   3.299   6.612
 4433SOL    HW213346   3.312   3.189   6.505
 4434SOL     OW13347   3.512   3.610   6.162
 4434SOL    HW113348   3.494   3.581   6.068
 4434SOL    HW213349   3.492   3.535   6.225
 4435SOL     OW13350   2.457   2.582   5.858
 4435SOL    HW113351   2.462   2.667   5.805
 4435SOL    HW213352   2.388   2.591   5.929
 4436SOL     OW13353   3.137   2.217   6.517
 4436SOL    HW113354   3.043   2.184   6.525
 4436SOL    HW213355   3.195   2.167   6.581
 4437SOL     OW13356   3.445   3.534   5.894
 4437SOL    HW113357   3.541   3.562   5.890
 4437SOL    HW213358   3.413   3.517   5.801
 4438SOL     OW13359   2.656   2.470   0.046
 4438SOL    HW113360   2.594   2.513   0.112
 4438SOL    HW213361   2.604   2.415   6.981
 4439SOL     OW13362   2.867   2.255   6.795
 4439SOL    HW113363   2.806   2.309   6.853
 4439SOL    HW213364   2.814   2.209   6.724
 4440SOL     OW13365   2.912   2.561   6.011
 4440SOL    HW113366   2.934   2.556   6.109
 4440SOL    HW213367   2.826   2.513   5.994
 4441SOL     OW13368   1.952   2.688   6.366
 4441SOL    HW113369   2.037   2.677   6.417
 4441SOL    HW213370   1.902   2.767   6.401
 4442SOL     OW13371   2.004   3.691   0.138
 4442SOL    HW113372   1.948   3.652   0.211
 4442SOL    HW213373   1.946   3.713   0.059
 4443SOL     OW13374   2.758   2.215   5.782
 4443SOL    HW113375   2.798   2.282   5.720
 4443SOL    HW213376   2.768   2.123   5.743
 4444SOL     OW13377   3.241   3.005   6.120
 4444SOL    HW113378   3.325   2.989   6.069
 4444SOL    HW213379   3.185   3.072   6.071
 4445SOL     OW13380   2.408   2.035   6.484
 4445SOL    HW113381   2.414   2.067   6.579
 4445SOL    HW213382   2.412   2.114   6.423
 4446SOL     OW13383   2.858   3.305   6.050
 4446SOL    HW113384   2.825   3.385   6.000
 4446SOL    HW213385   2.842   3.318   6.148
 4447SOL     OW13386   2.218   3.676   6.455
 4447SOL    HW113387   2.261   3.586   6.462
 4447SOL    HW213388   2.285   3.748   6.473
 4448SOL     OW13389   3.663   2.919   6.452
 4448SOL    HW113390   3.612   2.895   6.369
 4448SOL    HW213391   3.601   2.920   6.530
 4449SOL     OW13392   2.184   2.821   5.840
 4449SOL    HW113393   2.272   2.841   5.796
 4449SOL    HW213394   2.147   2.736   5.802
 4450SOL     OW13395   3.344   2.611   6.307
 4450SOL    HW113396   3.337   2.564   6.395
 4450SOL    HW213397   3.425   2.670   6.307
 4451SOL     OW13398   2.983   3.638   5.813
 4451SOL    HW113399   2.904   3.600   5.861
 4451SOL    HW213400   3.013   3.574   5.742
 4452SOL     OW13401   3.487   3.244   5.674
 4452SOL    HW113402   3.448   3.334   5.658
 4452SOL    HW213403   3.417   3.174   5.655
 4453SOL     OW13404   2.327   3.597   5.905
 4453SOL    HW113405   2.368   3.659   5.971
 4453SOL    HW213406   2.398   3.561   5.844
 4454SOL     OW13407   3.263   1.966   6.022
 4454SOL    HW113408   3.251   1.941   5.926
 4454SOL    HW213409   3.361   1.975   6.042
 4455SOL     OW13410   2.123   3.658   6.814
 4455SOL    HW113411   2.168   3.590   6.872
 4455SOL    HW213412   2.105   3.618   6.724
 4456SOL     OW13413   2.798   3.562   6.482
 4456SOL    HW113414   2.883   3.517   6.508
 4456SOL    HW213415   2.755   3.511   6.407
 4457SOL     OW13416   2.257   2.551   6.061
 4457SOL    HW113417   2.278   2.454   6.074
 4457SOL    HW213418   2.160   2.567   6.078
 4458SOL     OW13419   2.502   1.980   5.688
 4458SOL    HW113420   2.572   1.911   5.709
 4458SOL    HW213421   2.446   1.948   5.612
 4459SOL     OW13422   2.726   3.380   6.764
 4459SOL    HW113423   2.710   3.347   6.671
 4459SOL    HW213424   2.769   3.308   6.818
 4460SOL     OW13425   2.680   3.252   6.520
 4460SOL    HW113426   2.770   3.241   6.478
 4460SOL    HW213427   2.610   3.256   6.449
 4461SOL     OW13428   2.789   2.370   6.485
 4461SOL    HW113429   2.762   2.362   6.389
 4461SOL    HW213430   2.826   2.283   6.516
 4462SOL     OW13431   2.409   1.926   6.081
 4462SOL    HW113432   2.327   1.924   6.138
 4462SOL    HW213433   2.406   2.007   6.022
 4463SOL     OW13434   3.288   3.060   5.629
 4463SOL    HW113435   3.321   2.983   5.682
 4463SOL    HW213436   3.199   3.089   5.665
 4464SOL     OW13437   2.153   1.910   5.772
 4464SOL    HW113438   2.205   1.981   5.725
 4464SOL    HW213439   2.215   1.845   5.815
 4465SOL     OW13440   2.808   2.112   6.043
 4465SOL    HW113441   2.776   2.154   5.958
 4465SOL    HW213442   2.906   2.125   6.052
 4466SOL     OW13443   3.080   3.433   6.382
 4466SOL    HW113444   3.095   3.503   6.312
 4466SOL    HW213445   3.159   3.431   6.444
 4467SOL     OW13446   2.330   3.012   6.316
 4467SOL    HW113447   2.262   2.993   6.387
 4467SOL    HW213448   2.288   2.999   6.226
 4468SOL     OW13449   3.125   3.654   6.196
 4468SOL    HW113450   3.177   3.716   6.137
 4468SOL    HW213451   3.052   3.705   6.241
 4469SOL     OW13452   2.883   2.399   5.615
 4469SOL    HW113453   2.838   2.485   5.591
 4469SOL    HW213454   2.953   2.416   5.684
 4470SOL     OW13455   2.423   2.083   6.756
 4470SOL    HW113456   2.470   2.000   6.787
 4470SOL    HW213457   2.328   2.082   6.787
 4471SOL     OW13458   2.727   2.321   6.223
 4471SOL    HW113459   2.680   2.382   6.158
 4471SOL    HW213460   2.755   2.238   6.175
 4472SOL     OW13461   2.880   1.910   6.328
 4472SOL    HW113462   2.818   1.911   6.250
 4472SOL    HW213463   2.854   1.836   6.390
 4473SOL     OW13464   3.302   3.023   6.442
 4473SOL    HW113465   3.233   2.950   6.444
 4473SOL    HW213466   3.333   3.036   6.348
 4474SOL     OW13467   3.328   2.467   6.552
 4474SOL    HW113468   3.266   2.388   6.556
 4474SOL    HW213469   3.391   2.464   6.629
 4475SOL     OW13470   3.705   2.672   5.965
 4475SOL    HW113471   3.763   2.624   6.031
 4475SOL    HW213472   3.675   2.608   5.895
 4476SOL     OW13473   2.349   3.282   5.742
 4476SOL    HW113474   2.269   3.255   5.795
 4476SOL    HW213475   2.346   3.238   5.652
 4477SOL     OW13476   3.536   3.129   6.230
 4477SOL    HW113477   3.635   3.126   6.242
 4477SOL    HW213478   3.502   3.221   6.251
 4478SOL     OW13479   3.252   2.436   5.657
 4478SOL    HW113480   3.190   2.414   5.731
 4478SOL    HW213481   3.345   2.410   5.682
 4479SOL     OW13482   2.390   2.126   5.897
 4479SOL    HW113483   2.437   2.073   5.826
 4479SOL    HW213484   2.362   2.215   5.859
 4480SOL     OW13485   3.619   3.042   0.172
 4480SOL    HW113486   3.717   3.028   0.156
 4480SOL    HW213487   3.595   3.135   0.146
 4481SOL     OW13488   2.981   3.099   6.695
 4481SOL    HW113489   2.897   3.060   6.733
 4481SOL    HW213490   2.967   3.122   6.599
 4482SOL     OW13491   3.482   2.946   6.651
 4482SOL    HW113492   3.483   3.017   6.721
 4482SOL    HW213493   3.407   2.963   6.587
 4483SOL     OW13494   2.575   2.921   5.959
 4483SOL    HW113495   2.557   2.903   6.056
 4483SOL    HW213496   2.654   2.867   5.929
 4484SOL     OW13497   2.287   2.674   6.846
 4484SOL    HW113498   2.344   2.700   6.923
 4484SOL    HW213499   2.251   2.582   6.860
 4485SOL     OW13500   3.131   2.249   6.856
 4485SOL    HW113501   3.158   2.323   6.917
 4485SOL    HW213502   3.036   2.263   6.827
 4486SOL     OW13503   1.931   3.441   6.936
 4486SOL    HW113504   1.896   3.510   6.873
 4486SOL    HW213505   2.031   3.434   6.927
 4487SOL     OW13506   2.206   2.979   6.073
 4487SOL    HW113507   2.211   3.061   6.016
 4487SOL    HW213508   2.204   2.898   6.015
 4488SOL     OW13509   2.409   2.407   6.449
 4488SOL    HW113510   2.423   2.465   6.369
 4488SOL    HW213511   2.480   2.426   6.517
 4489SOL     OW13512   3.108   3.216   5.978
 4489SOL    HW113513   3.169   3.289   6.009
 4489SOL    HW213514   3.015   3.236   6.008
 4490SOL     OW13515   3.143   3.312   6.747
 4490SOL    HW113516   3.178   3.302   6.839
 4490SOL    HW213517   3.082   3.236   6.726
 4491SOL     OW13518   3.439   2.483   6.067
 4491SOL    HW113519   3.389   2.531   6.139
 4491SOL    HW213520   3.487   2.550   6.010
 4492SOL     OW13521   2.205   3.390   6.885
 4492SOL    HW113522   2.188   3.337   6.802
 4492SOL    HW213523   2.303   3.406   6.896
 4493SOL     OW13524   2.447   2.732   6.623
 4493SOL    HW113525   2.479   2.826   6.616
 4493SOL    HW213526   2.386   2.723   6.702
 4494SOL     OW13527   3.211   2.718   6.597
 4494SOL    HW113528   3.121   2.704   6.556
 4494SOL    HW213529   3.263   2.633   6.594
 4495SOL     OW13530   3.060   2.389   5.851
 4495SOL    HW113531   3.073   2.306   5.906
 4495SOL    HW213532   3.016   2.459   5.906
 4496SOL     OW13533   2.163   2.060   6.835
 4496SOL    HW113534   2.120   2.094   6.919
 4496SOL    HW213535   2.148   1.962   6.827
 4497SOL     OW13536   1.900   3.177   6.869
 4497SOL    HW113537   1.943   3.117   6.936
 4497SOL    HW213538   1.908   3.272   6.899
 4498SOL     OW13539   2.587   2.489   6.642
 4498SOL    HW113540   2.665   2.468   6.583
 4498SOL    HW213541   2.555   2.582   6.624
 4499SOL     OW13542   2.168   1.924   6.213
 4499SOL    HW113543   2.144   2.019   6.232
 4499SOL    HW213544   2.178   1.875   6.300
 4500SOL     OW13545   3.488   2.242   5.949
 4500SOL    HW113546   3.514   2.169   6.011
 4500SOL    HW213547   3.460   2.323   6.001
 4501SOL     OW13548   2.884   2.619   6.550
 4501SOL    HW113549   2.880   2.639   6.648
 4501SOL    HW213550   2.859   2.523   6.535
 4502SOL     OW13551   3.389   2.131   5.716
 4502SOL    HW113552   3.320   2.063   5.741
 4502SOL    HW213553   3.426   2.173   5.799
 4503SOL     OW13554   3.151   2.688   5.613
 4503SOL    HW113555   3.192   2.597   5.621
 4503SOL    HW213556   3.182   2.731   5.528
 4504SOL     OW13557   2.933   3.199   6.439
 4504SOL    HW113558   2.936   3.121   6.376
 4504SOL    HW213559   2.991   3.272   6.404
 4505SOL     OW13560   2.175   2.667   6.529
 4505SOL    HW113561   2.271   2.694   6.522
 4505SOL    HW213562   2.169   2.572   6.559
 4506SOL     OW13563   2.193   2.390   6.604
 4506SOL    HW113564   2.153   2.299   6.590
 4506SOL    HW213565   2.273   2.400   6.545
 4507SOL     OW13566   3.001   2.101   0.053
 4507SOL    HW113567   3.067   2.120   0.126
 4507SOL    HW213568   3.037   2.138   6.967
 4508SOL     OW13569   1.863   3.178   5.781
 4508SOL    HW113570   1.773   3.197   5.741
 4508SOL    HW213571   1.864   3.084   5.816
 4509SOL     OW13572   1.955   3.649   6.526
 4509SOL    HW113573   1.918   3.567   6.482
 4509SOL    HW213574   2.049   3.664   6.496
 4510SOL     OW13575   2.356   3.439   6.490
 4510SOL    HW113576   2.426   3.505   6.518
 4510SOL    HW213577   2.397   3.371   6.429
 4511SOL     OW13578   2.843   2.659   6.823
 4511SOL    HW113579   2.921   2.634   6.881
 4511SOL    HW213580   2.761   2.614   6.857
 4512SOL     OW13581   1.912   2.417   6.712
 4512SOL    HW113582   1.969   2.384   6.637
 4512SOL    HW213583   1.970   2.454   6.785
 4513SOL     OW13584   2.679   2.434   5.947
 4513SOL    HW113585   2.688   2.354   5.887
 4513SOL    HW213586   2.601   2.489   5.917
 4514SOL     OW13587   3.509   2.472   6.753
 4514SOL    HW113588   3.493   2.413   6.832
 4514SOL    HW213589   3.604   2.461   6.722
 4515SOL     OW13590   2.535   2.324   6.850
 4515SOL    HW113591   2.499   2.237   6.818
 4515SOL    HW213592   2.550   2.385   6.771
 4516SOL     OW13593   2.804   3.524   6.998
 4516SOL    HW113594   2.770   3.515   6.905
 4516SOL    HW213595   2.786   3.617   0.031
 4517SOL     OW13596   2.321   2.357   5.773
 4517SOL    HW113597   2.386   2.430   5.797
 4517SOL    HW213598   2.231   2.397   5.758
 4518SOL     OW13599   2.018   3.005   0.049
 4518SOL    HW113600   2.066   2.966   0.128
 4518SOL    HW213601   2.032   2.946   6.970
 4519SOL     OW13602   3.149   2.870   6.814
 4519SOL    HW113603   3.187   2.818   6.737
 4519SOL    HW213604   3.120   2.960   6.781
 4520SOL     OW13605   3.177   2.719   5.886
 4520SOL    HW113606   3.101   2.691   5.944
 4520SOL    HW213607   3.152   2.706   5.790
 4521SOL     OW13608   3.619   3.620   6.726
 4521SOL    HW113609   3.693   3.643   6.662
 4521SOL    HW213610   3.596   3.523   6.716
 4522SOL     OW13611   3.109   3.588   6.700
 4522SOL    HW113612   3.193   3.617   6.653
 4522SOL    HW213613   3.114   3.490   6.718
 4523SOL     OW13614   1.944   3.132   6.600
 4523SOL    HW113615   1.929   3.143   6.698
 4523SOL    HW213616   1.875   3.070   6.563
 4524SOL     OW13617   3.581   2.011   6.085
 4524SOL    HW113618   3.657   2.001   6.021
 4524SOL    HW213619   3.563   1.924   6.131
 4525SOL     OW13620   3.257   3.432   6.073
 4525SOL    HW113621   3.320   3.464   6.002
 4525SOL    HW213622   3.202   3.510   6.106
 4526SOL     OW13623   3.144   2.790   6.253
 4526SOL    HW113624   3.218   2.725   6.268
 4526SOL    HW213625   3.177   2.867   6.198
 4527SOL     OW13626   2.531   3.483   5.740
 4527SOL    HW113627   2.547   3.501   5.643
 4527SOL    HW213628   2.472   3.402   5.750
 4528SOL     OW13629   3.703   2.036   6.556
 4528SOL    HW113630   3.738   1.945   6.533
 4528SOL    HW213631   3.612   2.047   6.517
 4529SOL     OW13632   2.118   2.176   6.301
 4529SOL    HW113633   2.029   2.213   6.273
 4529SOL    HW213634   2.121   2.169   6.401
 4530SOL     OW13635   3.070   3.463   5.619
 4530SOL    HW113636   3.061   3.369   5.652
 4530SOL    HW213637   3.003   3.480   5.546
 4531SOL     OW13638   2.640   2.888   6.951
 4531SOL    HW113639   2.699   2.845   6.883
 4531SOL    HW213640   2.686   2.969   6.988
 4532SOL     OW13641   2.782   2.773   5.873
 4532SOL    HW113642   2.843   2.808   5.803
 4532SOL    HW213643   2.829   2.701   5.925
 4533SOL     OW13644   3.351   3.491   5.628
 4533SOL    HW113645   3.252   3.480   5.617
 4533SOL    HW213646   3.394   3.497   5.538
 4534SOL     OW13647   3.477   3.141   6.835
 4534SOL    HW113648   3.567   3.142   6.879
 4534SOL    HW213649   3.408   3.119   6.903
 4535SOL     OW13650   2.922   2.968   6.300
 4535SOL    HW113651   2.845   2.917   6.339
 4535SOL    HW213652   2.990   2.904   6.266
 4536SOL     OW13653   2.881   2.099   6.541
 4536SOL    HW113654   2.880   2.050   6.454
 4536SOL    HW213655   2.883   2.033   6.617
 4537SOL     OW13656   2.467   3.348   6.066
 4537SOL    HW113657   2.518   3.294   5.999
 4537SOL    HW213658   2.393   3.397   6.020
 4538SOL     OW13659   3.558   2.285   6.945
 4538SOL    HW113660   3.626   2.293   0.018
 4538SOL    HW213661   3.564   2.194   6.903
 4539SOL     OW13662   2.115   3.210   5.875
 4539SOL    HW113663   2.019   3.203   5.847
 4539SOL    HW213664   2.121   3.248   5.967
 4540SOL     OW13665   2.534   2.052   0.081
 4540SOL    HW113666   2.623   2.028   0.043
 4540SOL    HW213667   2.544   2.130   0.142
 4541SOL     OW13668   1.943   2.191   5.616
 4541SOL    HW113669   1.851   2.167   5.584
 4541SOL    HW213670   1.975   2.272   5.567
 4542SOL     OW13671   1.926   2.017   5.889
 4542SOL    HW113672   1.909   2.102   5.839
 4542SOL    HW213673   2.014   1.979   5.862
 4543SOL     OW13674   3.042   3.200   5.706
 4543SOL    HW113675   2.947   3.170   5.700
 4543SOL    HW213676   3.071   3.201   5.802
 4544SOL     OW13677   3.352   3.645   6.577
 4544SOL    HW113678   3.366   3.706   6.500
 4544SOL    HW213679   3.441   3.626   6.620
 4545SOL     OW13680   3.355   3.154   0.283
 4545SOL    HW113681   3.263   3.147   0.322
 4545SOL    HW213682   3.388   3.063   0.259
 4546SOL     OW13683   2.247   3.590   0.100
 4546SOL    HW113684   2.158   3.633   0.115
 4546SOL    HW213685   2.247   3.498   0.139
 4547SOL     OW13686   3.560   2.740   6.829
 4547SOL    HW113687   3.527   2.650   6.801
 4547SOL    HW213688   3.526   2.810   6.766
 4548SOL     OW13689   3.081   2.178   6.046
 4548SOL    HW113690   3.145   2.102   6.035
 4548SOL    HW213691   3.108   2.233   6.125
 4549SOL     OW13692   2.447   2.599   6.255
 4549SOL    HW113693   2.490   2.689   6.244
 4549SOL    HW213694   2.378   2.586   6.184
 4550SOL     OW13695   3.633   2.768   0.093
 4550SOL    HW113696   3.619   2.863   0.121
 4550SOL    HW213697   3.606   2.757   6.998
 4551SOL     OW13698   2.728   3.226   5.628
 4551SOL    HW113699   2.687   3.251   5.716
 4551SOL    HW213700   2.744   3.309   5.574
 4552SOL     OW13701   2.528   3.648   6.533
 4552SOL    HW113702   2.504   3.742   6.507
 4552SOL    HW213703   2.626   3.634   6.520
 4553SOL     OW13704   2.730   2.831   6.443
 4553SOL    HW113705   2.780   2.753   6.480
 4553SOL    HW213706   2.691   2.885   6.518
 4554SOL     OW13707   2.940   2.851   5.670
 4554SOL    HW113708   2.912   2.905   5.590
 4554SOL    HW213709   3.018   2.793   5.646
 4555SOL     OW13710   3.712   3.420   6.432
 4555SOL    HW113711   3.633   3.406   6.372
 4555SOL    HW213712   3.707   3.356   6.509
 4556SOL     OW13713   1.948   3.093   6.250
 4556SOL    HW113714   1.947   3.044   6.337
 4556SOL    HW213715   2.017   3.052   6.190
 4557SOL     OW13716   3.673   2.038   6.835
 4557SOL    HW113717   3.649   1.941   6.837
 4557SOL    HW213718   3.688   2.067   6.740
 4558SOL     OW13719   2.293   2.290   6.113
 4558SOL    HW113720   2.326   2.221   6.050
 4558SOL    HW213721   2.238   2.247   6.185
 4559SOL     OW13722   3.541   3.365   6.677
 4559SOL    HW113723   3.464   3.344   6.616
 4559SOL    HW213724   3.553   3.290   6.743
 4560SOL     OW13725   2.179   2.412   6.878
 4560SOL    HW113726   2.250   2.359   6.925
 4560SOL    HW213727   2.188   2.399   6.779
 4561SOL     OW13728   2.690   3.441   6.263
 4561SOL    HW113729   2.679   3.503   6.185
 4561SOL    HW213730   2.612   3.379   6.267
 4562SOL     OW13731   3.296   2.097   6.702
 4562SOL    HW113732   3.330   2.015   6.749
 4562SOL    HW213733   3.242   2.151   6.767
 4563SOL     OW13734   2.878   1.880   6.714
 4563SOL    HW113735   2.816   1.814   6.673
 4563SOL    HW213736   2.969   1.839   6.724
 4564SOL     OW13737   2.636   3.194   5.907
 4564SOL    HW113738   2.607   3.098   5.914
 4564SOL    HW213739   2.721   3.207   5.957
 4565SOL     OW13740   2.479   3.423   6.868
 4565SOL    HW113741   2.476   3.519   6.898
 4565SOL    HW213742   2.567   3.406   6.823
 4566SOL     OW13743   3.216   1.913   5.755
 4566SOL    HW113744   3.257   1.846   5.694
 4566SOL    HW213745   3.123   1.883   5.778
 4567SOL     OW13746   3.154   2.325   6.266
 4567SOL    HW113747   3.101   2.410   6.269
 4567SOL    HW213748   3.151   2.281   6.356
 4568SOL     OW13749   3.449   2.067   6.470
 4568SOL    HW113750   3.387   2.086   6.547
 4568SOL    HW213751   3.450   2.146   6.409
 4569SOL     OW13752   1.905   2.927   5.893
 4569SOL    HW113753   2.003   2.926   5.874
 4569SOL    HW213754   1.875   2.834   5.916
 4570SOL     OW13755   2.746   3.523   5.927
 4570SOL    HW113756   2.671   3.502   5.864
 4570SOL    HW213757   2.719   3.601   5.984
 4571SOL     OW13758   2.082   4.359   0.136
 4571SOL    HW113759   1.986   4.345   0.160
 4571SOL    HW213760   2.095   4.342   0.038
 4572SOL     OW13761   2.085   4.006   0.994
 4572SOL    HW113762   2.118   3.972   1.082
 4572SOL    HW213763   1.992   3.974   0.978
 4573SOL     OW13764   1.864   4.113   0.636
 4573SOL    HW113765   1.779   4.143   0.681
 4573SOL    HW213766   1.847   4.029   0.585
 4574SOL     OW13767   2.431   5.020   1.184
 4574SOL    HW113768   2.340   5.016   1.142
 4574SOL    HW213769   2.448   5.112   1.218
 4575SOL     OW13770   3.425   5.237   0.709
 4575SOL    HW113771   3.384   5.212   0.796
 4575SOL    HW213772   3.355   5.240   0.638
 4576SOL     OW13773   2.994   4.425   0.696
 4576SOL    HW113774   3.047   4.508   0.680
 4576SOL    HW213775   2.943   4.434   0.782
 4577SOL     OW13776   3.646   4.304   0.201
 4577SOL    HW113777   3.580   4.352   0.144
 4577SOL    HW213778   3.598   4.241   0.263
 4578SOL     OW13779   2.608   4.865   1.040
 4578SOL    HW113780   2.539   4.899   1.105
 4578SOL    HW213781   2.651   4.942   0.994
 4579SOL     OW13782   2.735   4.490   1.821
 4579SOL    HW113783   2.722   4.558   1.893
 4579SOL    HW213784   2.759   4.536   1.735
 4580SOL     OW13785   2.545   4.721   0.650
 4580SOL    HW113786   2.616   4.712   0.720
 4580SOL    HW213787   2.471   4.778   0.686
 4581SOL     OW13788   2.573   4.877   1.817
 4581SOL    HW113789   2.625   4.956   1.849
 4581SOL    HW213790   2.488   4.909   1.776
 4582SOL     OW13791   2.188   5.148   1.066
 4582SOL    HW113792   2.112   5.103   1.019
 4582SOL    HW213793   2.241   5.200   0.999
 4583SOL     OW13794   3.320   5.225   1.357
 4583SOL    HW113795   3.378   5.307   1.364
 4583SOL    HW213796   3.250   5.227   1.429
 4584SOL     OW13797   2.312   4.118   1.479
 4584SOL    HW113798   2.393   4.060   1.487
 4584SOL    HW213799   2.230   4.064   1.497
 4585SOL     OW13800   3.475   4.173   0.747
 4585SOL    HW113801   3.400   4.194   0.683
 4585SOL    HW213802   3.485   4.248   0.813
 4586SOL     OW13803   2.087   5.444   0.473
 4586SOL    HW113804   2.104   5.523   0.532
 4586SOL    HW213805   2.172   5.417   0.428
 4587SOL     OW13806   2.999   5.064   1.698
 4587SOL    HW113807   3.046   5.062   1.786
 4587SOL    HW213808   2.943   4.982   1.688
 4588SOL     OW13809   2.084   5.170   0.539
 4588SOL    HW113810   2.069   5.268   0.547
 4588SOL    HW213811   2.027   5.122   0.605
 4589SOL     OW13812   2.130   4.814   0.901
 4589SOL    HW113813   2.125   4.720   0.933
 4589SOL    HW213814   2.067   4.872   0.953
 4590SOL     OW13815   2.462   5.520   1.426
 4590SOL    HW113816   2.379   5.496   1.476
 4590SOL    HW213817   2.493   5.611   1.455
 4591SOL     OW13818   2.450   4.692   0.146
 4591SOL    HW113819   2.507   4.714   0.067
 4591SOL    HW213820   2.486   4.737   0.228
 4592SOL     OW13821   3.458   3.849   1.469
 4592SOL    HW113822   3.477   3.929   1.412
 4592SOL    HW213823   3.444   3.878   1.564
 4593SOL     OW13824   1.978   4.377   0.562
 4593SOL    HW113825   1.946   4.285   0.583
 4593SOL    HW213826   1.972   4.434   0.644
 4594SOL     OW13827   3.699   5.488   0.346
 4594SOL    HW113828   3.769   5.457   0.411
 4594SOL    HW213829   3.705   5.587   0.336
 4595SOL     OW13830   3.553   4.638   0.650
 4595SOL    HW113831   3.637   4.588   0.632
 4595SOL    HW213832   3.531   4.696   0.571
 4596SOL     OW13833   3.517   4.820   0.445
 4596SOL    HW113834   3.586   4.840   0.374
 4596SOL    HW213835   3.522   4.889   0.517
 4597SOL     OW13836   1.985   4.468   1.585
 4597SOL    HW113837   2.082   4.494   1.587
 4597SOL    HW213838   1.928   4.550   1.587
 4598SOL     OW13839   2.474   5.112   0.737
 4598SOL    HW113840   2.427   5.025   0.750
 4598SOL    HW213841   2.464   5.142   0.642
 4599SOL     OW13842   3.151   4.960   1.422
 4599SOL    HW113843   3.178   4.889   1.356
 4599SOL    HW213844   3.210   4.955   1.502
 4600SOL     OW13845   2.680   3.736   0.514
 4600SOL    HW113846   2.726   3.822   0.490
 4600SOL    HW213847   2.582   3.752   0.522
 4601SOL     OW13848   2.053   4.686   1.276
 4601SOL    HW113849   2.141   4.642   1.261
 4601SOL    HW213850   1.983   4.639   1.223
 4602SOL     OW13851   3.355   4.743   0.213
 4602SOL    HW113852   3.287   4.677   0.245
 4602SOL    HW213853   3.440   4.729   0.263
 4603SOL     OW13854   3.044   5.534   1.622
 4603SOL    HW113855   3.052   5.602   1.549
 4603SOL    HW213856   3.064   5.443   1.585
 4604SOL     OW13857   2.202   3.973   1.830
 4604SOL    HW113858   2.251   4.059   1.844
 4604SOL    HW213859   2.105   3.986   1.850
 4605SOL     OW13860   3.326   5.144   0.948
 4605SOL    HW113861   3.259   5.163   1.020
 4605SOL    HW213862   3.318   5.049   0.919
 4606SOL     OW13863   3.507   5.473   0.582
 4606SOL    HW113864   3.487   5.447   0.488
 4606SOL    HW213865   3.489   5.396   0.643
 4607SOL     OW13866   2.461   4.441   0.266
 4607SOL    HW113867   2.467   4.531   0.223
 4607SOL    HW213868   2.397   4.445   0.342
 4608SOL     OW13869   3.139   4.080   0.932
 4608SOL    HW113870   3.045   4.047   0.940
 4608SOL    HW213871   3.199   4.029   0.994
 4609SOL     OW13872   3.439   5.400   0.316
 4609SOL    HW113873   3.534   5.432   0.314
 4609SOL    HW213874   3.404   5.392   0.223
 4610SOL     OW13875   2.652   4.337   1.450
 4610SOL    HW113876   2.627   4.314   1.544
 4610SOL    HW213877   2.613   4.269   1.387
 4611SOL     OW13878   3.253   4.194   1.679
 4611SOL    HW113879   3.254   4.243   1.766
 4611SOL    HW213880   3.315   4.115   1.685
 4612SOL     OW13881   2.815   4.609   1.583
 4612SOL    HW113882   2.873   4.537   1.545
 4612SOL    HW213883   2.762   4.651   1.509
 4613SOL     OW13884   2.856   4.131   1.230
 4613SOL    HW113885   2.767   4.154   1.270
 4613SOL    HW213886   2.842   4.080   1.145
 4614SOL     OW13887   2.913   4.425   0.429
 4614SOL    HW113888   2.935   4.422   0.526
 4614SOL    HW213889   2.827   4.376   0.413
 4615SOL     OW13890   1.952   4.548   0.777
 4615SOL    HW113891   2.037   4.537   0.829
 4615SOL    HW213892   1.901   4.626   0.812
 4616SOL     OW13893   1.990   5.593   1.587
 4616SOL    HW113894   1.995   5.566   1.683
 4616SOL    HW213895   1.904   5.562   1.547
 4617SOL     OW13896   2.749   4.066   0.206
 4617SOL    HW113897   2.799   4.127   0.145
 4617SOL    HW213898   2.766   3.971   0.180
 4618SOL     OW13899   3.564   4.297   1.826
 4618SOL    HW113900   3.528   4.376   1.776
 4618SOL    HW213901   3.594   4.227   1.761
 4619SOL     OW13902   3.244   4.865   0.549
 4619SOL    HW113903   3.327   4.853   0.496
 4619SOL    HW213904   3.184   4.931   0.504
 4620SOL     OW13905   2.409   3.899   0.900
 4620SOL    HW113906   2.413   3.928   0.996
 4620SOL    HW213907   2.413   3.980   0.841
 4621SOL     OW13908   2.854   5.163   0.470
 4621SOL    HW113909   2.822   5.244   0.421
 4621SOL    HW213910   2.837   5.175   0.568
 4622SOL     OW13911   2.218   5.537   0.867
 4622SOL    HW113912   2.261   5.447   0.875
 4622SOL    HW213913   2.285   5.608   0.888
 4623SOL     OW13914   3.661   4.779   0.873
 4623SOL    HW113915   3.610   4.757   0.790
 4623SOL    HW213916   3.598   4.785   0.950
 4624SOL     OW13917   3.088   5.260   1.514
 4624SOL    HW113918   3.075   5.186   1.580
 4624SOL    HW213919   3.022   5.251   1.441
 4625SOL     OW13920   2.178   4.681   0.231
 4625SOL    HW113921   2.270   4.696   0.195
 4625SOL    HW213922   2.149   4.588   0.211
 4626SOL     OW13923   3.346   4.469   0.723
 4626SOL    HW113924   3.340   4.428   0.815
 4626SOL    HW213925   3.425   4.529   0.719
 4627SOL     OW13926   2.330   4.989   1.731
 4627SOL    HW113927   2.304   4.995   1.635
 4627SOL    HW213928   2.248   4.986   1.788
 4628SOL     OW13929   2.982   5.490   0.242
 4628SOL    HW113930   2.909   5.444   0.293
 4628SOL    HW213931   3.019   5.427   0.173
 4629SOL     OW13932   2.064   4.000   1.503
 4629SOL    HW113933   1.982   4.057   1.498
 4629SOL    HW213934   2.043   3.914   1.549
 4630SOL     OW13935   3.508   5.155   0.101
 4630SOL    HW113936   3.461   5.238   0.072
 4630SOL    HW213937   3.444   5.095   0.150
 4631SOL     OW13938   2.350   5.423   0.380
 4631SOL    HW113939   2.377   5.509   0.424
 4631SOL    HW213940   2.408   5.407   0.300
 4632SOL     OW13941   2.121   5.516   1.227
 4632SOL    HW113942   2.172   5.444   1.274
 4632SOL    HW213943   2.102   5.486   1.133
 4633SOL     OW13944   2.798   5.426   0.897
 4633SOL    HW113945   2.880   5.378   0.928
 4633SOL    HW213946   2.755   5.374   0.823
 4634SOL     OW13947   2.259   4.411   0.470
 4634SOL    HW113948   2.279   4.315   0.488
 4634SOL    HW213949   2.163   4.430   0.489
 4635SOL     OW13950   3.391   3.947   1.728
 4635SOL    HW113951   3.402   3.968   1.825
 4635SOL    HW213952   3.319   3.879   1.717
 4636SOL     OW13953   2.626   4.000   1.757
 4636SOL    HW113954   2.710   3.946   1.751
 4636SOL    HW213955   2.574   3.973   1.838
 4637SOL     OW13956   2.737   5.239   1.192
 4637SOL    HW113957   2.717   5.203   1.101
 4637SOL    HW213958   2.810   5.185   1.235
 4638SOL     OW13959   3.202   4.313   1.435
 4638SOL    HW113960   3.232   4.278   1.524
 4638SOL    HW213961   3.237   4.405   1.422
 4639SOL     OW13962   2.681   5.114   0.941
 4639SOL    HW113963   2.771   5.102   0.898
 4639SOL    HW213964   2.611   5.119   0.870
 4640SOL     OW13965   2.789   4.231   0.900
 4640SOL    HW113966   2.763   4.223   0.803
 4640SOL    HW213967   2.822   4.142   0.932
 4641SOL     OW13968   2.411   3.796   0.505
 4641SOL    HW113969   2.328   3.793   0.560
 4641SOL    HW213970   2.407   3.874   0.442
 4642SOL     OW13971   3.284   4.937   0.013
 4642SOL    HW113972   3.313   4.855   0.063
 4642SOL    HW213973   3.200   4.974   0.054
 4643SOL     OW13974   2.810   3.973   0.461
 4643SOL    HW113975   2.777   4.014   0.376
 4643SOL    HW213976   2.909   3.988   0.469
 4644SOL     OW13977   2.942   4.407   1.456
 4644SOL    HW113978   2.867   4.341   1.462
 4644SOL    HW213979   3.029   4.358   1.452
 4645SOL     OW13980   3.081   5.291   0.796
 4645SOL    HW113981   3.096   5.361   0.726
 4645SOL    HW213982   3.154   5.298   0.865
 4646SOL     OW13983   2.332   4.875   0.731
 4646SOL    HW113984   2.262   4.854   0.799
 4646SOL    HW213985   2.294   4.867   0.639
 4647SOL     OW13986   3.120   5.510   0.611
 4647SOL    HW113987   3.174   5.572   0.555
 4647SOL    HW213988   3.047   5.561   0.657
 4648SOL     OW13989   2.925   4.303   0.031
 4648SOL    HW113990   2.829   4.327   0.050
 4648SOL    HW213991   2.974   4.292   0.118
 4649SOL     OW13992   1.948   4.281   1.391
 4649SOL    HW113993   2.042   4.277   1.359
 4649SOL    HW213994   1.939   4.352   1.461
 4650SOL     OW13995   2.420   3.948   1.171
 4650SOL    HW113996   2.470   3.871   1.214
 4650SOL    HW213997   2.325   3.946   1.201
 4651SOL     OW13998   2.728   4.181   0.639
 4651SOL    HW113999   2.683   4.244   0.575
 4651SOL    HW214000   2.755   4.098   0.590
 4652SOL     OW14001   2.881   3.773   0.742
 4652SOL    HW114002   2.816   3.774   0.666
 4652SOL    HW214003   2.857   3.699   0.806
 4653SOL     OW14004   3.307   4.885   0.860
 4653SOL    HW114005   3.232   4.820   0.862
 4653SOL    HW214006   3.339   4.896   0.765
 4654SOL     OW14007   3.330   4.332   0.973
 4654SOL    HW114008   3.269   4.252   0.972
 4654SOL    HW214009   3.391   4.326   1.051
 4655SOL     OW14010   3.692   4.530   0.390
 4655SOL    HW114011   3.752   4.470   0.442
 4655SOL    HW214012   3.685   4.497   0.296
 4656SOL     OW14013   2.331   5.151   0.153
 4656SOL    HW114014   2.268   5.107   0.218
 4656SOL    HW214015   2.309   5.121   0.060
 4657SOL     OW14016   3.534   4.990   0.651
 4657SOL    HW114017   3.634   4.988   0.660
 4657SOL    HW214018   3.501   5.083   0.666
 4658SOL     OW14019   3.253   4.278   0.068
 4658SOL    HW114020   3.193   4.275   0.147
 4658SOL    HW214021   3.317   4.201   0.071
 4659SOL     OW14022   2.376   3.988   0.313
 4659SOL    HW114023   2.389   3.922   0.239
 4659SOL    HW214024   2.353   4.077   0.273
 4660SOL     OW14025   3.615   4.964   1.562
 4660SOL    HW114026   3.705   4.922   1.551
 4660SOL    HW214027   3.626   5.058   1.596
 4661SOL     OW14028   2.916   5.074   1.336
 4661SOL    HW114029   2.835   5.044   1.386
 4661SOL    HW214030   2.998   5.034   1.378
 4662SOL     OW14031   3.475   5.353   1.656
 4662SOL    HW114032   3.460   5.388   1.564
 4662SOL    HW214033   3.561   5.302   1.659
 4663SOL     OW14034   2.998   4.942   1.105
 4663SOL    HW114035   2.938   4.976   1.178
 4663SOL    HW214036   2.963   4.972   1.016
 4664SOL     OW14037   3.486   4.820   1.079
 4664SOL    HW114038   3.482   4.886   1.155
 4664SOL    HW214039   3.411   4.838   1.016
 4665SOL     OW14040   2.785   3.819   1.392
 4665SOL    HW114041   2.807   3.796   1.297
 4665SOL    HW214042   2.864   3.862   1.435
 4666SOL     OW14043   2.841   4.838   1.721
 4666SOL    HW114044   2.747   4.858   1.748
 4666SOL    HW214045   2.844   4.756   1.665
 4667SOL     OW14046   2.575   4.782   0.375
 4667SOL    HW114047   2.556   4.765   0.472
 4667SOL    HW214048   2.655   4.728   0.347
 4668SOL     OW14049   2.284   4.538   1.253
 4668SOL    HW114050   2.357   4.552   1.321
 4668SOL    HW214051   2.245   4.447   1.265
 4669SOL     OW14052   3.125   4.101   1.279
 4669SOL    HW114053   3.162   4.180   1.329
 4669SOL    HW214054   3.029   4.118   1.255
 4670SOL     OW14055   1.936   5.296   1.353
 4670SOL    HW114056   1.900   5.366   1.291
 4670SOL    HW214057   2.036   5.294   1.347
 4671SOL     OW14058   2.226   4.844   0.482
 4671SOL    HW114059   2.202   4.920   0.423
 4671SOL    HW214060   2.222   4.759   0.430
 4672SOL     OW14061   2.411   4.267   0.860
 4672SOL    HW114062   2.426   4.326   0.781
 4672SOL    HW214063   2.479   4.287   0.931
 4673SOL     OW14064   3.105   5.069   0.406
 4673SOL    HW114065   3.164   5.144   0.435
 4673SOL    HW214066   3.011   5.087   0.433
 4674SOL     OW14067   3.148   5.185   1.147
 4674SOL    HW114068   3.207   5.191   1.228
 4674SOL    HW214069   3.094   5.102   1.152
 4675SOL     OW14070   3.449   4.351   0.480
 4675SOL    HW114071   3.392   4.394   0.550
 4675SOL    HW214072   3.505   4.420   0.435
 4676SOL     OW14073   2.210   5.254   1.310
 4676SOL    HW114074   2.193   5.209   1.222
 4676SOL    HW214075   2.308   5.267   1.323
 4677SOL     OW14076   2.277   4.470   1.600
 4677SOL    HW114077   2.343   4.516   1.541
 4677SOL    HW214078   2.310   4.379   1.623
 4678SOL     OW14079   3.469   4.508   1.684
 4678SOL    HW114080   3.378   4.550   1.682
 4678SOL    HW214081   3.526   4.549   1.613
 4679SOL     OW14082   2.859   3.857   1.750
 4679SOL    HW114083   2.917   3.936   1.734
 4679SOL    HW214084   2.908   3.774   1.724
 4680SOL     OW14085   2.355   3.761   1.750
 4680SOL    HW114086   2.310   3.702   1.682
 4680SOL    HW214087   2.297   3.840   1.768
 4681SOL     OW14088   2.445   4.595   1.034
 4681SOL    HW114089   2.480   4.689   1.030
 4681SOL    HW214090   2.386   4.585   1.114
 4682SOL     OW14091   3.215   4.581   1.026
 4682SOL    HW114092   3.125   4.574   0.982
 4682SOL    HW214093   3.263   4.494   1.017
 4683SOL     OW14094   3.057   4.251   0.272
 4683SOL    HW114095   3.072   4.171   0.330
 4683SOL    HW214096   3.018   4.325   0.327
 4684SOL     OW14097   2.159   3.921   1.246
 4684SOL    HW114098   2.123   3.958   1.332
 4684SOL    HW214099   2.144   3.822   1.243
 4685SOL     OW14100   1.914   5.034   1.276
 4685SOL    HW114101   1.946   4.973   1.348
 4685SOL    HW214102   1.917   5.128   1.308
 4686SOL     OW14103   2.585   4.354   1.055
 4686SOL    HW114104   2.663   4.335   0.995
 4686SOL    HW214105   2.551   4.446   1.036
 4687SOL     OW14106   3.597   4.684   1.855
 4687SOL    HW114107   3.554   4.616   1.796
 4687SOL    HW214108   3.538   4.703   1.933
 4688SOL     OW14109   2.166   3.790   0.629
 4688SOL    HW114110   2.143   3.885   0.650
 4688SOL    HW214111   2.178   3.739   0.714
 4689SOL     OW14112   3.488   4.100   0.375
 4689SOL    HW114113   3.512   4.030   0.442
 4689SOL    HW214114   3.466   4.186   0.422
 4690SOL     OW14115   2.885   4.479   0.959
 4690SOL    HW114116   2.881   4.501   1.056
 4690SOL    HW214117   2.859   4.384   0.945
 4691SOL     OW14118   2.843   5.287   1.717
 4691SOL    HW114119   2.827   5.335   1.631
 4691SOL    HW214120   2.891   5.201   1.699
 4692SOL     OW14121   3.717   5.228   1.604
 4692SOL    HW114122   3.736   5.254   1.509
 4692SOL    HW214123   3.800   5.240   1.658
 4693SOL     OW14124   2.215   4.642   1.805
 4693SOL    HW114125   2.295   4.663   1.860
 4693SOL    HW214126   2.240   4.576   1.734
 4694SOL     OW14127   3.350   4.016   0.153
 4694SOL    HW114128   3.310   3.926   0.167
 4694SOL    HW214129   3.408   4.040   0.231
 4695SOL     OW14130   3.156   4.546   0.033
 4695SOL    HW114131   3.202   4.458   0.024
 4695SOL    HW214132   3.182   4.606   6.957
 4696SOL     OW14133   2.930   5.061   0.854
 4696SOL    HW114134   2.935   4.983   0.792
 4696SOL    HW214135   2.990   5.133   0.821
 4697SOL     OW14136   2.173   4.530   0.943
 4697SOL    HW114137   2.269   4.557   0.940
 4697SOL    HW214138   2.166   4.436   0.976
 4698SOL     OW14139   2.190   4.251   1.011
 4698SOL    HW114140   2.152   4.159   1.001
 4698SOL    HW214141   2.271   4.260   0.953
 4699SOL     OW14142   2.996   4.097   1.692
 4699SOL    HW114143   2.943   4.154   1.754
 4699SOL    HW214144   3.088   4.134   1.683
 4700SOL     OW14145   3.024   3.928   1.475
 4700SOL    HW114146   3.009   3.990   1.552
 4700SOL    HW214147   3.066   3.977   1.399
 4701SOL     OW14148   1.955   5.508   0.942
 4701SOL    HW114149   1.918   5.427   0.898
 4701SOL    HW214150   2.049   5.524   0.910
 4702SOL     OW14151   2.356   5.300   0.905
 4702SOL    HW114152   2.426   5.366   0.932
 4702SOL    HW214153   2.396   5.232   0.844
 4703SOL     OW14154   2.838   4.518   1.225
 4703SOL    HW114155   2.898   4.494   1.301
 4703SOL    HW214156   2.748   4.477   1.240
 4704SOL     OW14157   1.899   4.275   1.117
 4704SOL    HW114158   1.981   4.262   1.062
 4704SOL    HW214159   1.924   4.278   1.214
 4705SOL     OW14160   2.054   4.247   1.730
 4705SOL    HW114161   2.106   4.193   1.664
 4705SOL    HW214162   2.014   4.326   1.685
 4706SOL     OW14163   3.242   4.660   1.655
 4706SOL    HW114164   3.265   4.757   1.656
 4706SOL    HW214165   3.239   4.627   1.560
 4707SOL     OW14166   2.680   4.293   0.370
 4707SOL    HW114167   2.687   4.214   0.308
 4707SOL    HW214168   2.603   4.350   0.342
 4708SOL     OW14169   3.505   4.327   1.182
 4708SOL    HW114170   3.488   4.268   1.261
 4708SOL    HW214171   3.596   4.309   1.145
 4709SOL     OW14172   2.103   5.271   1.726
 4709SOL    HW114173   2.081   5.346   1.790
 4709SOL    HW214174   2.108   5.185   1.776
 4710SOL     OW14175   2.569   4.172   1.253
 4710SOL    HW114176   2.511   4.094   1.229
 4710SOL    HW214177   2.565   4.240   1.180
 4711SOL     OW14178   2.782   5.405   1.471
 4711SOL    HW114179   2.757   5.359   1.386
 4711SOL    HW214180   2.782   5.504   1.457
 4712SOL     OW14181   2.318   4.222   0.189
 4712SOL    HW114182   2.381   4.295   0.214
 4712SOL    HW214183   2.225   4.259   0.185
 4713SOL     OW14184   2.005   4.861   1.475
 4713SOL    HW114185   2.006   4.816   1.564
 4713SOL    HW214186   2.025   4.794   1.403
 4714SOL     OW14187   3.178   4.768   1.220
 4714SOL    HW114188   3.206   4.700   1.152
 4714SOL    HW214189   3.110   4.829   1.179
 4715SOL     OW14190   3.164   4.570   0.306
 4715SOL    HW114191   3.082   4.543   0.357
 4715SOL    HW214192   3.151   4.550   0.209
 4716SOL     OW14193   3.641   5.455   1.156
 4716SOL    HW114194   3.702   5.489   1.085
 4716SOL    HW214195   3.611   5.363   1.132
 4717SOL     OW14196   3.103   5.457   1.106
 4717SOL    HW114197   3.189   5.486   1.063
 4717SOL    HW214198   3.109   5.360   1.129
 4718SOL     OW14199   1.948   4.990   1.010
 4718SOL    HW114200   1.932   5.004   1.108
 4718SOL    HW214201   1.876   4.931   0.973
 4719SOL     OW14202   2.542   5.397   1.735
 4719SOL    HW114203   2.480   5.475   1.730
 4719SOL    HW214204   2.615   5.408   1.667
 4720SOL     OW14205   2.800   3.801   0.113
 4720SOL    HW114206   2.871   3.855   0.067
 4720SOL    HW214207   2.843   3.742   0.182
 4721SOL     OW14208   3.590   3.884   0.528
 4721SOL    HW114209   3.660   3.875   0.457
 4721SOL    HW214210   3.563   3.792   0.558
 4722SOL     OW14211   3.252   5.286   0.490
 4722SOL    HW114212   3.317   5.316   0.421
 4722SOL    HW214213   3.198   5.365   0.522
 4723SOL     OW14214   2.007   5.512   1.846
 4723SOL    HW114215   1.949   5.444   1.891
 4723SOL    HW214216   2.056   5.565   1.914
 4724SOL     OW14217   3.144   4.647   0.669
 4724SOL    HW114218   3.219   4.582   0.684
 4724SOL    HW214219   3.178   4.726   0.618
 4725SOL     OW14220   2.667   5.002   1.427
 4725SOL    HW114221   2.637   5.045   1.512
 4725SOL    HW214222   2.598   5.017   1.356
 4726SOL     OW14223   2.536   5.327   0.191
 4726SOL    HW114224   2.542   5.375   0.103
 4726SOL    HW214225   2.476   5.247   0.181
 4727SOL     OW14226   3.479   5.453   1.387
 4727SOL    HW114227   3.537   5.453   1.305
 4727SOL    HW214228   3.465   5.546   1.419
 4728SOL     OW14229   3.703   3.894   0.963
 4728SOL    HW114230   3.738   3.803   0.941
 4728SOL    HW214231   3.613   3.905   0.923
 4729SOL     OW14232   2.118   4.041   0.717
 4729SOL    HW114233   2.030   4.079   0.690
 4729SOL    HW214234   2.122   4.032   0.816
 4730SOL     OW14235   3.081   5.323   0.039
 4730SOL    HW114236   3.074   5.228   0.070
 4730SOL    HW214237   2.996   5.350   6.993
 4731SOL     OW14238   2.685   4.733   1.377
 4731SOL    HW114239   2.736   4.718   1.293
 4731SOL    HW214240   2.683   4.831   1.398
 4732SOL     OW14241   2.785   4.637   0.293
 4732SOL    HW114242   2.841   4.666   0.215
 4732SOL    HW214243   2.833   4.565   0.344
 4733SOL     OW14244   3.351   5.378   0.041
 4733SOL    HW114245   3.253   5.357   0.041
 4733SOL    HW214246   3.382   5.391   6.947
 4734SOL     OW14247   2.228   5.027   1.487
 4734SOL    HW114248   2.218   5.107   1.428
 4734SOL    HW214249   2.148   4.967   1.476
 4735SOL     OW14250   3.475   5.008   1.284
 4735SOL    HW114251   3.539   4.989   1.359
 4735SOL    HW214252   3.410   5.078   1.313
 4736SOL     OW14253   2.922   4.830   0.713
 4736SOL    HW114254   2.846   4.780   0.754
 4736SOL    HW214255   2.990   4.764   0.680
 4737SOL     OW14256   2.884   3.962   0.966
 4737SOL    HW114257   2.880   3.918   0.877
 4737SOL    HW214258   2.882   3.893   1.038
 4738SOL     OW14259   2.475   5.201   0.485
 4738SOL    HW114260   2.513   5.150   0.408
 4738SOL    HW214261   2.414   5.273   0.451
 4739SOL     OW14262   3.592   4.118   1.380
 4739SOL    HW114263   3.665   4.186   1.381
 4739SOL    HW214264   3.618   4.043   1.320
 4740SOL     OW14265   2.130   5.051   0.306
 4740SOL    HW114266   2.049   5.068   0.250
 4740SOL    HW214267   2.119   5.097   0.395
 4741SOL     OW14268   1.976   4.757   1.727
 4741SOL    HW114269   1.895   4.730   1.778
 4741SOL    HW214270   2.057   4.712   1.767
 4742SOL     OW14271   2.545   3.918   1.500
 4742SOL    HW114272   2.631   3.894   1.455
 4742SOL    HW214273   2.563   3.952   1.592
 4743SOL     OW14274   1.969   4.042   0.017
 4743SOL    HW114275   1.905   3.990   6.961
 4743SOL    HW214276   1.994   4.126   6.969
 4744SOL     OW14277   3.286   4.581   1.395
 4744SOL    HW114278   3.231   4.645   1.342
 4744SOL    HW214279   3.380   4.582   1.362
 4745SOL     OW14280   1.914   3.898   0.333
 4745SOL    HW114281   1.893   3.981   0.282
 4745SOL    HW214282   2.003   3.863   0.306
 4746SOL     OW14283   3.048   5.069   0.128
 4746SOL    HW114284   2.951   5.052   0.112
 4746SOL    HW214285   3.068   5.059   0.225
 4747SOL     OW14286   2.485   4.554   1.433
 4747SOL    HW114287   2.542   4.635   1.419
 4747SOL    HW214288   2.543   4.473   1.443
 4748SOL     OW14289   3.348   5.512   0.987
 4748SOL    HW114290   3.371   5.575   0.913
 4748SOL    HW214291   3.431   5.476   1.028
 4749SOL     OW14292   2.584   4.283   1.703
 4749SOL    HW114293   2.628   4.350   1.762
 4749SOL    HW214294   2.604   4.191   1.736
 4750SOL     OW14295   3.335   4.921   1.635
 4750SOL    HW114296   3.320   4.934   1.733
 4750SOL    HW214297   3.431   4.939   1.613
 4751SOL     OW14298   2.234   5.462   1.566
 4751SOL    HW114299   2.150   5.513   1.552
 4751SOL    HW214300   2.213   5.374   1.609
 4752SOL     OW14301   3.528   4.602   1.256
 4752SOL    HW114302   3.524   4.511   1.215
 4752SOL    HW214303   3.516   4.672   1.185
 4753SOL     OW14304   3.083   4.041   0.457
 4753SOL    HW114305   3.164   3.988   0.429
 4753SOL    HW214306   3.105   4.093   0.539
 4754SOL     OW14307   2.451   4.459   0.665
 4754SOL    HW114308   2.491   4.550   0.658
 4754SOL    HW214309   2.379   4.448   0.596
 4755SOL     OW14310   3.614   4.089   1.652
 4755SOL    HW114311   3.604   4.105   1.554
 4755SOL    HW214312   3.540   4.029   1.684
 4756SOL     OW14313   3.613   4.656   1.510
 4756SOL    HW114314   3.603   4.753   1.531
 4756SOL    HW214315   3.593   4.641   1.413
 4757SOL     OW14316   2.763   5.107   0.051
 4757SOL    HW114317   2.703   5.082   0.127
 4757SOL    HW214318   2.767   5.206   0.043
 4758SOL     OW14319   2.526   5.510   0.942
 4758SOL    HW114320   2.503   5.605   0.920
 4758SOL    HW214321   2.625   5.497   0.931
 4759SOL     OW14322   2.731   4.694   0.857
 4759SOL    HW114323   2.782   4.616   0.894
 4759SOL    HW214324   2.689   4.745   0.932
 4760SOL     OW14325   2.943   4.708   0.081
 4760SOL    HW114326   2.939   4.763   6.998
 4760SOL    HW214327   3.023   4.647   0.077
 4761SOL     OW14328   3.709   5.281   0.846
 4761SOL    HW114329   3.632   5.267   0.784
 4761SOL    HW214330   3.709   5.209   0.916
 4762SOL     OW14331   2.092   5.023   1.857
 4762SOL    HW114332   2.026   4.957   1.822
 4762SOL    HW214333   2.078   5.037   1.954
 4763SOL     OW14334   1.943   4.959   0.664
 4763SOL    HW114335   1.959   4.908   0.749
 4763SOL    HW214336   1.990   4.914   0.589
 4764SOL     OW14337   2.544   5.133   1.633
 4764SOL    HW114338   2.463   5.083   1.664
 4764SOL    HW214339   2.542   5.225   1.670
 4765SOL     OW14340   3.666   3.907   1.234
 4765SOL    HW114341   3.683   3.811   1.258
 4765SOL    HW214342   3.679   3.918   1.135
 4766SOL     OW14343   2.293   4.153   0.527
 4766SOL    HW114344   2.324   4.081   0.465
 4766SOL    HW214345   2.239   4.113   0.601
 4767SOL     OW14346   3.554   5.208   1.096
 4767SOL    HW114347   3.474   5.189   1.039
 4767SOL    HW214348   3.565   5.136   1.164
 4768SOL     OW14349   2.196   4.280   1.289
 4768SOL    HW114350   2.253   4.223   1.349
 4768SOL    HW214351   2.212   4.253   1.194
 4769SOL     OW14352   2.689   5.303   0.680
 4769SOL    HW114353   2.677   5.361   0.600
 4769SOL    HW214354   2.613   5.239   0.687
 4770SOL     OW14355   3.293   3.955   1.117
 4770SOL    HW114356   3.317   3.866   1.155
 4770SOL    HW214357   3.238   4.006   1.184
 4771SOL     OW14358   2.872   3.741   1.138
 4771SOL    HW114359   2.808   3.676   1.096
 4771SOL    HW214360   2.963   3.700   1.140
 4772SOL     OW14361   2.645   5.042   0.306
 4772SOL    HW114362   2.611   4.950   0.327
 4772SOL    HW214363   2.721   5.063   0.367
 4773SOL     OW14364   2.485   5.283   1.289
 4773SOL    HW114365   2.483   5.370   1.339
 4773SOL    HW214366   2.576   5.270   1.249
 4774SOL     OW14367   3.215   3.777   0.185
 4774SOL    HW114368   3.254   3.721   0.112
 4774SOL    HW214369   3.129   3.738   0.215
 4775SOL     OW14370   3.147   4.184   0.679
 4775SOL    HW114371   3.098   4.271   0.682
 4775SOL    HW214372   3.149   4.143   0.770
 4776SOL     OW14373   3.447   3.927   0.883
 4776SOL    HW114374   3.390   3.947   0.962
 4776SOL    HW214375   3.451   4.007   0.823
 4777SOL     OW14376   1.945   4.777   0.355
 4777SOL    HW114377   2.035   4.755   0.317
 4777SOL    HW214378   1.893   4.693   0.368
 4778SOL     OW14379   2.750   5.386   0.353
 4778SOL    HW114380   2.675   5.357   0.294
 4778SOL    HW214381   2.721   5.465   0.407
 4779SOL     OW14382   2.084   4.343   1.989
 4779SOL    HW114383   1.993   4.344   2.029
 4779SOL    HW214384   2.078   4.321   1.892
 4780SOL     OW14385   2.085   4.006   2.857
 4780SOL    HW114386   2.117   3.971   2.945
 4780SOL    HW214387   1.992   3.973   2.840
 4781SOL     OW14388   1.863   4.109   2.496
 4781SOL    HW114389   1.779   4.140   2.541
 4781SOL    HW214390   1.845   4.026   2.444
 4782SOL     OW14391   2.430   5.020   3.046
 4782SOL    HW114392   2.340   5.017   3.003
 4782SOL    HW214393   2.448   5.112   3.080
 4783SOL     OW14394   3.426   5.237   2.569
 4783SOL    HW114395   3.383   5.213   2.657
 4783SOL    HW214396   3.355   5.244   2.499
 4784SOL     OW14397   2.995   4.427   2.558
 4784SOL    HW114398   3.047   4.510   2.541
 4784SOL    HW214399   2.945   4.436   2.644
 4785SOL     OW14400   3.630   4.324   2.085
 4785SOL    HW114401   3.607   4.320   1.988
 4785SOL    HW214402   3.593   4.244   2.132
 4786SOL     OW14403   2.607   4.865   2.902
 4786SOL    HW114404   2.539   4.900   2.967
 4786SOL    HW214405   2.651   4.942   2.856
 4787SOL     OW14406   2.735   4.490   3.682
 4787SOL    HW114407   2.722   4.558   3.755
 4787SOL    HW214408   2.759   4.536   3.597
 4788SOL     OW14409   2.546   4.723   2.511
 4788SOL    HW114410   2.617   4.713   2.580
 4788SOL    HW214411   2.471   4.779   2.548
 4789SOL     OW14412   2.573   4.877   3.679
 4789SOL    HW114413   2.625   4.956   3.712
 4789SOL    HW214414   2.488   4.909   3.638
 4790SOL     OW14415   2.189   5.147   2.928
 4790SOL    HW114416   2.112   5.103   2.881
 4790SOL    HW214417   2.242   5.200   2.862
 4791SOL     OW14418   3.320   5.225   3.219
 4791SOL    HW114419   3.378   5.307   3.226
 4791SOL    HW214420   3.250   5.227   3.290
 4792SOL     OW14421   2.312   4.120   3.343
 4792SOL    HW114422   2.393   4.062   3.349
 4792SOL    HW214423   2.230   4.063   3.356
 4793SOL     OW14424   3.474   4.171   2.606
 4793SOL    HW114425   3.398   4.190   2.543
 4793SOL    HW214426   3.484   4.246   2.671
 4794SOL     OW14427   2.084   5.438   2.334
 4794SOL    HW114428   2.102   5.517   2.393
 4794SOL    HW214429   2.159   5.428   2.268
 4795SOL     OW14430   2.999   5.064   3.560
 4795SOL    HW114431   3.046   5.062   3.648
 4795SOL    HW214432   2.943   4.982   3.550
 4796SOL     OW14433   2.095   5.167   2.398
 4796SOL    HW114434   2.079   5.266   2.398
 4796SOL    HW214435   2.035   5.124   2.465
 4797SOL     OW14436   2.131   4.814   2.763
 4797SOL    HW114437   2.126   4.720   2.796
 4797SOL    HW214438   2.068   4.871   2.815
 4798SOL     OW14439   2.462   5.520   3.289
 4798SOL    HW114440   2.379   5.496   3.339
 4798SOL    HW214441   2.493   5.611   3.316
 4799SOL     OW14442   2.445   4.711   2.002
 4799SOL    HW114443   2.492   4.758   1.928
 4799SOL    HW214444   2.485   4.739   2.090
 4800SOL     OW14445   3.438   3.876   3.325
 4800SOL    HW114446   3.470   3.958   3.278
 4800SOL    HW214447   3.431   3.893   3.423
 4801SOL     OW14448   1.976   4.384   2.425
 4801SOL    HW114449   1.946   4.290   2.442
 4801SOL    HW214450   1.970   4.436   2.510
 4802SOL     OW14451   3.708   5.480   2.195
 4802SOL    HW114452   3.777   5.449   2.260
 4802SOL    HW214453   3.724   5.576   2.172
 4803SOL     OW14454   1.891   5.315   1.985
 4803SOL    HW114455   1.875   5.218   2.004
 4803SOL    HW214456   1.870   5.369   2.067
 4804SOL     OW14457   3.553   4.645   2.509
 4804SOL    HW114458   3.637   4.594   2.492
 4804SOL    HW214459   3.529   4.698   2.428
 4805SOL     OW14460   3.514   4.829   2.294
 4805SOL    HW114461   3.603   4.826   2.248
 4805SOL    HW214462   3.517   4.896   2.368
 4806SOL     OW14463   1.985   4.471   3.446
 4806SOL    HW114464   2.081   4.498   3.448
 4806SOL    HW214465   1.928   4.553   3.449
 4807SOL     OW14466   2.474   5.114   2.596
 4807SOL    HW114467   2.428   5.026   2.608
 4807SOL    HW214468   2.461   5.145   2.502
 4808SOL     OW14469   3.151   4.959   3.284
 4808SOL    HW114470   3.178   4.889   3.218
 4808SOL    HW214471   3.211   4.955   3.364
 4809SOL     OW14472   2.679   3.733   2.370
 4809SOL    HW114473   2.725   3.819   2.348
 4809SOL    HW214474   2.580   3.749   2.378
 4810SOL     OW14475   2.052   4.686   3.138
 4810SOL    HW114476   2.141   4.643   3.123
 4810SOL    HW214477   1.983   4.639   3.084
 4811SOL     OW14478   3.394   4.724   2.066
 4811SOL    HW114479   3.320   4.663   2.095
 4811SOL    HW214480   3.440   4.761   2.146
 4812SOL     OW14481   3.044   5.534   3.484
 4812SOL    HW114482   3.052   5.603   3.412
 4812SOL    HW214483   3.064   5.444   3.446
 4813SOL     OW14484   2.179   3.996   3.677
 4813SOL    HW114485   2.232   4.073   3.711
 4813SOL    HW214486   2.086   3.999   3.715
 4814SOL     OW14487   3.327   5.144   2.810
 4814SOL    HW114488   3.260   5.163   2.882
 4814SOL    HW214489   3.318   5.049   2.781
 4815SOL     OW14490   3.513   5.471   2.438
 4815SOL    HW114491   3.495   5.443   2.344
 4815SOL    HW214492   3.491   5.396   2.500
 4816SOL     OW14493   2.457   4.444   2.134
 4816SOL    HW114494   2.462   4.529   2.081
 4816SOL    HW214495   2.388   4.453   2.206
 4817SOL     OW14496   3.139   4.081   2.795
 4817SOL    HW114497   3.045   4.047   2.802
 4817SOL    HW214498   3.199   4.029   2.856
 4818SOL     OW14499   3.445   5.396   2.170
 4818SOL    HW114500   3.541   5.424   2.166
 4818SOL    HW214501   3.412   5.379   2.077
 4819SOL     OW14502   2.653   4.337   3.312
 4819SOL    HW114503   2.626   4.314   3.405
 4819SOL    HW214504   2.614   4.269   3.249
 4820SOL     OW14505   3.253   4.195   3.542
 4820SOL    HW114506   3.253   4.244   3.629
 4820SOL    HW214507   3.317   4.118   3.547
 4821SOL     OW14508   2.815   4.609   3.445
 4821SOL    HW114509   2.873   4.537   3.407
 4821SOL    HW214510   2.761   4.651   3.371
 4822SOL     OW14511   2.856   4.134   3.090
 4822SOL    HW114512   2.767   4.155   3.129
 4822SOL    HW214513   2.844   4.082   3.005
 4823SOL     OW14514   2.912   4.423   2.287
 4823SOL    HW114515   2.933   4.418   2.385
 4823SOL    HW214516   2.826   4.375   2.270
 4824SOL     OW14517   1.951   4.551   2.642
 4824SOL    HW114518   2.036   4.539   2.692
 4824SOL    HW214519   1.901   4.630   2.678
 4825SOL     OW14520   1.990   5.593   3.449
 4825SOL    HW114521   1.995   5.566   3.545
 4825SOL    HW214522   1.904   5.562   3.409
 4826SOL     OW14523   2.758   4.076   2.058
 4826SOL    HW114524   2.798   4.144   1.996
 4826SOL    HW214525   2.768   3.985   2.019
 4827SOL     OW14526   3.562   4.297   3.688
 4827SOL    HW114527   3.527   4.376   3.638
 4827SOL    HW214528   3.594   4.228   3.623
 4828SOL     OW14529   3.241   4.867   2.396
 4828SOL    HW114530   3.326   4.851   2.345
 4828SOL    HW214531   3.185   4.934   2.348
 4829SOL     OW14532   2.409   3.898   2.760
 4829SOL    HW114533   2.413   3.929   2.855
 4829SOL    HW214534   2.412   3.977   2.699
 4830SOL     OW14535   2.858   5.166   2.326
 4830SOL    HW114536   2.825   5.247   2.277
 4830SOL    HW214537   2.843   5.180   2.424
 4831SOL     OW14538   2.218   5.537   2.731
 4831SOL    HW114539   2.262   5.448   2.738
 4831SOL    HW214540   2.285   5.609   2.750
 4832SOL     OW14541   3.660   4.782   2.733
 4832SOL    HW114542   3.609   4.758   2.651
 4832SOL    HW214543   3.597   4.787   2.811
 4833SOL     OW14544   3.089   5.260   3.376
 4833SOL    HW114545   3.075   5.186   3.442
 4833SOL    HW214546   3.021   5.252   3.303
 4834SOL     OW14547   2.184   4.683   2.116
 4834SOL    HW114548   2.272   4.703   2.072
 4834SOL    HW214549   2.147   4.598   2.078
 4835SOL     OW14550   3.345   4.473   2.586
 4835SOL    HW114551   3.338   4.428   2.675
 4835SOL    HW214552   3.425   4.532   2.584
 4836SOL     OW14553   2.330   4.988   3.593
 4836SOL    HW114554   2.304   4.995   3.497
 4836SOL    HW214555   2.248   4.986   3.650
 4837SOL     OW14556   2.983   5.500   2.089
 4837SOL    HW114557   2.905   5.462   2.137
 4837SOL    HW214558   3.013   5.436   2.018
 4838SOL     OW14559   2.063   4.004   3.364
 4838SOL    HW114560   1.988   4.066   3.341
 4838SOL    HW214561   2.048   3.966   3.455
 4839SOL     OW14562   3.487   5.106   1.950
 4839SOL    HW114563   3.448   5.197   1.934
 4839SOL    HW214564   3.417   5.036   1.931
 4840SOL     OW14565   2.327   5.459   2.181
 4840SOL    HW114566   2.368   5.521   2.247
 4840SOL    HW214567   2.398   5.423   2.120
 4841SOL     OW14568   3.263   3.828   2.297
 4841SOL    HW114569   3.252   3.803   2.202
 4841SOL    HW214570   3.361   3.837   2.318
 4842SOL     OW14571   2.120   5.516   3.089
 4842SOL    HW114572   2.171   5.444   3.136
 4842SOL    HW214573   2.102   5.487   2.995
 4843SOL     OW14574   2.798   5.426   2.759
 4843SOL    HW114575   2.881   5.379   2.789
 4843SOL    HW214576   2.755   5.374   2.685
 4844SOL     OW14577   2.257   4.413   2.337
 4844SOL    HW114578   2.278   4.316   2.350
 4844SOL    HW214579   2.160   4.429   2.354
 4845SOL     OW14580   3.390   3.948   3.591
 4845SOL    HW114581   3.401   3.968   3.689
 4845SOL    HW214582   3.312   3.887   3.578
 4846SOL     OW14583   2.502   3.842   1.964
 4846SOL    HW114584   2.571   3.773   1.985
 4846SOL    HW214585   2.446   3.810   1.887
 4847SOL     OW14586   2.630   4.010   3.612
 4847SOL    HW114587   2.712   3.953   3.614
 4847SOL    HW214588   2.573   3.990   3.691
 4848SOL     OW14589   2.736   5.238   3.055
 4848SOL    HW114590   2.718   5.203   2.963
 4848SOL    HW214591   2.810   5.185   3.097
 4849SOL     OW14592   3.202   4.314   3.298
 4849SOL    HW114593   3.232   4.279   3.386
 4849SOL    HW214594   3.237   4.407   3.285
 4850SOL     OW14595   2.681   5.114   2.802
 4850SOL    HW114596   2.771   5.102   2.760
 4850SOL    HW214597   2.612   5.119   2.731
 4851SOL     OW14598   2.788   4.231   2.760
 4851SOL    HW114599   2.762   4.224   2.664
 4851SOL    HW214600   2.821   4.143   2.793
 4852SOL     OW14601   2.409   3.788   2.357
 4852SOL    HW114602   2.327   3.786   2.414
 4852SOL    HW214603   2.406   3.869   2.298
 4853SOL     OW14604   3.288   4.923   1.905
 4853SOL    HW114605   3.321   4.845   1.958
 4853SOL    HW214606   3.199   4.951   1.941
 4854SOL     OW14607   2.153   3.772   2.048
 4854SOL    HW114608   2.205   3.844   2.001
 4854SOL    HW214609   2.215   3.707   2.091
 4855SOL     OW14610   2.808   3.974   2.319
 4855SOL    HW114611   2.776   4.016   2.234
 4855SOL    HW214612   2.906   3.988   2.328
 4856SOL     OW14613   2.941   4.407   3.318
 4856SOL    HW114614   2.866   4.341   3.322
 4856SOL    HW214615   3.029   4.358   3.313
 4857SOL     OW14616   3.082   5.293   2.656
 4857SOL    HW114617   3.096   5.363   2.586
 4857SOL    HW214618   3.153   5.301   2.726
 4858SOL     OW14619   2.330   4.875   2.591
 4858SOL    HW114620   2.263   4.855   2.662
 4858SOL    HW214621   2.289   4.862   2.501
 4859SOL     OW14622   3.126   5.516   2.472
 4859SOL    HW114623   3.177   5.578   2.413
 4859SOL    HW214624   3.053   5.567   2.518
 4860SOL     OW14625   2.883   4.261   1.891
 4860SOL    HW114626   2.838   4.347   1.867
 4860SOL    HW214627   2.953   4.278   1.960
 4861SOL     OW14628   1.951   4.281   3.256
 4861SOL    HW114629   2.044   4.278   3.221
 4861SOL    HW214630   1.942   4.353   3.324
 4862SOL     OW14631   2.422   3.950   3.031
 4862SOL    HW114632   2.472   3.874   3.071
 4862SOL    HW214633   2.326   3.946   3.062
 4863SOL     OW14634   2.728   4.182   2.499
 4863SOL    HW114635   2.680   4.244   2.436
 4863SOL    HW214636   2.756   4.100   2.450
 4864SOL     OW14637   2.878   3.777   2.609
 4864SOL    HW114638   2.818   3.777   2.528
 4864SOL    HW214639   2.854   3.701   2.669
 4865SOL     OW14640   3.307   4.885   2.720
 4865SOL    HW114641   3.231   4.820   2.724
 4865SOL    HW214642   3.336   4.897   2.625
 4866SOL     OW14643   3.329   4.332   2.834
 4866SOL    HW114644   3.268   4.252   2.833
 4866SOL    HW214645   3.391   4.325   2.912
 4867SOL     OW14646   3.704   4.534   2.242
 4867SOL    HW114647   3.762   4.486   2.307
 4867SOL    HW214648   3.674   4.470   2.171
 4868SOL     OW14649   2.349   5.144   2.018
 4868SOL    HW114650   2.269   5.117   2.071
 4868SOL    HW214651   2.346   5.100   1.928
 4869SOL     OW14652   3.536   4.991   2.506
 4869SOL    HW114653   3.635   4.988   2.518
 4869SOL    HW214654   3.502   5.082   2.526
 4870SOL     OW14655   3.252   4.298   1.933
 4870SOL    HW114656   3.190   4.276   2.007
 4870SOL    HW214657   3.345   4.272   1.958
 4871SOL     OW14658   2.390   3.988   2.173
 4871SOL    HW114659   2.437   3.936   2.102
 4871SOL    HW214660   2.362   4.077   2.135
 4872SOL     OW14661   3.615   4.964   3.425
 4872SOL    HW114662   3.705   4.922   3.412
 4872SOL    HW214663   3.627   5.058   3.458
 4873SOL     OW14664   2.916   5.074   3.198
 4873SOL    HW114665   2.835   5.044   3.248
 4873SOL    HW214666   2.998   5.034   3.240
 4874SOL     OW14667   3.475   5.353   3.518
 4874SOL    HW114668   3.460   5.388   3.426
 4874SOL    HW214669   3.561   5.302   3.521
 4875SOL     OW14670   2.998   4.941   2.967
 4875SOL    HW114671   2.938   4.976   3.040
 4875SOL    HW214672   2.964   4.972   2.878
 4876SOL     OW14673   3.486   4.821   2.941
 4876SOL    HW114674   3.483   4.886   3.017
 4876SOL    HW214675   3.410   4.837   2.879
 4877SOL     OW14676   2.780   3.827   3.247
 4877SOL    HW114677   2.804   3.798   3.154
 4877SOL    HW214678   2.857   3.877   3.287
 4878SOL     OW14679   2.841   4.838   3.583
 4878SOL    HW114680   2.747   4.858   3.610
 4878SOL    HW214681   2.844   4.756   3.527
 4879SOL     OW14682   2.575   4.783   2.235
 4879SOL    HW114683   2.557   4.765   2.332
 4879SOL    HW214684   2.653   4.729   2.205
 4880SOL     OW14685   2.284   4.539   3.116
 4880SOL    HW114686   2.357   4.552   3.183
 4880SOL    HW214687   2.245   4.447   3.126
 4881SOL     OW14688   3.127   4.110   3.133
 4881SOL    HW114689   3.163   4.187   3.185
 4881SOL    HW214690   3.032   4.128   3.108
 4882SOL     OW14691   1.936   5.296   3.215
 4882SOL    HW114692   1.900   5.367   3.154
 4882SOL    HW214693   2.036   5.295   3.209
 4883SOL     OW14694   2.205   4.841   2.349
 4883SOL    HW114695   2.211   4.923   2.292
 4883SOL    HW214696   2.203   4.760   2.291
 4884SOL     OW14697   2.411   4.267   2.724
 4884SOL    HW114698   2.425   4.326   2.645
 4884SOL    HW214699   2.480   4.288   2.793
 4885SOL     OW14700   3.108   5.078   2.254
 4885SOL    HW114701   3.169   5.151   2.285
 4885SOL    HW214702   3.015   5.098   2.284
 4886SOL     OW14703   3.149   5.185   3.009
 4886SOL    HW114704   3.207   5.191   3.090
 4886SOL    HW214705   3.094   5.102   3.014
 4887SOL     OW14706   3.439   4.345   2.344
 4887SOL    HW114707   3.389   4.394   2.415
 4887SOL    HW214708   3.488   4.411   2.286
 4888SOL     OW14709   2.210   5.253   3.172
 4888SOL    HW114710   2.194   5.209   3.084
 4888SOL    HW214711   2.308   5.267   3.184
 4889SOL     OW14712   2.279   4.469   3.462
 4889SOL    HW114713   2.343   4.517   3.403
 4889SOL    HW214714   2.316   4.379   3.486
 4890SOL     OW14715   3.469   4.509   3.546
 4890SOL    HW114716   3.378   4.551   3.543
 4890SOL    HW214717   3.526   4.549   3.475
 4891SOL     OW14718   2.863   3.868   3.622
 4891SOL    HW114719   2.913   3.953   3.605
 4891SOL    HW214720   2.912   3.791   3.581
 4892SOL     OW14721   2.375   3.836   3.606
 4892SOL    HW114722   2.350   3.761   3.545
 4892SOL    HW214723   2.296   3.895   3.621
 4893SOL     OW14724   2.446   4.595   2.896
 4893SOL    HW114725   2.481   4.689   2.892
 4893SOL    HW214726   2.386   4.586   2.975
 4894SOL     OW14727   3.215   4.581   2.887
 4894SOL    HW114728   3.125   4.574   2.845
 4894SOL    HW214729   3.263   4.494   2.879
 4895SOL     OW14730   3.060   4.251   2.127
 4895SOL    HW114731   3.073   4.168   2.182
 4895SOL    HW214732   3.016   4.321   2.182
 4896SOL     OW14733   2.163   3.918   3.110
 4896SOL    HW114734   2.118   3.954   3.192
 4896SOL    HW214735   2.147   3.819   3.104
 4897SOL     OW14736   1.915   5.034   3.138
 4897SOL    HW114737   1.946   4.973   3.210
 4897SOL    HW214738   1.917   5.129   3.170
 4898SOL     OW14739   2.587   4.355   2.918
 4898SOL    HW114740   2.663   4.335   2.857
 4898SOL    HW214741   2.552   4.447   2.898
 4899SOL     OW14742   3.597   4.684   3.717
 4899SOL    HW114743   3.554   4.616   3.658
 4899SOL    HW214744   3.538   4.703   3.795
 4900SOL     OW14745   2.168   3.786   2.489
 4900SOL    HW114746   2.144   3.881   2.508
 4900SOL    HW214747   2.179   3.737   2.576
 4901SOL     OW14748   3.488   4.104   2.225
 4901SOL    HW114749   3.514   4.031   2.287
 4901SOL    HW214750   3.460   4.184   2.277
 4902SOL     OW14751   2.886   4.479   2.820
 4902SOL    HW114752   2.881   4.501   2.918
 4902SOL    HW214753   2.859   4.384   2.806
 4903SOL     OW14754   2.843   5.287   3.579
 4903SOL    HW114755   2.827   5.335   3.493
 4903SOL    HW214756   2.891   5.201   3.561
 4904SOL     OW14757   3.717   5.228   3.466
 4904SOL    HW114758   3.735   5.254   3.371
 4904SOL    HW214759   3.800   5.240   3.520
 4905SOL     OW14760   2.215   4.641   3.667
 4905SOL    HW114761   2.295   4.664   3.722
 4905SOL    HW214762   2.241   4.576   3.596
 4906SOL     OW14763   3.389   3.993   1.992
 4906SOL    HW114764   3.320   3.925   2.017
 4906SOL    HW214765   3.426   4.035   2.075
 4907SOL     OW14766   3.151   4.550   1.889
 4907SOL    HW114767   3.192   4.459   1.897
 4907SOL    HW214768   3.182   4.593   1.804
 4908SOL     OW14769   2.932   5.061   2.717
 4908SOL    HW114770   2.935   4.983   2.654
 4908SOL    HW214771   2.991   5.134   2.682
 4909SOL     OW14772   2.173   4.530   2.805
 4909SOL    HW114773   2.269   4.556   2.799
 4909SOL    HW214774   2.166   4.436   2.838
 4910SOL     OW14775   2.190   4.251   2.874
 4910SOL    HW114776   2.152   4.159   2.863
 4910SOL    HW214777   2.271   4.260   2.815
 4911SOL     OW14778   2.994   4.103   3.554
 4911SOL    HW114779   2.943   4.162   3.617
 4911SOL    HW214780   3.088   4.137   3.547
 4912SOL     OW14781   3.011   3.953   3.325
 4912SOL    HW114782   3.001   4.014   3.403
 4912SOL    HW214783   3.060   4.000   3.251
 4913SOL     OW14784   1.863   5.040   2.057
 4913SOL    HW114785   1.773   5.059   2.016
 4913SOL    HW214786   1.864   4.946   2.092
 4914SOL     OW14787   1.955   5.508   2.805
 4914SOL    HW114788   1.919   5.427   2.760
 4914SOL    HW214789   2.049   5.525   2.773
 4915SOL     OW14790   2.356   5.300   2.767
 4915SOL    HW114791   2.426   5.366   2.794
 4915SOL    HW214792   2.397   5.232   2.705
 4916SOL     OW14793   2.838   4.518   3.086
 4916SOL    HW114794   2.898   4.494   3.163
 4916SOL    HW214795   2.748   4.476   3.100
 4917SOL     OW14796   1.899   4.276   2.980
 4917SOL    HW114797   1.980   4.262   2.923
 4917SOL    HW214798   1.926   4.278   3.076
 4918SOL     OW14799   2.045   4.249   3.590
 4918SOL    HW114800   2.114   4.207   3.531
 4918SOL    HW214801   2.007   4.330   3.545
 4919SOL     OW14802   3.242   4.660   3.517
 4919SOL    HW114803   3.265   4.757   3.518
 4919SOL    HW214804   3.239   4.628   3.422
 4920SOL     OW14805   2.679   4.296   2.222
 4920SOL    HW114806   2.688   4.216   2.162
 4920SOL    HW214807   2.601   4.351   2.193
 4921SOL     OW14808   3.505   4.327   3.044
 4921SOL    HW114809   3.488   4.267   3.121
 4921SOL    HW214810   3.596   4.310   3.007
 4922SOL     OW14811   2.103   5.271   3.588
 4922SOL    HW114812   2.081   5.346   3.652
 4922SOL    HW214813   2.108   5.185   3.639
 4923SOL     OW14814   2.567   4.173   3.116
 4923SOL    HW114815   2.511   4.094   3.090
 4923SOL    HW214816   2.566   4.241   3.043
 4924SOL     OW14817   2.783   5.405   3.333
 4924SOL    HW114818   2.757   5.359   3.248
 4924SOL    HW214819   2.783   5.504   3.319
 4925SOL     OW14820   2.321   4.219   2.048
 4925SOL    HW114821   2.386   4.292   2.073
 4925SOL    HW214822   2.231   4.259   2.034
 4926SOL     OW14823   2.004   4.861   3.337
 4926SOL    HW114824   2.006   4.816   3.426
 4926SOL    HW214825   2.024   4.795   3.266
 4927SOL     OW14826   3.178   4.768   3.081
 4927SOL    HW114827   3.206   4.700   3.013
 4927SOL    HW214828   3.110   4.829   3.041
 4928SOL     OW14829   3.177   4.581   2.162
 4928SOL    HW114830   3.101   4.553   2.220
 4928SOL    HW214831   3.152   4.568   2.066
 4929SOL     OW14832   3.641   5.455   3.018
 4929SOL    HW114833   3.702   5.489   2.947
 4929SOL    HW214834   3.610   5.363   2.994
 4930SOL     OW14835   3.103   5.457   2.968
 4930SOL    HW114836   3.189   5.485   2.925
 4930SOL    HW214837   3.109   5.360   2.991
 4931SOL     OW14838   1.948   4.989   2.873
 4931SOL    HW114839   1.933   5.004   2.970
 4931SOL    HW214840   1.875   4.931   2.836
 4932SOL     OW14841   2.542   5.397   3.597
 4932SOL    HW114842   2.480   5.475   3.593
 4932SOL    HW214843   2.615   5.408   3.529
 4933SOL     OW14844   3.580   3.873   2.361
 4933SOL    HW114845   3.657   3.863   2.297
 4933SOL    HW214846   3.563   3.785   2.407
 4934SOL     OW14847   3.257   5.294   2.349
 4934SOL    HW114848   3.320   5.326   2.278
 4934SOL    HW214849   3.202   5.371   2.382
 4935SOL     OW14850   2.007   5.511   3.708
 4935SOL    HW114851   1.949   5.443   3.753
 4935SOL    HW214852   2.056   5.565   3.776
 4936SOL     OW14853   3.144   4.652   2.528
 4936SOL    HW114854   3.218   4.587   2.544
 4936SOL    HW214855   3.177   4.729   2.473
 4937SOL     OW14856   2.667   5.002   3.289
 4937SOL    HW114857   2.637   5.045   3.375
 4937SOL    HW214858   2.598   5.018   3.218
 4938SOL     OW14859   2.531   5.345   2.016
 4938SOL    HW114860   2.547   5.363   1.919
 4938SOL    HW214861   2.472   5.264   2.026
 4939SOL     OW14862   3.480   5.452   3.249
 4939SOL    HW114863   3.537   5.454   3.167
 4939SOL    HW214864   3.465   5.546   3.281
 4940SOL     OW14865   3.704   3.894   2.824
 4940SOL    HW114866   3.740   3.804   2.800
 4940SOL    HW214867   3.613   3.906   2.786
 4941SOL     OW14868   2.118   4.038   2.578
 4941SOL    HW114869   2.029   4.075   2.550
 4941SOL    HW214870   2.121   4.030   2.677
 4942SOL     OW14871   3.070   5.325   1.895
 4942SOL    HW114872   3.061   5.231   1.928
 4942SOL    HW214873   3.003   5.342   1.823
 4943SOL     OW14874   2.686   4.734   3.239
 4943SOL    HW114875   2.736   4.719   3.154
 4943SOL    HW214876   2.683   4.831   3.260
 4944SOL     OW14877   2.782   4.634   2.149
 4944SOL    HW114878   2.843   4.670   2.078
 4944SOL    HW214879   2.828   4.563   2.201
 4945SOL     OW14880   3.351   5.353   1.904
 4945SOL    HW114881   3.252   5.342   1.893
 4945SOL    HW214882   3.394   5.359   1.814
 4946SOL     OW14883   2.228   5.027   3.349
 4946SOL    HW114884   2.218   5.107   3.291
 4946SOL    HW214885   2.148   4.968   3.338
 4947SOL     OW14886   3.475   5.008   3.146
 4947SOL    HW114887   3.539   4.990   3.221
 4947SOL    HW214888   3.410   5.078   3.175
 4948SOL     OW14889   2.922   4.830   2.576
 4948SOL    HW114890   2.846   4.780   2.616
 4948SOL    HW214891   2.990   4.766   2.542
 4949SOL     OW14892   2.884   3.963   2.830
 4949SOL    HW114893   2.880   3.919   2.740
 4949SOL    HW214894   2.882   3.893   2.901
 4950SOL     OW14895   2.466   5.210   2.342
 4950SOL    HW114896   2.517   5.156   2.275
 4950SOL    HW214897   2.393   5.260   2.296
 4951SOL     OW14898   3.593   4.115   3.242
 4951SOL    HW114899   3.664   4.186   3.243
 4951SOL    HW214900   3.620   4.041   3.182
 4952SOL     OW14901   2.115   5.072   2.150
 4952SOL    HW114902   2.019   5.065   2.123
 4952SOL    HW214903   2.121   5.110   2.243
 4953SOL     OW14904   1.976   4.756   3.589
 4953SOL    HW114905   1.894   4.729   3.640
 4953SOL    HW214906   2.056   4.712   3.629
 4954SOL     OW14907   2.541   3.914   3.358
 4954SOL    HW114908   2.629   3.895   3.314
 4954SOL    HW214909   2.557   3.948   3.450
 4955SOL     OW14910   1.943   4.053   1.892
 4955SOL    HW114911   1.851   4.029   1.861
 4955SOL    HW214912   1.975   4.134   1.843
 4956SOL     OW14913   3.286   4.581   3.257
 4956SOL    HW114914   3.231   4.645   3.204
 4956SOL    HW214915   3.380   4.582   3.224
 4957SOL     OW14916   1.926   3.879   2.166
 4957SOL    HW114917   1.909   3.964   2.115
 4957SOL    HW214918   2.014   3.841   2.138
 4958SOL     OW14919   3.042   5.062   1.982
 4958SOL    HW114920   2.947   5.032   1.976
 4958SOL    HW214921   3.071   5.063   2.078
 4959SOL     OW14922   2.485   4.554   3.295
 4959SOL    HW114923   2.542   4.635   3.280
 4959SOL    HW214924   2.544   4.474   3.305
 4960SOL     OW14925   3.347   5.511   2.849
 4960SOL    HW114926   3.368   5.572   2.773
 4960SOL    HW214927   3.432   5.478   2.890
 4961SOL     OW14928   2.581   4.286   3.564
 4961SOL    HW114929   2.627   4.352   3.623
 4961SOL    HW214930   2.606   4.193   3.593
 4962SOL     OW14931   3.335   4.921   3.497
 4962SOL    HW114932   3.320   4.934   3.595
 4962SOL    HW214933   3.431   4.939   3.475
 4963SOL     OW14934   2.234   5.462   3.428
 4963SOL    HW114935   2.150   5.513   3.414
 4963SOL    HW214936   2.213   5.374   3.471
 4964SOL     OW14937   3.528   4.602   3.118
 4964SOL    HW114938   3.524   4.511   3.077
 4964SOL    HW214939   3.516   4.672   3.047
 4965SOL     OW14940   3.081   4.040   2.322
 4965SOL    HW114941   3.145   3.964   2.311
 4965SOL    HW214942   3.108   4.096   2.401
 4966SOL     OW14943   2.448   4.461   2.531
 4966SOL    HW114944   2.490   4.551   2.520
 4966SOL    HW214945   2.379   4.448   2.460
 4967SOL     OW14946   3.613   4.089   3.515
 4967SOL    HW114947   3.605   4.104   3.417
 4967SOL    HW214948   3.539   4.029   3.546
 4968SOL     OW14949   3.613   4.656   3.372
 4968SOL    HW114950   3.603   4.753   3.393
 4968SOL    HW214951   3.593   4.641   3.275
 4969SOL     OW14952   2.728   5.088   1.904
 4969SOL    HW114953   2.687   5.112   1.992
 4969SOL    HW214954   2.744   5.171   1.851
 4970SOL     OW14955   2.526   5.510   2.805
 4970SOL    HW114956   2.503   5.605   2.783
 4970SOL    HW214957   2.625   5.497   2.793
 4971SOL     OW14958   2.731   4.694   2.718
 4971SOL    HW114959   2.782   4.616   2.755
 4971SOL    HW214960   2.689   4.745   2.794
 4972SOL     OW14961   2.940   4.714   1.946
 4972SOL    HW114962   2.912   4.767   1.866
 4972SOL    HW214963   3.018   4.655   1.922
 4973SOL     OW14964   3.709   5.280   2.709
 4973SOL    HW114965   3.632   5.268   2.646
 4973SOL    HW214966   3.705   5.211   2.781
 4974SOL     OW14967   2.093   5.023   3.719
 4974SOL    HW114968   2.026   4.958   3.685
 4974SOL    HW214969   2.079   5.038   3.817
 4975SOL     OW14970   1.949   4.954   2.526
 4975SOL    HW114971   1.952   4.908   2.614
 4975SOL    HW214972   2.017   4.914   2.464
 4976SOL     OW14973   2.544   5.132   3.495
 4976SOL    HW114974   2.463   5.083   3.527
 4976SOL    HW214975   2.542   5.225   3.532
 4977SOL     OW14976   3.672   3.907   3.096
 4977SOL    HW114977   3.675   3.810   3.121
 4977SOL    HW214978   3.683   3.916   2.997
 4978SOL     OW14979   2.293   4.152   2.389
 4978SOL    HW114980   2.326   4.083   2.326
 4978SOL    HW214981   2.238   4.109   2.461
 4979SOL     OW14982   3.556   5.207   2.957
 4979SOL    HW114983   3.474   5.189   2.901
 4979SOL    HW214984   3.565   5.136   3.026
 4980SOL     OW14985   2.197   4.280   3.150
 4980SOL    HW114986   2.255   4.224   3.210
 4980SOL    HW214987   2.213   4.254   3.055
 4981SOL     OW14988   2.690   5.304   2.541
 4981SOL    HW114989   2.678   5.364   2.462
 4981SOL    HW214990   2.613   5.240   2.547
 4982SOL     OW14991   3.293   3.954   2.978
 4982SOL    HW114992   3.318   3.866   3.019
 4982SOL    HW214993   3.240   4.007   3.044
 4983SOL     OW14994   2.872   3.739   3.000
 4983SOL    HW114995   2.810   3.675   2.954
 4983SOL    HW214996   2.963   3.699   3.004
 4984SOL     OW14997   2.636   5.056   2.182
 4984SOL    HW114998   2.608   4.960   2.190
 4984SOL    HW214999   2.721   5.069   2.233
 4985SOL     OW15000   2.485   5.283   3.152
 4985SOL    HW115001   2.483   5.369   3.201
 4985SOL    HW215002   2.576   5.270   3.111
 4986SOL     OW15003   3.215   3.775   2.031
 4986SOL    HW115004   3.258   3.707   1.970
 4986SOL    HW215005   3.123   3.745   2.054
 4987SOL     OW15006   3.153   4.188   2.542
 4987SOL    HW115007   3.100   4.273   2.545
 4987SOL    HW215008   3.151   4.145   2.633
 4988SOL     OW15009   3.448   3.928   2.744
 4988SOL    HW115010   3.390   3.946   2.824
 4988SOL    HW215011   3.450   4.008   2.685
 4989SOL     OW15012   1.905   4.789   2.170
 4989SOL    HW115013   2.003   4.788   2.150
 4989SOL    HW215014   1.875   4.696   2.192
 4990SOL     OW15015   2.746   5.385   2.203
 4990SOL    HW115016   2.671   5.364   2.140
 4990SOL    HW215017   2.720   5.463   2.260
 4991SOL     OW15018   2.084   4.340   3.851
 4991SOL    HW115019   1.994   4.344   3.894
 4991SOL    HW215020   2.073   4.321   3.753
 4992SOL     OW15021   2.085   4.006   4.718
 4992SOL    HW115022   2.117   3.972   4.807
 4992SOL    HW215023   1.992   3.974   4.702
 4993SOL     OW15024   1.863   4.109   4.358
 4993SOL    HW115025   1.779   4.139   4.403
 4993SOL    HW215026   1.845   4.026   4.306
 4994SOL     OW15027   2.430   5.020   4.908
 4994SOL    HW115028   2.340   5.017   4.866
 4994SOL    HW215029   2.448   5.112   4.942
 4995SOL     OW15030   3.426   5.237   4.431
 4995SOL    HW115031   3.383   5.213   4.519
 4995SOL    HW215032   3.355   5.244   4.361
 4996SOL     OW15033   2.994   4.427   4.419
 4996SOL    HW115034   3.046   4.511   4.403
 4996SOL    HW215035   2.944   4.436   4.506
 4997SOL     OW15036   3.630   4.325   3.947
 4997SOL    HW115037   3.607   4.320   3.850
 4997SOL    HW215038   3.594   4.244   3.994
 4998SOL     OW15039   2.607   4.865   4.764
 4998SOL    HW115040   2.539   4.900   4.828
 4998SOL    HW215041   2.651   4.942   4.718
 4999SOL     OW15042   2.735   4.490   5.545
 4999SOL    HW115043   2.723   4.558   5.617
 4999SOL    HW215044   2.759   4.535   5.459
 5000SOL     OW15045   2.546   4.723   4.373
 5000SOL    HW115046   2.617   4.713   4.443
 5000SOL    HW215047   2.471   4.779   4.410
 5001SOL     OW15048   2.573   4.877   5.541
 5001SOL    HW115049   2.625   4.956   5.573
 5001SOL    HW215050   2.488   4.909   5.500
 5002SOL     OW15051   2.188   5.148   4.790
 5002SOL    HW115052   2.112   5.103   4.743
 5002SOL    HW215053   2.242   5.200   4.724
 5003SOL     OW15054   3.320   5.225   5.081
 5003SOL    HW115055   3.378   5.307   5.088
 5003SOL    HW215056   3.250   5.227   5.152
 5004SOL     OW15057   2.312   4.118   5.204
 5004SOL    HW115058   2.393   4.060   5.211
 5004SOL    HW215059   2.230   4.064   5.221
 5005SOL     OW15060   3.474   4.171   4.468
 5005SOL    HW115061   3.399   4.190   4.405
 5005SOL    HW215062   3.483   4.246   4.533
 5006SOL     OW15063   2.084   5.438   4.196
 5006SOL    HW115064   2.102   5.517   4.255
 5006SOL    HW215065   2.159   5.428   4.130
 5007SOL     OW15066   2.999   5.064   5.421
 5007SOL    HW115067   3.046   5.062   5.510
 5007SOL    HW215068   2.943   4.982   5.412
 5008SOL     OW15069   2.095   5.167   4.260
 5008SOL    HW115070   2.079   5.266   4.259
 5008SOL    HW215071   2.035   5.124   4.327
 5009SOL     OW15072   2.131   4.814   4.625
 5009SOL    HW115073   2.126   4.720   4.658
 5009SOL    HW215074   2.068   4.871   4.678
 5010SOL     OW15075   2.462   5.520   5.151
 5010SOL    HW115076   2.379   5.496   5.201
 5010SOL    HW215077   2.493   5.611   5.179
 5011SOL     OW15078   2.445   4.711   3.864
 5011SOL    HW115079   2.492   4.758   3.790
 5011SOL    HW215080   2.485   4.738   3.952
 5012SOL     OW15081   3.458   3.848   5.194
 5012SOL    HW115082   3.477   3.928   5.136
 5012SOL    HW215083   3.444   3.878   5.288
 5013SOL     OW15084   1.976   4.384   4.287
 5013SOL    HW115085   1.947   4.290   4.304
 5013SOL    HW215086   1.970   4.436   4.373
 5014SOL     OW15087   3.708   5.480   4.057
 5014SOL    HW115088   3.777   5.449   4.122
 5014SOL    HW215089   3.724   5.576   4.034
 5015SOL     OW15090   1.891   5.315   3.848
 5015SOL    HW115091   1.875   5.218   3.867
 5015SOL    HW215092   1.870   5.369   3.929
 5016SOL     OW15093   3.553   4.645   4.370
 5016SOL    HW115094   3.637   4.594   4.354
 5016SOL    HW215095   3.529   4.698   4.289
 5017SOL     OW15096   3.514   4.829   4.156
 5017SOL    HW115097   3.603   4.827   4.110
 5017SOL    HW215098   3.517   4.896   4.230
 5018SOL     OW15099   1.985   4.468   5.309
 5018SOL    HW115100   2.082   4.494   5.311
 5018SOL    HW215101   1.929   4.550   5.311
 5019SOL     OW15102   2.474   5.114   4.458
 5019SOL    HW115103   2.428   5.026   4.470
 5019SOL    HW215104   2.461   5.145   4.364
 5020SOL     OW15105   3.151   4.959   5.146
 5020SOL    HW115106   3.178   4.889   5.080
 5020SOL    HW215107   3.211   4.955   5.226
 5021SOL     OW15108   2.675   3.730   4.226
 5021SOL    HW115109   2.722   3.816   4.207
 5021SOL    HW215110   2.577   3.747   4.237
 5022SOL     OW15111   2.053   4.686   5.000
 5022SOL    HW115112   2.141   4.643   4.985
 5022SOL    HW215113   1.983   4.638   4.947
 5023SOL     OW15114   3.394   4.723   3.928
 5023SOL    HW115115   3.320   4.663   3.958
 5023SOL    HW215116   3.440   4.761   4.008
 5024SOL     OW15117   3.044   5.534   5.346
 5024SOL    HW115118   3.052   5.603   5.274
 5024SOL    HW215119   3.064   5.444   5.308
 5025SOL     OW15120   2.202   3.973   5.554
 5025SOL    HW115121   2.251   4.059   5.568
 5025SOL    HW215122   2.105   3.986   5.574
 5026SOL     OW15123   3.327   5.144   4.672
 5026SOL    HW115124   3.260   5.163   4.744
 5026SOL    HW215125   3.318   5.049   4.643
 5027SOL     OW15126   3.513   5.471   4.300
 5027SOL    HW115127   3.495   5.443   4.206
 5027SOL    HW215128   3.491   5.396   4.362
 5028SOL     OW15129   2.456   4.443   3.996
 5028SOL    HW115130   2.462   4.528   3.944
 5028SOL    HW215131   2.387   4.452   4.067
 5029SOL     OW15132   3.139   4.081   4.657
 5029SOL    HW115133   3.046   4.047   4.664
 5029SOL    HW215134   3.198   4.029   4.718
 5030SOL     OW15135   3.445   5.396   4.032
 5030SOL    HW115136   3.541   5.425   4.028
 5030SOL    HW215137   3.413   5.379   3.939
 5031SOL     OW15138   2.652   4.337   5.174
 5031SOL    HW115139   2.627   4.314   5.268
 5031SOL    HW215140   2.614   4.269   5.111
 5032SOL     OW15141   3.253   4.194   5.403
 5032SOL    HW115142   3.254   4.243   5.490
 5032SOL    HW215143   3.315   4.115   5.409
 5033SOL     OW15144   2.815   4.609   5.307
 5033SOL    HW115145   2.873   4.537   5.269
 5033SOL    HW215146   2.761   4.651   5.233
 5034SOL     OW15147   2.856   4.130   4.954
 5034SOL    HW115148   2.767   4.153   4.993
 5034SOL    HW215149   2.843   4.081   4.868
 5035SOL     OW15150   2.912   4.422   4.149
 5035SOL    HW115151   2.933   4.418   4.246
 5035SOL    HW215152   2.826   4.374   4.132
 5036SOL     OW15153   1.951   4.551   4.503
 5036SOL    HW115154   2.036   4.539   4.554
 5036SOL    HW215155   1.901   4.630   4.540
 5037SOL     OW15156   1.990   5.593   5.311
 5037SOL    HW115157   1.995   5.566   5.407
 5037SOL    HW215158   1.904   5.562   5.271
 5038SOL     OW15159   2.758   4.075   3.917
 5038SOL    HW115160   2.795   4.146   3.856
 5038SOL    HW215161   2.785   3.985   3.882
 5039SOL     OW15162   3.564   4.297   5.550
 5039SOL    HW115163   3.528   4.376   5.500
 5039SOL    HW215164   3.594   4.227   5.485
 5040SOL     OW15165   3.241   4.867   4.258
 5040SOL    HW115166   3.326   4.851   4.207
 5040SOL    HW215167   3.185   4.934   4.210
 5041SOL     OW15168   2.410   3.899   4.624
 5041SOL    HW115169   2.413   3.928   4.719
 5041SOL    HW215170   2.411   3.979   4.564
 5042SOL     OW15171   2.858   5.166   4.188
 5042SOL    HW115172   2.825   5.247   4.139
 5042SOL    HW215173   2.843   5.180   4.286
 5043SOL     OW15174   2.218   5.537   4.593
 5043SOL    HW115175   2.262   5.448   4.600
 5043SOL    HW215176   2.285   5.609   4.612
 5044SOL     OW15177   3.660   4.781   4.595
 5044SOL    HW115178   3.608   4.758   4.513
 5044SOL    HW215179   3.597   4.787   4.673
 5045SOL     OW15180   3.089   5.260   5.238
 5045SOL    HW115181   3.075   5.186   5.304
 5045SOL    HW215182   3.021   5.252   5.165
 5046SOL     OW15183   2.184   4.683   3.978
 5046SOL    HW115184   2.272   4.704   3.935
 5046SOL    HW215185   2.147   4.598   3.940
 5047SOL     OW15186   3.345   4.473   4.447
 5047SOL    HW115187   3.338   4.428   4.537
 5047SOL    HW215188   3.425   4.532   4.446
 5048SOL     OW15189   2.330   4.989   5.455
 5048SOL    HW115190   2.304   4.995   5.359
 5048SOL    HW215191   2.248   4.986   5.512
 5049SOL     OW15192   2.983   5.500   3.951
 5049SOL    HW115193   2.905   5.462   3.999
 5049SOL    HW215194   3.013   5.436   3.880
 5050SOL     OW15195   2.064   4.000   5.227
 5050SOL    HW115196   1.982   4.057   5.222
 5050SOL    HW215197   2.043   3.914   5.273
 5051SOL     OW15198   3.487   5.105   3.812
 5051SOL    HW115199   3.448   5.196   3.796
 5051SOL    HW215200   3.417   5.036   3.793
 5052SOL     OW15201   2.327   5.459   4.043
 5052SOL    HW115202   2.368   5.521   4.109
 5052SOL    HW215203   2.398   5.423   3.982
 5053SOL     OW15204   3.264   3.830   4.162
 5053SOL    HW115205   3.253   3.805   4.066
 5053SOL    HW215206   3.362   3.838   4.183
 5054SOL     OW15207   2.120   5.516   4.951
 5054SOL    HW115208   2.171   5.444   4.998
 5054SOL    HW215209   2.102   5.487   4.857
 5055SOL     OW15210   2.798   5.426   4.621
 5055SOL    HW115211   2.881   5.379   4.651
 5055SOL    HW215212   2.755   5.374   4.547
 5056SOL     OW15213   2.257   4.413   4.199
 5056SOL    HW115214   2.277   4.316   4.213
 5056SOL    HW215215   2.160   4.429   4.217
 5057SOL     OW15216   3.391   3.947   5.452
 5057SOL    HW115217   3.402   3.968   5.549
 5057SOL    HW215218   3.319   3.879   5.441
 5058SOL     OW15219   2.495   3.835   3.844
 5058SOL    HW115220   2.584   3.790   3.838
 5058SOL    HW215221   2.449   3.829   3.755
 5059SOL     OW15222   2.626   4.000   5.481
 5059SOL    HW115223   2.710   3.946   5.475
 5059SOL    HW215224   2.574   3.973   5.562
 5060SOL     OW15225   2.736   5.238   4.917
 5060SOL    HW115226   2.718   5.203   4.825
 5060SOL    HW215227   2.810   5.185   4.959
 5061SOL     OW15228   3.202   4.313   5.159
 5061SOL    HW115229   3.232   4.278   5.248
 5061SOL    HW215230   3.237   4.405   5.146
 5062SOL     OW15231   2.681   5.114   4.664
 5062SOL    HW115232   2.771   5.102   4.622
 5062SOL    HW215233   2.612   5.119   4.593
 5063SOL     OW15234   2.789   4.231   4.623
 5063SOL    HW115235   2.763   4.224   4.526
 5063SOL    HW215236   2.821   4.143   4.655
 5064SOL     OW15237   2.407   3.789   4.222
 5064SOL    HW115238   2.325   3.787   4.279
 5064SOL    HW215239   2.405   3.870   4.164
 5065SOL     OW15240   3.288   4.923   3.767
 5065SOL    HW115241   3.321   4.845   3.820
 5065SOL    HW215242   3.199   4.952   3.803
 5066SOL     OW15243   2.155   3.784   3.930
 5066SOL    HW115244   2.211   3.842   3.871
 5066SOL    HW215245   2.210   3.709   3.966
 5067SOL     OW15246   2.807   3.972   4.181
 5067SOL    HW115247   2.773   4.016   4.098
 5067SOL    HW215248   2.905   3.987   4.190
 5068SOL     OW15249   2.942   4.406   5.180
 5068SOL    HW115250   2.866   4.341   5.185
 5068SOL    HW215251   3.029   4.357   5.175
 5069SOL     OW15252   3.082   5.293   4.518
 5069SOL    HW115253   3.096   5.363   4.448
 5069SOL    HW215254   3.153   5.301   4.588
 5070SOL     OW15255   2.330   4.875   4.453
 5070SOL    HW115256   2.263   4.855   4.524
 5070SOL    HW215257   2.289   4.862   4.363
 5071SOL     OW15258   3.126   5.516   4.334
 5071SOL    HW115259   3.177   5.578   4.275
 5071SOL    HW215260   3.053   5.567   4.380
 5072SOL     OW15261   2.882   4.262   3.753
 5072SOL    HW115262   2.837   4.348   3.730
 5072SOL    HW215263   2.952   4.279   3.823
 5073SOL     OW15264   1.948   4.281   5.115
 5073SOL    HW115265   2.042   4.277   5.083
 5073SOL    HW215266   1.940   4.352   5.185
 5074SOL     OW15267   2.420   3.948   4.895
 5074SOL    HW115268   2.470   3.872   4.938
 5074SOL    HW215269   2.325   3.946   4.925
 5075SOL     OW15270   2.728   4.182   4.361
 5075SOL    HW115271   2.680   4.244   4.299
 5075SOL    HW215272   2.755   4.099   4.312
 5076SOL     OW15273   2.880   3.777   4.471
 5076SOL    HW115274   2.819   3.778   4.392
 5076SOL    HW215275   2.856   3.701   4.531
 5077SOL     OW15276   3.307   4.885   4.582
 5077SOL    HW115277   3.231   4.820   4.586
 5077SOL    HW215278   3.336   4.897   4.487
 5078SOL     OW15279   3.330   4.331   4.695
 5078SOL    HW115280   3.268   4.252   4.695
 5078SOL    HW215281   3.391   4.326   4.774
 5079SOL     OW15282   3.704   4.534   4.104
 5079SOL    HW115283   3.762   4.486   4.169
 5079SOL    HW215284   3.674   4.470   4.033
 5080SOL     OW15285   2.349   5.144   3.880
 5080SOL    HW115286   2.269   5.117   3.933
 5080SOL    HW215287   2.345   5.100   3.790
 5081SOL     OW15288   3.536   4.991   4.368
 5081SOL    HW115289   3.635   4.988   4.380
 5081SOL    HW215290   3.502   5.082   4.388
 5082SOL     OW15291   3.252   4.298   3.795
 5082SOL    HW115292   3.190   4.276   3.870
 5082SOL    HW215293   3.346   4.274   3.820
 5083SOL     OW15294   2.392   3.992   4.041
 5083SOL    HW115295   2.434   3.933   3.972
 5083SOL    HW215296   2.364   4.078   3.999
 5084SOL     OW15297   3.615   4.964   5.286
 5084SOL    HW115298   3.705   4.922   5.274
 5084SOL    HW215299   3.626   5.058   5.320
 5085SOL     OW15300   2.916   5.074   5.060
 5085SOL    HW115301   2.835   5.044   5.110
 5085SOL    HW215302   2.998   5.034   5.102
 5086SOL     OW15303   3.475   5.353   5.380
 5086SOL    HW115304   3.460   5.388   5.288
 5086SOL    HW215305   3.561   5.302   5.383
 5087SOL     OW15306   2.998   4.941   4.829
 5087SOL    HW115307   2.938   4.976   4.902
 5087SOL    HW215308   2.964   4.972   4.740
 5088SOL     OW15309   3.487   4.821   4.803
 5088SOL    HW115310   3.483   4.886   4.879
 5088SOL    HW215311   3.410   4.837   4.741
 5089SOL     OW15312   2.785   3.819   5.116
 5089SOL    HW115313   2.806   3.796   5.021
 5089SOL    HW215314   2.864   3.862   5.159
 5090SOL     OW15315   2.841   4.838   5.445
 5090SOL    HW115316   2.747   4.858   5.472
 5090SOL    HW215317   2.844   4.756   5.389
 5091SOL     OW15318   2.574   4.782   4.097
 5091SOL    HW115319   2.557   4.765   4.194
 5091SOL    HW215320   2.653   4.729   4.067
 5092SOL     OW15321   2.284   4.538   4.977
 5092SOL    HW115322   2.357   4.552   5.045
 5092SOL    HW215323   2.245   4.447   4.988
 5093SOL     OW15324   3.125   4.100   5.004
 5093SOL    HW115325   3.162   4.180   5.053
 5093SOL    HW215326   3.029   4.118   4.979
 5094SOL     OW15327   1.936   5.296   5.077
 5094SOL    HW115328   1.900   5.367   5.016
 5094SOL    HW215329   2.036   5.295   5.071
 5095SOL     OW15330   2.205   4.841   4.211
 5095SOL    HW115331   2.211   4.923   4.154
 5095SOL    HW215332   2.203   4.760   4.152
 5096SOL     OW15333   2.411   4.267   4.586
 5096SOL    HW115334   2.425   4.326   4.506
 5096SOL    HW215335   2.479   4.288   4.655
 5097SOL     OW15336   3.108   5.078   4.116
 5097SOL    HW115337   3.169   5.151   4.147
 5097SOL    HW215338   3.015   5.098   4.147
 5098SOL     OW15339   3.149   5.185   4.871
 5098SOL    HW115340   3.207   5.191   4.952
 5098SOL    HW215341   3.094   5.102   4.876
 5099SOL     OW15342   3.439   4.345   4.206
 5099SOL    HW115343   3.389   4.394   4.277
 5099SOL    HW215344   3.488   4.411   4.148
 5100SOL     OW15345   2.210   5.253   5.034
 5100SOL    HW115346   2.194   5.209   4.946
 5100SOL    HW215347   2.308   5.267   5.047
 5101SOL     OW15348   2.277   4.470   5.324
 5101SOL    HW115349   2.343   4.516   5.265
 5101SOL    HW215350   2.310   4.378   5.347
 5102SOL     OW15351   3.469   4.508   5.408
 5102SOL    HW115352   3.378   4.550   5.406
 5102SOL    HW215353   3.526   4.549   5.337
 5103SOL     OW15354   2.859   3.857   5.474
 5103SOL    HW115355   2.917   3.936   5.458
 5103SOL    HW215356   2.908   3.774   5.448
 5104SOL     OW15357   2.354   3.761   5.474
 5104SOL    HW115358   2.310   3.702   5.406
 5104SOL    HW215359   2.297   3.840   5.492
 5105SOL     OW15360   2.446   4.595   4.758
 5105SOL    HW115361   2.481   4.689   4.755
 5105SOL    HW215362   2.386   4.585   4.837
 5106SOL     OW15363   3.215   4.581   4.749
 5106SOL    HW115364   3.124   4.573   4.707
 5106SOL    HW215365   3.263   4.494   4.741
 5107SOL     OW15366   3.060   4.250   3.989
 5107SOL    HW115367   3.073   4.168   4.045
 5107SOL    HW215368   3.016   4.321   4.044
 5108SOL     OW15369   2.159   3.921   4.971
 5108SOL    HW115370   2.123   3.957   5.056
 5108SOL    HW215371   2.144   3.822   4.967
 5109SOL     OW15372   1.914   5.034   5.000
 5109SOL    HW115373   1.946   4.973   5.072
 5109SOL    HW215374   1.917   5.129   5.032
 5110SOL     OW15375   2.586   4.355   4.779
 5110SOL    HW115376   2.663   4.335   4.719
 5110SOL    HW215377   2.551   4.447   4.760
 5111SOL     OW15378   3.597   4.684   5.579
 5111SOL    HW115379   3.554   4.616   5.520
 5111SOL    HW215380   3.538   4.703   5.657
 5112SOL     OW15381   2.167   3.786   4.353
 5112SOL    HW115382   2.143   3.881   4.371
 5112SOL    HW215383   2.178   3.737   4.439
 5113SOL     OW15384   3.488   4.104   4.086
 5113SOL    HW115385   3.514   4.031   4.149
 5113SOL    HW215386   3.460   4.185   4.139
 5114SOL     OW15387   2.886   4.479   4.682
 5114SOL    HW115388   2.881   4.501   4.780
 5114SOL    HW215389   2.859   4.384   4.668
 5115SOL     OW15390   2.843   5.287   5.441
 5115SOL    HW115391   2.827   5.335   5.355
 5115SOL    HW215392   2.891   5.201   5.423
 5116SOL     OW15393   3.717   5.228   5.328
 5116SOL    HW115394   3.736   5.254   5.233
 5116SOL    HW215395   3.800   5.240   5.382
 5117SOL     OW15396   2.215   4.642   5.529
 5117SOL    HW115397   2.295   4.663   5.584
 5117SOL    HW215398   2.240   4.576   5.458
 5118SOL     OW15399   3.390   3.993   3.855
 5118SOL    HW115400   3.319   3.927   3.881
 5118SOL    HW215401   3.427   4.035   3.937
 5119SOL     OW15402   3.151   4.550   3.750
 5119SOL    HW115403   3.192   4.459   3.759
 5119SOL    HW215404   3.182   4.593   3.666
 5120SOL     OW15405   2.931   5.061   4.578
 5120SOL    HW115406   2.935   4.983   4.516
 5120SOL    HW215407   2.991   5.134   4.544
 5121SOL     OW15408   2.173   4.530   4.667
 5121SOL    HW115409   2.269   4.556   4.662
 5121SOL    HW215410   2.165   4.436   4.700
 5122SOL     OW15411   2.190   4.251   4.735
 5122SOL    HW115412   2.151   4.159   4.724
 5122SOL    HW215413   2.271   4.260   4.677
 5123SOL     OW15414   2.996   4.097   5.416
 5123SOL    HW115415   2.943   4.154   5.478
 5123SOL    HW215416   3.088   4.134   5.407
 5124SOL     OW15417   3.024   3.928   5.199
 5124SOL    HW115418   3.009   3.990   5.276
 5124SOL    HW215419   3.066   3.977   5.124
 5125SOL     OW15420   1.863   5.040   3.918
 5125SOL    HW115421   1.773   5.059   3.878
 5125SOL    HW215422   1.864   4.946   3.954
 5126SOL     OW15423   1.955   5.508   4.667
 5126SOL    HW115424   1.919   5.427   4.622
 5126SOL    HW215425   2.049   5.525   4.635
 5127SOL     OW15426   2.356   5.300   4.629
 5127SOL    HW115427   2.426   5.366   4.656
 5127SOL    HW215428   2.397   5.232   4.567
 5128SOL     OW15429   2.838   4.518   4.949
 5128SOL    HW115430   2.898   4.494   5.025
 5128SOL    HW215431   2.748   4.476   4.963
 5129SOL     OW15432   1.899   4.276   4.841
 5129SOL    HW115433   1.981   4.261   4.786
 5129SOL    HW215434   1.924   4.278   4.938
 5130SOL     OW15435   2.055   4.247   5.454
 5130SOL    HW115436   2.107   4.193   5.387
 5130SOL    HW215437   2.014   4.326   5.409
 5131SOL     OW15438   3.242   4.660   5.379
 5131SOL    HW115439   3.265   4.757   5.380
 5131SOL    HW215440   3.238   4.627   5.284
 5132SOL     OW15441   2.679   4.295   4.083
 5132SOL    HW115442   2.686   4.215   4.023
 5132SOL    HW215443   2.601   4.351   4.055
 5133SOL     OW15444   3.505   4.327   4.906
 5133SOL    HW115445   3.488   4.268   4.984
 5133SOL    HW215446   3.596   4.309   4.869
 5134SOL     OW15447   2.103   5.271   5.450
 5134SOL    HW115448   2.081   5.346   5.514
 5134SOL    HW215449   2.108   5.185   5.501
 5135SOL     OW15450   2.569   4.172   4.977
 5135SOL    HW115451   2.511   4.094   4.953
 5135SOL    HW215452   2.565   4.240   4.904
 5136SOL     OW15453   2.783   5.405   5.195
 5136SOL    HW115454   2.757   5.359   5.110
 5136SOL    HW215455   2.783   5.504   5.181
 5137SOL     OW15456   2.322   4.218   3.906
 5137SOL    HW115457   2.387   4.290   3.932
 5137SOL    HW215458   2.231   4.257   3.895
 5138SOL     OW15459   2.005   4.861   5.199
 5138SOL    HW115460   2.006   4.816   5.288
 5138SOL    HW215461   2.025   4.795   5.127
 5139SOL     OW15462   3.178   4.768   4.943
 5139SOL    HW115463   3.207   4.700   4.875
 5139SOL    HW215464   3.110   4.829   4.903
 5140SOL     OW15465   3.177   4.580   4.023
 5140SOL    HW115466   3.101   4.554   4.082
 5140SOL    HW215467   3.151   4.568   3.928
 5141SOL     OW15468   3.641   5.455   4.880
 5141SOL    HW115469   3.702   5.489   4.809
 5141SOL    HW215470   3.610   5.363   4.855
 5142SOL     OW15471   3.103   5.457   4.830
 5142SOL    HW115472   3.189   5.485   4.787
 5142SOL    HW215473   3.109   5.360   4.853
 5143SOL     OW15474   1.948   4.989   4.735
 5143SOL    HW115475   1.933   5.004   4.832
 5143SOL    HW215476   1.875   4.931   4.698
 5144SOL     OW15477   2.542   5.397   5.459
 5144SOL    HW115478   2.480   5.475   5.454
 5144SOL    HW215479   2.615   5.408   5.391
 5145SOL     OW15480   3.577   3.875   4.225
 5145SOL    HW115481   3.652   3.864   4.160
 5145SOL    HW215482   3.562   3.789   4.274
 5146SOL     OW15483   3.257   5.294   4.211
 5146SOL    HW115484   3.320   5.326   4.140
 5146SOL    HW215485   3.202   5.371   4.244
 5147SOL     OW15486   2.007   5.511   5.570
 5147SOL    HW115487   1.949   5.443   5.615
 5147SOL    HW215488   2.056   5.565   5.638
 5148SOL     OW15489   3.144   4.652   4.390
 5148SOL    HW115490   3.218   4.587   4.406
 5148SOL    HW215491   3.177   4.729   4.335
 5149SOL     OW15492   2.667   5.002   5.151
 5149SOL    HW115493   2.638   5.045   5.236
 5149SOL    HW215494   2.598   5.018   5.080
 5150SOL     OW15495   2.531   5.345   3.878
 5150SOL    HW115496   2.547   5.363   3.781
 5150SOL    HW215497   2.473   5.264   3.888
 5151SOL     OW15498   3.480   5.452   5.111
 5151SOL    HW115499   3.537   5.454   5.029
 5151SOL    HW215500   3.465   5.546   5.143
 5152SOL     OW15501   3.704   3.894   4.688
 5152SOL    HW115502   3.738   3.802   4.665
 5152SOL    HW215503   3.613   3.906   4.648
 5153SOL     OW15504   2.118   4.039   4.440
 5153SOL    HW115505   2.029   4.075   4.412
 5153SOL    HW215506   2.121   4.030   4.539
 5154SOL     OW15507   3.070   5.325   3.757
 5154SOL    HW115508   3.061   5.231   3.790
 5154SOL    HW215509   3.004   5.342   3.684
 5155SOL     OW15510   2.685   4.733   5.102
 5155SOL    HW115511   2.736   4.718   5.017
 5155SOL    HW215512   2.683   4.831   5.122
 5156SOL     OW15513   2.781   4.634   4.010
 5156SOL    HW115514   2.843   4.670   3.940
 5156SOL    HW215515   2.828   4.563   4.063
 5157SOL     OW15516   3.351   5.353   3.766
 5157SOL    HW115517   3.252   5.342   3.755
 5157SOL    HW215518   3.394   5.359   3.676
 5158SOL     OW15519   2.228   5.027   5.211
 5158SOL    HW115520   2.218   5.107   5.152
 5158SOL    HW215521   2.148   4.967   5.200
 5159SOL     OW15522   3.476   5.008   5.008
 5159SOL    HW115523   3.539   4.989   5.083
 5159SOL    HW215524   3.410   5.078   5.036
 5160SOL     OW15525   2.922   4.830   4.438
 5160SOL    HW115526   2.846   4.780   4.478
 5160SOL    HW215527   2.990   4.765   4.404
 5161SOL     OW15528   2.884   3.963   4.691
 5161SOL    HW115529   2.881   3.919   4.602
 5161SOL    HW215530   2.882   3.894   4.763
 5162SOL     OW15531   2.466   5.210   4.204
 5162SOL    HW115532   2.517   5.156   4.137
 5162SOL    HW215533   2.393   5.260   4.158
 5163SOL     OW15534   3.592   4.118   5.104
 5163SOL    HW115535   3.665   4.186   5.105
 5163SOL    HW215536   3.618   4.043   5.044
 5164SOL     OW15537   2.115   5.072   4.012
 5164SOL    HW115538   2.019   5.065   3.985
 5164SOL    HW215539   2.121   5.110   4.104
 5165SOL     OW15540   1.976   4.757   5.451
 5165SOL    HW115541   1.895   4.730   5.502
 5165SOL    HW215542   2.057   4.712   5.491
 5166SOL     OW15543   2.545   3.918   5.224
 5166SOL    HW115544   2.631   3.894   5.179
 5166SOL    HW215545   2.563   3.952   5.316
 5167SOL     OW15546   1.927   4.060   3.756
 5167SOL    HW115547   1.827   4.059   3.761
 5167SOL    HW215548   1.957   4.140   3.703
 5168SOL     OW15549   3.286   4.581   5.119
 5168SOL    HW115550   3.231   4.645   5.066
 5168SOL    HW215551   3.380   4.582   5.086
 5169SOL     OW15552   1.923   3.881   4.028
 5169SOL    HW115553   1.908   3.967   3.980
 5169SOL    HW215554   2.011   3.842   4.002
 5170SOL     OW15555   3.042   5.062   3.844
 5170SOL    HW115556   2.947   5.033   3.838
 5170SOL    HW215557   3.070   5.063   3.940
 5171SOL     OW15558   2.485   4.554   5.157
 5171SOL    HW115559   2.542   4.635   5.143
 5171SOL    HW215560   2.543   4.473   5.167
 5172SOL     OW15561   3.347   5.511   4.711
 5172SOL    HW115562   3.368   5.572   4.635
 5172SOL    HW215563   3.432   5.478   4.752
 5173SOL     OW15564   2.584   4.283   5.427
 5173SOL    HW115565   2.628   4.350   5.486
 5173SOL    HW215566   2.604   4.191   5.460
 5174SOL     OW15567   3.335   4.921   5.359
 5174SOL    HW115568   3.320   4.934   5.457
 5174SOL    HW215569   3.431   4.939   5.337
 5175SOL     OW15570   2.234   5.462   5.290
 5175SOL    HW115571   2.150   5.514   5.276
 5175SOL    HW215572   2.213   5.374   5.333
 5176SOL     OW15573   3.528   4.602   4.980
 5176SOL    HW115574   3.523   4.511   4.939
 5176SOL    HW215575   3.516   4.672   4.909
 5177SOL     OW15576   3.080   4.040   4.184
 5177SOL    HW115577   3.145   3.965   4.174
 5177SOL    HW215578   3.106   4.096   4.263
 5178SOL     OW15579   2.449   4.460   4.392
 5178SOL    HW115580   2.490   4.551   4.382
 5178SOL    HW215581   2.379   4.448   4.322
 5179SOL     OW15582   3.614   4.089   5.376
 5179SOL    HW115583   3.604   4.105   5.278
 5179SOL    HW215584   3.540   4.029   5.408
 5180SOL     OW15585   3.613   4.656   5.234
 5180SOL    HW115586   3.603   4.753   5.255
 5180SOL    HW215587   3.593   4.641   5.137
 5181SOL     OW15588   2.728   5.088   3.766
 5181SOL    HW115589   2.687   5.112   3.854
 5181SOL    HW215590   2.744   5.171   3.713
 5182SOL     OW15591   2.526   5.510   4.667
 5182SOL    HW115592   2.503   5.605   4.645
 5182SOL    HW215593   2.625   5.497   4.655
 5183SOL     OW15594   2.731   4.694   4.580
 5183SOL    HW115595   2.782   4.616   4.617
 5183SOL    HW215596   2.689   4.745   4.655
 5184SOL     OW15597   2.940   4.713   3.808
 5184SOL    HW115598   2.912   4.767   3.729
 5184SOL    HW215599   3.018   4.655   3.784
 5185SOL     OW15600   3.709   5.280   4.571
 5185SOL    HW115601   3.632   5.268   4.508
 5185SOL    HW215602   3.704   5.211   4.643
 5186SOL     OW15603   2.092   5.023   5.581
 5186SOL    HW115604   2.026   4.957   5.546
 5186SOL    HW215605   2.077   5.037   5.679
 5187SOL     OW15606   1.948   4.954   4.388
 5187SOL    HW115607   1.951   4.908   4.476
 5187SOL    HW215608   2.017   4.914   4.327
 5188SOL     OW15609   2.544   5.132   5.357
 5188SOL    HW115610   2.463   5.083   5.389
 5188SOL    HW215611   2.542   5.225   5.394
 5189SOL     OW15612   3.667   3.907   4.958
 5189SOL    HW115613   3.682   3.811   4.982
 5189SOL    HW215614   3.679   3.918   4.859
 5190SOL     OW15615   2.293   4.153   4.252
 5190SOL    HW115616   2.326   4.084   4.189
 5190SOL    HW215617   2.238   4.110   4.323
 5191SOL     OW15618   3.556   5.207   4.818
 5191SOL    HW115619   3.475   5.189   4.763
 5191SOL    HW215620   3.565   5.136   4.888
 5192SOL     OW15621   2.196   4.280   5.013
 5192SOL    HW115622   2.253   4.223   5.073
 5192SOL    HW215623   2.212   4.254   4.918
 5193SOL     OW15624   2.690   5.304   4.403
 5193SOL    HW115625   2.678   5.364   4.324
 5193SOL    HW215626   2.613   5.240   4.409
 5194SOL     OW15627   3.293   3.955   4.841
 5194SOL    HW115628   3.317   3.865   4.879
 5194SOL    HW215629   3.238   4.006   4.907
 5195SOL     OW15630   2.872   3.740   4.863
 5195SOL    HW115631   2.808   3.677   4.819
 5195SOL    HW215632   2.964   3.700   4.864
 5196SOL     OW15633   2.636   5.056   4.044
 5196SOL    HW115634   2.608   4.960   4.052
 5196SOL    HW215635   2.721   5.070   4.095
 5197SOL     OW15636   2.485   5.283   5.013
 5197SOL    HW115637   2.483   5.370   5.063
 5197SOL    HW215638   2.576   5.270   4.973
 5198SOL     OW15639   3.216   3.774   3.895
 5198SOL    HW115640   3.266   3.706   3.843
 5198SOL    HW215641   3.125   3.740   3.917
 5199SOL     OW15642   3.151   4.188   4.404
 5199SOL    HW115643   3.099   4.273   4.407
 5199SOL    HW215644   3.151   4.145   4.495
 5200SOL     OW15645   3.448   3.928   4.607
 5200SOL    HW115646   3.389   3.947   4.686
 5200SOL    HW215647   3.450   4.008   4.547
 5201SOL     OW15648   1.905   4.789   4.031
 5201SOL    HW115649   2.003   4.789   4.013
 5201SOL    HW215650   1.875   4.696   4.054
 5202SOL     OW15651   2.746   5.385   4.065
 5202SOL    HW115652   2.671   5.364   4.002
 5202SOL    HW215653   2.720   5.463   4.122
 5203SOL     OW15654   2.084   4.343   5.713
 5203SOL    HW115655   1.993   4.344   5.753
 5203SOL    HW215656   2.078   4.321   5.616
 5204SOL     OW15657   2.083   4.010   6.582
 5204SOL    HW115658   2.118   3.972   6.667
 5204SOL    HW215659   1.991   3.975   6.565
 5205SOL     OW15660   1.863   4.110   6.221
 5205SOL    HW115661   1.778   4.141   6.265
 5205SOL    HW215662   1.844   4.026   6.169
 5206SOL     OW15663   2.420   5.007   6.758
 5206SOL    HW115664   2.331   5.023   6.714
 5206SOL    HW215665   2.449   5.090   6.805
 5207SOL     OW15666   3.425   5.236   6.294
 5207SOL    HW115667   3.381   5.214   6.380
 5207SOL    HW215668   3.356   5.244   6.222
 5208SOL     OW15669   2.994   4.427   6.282
 5208SOL    HW115670   3.046   4.511   6.266
 5208SOL    HW215671   2.943   4.435   6.367
 5209SOL     OW15672   3.631   4.324   5.809
 5209SOL    HW115673   3.608   4.319   5.712
 5209SOL    HW215674   3.593   4.244   5.856
 5210SOL     OW15675   2.619   4.868   6.629
 5210SOL    HW115676   2.546   4.894   6.691
 5210SOL    HW215677   2.652   4.949   6.580
 5211SOL     OW15678   2.546   4.723   6.235
 5211SOL    HW115679   2.616   4.712   6.305
 5211SOL    HW215680   2.471   4.779   6.272
 5212SOL     OW15681   2.192   5.136   6.645
 5212SOL    HW115682   2.111   5.098   6.601
 5212SOL    HW215683   2.241   5.195   6.580
 5213SOL     OW15684   3.474   4.172   6.329
 5213SOL    HW115685   3.398   4.189   6.267
 5213SOL    HW215686   3.478   4.245   6.398
 5214SOL     OW15687   2.084   5.438   6.058
 5214SOL    HW115688   2.102   5.517   6.116
 5214SOL    HW215689   2.158   5.427   5.992
 5215SOL     OW15690   2.095   5.167   6.122
 5215SOL    HW115691   2.079   5.266   6.122
 5215SOL    HW215692   2.035   5.123   6.189
 5216SOL     OW15693   2.129   4.815   6.488
 5216SOL    HW115694   2.125   4.721   6.523
 5216SOL    HW215695   2.068   4.873   6.542
 5217SOL     OW15696   2.472   5.529   6.988
 5217SOL    HW115697   2.383   5.502   0.025
 5217SOL    HW215698   2.497   5.619   0.023
 5218SOL     OW15699   2.445   4.711   5.726
 5218SOL    HW115700   2.492   4.758   5.651
 5218SOL    HW215701   2.485   4.739   5.814
 5219SOL     OW15702   1.976   4.384   6.150
 5219SOL    HW115703   1.946   4.290   6.166
 5219SOL    HW215704   1.970   4.437   6.235
 5220SOL     OW15705   3.707   5.480   5.919
 5220SOL    HW115706   3.777   5.449   5.984
 5220SOL    HW215707   3.724   5.576   5.896
 5221SOL     OW15708   1.891   5.315   5.710
 5221SOL    HW115709   1.875   5.218   5.729
 5221SOL    HW215710   1.870   5.369   5.791
 5222SOL     OW15711   3.553   4.645   6.231
 5222SOL    HW115712   3.637   4.594   6.214
 5222SOL    HW215713   3.529   4.698   6.150
 5223SOL     OW15714   3.514   4.829   6.018
 5223SOL    HW115715   3.603   4.827   5.972
 5223SOL    HW215716   3.517   4.896   6.092
 5224SOL     OW15717   2.473   5.113   6.320
 5224SOL    HW115718   2.426   5.026   6.333
 5224SOL    HW215719   2.460   5.144   6.226
 5225SOL     OW15720   2.679   3.732   6.095
 5225SOL    HW115721   2.725   3.818   6.072
 5225SOL    HW215722   2.580   3.748   6.102
 5226SOL     OW15723   2.056   4.699   6.842
 5226SOL    HW115724   2.138   4.643   6.827
 5226SOL    HW215725   1.975   4.645   6.821
 5227SOL     OW15726   3.394   4.724   5.790
 5227SOL    HW115727   3.320   4.663   5.819
 5227SOL    HW215728   3.440   4.761   5.870
 5228SOL     OW15729   3.315   5.147   6.532
 5228SOL    HW115730   3.256   5.161   6.612
 5228SOL    HW215731   3.312   5.051   6.505
 5229SOL     OW15732   3.512   5.472   6.162
 5229SOL    HW115733   3.494   5.443   6.068
 5229SOL    HW215734   3.492   5.397   6.225
 5230SOL     OW15735   2.457   4.444   5.858
 5230SOL    HW115736   2.462   4.529   5.805
 5230SOL    HW215737   2.388   4.453   5.929
 5231SOL     OW15738   3.137   4.079   6.517
 5231SOL    HW115739   3.043   4.046   6.525
 5231SOL    HW215740   3.195   4.029   6.581
 5232SOL     OW15741   3.445   5.396   5.894
 5232SOL    HW115742   3.541   5.424   5.890
 5232SOL    HW215743   3.413   5.379   5.801
 5233SOL     OW15744   2.656   4.332   0.046
 5233SOL    HW115745   2.594   4.375   0.112
 5233SOL    HW215746   2.604   4.277   6.981
 5234SOL     OW15747   2.867   4.116   6.795
 5234SOL    HW115748   2.806   4.171   6.853
 5234SOL    HW215749   2.814   4.071   6.724
 5235SOL     OW15750   2.912   4.423   6.011
 5235SOL    HW115751   2.934   4.418   6.109
 5235SOL    HW215752   2.826   4.375   5.994
 5236SOL     OW15753   1.952   4.550   6.366
 5236SOL    HW115754   2.037   4.539   6.417
 5236SOL    HW215755   1.902   4.629   6.401
 5237SOL     OW15756   2.004   5.553   0.138
 5237SOL    HW115757   1.948   5.514   0.211
 5237SOL    HW215758   1.946   5.573   0.059
 5238SOL     OW15759   2.758   4.077   5.782
 5238SOL    HW115760   2.798   4.144   5.720
 5238SOL    HW215761   2.768   3.985   5.743
 5239SOL     OW15762   3.241   4.867   6.120
 5239SOL    HW115763   3.325   4.851   6.069
 5239SOL    HW215764   3.185   4.934   6.071
 5240SOL     OW15765   2.408   3.897   6.484
 5240SOL    HW115766   2.414   3.929   6.579
 5240SOL    HW215767   2.412   3.976   6.423
 5241SOL     OW15768   2.858   5.167   6.050
 5241SOL    HW115769   2.825   5.247   6.000
 5241SOL    HW215770   2.842   5.180   6.148
 5242SOL     OW15771   2.218   5.538   6.455
 5242SOL    HW115772   2.261   5.448   6.462
 5242SOL    HW215773   2.285   5.610   6.473
 5243SOL     OW15774   3.663   4.781   6.452
 5243SOL    HW115775   3.612   4.757   6.369
 5243SOL    HW215776   3.601   4.781   6.531
 5244SOL     OW15777   2.184   4.683   5.840
 5244SOL    HW115778   2.272   4.703   5.796
 5244SOL    HW215779   2.147   4.598   5.802
 5245SOL     OW15780   3.344   4.473   6.307
 5245SOL    HW115781   3.337   4.426   6.395
 5245SOL    HW215782   3.425   4.532   6.307
 5246SOL     OW15783   2.983   5.500   5.813
 5246SOL    HW115784   2.904   5.462   5.861
 5246SOL    HW215785   3.013   5.436   5.742
 5247SOL     OW15786   3.487   5.105   5.674
 5247SOL    HW115787   3.448   5.196   5.658
 5247SOL    HW215788   3.417   5.036   5.655
 5248SOL     OW15789   2.327   5.459   5.905
 5248SOL    HW115790   2.368   5.521   5.971
 5248SOL    HW215791   2.398   5.423   5.844
 5249SOL     OW15792   3.263   3.828   6.022
 5249SOL    HW115793   3.251   3.803   5.926
 5249SOL    HW215794   3.361   3.837   6.042
 5250SOL     OW15795   2.123   5.520   6.814
 5250SOL    HW115796   2.168   5.452   6.871
 5250SOL    HW215797   2.104   5.481   6.724
 5251SOL     OW15798   2.798   5.424   6.482
 5251SOL    HW115799   2.884   5.379   6.508
 5251SOL    HW215800   2.755   5.373   6.407
 5252SOL     OW15801   2.257   4.413   6.061
 5252SOL    HW115802   2.278   4.316   6.074
 5252SOL    HW215803   2.160   4.429   6.078
 5253SOL     OW15804   2.502   3.842   5.688
 5253SOL    HW115805   2.572   3.773   5.709
 5253SOL    HW215806   2.446   3.810   5.612
 5254SOL     OW15807   2.726   5.242   6.764
 5254SOL    HW115808   2.710   5.209   6.671
 5254SOL    HW215809   2.769   5.170   6.818
 5255SOL     OW15810   2.680   5.114   6.520
 5255SOL    HW115811   2.770   5.103   6.478
 5255SOL    HW215812   2.610   5.118   6.449
 5256SOL     OW15813   2.789   4.232   6.485
 5256SOL    HW115814   2.762   4.224   6.389
 5256SOL    HW215815   2.826   4.144   6.516
 5257SOL     OW15816   2.409   3.788   6.081
 5257SOL    HW115817   2.327   3.786   6.138
 5257SOL    HW215818   2.406   3.869   6.022
 5258SOL     OW15819   3.288   4.922   5.629
 5258SOL    HW115820   3.321   4.845   5.682
 5258SOL    HW215821   3.199   4.951   5.665
 5259SOL     OW15822   2.153   3.772   5.772
 5259SOL    HW115823   2.205   3.843   5.725
 5259SOL    HW215824   2.215   3.707   5.815
 5260SOL     OW15825   2.808   3.974   6.043
 5260SOL    HW115826   2.776   4.016   5.958
 5260SOL    HW215827   2.906   3.987   6.052
 5261SOL     OW15828   3.080   5.295   6.382
 5261SOL    HW115829   3.095   5.365   6.312
 5261SOL    HW215830   3.159   5.293   6.444
 5262SOL     OW15831   2.330   4.874   6.316
 5262SOL    HW115832   2.262   4.855   6.387
 5262SOL    HW215833   2.288   4.861   6.226
 5263SOL     OW15834   3.125   5.516   6.196
 5263SOL    HW115835   3.177   5.578   6.137
 5263SOL    HW215836   3.052   5.567   6.242
 5264SOL     OW15837   2.883   4.261   5.615
 5264SOL    HW115838   2.838   4.347   5.591
 5264SOL    HW215839   2.953   4.278   5.684
 5265SOL     OW15840   2.423   3.945   6.756
 5265SOL    HW115841   2.470   3.862   6.787
 5265SOL    HW215842   2.328   3.944   6.787
 5266SOL     OW15843   2.727   4.183   6.223
 5266SOL    HW115844   2.680   4.244   6.158
 5266SOL    HW215845   2.755   4.100   6.175
 5267SOL     OW15846   2.880   3.773   6.328
 5267SOL    HW115847   2.818   3.773   6.250
 5267SOL    HW215848   2.854   3.698   6.390
 5268SOL     OW15849   3.302   4.885   6.442
 5268SOL    HW115850   3.233   4.812   6.444
 5268SOL    HW215851   3.334   4.898   6.348
 5269SOL     OW15852   3.328   4.329   6.552
 5269SOL    HW115853   3.266   4.250   6.556
 5269SOL    HW215854   3.391   4.327   6.629
 5270SOL     OW15855   3.705   4.534   5.965
 5270SOL    HW115856   3.763   4.486   6.031
 5270SOL    HW215857   3.675   4.470   5.895
 5271SOL     OW15858   2.349   5.144   5.742
 5271SOL    HW115859   2.269   5.117   5.795
 5271SOL    HW215860   2.346   5.100   5.652
 5272SOL     OW15861   3.535   4.991   6.230
 5272SOL    HW115862   3.635   4.988   6.242
 5272SOL    HW215863   3.502   5.083   6.251
 5273SOL     OW15864   3.252   4.298   5.657
 5273SOL    HW115865   3.190   4.276   5.731
 5273SOL    HW215866   3.345   4.272   5.682
 5274SOL     OW15867   2.390   3.988   5.897
 5274SOL    HW115868   2.437   3.935   5.826
 5274SOL    HW215869   2.362   4.077   5.859
 5275SOL     OW15870   3.619   4.904   0.172
 5275SOL    HW115871   3.717   4.890   0.156
 5275SOL    HW215872   3.595   4.997   0.146
 5276SOL     OW15873   2.981   4.961   6.695
 5276SOL    HW115874   2.897   4.922   6.732
 5276SOL    HW215875   2.967   4.984   6.599
 5277SOL     OW15876   3.482   4.808   6.651
 5277SOL    HW115877   3.483   4.879   6.721
 5277SOL    HW215878   3.407   4.825   6.587
 5278SOL     OW15879   2.575   4.783   5.959
 5278SOL    HW115880   2.557   4.765   6.056
 5278SOL    HW215881   2.654   4.729   5.929
 5279SOL     OW15882   2.287   4.536   6.846
 5279SOL    HW115883   2.344   4.562   6.923
 5279SOL    HW215884   2.251   4.444   6.860
 5280SOL     OW15885   3.131   4.111   6.856
 5280SOL    HW115886   3.158   4.185   6.917
 5280SOL    HW215887   3.036   4.125   6.827
 5281SOL     OW15888   1.931   5.303   6.936
 5281SOL    HW115889   1.896   5.372   6.873
 5281SOL    HW215890   2.031   5.296   6.927
 5282SOL     OW15891   2.206   4.841   6.073
 5282SOL    HW115892   2.211   4.923   6.016
 5282SOL    HW215893   2.204   4.760   6.015
 5283SOL     OW15894   2.409   4.269   6.449
 5283SOL    HW115895   2.423   4.327   6.369
 5283SOL    HW215896   2.480   4.288   6.517
 5284SOL     OW15897   3.108   5.078   5.978
 5284SOL    HW115898   3.169   5.151   6.009
 5284SOL    HW215899   3.015   5.098   6.008
 5285SOL     OW15900   3.143   5.174   6.747
 5285SOL    HW115901   3.179   5.164   6.839
 5285SOL    HW215902   3.082   5.098   6.726
 5286SOL     OW15903   3.439   4.345   6.067
 5286SOL    HW115904   3.389   4.393   6.139
 5286SOL    HW215905   3.487   4.412   6.010
 5287SOL     OW15906   2.205   5.252   6.885
 5287SOL    HW115907   2.189   5.199   6.802
 5287SOL    HW215908   2.303   5.268   6.896
 5288SOL     OW15909   2.447   4.594   6.623
 5288SOL    HW115910   2.479   4.688   6.616
 5288SOL    HW215911   2.386   4.585   6.702
 5289SOL     OW15912   3.211   4.580   6.597
 5289SOL    HW115913   3.121   4.566   6.556
 5289SOL    HW215914   3.263   4.495   6.594
 5290SOL     OW15915   3.060   4.251   5.851
 5290SOL    HW115916   3.073   4.168   5.906
 5290SOL    HW215917   3.016   4.321   5.906
 5291SOL     OW15918   2.163   3.922   6.835
 5291SOL    HW115919   2.120   3.956   6.919
 5291SOL    HW215920   2.148   3.824   6.827
 5292SOL     OW15921   1.900   5.039   6.869
 5292SOL    HW115922   1.943   4.979   6.936
 5292SOL    HW215923   1.908   5.134   6.899
 5293SOL     OW15924   2.587   4.351   6.642
 5293SOL    HW115925   2.665   4.330   6.583
 5293SOL    HW215926   2.555   4.444   6.624
 5294SOL     OW15927   2.168   3.786   6.213
 5294SOL    HW115928   2.144   3.881   6.231
 5294SOL    HW215929   2.178   3.737   6.300
 5295SOL     OW15930   3.488   4.104   5.949
 5295SOL    HW115931   3.514   4.031   6.011
 5295SOL    HW215932   3.460   4.185   6.001
 5296SOL     OW15933   2.884   4.481   6.550
 5296SOL    HW115934   2.880   4.501   6.648
 5296SOL    HW215935   2.859   4.385   6.535
 5297SOL     OW15936   3.390   3.993   5.716
 5297SOL    HW115937   3.320   3.925   5.741
 5297SOL    HW215938   3.426   4.035   5.799
 5298SOL     OW15939   3.151   4.550   5.613
 5298SOL    HW115940   3.192   4.459   5.621
 5298SOL    HW215941   3.182   4.593   5.528
 5299SOL     OW15942   2.934   5.061   6.439
 5299SOL    HW115943   2.936   4.983   6.376
 5299SOL    HW215944   2.991   5.134   6.404
 5300SOL     OW15945   2.175   4.529   6.529
 5300SOL    HW115946   2.271   4.556   6.522
 5300SOL    HW215947   2.169   4.434   6.559
 5301SOL     OW15948   2.193   4.252   6.604
 5301SOL    HW115949   2.153   4.161   6.590
 5301SOL    HW215950   2.273   4.262   6.545
 5302SOL     OW15951   3.001   3.963   0.053
 5302SOL    HW115952   3.067   3.982   0.126
 5302SOL    HW215953   3.037   4.000   6.967
 5303SOL     OW15954   1.863   5.040   5.781
 5303SOL    HW115955   1.773   5.059   5.741
 5303SOL    HW215956   1.864   4.946   5.816
 5304SOL     OW15957   1.955   5.511   6.527
 5304SOL    HW115958   1.918   5.429   6.482
 5304SOL    HW215959   2.049   5.526   6.496
 5305SOL     OW15960   2.356   5.302   6.490
 5305SOL    HW115961   2.426   5.367   6.518
 5305SOL    HW215962   2.397   5.233   6.429
 5306SOL     OW15963   2.844   4.521   6.823
 5306SOL    HW115964   2.921   4.496   6.881
 5306SOL    HW215965   2.761   4.476   6.857
 5307SOL     OW15966   1.912   4.279   6.712
 5307SOL    HW115967   1.969   4.246   6.637
 5307SOL    HW215968   1.970   4.316   6.784
 5308SOL     OW15969   2.679   4.296   5.947
 5308SOL    HW115970   2.688   4.216   5.887
 5308SOL    HW215971   2.601   4.351   5.917
 5309SOL     OW15972   3.509   4.334   6.753
 5309SOL    HW115973   3.493   4.275   6.832
 5309SOL    HW215974   3.604   4.323   6.722
 5310SOL     OW15975   2.535   4.186   6.850
 5310SOL    HW115976   2.499   4.099   6.818
 5310SOL    HW215977   2.550   4.247   6.771
 5311SOL     OW15978   2.804   5.386   6.998
 5311SOL    HW115979   2.770   5.377   6.905
 5311SOL    HW215980   2.786   5.479   0.031
 5312SOL     OW15981   2.321   4.219   5.773
 5312SOL    HW115982   2.386   4.292   5.797
 5312SOL    HW215983   2.231   4.259   5.758
 5313SOL     OW15984   2.018   4.867   0.049
 5313SOL    HW115985   2.066   4.828   0.128
 5313SOL    HW215986   2.031   4.808   6.970
 5314SOL     OW15987   3.149   4.732   6.814
 5314SOL    HW115988   3.187   4.680   6.737
 5314SOL    HW215989   3.120   4.822   6.781
 5315SOL     OW15990   3.177   4.581   5.886
 5315SOL    HW115991   3.101   4.553   5.944
 5315SOL    HW215992   3.152   4.568   5.790
 5316SOL     OW15993   3.620   5.482   6.727
 5316SOL    HW115994   3.693   5.505   6.663
 5316SOL    HW215995   3.596   5.385   6.716
 5317SOL     OW15996   3.109   5.450   6.700
 5317SOL    HW115997   3.193   5.479   6.653
 5317SOL    HW215998   3.114   5.352   6.718
 5318SOL     OW15999   1.944   4.994   6.600
 5318SOL    HW116000   1.929   5.005   6.698
 5318SOL    HW216001   1.875   4.932   6.563
 5319SOL     OW16002   3.581   3.873   6.085
 5319SOL    HW116003   3.657   3.863   6.021
 5319SOL    HW216004   3.563   3.786   6.131
 5320SOL     OW16005   3.257   5.294   6.073
 5320SOL    HW116006   3.320   5.326   6.002
 5320SOL    HW216007   3.202   5.372   6.106
 5321SOL     OW16008   3.144   4.652   6.253
 5321SOL    HW116009   3.218   4.587   6.268
 5321SOL    HW216010   3.177   4.729   6.198
 5322SOL     OW16011   2.531   5.344   5.740
 5322SOL    HW116012   2.547   5.363   5.643
 5322SOL    HW216013   2.472   5.264   5.750
 5323SOL     OW16014   3.703   3.898   6.556
 5323SOL    HW116015   3.738   3.807   6.533
 5323SOL    HW216016   3.612   3.909   6.517
 5324SOL     OW16017   2.118   4.038   6.301
 5324SOL    HW116018   2.029   4.075   6.273
 5324SOL    HW216019   2.121   4.031   6.401
 5325SOL     OW16020   3.070   5.325   5.619
 5325SOL    HW116021   3.061   5.231   5.651
 5325SOL    HW216022   3.004   5.342   5.546
 5326SOL     OW16023   2.640   4.751   6.951
 5326SOL    HW116024   2.699   4.708   6.882
 5326SOL    HW216025   2.686   4.831   6.988
 5327SOL     OW16026   2.782   4.635   5.873
 5327SOL    HW116027   2.843   4.670   5.803
 5327SOL    HW216028   2.829   4.563   5.925
 5328SOL     OW16029   3.351   5.353   5.628
 5328SOL    HW116030   3.252   5.342   5.617
 5328SOL    HW216031   3.394   5.359   5.538
 5329SOL     OW16032   3.477   5.003   6.835
 5329SOL    HW116033   3.567   5.004   6.879
 5329SOL    HW216034   3.408   4.981   6.903
 5330SOL     OW16035   2.922   4.830   6.300
 5330SOL    HW116036   2.845   4.779   6.339
 5330SOL    HW216037   2.990   4.766   6.266
 5331SOL     OW16038   2.881   3.961   6.541
 5331SOL    HW116039   2.880   3.912   6.454
 5331SOL    HW216040   2.883   3.895   6.617
 5332SOL     OW16041   2.466   5.210   6.066
 5332SOL    HW116042   2.518   5.156   5.999
 5332SOL    HW216043   2.393   5.260   6.021
 5333SOL     OW16044   3.558   4.147   6.945
 5333SOL    HW116045   3.625   4.155   0.018
 5333SOL    HW216046   3.564   4.056   6.903
 5334SOL     OW16047   2.115   5.072   5.875
 5334SOL    HW116048   2.019   5.065   5.847
 5334SOL    HW216049   2.121   5.110   5.967
 5335SOL     OW16050   2.534   3.914   0.081
 5335SOL    HW116051   2.623   3.890   0.042
 5335SOL    HW216052   2.544   3.992   0.142
 5336SOL     OW16053   1.943   4.053   5.616
 5336SOL    HW116054   1.851   4.029   5.584
 5336SOL    HW216055   1.975   4.134   5.567
 5337SOL     OW16056   1.926   3.879   5.889
 5337SOL    HW116057   1.909   3.964   5.839
 5337SOL    HW216058   2.014   3.841   5.862
 5338SOL     OW16059   3.042   5.062   5.706
 5338SOL    HW116060   2.947   5.032   5.700
 5338SOL    HW216061   3.070   5.063   5.802
 5339SOL     OW16062   3.352   5.507   6.577
 5339SOL    HW116063   3.366   5.568   6.499
 5339SOL    HW216064   3.441   5.487   6.620
 5340SOL     OW16065   3.355   5.016   0.283
 5340SOL    HW116066   3.263   5.009   0.322
 5340SOL    HW216067   3.388   4.925   0.259
 5341SOL     OW16068   2.247   5.452   0.100
 5341SOL    HW116069   2.158   5.495   0.115
 5341SOL    HW216070   2.247   5.360   0.139
 5342SOL     OW16071   3.560   4.602   6.829
 5342SOL    HW116072   3.527   4.512   6.801
 5342SOL    HW216073   3.526   4.672   6.766
 5343SOL     OW16074   3.081   4.040   6.046
 5343SOL    HW116075   3.145   3.964   6.035
 5343SOL    HW216076   3.108   4.095   6.125
 5344SOL     OW16077   2.447   4.461   6.255
 5344SOL    HW116078   2.490   4.551   6.244
 5344SOL    HW216079   2.378   4.448   6.184
 5345SOL     OW16080   3.633   4.630   0.093
 5345SOL    HW116081   3.619   4.725   0.121
 5345SOL    HW216082   3.606   4.619   6.998
 5346SOL     OW16083   2.728   5.088   5.628
 5346SOL    HW116084   2.687   5.113   5.716
 5346SOL    HW216085   2.744   5.171   5.574
 5347SOL     OW16086   2.528   5.510   6.533
 5347SOL    HW116087   2.504   5.604   6.507
 5347SOL    HW216088   2.626   5.497   6.520
 5348SOL     OW16089   2.730   4.693   6.443
 5348SOL    HW116090   2.780   4.615   6.480
 5348SOL    HW216091   2.691   4.747   6.518
 5349SOL     OW16092   2.940   4.713   5.670
 5349SOL    HW116093   2.912   4.767   5.590
 5349SOL    HW216094   3.018   4.655   5.646
 5350SOL     OW16095   3.712   5.282   6.432
 5350SOL    HW116096   3.633   5.268   6.372
 5350SOL    HW216097   3.707   5.218   6.509
 5351SOL     OW16098   1.948   4.955   6.250
 5351SOL    HW116099   1.947   4.906   6.337
 5351SOL    HW216100   2.017   4.914   6.190
 5352SOL     OW16101   3.673   3.900   6.835
 5352SOL    HW116102   3.649   3.803   6.837
 5352SOL    HW216103   3.688   3.929   6.740
 5353SOL     OW16104   2.293   4.152   6.113
 5353SOL    HW116105   2.326   4.083   6.050
 5353SOL    HW216106   2.238   4.109   6.184
 5354SOL     OW16107   3.540   5.227   6.677
 5354SOL    HW116108   3.464   5.206   6.616
 5354SOL    HW216109   3.552   5.153   6.743
 5355SOL     OW16110   2.179   4.274   6.878
 5355SOL    HW116111   2.250   4.221   6.925
 5355SOL    HW216112   2.188   4.261   6.779
 5356SOL     OW16113   2.690   5.304   6.263
 5356SOL    HW116114   2.679   5.365   6.185
 5356SOL    HW216115   2.612   5.241   6.267
 5357SOL     OW16116   3.296   3.959   6.702
 5357SOL    HW116117   3.330   3.877   6.749
 5357SOL    HW216118   3.242   4.013   6.767
 5358SOL     OW16119   2.878   3.742   6.714
 5358SOL    HW116120   2.816   3.676   6.673
 5358SOL    HW216121   2.969   3.701   6.724
 5359SOL     OW16122   2.636   5.056   5.907
 5359SOL    HW116123   2.607   4.960   5.914
 5359SOL    HW216124   2.721   5.069   5.957
 5360SOL     OW16125   2.479   5.285   6.868
 5360SOL    HW116126   2.476   5.381   6.898
 5360SOL    HW216127   2.567   5.268   6.823
 5361SOL     OW16128   3.216   3.775   5.755
 5361SOL    HW116129   3.257   3.708   5.694
 5361SOL    HW216130   3.123   3.745   5.778
 5362SOL     OW16131   3.154   4.187   6.266
 5362SOL    HW116132   3.101   4.272   6.269
 5362SOL    HW216133   3.151   4.143   6.356
 5363SOL     OW16134   3.449   3.929   6.470
 5363SOL    HW116135   3.387   3.948   6.547
 5363SOL    HW216136   3.450   4.008   6.409
 5364SOL     OW16137   1.905   4.789   5.894
 5364SOL    HW116138   2.003   4.788   5.874
 5364SOL    HW216139   1.875   4.696   5.916
 5365SOL     OW16140   2.746   5.385   5.927
 5365SOL    HW116141   2.671   5.364   5.864
 5365SOL    HW216142   2.719   5.463   5.984
 5366SOL     OW16143   2.083   6.222   0.136
 5366SOL    HW116144   1.987   6.209   0.161
 5366SOL    HW216145   2.095   6.204   0.038
 5367SOL     OW16146   2.085   5.868   0.994
 5367SOL    HW116147   2.118   5.834   1.082
 5367SOL    HW216148   1.992   5.836   0.978
 5368SOL     OW16149   1.864   5.975   0.636
 5368SOL    HW116150   1.779   6.005   0.681
 5368SOL    HW216151   1.847   5.891   0.585
 5369SOL     OW16152   2.430   6.871   1.173
 5369SOL    HW116153   2.354   6.874   1.109
 5369SOL    HW216154   2.405   6.919   1.257
 5370SOL     OW16155   3.401   0.056   0.687
 5370SOL    HW116156   3.381   0.053   0.785
 5370SOL    HW216157   3.320   0.089   0.638
 5371SOL     OW16158   2.992   6.285   0.696
 5371SOL    HW116159   3.046   6.369   0.681
 5371SOL    HW216160   2.942   6.293   0.782
 5372SOL     OW16161   3.643   6.171   0.205
 5372SOL    HW116162   3.576   6.209   0.142
 5372SOL    HW216163   3.597   6.104   0.264
 5373SOL     OW16164   2.625   6.746   1.025
 5373SOL    HW116165   2.557   6.783   1.088
 5373SOL    HW216166   2.627   6.801   0.942
 5374SOL     OW16167   2.737   6.352   1.822
 5374SOL    HW116168   2.721   6.419   1.895
 5374SOL    HW216169   2.761   6.400   1.738
 5375SOL     OW16170   2.546   6.582   0.650
 5375SOL    HW116171   2.617   6.572   0.720
 5375SOL    HW216172   2.472   6.638   0.687
 5376SOL     OW16173   2.553   6.734   1.815
 5376SOL    HW116174   2.592   6.825   1.832
 5376SOL    HW216175   2.472   6.743   1.757
 5377SOL     OW16176   2.198   0.007   1.058
 5377SOL    HW116177   2.119   6.961   1.018
 5377SOL    HW216178   2.246   0.059   0.988
 5378SOL     OW16179   2.312   5.980   1.479
 5378SOL    HW116180   2.393   5.922   1.487
 5378SOL    HW216181   2.230   5.926   1.498
 5379SOL     OW16182   3.475   6.035   0.747
 5379SOL    HW116183   3.400   6.056   0.683
 5379SOL    HW216184   3.484   6.110   0.813
 5380SOL     OW16185   2.121   6.675   0.903
 5380SOL    HW116186   2.119   6.581   0.936
 5380SOL    HW216187   2.060   6.732   0.959
 5381SOL     OW16188   2.451   6.549   0.140
 5381SOL    HW116189   2.515   6.565   0.064
 5381SOL    HW216190   2.487   6.592   0.223
 5382SOL     OW16191   3.458   5.711   1.469
 5382SOL    HW116192   3.477   5.791   1.412
 5382SOL    HW216193   3.444   5.740   1.564
 5383SOL     OW16194   1.976   6.241   0.562
 5383SOL    HW116195   1.945   6.148   0.582
 5383SOL    HW216196   1.971   6.296   0.645
 5384SOL     OW16197   3.553   6.494   0.650
 5384SOL    HW116198   3.641   6.448   0.639
 5384SOL    HW216199   3.534   6.550   0.569
 5385SOL     OW16200   3.521   6.673   0.445
 5385SOL    HW116201   3.585   6.697   0.371
 5385SOL    HW216202   3.532   6.738   0.520
 5386SOL     OW16203   1.988   6.331   1.585
 5386SOL    HW116204   2.085   6.353   1.586
 5386SOL    HW216205   1.934   6.415   1.594
 5387SOL     OW16206   3.176   6.818   1.431
 5387SOL    HW116207   3.200   6.747   1.364
 5387SOL    HW216208   3.235   6.809   1.511
 5388SOL     OW16209   2.680   5.598   0.514
 5388SOL    HW116210   2.726   5.684   0.490
 5388SOL    HW216211   2.582   5.614   0.522
 5389SOL     OW16212   2.054   6.551   1.274
 5389SOL    HW116213   2.141   6.504   1.260
 5389SOL    HW216214   1.981   6.502   1.226
 5390SOL     OW16215   3.366   6.591   0.209
 5390SOL    HW116216   3.295   6.527   0.240
 5390SOL    HW216217   3.441   6.591   0.275
 5391SOL     OW16218   2.202   5.835   1.829
 5391SOL    HW116219   2.251   5.921   1.845
 5391SOL    HW216220   2.105   5.848   1.850
 5392SOL     OW16221   3.319   6.989   0.947
 5392SOL    HW116222   3.252   0.016   1.016
 5392SOL    HW216223   3.302   6.895   0.919
 5393SOL     OW16224   2.462   6.302   0.267
 5393SOL    HW116225   2.467   6.391   0.222
 5393SOL    HW216226   2.397   6.306   0.343
 5394SOL     OW16227   3.139   5.942   0.932
 5394SOL    HW116228   3.045   5.909   0.940
 5394SOL    HW216229   3.199   5.891   0.994
 5395SOL     OW16230   2.652   6.198   1.450
 5395SOL    HW116231   2.628   6.174   1.544
 5395SOL    HW216232   2.614   6.130   1.387
 5396SOL     OW16233   3.253   6.056   1.680
 5396SOL    HW116234   3.254   6.105   1.767
 5396SOL    HW216235   3.315   5.977   1.686
 5397SOL     OW16236   2.818   6.474   1.583
 5397SOL    HW116237   2.876   6.401   1.548
 5397SOL    HW216238   2.763   6.511   1.509
 5398SOL     OW16239   2.856   5.993   1.230
 5398SOL    HW116240   2.767   6.015   1.270
 5398SOL    HW216241   2.843   5.943   1.145
 5399SOL     OW16242   2.913   6.288   0.428
 5399SOL    HW116243   2.935   6.284   0.526
 5399SOL    HW216244   2.827   6.239   0.412
 5400SOL     OW16245   1.951   6.411   0.777
 5400SOL    HW116246   2.036   6.400   0.828
 5400SOL    HW216247   1.900   6.489   0.815
 5401SOL     OW16248   2.748   5.927   0.207
 5401SOL    HW116249   2.794   5.989   0.144
 5401SOL    HW216250   2.766   5.832   0.180
 5402SOL     OW16251   3.563   6.158   1.825
 5402SOL    HW116252   3.528   6.237   1.775
 5402SOL    HW216253   3.594   6.089   1.760
 5403SOL     OW16254   3.252   6.722   0.557
 5403SOL    HW116255   3.344   6.714   0.518
 5403SOL    HW216256   3.214   6.812   0.534
 5404SOL     OW16257   2.409   5.761   0.900
 5404SOL    HW116258   2.413   5.790   0.996
 5404SOL    HW216259   2.413   5.842   0.841
 5405SOL     OW16260   3.661   6.639   0.877
 5405SOL    HW116261   3.610   6.626   0.792
 5405SOL    HW216262   3.598   6.647   0.954
 5406SOL     OW16263   2.189   6.536   0.247
 5406SOL    HW116264   2.274   6.552   0.198
 5406SOL    HW216265   2.152   6.447   0.222
 5407SOL     OW16266   3.346   6.329   0.724
 5407SOL    HW116267   3.341   6.289   0.815
 5407SOL    HW216268   3.425   6.390   0.718
 5408SOL     OW16269   2.064   5.863   1.503
 5408SOL    HW116270   1.981   5.919   1.498
 5408SOL    HW216271   2.043   5.776   1.549
 5409SOL     OW16272   3.508   0.027   0.079
 5409SOL    HW116273   3.485   0.123   0.095
 5409SOL    HW216274   3.425   6.972   0.081
 5410SOL     OW16275   2.259   6.273   0.470
 5410SOL    HW116276   2.278   6.177   0.488
 5410SOL    HW216277   2.163   6.292   0.489
 5411SOL     OW16278   3.391   5.809   1.728
 5411SOL    HW116279   3.402   5.830   1.825
 5411SOL    HW216280   3.319   5.741   1.717
 5412SOL     OW16281   2.626   5.863   1.757
 5412SOL    HW116282   2.709   5.809   1.751
 5412SOL    HW216283   2.574   5.835   1.838
 5413SOL     OW16284   3.202   6.174   1.436
 5413SOL    HW116285   3.232   6.139   1.524
 5413SOL    HW216286   3.238   6.266   1.422
 5414SOL     OW16287   2.789   6.092   0.900
 5414SOL    HW116288   2.763   6.085   0.803
 5414SOL    HW216289   2.822   6.003   0.932
 5415SOL     OW16290   2.411   5.658   0.505
 5415SOL    HW116291   2.328   5.655   0.560
 5415SOL    HW216292   2.407   5.736   0.442
 5416SOL     OW16293   3.280   6.797   0.038
 5416SOL    HW116294   3.332   6.726   0.085
 5416SOL    HW216295   3.195   6.758   0.002
 5417SOL     OW16296   2.810   5.835   0.461
 5417SOL    HW116297   2.777   5.875   0.376
 5417SOL    HW216298   2.909   5.851   0.469
 5418SOL     OW16299   2.942   6.269   1.457
 5418SOL    HW116300   2.866   6.203   1.462
 5418SOL    HW216301   3.029   6.219   1.452
 5419SOL     OW16302   3.130   0.147   0.742
 5419SOL    HW116303   3.099   0.231   0.698
 5419SOL    HW216304   3.143   0.163   0.840
 5420SOL     OW16305   2.329   6.716   0.737
 5420SOL    HW116306   2.257   6.707   0.806
 5420SOL    HW216307   2.287   6.714   0.646
 5421SOL     OW16308   2.927   6.174   0.030
 5421SOL    HW116309   2.830   6.188   0.048
 5421SOL    HW216310   2.975   6.155   0.116
 5422SOL     OW16311   1.947   6.144   1.390
 5422SOL    HW116312   2.042   6.139   1.359
 5422SOL    HW216313   1.939   6.215   1.460
 5423SOL     OW16314   2.420   5.809   1.171
 5423SOL    HW116315   2.470   5.733   1.213
 5423SOL    HW216316   2.325   5.808   1.201
 5424SOL     OW16317   2.728   6.043   0.639
 5424SOL    HW116318   2.684   6.106   0.575
 5424SOL    HW216319   2.755   5.960   0.590
 5425SOL     OW16320   2.881   5.635   0.742
 5425SOL    HW116321   2.816   5.636   0.666
 5425SOL    HW216322   2.856   5.561   0.806
 5426SOL     OW16323   3.301   6.733   0.862
 5426SOL    HW116324   3.225   6.668   0.861
 5426SOL    HW216325   3.333   6.748   0.768
 5427SOL     OW16326   3.330   6.192   0.972
 5427SOL    HW116327   3.269   6.113   0.972
 5427SOL    HW216328   3.391   6.187   1.051
 5428SOL     OW16329   3.698   6.395   0.386
 5428SOL    HW116330   3.755   6.336   0.444
 5428SOL    HW216331   3.685   6.350   0.297
 5429SOL     OW16332   3.540   6.832   0.654
 5429SOL    HW116333   3.638   6.845   0.670
 5429SOL    HW216334   3.492   6.918   0.670
 5430SOL     OW16335   3.253   6.141   0.069
 5430SOL    HW116336   3.193   6.138   0.148
 5430SOL    HW216337   3.316   6.064   0.072
 5431SOL     OW16338   2.376   5.850   0.313
 5431SOL    HW116339   2.390   5.784   0.239
 5431SOL    HW216340   2.353   5.939   0.274
 5432SOL     OW16341   3.616   6.814   1.567
 5432SOL    HW116342   3.701   6.764   1.587
 5432SOL    HW216343   3.632   6.912   1.579
 5433SOL     OW16344   2.938   6.895   1.327
 5433SOL    HW116345   2.858   6.879   1.386
 5433SOL    HW216346   3.021   6.878   1.379
 5434SOL     OW16347   2.997   6.760   1.102
 5434SOL    HW116348   2.965   6.810   1.182
 5434SOL    HW216349   2.943   6.788   1.022
 5435SOL     OW16350   3.486   6.682   1.082
 5435SOL    HW116351   3.474   6.738   1.164
 5435SOL    HW216352   3.409   6.698   1.020
 5436SOL     OW16353   2.785   5.681   1.392
 5436SOL    HW116354   2.806   5.658   1.297
 5436SOL    HW216355   2.864   5.724   1.435
 5437SOL     OW16356   2.830   6.696   1.738
 5437SOL    HW116357   2.733   6.710   1.754
 5437SOL    HW216358   2.843   6.622   1.672
 5438SOL     OW16359   2.569   6.632   0.373
 5438SOL    HW116360   2.555   6.623   0.471
 5438SOL    HW216361   2.651   6.582   0.346
 5439SOL     OW16362   2.283   6.400   1.254
 5439SOL    HW116363   2.355   6.413   1.322
 5439SOL    HW216364   2.244   6.309   1.265
 5440SOL     OW16365   3.125   5.963   1.279
 5440SOL    HW116366   3.161   6.041   1.328
 5440SOL    HW216367   3.029   5.980   1.255
 5441SOL     OW16368   2.213   6.700   0.489
 5441SOL    HW116369   2.253   6.778   0.442
 5441SOL    HW216370   2.218   6.619   0.430
 5442SOL     OW16371   2.411   6.129   0.861
 5442SOL    HW116372   2.426   6.188   0.782
 5442SOL    HW216373   2.479   6.149   0.931
 5443SOL     OW16374   3.447   6.212   0.481
 5443SOL    HW116375   3.392   6.255   0.552
 5443SOL    HW216376   3.501   6.281   0.434
 5444SOL     OW16377   2.278   6.330   1.601
 5444SOL    HW116378   2.344   6.375   1.541
 5444SOL    HW216379   2.311   6.238   1.624
 5445SOL     OW16380   3.469   6.370   1.684
 5445SOL    HW116381   3.377   6.410   1.681
 5445SOL    HW216382   3.525   6.411   1.613
 5446SOL     OW16383   2.859   5.719   1.750
 5446SOL    HW116384   2.917   5.798   1.734
 5446SOL    HW216385   2.908   5.636   1.724
 5447SOL     OW16386   2.355   5.623   1.750
 5447SOL    HW116387   2.310   5.564   1.682
 5447SOL    HW216388   2.297   5.703   1.768
 5448SOL     OW16389   2.444   6.453   1.035
 5448SOL    HW116390   2.472   6.548   1.025
 5448SOL    HW216391   2.384   6.443   1.114
 5449SOL     OW16392   3.220   6.440   1.027
 5449SOL    HW116393   3.129   6.438   0.985
 5449SOL    HW216394   3.263   6.351   1.015
 5450SOL     OW16395   3.057   6.112   0.272
 5450SOL    HW116396   3.071   6.033   0.330
 5450SOL    HW216397   3.017   6.187   0.326
 5451SOL     OW16398   2.159   5.783   1.246
 5451SOL    HW116399   2.123   5.820   1.332
 5451SOL    HW216400   2.144   5.684   1.243
 5452SOL     OW16401   1.922   6.898   1.282
 5452SOL    HW116402   1.955   6.841   1.358
 5452SOL    HW216403   1.923   6.994   1.310
 5453SOL     OW16404   2.586   6.215   1.055
 5453SOL    HW116405   2.663   6.197   0.995
 5453SOL    HW216406   2.551   6.307   1.037
 5454SOL     OW16407   3.596   6.547   1.853
 5454SOL    HW116408   3.553   6.477   1.796
 5454SOL    HW216409   3.540   6.563   1.934
 5455SOL     OW16410   2.166   5.652   0.629
 5455SOL    HW116411   2.143   5.747   0.650
 5455SOL    HW216412   2.178   5.601   0.714
 5456SOL     OW16413   3.489   5.962   0.375
 5456SOL    HW116414   3.513   5.892   0.442
 5456SOL    HW216415   3.465   6.047   0.422
 5457SOL     OW16416   2.886   6.339   0.959
 5457SOL    HW116417   2.882   6.362   1.056
 5457SOL    HW216418   2.859   6.244   0.946
 5458SOL     OW16419   3.717   0.066   1.600
 5458SOL    HW116420   3.752   0.141   1.545
 5458SOL    HW216421   3.772   0.056   1.683
 5459SOL     OW16422   2.217   6.507   1.801
 5459SOL    HW116423   2.293   6.518   1.866
 5459SOL    HW216424   2.241   6.439   1.732
 5460SOL     OW16425   3.350   5.878   0.153
 5460SOL    HW116426   3.310   5.788   0.168
 5460SOL    HW216427   3.408   5.902   0.231
 5461SOL     OW16428   3.155   6.411   0.030
 5461SOL    HW116429   3.199   6.321   0.024
 5461SOL    HW216430   3.186   6.469   6.955
 5462SOL     OW16431   2.172   6.391   0.942
 5462SOL    HW116432   2.268   6.417   0.936
 5462SOL    HW216433   2.165   6.298   0.976
 5463SOL     OW16434   2.190   6.113   1.011
 5463SOL    HW116435   2.152   6.021   1.001
 5463SOL    HW216436   2.271   6.122   0.953
 5464SOL     OW16437   2.996   5.959   1.691
 5464SOL    HW116438   2.943   6.016   1.754
 5464SOL    HW216439   3.088   5.996   1.683
 5465SOL     OW16440   3.024   5.790   1.475
 5465SOL    HW116441   3.009   5.852   1.552
 5465SOL    HW216442   3.066   5.839   1.399
 5466SOL     OW16443   2.838   6.378   1.225
 5466SOL    HW116444   2.898   6.355   1.301
 5466SOL    HW216445   2.749   6.334   1.238
 5467SOL     OW16446   1.899   6.137   1.117
 5467SOL    HW116447   1.981   6.124   1.062
 5467SOL    HW216448   1.924   6.140   1.214
 5468SOL     OW16449   2.054   6.108   1.730
 5468SOL    HW116450   2.106   6.054   1.664
 5468SOL    HW216451   2.014   6.188   1.684
 5469SOL     OW16452   3.242   6.523   1.655
 5469SOL    HW116453   3.271   6.619   1.654
 5469SOL    HW216454   3.238   6.489   1.561
 5470SOL     OW16455   2.680   6.155   0.370
 5470SOL    HW116456   2.688   6.076   0.309
 5470SOL    HW216457   2.603   6.212   0.342
 5471SOL     OW16458   3.505   6.188   1.182
 5471SOL    HW116459   3.489   6.129   1.261
 5471SOL    HW216460   3.596   6.171   1.145
 5472SOL     OW16461   2.569   6.033   1.254
 5472SOL    HW116462   2.511   5.955   1.229
 5472SOL    HW216463   2.566   6.101   1.180
 5473SOL     OW16464   2.318   6.084   0.189
 5473SOL    HW116465   2.382   6.156   0.215
 5473SOL    HW216466   2.225   6.121   0.185
 5474SOL     OW16467   2.029   6.728   1.476
 5474SOL    HW116468   2.018   6.679   1.563
 5474SOL    HW216469   2.040   6.662   1.402
 5475SOL     OW16470   3.191   6.624   1.224
 5475SOL    HW116471   3.221   6.556   1.156
 5475SOL    HW216472   3.118   6.679   1.185
 5476SOL     OW16473   3.164   6.433   0.304
 5476SOL    HW116474   3.084   6.406   0.357
 5476SOL    HW216475   3.147   6.415   0.207
 5477SOL     OW16476   1.945   6.858   1.014
 5477SOL    HW116477   1.930   6.868   1.113
 5477SOL    HW216478   1.874   6.799   0.976
 5478SOL     OW16479   2.801   5.662   0.113
 5478SOL    HW116480   2.871   5.717   0.067
 5478SOL    HW216481   2.844   5.604   0.182
 5479SOL     OW16482   3.590   5.745   0.528
 5479SOL    HW116483   3.660   5.737   0.457
 5479SOL    HW216484   3.563   5.654   0.558
 5480SOL     OW16485   3.143   6.506   0.671
 5480SOL    HW116486   3.218   6.441   0.686
 5480SOL    HW216487   3.177   6.584   0.619
 5481SOL     OW16488   2.678   6.844   1.420
 5481SOL    HW116489   2.653   6.886   1.507
 5481SOL    HW216490   2.605   6.859   1.353
 5482SOL     OW16491   3.704   5.756   0.963
 5482SOL    HW116492   3.738   5.665   0.941
 5482SOL    HW216493   3.613   5.767   0.923
 5483SOL     OW16494   2.118   5.903   0.717
 5483SOL    HW116495   2.030   5.941   0.690
 5483SOL    HW216496   2.122   5.894   0.816
 5484SOL     OW16497   2.688   6.582   1.370
 5484SOL    HW116498   2.746   6.560   1.291
 5484SOL    HW216499   2.692   6.680   1.388
 5485SOL     OW16500   2.786   6.499   0.290
 5485SOL    HW116501   2.846   6.536   0.219
 5485SOL    HW216502   2.835   6.428   0.341
 5486SOL     OW16503   2.254   6.892   1.501
 5486SOL    HW116504   2.220   6.982   1.475
 5486SOL    HW216505   2.178   6.827   1.503
 5487SOL     OW16506   3.467   6.846   1.313
 5487SOL    HW116507   3.542   6.835   1.377
 5487SOL    HW216508   3.398   6.908   1.352
 5488SOL     OW16509   2.921   6.696   0.727
 5488SOL    HW116510   2.842   6.645   0.762
 5488SOL    HW216511   2.987   6.633   0.686
 5489SOL     OW16512   2.884   5.824   0.966
 5489SOL    HW116513   2.880   5.780   0.877
 5489SOL    HW216514   2.882   5.755   1.038
 5490SOL     OW16515   3.593   5.980   1.380
 5490SOL    HW116516   3.665   6.049   1.381
 5490SOL    HW216517   3.618   5.905   1.320
 5491SOL     OW16518   1.971   6.608   1.716
 5491SOL    HW116519   1.891   6.587   1.773
 5491SOL    HW216520   2.054   6.574   1.760
 5492SOL     OW16521   2.545   5.780   1.500
 5492SOL    HW116522   2.631   5.756   1.456
 5492SOL    HW216523   2.563   5.814   1.592
 5493SOL     OW16524   1.966   5.908   0.018
 5493SOL    HW116525   1.905   5.853   6.961
 5493SOL    HW216526   1.997   5.988   6.966
 5494SOL     OW16527   3.288   6.438   1.399
 5494SOL    HW116528   3.235   6.503   1.344
 5494SOL    HW216529   3.383   6.439   1.367
 5495SOL     OW16530   1.914   5.760   0.334
 5495SOL    HW116531   1.894   5.843   0.282
 5495SOL    HW216532   2.003   5.724   0.306
 5496SOL     OW16533   2.484   6.414   1.434
 5496SOL    HW116534   2.543   6.492   1.414
 5496SOL    HW216535   2.540   6.332   1.444
 5497SOL     OW16536   2.584   6.145   1.703
 5497SOL    HW116537   2.629   6.211   1.763
 5497SOL    HW216538   2.604   6.052   1.736
 5498SOL     OW16539   3.347   6.779   1.646
 5498SOL    HW116540   3.333   6.798   1.743
 5498SOL    HW216541   3.443   6.793   1.622
 5499SOL     OW16542   3.530   6.462   1.254
 5499SOL    HW116543   3.523   6.371   1.213
 5499SOL    HW216544   3.517   6.531   1.183
 5500SOL     OW16545   3.083   5.903   0.457
 5500SOL    HW116546   3.164   5.850   0.429
 5500SOL    HW216547   3.105   5.955   0.539
 5501SOL     OW16548   2.450   6.321   0.666
 5501SOL    HW116549   2.490   6.413   0.659
 5501SOL    HW216550   2.378   6.311   0.596
 5502SOL     OW16551   3.614   5.951   1.652
 5502SOL    HW116552   3.604   5.967   1.554
 5502SOL    HW216553   3.540   5.891   1.684
 5503SOL     OW16554   3.606   6.519   1.507
 5503SOL    HW116555   3.599   6.618   1.525
 5503SOL    HW216556   3.591   6.502   1.410
 5504SOL     OW16557   2.729   6.549   0.859
 5504SOL    HW116558   2.783   6.473   0.893
 5504SOL    HW216559   2.697   6.605   0.935
 5505SOL     OW16560   2.952   6.585   0.086
 5505SOL    HW116561   2.898   6.593   0.002
 5505SOL    HW216562   3.029   6.524   0.070
 5506SOL     OW16563   2.075   6.906   1.813
 5506SOL    HW116564   2.015   6.826   1.824
 5506SOL    HW216565   2.087   6.950   1.902
 5507SOL     OW16566   1.953   6.822   0.674
 5507SOL    HW116567   1.970   6.760   0.751
 5507SOL    HW216568   2.012   6.797   0.597
 5508SOL     OW16569   2.567   6.970   1.632
 5508SOL    HW116570   2.470   6.959   1.651
 5508SOL    HW216571   2.587   0.066   1.613
 5509SOL     OW16572   3.666   5.769   1.234
 5509SOL    HW116573   3.682   5.673   1.258
 5509SOL    HW216574   3.679   5.780   1.135
 5510SOL     OW16575   2.293   6.015   0.527
 5510SOL    HW116576   2.324   5.943   0.465
 5510SOL    HW216577   2.239   5.974   0.601
 5511SOL     OW16578   3.508   0.043   1.136
 5511SOL    HW116579   3.461   0.028   1.050
 5511SOL    HW216580   3.504   6.961   1.193
 5512SOL     OW16581   2.196   6.141   1.289
 5512SOL    HW116582   2.253   6.085   1.349
 5512SOL    HW216583   2.212   6.115   1.194
 5513SOL     OW16584   3.293   5.817   1.117
 5513SOL    HW116585   3.317   5.728   1.155
 5513SOL    HW216586   3.238   5.868   1.184
 5514SOL     OW16587   2.872   5.603   1.138
 5514SOL    HW116588   2.808   5.538   1.096
 5514SOL    HW216589   2.963   5.562   1.140
 5515SOL     OW16590   2.667   6.878   0.289
 5515SOL    HW116591   2.626   6.791   0.312
 5515SOL    HW216592   2.679   6.933   0.372
 5516SOL     OW16593   3.215   5.639   0.185
 5516SOL    HW116594   3.254   5.583   0.112
 5516SOL    HW216595   3.129   5.600   0.215
 5517SOL     OW16596   3.147   6.046   0.679
 5517SOL    HW116597   3.098   6.132   0.682
 5517SOL    HW216598   3.149   6.005   0.770
 5518SOL     OW16599   3.447   5.789   0.883
 5518SOL    HW116600   3.390   5.810   0.962
 5518SOL    HW216601   3.451   5.869   0.823
 5519SOL     OW16602   1.940   6.644   0.319
 5519SOL    HW116603   2.038   6.627   0.319
 5519SOL    HW216604   1.891   6.561   0.345
 5520SOL     OW16605   2.085   6.206   1.988
 5520SOL    HW116606   1.993   6.206   2.029
 5520SOL    HW216607   2.077   6.182   1.891
 5521SOL     OW16608   2.085   5.868   2.856
 5521SOL    HW116609   2.117   5.834   2.945
 5521SOL    HW216610   1.991   5.836   2.840
 5522SOL     OW16611   1.863   5.972   2.496
 5522SOL    HW116612   1.779   6.002   2.541
 5522SOL    HW216613   1.845   5.888   2.445
 5523SOL     OW16614   2.431   6.871   3.035
 5523SOL    HW116615   2.354   6.873   2.970
 5523SOL    HW216616   2.405   6.920   3.118
 5524SOL     OW16617   3.403   0.056   2.552
 5524SOL    HW116618   3.381   0.051   2.649
 5524SOL    HW216619   3.324   0.090   2.501
 5525SOL     OW16620   2.993   6.287   2.557
 5525SOL    HW116621   3.046   6.370   2.541
 5525SOL    HW216622   2.943   6.295   2.644
 5526SOL     OW16623   3.632   6.184   2.084
 5526SOL    HW116624   3.608   6.180   1.987
 5526SOL    HW216625   3.593   6.105   2.132
 5527SOL     OW16626   2.627   6.747   2.888
 5527SOL    HW116627   2.558   6.784   2.951
 5527SOL    HW216628   2.626   6.801   2.803
 5528SOL     OW16629   2.737   6.352   3.684
 5528SOL    HW116630   2.721   6.419   3.756
 5528SOL    HW216631   2.761   6.400   3.599
 5529SOL     OW16632   2.548   6.584   2.510
 5529SOL    HW116633   2.618   6.573   2.581
 5529SOL    HW216634   2.473   6.639   2.546
 5530SOL     OW16635   2.553   6.734   3.677
 5530SOL    HW116636   2.591   6.825   3.694
 5530SOL    HW216637   2.472   6.743   3.619
 5531SOL     OW16638   2.198   0.007   2.921
 5531SOL    HW116639   2.119   6.961   2.880
 5531SOL    HW216640   2.246   0.060   2.850
 5532SOL     OW16641   2.312   5.981   3.342
 5532SOL    HW116642   2.393   5.922   3.349
 5532SOL    HW216643   2.230   5.926   3.360
 5533SOL     OW16644   3.473   6.033   2.606
 5533SOL    HW116645   3.397   6.052   2.544
 5533SOL    HW216646   3.484   6.108   2.670
 5534SOL     OW16647   2.121   6.676   2.764
 5534SOL    HW116648   2.119   6.581   2.797
 5534SOL    HW216649   2.060   6.731   2.821
 5535SOL     OW16650   2.442   6.565   2.004
 5535SOL    HW116651   2.487   6.615   1.930
 5535SOL    HW216652   2.482   6.591   2.092
 5536SOL     OW16653   3.458   5.710   3.332
 5536SOL    HW116654   3.477   5.790   3.274
 5536SOL    HW216655   3.444   5.740   3.426
 5537SOL     OW16656   1.977   6.244   2.427
 5537SOL    HW116657   1.947   6.151   2.444
 5537SOL    HW216658   1.970   6.298   2.511
 5538SOL     OW16659   3.551   6.502   2.506
 5538SOL    HW116660   3.639   6.458   2.492
 5538SOL    HW216661   3.528   6.558   2.426
 5539SOL     OW16662   3.514   6.692   2.288
 5539SOL    HW116663   3.603   6.686   2.243
 5539SOL    HW216664   3.521   6.751   2.368
 5540SOL     OW16665   1.987   6.331   3.447
 5540SOL    HW116666   2.085   6.353   3.448
 5540SOL    HW216667   1.934   6.415   3.456
 5541SOL     OW16668   3.176   6.817   3.293
 5541SOL    HW116669   3.200   6.747   3.226
 5541SOL    HW216670   3.235   6.809   3.373
 5542SOL     OW16671   2.679   5.594   2.370
 5542SOL    HW116672   2.725   5.680   2.348
 5542SOL    HW216673   2.580   5.610   2.378
 5543SOL     OW16674   2.054   6.551   3.136
 5543SOL    HW116675   2.141   6.504   3.122
 5543SOL    HW216676   1.981   6.502   3.087
 5544SOL     OW16677   3.397   6.587   2.063
 5544SOL    HW116678   3.324   6.526   2.092
 5544SOL    HW216679   3.445   6.622   2.144
 5545SOL     OW16680   2.202   5.835   3.691
 5545SOL    HW116681   2.251   5.921   3.707
 5545SOL    HW216682   2.105   5.848   3.712
 5546SOL     OW16683   3.320   6.989   2.809
 5546SOL    HW116684   3.251   0.014   2.878
 5546SOL    HW216685   3.303   6.895   2.779
 5547SOL     OW16686   2.457   6.303   2.135
 5547SOL    HW116687   2.462   6.388   2.083
 5547SOL    HW216688   2.388   6.312   2.208
 5548SOL     OW16689   3.139   5.943   2.795
 5548SOL    HW116690   3.046   5.909   2.802
 5548SOL    HW216691   3.198   5.891   2.857
 5549SOL     OW16692   2.652   6.198   3.312
 5549SOL    HW116693   2.627   6.174   3.406
 5549SOL    HW216694   2.614   6.130   3.249
 5550SOL     OW16695   3.253   6.056   3.542
 5550SOL    HW116696   3.254   6.105   3.629
 5550SOL    HW216697   3.315   5.977   3.547
 5551SOL     OW16698   2.818   6.474   3.445
 5551SOL    HW116699   2.876   6.401   3.410
 5551SOL    HW216700   2.763   6.511   3.371
 5552SOL     OW16701   2.856   5.992   3.092
 5552SOL    HW116702   2.766   6.015   3.131
 5552SOL    HW216703   2.844   5.944   3.006
 5553SOL     OW16704   2.912   6.285   2.287
 5553SOL    HW116705   2.933   6.281   2.384
 5553SOL    HW216706   2.826   6.237   2.269
 5554SOL     OW16707   1.949   6.413   2.641
 5554SOL    HW116708   2.035   6.401   2.691
 5554SOL    HW216709   1.898   6.490   2.679
 5555SOL     OW16710   2.758   5.938   2.058
 5555SOL    HW116711   2.798   6.005   1.996
 5555SOL    HW216712   2.768   5.846   2.019
 5556SOL     OW16713   3.563   6.158   3.687
 5556SOL    HW116714   3.528   6.237   3.637
 5556SOL    HW216715   3.594   6.089   3.622
 5557SOL     OW16716   3.248   6.722   2.408
 5557SOL    HW116717   3.329   6.715   2.349
 5557SOL    HW216718   3.195   6.803   2.383
 5558SOL     OW16719   2.409   5.760   2.762
 5558SOL    HW116720   2.413   5.790   2.857
 5558SOL    HW216721   2.412   5.840   2.702
 5559SOL     OW16722   3.660   6.639   2.738
 5559SOL    HW116723   3.608   6.629   2.653
 5559SOL    HW216724   3.597   6.646   2.815
 5560SOL     OW16725   2.185   6.545   2.119
 5560SOL    HW116726   2.273   6.562   2.075
 5560SOL    HW216727   2.146   6.460   2.084
 5561SOL     OW16728   3.346   6.332   2.585
 5561SOL    HW116729   3.341   6.289   2.676
 5561SOL    HW216730   3.425   6.393   2.582
 5562SOL     OW16731   2.064   5.863   3.365
 5562SOL    HW116732   1.982   5.919   3.360
 5562SOL    HW216733   2.043   5.777   3.411
 5563SOL     OW16734   3.502   6.969   1.946
 5563SOL    HW116735   3.469   0.061   1.964
 5563SOL    HW216736   3.424   6.907   1.933
 5564SOL     OW16737   3.263   5.690   2.297
 5564SOL    HW116738   3.251   5.665   2.202
 5564SOL    HW216739   3.361   5.700   2.318
 5565SOL     OW16740   2.257   6.274   2.337
 5565SOL    HW116741   2.277   6.177   2.351
 5565SOL    HW216742   2.161   6.291   2.355
 5566SOL     OW16743   3.391   5.809   3.590
 5566SOL    HW116744   3.402   5.830   3.687
 5566SOL    HW216745   3.319   5.741   3.578
 5567SOL     OW16746   2.502   5.704   1.964
 5567SOL    HW116747   2.571   5.635   1.986
 5567SOL    HW216748   2.446   5.672   1.887
 5568SOL     OW16749   2.626   5.863   3.619
 5568SOL    HW116750   2.709   5.809   3.613
 5568SOL    HW216751   2.574   5.835   3.700
 5569SOL     OW16752   3.202   6.174   3.297
 5569SOL    HW116753   3.232   6.139   3.386
 5569SOL    HW216754   3.238   6.266   3.284
 5570SOL     OW16755   2.789   6.092   2.761
 5570SOL    HW116756   2.763   6.086   2.664
 5570SOL    HW216757   2.821   6.003   2.793
 5571SOL     OW16758   2.409   5.650   2.357
 5571SOL    HW116759   2.327   5.648   2.414
 5571SOL    HW216760   2.406   5.731   2.298
 5572SOL     OW16761   3.281   6.788   1.921
 5572SOL    HW116762   3.335   6.717   1.967
 5572SOL    HW216763   3.187   6.756   1.909
 5573SOL     OW16764   2.153   5.634   2.048
 5573SOL    HW116765   2.206   5.706   2.002
 5573SOL    HW216766   2.215   5.569   2.091
 5574SOL     OW16767   2.808   5.836   2.319
 5574SOL    HW116768   2.776   5.878   2.234
 5574SOL    HW216769   2.906   5.850   2.328
 5575SOL     OW16770   2.942   6.269   3.319
 5575SOL    HW116771   2.866   6.203   3.324
 5575SOL    HW216772   3.028   6.219   3.314
 5576SOL     OW16773   3.131   0.147   2.603
 5576SOL    HW116774   3.099   0.231   2.560
 5576SOL    HW216775   3.143   0.163   2.701
 5577SOL     OW16776   2.328   6.715   2.597
 5577SOL    HW116777   2.257   6.706   2.667
 5577SOL    HW216778   2.286   6.712   2.506
 5578SOL     OW16779   2.883   6.123   1.891
 5578SOL    HW116780   2.838   6.209   1.867
 5578SOL    HW216781   2.952   6.139   1.961
 5579SOL     OW16782   1.948   6.144   3.253
 5579SOL    HW116783   2.042   6.139   3.221
 5579SOL    HW216784   1.940   6.215   3.322
 5580SOL     OW16785   2.420   5.810   3.033
 5580SOL    HW116786   2.470   5.733   3.075
 5580SOL    HW216787   2.325   5.808   3.063
 5581SOL     OW16788   2.728   6.044   2.499
 5581SOL    HW116789   2.680   6.106   2.437
 5581SOL    HW216790   2.755   5.962   2.449
 5582SOL     OW16791   2.879   5.638   2.608
 5582SOL    HW116792   2.818   5.639   2.529
 5582SOL    HW216793   2.854   5.562   2.669
 5583SOL     OW16794   3.302   6.734   2.720
 5583SOL    HW116795   3.226   6.669   2.721
 5583SOL    HW216796   3.332   6.748   2.626
 5584SOL     OW16797   3.330   6.192   2.833
 5584SOL    HW116798   3.269   6.113   2.833
 5584SOL    HW216799   3.391   6.186   2.912
 5585SOL     OW16800   3.705   6.392   2.242
 5585SOL    HW116801   3.763   6.344   2.309
 5585SOL    HW216802   3.676   6.327   2.171
 5586SOL     OW16803   3.541   6.832   2.510
 5586SOL    HW116804   3.639   6.842   2.527
 5586SOL    HW216805   3.494   6.918   2.531
 5587SOL     OW16806   3.252   6.160   1.933
 5587SOL    HW116807   3.190   6.138   2.008
 5587SOL    HW216808   3.345   6.133   1.959
 5588SOL     OW16809   2.390   5.850   2.172
 5588SOL    HW116810   2.437   5.798   2.102
 5588SOL    HW216811   2.362   5.938   2.135
 5589SOL     OW16812   3.616   6.814   3.430
 5589SOL    HW116813   3.701   6.764   3.449
 5589SOL    HW216814   3.632   6.912   3.441
 5590SOL     OW16815   2.938   6.895   3.189
 5590SOL    HW116816   2.858   6.879   3.247
 5590SOL    HW216817   3.021   6.878   3.241
 5591SOL     OW16818   2.998   6.762   2.963
 5591SOL    HW116819   2.965   6.811   3.044
 5591SOL    HW216820   2.942   6.787   2.884
 5592SOL     OW16821   3.485   6.682   2.944
 5592SOL    HW116822   3.474   6.738   3.026
 5592SOL    HW216823   3.409   6.698   2.882
 5593SOL     OW16824   2.785   5.680   3.254
 5593SOL    HW116825   2.806   5.658   3.159
 5593SOL    HW216826   2.864   5.724   3.297
 5594SOL     OW16827   2.830   6.696   3.600
 5594SOL    HW116828   2.733   6.710   3.616
 5594SOL    HW216829   2.843   6.622   3.534
 5595SOL     OW16830   2.570   6.638   2.231
 5595SOL    HW116831   2.556   6.629   2.329
 5595SOL    HW216832   2.652   6.587   2.204
 5596SOL     OW16833   2.283   6.400   3.116
 5596SOL    HW116834   2.355   6.413   3.184
 5596SOL    HW216835   2.244   6.309   3.127
 5597SOL     OW16836   3.125   5.962   3.142
 5597SOL    HW116837   3.161   6.041   3.190
 5597SOL    HW216838   3.029   5.980   3.117
 5598SOL     OW16839   2.204   6.702   2.353
 5598SOL    HW116840   2.244   6.782   2.308
 5598SOL    HW216841   2.198   6.626   2.289
 5599SOL     OW16842   2.411   6.130   2.724
 5599SOL    HW116843   2.425   6.189   2.645
 5599SOL    HW216844   2.480   6.150   2.793
 5600SOL     OW16845   3.439   6.208   2.343
 5600SOL    HW116846   3.390   6.255   2.416
 5600SOL    HW216847   3.491   6.274   2.289
 5601SOL     OW16848   2.278   6.330   3.463
 5601SOL    HW116849   2.343   6.375   3.403
 5601SOL    HW216850   2.311   6.238   3.485
 5602SOL     OW16851   3.469   6.370   3.546
 5602SOL    HW116852   3.377   6.410   3.543
 5602SOL    HW216853   3.525   6.411   3.475
 5603SOL     OW16854   2.859   5.719   3.612
 5603SOL    HW116855   2.917   5.798   3.596
 5603SOL    HW216856   2.908   5.636   3.586
 5604SOL     OW16857   2.354   5.623   3.612
 5604SOL    HW116858   2.310   5.564   3.544
 5604SOL    HW216859   2.297   5.702   3.630
 5605SOL     OW16860   2.445   6.452   2.898
 5605SOL    HW116861   2.471   6.548   2.886
 5605SOL    HW216862   2.384   6.443   2.976
 5606SOL     OW16863   3.220   6.440   2.889
 5606SOL    HW116864   3.128   6.438   2.848
 5606SOL    HW216865   3.264   6.351   2.877
 5607SOL     OW16866   3.060   6.113   2.127
 5607SOL    HW116867   3.073   6.030   2.181
 5607SOL    HW216868   3.015   6.183   2.182
 5608SOL     OW16869   2.159   5.783   3.109
 5608SOL    HW116870   2.123   5.819   3.194
 5608SOL    HW216871   2.143   5.684   3.105
 5609SOL     OW16872   1.921   6.898   3.145
 5609SOL    HW116873   1.955   6.841   3.220
 5609SOL    HW216874   1.924   6.994   3.172
 5610SOL     OW16875   2.588   6.216   2.918
 5610SOL    HW116876   2.664   6.196   2.856
 5610SOL    HW216877   2.552   6.307   2.899
 5611SOL     OW16878   3.596   6.547   3.715
 5611SOL    HW116879   3.553   6.477   3.658
 5611SOL    HW216880   3.540   6.563   3.796
 5612SOL     OW16881   2.168   5.647   2.490
 5612SOL    HW116882   2.144   5.743   2.508
 5612SOL    HW216883   2.179   5.599   2.576
 5613SOL     OW16884   3.488   5.966   2.224
 5613SOL    HW116885   3.514   5.893   2.288
 5613SOL    HW216886   3.459   6.047   2.276
 5614SOL     OW16887   2.886   6.340   2.820
 5614SOL    HW116888   2.882   6.362   2.918
 5614SOL    HW216889   2.859   6.244   2.807
 5615SOL     OW16890   3.717   0.066   3.462
 5615SOL    HW116891   3.753   0.141   3.407
 5615SOL    HW216892   3.772   0.056   3.545
 5616SOL     OW16893   2.217   6.507   3.663
 5616SOL    HW116894   2.293   6.518   3.728
 5616SOL    HW216895   2.241   6.439   3.594
 5617SOL     OW16896   3.389   5.855   1.992
 5617SOL    HW116897   3.320   5.787   2.017
 5617SOL    HW216898   3.426   5.897   2.075
 5618SOL     OW16899   3.150   6.410   1.886
 5618SOL    HW116900   3.192   6.320   1.896
 5618SOL    HW216901   3.182   6.451   1.800
 5619SOL     OW16902   2.172   6.392   2.804
 5619SOL    HW116903   2.268   6.417   2.795
 5619SOL    HW216904   2.164   6.298   2.838
 5620SOL     OW16905   2.190   6.113   2.874
 5620SOL    HW116906   2.151   6.021   2.862
 5620SOL    HW216907   2.271   6.123   2.815
 5621SOL     OW16908   2.996   5.959   3.554
 5621SOL    HW116909   2.943   6.016   3.616
 5621SOL    HW216910   3.088   5.996   3.545
 5622SOL     OW16911   3.024   5.789   3.337
 5622SOL    HW116912   3.009   5.852   3.414
 5622SOL    HW216913   3.066   5.839   3.261
 5623SOL     OW16914   1.884   6.895   2.044
 5623SOL    HW116915   1.796   6.923   2.006
 5623SOL    HW216916   1.874   6.807   2.090
 5624SOL     OW16917   2.838   6.378   3.087
 5624SOL    HW116918   2.898   6.354   3.163
 5624SOL    HW216919   2.749   6.333   3.099
 5625SOL     OW16920   1.899   6.137   2.979
 5625SOL    HW116921   1.981   6.124   2.924
 5625SOL    HW216922   1.924   6.140   3.076
 5626SOL     OW16923   2.054   6.108   3.592
 5626SOL    HW116924   2.106   6.055   3.526
 5626SOL    HW216925   2.014   6.188   3.546
 5627SOL     OW16926   3.241   6.523   3.517
 5627SOL    HW116927   3.271   6.619   3.516
 5627SOL    HW216928   3.238   6.489   3.423
 5628SOL     OW16929   2.680   6.158   2.222
 5628SOL    HW116930   2.688   6.078   2.162
 5628SOL    HW216931   2.601   6.213   2.193
 5629SOL     OW16932   3.505   6.188   3.044
 5629SOL    HW116933   3.488   6.128   3.122
 5629SOL    HW216934   3.596   6.171   3.007
 5630SOL     OW16935   2.569   6.033   3.116
 5630SOL    HW116936   2.511   5.955   3.091
 5630SOL    HW216937   2.566   6.101   3.043
 5631SOL     OW16938   2.321   6.081   2.047
 5631SOL    HW116939   2.386   6.153   2.073
 5631SOL    HW216940   2.230   6.121   2.034
 5632SOL     OW16941   2.029   6.728   3.338
 5632SOL    HW116942   2.018   6.679   3.425
 5632SOL    HW216943   2.040   6.662   3.264
 5633SOL     OW16944   3.192   6.624   3.086
 5633SOL    HW116945   3.221   6.556   3.018
 5633SOL    HW216946   3.118   6.680   3.047
 5634SOL     OW16947   3.178   6.447   2.159
 5634SOL    HW116948   3.105   6.416   2.221
 5634SOL    HW216949   3.150   6.430   2.064
 5635SOL     OW16950   1.945   6.858   2.876
 5635SOL    HW116951   1.930   6.867   2.975
 5635SOL    HW216952   1.874   6.799   2.837
 5636SOL     OW16953   3.581   5.735   2.361
 5636SOL    HW116954   3.657   5.725   2.297
 5636SOL    HW216955   3.564   5.647   2.407
 5637SOL     OW16956   3.144   6.508   2.531
 5637SOL    HW116957   3.218   6.443   2.547
 5637SOL    HW216958   3.179   6.586   2.479
 5638SOL     OW16959   2.678   6.844   3.281
 5638SOL    HW116960   2.653   6.886   3.368
 5638SOL    HW216961   2.606   6.859   3.215
 5639SOL     OW16962   3.704   5.756   2.826
 5639SOL    HW116963   3.738   5.665   2.803
 5639SOL    HW216964   3.613   5.768   2.786
 5640SOL     OW16965   2.118   5.900   2.578
 5640SOL    HW116966   2.029   5.937   2.550
 5640SOL    HW216967   2.121   5.892   2.677
 5641SOL     OW16968   3.109   0.211   1.872
 5641SOL    HW116969   3.112   0.146   1.947
 5641SOL    HW216970   3.017   0.213   1.832
 5642SOL     OW16971   2.688   6.582   3.232
 5642SOL    HW116972   2.745   6.560   3.153
 5642SOL    HW216973   2.692   6.680   3.250
 5643SOL     OW16974   2.782   6.495   2.142
 5643SOL    HW116975   2.848   6.536   2.079
 5643SOL    HW216976   2.828   6.425   2.198
 5644SOL     OW16977   2.254   6.892   3.364
 5644SOL    HW116978   2.221   6.982   3.336
 5644SOL    HW216979   2.178   6.827   3.366
 5645SOL     OW16980   3.467   6.846   3.175
 5645SOL    HW116981   3.542   6.835   3.239
 5645SOL    HW216982   3.398   6.908   3.214
 5646SOL     OW16983   2.923   6.695   2.587
 5646SOL    HW116984   2.843   6.645   2.622
 5646SOL    HW216985   2.989   6.629   2.550
 5647SOL     OW16986   2.884   5.825   2.829
 5647SOL    HW116987   2.880   5.781   2.739
 5647SOL    HW216988   2.882   5.755   2.901
 5648SOL     OW16989   3.593   5.980   3.243
 5648SOL    HW116990   3.665   6.049   3.243
 5648SOL    HW216991   3.618   5.905   3.182
 5649SOL     OW16992   1.971   6.608   3.578
 5649SOL    HW116993   1.891   6.587   3.635
 5649SOL    HW216994   2.054   6.574   3.622
 5650SOL     OW16995   2.545   5.780   3.362
 5650SOL    HW116996   2.631   5.756   3.317
 5650SOL    HW216997   2.563   5.814   3.454
 5651SOL     OW16998   1.943   5.915   1.892
 5651SOL    HW116999   1.851   5.891   1.861
 5651SOL    HW217000   1.975   5.996   1.842
 5652SOL     OW17001   3.289   6.438   3.261
 5652SOL    HW117002   3.235   6.503   3.206
 5652SOL    HW217003   3.383   6.439   3.229
 5653SOL     OW17004   1.926   5.741   2.166
 5653SOL    HW117005   1.909   5.826   2.115
 5653SOL    HW217006   2.014   5.703   2.138
 5654SOL     OW17007   2.484   6.414   3.296
 5654SOL    HW117008   2.543   6.492   3.276
 5654SOL    HW217009   2.540   6.331   3.306
 5655SOL     OW17010   2.584   6.145   3.565
 5655SOL    HW117011   2.629   6.211   3.625
 5655SOL    HW217012   2.604   6.052   3.598
 5656SOL     OW17013   3.347   6.779   3.508
 5656SOL    HW117014   3.334   6.798   3.605
 5656SOL    HW217015   3.443   6.793   3.484
 5657SOL     OW17016   3.530   6.462   3.116
 5657SOL    HW117017   3.523   6.371   3.075
 5657SOL    HW217018   3.517   6.531   3.045
 5658SOL     OW17019   3.081   5.903   2.321
 5658SOL    HW117020   3.145   5.826   2.311
 5658SOL    HW217021   3.108   5.958   2.401
 5659SOL     OW17022   2.448   6.323   2.531
 5659SOL    HW117023   2.490   6.414   2.521
 5659SOL    HW217024   2.379   6.310   2.460
 5660SOL     OW17025   3.614   5.950   3.514
 5660SOL    HW117026   3.604   5.967   3.416
 5660SOL    HW217027   3.540   5.891   3.546
 5661SOL     OW17028   3.606   6.519   3.369
 5661SOL    HW117029   3.599   6.617   3.387
 5661SOL    HW217030   3.591   6.502   3.272
 5662SOL     OW17031   2.729   6.551   2.720
 5662SOL    HW117032   2.783   6.473   2.755
 5662SOL    HW217033   2.698   6.606   2.798
 5663SOL     OW17034   2.954   6.586   1.953
 5663SOL    HW117035   2.914   6.633   1.874
 5663SOL    HW217036   3.021   6.519   1.921
 5664SOL     OW17037   2.074   6.906   3.675
 5664SOL    HW117038   2.015   6.826   3.685
 5664SOL    HW217039   2.086   6.950   3.764
 5665SOL     OW17040   1.952   6.820   2.536
 5665SOL    HW117041   1.972   6.758   2.612
 5665SOL    HW217042   2.016   6.802   2.461
 5666SOL     OW17043   2.567   6.970   3.494
 5666SOL    HW117044   2.470   6.958   3.512
 5666SOL    HW217045   2.587   0.066   3.475
 5667SOL     OW17046   3.667   5.769   3.096
 5667SOL    HW117047   3.683   5.673   3.120
 5667SOL    HW217048   3.679   5.781   2.998
 5668SOL     OW17049   2.292   6.014   2.389
 5668SOL    HW117050   2.326   5.944   2.326
 5668SOL    HW217051   2.238   5.971   2.461
 5669SOL     OW17052   3.508   0.043   2.999
 5669SOL    HW117053   3.460   0.027   2.912
 5669SOL    HW217054   3.504   6.961   3.055
 5670SOL     OW17055   2.196   6.142   3.151
 5670SOL    HW117056   2.253   6.085   3.211
 5670SOL    HW217057   2.212   6.116   3.056
 5671SOL     OW17058   3.293   5.816   2.979
 5671SOL    HW117059   3.317   5.727   3.018
 5671SOL    HW217060   3.238   5.868   3.046
 5672SOL     OW17061   2.872   5.602   3.000
 5672SOL    HW117062   2.808   5.539   2.956
 5672SOL    HW217063   2.963   5.562   3.002
 5673SOL     OW17064   2.621   6.908   2.130
 5673SOL    HW117065   2.599   6.812   2.149
 5673SOL    HW217066   2.659   6.951   2.212
 5674SOL     OW17067   3.216   5.637   2.031
 5674SOL    HW117068   3.258   5.569   1.970
 5674SOL    HW217069   3.123   5.607   2.054
 5675SOL     OW17070   3.153   6.049   2.542
 5675SOL    HW117071   3.100   6.134   2.545
 5675SOL    HW217072   3.151   6.007   2.633
 5676SOL     OW17073   3.448   5.790   2.745
 5676SOL    HW117074   3.390   5.809   2.824
 5676SOL    HW217075   3.450   5.870   2.685
 5677SOL     OW17076   1.898   6.647   2.172
 5677SOL    HW117077   1.996   6.653   2.151
 5677SOL    HW217078   1.875   6.552   2.195
 5678SOL     OW17079   2.085   6.206   3.850
 5678SOL    HW117080   1.993   6.206   3.891
 5678SOL    HW217081   2.078   6.182   3.753
 5679SOL     OW17082   2.085   5.868   4.718
 5679SOL    HW117083   2.117   5.834   4.807
 5679SOL    HW217084   1.991   5.836   4.702
 5680SOL     OW17085   1.863   5.972   4.358
 5680SOL    HW117086   1.779   6.002   4.403
 5680SOL    HW217087   1.845   5.888   4.307
 5681SOL     OW17088   2.431   6.871   4.897
 5681SOL    HW117089   2.354   6.873   4.832
 5681SOL    HW217090   2.405   6.920   4.980
 5682SOL     OW17091   3.403   0.056   4.414
 5682SOL    HW117092   3.381   0.051   4.511
 5682SOL    HW217093   3.324   0.090   4.363
 5683SOL     OW17094   2.993   6.287   4.419
 5683SOL    HW117095   3.046   6.370   4.403
 5683SOL    HW217096   2.943   6.295   4.506
 5684SOL     OW17097   3.632   6.184   3.946
 5684SOL    HW117098   3.608   6.180   3.849
 5684SOL    HW217099   3.593   6.105   3.994
 5685SOL     OW17100   2.627   6.747   4.750
 5685SOL    HW117101   2.558   6.784   4.813
 5685SOL    HW217102   2.626   6.801   4.665
 5686SOL     OW17103   2.737   6.352   5.546
 5686SOL    HW117104   2.721   6.419   5.619
 5686SOL    HW217105   2.761   6.400   5.461
 5687SOL     OW17106   2.548   6.584   4.372
 5687SOL    HW117107   2.618   6.573   4.443
 5687SOL    HW217108   2.473   6.639   4.408
 5688SOL     OW17109   2.553   6.734   5.539
 5688SOL    HW117110   2.592   6.825   5.556
 5688SOL    HW217111   2.472   6.743   5.481
 5689SOL     OW17112   2.198   0.007   4.783
 5689SOL    HW117113   2.119   6.961   4.742
 5689SOL    HW217114   2.246   0.060   4.712
 5690SOL     OW17115   2.312   5.981   5.204
 5690SOL    HW117116   2.393   5.922   5.211
 5690SOL    HW217117   2.230   5.926   5.222
 5691SOL     OW17118   3.474   6.033   4.468
 5691SOL    HW117119   3.397   6.052   4.406
 5691SOL    HW217120   3.484   6.108   4.532
 5692SOL     OW17121   2.121   6.676   4.626
 5692SOL    HW117122   2.119   6.581   4.659
 5692SOL    HW217123   2.060   6.731   4.683
 5693SOL     OW17124   2.442   6.565   3.866
 5693SOL    HW117125   2.487   6.616   3.792
 5693SOL    HW217126   2.482   6.591   3.954
 5694SOL     OW17127   3.458   5.710   5.194
 5694SOL    HW117128   3.477   5.790   5.136
 5694SOL    HW217129   3.444   5.740   5.288
 5695SOL     OW17130   1.977   6.244   4.289
 5695SOL    HW117131   1.947   6.151   4.306
 5695SOL    HW217132   1.970   6.298   4.373
 5696SOL     OW17133   3.551   6.502   4.368
 5696SOL    HW117134   3.639   6.458   4.354
 5696SOL    HW217135   3.528   6.558   4.288
 5697SOL     OW17136   3.514   6.692   4.150
 5697SOL    HW117137   3.603   6.686   4.105
 5697SOL    HW217138   3.521   6.751   4.230
 5698SOL     OW17139   1.987   6.331   5.309
 5698SOL    HW117140   2.085   6.353   5.310
 5698SOL    HW217141   1.934   6.415   5.318
 5699SOL     OW17142   3.176   6.817   5.155
 5699SOL    HW117143   3.200   6.747   5.088
 5699SOL    HW217144   3.235   6.809   5.235
 5700SOL     OW17145   2.679   5.594   4.232
 5700SOL    HW117146   2.725   5.680   4.210
 5700SOL    HW217147   2.580   5.610   4.240
 5701SOL     OW17148   2.054   6.551   4.998
 5701SOL    HW117149   2.141   6.504   4.984
 5701SOL    HW217150   1.981   6.502   4.949
 5702SOL     OW17151   3.397   6.587   3.925
 5702SOL    HW117152   3.324   6.526   3.954
 5702SOL    HW217153   3.445   6.622   4.006
 5703SOL     OW17154   2.202   5.835   5.554
 5703SOL    HW117155   2.251   5.921   5.568
 5703SOL    HW217156   2.105   5.848   5.574
 5704SOL     OW17157   3.320   6.989   4.671
 5704SOL    HW117158   3.252   0.014   4.740
 5704SOL    HW217159   3.303   6.895   4.641
 5705SOL     OW17160   2.457   6.303   3.997
 5705SOL    HW117161   2.462   6.389   3.945
 5705SOL    HW217162   2.388   6.313   4.070
 5706SOL     OW17163   3.140   5.943   4.657
 5706SOL    HW117164   3.046   5.909   4.664
 5706SOL    HW217165   3.198   5.891   4.719
 5707SOL     OW17166   2.652   6.198   5.174
 5707SOL    HW117167   2.627   6.174   5.268
 5707SOL    HW217168   2.614   6.130   5.111
 5708SOL     OW17169   3.253   6.056   5.404
 5708SOL    HW117170   3.254   6.105   5.491
 5708SOL    HW217171   3.315   5.977   5.409
 5709SOL     OW17172   2.818   6.474   5.307
 5709SOL    HW117173   2.876   6.400   5.272
 5709SOL    HW217174   2.763   6.511   5.233
 5710SOL     OW17175   2.856   5.992   4.954
 5710SOL    HW117176   2.766   6.015   4.993
 5710SOL    HW217177   2.844   5.944   4.868
 5711SOL     OW17178   2.912   6.285   4.149
 5711SOL    HW117179   2.933   6.281   4.246
 5711SOL    HW217180   2.826   6.237   4.131
 5712SOL     OW17181   1.949   6.413   4.503
 5712SOL    HW117182   2.035   6.401   4.553
 5712SOL    HW217183   1.898   6.490   4.541
 5713SOL     OW17184   2.758   5.938   3.920
 5713SOL    HW117185   2.797   6.005   3.858
 5713SOL    HW217186   2.768   5.846   3.881
 5714SOL     OW17187   3.563   6.158   5.549
 5714SOL    HW117188   3.528   6.237   5.499
 5714SOL    HW217189   3.594   6.089   5.484
 5715SOL     OW17190   3.248   6.722   4.270
 5715SOL    HW117191   3.329   6.715   4.211
 5715SOL    HW217192   3.195   6.803   4.245
 5716SOL     OW17193   2.409   5.760   4.624
 5716SOL    HW117194   2.413   5.790   4.719
 5716SOL    HW217195   2.412   5.840   4.564
 5717SOL     OW17196   3.660   6.639   4.600
 5717SOL    HW117197   3.608   6.629   4.515
 5717SOL    HW217198   3.597   6.646   4.677
 5718SOL     OW17199   2.185   6.545   3.981
 5718SOL    HW117200   2.273   6.562   3.937
 5718SOL    HW217201   2.146   6.460   3.946
 5719SOL     OW17202   3.346   6.332   4.447
 5719SOL    HW117203   3.341   6.289   4.538
 5719SOL    HW217204   3.425   6.393   4.444
 5720SOL     OW17205   2.064   5.863   5.227
 5720SOL    HW117206   1.982   5.919   5.222
 5720SOL    HW217207   2.043   5.777   5.273
 5721SOL     OW17208   3.502   6.969   3.808
 5721SOL    HW117209   3.469   0.061   3.826
 5721SOL    HW217210   3.424   6.907   3.795
 5722SOL     OW17211   3.263   5.690   4.160
 5722SOL    HW117212   3.251   5.665   4.064
 5722SOL    HW217213   3.361   5.700   4.179
 5723SOL     OW17214   2.257   6.274   4.199
 5723SOL    HW117215   2.277   6.177   4.213
 5723SOL    HW217216   2.161   6.291   4.217
 5724SOL     OW17217   3.391   5.809   5.452
 5724SOL    HW117218   3.402   5.830   5.549
 5724SOL    HW217219   3.319   5.741   5.440
 5725SOL     OW17220   2.502   5.704   3.826
 5725SOL    HW117221   2.571   5.635   3.847
 5725SOL    HW217222   2.446   5.672   3.749
 5726SOL     OW17223   2.626   5.863   5.481
 5726SOL    HW117224   2.709   5.809   5.475
 5726SOL    HW217225   2.574   5.835   5.562
 5727SOL     OW17226   3.202   6.174   5.159
 5727SOL    HW117227   3.232   6.139   5.248
 5727SOL    HW217228   3.238   6.266   5.146
 5728SOL     OW17229   2.789   6.092   4.623
 5728SOL    HW117230   2.763   6.086   4.526
 5728SOL    HW217231   2.821   6.003   4.655
 5729SOL     OW17232   2.409   5.650   4.219
 5729SOL    HW117233   2.327   5.648   4.276
 5729SOL    HW217234   2.406   5.731   4.160
 5730SOL     OW17235   3.281   6.788   3.783
 5730SOL    HW117236   3.335   6.717   3.829
 5730SOL    HW217237   3.187   6.756   3.771
 5731SOL     OW17238   2.153   5.634   3.910
 5731SOL    HW117239   2.206   5.706   3.864
 5731SOL    HW217240   2.215   5.569   3.953
 5732SOL     OW17241   2.808   5.836   4.181
 5732SOL    HW117242   2.775   5.878   4.096
 5732SOL    HW217243   2.906   5.850   4.190
 5733SOL     OW17244   2.942   6.269   5.181
 5733SOL    HW117245   2.866   6.203   5.186
 5733SOL    HW217246   3.028   6.219   5.176
 5734SOL     OW17247   3.131   0.147   4.465
 5734SOL    HW117248   3.099   0.231   4.422
 5734SOL    HW217249   3.143   0.163   4.563
 5735SOL     OW17250   2.328   6.715   4.459
 5735SOL    HW117251   2.257   6.706   4.529
 5735SOL    HW217252   2.287   6.712   4.368
 5736SOL     OW17253   2.883   6.123   3.753
 5736SOL    HW117254   2.838   6.209   3.729
 5736SOL    HW217255   2.952   6.139   3.823
 5737SOL     OW17256   1.948   6.144   5.115
 5737SOL    HW117257   2.042   6.139   5.083
 5737SOL    HW217258   1.940   6.215   5.184
 5738SOL     OW17259   2.420   5.810   4.895
 5738SOL    HW117260   2.470   5.733   4.937
 5738SOL    HW217261   2.325   5.808   4.925
 5739SOL     OW17262   2.727   6.044   4.361
 5739SOL    HW117263   2.680   6.106   4.299
 5739SOL    HW217264   2.755   5.962   4.311
 5740SOL     OW17265   2.879   5.638   4.470
 5740SOL    HW117266   2.818   5.639   4.391
 5740SOL    HW217267   2.854   5.562   4.531
 5741SOL     OW17268   3.302   6.734   4.582
 5741SOL    HW117269   3.226   6.669   4.583
 5741SOL    HW217270   3.332   6.748   4.488
 5742SOL     OW17271   3.330   6.192   4.695
 5742SOL    HW117272   3.269   6.113   4.695
 5742SOL    HW217273   3.391   6.186   4.774
 5743SOL     OW17274   3.705   6.392   4.104
 5743SOL    HW117275   3.763   6.344   4.171
 5743SOL    HW217276   3.676   6.327   4.033
 5744SOL     OW17277   3.541   6.832   4.372
 5744SOL    HW117278   3.639   6.842   4.389
 5744SOL    HW217279   3.494   6.918   4.393
 5745SOL     OW17280   3.252   6.160   3.795
 5745SOL    HW117281   3.190   6.138   3.870
 5745SOL    HW217282   3.345   6.133   3.821
 5746SOL     OW17283   2.390   5.850   4.035
 5746SOL    HW117284   2.437   5.797   3.964
 5746SOL    HW217285   2.362   5.938   3.997
 5747SOL     OW17286   3.616   6.814   5.292
 5747SOL    HW117287   3.701   6.764   5.311
 5747SOL    HW217288   3.632   6.912   5.303
 5748SOL     OW17289   2.938   6.895   5.051
 5748SOL    HW117290   2.858   6.879   5.110
 5748SOL    HW217291   3.021   6.878   5.103
 5749SOL     OW17292   2.998   6.762   4.825
 5749SOL    HW117293   2.965   6.811   4.906
 5749SOL    HW217294   2.942   6.787   4.746
 5750SOL     OW17295   3.485   6.682   4.806
 5750SOL    HW117296   3.474   6.738   4.888
 5750SOL    HW217297   3.409   6.698   4.744
 5751SOL     OW17298   2.785   5.680   5.116
 5751SOL    HW117299   2.806   5.658   5.021
 5751SOL    HW217300   2.864   5.724   5.159
 5752SOL     OW17301   2.830   6.696   5.462
 5752SOL    HW117302   2.733   6.710   5.478
 5752SOL    HW217303   2.843   6.622   5.396
 5753SOL     OW17304   2.570   6.638   4.093
 5753SOL    HW117305   2.556   6.629   4.191
 5753SOL    HW217306   2.652   6.587   4.066
 5754SOL     OW17307   2.283   6.400   4.978
 5754SOL    HW117308   2.355   6.413   5.046
 5754SOL    HW217309   2.244   6.309   4.989
 5755SOL     OW17310   3.125   5.962   5.004
 5755SOL    HW117311   3.161   6.041   5.052
 5755SOL    HW217312   3.029   5.980   4.979
 5756SOL     OW17313   2.204   6.702   4.215
 5756SOL    HW117314   2.244   6.782   4.170
 5756SOL    HW217315   2.198   6.626   4.151
 5757SOL     OW17316   2.411   6.130   4.586
 5757SOL    HW117317   2.425   6.189   4.507
 5757SOL    HW217318   2.480   6.150   4.655
 5758SOL     OW17319   3.439   6.208   4.205
 5758SOL    HW117320   3.390   6.255   4.278
 5758SOL    HW217321   3.491   6.274   4.151
 5759SOL     OW17322   2.278   6.330   5.325
 5759SOL    HW117323   2.343   6.375   5.265
 5759SOL    HW217324   2.311   6.238   5.347
 5760SOL     OW17325   3.469   6.370   5.408
 5760SOL    HW117326   3.377   6.410   5.405
 5760SOL    HW217327   3.525   6.411   5.337
 5761SOL     OW17328   2.859   5.719   5.474
 5761SOL    HW117329   2.917   5.798   5.458
 5761SOL    HW217330   2.908   5.636   5.448
 5762SOL     OW17331   2.354   5.623   5.474
 5762SOL    HW117332   2.310   5.564   5.406
 5762SOL    HW217333   2.297   5.702   5.492
 5763SOL     OW17334   2.445   6.452   4.760
 5763SOL    HW117335   2.471   6.548   4.748
 5763SOL    HW217336   2.384   6.443   4.838
 5764SOL     OW17337   3.220   6.440   4.751
 5764SOL    HW117338   3.128   6.438   4.710
 5764SOL    HW217339   3.264   6.351   4.739
 5765SOL     OW17340   3.060   6.113   3.989
 5765SOL    HW117341   3.073   6.030   4.043
 5765SOL    HW217342   3.015   6.183   4.045
 5766SOL     OW17343   2.159   5.783   4.971
 5766SOL    HW117344   2.123   5.819   5.056
 5766SOL    HW217345   2.144   5.684   4.967
 5767SOL     OW17346   1.921   6.898   5.007
 5767SOL    HW117347   1.955   6.841   5.082
 5767SOL    HW217348   1.924   6.994   5.034
 5768SOL     OW17349   2.588   6.216   4.780
 5768SOL    HW117350   2.664   6.196   4.718
 5768SOL    HW217351   2.552   6.307   4.761
 5769SOL     OW17352   3.596   6.547   5.577
 5769SOL    HW117353   3.553   6.477   5.520
 5769SOL    HW217354   3.540   6.563   5.658
 5770SOL     OW17355   2.168   5.647   4.352
 5770SOL    HW117356   2.144   5.743   4.370
 5770SOL    HW217357   2.179   5.599   4.438
 5771SOL     OW17358   3.488   5.966   4.087
 5771SOL    HW117359   3.514   5.893   4.150
 5771SOL    HW217360   3.459   6.047   4.139
 5772SOL     OW17361   2.886   6.340   4.682
 5772SOL    HW117362   2.882   6.362   4.780
 5772SOL    HW217363   2.859   6.244   4.669
 5773SOL     OW17364   3.717   0.066   5.324
 5773SOL    HW117365   3.753   0.141   5.269
 5773SOL    HW217366   3.772   0.056   5.407
 5774SOL     OW17367   2.217   6.507   5.526
 5774SOL    HW117368   2.293   6.518   5.590
 5774SOL    HW217369   2.241   6.439   5.456
 5775SOL     OW17370   3.389   5.855   3.854
 5775SOL    HW117371   3.320   5.787   3.879
 5775SOL    HW217372   3.426   5.897   3.937
 5776SOL     OW17373   3.150   6.410   3.748
 5776SOL    HW117374   3.192   6.320   3.758
 5776SOL    HW217375   3.182   6.451   3.662
 5777SOL     OW17376   2.172   6.392   4.666
 5777SOL    HW117377   2.268   6.417   4.657
 5777SOL    HW217378   2.164   6.298   4.700
 5778SOL     OW17379   2.190   6.113   4.736
 5778SOL    HW117380   2.151   6.021   4.724
 5778SOL    HW217381   2.271   6.123   4.677
 5779SOL     OW17382   2.996   5.959   5.416
 5779SOL    HW117383   2.943   6.016   5.478
 5779SOL    HW217384   3.088   5.996   5.407
 5780SOL     OW17385   3.024   5.789   5.199
 5780SOL    HW117386   3.009   5.852   5.276
 5780SOL    HW217387   3.066   5.839   5.123
 5781SOL     OW17388   1.884   6.895   3.906
 5781SOL    HW117389   1.796   6.923   3.868
 5781SOL    HW217390   1.874   6.807   3.952
 5782SOL     OW17391   2.838   6.378   4.949
 5782SOL    HW117392   2.898   6.354   5.025
 5782SOL    HW217393   2.749   6.333   4.961
 5783SOL     OW17394   1.899   6.137   4.841
 5783SOL    HW117395   1.981   6.124   4.786
 5783SOL    HW217396   1.924   6.140   4.938
 5784SOL     OW17397   2.054   6.108   5.454
 5784SOL    HW117398   2.106   6.055   5.387
 5784SOL    HW217399   2.014   6.188   5.408
 5785SOL     OW17400   3.241   6.523   5.379
 5785SOL    HW117401   3.271   6.619   5.378
 5785SOL    HW217402   3.238   6.489   5.285
 5786SOL     OW17403   2.680   6.158   4.084
 5786SOL    HW117404   2.688   6.078   4.024
 5786SOL    HW217405   2.601   6.213   4.055
 5787SOL     OW17406   3.505   6.188   4.906
 5787SOL    HW117407   3.488   6.128   4.984
 5787SOL    HW217408   3.596   6.171   4.869
 5788SOL     OW17409   2.568   6.033   4.978
 5788SOL    HW117410   2.511   5.955   4.953
 5788SOL    HW217411   2.566   6.101   4.905
 5789SOL     OW17412   2.321   6.081   3.910
 5789SOL    HW117413   2.386   6.153   3.935
 5789SOL    HW217414   2.231   6.121   3.896
 5790SOL     OW17415   2.029   6.728   5.200
 5790SOL    HW117416   2.018   6.679   5.287
 5790SOL    HW217417   2.040   6.662   5.126
 5791SOL     OW17418   3.192   6.624   4.948
 5791SOL    HW117419   3.221   6.556   4.880
 5791SOL    HW217420   3.118   6.680   4.909
 5792SOL     OW17421   3.178   6.447   4.021
 5792SOL    HW117422   3.105   6.416   4.083
 5792SOL    HW217423   3.150   6.430   3.926
 5793SOL     OW17424   1.945   6.858   4.738
 5793SOL    HW117425   1.930   6.867   4.837
 5793SOL    HW217426   1.874   6.799   4.699
 5794SOL     OW17427   3.581   5.735   4.223
 5794SOL    HW117428   3.657   5.725   4.159
 5794SOL    HW217429   3.564   5.647   4.269
 5795SOL     OW17430   3.144   6.508   4.393
 5795SOL    HW117431   3.218   6.443   4.409
 5795SOL    HW217432   3.179   6.586   4.341
 5796SOL     OW17433   2.678   6.844   5.144
 5796SOL    HW117434   2.653   6.886   5.230
 5796SOL    HW217435   2.606   6.859   5.077
 5797SOL     OW17436   3.704   5.756   4.688
 5797SOL    HW117437   3.738   5.665   4.665
 5797SOL    HW217438   3.613   5.768   4.648
 5798SOL     OW17439   2.118   5.900   4.440
 5798SOL    HW117440   2.029   5.937   4.412
 5798SOL    HW217441   2.121   5.892   4.539
 5799SOL     OW17442   3.109   0.212   3.734
 5799SOL    HW117443   3.112   0.146   3.809
 5799SOL    HW217444   3.017   0.212   3.695
 5800SOL     OW17445   2.688   6.582   5.094
 5800SOL    HW117446   2.745   6.560   5.015
 5800SOL    HW217447   2.692   6.680   5.112
 5801SOL     OW17448   2.782   6.495   4.004
 5801SOL    HW117449   2.848   6.536   3.941
 5801SOL    HW217450   2.828   6.425   4.060
 5802SOL     OW17451   2.254   6.892   5.227
 5802SOL    HW117452   2.221   6.982   5.198
 5802SOL    HW217453   2.178   6.827   5.228
 5803SOL     OW17454   3.466   6.846   5.037
 5803SOL    HW117455   3.542   6.835   5.101
 5803SOL    HW217456   3.398   6.908   5.076
 5804SOL     OW17457   2.923   6.695   4.449
 5804SOL    HW117458   2.843   6.645   4.484
 5804SOL    HW217459   2.989   6.629   4.412
 5805SOL     OW17460   2.884   5.825   4.691
 5805SOL    HW117461   2.880   5.781   4.601
 5805SOL    HW217462   2.882   5.755   4.763
 5806SOL     OW17463   3.593   5.980   5.105
 5806SOL    HW117464   3.665   6.049   5.105
 5806SOL    HW217465   3.618   5.905   5.044
 5807SOL     OW17466   1.971   6.608   5.440
 5807SOL    HW117467   1.891   6.587   5.497
 5807SOL    HW217468   2.054   6.574   5.484
 5808SOL     OW17469   2.545   5.780   5.224
 5808SOL    HW117470   2.631   5.756   5.179
 5808SOL    HW217471   2.563   5.814   5.316
 5809SOL     OW17472   1.943   5.915   3.754
 5809SOL    HW117473   1.851   5.891   3.723
 5809SOL    HW217474   1.975   5.996   3.704
 5810SOL     OW17475   3.289   6.438   5.123
 5810SOL    HW117476   3.235   6.503   5.068
 5810SOL    HW217477   3.383   6.439   5.091
 5811SOL     OW17478   1.926   5.741   4.028
 5811SOL    HW117479   1.909   5.826   3.977
 5811SOL    HW217480   2.014   5.703   4.000
 5812SOL     OW17481   2.484   6.414   5.158
 5812SOL    HW117482   2.543   6.492   5.138
 5812SOL    HW217483   2.540   6.331   5.168
 5813SOL     OW17484   2.584   6.145   5.427
 5813SOL    HW117485   2.629   6.212   5.487
 5813SOL    HW217486   2.604   6.052   5.460
 5814SOL     OW17487   3.347   6.779   5.370
 5814SOL    HW117488   3.334   6.798   5.467
 5814SOL    HW217489   3.443   6.793   5.346
 5815SOL     OW17490   3.530   6.462   4.978
 5815SOL    HW117491   3.523   6.371   4.937
 5815SOL    HW217492   3.517   6.531   4.907
 5816SOL     OW17493   3.081   5.903   4.183
 5816SOL    HW117494   3.145   5.826   4.173
 5816SOL    HW217495   3.108   5.958   4.263
 5817SOL     OW17496   2.448   6.323   4.393
 5817SOL    HW117497   2.490   6.414   4.383
 5817SOL    HW217498   2.379   6.310   4.322
 5818SOL     OW17499   3.614   5.950   5.376
 5818SOL    HW117500   3.604   5.967   5.278
 5818SOL    HW217501   3.540   5.891   5.408
 5819SOL     OW17502   3.606   6.519   5.231
 5819SOL    HW117503   3.599   6.617   5.249
 5819SOL    HW217504   3.591   6.502   5.134
 5820SOL     OW17505   2.729   6.551   4.582
 5820SOL    HW117506   2.783   6.473   4.616
 5820SOL    HW217507   2.698   6.606   4.660
 5821SOL     OW17508   2.954   6.586   3.815
 5821SOL    HW117509   2.914   6.633   3.736
 5821SOL    HW217510   3.021   6.519   3.783
 5822SOL     OW17511   2.074   6.906   5.537
 5822SOL    HW117512   2.015   6.826   5.547
 5822SOL    HW217513   2.086   6.950   5.626
 5823SOL     OW17514   1.952   6.820   4.398
 5823SOL    HW117515   1.972   6.758   4.474
 5823SOL    HW217516   2.016   6.802   4.323
 5824SOL     OW17517   2.567   6.970   5.356
 5824SOL    HW117518   2.470   6.959   5.374
 5824SOL    HW217519   2.587   0.066   5.337
 5825SOL     OW17520   3.667   5.769   4.958
 5825SOL    HW117521   3.683   5.673   4.982
 5825SOL    HW217522   3.679   5.781   4.860
 5826SOL     OW17523   2.292   6.014   4.251
 5826SOL    HW117524   2.326   5.944   4.188
 5826SOL    HW217525   2.238   5.971   4.323
 5827SOL     OW17526   3.508   0.043   4.861
 5827SOL    HW117527   3.460   0.027   4.774
 5827SOL    HW217528   3.504   6.961   4.917
 5828SOL     OW17529   2.196   6.142   5.013
 5828SOL    HW117530   2.253   6.085   5.073
 5828SOL    HW217531   2.212   6.116   4.918
 5829SOL     OW17532   3.293   5.816   4.841
 5829SOL    HW117533   3.317   5.727   4.880
 5829SOL    HW217534   3.238   5.868   4.908
 5830SOL     OW17535   2.872   5.602   4.862
 5830SOL    HW117536   2.808   5.539   4.819
 5830SOL    HW217537   2.963   5.562   4.864
 5831SOL     OW17538   2.621   6.908   3.992
 5831SOL    HW117539   2.599   6.812   4.011
 5831SOL    HW217540   2.659   6.951   4.074
 5832SOL     OW17541   3.215   5.637   3.893
 5832SOL    HW117542   3.257   5.570   3.832
 5832SOL    HW217543   3.123   5.607   3.916
 5833SOL     OW17544   3.153   6.049   4.404
 5833SOL    HW117545   3.100   6.134   4.407
 5833SOL    HW217546   3.151   6.007   4.495
 5834SOL     OW17547   3.448   5.790   4.607
 5834SOL    HW117548   3.390   5.809   4.686
 5834SOL    HW217549   3.450   5.870   4.547
 5835SOL     OW17550   1.898   6.647   4.034
 5835SOL    HW117551   1.996   6.653   4.013
 5835SOL    HW217552   1.875   6.552   4.057
 5836SOL     OW17553   2.084   6.206   5.712
 5836SOL    HW117554   1.993   6.205   5.753
 5836SOL    HW217555   2.078   6.182   5.615
 5837SOL     OW17556   2.082   5.873   6.582
 5837SOL    HW117557   2.118   5.834   6.667
 5837SOL    HW217558   1.991   5.837   6.565
 5838SOL     OW17559   1.863   5.971   6.221
 5838SOL    HW117560   1.778   6.003   6.265
 5838SOL    HW217561   1.844   5.888   6.169
 5839SOL     OW17562   2.424   6.878   6.769
 5839SOL    HW117563   2.357   6.889   6.696
 5839SOL    HW217564   2.377   6.877   6.858
 5840SOL     OW17565   3.403   0.056   6.275
 5840SOL    HW117566   3.379   0.050   6.372
 5840SOL    HW217567   3.325   0.092   6.223
 5841SOL     OW17568   2.992   6.286   6.282
 5841SOL    HW117569   3.045   6.370   6.266
 5841SOL    HW217570   2.942   6.295   6.368
 5842SOL     OW17571   3.632   6.184   5.808
 5842SOL    HW117572   3.608   6.180   5.711
 5842SOL    HW217573   3.593   6.105   5.856
 5843SOL     OW17574   2.618   6.740   6.615
 5843SOL    HW117575   2.554   6.783   6.679
 5843SOL    HW217576   2.631   6.800   6.536
 5844SOL     OW17577   2.548   6.584   6.234
 5844SOL    HW117578   2.618   6.573   6.304
 5844SOL    HW217579   2.472   6.639   6.271
 5845SOL     OW17580   2.198   0.013   6.641
 5845SOL    HW117581   2.119   6.964   6.604
 5845SOL    HW217582   2.243   0.064   6.568
 5846SOL     OW17583   3.473   6.034   6.329
 5846SOL    HW117584   3.397   6.051   6.267
 5846SOL    HW217585   3.479   6.108   6.396
 5847SOL     OW17586   2.123   6.677   6.492
 5847SOL    HW117587   2.119   6.582   6.525
 5847SOL    HW217588   2.061   6.733   6.547
 5848SOL     OW17589   2.442   6.565   5.728
 5848SOL    HW117590   2.487   6.616   5.654
 5848SOL    HW217591   2.482   6.591   5.816
 5849SOL     OW17592   1.977   6.244   6.151
 5849SOL    HW117593   1.946   6.151   6.168
 5849SOL    HW217594   1.970   6.298   6.235
 5850SOL     OW17595   3.551   6.503   6.227
 5850SOL    HW117596   3.638   6.456   6.211
 5850SOL    HW217597   3.528   6.559   6.148
 5851SOL     OW17598   3.514   6.692   6.011
 5851SOL    HW117599   3.603   6.687   5.966
 5851SOL    HW217600   3.521   6.752   6.092
 5852SOL     OW17601   2.679   5.594   6.094
 5852SOL    HW117602   2.725   5.680   6.072
 5852SOL    HW217603   2.580   5.610   6.102
 5853SOL     OW17604   2.054   6.556   6.837
 5853SOL    HW117605   2.136   6.501   6.825
 5853SOL    HW217606   1.974   6.502   6.812
 5854SOL     OW17607   3.397   6.587   5.787
 5854SOL    HW117608   3.324   6.526   5.816
 5854SOL    HW217609   3.445   6.622   5.868
 5855SOL     OW17610   3.317   6.995   6.529
 5855SOL    HW117611   3.256   0.020   6.605
 5855SOL    HW217612   3.300   6.899   6.504
 5856SOL     OW17613   2.457   6.303   5.859
 5856SOL    HW117614   2.462   6.388   5.807
 5856SOL    HW217615   2.388   6.313   5.931
 5857SOL     OW17616   3.137   5.941   6.518
 5857SOL    HW117617   3.043   5.908   6.525
 5857SOL    HW217618   3.195   5.891   6.582
 5858SOL     OW17619   2.658   6.187   0.049
 5858SOL    HW117620   2.597   6.235   0.112
 5858SOL    HW217621   2.604   6.136   6.982
 5859SOL     OW17622   2.865   5.976   6.798
 5859SOL    HW117623   2.803   6.034   6.850
 5859SOL    HW217624   2.817   5.934   6.722
 5860SOL     OW17625   2.912   6.285   6.011
 5860SOL    HW117626   2.933   6.281   6.108
 5860SOL    HW217627   2.826   6.237   5.993
 5861SOL     OW17628   1.950   6.410   6.366
 5861SOL    HW117629   2.036   6.401   6.417
 5861SOL    HW217630   1.899   6.489   6.401
 5862SOL     OW17631   2.758   5.938   5.782
 5862SOL    HW117632   2.797   6.006   5.720
 5862SOL    HW217633   2.769   5.847   5.743
 5863SOL     OW17634   3.248   6.722   6.132
 5863SOL    HW117635   3.328   6.715   6.073
 5863SOL    HW217636   3.195   6.803   6.108
 5864SOL     OW17637   2.408   5.759   6.484
 5864SOL    HW117638   2.414   5.791   6.579
 5864SOL    HW217639   2.413   5.838   6.423
 5865SOL     OW17640   3.666   6.639   6.452
 5865SOL    HW117641   3.614   6.626   6.368
 5865SOL    HW217642   3.604   6.639   6.530
 5866SOL     OW17643   2.185   6.545   5.843
 5866SOL    HW117644   2.273   6.562   5.799
 5866SOL    HW217645   2.146   6.460   5.808
 5867SOL     OW17646   3.346   6.332   6.308
 5867SOL    HW117647   3.339   6.288   6.397
 5867SOL    HW217648   3.425   6.393   6.306
 5868SOL     OW17649   3.502   6.969   5.670
 5868SOL    HW117650   3.469   0.062   5.688
 5868SOL    HW217651   3.424   6.907   5.657
 5869SOL     OW17652   3.263   5.690   6.022
 5869SOL    HW117653   3.251   5.665   5.926
 5869SOL    HW217654   3.361   5.699   6.042
 5870SOL     OW17655   2.257   6.274   6.060
 5870SOL    HW117656   2.277   6.177   6.074
 5870SOL    HW217657   2.160   6.291   6.079
 5871SOL     OW17658   2.501   5.704   5.688
 5871SOL    HW117659   2.572   5.635   5.709
 5871SOL    HW217660   2.446   5.672   5.612
 5872SOL     OW17661   2.789   6.092   6.485
 5872SOL    HW117662   2.762   6.086   6.389
 5872SOL    HW217663   2.826   6.004   6.515
 5873SOL     OW17664   2.409   5.650   6.081
 5873SOL    HW117665   2.327   5.648   6.138
 5873SOL    HW217666   2.406   5.731   6.022
 5874SOL     OW17667   3.281   6.788   5.645
 5874SOL    HW117668   3.335   6.717   5.691
 5874SOL    HW217669   3.187   6.756   5.633
 5875SOL     OW17670   2.153   5.634   5.772
 5875SOL    HW117671   2.205   5.706   5.725
 5875SOL    HW217672   2.215   5.569   5.815
 5876SOL     OW17673   2.807   5.836   6.043
 5876SOL    HW117674   2.776   5.878   5.958
 5876SOL    HW217675   2.906   5.850   6.052
 5877SOL     OW17676   3.132   0.147   6.323
 5877SOL    HW117677   3.096   0.232   6.285
 5877SOL    HW217678   3.139   0.156   6.423
 5878SOL     OW17679   2.327   6.714   6.322
 5878SOL    HW117680   2.257   6.706   6.392
 5878SOL    HW217681   2.285   6.712   6.231
 5879SOL     OW17682   2.883   6.123   5.615
 5879SOL    HW117683   2.838   6.209   5.591
 5879SOL    HW217684   2.952   6.139   5.685
 5880SOL     OW17685   2.423   5.807   6.756
 5880SOL    HW117686   2.470   5.724   6.787
 5880SOL    HW217687   2.328   5.805   6.787
 5881SOL     OW17688   2.726   6.044   6.223
 5881SOL    HW117689   2.680   6.106   6.160
 5881SOL    HW217690   2.755   5.962   6.174
 5882SOL     OW17691   2.880   5.635   6.329
 5882SOL    HW117692   2.818   5.635   6.250
 5882SOL    HW217693   2.854   5.560   6.390
 5883SOL     OW17694   3.298   6.736   6.443
 5883SOL    HW117695   3.224   6.668   6.445
 5883SOL    HW217696   3.328   6.750   6.349
 5884SOL     OW17697   3.328   6.189   6.552
 5884SOL    HW117698   3.266   6.111   6.557
 5884SOL    HW217699   3.391   6.187   6.629
 5885SOL     OW17700   3.705   6.391   5.966
 5885SOL    HW117701   3.763   6.344   6.032
 5885SOL    HW217702   3.676   6.327   5.895
 5886SOL     OW17703   3.542   6.834   6.232
 5886SOL    HW117704   3.640   6.845   6.250
 5886SOL    HW217705   3.494   6.919   6.253
 5887SOL     OW17706   3.252   6.160   5.657
 5887SOL    HW117707   3.190   6.138   5.732
 5887SOL    HW217708   3.345   6.133   5.683
 5888SOL     OW17709   2.390   5.850   5.897
 5888SOL    HW117710   2.437   5.797   5.826
 5888SOL    HW217711   2.362   5.938   5.859
 5889SOL     OW17712   3.604   6.787   0.182
 5889SOL    HW117713   3.696   6.761   0.212
 5889SOL    HW217714   3.604   6.882   0.151
 5890SOL     OW17715   2.929   6.901   6.929
 5890SOL    HW117716   2.838   6.881   6.965
 5890SOL    HW217717   2.995   6.900   0.004
 5891SOL     OW17718   2.992   6.761   6.702
 5891SOL    HW117719   2.964   6.818   6.778
 5891SOL    HW217720   2.955   6.798   6.616
 5892SOL     OW17721   3.484   6.663   6.647
 5892SOL    HW117722   3.482   6.726   6.725
 5892SOL    HW217723   3.407   6.683   6.587
 5893SOL     OW17724   2.570   6.638   5.955
 5893SOL    HW117725   2.556   6.629   6.053
 5893SOL    HW217726   2.652   6.587   5.928
 5894SOL     OW17727   2.286   6.399   6.847
 5894SOL    HW117728   2.347   6.422   6.923
 5894SOL    HW217729   2.251   6.306   6.859
 5895SOL     OW17730   3.130   5.973   6.856
 5895SOL    HW117731   3.158   6.048   6.916
 5895SOL    HW217732   3.035   5.986   6.828
 5896SOL     OW17733   2.202   6.702   6.077
 5896SOL    HW117734   2.244   6.782   6.033
 5896SOL    HW217735   2.198   6.626   6.013
 5897SOL     OW17736   2.409   6.132   6.449
 5897SOL    HW117737   2.423   6.190   6.369
 5897SOL    HW217738   2.481   6.150   6.516
 5898SOL     OW17739   3.439   6.208   6.067
 5898SOL    HW117740   3.391   6.254   6.141
 5898SOL    HW217741   3.490   6.275   6.013
 5899SOL     OW17742   2.448   6.453   6.623
 5899SOL    HW117743   2.477   6.548   6.609
 5899SOL    HW217744   2.386   6.448   6.701
 5900SOL     OW17745   3.215   6.437   6.605
 5900SOL    HW117746   3.124   6.432   6.564
 5900SOL    HW217747   3.262   6.349   6.594
 5901SOL     OW17748   3.060   6.113   5.851
 5901SOL    HW117749   3.073   6.030   5.906
 5901SOL    HW217750   3.015   6.183   5.907
 5902SOL     OW17751   2.163   5.784   6.835
 5902SOL    HW117752   2.123   5.817   6.920
 5902SOL    HW217753   2.148   5.685   6.827
 5903SOL     OW17754   1.910   6.900   6.877
 5903SOL    HW117755   1.954   6.837   6.941
 5903SOL    HW217756   1.939   6.994   6.898
 5904SOL     OW17757   2.587   6.212   6.642
 5904SOL    HW117758   2.665   6.192   6.583
 5904SOL    HW217759   2.555   6.305   6.625
 5905SOL     OW17760   2.168   5.648   6.213
 5905SOL    HW117761   2.143   5.743   6.231
 5905SOL    HW217762   2.178   5.599   6.300
 5906SOL     OW17763   3.488   5.966   5.948
 5906SOL    HW117764   3.514   5.893   6.012
 5906SOL    HW217765   3.459   6.047   6.000
 5907SOL     OW17766   2.884   6.340   6.550
 5907SOL    HW117767   2.884   6.361   6.648
 5907SOL    HW217768   2.859   6.245   6.535
 5908SOL     OW17769   3.389   5.855   5.716
 5908SOL    HW117770   3.320   5.787   5.741
 5908SOL    HW217771   3.426   5.897   5.799
 5909SOL     OW17772   3.150   6.410   5.609
 5909SOL    HW117773   3.191   6.320   5.620
 5909SOL    HW217774   3.182   6.451   5.524
 5910SOL     OW17775   2.173   6.391   6.529
 5910SOL    HW117776   2.269   6.417   6.517
 5910SOL    HW217777   2.168   6.296   6.560
 5911SOL     OW17778   2.193   6.114   6.604
 5911SOL    HW117779   2.153   6.024   6.590
 5911SOL    HW217780   2.273   6.125   6.545
 5912SOL     OW17781   3.001   5.825   0.054
 5912SOL    HW117782   3.067   5.844   0.127
 5912SOL    HW217783   3.037   5.861   6.967
 5913SOL     OW17784   1.884   6.895   5.768
 5913SOL    HW117785   1.796   6.923   5.730
 5913SOL    HW217786   1.874   6.807   5.814
 5914SOL     OW17787   2.852   6.376   6.825
 5914SOL    HW117788   2.924   6.336   6.882
 5914SOL    HW217789   2.762   6.346   6.859
 5915SOL     OW17790   1.913   6.141   6.713
 5915SOL    HW117791   1.967   6.107   6.637
 5915SOL    HW217792   1.973   6.177   6.784
 5916SOL     OW17793   2.680   6.157   5.946
 5916SOL    HW117794   2.689   6.078   5.886
 5916SOL    HW217795   2.601   6.213   5.917
 5917SOL     OW17796   3.509   6.194   6.753
 5917SOL    HW117797   3.494   6.136   6.833
 5917SOL    HW217798   3.604   6.184   6.722
 5918SOL     OW17799   2.534   6.049   6.850
 5918SOL    HW117800   2.498   5.961   6.818
 5918SOL    HW217801   2.550   6.109   6.772
 5919SOL     OW17802   2.321   6.081   5.772
 5919SOL    HW117803   2.386   6.153   5.797
 5919SOL    HW217804   2.230   6.121   5.758
 5920SOL     OW17805   2.037   6.724   0.043
 5920SOL    HW117806   2.017   6.673   0.127
 5920SOL    HW217807   2.040   6.660   6.966
 5921SOL     OW17808   3.177   6.601   6.819
 5921SOL    HW117809   3.212   6.541   6.748
 5921SOL    HW217810   3.109   6.663   6.780
 5922SOL     OW17811   3.178   6.447   5.883
 5922SOL    HW117812   3.105   6.416   5.945
 5922SOL    HW217813   3.150   6.430   5.788
 5923SOL     OW17814   1.944   6.859   6.605
 5923SOL    HW117815   1.926   6.868   6.703
 5923SOL    HW217816   1.875   6.801   6.563
 5924SOL     OW17817   3.581   5.735   6.085
 5924SOL    HW117818   3.657   5.725   6.021
 5924SOL    HW217819   3.563   5.648   6.131
 5925SOL     OW17820   3.144   6.508   6.255
 5925SOL    HW117821   3.218   6.443   6.271
 5925SOL    HW217822   3.179   6.586   6.203
 5926SOL     OW17823   2.676   6.841   0.017
 5926SOL    HW117824   2.672   6.856   0.116
 5926SOL    HW217825   2.591   6.873   6.975
 5927SOL     OW17826   3.703   5.760   6.556
 5927SOL    HW117827   3.738   5.669   6.533
 5927SOL    HW217828   3.612   5.772   6.517
 5928SOL     OW17829   2.118   5.900   6.301
 5928SOL    HW117830   2.029   5.937   6.273
 5928SOL    HW217831   2.121   5.893   6.401
 5929SOL     OW17832   3.108   0.212   5.596
 5929SOL    HW117833   3.113   0.146   5.671
 5929SOL    HW217834   3.016   0.212   5.557
 5930SOL     OW17835   2.654   6.584   6.940
 5930SOL    HW117836   2.708   6.562   6.859
 5930SOL    HW217837   2.672   6.678   6.968
 5931SOL     OW17838   2.782   6.495   5.866
 5931SOL    HW117839   2.848   6.536   5.803
 5931SOL    HW217840   2.828   6.425   5.922
 5932SOL     OW17841   2.260   6.885   6.997
 5932SOL    HW117842   2.241   6.961   0.059
 5932SOL    HW217843   2.191   6.814   0.009
 5933SOL     OW17844   3.481   6.831   6.855
 5933SOL    HW117845   3.561   6.850   6.911
 5933SOL    HW217846   3.400   6.821   6.914
 5934SOL     OW17847   2.922   6.693   6.309
 5934SOL    HW117848   2.843   6.644   6.345
 5934SOL    HW217849   2.989   6.628   6.274
 5935SOL     OW17850   2.881   5.823   6.542
 5935SOL    HW117851   2.880   5.774   6.455
 5935SOL    HW217852   2.883   5.757   6.618
 5936SOL     OW17853   3.558   6.009   6.947
 5936SOL    HW117854   3.630   6.015   0.016
 5936SOL    HW217855   3.561   5.919   6.903
 5937SOL     OW17856   2.533   5.776   0.081
 5937SOL    HW117857   2.621   5.754   0.040
 5937SOL    HW217858   2.544   5.854   0.143
 5938SOL     OW17859   1.943   5.915   5.616
 5938SOL    HW117860   1.851   5.891   5.585
 5938SOL    HW217861   1.975   5.996   5.566
 5939SOL     OW17862   1.926   5.741   5.890
 5939SOL    HW117863   1.909   5.826   5.839
 5939SOL    HW217864   2.014   5.703   5.862
 5940SOL     OW17865   3.332   6.856   0.318
 5940SOL    HW117866   3.281   6.773   0.340
 5940SOL    HW217867   3.410   6.833   0.260
 5941SOL     OW17868   3.557   6.461   6.828
 5941SOL    HW117869   3.525   6.371   6.801
 5941SOL    HW217870   3.525   6.530   6.763
 5942SOL     OW17871   3.081   5.902   6.045
 5942SOL    HW117872   3.145   5.826   6.035
 5942SOL    HW217873   3.107   5.957   6.125
 5943SOL     OW17874   2.447   6.324   6.255
 5943SOL    HW117875   2.489   6.414   6.245
 5943SOL    HW217876   2.378   6.311   6.184
 5944SOL     OW17877   3.646   6.506   0.083
 5944SOL    HW117878   3.613   6.595   0.113
 5944SOL    HW217879   3.612   6.486   6.991
 5945SOL     OW17880   2.730   6.550   6.444
 5945SOL    HW117881   2.783   6.473   6.480
 5945SOL    HW217882   2.696   6.605   6.521
 5946SOL     OW17883   2.954   6.586   5.676
 5946SOL    HW117884   2.914   6.633   5.598
 5946SOL    HW217885   3.021   6.519   5.645
 5947SOL     OW17886   1.955   6.823   6.260
 5947SOL    HW117887   1.965   6.758   6.335
 5947SOL    HW217888   2.018   6.798   6.186
 5948SOL     OW17889   3.674   5.761   6.835
 5948SOL    HW117890   3.649   5.664   6.837
 5948SOL    HW217891   3.689   5.790   6.741
 5949SOL     OW17892   2.293   6.014   6.113
 5949SOL    HW117893   2.326   5.944   6.050
 5949SOL    HW217894   2.238   5.970   6.185
 5950SOL     OW17895   3.511   0.052   6.713
 5950SOL    HW117896   3.464   0.044   6.625
 5950SOL    HW217897   3.506   6.965   6.762
 5951SOL     OW17898   2.179   6.136   6.878
 5951SOL    HW117899   2.251   6.084   6.925
 5951SOL    HW217900   2.189   6.123   6.779
 5952SOL     OW17901   3.296   5.821   6.703
 5952SOL    HW117902   3.330   5.739   6.749
 5952SOL    HW217903   3.242   5.875   6.767
 5953SOL     OW17904   2.878   5.604   6.714
 5953SOL    HW117905   2.816   5.537   6.673
 5953SOL    HW217906   2.969   5.562   6.724
 5954SOL     OW17907   2.620   6.907   5.853
 5954SOL    HW117908   2.599   6.812   5.873
 5954SOL    HW217909   2.658   6.951   5.935
 5955SOL     OW17910   3.216   5.637   5.755
 5955SOL    HW117911   3.257   5.570   5.694
 5955SOL    HW217912   3.123   5.607   5.778
 5956SOL     OW17913   3.153   6.049   6.266
 5956SOL    HW117914   3.100   6.134   6.269
 5956SOL    HW217915   3.151   6.005   6.356
 5957SOL     OW17916   3.449   5.792   6.470
 5957SOL    HW117917   3.387   5.810   6.547
 5957SOL    HW217918   3.450   5.871   6.409
 5958SOL     OW17919   1.898   6.647   5.896
 5958SOL    HW117920   1.996   6.653   5.875
 5958SOL    HW217921   1.875   6.552   5.919
 5959SOL     OW17922   3.945   0.644   0.136
 5959SOL    HW117923   3.851   0.623   0.163
 5959SOL    HW217924   3.957   0.623   0.039
 5960SOL     OW17925   3.947   0.302   0.996
 5960SOL    HW117926   3.986   0.264   1.080
 5960SOL    HW217927   3.864   0.251   0.973
 5961SOL     OW17928   3.729   0.390   0.630
 5961SOL    HW117929   3.643   0.416   0.675
 5961SOL    HW217930   3.713   0.313   0.568
 5962SOL     OW17931   4.293   1.296   1.184
 5962SOL    HW117932   4.202   1.292   1.141
 5962SOL    HW217933   4.310   1.388   1.218
 5963SOL     OW17934   5.287   1.513   0.708
 5963SOL    HW117935   5.245   1.488   0.796
 5963SOL    HW217936   5.217   1.516   0.637
 5964SOL     OW17937   4.857   0.700   0.696
 5964SOL    HW117938   4.910   0.784   0.680
 5964SOL    HW217939   4.805   0.709   0.781
 5965SOL     OW17940   5.508   0.583   0.202
 5965SOL    HW117941   5.442   0.633   0.146
 5965SOL    HW217942   5.459   0.515   0.258
 5966SOL     OW17943   4.469   1.141   1.041
 5966SOL    HW117944   4.401   1.176   1.105
 5966SOL    HW217945   4.513   1.218   0.994
 5967SOL     OW17946   4.595   0.767   1.820
 5967SOL    HW117947   4.584   0.835   1.892
 5967SOL    HW217948   4.621   0.812   1.735
 5968SOL     OW17949   4.407   0.998   0.650
 5968SOL    HW117950   4.478   0.988   0.720
 5968SOL    HW217951   4.333   1.055   0.686
 5969SOL     OW17952   4.435   1.153   1.817
 5969SOL    HW117953   4.487   1.232   1.850
 5969SOL    HW217954   4.350   1.185   1.776
 5970SOL     OW17955   4.050   1.424   1.066
 5970SOL    HW117956   3.974   1.379   1.019
 5970SOL    HW217957   4.104   1.476   0.999
 5971SOL     OW17958   5.182   1.501   1.357
 5971SOL    HW117959   5.239   1.583   1.364
 5971SOL    HW217960   5.112   1.503   1.429
 5972SOL     OW17961   4.167   0.398   1.484
 5972SOL    HW117962   4.253   0.347   1.489
 5972SOL    HW217963   4.091   0.335   1.489
 5973SOL     OW17964   5.339   0.460   0.732
 5973SOL    HW117965   5.275   0.487   0.660
 5973SOL    HW217966   5.350   0.534   0.797
 5974SOL     OW17967   3.944   1.723   0.470
 5974SOL    HW117968   3.962   1.802   0.529
 5974SOL    HW217969   4.029   1.695   0.425
 5975SOL     OW17970   4.861   1.340   1.698
 5975SOL    HW117971   4.908   1.338   1.786
 5975SOL    HW217972   4.805   1.258   1.688
 5976SOL     OW17973   3.938   1.448   0.533
 5976SOL    HW117974   3.926   1.546   0.543
 5976SOL    HW217975   3.888   1.400   0.605
 5977SOL     OW17976   3.992   1.090   0.900
 5977SOL    HW117977   3.987   0.996   0.933
 5977SOL    HW217978   3.929   1.147   0.953
 5978SOL     OW17979   4.324   1.796   1.427
 5978SOL    HW117980   4.241   1.773   1.476
 5978SOL    HW217981   4.355   1.887   1.455
 5979SOL     OW17982   4.311   0.968   0.147
 5979SOL    HW117983   4.368   0.990   0.068
 5979SOL    HW217984   4.347   1.013   0.228
 5980SOL     OW17985   5.303   0.131   1.447
 5980SOL    HW117986   5.314   0.226   1.416
 5980SOL    HW217987   5.325   0.126   1.545
 5981SOL     OW17988   3.839   0.654   0.562
 5981SOL    HW117989   3.811   0.560   0.581
 5981SOL    HW217990   3.833   0.709   0.646
 5982SOL     OW17991   5.560   1.764   0.349
 5982SOL    HW117992   5.631   1.733   0.412
 5982SOL    HW217993   5.566   1.863   0.337
 5983SOL     OW17994   3.739   1.580   0.147
 5983SOL    HW117995   3.668   1.513   0.126
 5983SOL    HW217996   3.716   1.627   0.232
 5984SOL     OW17997   5.415   0.914   0.650
 5984SOL    HW117998   5.499   0.863   0.632
 5984SOL    HW217999   5.393   0.972   0.571
 5985SOL     OW18000   5.379   1.096   0.445
 5985SOL    HW118001   5.449   1.115   0.376
 5985SOL    HW218002   5.384   1.165   0.517
 5986SOL     OW18003   3.846   0.748   1.583
 5986SOL    HW118004   3.942   0.775   1.585
 5986SOL    HW218005   3.788   0.830   1.584
 5987SOL     OW18006   4.336   1.389   0.737
 5987SOL    HW118007   4.289   1.301   0.750
 5987SOL    HW218008   4.326   1.418   0.642
 5988SOL     OW18009   5.013   1.235   1.422
 5988SOL    HW118010   5.040   1.165   1.356
 5988SOL    HW218011   5.073   1.231   1.502
 5989SOL     OW18012   4.545   0.028   0.522
 5989SOL    HW118013   4.586   0.117   0.502
 5989SOL    HW218014   4.446   0.037   0.524
 5990SOL     OW18015   3.914   0.962   1.276
 5990SOL    HW118016   4.003   0.919   1.262
 5990SOL    HW218017   3.845   0.916   1.221
 5991SOL     OW18018   5.216   1.019   0.213
 5991SOL    HW118019   5.149   0.952   0.246
 5991SOL    HW218020   5.303   1.004   0.260
 5992SOL     OW18021   4.906   1.810   1.622
 5992SOL    HW118022   4.914   1.878   1.549
 5992SOL    HW218023   4.926   1.719   1.585
 5993SOL     OW18024   4.043   0.269   1.790
 5993SOL    HW118025   4.107   0.336   1.829
 5993SOL    HW218026   3.957   0.272   1.840
 5994SOL     OW18027   5.188   1.420   0.948
 5994SOL    HW118028   5.121   1.439   1.020
 5994SOL    HW218029   5.180   1.325   0.919
 5995SOL     OW18030   5.368   1.750   0.583
 5995SOL    HW118031   5.350   1.723   0.489
 5995SOL    HW218032   5.350   1.672   0.644
 5996SOL     OW18033   4.321   0.716   0.266
 5996SOL    HW118034   4.327   0.806   0.223
 5996SOL    HW218035   4.256   0.719   0.341
 5997SOL     OW18036   5.007   0.366   0.949
 5997SOL    HW118037   4.910   0.343   0.952
 5997SOL    HW218038   5.056   0.315   1.020
 5998SOL     OW18039   5.300   1.676   0.316
 5998SOL    HW118040   5.395   1.708   0.315
 5998SOL    HW218041   5.266   1.668   0.223
 5999SOL     OW18042   4.517   0.615   1.454
 5999SOL    HW118043   4.490   0.590   1.547
 5999SOL    HW218044   4.478   0.550   1.389
 6000SOL     OW18045   5.118   0.473   1.680
 6000SOL    HW118046   5.116   0.519   1.769
 6000SOL    HW218047   5.175   0.391   1.686
 6001SOL     OW18048   4.677   0.886   1.582
 6001SOL    HW118049   4.736   0.814   1.545
 6001SOL    HW218050   4.623   0.927   1.509
 6002SOL     OW18051   4.719   0.412   1.228
 6002SOL    HW118052   4.633   0.435   1.274
 6002SOL    HW218053   4.699   0.362   1.144
 6003SOL     OW18054   4.776   0.699   0.427
 6003SOL    HW118055   4.799   0.696   0.525
 6003SOL    HW218056   4.689   0.654   0.412
 6004SOL     OW18057   3.814   0.824   0.779
 6004SOL    HW118058   3.899   0.813   0.830
 6004SOL    HW218059   3.764   0.903   0.813
 6005SOL     OW18060   3.852   1.869   1.587
 6005SOL    HW118061   3.857   1.842   1.683
 6005SOL    HW218062   3.766   1.838   1.547
 6006SOL     OW18063   4.609   0.369   0.210
 6006SOL    HW118064   4.653   0.423   0.138
 6006SOL    HW218065   4.595   0.275   0.177
 6007SOL     OW18066   5.426   0.573   1.825
 6007SOL    HW118067   5.389   0.652   1.777
 6007SOL    HW218068   5.454   0.503   1.759
 6008SOL     OW18069   5.106   1.141   0.549
 6008SOL    HW118070   5.189   1.129   0.495
 6008SOL    HW218071   5.046   1.207   0.504
 6009SOL     OW18072   4.230   0.192   0.909
 6009SOL    HW118073   4.268   0.221   0.997
 6009SOL    HW218074   4.255   0.258   0.839
 6010SOL     OW18075   4.717   1.440   0.470
 6010SOL    HW118076   4.684   1.520   0.420
 6010SOL    HW218077   4.699   1.452   0.568
 6011SOL     OW18078   4.080   1.813   0.868
 6011SOL    HW118079   4.124   1.723   0.875
 6011SOL    HW218080   4.147   1.884   0.888
 6012SOL     OW18081   5.523   1.055   0.873
 6012SOL    HW118082   5.473   1.034   0.790
 6012SOL    HW218083   5.460   1.061   0.950
 6013SOL     OW18084   4.950   1.536   1.515
 6013SOL    HW118085   4.937   1.462   1.580
 6013SOL    HW218086   4.884   1.527   1.440
 6014SOL     OW18087   4.039   0.959   0.228
 6014SOL    HW118088   4.132   0.972   0.194
 6014SOL    HW218089   4.009   0.865   0.209
 6015SOL     OW18090   5.207   0.746   0.725
 6015SOL    HW118091   5.202   0.705   0.816
 6015SOL    HW218092   5.287   0.807   0.720
 6016SOL     OW18093   4.192   1.265   1.731
 6016SOL    HW118094   4.166   1.271   1.635
 6016SOL    HW218095   4.110   1.262   1.788
 6017SOL     OW18096   4.843   1.766   0.241
 6017SOL    HW118097   4.771   1.720   0.293
 6017SOL    HW218098   4.881   1.704   0.173
 6018SOL     OW18099   3.916   0.273   1.511
 6018SOL    HW118100   3.857   0.352   1.496
 6018SOL    HW218101   3.938   0.265   1.608
 6019SOL     OW18102   5.370   1.430   0.101
 6019SOL    HW118103   5.323   1.514   0.072
 6019SOL    HW218104   5.306   1.371   0.149
 6020SOL     OW18105   4.208   1.700   0.378
 6020SOL    HW118106   4.237   1.784   0.422
 6020SOL    HW218107   4.266   1.683   0.298
 6021SOL     OW18108   5.149   0.132   0.425
 6021SOL    HW118109   5.134   0.062   0.355
 6021SOL    HW218110   5.247   0.141   0.443
 6022SOL     OW18111   3.982   1.792   1.227
 6022SOL    HW118112   4.034   1.720   1.274
 6022SOL    HW218113   3.964   1.763   1.133
 6023SOL     OW18114   4.660   1.702   0.897
 6023SOL    HW118115   4.743   1.654   0.927
 6023SOL    HW218116   4.617   1.650   0.823
 6024SOL     OW18117   4.121   0.686   0.471
 6024SOL    HW118118   4.141   0.590   0.488
 6024SOL    HW218119   4.024   0.704   0.489
 6025SOL     OW18120   5.254   0.230   1.727
 6025SOL    HW118121   5.268   0.237   1.826
 6025SOL    HW218122   5.168   0.181   1.709
 6026SOL     OW18123   4.346   0.120   0.107
 6026SOL    HW118124   4.444   0.108   0.118
 6026SOL    HW218125   4.325   0.141   0.012
 6027SOL     OW18126   4.485   0.277   1.765
 6027SOL    HW118127   4.573   0.229   1.759
 6027SOL    HW218128   4.431   0.237   1.839
 6028SOL     OW18129   4.598   1.515   1.193
 6028SOL    HW118130   4.579   1.479   1.101
 6028SOL    HW218131   4.672   1.461   1.235
 6029SOL     OW18132   5.066   0.591   1.437
 6029SOL    HW118133   5.096   0.556   1.526
 6029SOL    HW218134   5.101   0.684   1.424
 6030SOL     OW18135   4.543   1.390   0.941
 6030SOL    HW118136   4.633   1.378   0.898
 6030SOL    HW218137   4.473   1.395   0.870
 6031SOL     OW18138   4.651   0.510   0.897
 6031SOL    HW118139   4.623   0.504   0.801
 6031SOL    HW218140   4.684   0.421   0.927
 6032SOL     OW18141   4.278   0.066   0.497
 6032SOL    HW118142   4.197   0.055   0.553
 6032SOL    HW218143   4.266   0.142   0.433
 6033SOL     OW18144   5.146   1.213   0.013
 6033SOL    HW118145   5.174   1.132   0.064
 6033SOL    HW218146   5.062   1.250   0.054
 6034SOL     OW18147   4.040   0.071   0.195
 6034SOL    HW118148   4.090   0.157   0.205
 6034SOL    HW218149   4.072   0.006   0.264
 6035SOL     OW18150   4.673   0.263   0.458
 6035SOL    HW118151   4.641   0.304   0.372
 6035SOL    HW218152   4.772   0.270   0.464
 6036SOL     OW18153   4.804   0.683   1.455
 6036SOL    HW118154   4.729   0.618   1.465
 6036SOL    HW218155   4.891   0.634   1.454
 6037SOL     OW18156   4.943   1.568   0.796
 6037SOL    HW118157   4.957   1.637   0.726
 6037SOL    HW218158   5.016   1.574   0.864
 6038SOL     OW18159   4.194   1.152   0.732
 6038SOL    HW118160   4.124   1.130   0.799
 6038SOL    HW218161   4.156   1.143   0.640
 6039SOL     OW18162   4.982   1.786   0.611
 6039SOL    HW118163   5.037   1.848   0.555
 6039SOL    HW218164   4.910   1.837   0.657
 6040SOL     OW18165   4.782   0.565   0.032
 6040SOL    HW118166   4.692   0.605   0.047
 6040SOL    HW218167   4.835   0.568   0.117
 6041SOL     OW18168   3.814   0.552   1.397
 6041SOL    HW118169   3.907   0.553   1.360
 6041SOL    HW218170   3.804   0.626   1.464
 6042SOL     OW18171   4.294   0.241   1.174
 6042SOL    HW118172   4.348   0.171   1.220
 6042SOL    HW218173   4.199   0.237   1.204
 6043SOL     OW18174   4.590   0.463   0.637
 6043SOL    HW118175   4.544   0.524   0.574
 6043SOL    HW218176   4.617   0.379   0.589
 6044SOL     OW18177   4.681   0.028   0.770
 6044SOL    HW118178   4.625   0.029   0.687
 6044SOL    HW218179   4.753   6.959   0.761
 6045SOL     OW18180   5.170   1.161   0.860
 6045SOL    HW118181   5.093   1.097   0.861
 6045SOL    HW218182   5.202   1.172   0.766
 6046SOL     OW18183   5.190   0.608   0.972
 6046SOL    HW118184   5.130   0.529   0.973
 6046SOL    HW218185   5.254   0.603   1.049
 6047SOL     OW18186   5.553   0.806   0.391
 6047SOL    HW118187   5.614   0.746   0.443
 6047SOL    HW218188   5.546   0.772   0.297
 6048SOL     OW18189   4.199   1.423   0.153
 6048SOL    HW118190   4.138   1.376   0.216
 6048SOL    HW218191   4.160   1.421   0.060
 6049SOL     OW18192   5.396   1.265   0.653
 6049SOL    HW118193   5.496   1.263   0.661
 6049SOL    HW218194   5.363   1.359   0.667
 6050SOL     OW18195   5.114   0.558   0.066
 6050SOL    HW118196   5.058   0.549   0.148
 6050SOL    HW218197   5.188   0.490   0.069
 6051SOL     OW18198   4.236   0.263   0.307
 6051SOL    HW118199   4.288   0.207   0.242
 6051SOL    HW218200   4.217   0.352   0.267
 6052SOL     OW18201   5.477   1.240   1.563
 6052SOL    HW118202   5.567   1.198   1.550
 6052SOL    HW218203   5.489   1.334   1.596
 6053SOL     OW18204   4.778   1.350   1.336
 6053SOL    HW118205   4.697   1.321   1.387
 6053SOL    HW218206   4.860   1.310   1.378
 6054SOL     OW18207   5.337   1.629   1.656
 6054SOL    HW118208   5.322   1.664   1.564
 6054SOL    HW218209   5.423   1.578   1.659
 6055SOL     OW18210   4.860   1.218   1.105
 6055SOL    HW118211   4.800   1.252   1.178
 6055SOL    HW218212   4.826   1.248   1.016
 6056SOL     OW18213   5.348   1.096   1.079
 6056SOL    HW118214   5.344   1.162   1.155
 6056SOL    HW218215   5.273   1.113   1.016
 6057SOL     OW18216   4.620   0.148   1.388
 6057SOL    HW118217   4.636   0.111   1.297
 6057SOL    HW218218   4.707   0.176   1.429
 6058SOL     OW18219   4.704   1.114   1.721
 6058SOL    HW118220   4.609   1.134   1.748
 6058SOL    HW218221   4.706   1.032   1.665
 6059SOL     OW18222   4.437   1.058   0.375
 6059SOL    HW118223   4.418   1.041   0.472
 6059SOL    HW218224   4.517   1.004   0.347
 6060SOL     OW18225   4.147   0.816   1.254
 6060SOL    HW118226   4.220   0.828   1.321
 6060SOL    HW218227   4.107   0.725   1.263
 6061SOL     OW18228   4.985   0.379   1.285
 6061SOL    HW118229   5.022   0.458   1.334
 6061SOL    HW218230   4.890   0.398   1.259
 6062SOL     OW18231   3.798   1.572   1.353
 6062SOL    HW118232   3.763   1.643   1.291
 6062SOL    HW218233   3.898   1.570   1.347
 6063SOL     OW18234   4.090   1.120   0.484
 6063SOL    HW118235   4.069   1.196   0.423
 6063SOL    HW218236   4.086   1.034   0.433
 6064SOL     OW18237   4.277   0.546   0.860
 6064SOL    HW118238   4.292   0.605   0.781
 6064SOL    HW218239   4.347   0.566   0.930
 6065SOL     OW18240   4.967   1.344   0.406
 6065SOL    HW118241   5.026   1.420   0.435
 6065SOL    HW218242   4.873   1.363   0.433
 6066SOL     OW18243   5.010   1.461   1.147
 6066SOL    HW118244   5.069   1.467   1.228
 6066SOL    HW218245   4.956   1.378   1.151
 6067SOL     OW18246   5.307   0.632   0.483
 6067SOL    HW118247   5.252   0.681   0.551
 6067SOL    HW218248   5.367   0.697   0.437
 6068SOL     OW18249   4.072   1.529   1.310
 6068SOL    HW118250   4.056   1.485   1.222
 6068SOL    HW218251   4.170   1.543   1.323
 6069SOL     OW18252   4.142   0.744   1.601
 6069SOL    HW118253   4.204   0.793   1.540
 6069SOL    HW218254   4.181   0.654   1.624
 6070SOL     OW18255   5.332   0.785   1.684
 6070SOL    HW118256   5.240   0.826   1.682
 6070SOL    HW218257   5.388   0.825   1.613
 6071SOL     OW18258   4.720   0.135   1.735
 6071SOL    HW118259   4.762   0.183   1.658
 6071SOL    HW218260   4.725   0.037   1.720
 6072SOL     OW18261   4.188   0.039   1.758
 6072SOL    HW118262   4.124   6.966   1.733
 6072SOL    HW218263   4.138   0.125   1.768
 6073SOL     OW18264   4.308   0.873   1.033
 6073SOL    HW118265   4.343   0.966   1.030
 6073SOL    HW218266   4.248   0.862   1.113
 6074SOL     OW18267   5.077   0.858   1.026
 6074SOL    HW118268   4.987   0.851   0.982
 6074SOL    HW218269   5.124   0.770   1.018
 6075SOL     OW18270   4.923   0.523   0.272
 6075SOL    HW118271   4.940   0.444   0.331
 6075SOL    HW218272   4.881   0.596   0.326
 6076SOL     OW18273   4.034   0.209   1.248
 6076SOL    HW118274   3.971   0.220   1.324
 6076SOL    HW218275   4.022   0.119   1.206
 6077SOL     OW18276   3.775   1.310   1.276
 6077SOL    HW118277   3.808   1.249   1.348
 6077SOL    HW218278   3.779   1.404   1.308
 6078SOL     OW18279   4.452   0.636   1.055
 6078SOL    HW118280   4.527   0.615   0.993
 6078SOL    HW218281   4.415   0.726   1.034
 6079SOL     OW18282   5.460   0.960   1.856
 6079SOL    HW118283   5.416   0.892   1.796
 6079SOL    HW218284   5.400   0.979   1.934
 6080SOL     OW18285   4.042   0.061   0.627
 6080SOL    HW118286   4.021   0.154   0.655
 6080SOL    HW218287   3.997   6.996   0.688
 6081SOL     OW18288   5.350   0.396   0.355
 6081SOL    HW118289   5.382   0.321   0.413
 6081SOL    HW218290   5.324   0.474   0.413
 6082SOL     OW18291   4.748   0.756   0.958
 6082SOL    HW118292   4.744   0.778   1.056
 6082SOL    HW218293   4.721   0.661   0.944
 6083SOL     OW18294   4.705   1.563   1.717
 6083SOL    HW118295   4.689   1.611   1.631
 6083SOL    HW218296   4.753   1.477   1.699
 6084SOL     OW18297   5.579   1.504   1.604
 6084SOL    HW118298   5.597   1.530   1.509
 6084SOL    HW218299   5.662   1.516   1.658
 6085SOL     OW18300   4.077   0.918   1.804
 6085SOL    HW118301   4.157   0.940   1.860
 6085SOL    HW218302   4.103   0.851   1.734
 6086SOL     OW18303   5.245   0.267   0.139
 6086SOL    HW118304   5.172   0.203   0.160
 6086SOL    HW218305   5.276   0.311   0.223
 6087SOL     OW18306   5.016   0.822   0.032
 6087SOL    HW118307   5.064   0.735   0.024
 6087SOL    HW218308   5.043   0.883   6.957
 6088SOL     OW18309   4.792   1.337   0.855
 6088SOL    HW118310   4.797   1.259   0.792
 6088SOL    HW218311   4.852   1.409   0.821
 6089SOL     OW18312   4.035   0.809   0.943
 6089SOL    HW118313   4.132   0.836   0.938
 6089SOL    HW218314   4.029   0.714   0.975
 6090SOL     OW18315   4.059   0.538   1.012
 6090SOL    HW118316   4.017   0.449   1.000
 6090SOL    HW218317   4.140   0.545   0.953
 6091SOL     OW18318   4.849   0.409   1.672
 6091SOL    HW118319   4.800   0.452   1.748
 6091SOL    HW218320   4.947   0.430   1.679
 6092SOL     OW18321   4.861   0.224   1.484
 6092SOL    HW118322   4.860   0.298   1.551
 6092SOL    HW218323   4.917   0.250   1.406
 6093SOL     OW18324   3.817   1.784   0.943
 6093SOL    HW118325   3.780   1.703   0.898
 6093SOL    HW218326   3.911   1.800   0.911
 6094SOL     OW18327   4.218   1.576   0.905
 6094SOL    HW118328   4.288   1.642   0.932
 6094SOL    HW218329   4.258   1.508   0.844
 6095SOL     OW18330   4.700   0.795   1.224
 6095SOL    HW118331   4.760   0.769   1.301
 6095SOL    HW218332   4.610   0.752   1.237
 6096SOL     OW18333   3.759   0.549   1.120
 6096SOL    HW118334   3.837   0.532   1.060
 6096SOL    HW218335   3.790   0.551   1.215
 6097SOL     OW18336   3.909   0.529   1.729
 6097SOL    HW118337   3.988   0.496   1.676
 6097SOL    HW218338   3.868   0.608   1.682
 6098SOL     OW18339   5.104   0.936   1.655
 6098SOL    HW118340   5.127   1.033   1.656
 6098SOL    HW218341   5.101   0.904   1.560
 6099SOL     OW18342   4.540   0.577   0.374
 6099SOL    HW118343   4.552   0.498   0.314
 6099SOL    HW218344   4.459   0.630   0.344
 6100SOL     OW18345   5.366   0.605   1.181
 6100SOL    HW118346   5.347   0.544   1.259
 6100SOL    HW218347   5.457   0.585   1.145
 6101SOL     OW18348   3.964   1.547   1.726
 6101SOL    HW118349   3.943   1.622   1.790
 6101SOL    HW218350   3.970   1.461   1.777
 6102SOL     OW18351   4.430   0.460   1.256
 6102SOL    HW118352   4.376   0.381   1.229
 6102SOL    HW218353   4.431   0.527   1.182
 6103SOL     OW18354   4.644   1.681   1.471
 6103SOL    HW118355   4.619   1.635   1.386
 6103SOL    HW218356   4.644   1.780   1.457
 6104SOL     OW18357   4.178   0.498   0.183
 6104SOL    HW118358   4.244   0.569   0.209
 6104SOL    HW218359   4.086   0.537   0.184
 6105SOL     OW18360   3.866   1.137   1.475
 6105SOL    HW118361   3.868   1.092   1.564
 6105SOL    HW218362   3.886   1.070   1.403
 6106SOL     OW18363   5.040   1.044   1.220
 6106SOL    HW118364   5.068   0.976   1.152
 6106SOL    HW218365   4.972   1.106   1.179
 6107SOL     OW18366   5.025   0.845   0.306
 6107SOL    HW118367   4.944   0.818   0.357
 6107SOL    HW218368   5.012   0.826   0.209
 6108SOL     OW18369   5.504   1.731   1.156
 6108SOL    HW118370   5.565   1.765   1.085
 6108SOL    HW218371   5.473   1.639   1.132
 6109SOL     OW18372   4.966   1.733   1.106
 6109SOL    HW118373   5.051   1.762   1.063
 6109SOL    HW218374   4.971   1.636   1.129
 6110SOL     OW18375   3.809   1.266   1.010
 6110SOL    HW118376   3.793   1.280   1.108
 6110SOL    HW218377   3.738   1.207   0.973
 6111SOL     OW18378   4.404   1.673   1.735
 6111SOL    HW118379   4.342   1.751   1.730
 6111SOL    HW218380   4.477   1.684   1.667
 6112SOL     OW18381   4.616   0.111   0.128
 6112SOL    HW118382   4.705   0.138   0.091
 6112SOL    HW218383   4.628   0.033   0.190
 6113SOL     OW18384   5.443   0.174   0.483
 6113SOL    HW118385   5.520   0.146   0.425
 6113SOL    HW218386   5.428   0.106   0.555
 6114SOL     OW18387   5.114   1.562   0.490
 6114SOL    HW118388   5.179   1.592   0.421
 6114SOL    HW218389   5.060   1.641   0.522
 6115SOL     OW18390   3.869   1.787   1.846
 6115SOL    HW118391   3.811   1.720   1.891
 6115SOL    HW218392   3.918   1.841   1.914
 6116SOL     OW18393   5.006   0.923   0.670
 6116SOL    HW118394   5.080   0.858   0.685
 6116SOL    HW218395   5.040   1.002   0.618
 6117SOL     OW18396   4.529   1.278   1.427
 6117SOL    HW118397   4.499   1.321   1.512
 6117SOL    HW218398   4.460   1.294   1.356
 6118SOL     OW18399   4.398   1.604   0.191
 6118SOL    HW118400   4.403   1.652   0.103
 6118SOL    HW218401   4.340   1.522   0.181
 6119SOL     OW18402   5.341   1.728   1.387
 6119SOL    HW118403   5.399   1.729   1.305
 6119SOL    HW218404   5.327   1.822   1.419
 6120SOL     OW18405   5.590   0.162   0.955
 6120SOL    HW118406   5.588   0.062   0.945
 6120SOL    HW218407   5.499   0.199   0.938
 6121SOL     OW18408   3.983   0.314   0.715
 6121SOL    HW118409   3.893   0.348   0.688
 6121SOL    HW218410   3.990   0.312   0.814
 6122SOL     OW18411   4.943   1.599   0.039
 6122SOL    HW118412   4.937   1.504   0.070
 6122SOL    HW218413   4.858   1.625   6.994
 6123SOL     OW18414   4.547   1.010   1.377
 6123SOL    HW118415   4.598   0.994   1.293
 6123SOL    HW218416   4.545   1.108   1.397
 6124SOL     OW18417   4.647   0.913   0.294
 6124SOL    HW118418   4.703   0.942   0.216
 6124SOL    HW218419   4.695   0.841   0.344
 6125SOL     OW18420   5.213   1.654   0.041
 6125SOL    HW118421   5.115   1.633   0.040
 6125SOL    HW218422   5.245   1.668   6.947
 6126SOL     OW18423   4.090   1.303   1.487
 6126SOL    HW118424   4.080   1.383   1.428
 6126SOL    HW218425   4.010   1.244   1.476
 6127SOL     OW18426   5.337   1.284   1.284
 6127SOL    HW118427   5.401   1.266   1.358
 6127SOL    HW218428   5.271   1.354   1.313
 6128SOL     OW18429   4.784   1.106   0.714
 6128SOL    HW118430   4.707   1.056   0.754
 6128SOL    HW218431   4.852   1.041   0.679
 6129SOL     OW18432   4.749   0.249   0.951
 6129SOL    HW118433   4.726   0.203   0.865
 6129SOL    HW218434   4.739   0.185   1.027
 6130SOL     OW18435   4.336   1.478   0.485
 6130SOL    HW118436   4.375   1.426   0.408
 6130SOL    HW218437   4.275   1.549   0.449
 6131SOL     OW18438   5.456   0.392   1.376
 6131SOL    HW118439   5.525   0.465   1.381
 6131SOL    HW218440   5.493   0.315   1.323
 6132SOL     OW18441   4.002   1.321   0.308
 6132SOL    HW118442   3.918   1.307   0.256
 6132SOL    HW218443   3.981   1.374   0.391
 6133SOL     OW18444   3.838   1.033   1.727
 6133SOL    HW118445   3.757   1.006   1.778
 6133SOL    HW218446   3.919   0.988   1.766
 6134SOL     OW18447   4.393   0.236   1.507
 6134SOL    HW118448   4.475   0.209   1.455
 6134SOL    HW218449   4.421   0.269   1.597
 6135SOL     OW18450   3.832   0.344   0.035
 6135SOL    HW118451   3.779   0.282   6.977
 6135SOL    HW218452   3.876   0.413   6.978
 6136SOL     OW18453   5.149   0.858   1.396
 6136SOL    HW118454   5.093   0.921   1.342
 6136SOL    HW218455   5.242   0.859   1.361
 6137SOL     OW18456   3.794   0.167   0.307
 6137SOL    HW118457   3.782   0.251   0.254
 6137SOL    HW218458   3.875   0.119   0.273
 6138SOL     OW18459   4.910   1.345   0.128
 6138SOL    HW118460   4.812   1.328   0.112
 6138SOL    HW218461   4.929   1.335   0.225
 6139SOL     OW18462   4.347   0.830   1.433
 6139SOL    HW118463   4.404   0.911   1.418
 6139SOL    HW218464   4.406   0.750   1.444
 6140SOL     OW18465   5.209   1.788   0.987
 6140SOL    HW118466   5.233   1.850   0.912
 6140SOL    HW218467   5.293   1.752   1.027
 6141SOL     OW18468   4.444   0.559   1.706
 6141SOL    HW118469   4.488   0.630   1.761
 6141SOL    HW218470   4.465   0.469   1.744
 6142SOL     OW18471   5.197   1.197   1.635
 6142SOL    HW118472   5.182   1.210   1.733
 6142SOL    HW218473   5.293   1.215   1.613
 6143SOL     OW18474   4.096   1.738   1.566
 6143SOL    HW118475   4.012   1.789   1.552
 6143SOL    HW218476   4.075   1.650   1.609
 6144SOL     OW18477   5.390   0.879   1.256
 6144SOL    HW118478   5.385   0.788   1.214
 6144SOL    HW218479   5.378   0.948   1.185
 6145SOL     OW18480   4.948   0.316   0.455
 6145SOL    HW118481   5.018   0.246   0.444
 6145SOL    HW218482   4.969   0.371   0.536
 6146SOL     OW18483   4.313   0.737   0.665
 6146SOL    HW118484   4.352   0.828   0.656
 6146SOL    HW218485   4.241   0.724   0.596
 6147SOL     OW18486   5.475   0.369   1.648
 6147SOL    HW118487   5.465   0.384   1.549
 6147SOL    HW218488   5.402   0.307   1.679
 6148SOL     OW18489   5.476   0.932   1.510
 6148SOL    HW118490   5.465   1.029   1.531
 6148SOL    HW218491   5.455   0.917   1.413
 6149SOL     OW18492   4.625   1.383   0.050
 6149SOL    HW118493   4.564   1.358   0.125
 6149SOL    HW218494   4.629   1.482   0.043
 6150SOL     OW18495   4.388   1.786   0.943
 6150SOL    HW118496   4.365   1.881   0.920
 6150SOL    HW218497   4.487   1.773   0.931
 6151SOL     OW18498   4.593   0.970   0.857
 6151SOL    HW118499   4.644   0.893   0.893
 6151SOL    HW218500   4.551   1.021   0.932
 6152SOL     OW18501   4.805   0.983   0.082
 6152SOL    HW118502   4.798   1.040   6.999
 6152SOL    HW218503   4.885   0.924   0.076
 6153SOL     OW18504   5.571   1.557   0.847
 6153SOL    HW118505   5.494   1.543   0.784
 6153SOL    HW218506   5.571   1.484   0.915
 6154SOL     OW18507   3.955   1.299   1.857
 6154SOL    HW118508   3.888   1.233   1.823
 6154SOL    HW218509   3.941   1.313   1.955
 6155SOL     OW18510   3.806   1.234   0.665
 6155SOL    HW118511   3.822   1.183   0.750
 6155SOL    HW218512   3.855   1.190   0.590
 6156SOL     OW18513   4.406   1.408   1.633
 6156SOL    HW118514   4.325   1.359   1.665
 6156SOL    HW218515   4.404   1.501   1.670
 6157SOL     OW18516   5.576   0.183   1.247
 6157SOL    HW118517   5.498   0.122   1.244
 6157SOL    HW218518   5.602   0.209   1.153
 6158SOL     OW18519   4.155   0.427   0.525
 6158SOL    HW118520   4.187   0.356   0.463
 6158SOL    HW218521   4.101   0.386   0.598
 6159SOL     OW18522   5.416   1.484   1.096
 6159SOL    HW118523   5.336   1.465   1.039
 6159SOL    HW218524   5.426   1.412   1.164
 6160SOL     OW18525   4.057   0.558   1.288
 6160SOL    HW118526   4.115   0.501   1.347
 6160SOL    HW218527   4.075   0.535   1.192
 6161SOL     OW18528   4.551   1.580   0.680
 6161SOL    HW118529   4.540   1.638   0.600
 6161SOL    HW218530   4.474   1.516   0.686
 6162SOL     OW18531   5.137   0.215   1.130
 6162SOL    HW118532   5.220   0.173   1.167
 6162SOL    HW218533   5.089   0.265   1.203
 6163SOL     OW18534   4.702   0.055   1.136
 6163SOL    HW118535   4.644   6.990   1.088
 6163SOL    HW218536   4.759   0.005   1.202
 6164SOL     OW18537   4.507   1.318   0.307
 6164SOL    HW118538   4.472   1.226   0.327
 6164SOL    HW218539   4.584   1.338   0.368
 6165SOL     OW18540   4.347   1.559   1.289
 6165SOL    HW118541   4.345   1.646   1.339
 6165SOL    HW218542   4.438   1.546   1.249
 6166SOL     OW18543   5.069   0.057   0.156
 6166SOL    HW118544   5.086   6.962   0.131
 6166SOL    HW218545   4.971   0.077   0.147
 6167SOL     OW18546   4.993   0.452   0.687
 6167SOL    HW118547   4.948   0.541   0.683
 6167SOL    HW218548   5.012   0.428   0.782
 6168SOL     OW18549   5.342   0.256   0.913
 6168SOL    HW118550   5.253   0.237   0.955
 6168SOL    HW218551   5.330   0.322   0.839
 6169SOL     OW18552   3.811   1.054   0.359
 6169SOL    HW118553   3.899   1.030   0.319
 6169SOL    HW218554   3.756   0.972   0.371
 6170SOL     OW18555   4.612   1.662   0.353
 6170SOL    HW118556   4.537   1.633   0.294
 6170SOL    HW218557   4.583   1.741   0.407
 6171SOL     OW18558   3.945   0.620   1.989
 6171SOL    HW118559   3.856   0.619   2.033
 6171SOL    HW218560   3.934   0.599   1.892
 6172SOL     OW18561   3.946   0.302   2.859
 6172SOL    HW118562   3.986   0.264   2.942
 6172SOL    HW218563   3.863   0.252   2.835
 6173SOL     OW18564   3.733   0.394   2.490
 6173SOL    HW118565   3.644   0.412   2.532
 6173SOL    HW218566   3.724   0.320   2.423
 6174SOL     OW18567   4.292   1.296   3.046
 6174SOL    HW118568   4.202   1.293   3.003
 6174SOL    HW218569   4.310   1.388   3.080
 6175SOL     OW18570   5.288   1.513   2.569
 6175SOL    HW118571   5.245   1.489   2.657
 6175SOL    HW218572   5.217   1.520   2.499
 6176SOL     OW18573   4.858   0.702   2.558
 6176SOL    HW118574   4.909   0.786   2.541
 6176SOL    HW218575   4.807   0.711   2.643
 6177SOL     OW18576   5.491   0.602   2.085
 6177SOL    HW118577   5.470   0.598   1.987
 6177SOL    HW218578   5.454   0.521   2.130
 6178SOL     OW18579   4.469   1.141   2.902
 6178SOL    HW118580   4.401   1.176   2.967
 6178SOL    HW218581   4.513   1.218   2.856
 6179SOL     OW18582   4.595   0.767   3.682
 6179SOL    HW118583   4.584   0.835   3.754
 6179SOL    HW218584   4.621   0.812   3.597
 6180SOL     OW18585   4.408   1.000   2.511
 6180SOL    HW118586   4.479   0.989   2.580
 6180SOL    HW218587   4.333   1.055   2.548
 6181SOL     OW18588   4.435   1.153   3.679
 6181SOL    HW118589   4.487   1.232   3.712
 6181SOL    HW218590   4.350   1.185   3.638
 6182SOL     OW18591   4.050   1.424   2.928
 6182SOL    HW118592   3.974   1.379   2.881
 6182SOL    HW218593   4.104   1.476   2.862
 6183SOL     OW18594   5.182   1.501   3.219
 6183SOL    HW118595   5.239   1.583   3.226
 6183SOL    HW218596   5.112   1.503   3.290
 6184SOL     OW18597   4.167   0.398   3.346
 6184SOL    HW118598   4.253   0.347   3.351
 6184SOL    HW218599   4.090   0.334   3.351
 6185SOL     OW18600   5.340   0.457   2.591
 6185SOL    HW118601   5.277   0.486   2.519
 6185SOL    HW218602   5.350   0.530   2.658
 6186SOL     OW18603   3.946   1.714   2.334
 6186SOL    HW118604   3.964   1.793   2.393
 6186SOL    HW218605   4.021   1.704   2.268
 6187SOL     OW18606   4.861   1.340   3.560
 6187SOL    HW118607   4.908   1.338   3.648
 6187SOL    HW218608   4.805   1.258   3.550
 6188SOL     OW18609   3.957   1.443   2.398
 6188SOL    HW118610   3.941   1.542   2.397
 6188SOL    HW218611   3.897   1.400   2.465
 6189SOL     OW18612   3.992   1.090   2.762
 6189SOL    HW118613   3.988   0.996   2.795
 6189SOL    HW218614   3.930   1.147   2.816
 6190SOL     OW18615   4.324   1.796   3.289
 6190SOL    HW118616   4.241   1.772   3.339
 6190SOL    HW218617   4.355   1.887   3.317
 6191SOL     OW18618   4.306   0.987   2.002
 6191SOL    HW118619   4.354   1.034   1.928
 6191SOL    HW218620   4.346   1.015   2.090
 6192SOL     OW18621   5.303   0.131   3.309
 6192SOL    HW118622   5.313   0.226   3.278
 6192SOL    HW218623   5.325   0.126   3.407
 6193SOL     OW18624   3.838   0.661   2.425
 6193SOL    HW118625   3.811   0.566   2.443
 6193SOL    HW218626   3.832   0.713   2.511
 6194SOL     OW18627   5.570   1.756   2.195
 6194SOL    HW118628   5.639   1.725   2.260
 6194SOL    HW218629   5.586   1.852   2.171
 6195SOL     OW18630   3.753   1.591   1.986
 6195SOL    HW118631   3.737   1.494   2.005
 6195SOL    HW218632   3.732   1.645   2.067
 6196SOL     OW18633   5.414   0.920   2.508
 6196SOL    HW118634   5.499   0.870   2.493
 6196SOL    HW218635   5.391   0.974   2.427
 6197SOL     OW18636   5.376   1.105   2.294
 6197SOL    HW118637   5.465   1.102   2.248
 6197SOL    HW218638   5.379   1.171   2.368
 6198SOL     OW18639   3.846   0.748   3.445
 6198SOL    HW118640   3.942   0.775   3.447
 6198SOL    HW218641   3.789   0.830   3.447
 6199SOL     OW18642   4.336   1.390   2.596
 6199SOL    HW118643   4.290   1.302   2.608
 6199SOL    HW218644   4.323   1.421   2.502
 6200SOL     OW18645   5.013   1.235   3.284
 6200SOL    HW118646   5.040   1.165   3.218
 6200SOL    HW218647   5.072   1.231   3.364
 6201SOL     OW18648   4.547   0.027   2.383
 6201SOL    HW118649   4.586   0.117   2.363
 6201SOL    HW218650   4.447   0.035   2.385
 6202SOL     OW18651   3.915   0.962   3.138
 6202SOL    HW118652   4.004   0.919   3.123
 6202SOL    HW218653   3.845   0.915   3.084
 6203SOL     OW18654   5.256   0.999   2.066
 6203SOL    HW118655   5.182   0.939   2.095
 6203SOL    HW218656   5.302   1.037   2.146
 6204SOL     OW18657   4.906   1.810   3.484
 6204SOL    HW118658   4.914   1.879   3.411
 6204SOL    HW218659   4.926   1.720   3.447
 6205SOL     OW18660   4.043   0.269   3.652
 6205SOL    HW118661   4.106   0.336   3.691
 6205SOL    HW218662   3.956   0.272   3.702
 6206SOL     OW18663   5.189   1.420   2.810
 6206SOL    HW118664   5.122   1.439   2.882
 6206SOL    HW218665   5.181   1.325   2.781
 6207SOL     OW18666   5.375   1.747   2.438
 6207SOL    HW118667   5.357   1.719   2.344
 6207SOL    HW218668   5.353   1.672   2.500
 6208SOL     OW18669   4.317   0.719   2.133
 6208SOL    HW118670   4.323   0.805   2.082
 6208SOL    HW218671   4.249   0.728   2.205
 6209SOL     OW18672   5.007   0.367   2.811
 6209SOL    HW118673   4.910   0.343   2.814
 6209SOL    HW218674   5.056   0.315   2.882
 6210SOL     OW18675   5.307   1.672   2.170
 6210SOL    HW118676   5.403   1.701   2.166
 6210SOL    HW218677   5.274   1.655   2.077
 6211SOL     OW18678   4.517   0.616   3.317
 6211SOL    HW118679   4.490   0.590   3.410
 6211SOL    HW218680   4.478   0.550   3.252
 6212SOL     OW18681   5.118   0.473   3.542
 6212SOL    HW118682   5.116   0.519   3.631
 6212SOL    HW218683   5.175   0.391   3.548
 6213SOL     OW18684   4.678   0.886   3.444
 6213SOL    HW118685   4.736   0.813   3.407
 6213SOL    HW218686   4.623   0.927   3.371
 6214SOL     OW18687   4.719   0.412   3.090
 6214SOL    HW118688   4.633   0.435   3.136
 6214SOL    HW218689   4.699   0.361   3.006
 6215SOL     OW18690   4.775   0.698   2.287
 6215SOL    HW118691   4.795   0.694   2.385
 6215SOL    HW218692   4.688   0.652   2.269
 6216SOL     OW18693   3.812   0.828   2.642
 6216SOL    HW118694   3.898   0.815   2.692
 6216SOL    HW218695   3.763   0.907   2.678
 6217SOL     OW18696   3.852   1.869   3.449
 6217SOL    HW118697   3.857   1.841   3.545
 6217SOL    HW218698   3.765   1.839   3.409
 6218SOL     OW18699   4.614   0.355   2.062
 6218SOL    HW118700   4.660   0.416   1.997
 6218SOL    HW218701   4.591   0.269   2.016
 6219SOL     OW18702   5.426   0.573   3.687
 6219SOL    HW118703   5.389   0.652   3.639
 6219SOL    HW218704   5.454   0.503   3.621
 6220SOL     OW18705   5.103   1.143   2.396
 6220SOL    HW118706   5.188   1.127   2.345
 6220SOL    HW218707   5.047   1.210   2.348
 6221SOL     OW18708   4.229   0.191   2.772
 6221SOL    HW118709   4.268   0.221   2.859
 6221SOL    HW218710   4.254   0.255   2.700
 6222SOL     OW18711   4.720   1.443   2.326
 6222SOL    HW118712   4.687   1.523   2.277
 6222SOL    HW218713   4.705   1.456   2.424
 6223SOL     OW18714   4.080   1.813   2.731
 6223SOL    HW118715   4.124   1.724   2.738
 6223SOL    HW218716   4.147   1.885   2.750
 6224SOL     OW18717   5.522   1.057   2.733
 6224SOL    HW118718   5.470   1.035   2.651
 6224SOL    HW218719   5.459   1.063   2.811
 6225SOL     OW18720   4.951   1.536   3.376
 6225SOL    HW118721   4.938   1.462   3.442
 6225SOL    HW218722   4.883   1.528   3.303
 6226SOL     OW18723   4.046   0.959   2.115
 6226SOL    HW118724   4.134   0.979   2.072
 6226SOL    HW218725   4.009   0.873   2.078
 6227SOL     OW18726   5.207   0.749   2.586
 6227SOL    HW118727   5.200   0.705   2.676
 6227SOL    HW218728   5.287   0.809   2.585
 6228SOL     OW18729   4.192   1.264   3.593
 6228SOL    HW118730   4.166   1.271   3.497
 6228SOL    HW218731   4.110   1.262   3.650
 6229SOL     OW18732   4.845   1.776   2.089
 6229SOL    HW118733   4.766   1.738   2.137
 6229SOL    HW218734   4.875   1.712   2.018
 6230SOL     OW18735   3.916   0.272   3.373
 6230SOL    HW118736   3.857   0.352   3.358
 6230SOL    HW218737   3.938   0.265   3.470
 6231SOL     OW18738   5.349   1.382   1.950
 6231SOL    HW118739   5.310   1.473   1.934
 6231SOL    HW218740   5.279   1.312   1.931
 6232SOL     OW18741   4.189   1.735   2.181
 6232SOL    HW118742   4.230   1.797   2.247
 6232SOL    HW218743   4.260   1.699   2.120
 6233SOL     OW18744   5.149   0.131   2.288
 6233SOL    HW118745   5.128   0.088   2.201
 6233SOL    HW218746   5.248   0.137   2.299
 6234SOL     OW18747   3.982   1.792   3.089
 6234SOL    HW118748   4.033   1.720   3.136
 6234SOL    HW218749   3.964   1.763   2.995
 6235SOL     OW18750   4.660   1.702   2.759
 6235SOL    HW118751   4.742   1.655   2.789
 6235SOL    HW218752   4.617   1.650   2.685
 6236SOL     OW18753   4.119   0.687   2.337
 6236SOL    HW118754   4.140   0.590   2.350
 6236SOL    HW218755   4.022   0.703   2.355
 6237SOL     OW18756   5.254   0.230   3.589
 6237SOL    HW118757   5.268   0.237   3.688
 6237SOL    HW218758   5.168   0.181   3.570
 6238SOL     OW18759   4.368   0.112   1.964
 6238SOL    HW118760   4.408   0.037   2.018
 6238SOL    HW218761   4.306   0.074   1.896
 6239SOL     OW18762   4.486   0.277   3.627
 6239SOL    HW118763   4.573   0.229   3.621
 6239SOL    HW218764   4.431   0.237   3.701
 6240SOL     OW18765   4.598   1.515   3.055
 6240SOL    HW118766   4.580   1.479   2.963
 6240SOL    HW218767   4.672   1.461   3.097
 6241SOL     OW18768   5.067   0.591   3.299
 6241SOL    HW118769   5.096   0.556   3.388
 6241SOL    HW218770   5.101   0.684   3.287
 6242SOL     OW18771   4.543   1.390   2.802
 6242SOL    HW118772   4.633   1.378   2.760
 6242SOL    HW218773   4.474   1.395   2.731
 6243SOL     OW18774   4.651   0.511   2.758
 6243SOL    HW118775   4.623   0.505   2.662
 6243SOL    HW218776   4.683   0.421   2.789
 6244SOL     OW18777   4.279   0.066   2.356
 6244SOL    HW118778   4.197   0.055   2.413
 6244SOL    HW218779   4.266   0.142   2.293
 6245SOL     OW18780   5.150   1.199   1.905
 6245SOL    HW118781   5.183   1.121   1.958
 6245SOL    HW218782   5.061   1.228   1.941
 6246SOL     OW18783   4.035   0.048   2.048
 6246SOL    HW118784   4.075   0.139   2.043
 6246SOL    HW218785   4.088   6.991   2.111
 6247SOL     OW18786   4.672   0.264   2.319
 6247SOL    HW118787   4.642   0.300   2.231
 6247SOL    HW218788   4.772   0.273   2.325
 6248SOL     OW18789   4.804   0.683   3.317
 6248SOL    HW118790   4.729   0.619   3.327
 6248SOL    HW218791   4.891   0.634   3.316
 6249SOL     OW18792   4.944   1.569   2.656
 6249SOL    HW118793   4.958   1.639   2.586
 6249SOL    HW218794   5.015   1.577   2.726
 6250SOL     OW18795   4.192   1.151   2.591
 6250SOL    HW118796   4.125   1.131   2.662
 6250SOL    HW218797   4.150   1.138   2.501
 6251SOL     OW18798   4.988   1.792   2.472
 6251SOL    HW118799   5.039   1.854   2.413
 6251SOL    HW218800   4.915   1.843   2.518
 6252SOL     OW18801   4.742   0.537   1.893
 6252SOL    HW118802   4.698   0.624   1.870
 6252SOL    HW218803   4.813   0.553   1.961
 6253SOL     OW18804   3.814   0.552   3.259
 6253SOL    HW118805   3.907   0.552   3.222
 6253SOL    HW218806   3.804   0.626   3.325
 6254SOL     OW18807   4.295   0.242   3.036
 6254SOL    HW118808   4.347   0.170   3.080
 6254SOL    HW218809   4.199   0.237   3.066
 6255SOL     OW18810   4.590   0.465   2.498
 6255SOL    HW118811   4.539   0.525   2.436
 6255SOL    HW218812   4.617   0.382   2.449
 6256SOL     OW18813   4.682   0.029   2.631
 6256SOL    HW118814   4.625   0.029   2.549
 6256SOL    HW218815   4.752   6.958   2.623
 6257SOL     OW18816   5.169   1.161   2.720
 6257SOL    HW118817   5.093   1.096   2.724
 6257SOL    HW218818   5.198   1.173   2.625
 6258SOL     OW18819   5.190   0.608   2.833
 6258SOL    HW118820   5.130   0.528   2.834
 6258SOL    HW218821   5.253   0.603   2.911
 6259SOL     OW18822   5.567   0.810   2.242
 6259SOL    HW118823   5.624   0.762   2.308
 6259SOL    HW218824   5.536   0.747   2.171
 6260SOL     OW18825   4.211   1.420   2.017
 6260SOL    HW118826   4.131   1.393   2.071
 6260SOL    HW218827   4.208   1.376   1.928
 6261SOL     OW18828   5.398   1.267   2.506
 6261SOL    HW118829   5.497   1.264   2.518
 6261SOL    HW218830   5.364   1.358   2.526
 6262SOL     OW18831   5.115   0.575   1.933
 6262SOL    HW118832   5.051   0.552   2.007
 6262SOL    HW218833   5.209   0.559   1.963
 6263SOL     OW18834   4.248   0.263   2.166
 6263SOL    HW118835   4.304   0.214   2.100
 6263SOL    HW218836   4.223   0.353   2.129
 6264SOL     OW18837   5.477   1.240   3.424
 6264SOL    HW118838   5.567   1.198   3.412
 6264SOL    HW218839   5.488   1.334   3.458
 6265SOL     OW18840   4.778   1.350   3.198
 6265SOL    HW118841   4.697   1.320   3.248
 6265SOL    HW218842   4.860   1.310   3.240
 6266SOL     OW18843   5.337   1.629   3.518
 6266SOL    HW118844   5.322   1.664   3.426
 6266SOL    HW218845   5.423   1.578   3.521
 6267SOL     OW18846   4.860   1.218   2.967
 6267SOL    HW118847   4.800   1.252   3.040
 6267SOL    HW218848   4.826   1.248   2.878
 6268SOL     OW18849   5.349   1.097   2.941
 6268SOL    HW118850   5.345   1.162   3.017
 6268SOL    HW218851   5.272   1.113   2.879
 6269SOL     OW18852   4.619   0.149   3.250
 6269SOL    HW118853   4.636   0.111   3.159
 6269SOL    HW218854   4.707   0.176   3.291
 6270SOL     OW18855   4.704   1.114   3.583
 6270SOL    HW118856   4.609   1.134   3.610
 6270SOL    HW218857   4.706   1.032   3.527
 6271SOL     OW18858   4.436   1.059   2.235
 6271SOL    HW118859   4.419   1.042   2.332
 6271SOL    HW218860   4.515   1.005   2.205
 6272SOL     OW18861   4.147   0.816   3.115
 6272SOL    HW118862   4.220   0.828   3.183
 6272SOL    HW218863   4.107   0.725   3.125
 6273SOL     OW18864   4.985   0.379   3.148
 6273SOL    HW118865   5.022   0.458   3.196
 6273SOL    HW218866   4.890   0.398   3.122
 6274SOL     OW18867   3.798   1.572   3.215
 6274SOL    HW118868   3.763   1.643   3.154
 6274SOL    HW218869   3.898   1.570   3.210
 6275SOL     OW18870   4.067   1.117   2.349
 6275SOL    HW118871   4.073   1.199   2.292
 6275SOL    HW218872   4.065   1.036   2.291
 6276SOL     OW18873   4.277   0.546   2.723
 6276SOL    HW118874   4.291   0.606   2.644
 6276SOL    HW218875   4.347   0.566   2.792
 6277SOL     OW18876   4.970   1.354   2.254
 6277SOL    HW118877   5.031   1.427   2.285
 6277SOL    HW218878   4.877   1.374   2.285
 6278SOL     OW18879   5.011   1.461   3.009
 6278SOL    HW118880   5.069   1.467   3.090
 6278SOL    HW218881   4.956   1.378   3.013
 6279SOL     OW18882   5.297   0.623   2.346
 6279SOL    HW118883   5.249   0.678   2.415
 6279SOL    HW218884   5.349   0.683   2.286
 6280SOL     OW18885   4.072   1.529   3.172
 6280SOL    HW118886   4.056   1.485   3.084
 6280SOL    HW218887   4.170   1.543   3.185
 6281SOL     OW18888   4.142   0.744   3.463
 6281SOL    HW118889   4.204   0.792   3.402
 6281SOL    HW218890   4.181   0.654   3.486
 6282SOL     OW18891   5.332   0.785   3.547
 6282SOL    HW118892   5.240   0.826   3.544
 6282SOL    HW218893   5.388   0.825   3.475
 6283SOL     OW18894   4.721   0.135   3.597
 6283SOL    HW118895   4.762   0.183   3.520
 6283SOL    HW218896   4.725   0.037   3.583
 6284SOL     OW18897   4.188   0.039   3.620
 6284SOL    HW118898   4.124   6.966   3.594
 6284SOL    HW218899   4.138   0.125   3.630
 6285SOL     OW18900   4.308   0.873   2.895
 6285SOL    HW118901   4.343   0.966   2.893
 6285SOL    HW218902   4.248   0.862   2.975
 6286SOL     OW18903   5.077   0.858   2.887
 6286SOL    HW118904   4.986   0.850   2.846
 6286SOL    HW218905   5.124   0.770   2.879
 6287SOL     OW18906   4.923   0.527   2.126
 6287SOL    HW118907   4.935   0.444   2.181
 6287SOL    HW218908   4.878   0.597   2.182
 6288SOL     OW18909   4.035   0.209   3.110
 6288SOL    HW118910   3.971   0.220   3.186
 6288SOL    HW218911   4.022   0.119   3.068
 6289SOL     OW18912   3.776   1.310   3.138
 6289SOL    HW118913   3.808   1.249   3.210
 6289SOL    HW218914   3.779   1.404   3.170
 6290SOL     OW18915   4.453   0.636   2.917
 6290SOL    HW118916   4.527   0.615   2.854
 6290SOL    HW218917   4.416   0.726   2.896
 6291SOL     OW18918   5.459   0.960   3.717
 6291SOL    HW118919   5.416   0.892   3.658
 6291SOL    HW218920   5.400   0.979   3.795
 6292SOL     OW18921   4.044   0.060   2.491
 6292SOL    HW118922   4.022   0.154   2.517
 6292SOL    HW218923   4.003   6.996   2.556
 6293SOL     OW18924   5.350   0.392   2.208
 6293SOL    HW118925   5.380   0.314   2.263
 6293SOL    HW218926   5.319   0.466   2.268
 6294SOL     OW18927   4.749   0.756   2.820
 6294SOL    HW118928   4.744   0.778   2.918
 6294SOL    HW218929   4.721   0.662   2.806
 6295SOL     OW18930   4.705   1.563   3.579
 6295SOL    HW118931   4.689   1.611   3.493
 6295SOL    HW218932   4.753   1.477   3.561
 6296SOL     OW18933   5.579   1.504   3.466
 6296SOL    HW118934   5.597   1.530   3.371
 6296SOL    HW218935   5.662   1.516   3.520
 6297SOL     OW18936   4.077   0.918   3.666
 6297SOL    HW118937   4.157   0.940   3.722
 6297SOL    HW218938   4.103   0.852   3.596
 6298SOL     OW18939   5.263   0.235   1.997
 6298SOL    HW118940   5.164   0.229   2.007
 6298SOL    HW218941   5.300   0.293   2.069
 6299SOL     OW18942   5.013   0.826   1.889
 6299SOL    HW118943   5.053   0.735   1.896
 6299SOL    HW218944   5.044   0.869   1.804
 6300SOL     OW18945   4.793   1.337   2.716
 6300SOL    HW118946   4.797   1.259   2.654
 6300SOL    HW218947   4.853   1.410   2.682
 6301SOL     OW18948   4.035   0.809   2.805
 6301SOL    HW118949   4.131   0.835   2.799
 6301SOL    HW218950   4.028   0.714   2.836
 6302SOL     OW18951   4.059   0.539   2.874
 6302SOL    HW118952   4.016   0.449   2.862
 6302SOL    HW218953   4.140   0.545   2.815
 6303SOL     OW18954   4.849   0.410   3.534
 6303SOL    HW118955   4.801   0.452   3.610
 6303SOL    HW218956   4.947   0.430   3.541
 6304SOL     OW18957   4.861   0.224   3.347
 6304SOL    HW118958   4.860   0.298   3.413
 6304SOL    HW218959   4.917   0.250   3.268
 6305SOL     OW18960   3.725   1.316   2.057
 6305SOL    HW118961   3.635   1.335   2.017
 6305SOL    HW218962   3.726   1.222   2.092
 6306SOL     OW18963   3.817   1.784   2.805
 6306SOL    HW118964   3.781   1.703   2.760
 6306SOL    HW218965   3.911   1.801   2.773
 6307SOL     OW18966   4.218   1.576   2.767
 6307SOL    HW118967   4.288   1.642   2.794
 6307SOL    HW218968   4.259   1.508   2.705
 6308SOL     OW18969   4.700   0.795   3.086
 6308SOL    HW118970   4.759   0.769   3.163
 6308SOL    HW218971   4.610   0.752   3.098
 6309SOL     OW18972   3.759   0.550   2.982
 6309SOL    HW118973   3.837   0.531   2.922
 6309SOL    HW218974   3.790   0.551   3.077
 6310SOL     OW18975   3.909   0.529   3.591
 6310SOL    HW118976   3.988   0.496   3.538
 6310SOL    HW218977   3.869   0.607   3.544
 6311SOL     OW18978   5.104   0.936   3.517
 6311SOL    HW118979   5.127   1.033   3.518
 6311SOL    HW218980   5.101   0.904   3.423
 6312SOL     OW18981   4.541   0.576   2.222
 6312SOL    HW118982   4.551   0.495   2.163
 6312SOL    HW218983   4.462   0.629   2.191
 6313SOL     OW18984   5.366   0.605   3.043
 6313SOL    HW118985   5.347   0.545   3.120
 6313SOL    HW218986   5.457   0.586   3.007
 6314SOL     OW18987   3.964   1.547   3.588
 6314SOL    HW118988   3.943   1.622   3.652
 6314SOL    HW218989   3.970   1.461   3.639
 6315SOL     OW18990   4.431   0.461   3.118
 6315SOL    HW118991   4.376   0.381   3.091
 6315SOL    HW218992   4.431   0.528   3.044
 6316SOL     OW18993   4.645   1.681   3.333
 6316SOL    HW118994   4.619   1.635   3.248
 6316SOL    HW218995   4.645   1.780   3.319
 6317SOL     OW18996   4.184   0.495   2.041
 6317SOL    HW118997   4.248   0.567   2.068
 6317SOL    HW218998   4.093   0.535   2.030
 6318SOL     OW18999   3.866   1.137   3.337
 6318SOL    HW119000   3.868   1.092   3.426
 6318SOL    HW219001   3.886   1.071   3.265
 6319SOL     OW19002   5.041   1.044   3.081
 6319SOL    HW119003   5.068   0.976   3.013
 6319SOL    HW219004   4.972   1.105   3.041
 6320SOL     OW19005   5.039   0.856   2.162
 6320SOL    HW119006   4.962   0.829   2.220
 6320SOL    HW219007   5.014   0.844   2.066
 6321SOL     OW19008   5.503   1.731   3.018
 6321SOL    HW119009   5.564   1.765   2.947
 6321SOL    HW219010   5.472   1.639   2.994
 6322SOL     OW19011   4.965   1.733   2.968
 6322SOL    HW119012   5.051   1.761   2.925
 6322SOL    HW219013   4.971   1.636   2.991
 6323SOL     OW19014   3.809   1.265   2.873
 6323SOL    HW119015   3.794   1.280   2.971
 6323SOL    HW219016   3.737   1.207   2.836
 6324SOL     OW19017   4.404   1.673   3.597
 6324SOL    HW119018   4.342   1.751   3.593
 6324SOL    HW219019   4.477   1.684   3.529
 6325SOL     OW19020   5.431   0.164   2.332
 6325SOL    HW119021   5.516   0.148   2.282
 6325SOL    HW219022   5.428   0.106   2.413
 6326SOL     OW19023   5.119   1.570   2.349
 6326SOL    HW119024   5.182   1.602   2.278
 6326SOL    HW219025   5.064   1.647   2.382
 6327SOL     OW19026   3.869   1.787   3.708
 6327SOL    HW119027   3.811   1.719   3.754
 6327SOL    HW219028   3.918   1.841   3.776
 6328SOL     OW19029   5.006   0.928   2.528
 6328SOL    HW119030   5.081   0.864   2.544
 6328SOL    HW219031   5.039   1.005   2.474
 6329SOL     OW19032   4.529   1.278   3.289
 6329SOL    HW119033   4.500   1.321   3.374
 6329SOL    HW219034   4.460   1.294   3.218
 6330SOL     OW19035   4.393   1.621   2.016
 6330SOL    HW119036   4.409   1.639   1.919
 6330SOL    HW219037   4.335   1.540   2.026
 6331SOL     OW19038   5.342   1.728   3.249
 6331SOL    HW119039   5.399   1.729   3.167
 6331SOL    HW219040   5.327   1.822   3.281
 6332SOL     OW19041   5.590   0.162   2.817
 6332SOL    HW119042   5.588   0.062   2.806
 6332SOL    HW219043   5.499   0.199   2.801
 6333SOL     OW19044   3.984   0.313   2.578
 6333SOL    HW119045   3.895   0.350   2.551
 6333SOL    HW219046   3.990   0.311   2.677
 6334SOL     OW19047   4.932   1.601   1.895
 6334SOL    HW119048   4.923   1.507   1.928
 6334SOL    HW219049   4.866   1.618   1.822
 6335SOL     OW19050   4.547   1.010   3.240
 6335SOL    HW119051   4.598   0.994   3.155
 6335SOL    HW219052   4.545   1.108   3.259
 6336SOL     OW19053   4.644   0.911   2.149
 6336SOL    HW119054   4.705   0.946   2.078
 6336SOL    HW219055   4.690   0.839   2.201
 6337SOL     OW19056   5.213   1.629   1.904
 6337SOL    HW119057   5.114   1.618   1.893
 6337SOL    HW219058   5.256   1.635   1.814
 6338SOL     OW19059   4.090   1.303   3.349
 6338SOL    HW119060   4.080   1.383   3.291
 6338SOL    HW219061   4.010   1.243   3.338
 6339SOL     OW19062   5.338   1.284   3.146
 6339SOL    HW119063   5.401   1.265   3.222
 6339SOL    HW219064   5.272   1.354   3.174
 6340SOL     OW19065   4.784   1.106   2.576
 6340SOL    HW119066   4.708   1.056   2.616
 6340SOL    HW219067   4.852   1.042   2.542
 6341SOL     OW19068   4.749   0.249   2.813
 6341SOL    HW119069   4.726   0.202   2.727
 6341SOL    HW219070   4.739   0.185   2.889
 6342SOL     OW19071   4.328   1.486   2.342
 6342SOL    HW119072   4.379   1.432   2.275
 6342SOL    HW219073   4.255   1.536   2.296
 6343SOL     OW19074   5.456   0.392   3.237
 6343SOL    HW119075   5.525   0.465   3.243
 6343SOL    HW219076   5.493   0.316   3.185
 6344SOL     OW19077   3.977   1.348   2.150
 6344SOL    HW119078   3.881   1.341   2.123
 6344SOL    HW219079   3.983   1.386   2.242
 6345SOL     OW19080   3.838   1.033   3.589
 6345SOL    HW119081   3.757   1.006   3.640
 6345SOL    HW219082   3.918   0.988   3.628
 6346SOL     OW19083   4.393   0.236   3.370
 6346SOL    HW119084   4.474   0.209   3.317
 6346SOL    HW219085   4.421   0.269   3.460
 6347SOL     OW19086   3.799   0.334   1.896
 6347SOL    HW119087   3.703   0.312   1.879
 6347SOL    HW219088   3.825   0.414   1.841
 6348SOL     OW19089   5.149   0.858   3.258
 6348SOL    HW119090   5.093   0.921   3.204
 6348SOL    HW219091   5.243   0.859   3.224
 6349SOL     OW19092   3.797   0.178   2.180
 6349SOL    HW119093   3.799   0.249   2.109
 6349SOL    HW219094   3.850   0.099   2.150
 6350SOL     OW19095   4.904   1.338   1.982
 6350SOL    HW119096   4.809   1.308   1.976
 6350SOL    HW219097   4.932   1.339   2.078
 6351SOL     OW19098   4.347   0.830   3.295
 6351SOL    HW119099   4.404   0.911   3.280
 6351SOL    HW219100   4.406   0.750   3.306
 6352SOL     OW19101   5.209   1.787   2.849
 6352SOL    HW119102   5.230   1.848   2.773
 6352SOL    HW219103   5.294   1.754   2.889
 6353SOL     OW19104   4.444   0.559   3.568
 6353SOL    HW119105   4.488   0.630   3.624
 6353SOL    HW219106   4.465   0.469   3.606
 6354SOL     OW19107   5.197   1.197   3.497
 6354SOL    HW119108   5.182   1.210   3.595
 6354SOL    HW219109   5.293   1.215   3.475
 6355SOL     OW19110   4.096   1.738   3.428
 6355SOL    HW119111   4.012   1.789   3.414
 6355SOL    HW219112   4.075   1.650   3.471
 6356SOL     OW19113   5.391   0.879   3.118
 6356SOL    HW119114   5.385   0.788   3.077
 6356SOL    HW219115   5.378   0.948   3.047
 6357SOL     OW19116   4.948   0.318   2.319
 6357SOL    HW119117   5.018   0.247   2.311
 6357SOL    HW219118   4.967   0.375   2.398
 6358SOL     OW19119   4.312   0.738   2.529
 6358SOL    HW119120   4.352   0.829   2.518
 6358SOL    HW219121   4.242   0.724   2.459
 6359SOL     OW19122   5.475   0.369   3.510
 6359SOL    HW119123   5.465   0.384   3.411
 6359SOL    HW219124   5.403   0.308   3.541
 6360SOL     OW19125   5.476   0.932   3.372
 6360SOL    HW119126   5.465   1.029   3.394
 6360SOL    HW219127   5.455   0.917   3.275
 6361SOL     OW19128   4.590   1.364   1.904
 6361SOL    HW119129   4.549   1.388   1.992
 6361SOL    HW219130   4.606   1.447   1.851
 6362SOL     OW19131   4.388   1.786   2.805
 6362SOL    HW119132   4.365   1.881   2.783
 6362SOL    HW219133   4.487   1.773   2.793
 6363SOL     OW19134   4.593   0.970   2.718
 6363SOL    HW119135   4.644   0.893   2.755
 6363SOL    HW219136   4.551   1.021   2.793
 6364SOL     OW19137   4.802   0.989   1.946
 6364SOL    HW119138   4.774   1.043   1.866
 6364SOL    HW219139   4.880   0.931   1.922
 6365SOL     OW19140   5.571   1.556   2.709
 6365SOL    HW119141   5.494   1.545   2.646
 6365SOL    HW219142   5.566   1.487   2.781
 6366SOL     OW19143   3.955   1.299   3.719
 6366SOL    HW119144   3.888   1.233   3.685
 6366SOL    HW219145   3.941   1.313   3.817
 6367SOL     OW19146   3.811   1.230   2.525
 6367SOL    HW119147   3.815   1.184   2.614
 6367SOL    HW219148   3.879   1.190   2.464
 6368SOL     OW19149   4.406   1.409   3.495
 6368SOL    HW119150   4.325   1.359   3.527
 6368SOL    HW219151   4.404   1.501   3.532
 6369SOL     OW19152   5.577   0.183   3.109
 6369SOL    HW119153   5.498   0.122   3.107
 6369SOL    HW219154   5.601   0.209   3.015
 6370SOL     OW19155   4.155   0.427   2.386
 6370SOL    HW119156   4.189   0.356   2.325
 6370SOL    HW219157   4.101   0.384   2.459
 6371SOL     OW19158   5.418   1.483   2.956
 6371SOL    HW119159   5.336   1.465   2.901
 6371SOL    HW219160   5.427   1.412   3.026
 6372SOL     OW19161   4.058   0.558   3.150
 6372SOL    HW119162   4.115   0.501   3.209
 6372SOL    HW219163   4.075   0.535   3.054
 6373SOL     OW19164   4.552   1.580   2.540
 6373SOL    HW119165   4.540   1.640   2.462
 6373SOL    HW219166   4.475   1.516   2.547
 6374SOL     OW19167   5.136   0.215   2.992
 6374SOL    HW119168   5.219   0.173   3.029
 6374SOL    HW219169   5.089   0.264   3.064
 6375SOL     OW19170   4.702   0.055   2.998
 6375SOL    HW119171   4.644   6.990   2.949
 6375SOL    HW219172   4.758   0.005   3.064
 6376SOL     OW19173   4.498   1.332   2.182
 6376SOL    HW119174   4.470   1.236   2.190
 6376SOL    HW219175   4.583   1.345   2.233
 6377SOL     OW19176   4.347   1.559   3.151
 6377SOL    HW119177   4.345   1.646   3.201
 6377SOL    HW219178   4.438   1.546   3.111
 6378SOL     OW19179   5.048   0.017   2.054
 6378SOL    HW119180   5.095   6.951   1.995
 6378SOL    HW219181   4.971   6.972   2.100
 6379SOL     OW19182   4.994   0.454   2.549
 6379SOL    HW119183   4.949   0.543   2.546
 6379SOL    HW219184   5.012   0.429   2.644
 6380SOL     OW19185   5.342   0.258   2.777
 6380SOL    HW119186   5.253   0.235   2.817
 6380SOL    HW219187   5.330   0.321   2.701
 6381SOL     OW19188   3.767   1.065   2.170
 6381SOL    HW119189   3.865   1.064   2.150
 6381SOL    HW219190   3.737   0.972   2.192
 6382SOL     OW19191   4.608   1.661   2.203
 6382SOL    HW119192   4.533   1.640   2.140
 6382SOL    HW219193   4.581   1.739   2.260
 6383SOL     OW19194   3.945   0.620   3.851
 6383SOL    HW119195   3.856   0.619   3.895
 6383SOL    HW219196   3.934   0.599   3.754
 6384SOL     OW19197   3.946   0.302   4.721
 6384SOL    HW119198   3.986   0.264   4.804
 6384SOL    HW219199   3.863   0.252   4.697
 6385SOL     OW19200   3.733   0.394   4.352
 6385SOL    HW119201   3.644   0.412   4.394
 6385SOL    HW219202   3.724   0.320   4.285
 6386SOL     OW19203   4.293   1.296   4.908
 6386SOL    HW119204   4.202   1.293   4.866
 6386SOL    HW219205   4.310   1.388   4.942
 6387SOL     OW19206   5.288   1.513   4.432
 6387SOL    HW119207   5.245   1.489   4.519
 6387SOL    HW219208   5.217   1.520   4.361
 6388SOL     OW19209   4.858   0.702   4.420
 6388SOL    HW119210   4.909   0.786   4.403
 6388SOL    HW219211   4.807   0.711   4.505
 6389SOL     OW19212   5.491   0.602   3.947
 6389SOL    HW119213   5.470   0.598   3.849
 6389SOL    HW219214   5.454   0.521   3.992
 6390SOL     OW19215   4.469   1.141   4.764
 6390SOL    HW119216   4.401   1.176   4.829
 6390SOL    HW219217   4.513   1.218   4.718
 6391SOL     OW19218   4.595   0.767   5.544
 6391SOL    HW119219   4.584   0.835   5.616
 6391SOL    HW219220   4.621   0.812   5.459
 6392SOL     OW19221   4.408   1.000   4.373
 6392SOL    HW119222   4.479   0.989   4.442
 6392SOL    HW219223   4.333   1.055   4.410
 6393SOL     OW19224   4.435   1.153   5.541
 6393SOL    HW119225   4.487   1.232   5.574
 6393SOL    HW219226   4.350   1.185   5.500
 6394SOL     OW19227   4.050   1.424   4.790
 6394SOL    HW119228   3.974   1.379   4.743
 6394SOL    HW219229   4.104   1.476   4.724
 6395SOL     OW19230   5.182   1.501   5.081
 6395SOL    HW119231   5.239   1.583   5.088
 6395SOL    HW219232   5.112   1.503   5.152
 6396SOL     OW19233   4.167   0.398   5.208
 6396SOL    HW119234   4.253   0.347   5.213
 6396SOL    HW219235   4.090   0.334   5.213
 6397SOL     OW19236   5.340   0.457   4.453
 6397SOL    HW119237   5.277   0.486   4.381
 6397SOL    HW219238   5.350   0.530   4.520
 6398SOL     OW19239   3.946   1.714   4.196
 6398SOL    HW119240   3.964   1.793   4.255
 6398SOL    HW219241   4.021   1.704   4.130
 6399SOL     OW19242   4.861   1.340   5.422
 6399SOL    HW119243   4.908   1.338   5.510
 6399SOL    HW219244   4.805   1.258   5.412
 6400SOL     OW19245   3.957   1.443   4.260
 6400SOL    HW119246   3.941   1.542   4.259
 6400SOL    HW219247   3.897   1.400   4.327
 6401SOL     OW19248   3.992   1.090   4.624
 6401SOL    HW119249   3.988   0.996   4.657
 6401SOL    HW219250   3.930   1.147   4.678
 6402SOL     OW19251   4.324   1.796   5.151
 6402SOL    HW119252   4.241   1.772   5.201
 6402SOL    HW219253   4.355   1.887   5.179
 6403SOL     OW19254   4.306   0.987   3.864
 6403SOL    HW119255   4.354   1.034   3.790
 6403SOL    HW219256   4.346   1.015   3.952
 6404SOL     OW19257   5.303   0.131   5.171
 6404SOL    HW119258   5.313   0.226   5.140
 6404SOL    HW219259   5.325   0.126   5.269
 6405SOL     OW19260   3.838   0.661   4.287
 6405SOL    HW119261   3.811   0.566   4.305
 6405SOL    HW219262   3.832   0.713   4.373
 6406SOL     OW19263   5.570   1.756   4.057
 6406SOL    HW119264   5.639   1.725   4.122
 6406SOL    HW219265   5.586   1.852   4.033
 6407SOL     OW19266   3.753   1.591   3.848
 6407SOL    HW119267   3.737   1.494   3.867
 6407SOL    HW219268   3.732   1.645   3.929
 6408SOL     OW19269   5.414   0.920   4.370
 6408SOL    HW119270   5.499   0.870   4.355
 6408SOL    HW219271   5.391   0.974   4.289
 6409SOL     OW19272   5.376   1.105   4.156
 6409SOL    HW119273   5.465   1.102   4.110
 6409SOL    HW219274   5.379   1.171   4.230
 6410SOL     OW19275   3.846   0.748   5.307
 6410SOL    HW119276   3.942   0.775   5.309
 6410SOL    HW219277   3.789   0.830   5.309
 6411SOL     OW19278   4.336   1.390   4.458
 6411SOL    HW119279   4.290   1.302   4.470
 6411SOL    HW219280   4.323   1.421   4.364
 6412SOL     OW19281   5.013   1.236   5.146
 6412SOL    HW119282   5.040   1.165   5.080
 6412SOL    HW219283   5.072   1.231   5.226
 6413SOL     OW19284   4.547   0.027   4.245
 6413SOL    HW119285   4.586   0.117   4.225
 6413SOL    HW219286   4.447   0.035   4.247
 6414SOL     OW19287   3.915   0.962   5.000
 6414SOL    HW119288   4.004   0.919   4.985
 6414SOL    HW219289   3.845   0.915   4.946
 6415SOL     OW19290   5.256   0.999   3.928
 6415SOL    HW119291   5.182   0.939   3.957
 6415SOL    HW219292   5.302   1.037   4.008
 6416SOL     OW19293   4.906   1.810   5.346
 6416SOL    HW119294   4.914   1.879   5.273
 6416SOL    HW219295   4.926   1.720   5.308
 6417SOL     OW19296   4.043   0.269   5.514
 6417SOL    HW119297   4.106   0.336   5.553
 6417SOL    HW219298   3.956   0.272   5.564
 6418SOL     OW19299   5.189   1.420   4.672
 6418SOL    HW119300   5.122   1.439   4.744
 6418SOL    HW219301   5.181   1.325   4.643
 6419SOL     OW19302   5.375   1.747   4.300
 6419SOL    HW119303   5.357   1.719   4.206
 6419SOL    HW219304   5.353   1.672   4.362
 6420SOL     OW19305   4.317   0.719   3.995
 6420SOL    HW119306   4.323   0.805   3.944
 6420SOL    HW219307   4.249   0.728   4.067
 6421SOL     OW19308   5.007   0.367   4.673
 6421SOL    HW119309   4.910   0.343   4.676
 6421SOL    HW219310   5.056   0.315   4.744
 6422SOL     OW19311   5.307   1.672   4.032
 6422SOL    HW119312   5.403   1.701   4.028
 6422SOL    HW219313   5.274   1.655   3.939
 6423SOL     OW19314   4.517   0.616   5.179
 6423SOL    HW119315   4.490   0.590   5.272
 6423SOL    HW219316   4.478   0.550   5.114
 6424SOL     OW19317   5.118   0.473   5.404
 6424SOL    HW119318   5.116   0.519   5.493
 6424SOL    HW219319   5.175   0.391   5.410
 6425SOL     OW19320   4.678   0.886   5.306
 6425SOL    HW119321   4.736   0.813   5.269
 6425SOL    HW219322   4.623   0.927   5.233
 6426SOL     OW19323   4.719   0.412   4.952
 6426SOL    HW119324   4.633   0.435   4.998
 6426SOL    HW219325   4.699   0.361   4.868
 6427SOL     OW19326   4.775   0.698   4.149
 6427SOL    HW119327   4.795   0.694   4.247
 6427SOL    HW219328   4.688   0.652   4.131
 6428SOL     OW19329   3.812   0.828   4.504
 6428SOL    HW119330   3.898   0.815   4.554
 6428SOL    HW219331   3.763   0.907   4.540
 6429SOL     OW19332   3.852   1.869   5.311
 6429SOL    HW119333   3.857   1.842   5.407
 6429SOL    HW219334   3.766   1.838   5.271
 6430SOL     OW19335   4.614   0.355   3.924
 6430SOL    HW119336   4.660   0.416   3.859
 6430SOL    HW219337   4.591   0.269   3.878
 6431SOL     OW19338   5.426   0.573   5.549
 6431SOL    HW119339   5.389   0.652   5.501
 6431SOL    HW219340   5.454   0.503   5.483
 6432SOL     OW19341   5.103   1.143   4.259
 6432SOL    HW119342   5.188   1.127   4.207
 6432SOL    HW219343   5.047   1.210   4.210
 6433SOL     OW19344   4.229   0.191   4.634
 6433SOL    HW119345   4.268   0.221   4.721
 6433SOL    HW219346   4.254   0.255   4.562
 6434SOL     OW19347   4.720   1.443   4.188
 6434SOL    HW119348   4.687   1.523   4.139
 6434SOL    HW219349   4.704   1.456   4.286
 6435SOL     OW19350   4.080   1.813   4.593
 6435SOL    HW119351   4.124   1.724   4.600
 6435SOL    HW219352   4.147   1.885   4.612
 6436SOL     OW19353   5.522   1.057   4.595
 6436SOL    HW119354   5.470   1.034   4.513
 6436SOL    HW219355   5.459   1.063   4.673
 6437SOL     OW19356   4.951   1.536   5.238
 6437SOL    HW119357   4.938   1.462   5.304
 6437SOL    HW219358   4.883   1.527   5.165
 6438SOL     OW19359   4.046   0.959   3.977
 6438SOL    HW119360   4.134   0.979   3.934
 6438SOL    HW219361   4.009   0.873   3.940
 6439SOL     OW19362   5.207   0.749   4.448
 6439SOL    HW119363   5.200   0.705   4.538
 6439SOL    HW219364   5.287   0.809   4.447
 6440SOL     OW19365   4.192   1.264   5.455
 6440SOL    HW119366   4.166   1.271   5.359
 6440SOL    HW219367   4.110   1.262   5.512
 6441SOL     OW19368   4.846   1.776   3.951
 6441SOL    HW119369   4.767   1.738   3.999
 6441SOL    HW219370   4.875   1.712   3.880
 6442SOL     OW19371   3.916   0.272   5.235
 6442SOL    HW119372   3.857   0.352   5.220
 6442SOL    HW219373   3.938   0.265   5.332
 6443SOL     OW19374   5.349   1.382   3.812
 6443SOL    HW119375   5.310   1.473   3.796
 6443SOL    HW219376   5.279   1.312   3.793
 6444SOL     OW19377   4.189   1.735   4.043
 6444SOL    HW119378   4.230   1.797   4.109
 6444SOL    HW219379   4.260   1.699   3.982
 6445SOL     OW19380   5.149   0.131   4.150
 6445SOL    HW119381   5.128   0.088   4.062
 6445SOL    HW219382   5.248   0.137   4.161
 6446SOL     OW19383   3.982   1.792   4.951
 6446SOL    HW119384   4.033   1.720   4.998
 6446SOL    HW219385   3.964   1.763   4.857
 6447SOL     OW19386   4.660   1.702   4.621
 6447SOL    HW119387   4.742   1.655   4.652
 6447SOL    HW219388   4.617   1.650   4.547
 6448SOL     OW19389   4.119   0.687   4.199
 6448SOL    HW119390   4.140   0.590   4.212
 6448SOL    HW219391   4.022   0.703   4.217
 6449SOL     OW19392   5.254   0.230   5.451
 6449SOL    HW119393   5.268   0.237   5.550
 6449SOL    HW219394   5.168   0.181   5.433
 6450SOL     OW19395   4.368   0.112   3.826
 6450SOL    HW119396   4.407   0.037   3.880
 6450SOL    HW219397   4.306   0.074   3.757
 6451SOL     OW19398   4.485   0.277   5.489
 6451SOL    HW119399   4.573   0.229   5.483
 6451SOL    HW219400   4.431   0.237   5.563
 6452SOL     OW19401   4.599   1.515   4.917
 6452SOL    HW119402   4.580   1.479   4.825
 6452SOL    HW219403   4.672   1.461   4.959
 6453SOL     OW19404   5.067   0.591   5.161
 6453SOL    HW119405   5.096   0.556   5.250
 6453SOL    HW219406   5.101   0.684   5.149
 6454SOL     OW19407   4.543   1.390   4.664
 6454SOL    HW119408   4.633   1.378   4.622
 6454SOL    HW219409   4.473   1.395   4.593
 6455SOL     OW19410   4.651   0.511   4.620
 6455SOL    HW119411   4.623   0.505   4.524
 6455SOL    HW219412   4.683   0.421   4.651
 6456SOL     OW19413   4.279   0.066   4.219
 6456SOL    HW119414   4.197   0.055   4.275
 6456SOL    HW219415   4.266   0.142   4.155
 6457SOL     OW19416   5.150   1.199   3.767
 6457SOL    HW119417   5.183   1.121   3.820
 6457SOL    HW219418   5.061   1.228   3.803
 6458SOL     OW19419   4.034   0.048   3.910
 6458SOL    HW119420   4.075   0.139   3.905
 6458SOL    HW219421   4.088   6.991   3.973
 6459SOL     OW19422   4.672   0.264   4.181
 6459SOL    HW119423   4.642   0.300   4.093
 6459SOL    HW219424   4.772   0.273   4.187
 6460SOL     OW19425   4.804   0.683   5.178
 6460SOL    HW119426   4.729   0.619   5.189
 6460SOL    HW219427   4.891   0.634   5.178
 6461SOL     OW19428   4.944   1.569   4.518
 6461SOL    HW119429   4.959   1.639   4.448
 6461SOL    HW219430   5.015   1.577   4.588
 6462SOL     OW19431   4.192   1.151   4.453
 6462SOL    HW119432   4.125   1.131   4.524
 6462SOL    HW219433   4.150   1.138   4.363
 6463SOL     OW19434   4.988   1.792   4.334
 6463SOL    HW119435   5.039   1.854   4.275
 6463SOL    HW219436   4.915   1.842   4.380
 6464SOL     OW19437   4.742   0.537   3.755
 6464SOL    HW119438   4.698   0.624   3.732
 6464SOL    HW219439   4.813   0.553   3.823
 6465SOL     OW19440   3.814   0.552   5.121
 6465SOL    HW119441   3.907   0.552   5.084
 6465SOL    HW219442   3.804   0.626   5.187
 6466SOL     OW19443   4.295   0.242   4.898
 6466SOL    HW119444   4.347   0.170   4.943
 6466SOL    HW219445   4.199   0.237   4.928
 6467SOL     OW19446   4.590   0.465   4.360
 6467SOL    HW119447   4.539   0.525   4.298
 6467SOL    HW219448   4.617   0.382   4.311
 6468SOL     OW19449   4.682   0.029   4.493
 6468SOL    HW119450   4.625   0.029   4.411
 6468SOL    HW219451   4.752   6.958   4.485
 6469SOL     OW19452   5.168   1.161   4.582
 6469SOL    HW119453   5.093   1.096   4.587
 6469SOL    HW219454   5.197   1.173   4.487
 6470SOL     OW19455   5.190   0.608   4.695
 6470SOL    HW119456   5.130   0.528   4.696
 6470SOL    HW219457   5.253   0.603   4.773
 6471SOL     OW19458   5.567   0.810   4.104
 6471SOL    HW119459   5.624   0.762   4.170
 6471SOL    HW219460   5.536   0.747   4.033
 6472SOL     OW19461   4.211   1.420   3.880
 6472SOL    HW119462   4.131   1.393   3.933
 6472SOL    HW219463   4.208   1.376   3.790
 6473SOL     OW19464   5.398   1.267   4.367
 6473SOL    HW119465   5.497   1.264   4.379
 6473SOL    HW219466   5.364   1.358   4.388
 6474SOL     OW19467   5.115   0.575   3.795
 6474SOL    HW119468   5.051   0.552   3.869
 6474SOL    HW219469   5.209   0.559   3.826
 6475SOL     OW19470   4.248   0.263   4.028
 6475SOL    HW119471   4.304   0.214   3.962
 6475SOL    HW219472   4.223   0.353   3.991
 6476SOL     OW19473   5.477   1.240   5.286
 6476SOL    HW119474   5.567   1.198   5.274
 6476SOL    HW219475   5.488   1.334   5.320
 6477SOL     OW19476   4.778   1.350   5.060
 6477SOL    HW119477   4.697   1.320   5.110
 6477SOL    HW219478   4.860   1.310   5.102
 6478SOL     OW19479   5.337   1.629   5.380
 6478SOL    HW119480   5.322   1.664   5.288
 6478SOL    HW219481   5.423   1.578   5.383
 6479SOL     OW19482   4.860   1.218   4.829
 6479SOL    HW119483   4.800   1.252   4.902
 6479SOL    HW219484   4.826   1.248   4.740
 6480SOL     OW19485   5.349   1.097   4.803
 6480SOL    HW119486   5.345   1.162   4.879
 6480SOL    HW219487   5.272   1.113   4.741
 6481SOL     OW19488   4.619   0.149   5.112
 6481SOL    HW119489   4.636   0.111   5.021
 6481SOL    HW219490   4.706   0.176   5.153
 6482SOL     OW19491   4.704   1.115   5.445
 6482SOL    HW119492   4.609   1.134   5.472
 6482SOL    HW219493   4.706   1.032   5.389
 6483SOL     OW19494   4.436   1.059   4.097
 6483SOL    HW119495   4.419   1.042   4.194
 6483SOL    HW219496   4.515   1.005   4.067
 6484SOL     OW19497   4.147   0.816   4.977
 6484SOL    HW119498   4.220   0.828   5.045
 6484SOL    HW219499   4.107   0.724   4.987
 6485SOL     OW19500   4.985   0.379   5.009
 6485SOL    HW119501   5.022   0.458   5.058
 6485SOL    HW219502   4.890   0.398   4.984
 6486SOL     OW19503   3.798   1.572   5.077
 6486SOL    HW119504   3.763   1.643   5.016
 6486SOL    HW219505   3.898   1.570   5.072
 6487SOL     OW19506   4.067   1.117   4.211
 6487SOL    HW119507   4.073   1.199   4.154
 6487SOL    HW219508   4.065   1.036   4.153
 6488SOL     OW19509   4.277   0.546   4.585
 6488SOL    HW119510   4.291   0.606   4.506
 6488SOL    HW219511   4.347   0.566   4.654
 6489SOL     OW19512   4.970   1.354   4.116
 6489SOL    HW119513   5.031   1.427   4.147
 6489SOL    HW219514   4.877   1.374   4.146
 6490SOL     OW19515   5.011   1.461   4.871
 6490SOL    HW119516   5.069   1.467   4.952
 6490SOL    HW219517   4.956   1.378   4.876
 6491SOL     OW19518   5.297   0.623   4.208
 6491SOL    HW119519   5.249   0.677   4.277
 6491SOL    HW219520   5.349   0.684   4.148
 6492SOL     OW19521   4.072   1.529   5.034
 6492SOL    HW119522   4.056   1.485   4.946
 6492SOL    HW219523   4.170   1.543   5.047
 6493SOL     OW19524   4.142   0.743   5.325
 6493SOL    HW119525   4.204   0.792   5.264
 6493SOL    HW219526   4.181   0.654   5.348
 6494SOL     OW19527   5.332   0.785   5.409
 6494SOL    HW119528   5.240   0.826   5.406
 6494SOL    HW219529   5.388   0.825   5.337
 6495SOL     OW19530   4.721   0.135   5.459
 6495SOL    HW119531   4.762   0.183   5.382
 6495SOL    HW219532   4.725   0.037   5.445
 6496SOL     OW19533   4.188   0.039   5.482
 6496SOL    HW119534   4.124   6.966   5.456
 6496SOL    HW219535   4.138   0.125   5.492
 6497SOL     OW19536   4.308   0.873   4.757
 6497SOL    HW119537   4.343   0.966   4.755
 6497SOL    HW219538   4.248   0.862   4.837
 6498SOL     OW19539   5.077   0.858   4.748
 6498SOL    HW119540   4.985   0.850   4.708
 6498SOL    HW219541   5.124   0.770   4.741
 6499SOL     OW19542   4.923   0.527   3.988
 6499SOL    HW119543   4.935   0.444   4.043
 6499SOL    HW219544   4.878   0.597   4.044
 6500SOL     OW19545   4.035   0.209   4.972
 6500SOL    HW119546   3.971   0.220   5.048
 6500SOL    HW219547   4.022   0.119   4.930
 6501SOL     OW19548   3.776   1.310   5.000
 6501SOL    HW119549   3.808   1.249   5.072
 6501SOL    HW219550   3.779   1.405   5.032
 6502SOL     OW19551   4.453   0.636   4.779
 6502SOL    HW119552   4.527   0.615   4.716
 6502SOL    HW219553   4.416   0.726   4.758
 6503SOL     OW19554   5.459   0.960   5.579
 6503SOL    HW119555   5.416   0.892   5.520
 6503SOL    HW219556   5.400   0.980   5.657
 6504SOL     OW19557   4.044   0.060   4.353
 6504SOL    HW119558   4.022   0.154   4.379
 6504SOL    HW219559   4.003   6.996   4.418
 6505SOL     OW19560   5.350   0.392   4.070
 6505SOL    HW119561   5.380   0.314   4.125
 6505SOL    HW219562   5.319   0.466   4.130
 6506SOL     OW19563   4.749   0.756   4.682
 6506SOL    HW119564   4.744   0.778   4.780
 6506SOL    HW219565   4.721   0.662   4.668
 6507SOL     OW19566   4.705   1.563   5.441
 6507SOL    HW119567   4.689   1.611   5.355
 6507SOL    HW219568   4.753   1.477   5.423
 6508SOL     OW19569   5.579   1.504   5.328
 6508SOL    HW119570   5.598   1.530   5.233
 6508SOL    HW219571   5.662   1.516   5.382
 6509SOL     OW19572   4.077   0.918   5.528
 6509SOL    HW119573   4.157   0.940   5.584
 6509SOL    HW219574   4.104   0.852   5.458
 6510SOL     OW19575   5.263   0.235   3.859
 6510SOL    HW119576   5.164   0.229   3.869
 6510SOL    HW219577   5.300   0.293   3.931
 6511SOL     OW19578   5.013   0.826   3.751
 6511SOL    HW119579   5.053   0.735   3.758
 6511SOL    HW219580   5.044   0.869   3.666
 6512SOL     OW19581   4.793   1.337   4.578
 6512SOL    HW119582   4.797   1.259   4.516
 6512SOL    HW219583   4.853   1.410   4.544
 6513SOL     OW19584   4.035   0.809   4.666
 6513SOL    HW119585   4.131   0.835   4.661
 6513SOL    HW219586   4.028   0.714   4.698
 6514SOL     OW19587   4.059   0.539   4.736
 6514SOL    HW119588   4.016   0.449   4.724
 6514SOL    HW219589   4.140   0.545   4.677
 6515SOL     OW19590   4.849   0.410   5.396
 6515SOL    HW119591   4.800   0.453   5.472
 6515SOL    HW219592   4.947   0.430   5.403
 6516SOL     OW19593   4.861   0.224   5.209
 6516SOL    HW119594   4.860   0.298   5.275
 6516SOL    HW219595   4.917   0.250   5.130
 6517SOL     OW19596   3.725   1.316   3.919
 6517SOL    HW119597   3.635   1.335   3.879
 6517SOL    HW219598   3.726   1.222   3.954
 6518SOL     OW19599   3.817   1.784   4.667
 6518SOL    HW119600   3.781   1.703   4.622
 6518SOL    HW219601   3.911   1.801   4.635
 6519SOL     OW19602   4.218   1.576   4.629
 6519SOL    HW119603   4.288   1.642   4.656
 6519SOL    HW219604   4.259   1.508   4.567
 6520SOL     OW19605   4.700   0.795   4.948
 6520SOL    HW119606   4.759   0.769   5.025
 6520SOL    HW219607   4.610   0.752   4.960
 6521SOL     OW19608   3.759   0.550   4.844
 6521SOL    HW119609   3.837   0.531   4.784
 6521SOL    HW219610   3.790   0.551   4.939
 6522SOL     OW19611   3.909   0.529   5.453
 6522SOL    HW119612   3.988   0.496   5.400
 6522SOL    HW219613   3.868   0.607   5.406
 6523SOL     OW19614   5.104   0.936   5.379
 6523SOL    HW119615   5.127   1.033   5.381
 6523SOL    HW219616   5.101   0.904   5.285
 6524SOL     OW19617   4.541   0.576   4.083
 6524SOL    HW119618   4.551   0.495   4.025
 6524SOL    HW219619   4.462   0.629   4.053
 6525SOL     OW19620   5.366   0.605   4.905
 6525SOL    HW119621   5.347   0.545   4.982
 6525SOL    HW219622   5.457   0.586   4.869
 6526SOL     OW19623   3.964   1.547   5.450
 6526SOL    HW119624   3.942   1.622   5.514
 6526SOL    HW219625   3.970   1.461   5.501
 6527SOL     OW19626   4.431   0.461   4.980
 6527SOL    HW119627   4.376   0.381   4.953
 6527SOL    HW219628   4.431   0.528   4.906
 6528SOL     OW19629   4.645   1.681   5.195
 6528SOL    HW119630   4.619   1.635   5.110
 6528SOL    HW219631   4.645   1.780   5.181
 6529SOL     OW19632   4.184   0.496   3.903
 6529SOL    HW119633   4.248   0.567   3.930
 6529SOL    HW219634   4.093   0.535   3.892
 6530SOL     OW19635   3.866   1.137   5.199
 6530SOL    HW119636   3.868   1.092   5.288
 6530SOL    HW219637   3.886   1.071   5.127
 6531SOL     OW19638   5.041   1.044   4.943
 6531SOL    HW119639   5.068   0.976   4.875
 6531SOL    HW219640   4.972   1.105   4.903
 6532SOL     OW19641   5.039   0.856   4.024
 6532SOL    HW119642   4.962   0.829   4.082
 6532SOL    HW219643   5.014   0.844   3.928
 6533SOL     OW19644   5.503   1.731   4.880
 6533SOL    HW119645   5.564   1.765   4.808
 6533SOL    HW219646   5.472   1.639   4.856
 6534SOL     OW19647   4.965   1.733   4.830
 6534SOL    HW119648   5.051   1.761   4.787
 6534SOL    HW219649   4.971   1.636   4.854
 6535SOL     OW19650   3.809   1.265   4.735
 6535SOL    HW119651   3.794   1.280   4.833
 6535SOL    HW219652   3.737   1.207   4.698
 6536SOL     OW19653   4.404   1.673   5.459
 6536SOL    HW119654   4.342   1.751   5.455
 6536SOL    HW219655   4.477   1.684   5.391
 6537SOL     OW19656   5.431   0.164   4.194
 6537SOL    HW119657   5.516   0.148   4.144
 6537SOL    HW219658   5.428   0.106   4.275
 6538SOL     OW19659   5.119   1.570   4.211
 6538SOL    HW119660   5.182   1.602   4.140
 6538SOL    HW219661   5.064   1.647   4.244
 6539SOL     OW19662   3.869   1.787   5.570
 6539SOL    HW119663   3.811   1.720   5.616
 6539SOL    HW219664   3.918   1.841   5.638
 6540SOL     OW19665   5.006   0.928   4.390
 6540SOL    HW119666   5.081   0.864   4.406
 6540SOL    HW219667   5.039   1.005   4.336
 6541SOL     OW19668   4.529   1.278   5.151
 6541SOL    HW119669   4.500   1.321   5.236
 6541SOL    HW219670   4.460   1.293   5.080
 6542SOL     OW19671   4.393   1.621   3.878
 6542SOL    HW119672   4.409   1.639   3.781
 6542SOL    HW219673   4.335   1.540   3.888
 6543SOL     OW19674   5.342   1.729   5.111
 6543SOL    HW119675   5.399   1.730   5.029
 6543SOL    HW219676   5.327   1.822   5.143
 6544SOL     OW19677   5.590   0.162   4.679
 6544SOL    HW119678   5.588   0.062   4.668
 6544SOL    HW219679   5.499   0.199   4.663
 6545SOL     OW19680   3.984   0.313   4.440
 6545SOL    HW119681   3.895   0.350   4.413
 6545SOL    HW219682   3.990   0.311   4.539
 6546SOL     OW19683   4.932   1.601   3.757
 6546SOL    HW119684   4.923   1.507   3.790
 6546SOL    HW219685   4.866   1.618   3.685
 6547SOL     OW19686   4.547   1.010   5.102
 6547SOL    HW119687   4.598   0.994   5.017
 6547SOL    HW219688   4.545   1.108   5.121
 6548SOL     OW19689   4.644   0.911   4.011
 6548SOL    HW119690   4.705   0.946   3.940
 6548SOL    HW219691   4.690   0.839   4.063
 6549SOL     OW19692   5.213   1.629   3.766
 6549SOL    HW119693   5.114   1.618   3.755
 6549SOL    HW219694   5.256   1.635   3.676
 6550SOL     OW19695   4.090   1.303   5.211
 6550SOL    HW119696   4.080   1.383   5.153
 6550SOL    HW219697   4.010   1.243   5.200
 6551SOL     OW19698   5.338   1.284   5.008
 6551SOL    HW119699   5.401   1.265   5.084
 6551SOL    HW219700   5.272   1.354   5.036
 6552SOL     OW19701   4.784   1.106   4.438
 6552SOL    HW119702   4.708   1.056   4.478
 6552SOL    HW219703   4.852   1.041   4.404
 6553SOL     OW19704   4.749   0.249   4.675
 6553SOL    HW119705   4.726   0.202   4.589
 6553SOL    HW219706   4.739   0.185   4.751
 6554SOL     OW19707   4.328   1.486   4.204
 6554SOL    HW119708   4.379   1.432   4.137
 6554SOL    HW219709   4.255   1.536   4.158
 6555SOL     OW19710   5.456   0.393   5.099
 6555SOL    HW119711   5.525   0.465   5.105
 6555SOL    HW219712   5.493   0.316   5.047
 6556SOL     OW19713   3.977   1.348   4.012
 6556SOL    HW119714   3.881   1.341   3.985
 6556SOL    HW219715   3.983   1.386   4.104
 6557SOL     OW19716   3.838   1.032   5.451
 6557SOL    HW119717   3.757   1.006   5.502
 6557SOL    HW219718   3.918   0.988   5.490
 6558SOL     OW19719   4.393   0.236   5.231
 6558SOL    HW119720   4.474   0.209   5.179
 6558SOL    HW219721   4.421   0.269   5.322
 6559SOL     OW19722   3.799   0.334   3.758
 6559SOL    HW119723   3.703   0.311   3.741
 6559SOL    HW219724   3.825   0.414   3.703
 6560SOL     OW19725   5.149   0.858   5.120
 6560SOL    HW119726   5.093   0.921   5.066
 6560SOL    HW219727   5.243   0.859   5.086
 6561SOL     OW19728   3.797   0.178   4.042
 6561SOL    HW119729   3.798   0.249   3.971
 6561SOL    HW219730   3.850   0.099   4.012
 6562SOL     OW19731   4.904   1.338   3.844
 6562SOL    HW119732   4.809   1.308   3.838
 6562SOL    HW219733   4.932   1.339   3.940
 6563SOL     OW19734   4.347   0.830   5.157
 6563SOL    HW119735   4.404   0.911   5.142
 6563SOL    HW219736   4.406   0.750   5.168
 6564SOL     OW19737   5.209   1.787   4.711
 6564SOL    HW119738   5.230   1.848   4.635
 6564SOL    HW219739   5.294   1.754   4.752
 6565SOL     OW19740   4.444   0.559   5.430
 6565SOL    HW119741   4.488   0.630   5.486
 6565SOL    HW219742   4.465   0.469   5.468
 6566SOL     OW19743   5.197   1.197   5.359
 6566SOL    HW119744   5.182   1.210   5.457
 6566SOL    HW219745   5.293   1.215   5.337
 6567SOL     OW19746   4.096   1.738   5.290
 6567SOL    HW119747   4.012   1.789   5.276
 6567SOL    HW219748   4.075   1.650   5.333
 6568SOL     OW19749   5.391   0.879   4.980
 6568SOL    HW119750   5.385   0.788   4.939
 6568SOL    HW219751   5.378   0.948   4.909
 6569SOL     OW19752   4.948   0.318   4.181
 6569SOL    HW119753   5.018   0.247   4.173
 6569SOL    HW219754   4.968   0.375   4.260
 6570SOL     OW19755   4.312   0.738   4.391
 6570SOL    HW119756   4.352   0.829   4.380
 6570SOL    HW219757   4.242   0.724   4.321
 6571SOL     OW19758   5.475   0.369   5.371
 6571SOL    HW119759   5.464   0.384   5.273
 6571SOL    HW219760   5.402   0.307   5.403
 6572SOL     OW19761   5.476   0.932   5.234
 6572SOL    HW119762   5.464   1.029   5.256
 6572SOL    HW219763   5.455   0.917   5.137
 6573SOL     OW19764   4.590   1.364   3.766
 6573SOL    HW119765   4.549   1.388   3.854
 6573SOL    HW219766   4.605   1.447   3.713
 6574SOL     OW19767   4.388   1.786   4.667
 6574SOL    HW119768   4.365   1.881   4.645
 6574SOL    HW219769   4.487   1.773   4.655
 6575SOL     OW19770   4.593   0.970   4.580
 6575SOL    HW119771   4.644   0.893   4.617
 6575SOL    HW219772   4.551   1.021   4.655
 6576SOL     OW19773   4.802   0.989   3.808
 6576SOL    HW119774   4.774   1.043   3.728
 6576SOL    HW219775   4.880   0.931   3.784
 6577SOL     OW19776   5.571   1.556   4.571
 6577SOL    HW119777   5.494   1.544   4.508
 6577SOL    HW219778   5.566   1.487   4.643
 6578SOL     OW19779   3.955   1.299   5.581
 6578SOL    HW119780   3.888   1.233   5.547
 6578SOL    HW219781   3.941   1.313   5.679
 6579SOL     OW19782   3.811   1.230   4.387
 6579SOL    HW119783   3.814   1.184   4.476
 6579SOL    HW219784   3.879   1.190   4.326
 6580SOL     OW19785   4.406   1.409   5.357
 6580SOL    HW119786   4.325   1.359   5.389
 6580SOL    HW219787   4.404   1.501   5.394
 6581SOL     OW19788   5.576   0.184   4.971
 6581SOL    HW119789   5.498   0.122   4.969
 6581SOL    HW219790   5.601   0.208   4.877
 6582SOL     OW19791   4.155   0.427   4.248
 6582SOL    HW119792   4.189   0.356   4.187
 6582SOL    HW219793   4.101   0.384   4.321
 6583SOL     OW19794   5.418   1.483   4.818
 6583SOL    HW119795   5.336   1.465   4.763
 6583SOL    HW219796   5.427   1.412   4.888
 6584SOL     OW19797   4.058   0.558   5.012
 6584SOL    HW119798   4.115   0.501   5.071
 6584SOL    HW219799   4.075   0.535   4.916
 6585SOL     OW19800   4.552   1.580   4.402
 6585SOL    HW119801   4.539   1.640   4.324
 6585SOL    HW219802   4.475   1.516   4.409
 6586SOL     OW19803   5.136   0.215   4.854
 6586SOL    HW119804   5.219   0.173   4.891
 6586SOL    HW219805   5.089   0.265   4.926
 6587SOL     OW19806   4.702   0.055   4.860
 6587SOL    HW119807   4.644   6.990   4.811
 6587SOL    HW219808   4.759   0.005   4.926
 6588SOL     OW19809   4.498   1.332   4.044
 6588SOL    HW119810   4.470   1.236   4.052
 6588SOL    HW219811   4.583   1.345   4.095
 6589SOL     OW19812   4.347   1.559   5.013
 6589SOL    HW119813   4.345   1.646   5.063
 6589SOL    HW219814   4.438   1.546   4.973
 6590SOL     OW19815   5.048   0.017   3.915
 6590SOL    HW119816   5.095   6.950   3.857
 6590SOL    HW219817   4.971   6.972   3.962
 6591SOL     OW19818   4.994   0.454   4.411
 6591SOL    HW119819   4.949   0.543   4.408
 6591SOL    HW219820   5.012   0.429   4.506
 6592SOL     OW19821   5.342   0.258   4.639
 6592SOL    HW119822   5.253   0.235   4.679
 6592SOL    HW219823   5.330   0.321   4.563
 6593SOL     OW19824   3.767   1.065   4.031
 6593SOL    HW119825   3.865   1.064   4.012
 6593SOL    HW219826   3.737   0.972   4.054
 6594SOL     OW19827   4.608   1.661   4.065
 6594SOL    HW119828   4.533   1.640   4.002
 6594SOL    HW219829   4.582   1.739   4.122
 6595SOL     OW19830   3.945   0.620   5.713
 6595SOL    HW119831   3.856   0.619   5.757
 6595SOL    HW219832   3.934   0.599   5.616
 6596SOL     OW19833   3.941   0.307   6.586
 6596SOL    HW119834   3.982   0.264   6.666
 6596SOL    HW219835   3.860   0.255   6.558
 6597SOL     OW19836   3.734   0.394   6.214
 6597SOL    HW119837   3.644   0.414   6.255
 6597SOL    HW219838   3.724   0.320   6.147
 6598SOL     OW19839   4.283   1.281   6.755
 6598SOL    HW119840   4.195   1.301   6.713
 6598SOL    HW219841   4.312   1.359   6.810
 6599SOL     OW19842   5.287   1.512   6.294
 6599SOL    HW119843   5.243   1.490   6.381
 6599SOL    HW219844   5.218   1.520   6.222
 6600SOL     OW19845   4.857   0.702   6.282
 6600SOL    HW119846   4.909   0.786   6.266
 6600SOL    HW219847   4.805   0.710   6.367
 6601SOL     OW19848   5.492   0.602   5.808
 6601SOL    HW119849   5.471   0.598   5.711
 6601SOL    HW219850   5.454   0.522   5.854
 6602SOL     OW19851   4.483   1.144   6.629
 6602SOL    HW119852   4.408   1.170   6.689
 6602SOL    HW219853   4.515   1.225   6.579
 6603SOL     OW19854   4.408   1.000   6.235
 6603SOL    HW119855   4.478   0.989   6.305
 6603SOL    HW219856   4.333   1.055   6.272
 6604SOL     OW19857   4.056   1.413   6.649
 6604SOL    HW119858   3.972   1.380   6.607
 6604SOL    HW219859   4.103   1.474   6.586
 6605SOL     OW19860   5.341   0.459   6.313
 6605SOL    HW119861   5.277   0.487   6.242
 6605SOL    HW219862   5.345   0.530   6.384
 6606SOL     OW19863   3.946   1.714   6.057
 6606SOL    HW119864   3.963   1.793   6.116
 6606SOL    HW219865   4.021   1.704   5.992
 6607SOL     OW19866   3.956   1.443   6.122
 6607SOL    HW119867   3.941   1.542   6.122
 6607SOL    HW219868   3.897   1.400   6.189
 6608SOL     OW19869   3.990   1.091   6.486
 6608SOL    HW119870   3.987   0.997   6.521
 6608SOL    HW219871   3.931   1.149   6.542
 6609SOL     OW19872   4.338   1.805   6.988
 6609SOL    HW119873   4.249   1.777   0.023
 6609SOL    HW219874   4.360   1.896   0.023
 6610SOL     OW19875   4.306   0.987   5.726
 6610SOL    HW119876   4.354   1.034   5.652
 6610SOL    HW219877   4.346   1.015   5.814
 6611SOL     OW19878   3.838   0.661   6.150
 6611SOL    HW119879   3.811   0.566   6.167
 6611SOL    HW219880   3.832   0.713   6.235
 6612SOL     OW19881   5.569   1.756   5.919
 6612SOL    HW119882   5.638   1.725   5.984
 6612SOL    HW219883   5.586   1.852   5.896
 6613SOL     OW19884   3.752   1.591   5.709
 6613SOL    HW119885   3.737   1.494   5.729
 6613SOL    HW219886   3.732   1.645   5.791
 6614SOL     OW19887   5.413   0.919   6.231
 6614SOL    HW119888   5.499   0.870   6.216
 6614SOL    HW219889   5.391   0.973   6.149
 6615SOL     OW19890   5.376   1.105   6.018
 6615SOL    HW119891   5.465   1.103   5.972
 6615SOL    HW219892   5.379   1.172   6.092
 6616SOL     OW19893   4.336   1.390   6.320
 6616SOL    HW119894   4.289   1.302   6.333
 6616SOL    HW219895   4.322   1.420   6.226
 6617SOL     OW19896   4.547   0.027   6.104
 6617SOL    HW119897   4.586   0.117   6.085
 6617SOL    HW219898   4.447   0.034   6.107
 6618SOL     OW19899   3.917   0.978   6.845
 6618SOL    HW119900   4.000   0.924   6.831
 6618SOL    HW219901   3.837   0.923   6.823
 6619SOL     OW19902   5.256   0.999   5.790
 6619SOL    HW119903   5.182   0.939   5.820
 6619SOL    HW219904   5.303   1.037   5.870
 6620SOL     OW19905   5.177   1.423   6.532
 6620SOL    HW119906   5.119   1.437   6.612
 6620SOL    HW219907   5.174   1.327   6.505
 6621SOL     OW19908   5.374   1.748   6.162
 6621SOL    HW119909   5.356   1.718   6.068
 6621SOL    HW219910   5.354   1.673   6.225
 6622SOL     OW19911   4.317   0.719   5.857
 6622SOL    HW119912   4.323   0.805   5.806
 6622SOL    HW219913   4.249   0.728   5.929
 6623SOL     OW19914   5.006   0.364   6.537
 6623SOL    HW119915   4.909   0.340   6.538
 6623SOL    HW219916   5.054   0.313   6.609
 6624SOL     OW19917   5.307   1.672   5.893
 6624SOL    HW119918   5.403   1.700   5.891
 6624SOL    HW219919   5.275   1.655   5.800
 6625SOL     OW19920   4.520   0.621   0.042
 6625SOL    HW119921   4.461   0.652   0.116
 6625SOL    HW219922   4.468   0.561   6.980
 6626SOL     OW19923   4.728   0.389   6.795
 6626SOL    HW119924   4.678   0.447   6.859
 6626SOL    HW219925   4.665   0.352   6.727
 6627SOL     OW19926   4.775   0.698   6.011
 6627SOL    HW119927   4.796   0.694   6.109
 6627SOL    HW219928   4.688   0.652   5.993
 6628SOL     OW19929   3.813   0.827   6.366
 6628SOL    HW119930   3.898   0.815   6.416
 6628SOL    HW219931   3.764   0.907   6.402
 6629SOL     OW19932   3.883   1.852   0.149
 6629SOL    HW119933   3.844   1.779   0.205
 6629SOL    HW219934   3.824   1.867   0.069
 6630SOL     OW19935   4.614   0.355   5.786
 6630SOL    HW119936   4.660   0.416   5.721
 6630SOL    HW219937   4.591   0.269   5.741
 6631SOL     OW19938   5.103   1.142   6.120
 6631SOL    HW119939   5.188   1.127   6.070
 6631SOL    HW219940   5.047   1.210   6.071
 6632SOL     OW19941   4.230   0.198   6.499
 6632SOL    HW119942   4.275   0.241   6.577
 6632SOL    HW219943   4.250   0.251   6.416
 6633SOL     OW19944   4.720   1.443   6.050
 6633SOL    HW119945   4.687   1.523   6.000
 6633SOL    HW219946   4.704   1.456   6.148
 6634SOL     OW19947   4.079   1.814   6.453
 6634SOL    HW119948   4.122   1.724   6.463
 6634SOL    HW219949   4.147   1.885   6.473
 6635SOL     OW19950   5.524   1.056   6.452
 6635SOL    HW119951   5.473   1.034   6.370
 6635SOL    HW219952   5.462   1.057   6.531
 6636SOL     OW19953   4.046   0.959   5.840
 6636SOL    HW119954   4.134   0.979   5.796
 6636SOL    HW219955   4.009   0.873   5.802
 6637SOL     OW19956   5.206   0.748   6.308
 6637SOL    HW119957   5.199   0.704   6.398
 6637SOL    HW219958   5.286   0.808   6.308
 6638SOL     OW19959   4.845   1.776   5.813
 6638SOL    HW119960   4.767   1.738   5.861
 6638SOL    HW219961   4.875   1.712   5.742
 6639SOL     OW19962   5.349   1.381   5.673
 6639SOL    HW119963   5.310   1.472   5.658
 6639SOL    HW219964   5.279   1.312   5.655
 6640SOL     OW19965   4.189   1.735   5.905
 6640SOL    HW119966   4.230   1.797   5.971
 6640SOL    HW219967   4.260   1.699   5.844
 6641SOL     OW19968   5.149   0.131   6.011
 6641SOL    HW119969   5.128   0.088   5.924
 6641SOL    HW219970   5.248   0.137   6.023
 6642SOL     OW19971   3.993   1.799   6.819
 6642SOL    HW119972   4.041   1.739   6.882
 6642SOL    HW219973   3.950   1.743   6.747
 6643SOL     OW19974   4.660   1.700   6.481
 6643SOL    HW119975   4.744   1.655   6.509
 6643SOL    HW219976   4.617   1.649   6.407
 6644SOL     OW19977   4.119   0.687   6.061
 6644SOL    HW119978   4.139   0.590   6.074
 6644SOL    HW219979   4.022   0.703   6.079
 6645SOL     OW19980   4.368   0.112   5.688
 6645SOL    HW119981   4.407   0.037   5.742
 6645SOL    HW219982   4.306   0.074   5.619
 6646SOL     OW19983   4.593   1.519   6.762
 6646SOL    HW119984   4.575   1.484   6.670
 6646SOL    HW219985   4.632   1.446   6.818
 6647SOL     OW19986   4.543   1.390   6.520
 6647SOL    HW119987   4.633   1.379   6.478
 6647SOL    HW219988   4.472   1.394   6.449
 6648SOL     OW19989   4.652   0.510   6.483
 6648SOL    HW119990   4.623   0.505   6.387
 6648SOL    HW219991   4.689   0.421   6.511
 6649SOL     OW19992   4.279   0.066   6.081
 6649SOL    HW119993   4.197   0.056   6.138
 6649SOL    HW219994   4.266   0.142   6.018
 6650SOL     OW19995   5.150   1.198   5.629
 6650SOL    HW119996   5.183   1.121   5.682
 6650SOL    HW219997   5.061   1.227   5.665
 6651SOL     OW19998   4.034   0.048   5.773
 6651SOL    HW119999   4.075   0.139   5.767
 6651SOL    HW220000   4.089   6.990   5.834
 6652SOL     OW20001   4.672   0.265   6.043
 6652SOL    HW120002   4.642   0.301   5.955
 6652SOL    HW220003   4.771   0.273   6.050
 6653SOL     OW20004   4.943   1.570   6.381
 6653SOL    HW120005   4.957   1.641   6.312
 6653SOL    HW220006   5.021   1.569   6.444
 6654SOL     OW20007   4.192   1.150   6.316
 6654SOL    HW120008   4.124   1.131   6.387
 6654SOL    HW220009   4.150   1.137   6.226
 6655SOL     OW20010   4.987   1.792   6.196
 6655SOL    HW120011   5.039   1.854   6.137
 6655SOL    HW220012   4.914   1.842   6.241
 6656SOL     OW20013   4.742   0.537   5.617
 6656SOL    HW120014   4.698   0.624   5.594
 6656SOL    HW220015   4.813   0.553   5.686
 6657SOL     OW20016   4.301   0.221   6.775
 6657SOL    HW120017   4.321   0.128   6.744
 6657SOL    HW220018   4.204   0.228   6.797
 6658SOL     OW20019   4.589   0.466   6.222
 6658SOL    HW120020   4.539   0.525   6.159
 6658SOL    HW220021   4.617   0.382   6.175
 6659SOL     OW20022   4.680   0.032   6.349
 6659SOL    HW120023   4.626   0.028   6.265
 6659SOL    HW220024   4.749   6.960   6.348
 6660SOL     OW20025   5.164   1.160   6.442
 6660SOL    HW120026   5.094   1.089   6.444
 6660SOL    HW220027   5.195   1.174   6.348
 6661SOL     OW20028   5.188   0.605   6.552
 6661SOL    HW120029   5.128   0.525   6.558
 6661SOL    HW220030   5.254   0.603   6.627
 6662SOL     OW20031   5.567   0.810   5.965
 6662SOL    HW120032   5.625   0.762   6.032
 6662SOL    HW220033   5.537   0.746   5.895
 6663SOL     OW20034   4.211   1.420   5.742
 6663SOL    HW120035   4.131   1.393   5.795
 6663SOL    HW220036   4.208   1.376   5.652
 6664SOL     OW20037   5.398   1.267   6.230
 6664SOL    HW120038   5.497   1.263   6.242
 6664SOL    HW220039   5.364   1.358   6.251
 6665SOL     OW20040   5.115   0.575   5.657
 6665SOL    HW120041   5.051   0.552   5.731
 6665SOL    HW220042   5.209   0.559   5.688
 6666SOL     OW20043   4.247   0.263   5.890
 6666SOL    HW120044   4.304   0.214   5.824
 6666SOL    HW220045   4.223   0.353   5.853
 6667SOL     OW20046   5.481   1.180   0.171
 6667SOL    HW120047   5.579   1.166   0.155
 6667SOL    HW220048   5.457   1.273   0.146
 6668SOL     OW20049   4.843   1.236   6.695
 6668SOL    HW120050   4.759   1.199   6.733
 6668SOL    HW220051   4.829   1.260   6.599
 6669SOL     OW20052   5.344   1.084   6.651
 6669SOL    HW120053   5.345   1.155   6.721
 6669SOL    HW220054   5.268   1.102   6.587
 6670SOL     OW20055   4.436   1.059   5.959
 6670SOL    HW120056   4.419   1.042   6.056
 6670SOL    HW220057   4.515   1.005   5.929
 6671SOL     OW20058   4.149   0.814   6.846
 6671SOL    HW120059   4.207   0.838   6.924
 6671SOL    HW220060   4.112   0.722   6.860
 6672SOL     OW20061   4.988   0.385   6.871
 6672SOL    HW120062   5.018   0.463   6.926
 6672SOL    HW220063   4.895   0.401   6.837
 6673SOL     OW20064   3.814   1.562   6.859
 6673SOL    HW120065   3.751   1.636   6.882
 6673SOL    HW220066   3.890   1.560   6.924
 6674SOL     OW20067   4.068   1.117   6.073
 6674SOL    HW120068   4.073   1.199   6.016
 6674SOL    HW220069   4.065   1.036   6.015
 6675SOL     OW20070   4.275   0.547   6.447
 6675SOL    HW120071   4.289   0.605   6.367
 6675SOL    HW220072   4.346   0.567   6.515
 6676SOL     OW20073   4.970   1.354   5.978
 6676SOL    HW120074   5.031   1.427   6.009
 6676SOL    HW220075   4.877   1.374   6.008
 6677SOL     OW20076   5.005   1.450   6.746
 6677SOL    HW120077   5.040   1.441   6.840
 6677SOL    HW220078   4.944   1.374   6.726
 6678SOL     OW20079   5.296   0.624   6.068
 6678SOL    HW120080   5.250   0.677   6.139
 6678SOL    HW220081   5.349   0.685   6.009
 6679SOL     OW20082   4.091   1.497   6.905
 6679SOL    HW120083   4.059   1.460   6.818
 6679SOL    HW220084   4.186   1.527   6.896
 6680SOL     OW20085   4.309   0.871   6.623
 6680SOL    HW120086   4.341   0.965   6.617
 6680SOL    HW220087   4.248   0.861   6.702
 6681SOL     OW20088   5.072   0.856   6.596
 6681SOL    HW120089   4.982   0.842   6.557
 6681SOL    HW220090   5.124   0.771   6.594
 6682SOL     OW20091   4.923   0.527   5.850
 6682SOL    HW120092   4.935   0.444   5.905
 6682SOL    HW220093   4.878   0.597   5.906
 6683SOL     OW20094   4.036   0.210   6.835
 6683SOL    HW120095   3.977   0.211   6.916
 6683SOL    HW220096   4.033   0.119   6.793
 6684SOL     OW20097   3.751   1.301   6.868
 6684SOL    HW120098   3.804   1.253   6.938
 6684SOL    HW220099   3.778   1.398   6.866
 6685SOL     OW20100   4.450   0.629   6.641
 6685SOL    HW120101   4.528   0.609   6.582
 6685SOL    HW220102   4.417   0.722   6.624
 6686SOL     OW20103   4.045   0.060   6.218
 6686SOL    HW120104   4.021   0.153   6.244
 6686SOL    HW220105   3.993   6.995   6.274
 6687SOL     OW20106   5.350   0.393   5.931
 6687SOL    HW120107   5.379   0.314   5.987
 6687SOL    HW220108   5.319   0.466   5.991
 6688SOL     OW20109   4.747   0.757   6.550
 6688SOL    HW120110   4.741   0.777   6.648
 6688SOL    HW220111   4.721   0.662   6.534
 6689SOL     OW20112   5.264   0.235   5.721
 6689SOL    HW120113   5.164   0.229   5.731
 6689SOL    HW220114   5.301   0.294   5.793
 6690SOL     OW20115   5.013   0.826   5.613
 6690SOL    HW120116   5.053   0.735   5.620
 6690SOL    HW220117   5.044   0.869   5.528
 6691SOL     OW20118   4.796   1.336   6.439
 6691SOL    HW120119   4.799   1.259   6.376
 6691SOL    HW220120   4.854   1.410   6.404
 6692SOL     OW20121   4.037   0.807   6.528
 6692SOL    HW120122   4.133   0.834   6.521
 6692SOL    HW220123   4.031   0.713   6.560
 6693SOL     OW20124   4.064   0.539   6.607
 6693SOL    HW120125   4.018   0.451   6.592
 6693SOL    HW220126   4.142   0.546   6.546
 6694SOL     OW20127   4.856   0.222   0.064
 6694SOL    HW120128   4.883   0.285   0.136
 6694SOL    HW220129   4.888   0.257   6.976
 6695SOL     OW20130   3.725   1.316   5.780
 6695SOL    HW120131   3.635   1.335   5.740
 6695SOL    HW220132   3.726   1.222   5.816
 6696SOL     OW20133   3.815   1.789   6.527
 6696SOL    HW120134   3.780   1.706   6.484
 6696SOL    HW220135   3.911   1.803   6.500
 6697SOL     OW20136   4.218   1.578   6.491
 6697SOL    HW120137   4.288   1.643   6.519
 6697SOL    HW220138   4.258   1.509   6.430
 6698SOL     OW20139   4.705   0.796   6.822
 6698SOL    HW120140   4.783   0.774   6.881
 6698SOL    HW220141   4.622   0.754   6.860
 6699SOL     OW20142   3.773   0.557   6.712
 6699SOL    HW120143   3.823   0.509   6.639
 6699SOL    HW220144   3.838   0.587   6.782
 6700SOL     OW20145   4.541   0.576   5.946
 6700SOL    HW120146   4.551   0.495   5.888
 6700SOL    HW220147   4.462   0.629   5.916
 6701SOL     OW20148   5.371   0.611   6.752
 6701SOL    HW120149   5.356   0.553   6.832
 6701SOL    HW220150   5.466   0.600   6.721
 6702SOL     OW20151   4.400   0.468   6.853
 6702SOL    HW120152   4.369   0.377   6.823
 6702SOL    HW220153   4.413   0.526   6.773
 6703SOL     OW20154   4.667   1.662   6.998
 6703SOL    HW120155   4.634   1.653   6.904
 6703SOL    HW220156   4.648   1.755   0.031
 6704SOL     OW20157   4.184   0.496   5.766
 6704SOL    HW120158   4.248   0.567   5.792
 6704SOL    HW220159   4.093   0.535   5.755
 6705SOL     OW20160   3.881   1.142   0.058
 6705SOL    HW120161   3.934   1.100   0.131
 6705SOL    HW220162   3.891   1.088   6.974
 6706SOL     OW20163   5.011   1.008   6.814
 6706SOL    HW120164   5.050   0.956   6.737
 6706SOL    HW220165   4.982   1.098   6.782
 6707SOL     OW20166   5.039   0.856   5.885
 6707SOL    HW120167   4.962   0.829   5.944
 6707SOL    HW220168   5.013   0.844   5.789
 6708SOL     OW20169   5.480   1.759   6.724
 6708SOL    HW120170   5.555   1.781   6.662
 6708SOL    HW220171   5.458   1.661   6.716
 6709SOL     OW20172   4.971   1.726   6.700
 6709SOL    HW120173   5.055   1.755   6.653
 6709SOL    HW220174   4.976   1.628   6.718
 6710SOL     OW20175   3.805   1.265   6.600
 6710SOL    HW120176   3.786   1.273   6.697
 6710SOL    HW220177   3.738   1.204   6.557
 6711SOL     OW20178   5.431   0.165   6.056
 6711SOL    HW120179   5.516   0.147   6.007
 6711SOL    HW220180   5.427   0.107   6.137
 6712SOL     OW20181   5.119   1.570   6.073
 6712SOL    HW120182   5.182   1.602   6.002
 6712SOL    HW220183   5.064   1.647   6.106
 6713SOL     OW20184   5.006   0.928   6.253
 6713SOL    HW120185   5.080   0.863   6.269
 6713SOL    HW220186   5.039   1.004   6.198
 6714SOL     OW20187   4.393   1.621   5.740
 6714SOL    HW120188   4.409   1.639   5.643
 6714SOL    HW220189   4.334   1.540   5.750
 6715SOL     OW20190   5.590   0.164   6.532
 6715SOL    HW120191   5.586   0.064   6.529
 6715SOL    HW220192   5.498   0.201   6.518
 6716SOL     OW20193   3.983   0.313   6.303
 6716SOL    HW120194   3.894   0.349   6.274
 6716SOL    HW220195   3.989   0.313   6.403
 6717SOL     OW20196   4.932   1.601   5.619
 6717SOL    HW120197   4.923   1.507   5.652
 6717SOL    HW220198   4.865   1.618   5.547
 6718SOL     OW20199   4.502   1.027   6.951
 6718SOL    HW120200   4.559   0.987   6.880
 6718SOL    HW220201   4.546   1.109   6.988
 6719SOL     OW20202   4.644   0.911   5.873
 6719SOL    HW120203   4.705   0.946   5.803
 6719SOL    HW220204   4.690   0.839   5.925
 6720SOL     OW20205   5.212   1.629   5.628
 6720SOL    HW120206   5.114   1.618   5.617
 6720SOL    HW220207   5.256   1.635   5.538
 6721SOL     OW20208   5.339   1.279   6.835
 6721SOL    HW120209   5.429   1.281   6.879
 6721SOL    HW220210   5.270   1.257   6.903
 6722SOL     OW20211   4.784   1.106   6.300
 6722SOL    HW120212   4.707   1.055   6.339
 6722SOL    HW220213   4.852   1.042   6.265
 6723SOL     OW20214   4.749   0.246   6.524
 6723SOL    HW120215   4.722   0.195   6.442
 6723SOL    HW220216   4.747   0.185   6.603
 6724SOL     OW20217   4.328   1.486   6.066
 6724SOL    HW120218   4.379   1.432   5.999
 6724SOL    HW220219   4.255   1.535   6.021
 6725SOL     OW20220   5.424   0.429   6.947
 6725SOL    HW120221   5.489   0.439   0.022
 6725SOL    HW220222   5.440   0.342   6.900
 6726SOL     OW20223   3.977   1.348   5.874
 6726SOL    HW120224   3.881   1.341   5.847
 6726SOL    HW220225   3.983   1.386   5.966
 6727SOL     OW20226   3.799   0.334   5.620
 6727SOL    HW120227   3.703   0.312   5.603
 6727SOL    HW220228   3.825   0.414   5.565
 6728SOL     OW20229   3.798   0.178   5.905
 6728SOL    HW120230   3.798   0.249   5.834
 6728SOL    HW220231   3.851   0.099   5.874
 6729SOL     OW20232   4.904   1.338   5.706
 6729SOL    HW120233   4.809   1.308   5.700
 6729SOL    HW220234   4.933   1.339   5.802
 6730SOL     OW20235   5.215   1.783   6.578
 6730SOL    HW120236   5.229   1.844   6.500
 6730SOL    HW220237   5.303   1.764   6.621
 6731SOL     OW20238   5.217   1.292   0.283
 6731SOL    HW120239   5.125   1.283   0.322
 6731SOL    HW220240   5.252   1.201   0.260
 6732SOL     OW20241   4.110   1.727   0.090
 6732SOL    HW120242   4.030   1.781   0.117
 6732SOL    HW220243   4.102   1.635   0.129
 6733SOL     OW20244   5.421   0.878   6.830
 6733SOL    HW120245   5.389   0.788   6.800
 6733SOL    HW220246   5.387   0.948   6.766
 6734SOL     OW20247   4.948   0.318   6.043
 6734SOL    HW120248   5.017   0.247   6.035
 6734SOL    HW220249   4.968   0.375   6.123
 6735SOL     OW20250   4.311   0.738   6.253
 6735SOL    HW120251   4.352   0.828   6.242
 6735SOL    HW220252   4.241   0.724   6.183
 6736SOL     OW20253   5.493   0.905   0.094
 6736SOL    HW120254   5.481   1.001   0.121
 6736SOL    HW220255   5.467   0.895   6.998
 6737SOL     OW20256   4.590   1.364   5.628
 6737SOL    HW120257   4.549   1.388   5.716
 6737SOL    HW220258   4.605   1.447   5.575
 6738SOL     OW20259   4.390   1.787   6.533
 6738SOL    HW120260   4.366   1.880   6.507
 6738SOL    HW220261   4.489   1.773   6.519
 6739SOL     OW20262   4.593   0.969   6.443
 6739SOL    HW120263   4.643   0.891   6.480
 6739SOL    HW220264   4.553   1.023   6.517
 6740SOL     OW20265   4.802   0.989   5.670
 6740SOL    HW120266   4.774   1.043   5.590
 6740SOL    HW220267   4.880   0.931   5.646
 6741SOL     OW20268   5.574   1.557   6.431
 6741SOL    HW120269   5.494   1.544   6.373
 6741SOL    HW220270   5.570   1.495   6.509
 6742SOL     OW20271   3.810   1.229   6.249
 6742SOL    HW120272   3.813   1.183   6.338
 6742SOL    HW220273   3.880   1.190   6.189
 6743SOL     OW20274   5.574   0.189   6.849
 6743SOL    HW120275   5.504   0.120   6.865
 6743SOL    HW220276   5.581   0.208   6.751
 6744SOL     OW20277   4.155   0.426   6.111
 6744SOL    HW120278   4.189   0.356   6.049
 6744SOL    HW220279   4.100   0.384   6.183
 6745SOL     OW20280   5.404   1.503   6.676
 6745SOL    HW120281   5.326   1.481   6.617
 6745SOL    HW220282   5.416   1.429   6.742
 6746SOL     OW20283   4.037   0.550   6.879
 6746SOL    HW120284   4.107   0.497   6.928
 6746SOL    HW220285   4.051   0.542   6.781
 6747SOL     OW20286   4.553   1.579   6.263
 6747SOL    HW120287   4.540   1.640   6.185
 6747SOL    HW220288   4.475   1.516   6.269
 6748SOL     OW20289   5.134   0.213   6.721
 6748SOL    HW120290   5.223   0.181   6.754
 6748SOL    HW220291   5.091   0.268   6.792
 6749SOL     OW20292   4.720   0.049   6.709
 6749SOL    HW120293   4.637   6.995   6.695
 6749SOL    HW220294   4.765   0.020   6.793
 6750SOL     OW20295   4.498   1.332   5.906
 6750SOL    HW120296   4.470   1.236   5.914
 6750SOL    HW220297   4.583   1.345   5.957
 6751SOL     OW20298   4.348   1.565   6.865
 6751SOL    HW120299   4.345   1.660   6.895
 6751SOL    HW220300   4.435   1.547   6.819
 6752SOL     OW20301   5.048   0.017   5.777
 6752SOL    HW120302   5.095   6.950   5.719
 6752SOL    HW220303   4.972   6.973   5.824
 6753SOL     OW20304   4.994   0.454   6.274
 6753SOL    HW120305   4.949   0.543   6.272
 6753SOL    HW220306   5.012   0.428   6.369
 6754SOL     OW20307   5.340   0.261   6.498
 6754SOL    HW120308   5.249   0.237   6.532
 6754SOL    HW220309   5.331   0.324   6.421
 6755SOL     OW20310   3.767   1.065   5.893
 6755SOL    HW120311   3.865   1.065   5.874
 6755SOL    HW220312   3.737   0.972   5.915
 6756SOL     OW20313   4.608   1.661   5.927
 6756SOL    HW120314   4.533   1.640   5.864
 6756SOL    HW220315   4.582   1.739   5.984
 6757SOL     OW20316   3.945   2.499   0.136
 6757SOL    HW120317   3.849   2.483   0.161
 6757SOL    HW220318   3.957   2.479   0.038
 6758SOL     OW20319   3.946   2.144   0.994
 6758SOL    HW120320   3.979   2.110   1.082
 6758SOL    HW220321   3.853   2.112   0.978
 6759SOL     OW20322   3.725   2.249   0.637
 6759SOL    HW120323   3.643   2.283   0.683
 6759SOL    HW220324   3.704   2.163   0.591
 6760SOL     OW20325   4.293   3.158   1.184
 6760SOL    HW120326   4.202   3.154   1.141
 6760SOL    HW220327   4.310   3.250   1.218
 6761SOL     OW20328   5.287   3.375   0.708
 6761SOL    HW120329   5.245   3.350   0.796
 6761SOL    HW220330   5.217   3.378   0.638
 6762SOL     OW20331   4.856   2.563   0.696
 6762SOL    HW120332   4.909   2.646   0.680
 6762SOL    HW220333   4.805   2.572   0.782
 6763SOL     OW20334   5.508   2.442   0.202
 6763SOL    HW120335   5.442   2.490   0.144
 6763SOL    HW220336   5.459   2.379   0.263
 6764SOL     OW20337   4.469   3.003   1.040
 6764SOL    HW120338   4.401   3.037   1.105
 6764SOL    HW220339   4.513   3.080   0.994
 6765SOL     OW20340   4.597   2.628   1.821
 6765SOL    HW120341   4.585   2.696   1.893
 6765SOL    HW220342   4.621   2.674   1.735
 6766SOL     OW20343   4.407   2.859   0.651
 6766SOL    HW120344   4.478   2.850   0.720
 6766SOL    HW220345   4.333   2.916   0.686
 6767SOL     OW20346   4.435   3.015   1.817
 6767SOL    HW120347   4.487   3.094   1.850
 6767SOL    HW220348   4.350   3.047   1.776
 6768SOL     OW20349   4.050   3.286   1.066
 6768SOL    HW120350   3.974   3.241   1.019
 6768SOL    HW220351   4.104   3.338   0.999
 6769SOL     OW20352   5.182   3.363   1.357
 6769SOL    HW120353   5.240   3.445   1.364
 6769SOL    HW220354   5.112   3.365   1.429
 6770SOL     OW20355   4.174   2.256   1.480
 6770SOL    HW120356   4.255   2.198   1.487
 6770SOL    HW220357   4.092   2.202   1.497
 6771SOL     OW20358   5.337   2.311   0.747
 6771SOL    HW120359   5.263   2.332   0.683
 6771SOL    HW220360   5.347   2.386   0.812
 6772SOL     OW20361   3.944   3.585   0.470
 6772SOL    HW120362   3.962   3.664   0.529
 6772SOL    HW220363   4.029   3.557   0.425
 6773SOL     OW20364   4.861   3.202   1.698
 6773SOL    HW120365   4.908   3.200   1.786
 6773SOL    HW220366   4.805   3.120   1.688
 6774SOL     OW20367   3.938   3.310   0.533
 6774SOL    HW120368   3.927   3.408   0.543
 6774SOL    HW220369   3.887   3.262   0.605
 6775SOL     OW20370   3.991   2.952   0.900
 6775SOL    HW120371   3.987   2.858   0.933
 6775SOL    HW220372   3.929   3.009   0.953
 6776SOL     OW20373   4.324   3.659   1.426
 6776SOL    HW120374   4.241   3.635   1.476
 6776SOL    HW220375   4.355   3.749   1.454
 6777SOL     OW20376   4.311   2.830   0.146
 6777SOL    HW120377   4.369   2.852   0.067
 6777SOL    HW220378   4.348   2.875   0.228
 6778SOL     OW20379   5.320   1.986   1.469
 6778SOL    HW120380   5.339   2.066   1.412
 6778SOL    HW220381   5.307   2.016   1.564
 6779SOL     OW20382   3.839   2.515   0.562
 6779SOL    HW120383   3.809   2.422   0.582
 6779SOL    HW220384   3.833   2.571   0.645
 6780SOL     OW20385   5.560   3.626   0.349
 6780SOL    HW120386   5.631   3.595   0.412
 6780SOL    HW220387   5.566   3.725   0.337
 6781SOL     OW20388   3.739   3.442   0.147
 6781SOL    HW120389   3.668   3.375   0.126
 6781SOL    HW220390   3.716   3.489   0.232
 6782SOL     OW20391   5.415   2.776   0.650
 6782SOL    HW120392   5.499   2.726   0.631
 6782SOL    HW220393   5.393   2.834   0.571
 6783SOL     OW20394   5.379   2.958   0.445
 6783SOL    HW120395   5.448   2.977   0.375
 6783SOL    HW220396   5.384   3.027   0.517
 6784SOL     OW20397   3.847   2.606   1.585
 6784SOL    HW120398   3.944   2.632   1.587
 6784SOL    HW220399   3.791   2.689   1.588
 6785SOL     OW20400   4.336   3.251   0.737
 6785SOL    HW120401   4.289   3.163   0.750
 6785SOL    HW220402   4.326   3.280   0.642
 6786SOL     OW20403   5.013   3.097   1.422
 6786SOL    HW120404   5.040   3.027   1.356
 6786SOL    HW220405   5.072   3.093   1.502
 6787SOL     OW20406   4.542   1.874   0.514
 6787SOL    HW120407   4.588   1.960   0.490
 6787SOL    HW220408   4.444   1.889   0.522
 6788SOL     OW20409   3.915   2.824   1.276
 6788SOL    HW120410   4.003   2.781   1.261
 6788SOL    HW220411   3.845   2.776   1.223
 6789SOL     OW20412   5.217   2.881   0.213
 6789SOL    HW120413   5.149   2.814   0.245
 6789SOL    HW220414   5.303   2.867   0.262
 6790SOL     OW20415   4.905   3.672   1.622
 6790SOL    HW120416   4.914   3.740   1.549
 6790SOL    HW220417   4.926   3.581   1.585
 6791SOL     OW20418   4.064   2.111   1.829
 6791SOL    HW120419   4.113   2.197   1.844
 6791SOL    HW220420   3.967   2.124   1.850
 6792SOL     OW20421   5.188   3.282   0.948
 6792SOL    HW120422   5.121   3.301   1.020
 6792SOL    HW220423   5.180   3.187   0.919
 6793SOL     OW20424   5.368   3.612   0.583
 6793SOL    HW120425   5.350   3.585   0.488
 6793SOL    HW220426   5.350   3.534   0.644
 6794SOL     OW20427   4.324   2.579   0.266
 6794SOL    HW120428   4.330   2.669   0.223
 6794SOL    HW220429   4.259   2.583   0.342
 6795SOL     OW20430   5.001   2.218   0.932
 6795SOL    HW120431   4.907   2.185   0.940
 6795SOL    HW220432   5.061   2.167   0.994
 6796SOL     OW20433   5.300   3.538   0.316
 6796SOL    HW120434   5.395   3.570   0.315
 6796SOL    HW220435   5.266   3.530   0.223
 6797SOL     OW20436   4.514   2.475   1.450
 6797SOL    HW120437   4.489   2.452   1.544
 6797SOL    HW220438   4.475   2.407   1.387
 6798SOL     OW20439   5.115   2.332   1.679
 6798SOL    HW120440   5.115   2.381   1.766
 6798SOL    HW220441   5.177   2.254   1.685
 6799SOL     OW20442   4.677   2.747   1.583
 6799SOL    HW120443   4.735   2.675   1.545
 6799SOL    HW220444   4.623   2.789   1.509
 6800SOL     OW20445   4.718   2.268   1.230
 6800SOL    HW120446   4.629   2.292   1.270
 6800SOL    HW220447   4.704   2.219   1.145
 6801SOL     OW20448   4.774   2.563   0.429
 6801SOL    HW120449   4.797   2.560   0.526
 6801SOL    HW220450   4.689   2.514   0.413
 6802SOL     OW20451   3.814   2.686   0.777
 6802SOL    HW120452   3.899   2.675   0.829
 6802SOL    HW220453   3.764   2.765   0.813
 6803SOL     OW20454   3.852   3.731   1.587
 6803SOL    HW120455   3.857   3.704   1.683
 6803SOL    HW220456   3.766   3.700   1.547
 6804SOL     OW20457   4.612   2.204   0.206
 6804SOL    HW120458   4.662   2.265   0.145
 6804SOL    HW220459   4.628   2.109   0.180
 6805SOL     OW20460   5.426   2.435   1.826
 6805SOL    HW120461   5.390   2.514   1.776
 6805SOL    HW220462   5.456   2.365   1.761
 6806SOL     OW20463   5.106   3.003   0.549
 6806SOL    HW120464   5.189   2.990   0.496
 6806SOL    HW220465   5.046   3.069   0.504
 6807SOL     OW20466   4.271   2.037   0.900
 6807SOL    HW120467   4.275   2.066   0.995
 6807SOL    HW220468   4.274   2.117   0.840
 6808SOL     OW20469   4.716   3.301   0.470
 6808SOL    HW120470   4.684   3.382   0.420
 6808SOL    HW220471   4.699   3.314   0.568
 6809SOL     OW20472   4.080   3.675   0.868
 6809SOL    HW120473   4.124   3.585   0.875
 6809SOL    HW220474   4.147   3.747   0.888
 6810SOL     OW20475   5.523   2.917   0.873
 6810SOL    HW120476   5.473   2.895   0.790
 6810SOL    HW220477   5.460   2.923   0.950
 6811SOL     OW20478   4.950   3.398   1.514
 6811SOL    HW120479   4.937   3.324   1.580
 6811SOL    HW220480   4.884   3.389   1.441
 6812SOL     OW20481   4.039   2.822   0.229
 6812SOL    HW120482   4.132   2.835   0.194
 6812SOL    HW220483   4.010   2.728   0.210
 6813SOL     OW20484   5.207   2.607   0.724
 6813SOL    HW120485   5.202   2.566   0.815
 6813SOL    HW220486   5.287   2.667   0.719
 6814SOL     OW20487   4.192   3.127   1.731
 6814SOL    HW120488   4.166   3.133   1.635
 6814SOL    HW220489   4.110   3.124   1.788
 6815SOL     OW20490   4.843   3.628   0.241
 6815SOL    HW120491   4.771   3.582   0.293
 6815SOL    HW220492   4.881   3.566   0.173
 6816SOL     OW20493   3.926   2.138   1.502
 6816SOL    HW120494   3.844   2.195   1.498
 6816SOL    HW220495   3.905   2.052   1.549
 6817SOL     OW20496   5.370   3.292   0.101
 6817SOL    HW120497   5.323   3.376   0.072
 6817SOL    HW220498   5.306   3.233   0.149
 6818SOL     OW20499   4.208   3.562   0.377
 6818SOL    HW120500   4.237   3.646   0.422
 6818SOL    HW220501   4.267   3.544   0.298
 6819SOL     OW20502   3.982   3.654   1.227
 6819SOL    HW120503   4.033   3.582   1.275
 6819SOL    HW220504   3.964   3.625   1.133
 6820SOL     OW20505   4.660   3.564   0.897
 6820SOL    HW120506   4.743   3.516   0.927
 6820SOL    HW220507   4.617   3.512   0.823
 6821SOL     OW20508   4.121   2.549   0.470
 6821SOL    HW120509   4.141   2.453   0.488
 6821SOL    HW220510   4.024   2.568   0.489
 6822SOL     OW20511   5.253   2.085   1.728
 6822SOL    HW120512   5.264   2.106   1.825
 6822SOL    HW220513   5.181   2.017   1.716
 6823SOL     OW20514   4.488   2.138   1.757
 6823SOL    HW120515   4.572   2.084   1.751
 6823SOL    HW220516   4.436   2.111   1.838
 6824SOL     OW20517   4.599   3.377   1.193
 6824SOL    HW120518   4.579   3.341   1.101
 6824SOL    HW220519   4.672   3.323   1.235
 6825SOL     OW20520   5.064   2.451   1.435
 6825SOL    HW120521   5.094   2.416   1.524
 6825SOL    HW220522   5.099   2.543   1.422
 6826SOL     OW20523   4.543   3.252   0.941
 6826SOL    HW120524   4.633   3.240   0.898
 6826SOL    HW220525   4.473   3.257   0.870
 6827SOL     OW20526   4.651   2.369   0.900
 6827SOL    HW120527   4.625   2.361   0.803
 6827SOL    HW220528   4.684   2.280   0.932
 6828SOL     OW20529   4.273   1.934   0.504
 6828SOL    HW120530   4.190   1.931   0.559
 6828SOL    HW220531   4.269   2.012   0.442
 6829SOL     OW20532   5.146   3.075   0.013
 6829SOL    HW120533   5.174   2.993   0.064
 6829SOL    HW220534   5.062   3.112   0.054
 6830SOL     OW20535   4.672   2.111   0.461
 6830SOL    HW120536   4.639   2.152   0.376
 6830SOL    HW220537   4.771   2.126   0.469
 6831SOL     OW20538   4.804   2.545   1.456
 6831SOL    HW120539   4.729   2.479   1.461
 6831SOL    HW220540   4.891   2.496   1.451
 6832SOL     OW20541   4.943   3.429   0.796
 6832SOL    HW120542   4.957   3.499   0.726
 6832SOL    HW220543   5.016   3.436   0.865
 6833SOL     OW20544   4.194   3.014   0.732
 6833SOL    HW120545   4.124   2.992   0.799
 6833SOL    HW220546   4.156   3.005   0.640
 6834SOL     OW20547   4.982   3.648   0.611
 6834SOL    HW120548   5.037   3.710   0.555
 6834SOL    HW220549   4.910   3.699   0.657
 6835SOL     OW20550   4.786   2.440   0.031
 6835SOL    HW120551   4.691   2.464   0.050
 6835SOL    HW220552   4.835   2.429   0.118
 6836SOL     OW20553   3.809   2.419   1.391
 6836SOL    HW120554   3.904   2.414   1.359
 6836SOL    HW220555   3.802   2.490   1.461
 6837SOL     OW20556   4.282   2.086   1.171
 6837SOL    HW120557   4.332   2.009   1.213
 6837SOL    HW220558   4.187   2.084   1.201
 6838SOL     OW20559   4.590   2.319   0.639
 6838SOL    HW120560   4.545   2.382   0.575
 6838SOL    HW220561   4.617   2.236   0.590
 6839SOL     OW20562   4.742   1.911   0.743
 6839SOL    HW120563   4.678   1.912   0.666
 6839SOL    HW220564   4.718   1.838   0.806
 6840SOL     OW20565   5.170   3.023   0.860
 6840SOL    HW120566   5.094   2.958   0.861
 6840SOL    HW220567   5.202   3.034   0.766
 6841SOL     OW20568   5.192   2.470   0.973
 6841SOL    HW120569   5.131   2.390   0.972
 6841SOL    HW220570   5.253   2.464   1.051
 6842SOL     OW20571   5.554   2.668   0.390
 6842SOL    HW120572   5.614   2.607   0.442
 6842SOL    HW220573   5.546   2.635   0.296
 6843SOL     OW20574   4.199   3.285   0.153
 6843SOL    HW120575   4.138   3.238   0.216
 6843SOL    HW220576   4.160   3.283   0.060
 6844SOL     OW20577   5.396   3.127   0.652
 6844SOL    HW120578   5.496   3.125   0.661
 6844SOL    HW220579   5.363   3.221   0.667
 6845SOL     OW20580   5.115   2.416   0.068
 6845SOL    HW120581   5.055   2.413   0.147
 6845SOL    HW220582   5.179   2.339   0.071
 6846SOL     OW20583   4.239   2.127   0.313
 6846SOL    HW120584   4.250   2.060   0.240
 6846SOL    HW220585   4.216   2.216   0.274
 6847SOL     OW20586   5.477   3.102   1.563
 6847SOL    HW120587   5.567   3.060   1.550
 6847SOL    HW220588   5.488   3.196   1.596
 6848SOL     OW20589   4.778   3.212   1.336
 6848SOL    HW120590   4.697   3.182   1.386
 6848SOL    HW220591   4.860   3.172   1.378
 6849SOL     OW20592   5.337   3.491   1.656
 6849SOL    HW120593   5.322   3.526   1.564
 6849SOL    HW220594   5.423   3.440   1.659
 6850SOL     OW20595   4.860   3.080   1.105
 6850SOL    HW120596   4.800   3.114   1.178
 6850SOL    HW220597   4.826   3.110   1.016
 6851SOL     OW20598   5.348   2.958   1.079
 6851SOL    HW120599   5.344   3.024   1.155
 6851SOL    HW220600   5.273   2.975   1.016
 6852SOL     OW20601   4.647   1.956   1.392
 6852SOL    HW120602   4.668   1.934   1.297
 6852SOL    HW220603   4.726   2.000   1.434
 6853SOL     OW20604   4.703   2.976   1.721
 6853SOL    HW120605   4.609   2.996   1.748
 6853SOL    HW220606   4.706   2.894   1.665
 6854SOL     OW20607   4.437   2.919   0.375
 6854SOL    HW120608   4.419   2.903   0.472
 6854SOL    HW220609   4.517   2.866   0.347
 6855SOL     OW20610   4.146   2.676   1.254
 6855SOL    HW120611   4.219   2.690   1.321
 6855SOL    HW220612   4.107   2.585   1.265
 6856SOL     OW20613   4.987   2.239   1.280
 6856SOL    HW120614   5.024   2.318   1.329
 6856SOL    HW220615   4.891   2.256   1.255
 6857SOL     OW20616   3.798   3.434   1.353
 6857SOL    HW120617   3.763   3.505   1.291
 6857SOL    HW220618   3.898   3.432   1.348
 6858SOL     OW20619   4.090   2.982   0.484
 6858SOL    HW120620   4.069   3.059   0.424
 6858SOL    HW220621   4.086   2.896   0.432
 6859SOL     OW20622   4.273   2.405   0.861
 6859SOL    HW120623   4.288   2.464   0.781
 6859SOL    HW220624   4.341   2.426   0.931
 6860SOL     OW20625   4.967   3.206   0.406
 6860SOL    HW120626   5.026   3.282   0.435
 6860SOL    HW220627   4.873   3.225   0.433
 6861SOL     OW20628   5.010   3.323   1.148
 6861SOL    HW120629   5.069   3.329   1.228
 6861SOL    HW220630   4.956   3.240   1.152
 6862SOL     OW20631   5.311   2.488   0.480
 6862SOL    HW120632   5.254   2.532   0.550
 6862SOL    HW220633   5.367   2.558   0.435
 6863SOL     OW20634   4.072   3.391   1.310
 6863SOL    HW120635   4.056   3.347   1.222
 6863SOL    HW220636   4.170   3.405   1.323
 6864SOL     OW20637   4.139   2.608   1.600
 6864SOL    HW120638   4.205   2.654   1.541
 6864SOL    HW220639   4.173   2.517   1.623
 6865SOL     OW20640   5.331   2.647   1.684
 6865SOL    HW120641   5.240   2.688   1.682
 6865SOL    HW220642   5.388   2.687   1.613
 6866SOL     OW20643   4.721   1.995   1.750
 6866SOL    HW120644   4.779   2.074   1.734
 6866SOL    HW220645   4.770   1.912   1.724
 6867SOL     OW20646   4.216   1.899   1.750
 6867SOL    HW120647   4.172   1.840   1.682
 6867SOL    HW220648   4.159   1.978   1.768
 6868SOL     OW20649   4.307   2.733   1.034
 6868SOL    HW120650   4.343   2.827   1.030
 6868SOL    HW220651   4.248   2.723   1.114
 6869SOL     OW20652   5.077   2.719   1.026
 6869SOL    HW120653   4.988   2.712   0.982
 6869SOL    HW220654   5.125   2.632   1.017
 6870SOL     OW20655   4.920   2.389   0.272
 6870SOL    HW120656   4.934   2.309   0.330
 6870SOL    HW220657   4.881   2.463   0.327
 6871SOL     OW20658   4.021   2.059   1.246
 6871SOL    HW120659   3.985   2.095   1.332
 6871SOL    HW220660   4.005   1.960   1.243
 6872SOL     OW20661   3.775   3.172   1.276
 6872SOL    HW120662   3.808   3.111   1.348
 6872SOL    HW220663   3.779   3.266   1.308
 6873SOL     OW20664   4.447   2.492   1.055
 6873SOL    HW120665   4.525   2.473   0.995
 6873SOL    HW220666   4.413   2.585   1.036
 6874SOL     OW20667   5.459   2.822   1.855
 6874SOL    HW120668   5.416   2.754   1.796
 6874SOL    HW220669   5.400   2.841   1.933
 6875SOL     OW20670   4.029   1.927   0.629
 6875SOL    HW120671   4.005   2.022   0.649
 6875SOL    HW220672   4.040   1.877   0.715
 6876SOL     OW20673   5.350   2.238   0.375
 6876SOL    HW120674   5.375   2.168   0.442
 6876SOL    HW220675   5.328   2.323   0.422
 6877SOL     OW20676   4.747   2.617   0.958
 6877SOL    HW120677   4.743   2.639   1.056
 6877SOL    HW220678   4.721   2.522   0.945
 6878SOL     OW20679   4.705   3.425   1.717
 6878SOL    HW120680   4.689   3.473   1.631
 6878SOL    HW220681   4.753   3.339   1.699
 6879SOL     OW20682   5.579   3.366   1.604
 6879SOL    HW120683   5.598   3.392   1.509
 6879SOL    HW220684   5.662   3.378   1.658
 6880SOL     OW20685   4.077   2.780   1.805
 6880SOL    HW120686   4.157   2.802   1.860
 6880SOL    HW220687   4.102   2.714   1.733
 6881SOL     OW20688   5.212   2.154   0.153
 6881SOL    HW120689   5.172   2.064   0.167
 6881SOL    HW220690   5.270   2.178   0.231
 6882SOL     OW20691   5.018   2.684   0.033
 6882SOL    HW120692   5.064   2.596   0.024
 6882SOL    HW220693   5.044   2.744   6.957
 6883SOL     OW20694   4.792   3.199   0.855
 6883SOL    HW120695   4.797   3.121   0.792
 6883SOL    HW220696   4.852   3.271   0.821
 6884SOL     OW20697   4.035   2.668   0.943
 6884SOL    HW120698   4.132   2.695   0.940
 6884SOL    HW220699   4.028   2.574   0.976
 6885SOL     OW20700   4.052   2.389   1.011
 6885SOL    HW120701   4.013   2.297   1.000
 6885SOL    HW220702   4.133   2.398   0.953
 6886SOL     OW20703   4.858   2.235   1.692
 6886SOL    HW120704   4.805   2.292   1.754
 6886SOL    HW220705   4.950   2.272   1.683
 6887SOL     OW20706   4.886   2.066   1.475
 6887SOL    HW120707   4.871   2.128   1.552
 6887SOL    HW220708   4.928   2.115   1.400
 6888SOL     OW20709   3.817   3.646   0.943
 6888SOL    HW120710   3.780   3.565   0.898
 6888SOL    HW220711   3.911   3.662   0.911
 6889SOL     OW20712   4.218   3.438   0.905
 6889SOL    HW120713   4.288   3.504   0.932
 6889SOL    HW220714   4.258   3.370   0.844
 6890SOL     OW20715   4.700   2.656   1.225
 6890SOL    HW120716   4.760   2.632   1.301
 6890SOL    HW220717   4.610   2.614   1.240
 6891SOL     OW20718   3.761   2.413   1.117
 6891SOL    HW120719   3.843   2.400   1.062
 6891SOL    HW220720   3.786   2.416   1.214
 6892SOL     OW20721   3.916   2.385   1.730
 6892SOL    HW120722   3.969   2.332   1.664
 6892SOL    HW220723   3.876   2.464   1.684
 6893SOL     OW20724   5.104   2.798   1.655
 6893SOL    HW120725   5.127   2.895   1.656
 6893SOL    HW220726   5.101   2.765   1.560
 6894SOL     OW20727   4.542   2.430   0.370
 6894SOL    HW120728   4.550   2.352   0.308
 6894SOL    HW220729   4.465   2.487   0.342
 6895SOL     OW20730   5.367   2.465   1.182
 6895SOL    HW120731   5.350   2.405   1.261
 6895SOL    HW220732   5.458   2.447   1.145
 6896SOL     OW20733   3.964   3.409   1.726
 6896SOL    HW120734   3.943   3.484   1.790
 6896SOL    HW220735   3.970   3.323   1.777
 6897SOL     OW20736   4.430   2.310   1.253
 6897SOL    HW120737   4.373   2.232   1.229
 6897SOL    HW220738   4.427   2.378   1.180
 6898SOL     OW20739   4.644   3.543   1.471
 6898SOL    HW120740   4.619   3.497   1.386
 6898SOL    HW220741   4.644   3.642   1.457
 6899SOL     OW20742   4.180   2.361   0.189
 6899SOL    HW120743   4.244   2.434   0.214
 6899SOL    HW220744   4.087   2.397   0.185
 6900SOL     OW20745   3.866   2.999   1.475
 6900SOL    HW120746   3.868   2.954   1.564
 6900SOL    HW220747   3.886   2.932   1.403
 6901SOL     OW20748   5.040   2.906   1.220
 6901SOL    HW120749   5.068   2.838   1.152
 6901SOL    HW220750   4.972   2.967   1.179
 6902SOL     OW20751   5.026   2.708   0.306
 6902SOL    HW120752   4.943   2.681   0.357
 6902SOL    HW220753   5.013   2.688   0.209
 6903SOL     OW20754   5.504   3.593   1.156
 6903SOL    HW120755   5.565   3.627   1.085
 6903SOL    HW220756   5.473   3.501   1.132
 6904SOL     OW20757   4.966   3.595   1.106
 6904SOL    HW120758   5.051   3.624   1.063
 6904SOL    HW220759   4.971   3.498   1.129
 6905SOL     OW20760   3.809   3.128   1.010
 6905SOL    HW120761   3.793   3.142   1.108
 6905SOL    HW220762   3.738   3.069   0.973
 6906SOL     OW20763   4.404   3.535   1.735
 6906SOL    HW120764   4.343   3.613   1.731
 6906SOL    HW220765   4.477   3.546   1.667
 6907SOL     OW20766   4.662   1.939   0.113
 6907SOL    HW120767   4.733   1.993   0.067
 6907SOL    HW220768   4.705   1.880   0.182
 6908SOL     OW20769   5.452   2.022   0.528
 6908SOL    HW120770   5.522   2.014   0.457
 6908SOL    HW220771   5.425   1.930   0.558
 6909SOL     OW20772   5.114   3.424   0.490
 6909SOL    HW120773   5.179   3.454   0.421
 6909SOL    HW220774   5.060   3.503   0.522
 6910SOL     OW20775   3.869   3.649   1.846
 6910SOL    HW120776   3.811   3.582   1.892
 6910SOL    HW220777   3.918   3.703   1.914
 6911SOL     OW20778   5.006   2.785   0.670
 6911SOL    HW120779   5.081   2.720   0.684
 6911SOL    HW220780   5.040   2.864   0.618
 6912SOL     OW20781   4.529   3.140   1.427
 6912SOL    HW120782   4.499   3.183   1.512
 6912SOL    HW220783   4.460   3.155   1.356
 6913SOL     OW20784   4.398   3.466   0.191
 6913SOL    HW120785   4.404   3.514   0.103
 6913SOL    HW220786   4.340   3.384   0.180
 6914SOL     OW20787   5.341   3.591   1.387
 6914SOL    HW120788   5.399   3.591   1.305
 6914SOL    HW220789   5.327   3.684   1.419
 6915SOL     OW20790   5.565   2.032   0.964
 6915SOL    HW120791   5.600   1.941   0.941
 6915SOL    HW220792   5.475   2.044   0.923
 6916SOL     OW20793   3.980   2.179   0.716
 6916SOL    HW120794   3.891   2.215   0.688
 6916SOL    HW220795   3.983   2.170   0.816
 6917SOL     OW20796   4.943   3.461   0.039
 6917SOL    HW120797   4.937   3.366   0.070
 6917SOL    HW220798   4.858   3.487   6.994
 6918SOL     OW20799   4.547   2.871   1.377
 6918SOL    HW120800   4.598   2.856   1.293
 6918SOL    HW220801   4.545   2.969   1.398
 6919SOL     OW20802   4.647   2.774   0.293
 6919SOL    HW120803   4.702   2.804   0.215
 6919SOL    HW220804   4.695   2.703   0.344
 6920SOL     OW20805   5.213   3.516   0.041
 6920SOL    HW120806   5.115   3.495   0.040
 6920SOL    HW220807   5.244   3.530   6.947
 6921SOL     OW20808   4.090   3.165   1.487
 6921SOL    HW120809   4.080   3.245   1.428
 6921SOL    HW220810   4.010   3.105   1.476
 6922SOL     OW20811   5.337   3.146   1.284
 6922SOL    HW120812   5.401   3.127   1.359
 6922SOL    HW220813   5.272   3.216   1.313
 6923SOL     OW20814   4.784   2.968   0.714
 6923SOL    HW120815   4.708   2.918   0.754
 6923SOL    HW220816   4.852   2.903   0.680
 6924SOL     OW20817   4.746   2.100   0.966
 6924SOL    HW120818   4.742   2.056   0.877
 6924SOL    HW220819   4.744   2.031   1.038
 6925SOL     OW20820   4.336   3.340   0.485
 6925SOL    HW120821   4.375   3.289   0.408
 6925SOL    HW220822   4.275   3.411   0.449
 6926SOL     OW20823   5.455   2.256   1.381
 6926SOL    HW120824   5.527   2.324   1.381
 6926SOL    HW220825   5.480   2.180   1.320
 6927SOL     OW20826   4.002   3.183   0.308
 6927SOL    HW120827   3.918   3.170   0.256
 6927SOL    HW220828   3.981   3.236   0.391
 6928SOL     OW20829   3.838   2.895   1.727
 6928SOL    HW120830   3.757   2.868   1.778
 6928SOL    HW220831   3.919   2.850   1.766
 6929SOL     OW20832   4.407   2.056   1.500
 6929SOL    HW120833   4.493   2.032   1.455
 6929SOL    HW220834   4.425   2.090   1.592
 6930SOL     OW20835   3.828   2.186   0.016
 6930SOL    HW120836   3.766   2.131   6.960
 6930SOL    HW220837   3.860   2.265   6.963
 6931SOL     OW20838   5.148   2.719   1.395
 6931SOL    HW120839   5.093   2.783   1.342
 6931SOL    HW220840   5.242   2.720   1.362
 6932SOL     OW20841   3.774   2.036   0.328
 6932SOL    HW120842   3.760   2.127   0.290
 6932SOL    HW220843   3.850   1.992   0.281
 6933SOL     OW20844   4.910   3.207   0.128
 6933SOL    HW120845   4.812   3.190   0.112
 6933SOL    HW220846   4.929   3.197   0.225
 6934SOL     OW20847   4.347   2.692   1.433
 6934SOL    HW120848   4.404   2.773   1.419
 6934SOL    HW220849   4.405   2.611   1.443
 6935SOL     OW20850   5.209   3.650   0.987
 6935SOL    HW120851   5.233   3.712   0.912
 6935SOL    HW220852   5.293   3.614   1.028
 6936SOL     OW20853   4.446   2.421   1.703
 6936SOL    HW120854   4.490   2.488   1.762
 6936SOL    HW220855   4.466   2.329   1.736
 6937SOL     OW20856   5.197   3.059   1.635
 6937SOL    HW120857   5.182   3.072   1.733
 6937SOL    HW220858   5.293   3.077   1.613
 6938SOL     OW20859   4.096   3.600   1.566
 6938SOL    HW120860   4.012   3.651   1.552
 6938SOL    HW220861   4.075   3.512   1.609
 6939SOL     OW20862   5.390   2.740   1.256
 6939SOL    HW120863   5.385   2.649   1.215
 6939SOL    HW220864   5.378   2.810   1.185
 6940SOL     OW20865   4.945   2.178   0.457
 6940SOL    HW120866   5.026   2.127   0.428
 6940SOL    HW220867   4.967   2.231   0.539
 6941SOL     OW20868   4.312   2.597   0.666
 6941SOL    HW120869   4.352   2.688   0.658
 6941SOL    HW220870   4.241   2.586   0.596
 6942SOL     OW20871   5.476   2.227   1.652
 6942SOL    HW120872   5.466   2.243   1.554
 6942SOL    HW220873   5.402   2.167   1.684
 6943SOL     OW20874   5.476   2.794   1.510
 6943SOL    HW120875   5.465   2.891   1.531
 6943SOL    HW220876   5.455   2.779   1.413
 6944SOL     OW20877   4.625   3.245   0.050
 6944SOL    HW120878   4.564   3.220   0.126
 6944SOL    HW220879   4.629   3.344   0.043
 6945SOL     OW20880   4.388   3.648   0.943
 6945SOL    HW120881   4.365   3.743   0.920
 6945SOL    HW220882   4.487   3.635   0.932
 6946SOL     OW20883   4.593   2.832   0.857
 6946SOL    HW120884   4.644   2.754   0.893
 6946SOL    HW220885   4.551   2.883   0.932
 6947SOL     OW20886   4.805   2.845   0.082
 6947SOL    HW120887   4.800   2.901   6.999
 6947SOL    HW220888   4.885   2.785   0.076
 6948SOL     OW20889   5.571   3.419   0.847
 6948SOL    HW120890   5.494   3.405   0.784
 6948SOL    HW220891   5.571   3.347   0.915
 6949SOL     OW20892   3.955   3.161   1.857
 6949SOL    HW120893   3.888   3.095   1.823
 6949SOL    HW220894   3.941   3.175   1.955
 6950SOL     OW20895   3.806   3.096   0.666
 6950SOL    HW120896   3.821   3.045   0.750
 6950SOL    HW220897   3.855   3.052   0.590
 6951SOL     OW20898   4.406   3.271   1.633
 6951SOL    HW120899   4.325   3.221   1.665
 6951SOL    HW220900   4.404   3.363   1.670
 6952SOL     OW20901   5.529   2.044   1.234
 6952SOL    HW120902   5.544   1.949   1.258
 6952SOL    HW220903   5.542   2.056   1.135
 6953SOL     OW20904   4.155   2.291   0.528
 6953SOL    HW120905   4.186   2.220   0.465
 6953SOL    HW220906   4.101   2.251   0.601
 6954SOL     OW20907   5.416   3.346   1.096
 6954SOL    HW120908   5.336   3.327   1.039
 6954SOL    HW220909   5.426   3.274   1.164
 6955SOL     OW20910   4.058   2.418   1.289
 6955SOL    HW120911   4.115   2.361   1.349
 6955SOL    HW220912   4.074   2.391   1.194
 6956SOL     OW20913   4.551   3.442   0.680
 6956SOL    HW120914   4.540   3.500   0.600
 6956SOL    HW220915   4.474   3.378   0.686
 6957SOL     OW20916   5.155   2.093   1.117
 6957SOL    HW120917   5.179   2.004   1.155
 6957SOL    HW220918   5.100   2.144   1.184
 6958SOL     OW20919   4.734   1.878   1.138
 6958SOL    HW120920   4.670   1.814   1.095
 6958SOL    HW220921   4.825   1.838   1.140
 6959SOL     OW20922   4.507   3.180   0.308
 6959SOL    HW120923   4.473   3.088   0.328
 6959SOL    HW220924   4.584   3.201   0.368
 6960SOL     OW20925   4.347   3.421   1.289
 6960SOL    HW120926   4.345   3.508   1.339
 6960SOL    HW220927   4.438   3.408   1.249
 6961SOL     OW20928   5.077   1.915   0.185
 6961SOL    HW120929   5.116   1.858   0.113
 6961SOL    HW220930   4.990   1.876   0.215
 6962SOL     OW20931   5.009   2.322   0.679
 6962SOL    HW120932   4.960   2.409   0.682
 6962SOL    HW220933   5.011   2.281   0.770
 6963SOL     OW20934   5.309   2.065   0.883
 6963SOL    HW120935   5.252   2.086   0.962
 6963SOL    HW220936   5.313   2.145   0.823
 6964SOL     OW20937   3.811   2.917   0.360
 6964SOL    HW120938   3.899   2.893   0.319
 6964SOL    HW220939   3.756   2.834   0.371
 6965SOL     OW20940   4.612   3.524   0.353
 6965SOL    HW120941   4.537   3.495   0.294
 6965SOL    HW220942   4.583   3.603   0.407
 6966SOL     OW20943   3.947   2.481   1.989
 6966SOL    HW120944   3.855   2.482   2.029
 6966SOL    HW220945   3.940   2.459   1.892
 6967SOL     OW20946   3.947   2.144   2.856
 6967SOL    HW120947   3.979   2.110   2.945
 6967SOL    HW220948   3.853   2.112   2.840
 6968SOL     OW20949   3.725   2.248   2.496
 6968SOL    HW120950   3.641   2.278   2.541
 6968SOL    HW220951   3.707   2.164   2.444
 6969SOL     OW20952   4.289   3.155   3.045
 6969SOL    HW120953   4.199   3.158   3.003
 6969SOL    HW220954   4.315   3.248   3.074
 6970SOL     OW20955   5.287   3.375   2.570
 6970SOL    HW120956   5.246   3.353   2.658
 6970SOL    HW220957   5.216   3.382   2.501
 6971SOL     OW20958   4.857   2.564   2.558
 6971SOL    HW120959   4.909   2.648   2.541
 6971SOL    HW220960   4.807   2.573   2.644
 6972SOL     OW20961   5.493   2.462   2.085
 6972SOL    HW120962   5.470   2.458   1.988
 6972SOL    HW220963   5.455   2.382   2.132
 6973SOL     OW20964   4.468   3.001   2.903
 6973SOL    HW120965   4.400   3.036   2.968
 6973SOL    HW220966   4.510   3.078   2.855
 6974SOL     OW20967   4.597   2.627   3.683
 6974SOL    HW120968   4.580   2.695   3.753
 6974SOL    HW220969   4.621   2.673   3.597
 6975SOL     OW20970   4.408   2.861   2.511
 6975SOL    HW120971   4.479   2.851   2.581
 6975SOL    HW220972   4.333   2.917   2.548
 6976SOL     OW20973   4.438   3.011   3.668
 6976SOL    HW120974   4.486   3.086   3.714
 6976SOL    HW220975   4.349   3.044   3.637
 6977SOL     OW20976   4.051   3.287   2.933
 6977SOL    HW120977   3.973   3.243   2.888
 6977SOL    HW220978   4.103   3.339   2.866
 6978SOL     OW20979   4.174   2.256   3.342
 6978SOL    HW120980   4.255   2.198   3.349
 6978SOL    HW220981   4.092   2.202   3.359
 6979SOL     OW20982   5.336   2.309   2.606
 6979SOL    HW120983   5.260   2.328   2.543
 6979SOL    HW220984   5.345   2.384   2.671
 6980SOL     OW20985   3.946   3.576   2.334
 6980SOL    HW120986   3.964   3.655   2.393
 6980SOL    HW220987   4.021   3.566   2.268
 6981SOL     OW20988   4.847   3.203   3.579
 6981SOL    HW120989   4.897   3.194   3.665
 6981SOL    HW220990   4.791   3.121   3.564
 6982SOL     OW20991   3.956   3.305   2.398
 6982SOL    HW120992   3.941   3.404   2.398
 6982SOL    HW220993   3.896   3.262   2.465
 6983SOL     OW20994   3.992   2.952   2.763
 6983SOL    HW120995   3.988   2.858   2.796
 6983SOL    HW220996   3.930   3.009   2.817
 6984SOL     OW20997   4.344   3.663   3.276
 6984SOL    HW120998   4.254   3.655   3.318
 6984SOL    HW220999   4.388   3.749   3.305
 6985SOL     OW21000   4.307   2.849   2.002
 6985SOL    HW121001   4.354   2.896   1.928
 6985SOL    HW221002   4.347   2.877   2.090
 6986SOL     OW21003   5.321   1.986   3.332
 6986SOL    HW121004   5.338   2.067   3.274
 6986SOL    HW221005   5.307   2.016   3.426
 6987SOL     OW21006   3.838   2.522   2.425
 6987SOL    HW121007   3.809   2.428   2.442
 6987SOL    HW221008   3.832   2.574   2.510
 6988SOL     OW21009   5.570   3.618   2.194
 6988SOL    HW121010   5.638   3.587   2.261
 6988SOL    HW221011   5.586   3.714   2.172
 6989SOL     OW21012   3.752   3.453   1.985
 6989SOL    HW121013   3.737   3.356   2.005
 6989SOL    HW221014   3.732   3.507   2.067
 6990SOL     OW21015   5.415   2.783   2.508
 6990SOL    HW121016   5.499   2.732   2.490
 6990SOL    HW221017   5.390   2.837   2.427
 6991SOL     OW21018   5.376   2.967   2.294
 6991SOL    HW121019   5.465   2.965   2.248
 6991SOL    HW221020   5.378   3.034   2.368
 6992SOL     OW21021   3.848   2.604   3.448
 6992SOL    HW121022   3.944   2.632   3.450
 6992SOL    HW221023   3.790   2.686   3.449
 6993SOL     OW21024   4.335   3.252   2.595
 6993SOL    HW121025   4.289   3.164   2.608
 6993SOL    HW221026   4.322   3.283   2.501
 6994SOL     OW21027   5.039   3.114   3.267
 6994SOL    HW121028   5.047   3.030   3.213
 6994SOL    HW221029   5.079   3.099   3.358
 6995SOL     OW21030   4.541   1.870   2.370
 6995SOL    HW121031   4.587   1.956   2.348
 6995SOL    HW221032   4.442   1.886   2.378
 6996SOL     OW21033   3.916   2.826   3.137
 6996SOL    HW121034   4.004   2.780   3.122
 6996SOL    HW221035   3.844   2.777   3.087
 6997SOL     OW21036   5.256   2.861   2.066
 6997SOL    HW121037   5.182   2.801   2.095
 6997SOL    HW221038   5.302   2.899   2.146
 6998SOL     OW21039   4.064   2.111   3.691
 6998SOL    HW121040   4.113   2.197   3.706
 6998SOL    HW221041   3.967   2.124   3.712
 6999SOL     OW21042   5.192   3.280   2.813
 6999SOL    HW121043   5.125   3.298   2.886
 6999SOL    HW221044   5.183   3.186   2.783
 7000SOL     OW21045   5.376   3.608   2.438
 7000SOL    HW121046   5.357   3.580   2.344
 7000SOL    HW221047   5.353   3.534   2.501
 7001SOL     OW21048   4.319   2.582   2.134
 7001SOL    HW121049   4.325   2.667   2.082
 7001SOL    HW221050   4.250   2.591   2.206
 7002SOL     OW21051   5.001   2.219   2.795
 7002SOL    HW121052   4.908   2.185   2.802
 7002SOL    HW221053   5.060   2.167   2.857
 7003SOL     OW21054   5.307   3.534   2.169
 7003SOL    HW121055   5.403   3.563   2.166
 7003SOL    HW221056   5.274   3.517   2.077
 7004SOL     OW21057   4.515   2.475   3.312
 7004SOL    HW121058   4.489   2.451   3.405
 7004SOL    HW221059   4.476   2.407   3.249
 7005SOL     OW21060   5.115   2.332   3.541
 7005SOL    HW121061   5.116   2.381   3.628
 7005SOL    HW221062   5.177   2.253   3.548
 7006SOL     OW21063   4.676   2.745   3.442
 7006SOL    HW121064   4.734   2.672   3.405
 7006SOL    HW221065   4.623   2.787   3.368
 7007SOL     OW21066   4.718   2.268   3.092
 7007SOL    HW121067   4.628   2.291   3.131
 7007SOL    HW221068   4.705   2.220   3.006
 7008SOL     OW21069   4.774   2.561   2.287
 7008SOL    HW121070   4.795   2.556   2.385
 7008SOL    HW221071   4.688   2.513   2.270
 7009SOL     OW21072   3.813   2.689   2.641
 7009SOL    HW121073   3.898   2.677   2.692
 7009SOL    HW221074   3.764   2.769   2.678
 7010SOL     OW21075   3.853   3.761   3.419
 7010SOL    HW121076   3.841   3.730   3.513
 7010SOL    HW221077   3.773   3.733   3.365
 7011SOL     OW21078   4.620   2.214   2.058
 7011SOL    HW121079   4.660   2.282   1.996
 7011SOL    HW221080   4.630   2.123   2.019
 7012SOL     OW21081   5.426   2.435   3.688
 7012SOL    HW121082   5.390   2.514   3.638
 7012SOL    HW221083   5.456   2.365   3.623
 7013SOL     OW21084   5.103   3.005   2.396
 7013SOL    HW121085   5.188   2.990   2.345
 7013SOL    HW221086   5.047   3.072   2.349
 7014SOL     OW21087   4.271   2.036   2.762
 7014SOL    HW121088   4.275   2.066   2.857
 7014SOL    HW221089   4.274   2.116   2.702
 7015SOL     OW21090   4.719   3.304   2.326
 7015SOL    HW121091   4.688   3.385   2.276
 7015SOL    HW221092   4.704   3.317   2.424
 7016SOL     OW21093   4.083   3.675   2.729
 7016SOL    HW121094   4.127   3.586   2.738
 7016SOL    HW221095   4.150   3.747   2.749
 7017SOL     OW21096   5.522   2.918   2.731
 7017SOL    HW121097   5.471   2.895   2.648
 7017SOL    HW221098   5.460   2.922   2.809
 7018SOL     OW21099   4.046   2.821   2.116
 7018SOL    HW121100   4.134   2.841   2.072
 7018SOL    HW221101   4.010   2.736   2.078
 7019SOL     OW21102   5.207   2.611   2.585
 7019SOL    HW121103   5.200   2.566   2.674
 7019SOL    HW221104   5.287   2.670   2.583
 7020SOL     OW21105   4.193   3.099   3.601
 7020SOL    HW121106   4.169   3.129   3.509
 7020SOL    HW221107   4.110   3.089   3.656
 7021SOL     OW21108   4.845   3.638   2.088
 7021SOL    HW121109   4.767   3.600   2.137
 7021SOL    HW221110   4.875   3.574   2.018
 7022SOL     OW21111   3.926   2.139   3.364
 7022SOL    HW121112   3.844   2.196   3.360
 7022SOL    HW221113   3.905   2.053   3.411
 7023SOL     OW21114   5.349   3.244   1.950
 7023SOL    HW121115   5.310   3.334   1.934
 7023SOL    HW221116   5.279   3.174   1.931
 7024SOL     OW21117   4.189   3.596   2.181
 7024SOL    HW121118   4.230   3.659   2.247
 7024SOL    HW221119   4.260   3.561   2.120
 7025SOL     OW21120   5.125   1.966   2.298
 7025SOL    HW121121   5.113   1.941   2.202
 7025SOL    HW221122   5.223   1.976   2.317
 7026SOL     OW21123   3.979   3.654   3.094
 7026SOL    HW121124   4.041   3.586   3.133
 7026SOL    HW221125   3.955   3.628   3.000
 7027SOL     OW21126   4.658   3.564   2.758
 7027SOL    HW121127   4.739   3.517   2.792
 7027SOL    HW221128   4.618   3.511   2.683
 7028SOL     OW21129   4.119   2.551   2.337
 7028SOL    HW121130   4.139   2.454   2.350
 7028SOL    HW221131   4.022   2.567   2.354
 7029SOL     OW21132   5.253   2.085   3.590
 7029SOL    HW121133   5.264   2.106   3.687
 7029SOL    HW221134   5.180   2.017   3.578
 7030SOL     OW21135   4.364   1.980   1.964
 7030SOL    HW121136   4.433   1.911   1.986
 7030SOL    HW221137   4.308   1.948   1.887
 7031SOL     OW21138   4.488   2.138   3.619
 7031SOL    HW121139   4.572   2.084   3.613
 7031SOL    HW221140   4.436   2.111   3.700
 7032SOL     OW21141   4.593   3.361   3.043
 7032SOL    HW121142   4.576   3.324   2.951
 7032SOL    HW221143   4.668   3.310   3.086
 7033SOL     OW21144   5.065   2.450   3.297
 7033SOL    HW121145   5.094   2.415   3.386
 7033SOL    HW221146   5.100   2.543   3.284
 7034SOL     OW21147   4.542   3.245   2.796
 7034SOL    HW121148   4.632   3.238   2.754
 7034SOL    HW221149   4.472   3.254   2.724
 7035SOL     OW21150   4.651   2.369   2.760
 7035SOL    HW121151   4.625   2.362   2.664
 7035SOL    HW221152   4.683   2.280   2.793
 7036SOL     OW21153   4.271   1.926   2.357
 7036SOL    HW121154   4.189   1.924   2.414
 7036SOL    HW221155   4.268   2.007   2.298
 7037SOL     OW21156   5.150   3.061   1.905
 7037SOL    HW121157   5.183   2.983   1.958
 7037SOL    HW221158   5.061   3.090   1.941
 7038SOL     OW21159   4.015   1.910   2.048
 7038SOL    HW121160   4.068   1.982   2.002
 7038SOL    HW221161   4.077   1.845   2.091
 7039SOL     OW21162   4.670   2.112   2.319
 7039SOL    HW121163   4.637   2.154   2.234
 7039SOL    HW221164   4.768   2.126   2.328
 7040SOL     OW21165   4.804   2.543   3.317
 7040SOL    HW121166   4.729   2.477   3.322
 7040SOL    HW221167   4.891   2.494   3.313
 7041SOL     OW21168   4.948   3.430   2.655
 7041SOL    HW121169   4.959   3.501   2.585
 7041SOL    HW221170   5.016   3.444   2.727
 7042SOL     OW21171   4.192   3.013   2.591
 7042SOL    HW121172   4.125   2.993   2.662
 7042SOL    HW221173   4.150   2.999   2.501
 7043SOL     OW21174   4.987   3.654   2.471
 7043SOL    HW121175   5.039   3.716   2.413
 7043SOL    HW221176   4.915   3.704   2.519
 7044SOL     OW21177   4.745   2.399   1.891
 7044SOL    HW121178   4.700   2.485   1.867
 7044SOL    HW221179   4.814   2.416   1.960
 7045SOL     OW21180   3.809   2.419   3.252
 7045SOL    HW121181   3.904   2.414   3.221
 7045SOL    HW221182   3.801   2.490   3.323
 7046SOL     OW21183   4.282   2.086   3.033
 7046SOL    HW121184   4.332   2.010   3.075
 7046SOL    HW221185   4.187   2.084   3.063
 7047SOL     OW21186   4.590   2.320   2.499
 7047SOL    HW121187   4.542   2.382   2.436
 7047SOL    HW221188   4.617   2.238   2.449
 7048SOL     OW21189   4.741   1.914   2.608
 7048SOL    HW121190   4.680   1.915   2.529
 7048SOL    HW221191   4.716   1.838   2.668
 7049SOL     OW21192   5.169   3.022   2.720
 7049SOL    HW121193   5.091   2.960   2.724
 7049SOL    HW221194   5.198   3.035   2.625
 7050SOL     OW21195   5.192   2.469   2.833
 7050SOL    HW121196   5.130   2.390   2.832
 7050SOL    HW221197   5.253   2.463   2.912
 7051SOL     OW21198   5.567   2.672   2.242
 7051SOL    HW121199   5.625   2.624   2.307
 7051SOL    HW221200   5.537   2.608   2.171
 7052SOL     OW21201   4.211   3.282   2.017
 7052SOL    HW121202   4.131   3.255   2.071
 7052SOL    HW221203   4.208   3.237   1.928
 7053SOL     OW21204   5.398   3.129   2.506
 7053SOL    HW121205   5.497   3.127   2.518
 7053SOL    HW221206   5.364   3.220   2.527
 7054SOL     OW21207   5.114   2.436   1.933
 7054SOL    HW121208   5.051   2.414   2.007
 7054SOL    HW221209   5.207   2.410   1.958
 7055SOL     OW21210   4.252   2.126   2.173
 7055SOL    HW121211   4.299   2.074   2.102
 7055SOL    HW221212   4.224   2.215   2.135
 7056SOL     OW21213   5.477   3.088   3.429
 7056SOL    HW121214   5.565   3.042   3.414
 7056SOL    HW221215   5.495   3.183   3.457
 7057SOL     OW21216   4.770   3.181   3.180
 7057SOL    HW121217   4.689   3.165   3.237
 7057SOL    HW221218   4.852   3.167   3.235
 7058SOL     OW21219   4.864   3.072   2.953
 7058SOL    HW121220   4.808   3.103   3.030
 7058SOL    HW221221   4.822   3.103   2.867
 7059SOL     OW21222   5.348   2.954   2.937
 7059SOL    HW121223   5.345   3.021   3.012
 7059SOL    HW221224   5.273   2.972   2.873
 7060SOL     OW21225   4.647   1.956   3.254
 7060SOL    HW121226   4.668   1.934   3.159
 7060SOL    HW221227   4.726   2.000   3.297
 7061SOL     OW21228   4.699   2.971   3.583
 7061SOL    HW121229   4.604   2.985   3.612
 7061SOL    HW221230   4.704   2.889   3.525
 7062SOL     OW21231   4.436   2.921   2.235
 7062SOL    HW121232   4.419   2.903   2.332
 7062SOL    HW221233   4.515   2.867   2.205
 7063SOL     OW21234   4.146   2.676   3.116
 7063SOL    HW121235   4.219   2.690   3.183
 7063SOL    HW221236   4.107   2.585   3.127
 7064SOL     OW21237   4.987   2.238   3.142
 7064SOL    HW121238   5.024   2.317   3.190
 7064SOL    HW221239   4.892   2.256   3.117
 7065SOL     OW21240   3.798   3.422   3.182
 7065SOL    HW121241   3.746   3.507   3.172
 7065SOL    HW221242   3.895   3.443   3.189
 7066SOL     OW21243   4.067   2.979   2.349
 7066SOL    HW121244   4.073   3.061   2.292
 7066SOL    HW221245   4.065   2.898   2.290
 7067SOL     OW21246   4.273   2.405   2.724
 7067SOL    HW121247   4.287   2.464   2.644
 7067SOL    HW221248   4.341   2.426   2.793
 7068SOL     OW21249   4.970   3.216   2.254
 7068SOL    HW121250   5.031   3.289   2.285
 7068SOL    HW221251   4.877   3.236   2.285
 7069SOL     OW21252   5.003   3.308   3.006
 7069SOL    HW121253   5.019   3.303   3.105
 7069SOL    HW221254   4.950   3.228   2.978
 7070SOL     OW21255   5.302   2.483   2.344
 7070SOL    HW121256   5.251   2.531   2.415
 7070SOL    HW221257   5.349   2.549   2.286
 7071SOL     OW21258   4.085   3.398   3.176
 7071SOL    HW121259   4.061   3.352   3.090
 7071SOL    HW221260   4.184   3.407   3.182
 7072SOL     OW21261   4.140   2.607   3.461
 7072SOL    HW121262   4.207   2.654   3.402
 7072SOL    HW221263   4.174   2.516   3.484
 7073SOL     OW21264   5.331   2.646   3.546
 7073SOL    HW121265   5.240   2.688   3.544
 7073SOL    HW221266   5.388   2.687   3.475
 7074SOL     OW21267   4.721   1.995   3.612
 7074SOL    HW121268   4.779   2.074   3.596
 7074SOL    HW221269   4.770   1.912   3.586
 7075SOL     OW21270   4.216   1.899   3.612
 7075SOL    HW121271   4.172   1.840   3.544
 7075SOL    HW221272   4.159   1.978   3.630
 7076SOL     OW21273   4.308   2.733   2.896
 7076SOL    HW121274   4.344   2.827   2.893
 7076SOL    HW221275   4.248   2.724   2.975
 7077SOL     OW21276   5.078   2.717   2.888
 7077SOL    HW121277   4.988   2.712   2.845
 7077SOL    HW221278   5.125   2.630   2.878
 7078SOL     OW21279   4.922   2.389   2.127
 7078SOL    HW121280   4.935   2.306   2.182
 7078SOL    HW221281   4.878   2.459   2.182
 7079SOL     OW21282   4.021   2.059   3.109
 7079SOL    HW121283   3.985   2.095   3.194
 7079SOL    HW221284   4.005   1.960   3.105
 7080SOL     OW21285   3.758   3.161   3.146
 7080SOL    HW121286   3.808   3.108   3.214
 7080SOL    HW221287   3.772   3.259   3.162
 7081SOL     OW21288   4.448   2.493   2.917
 7081SOL    HW121289   4.525   2.473   2.856
 7081SOL    HW221290   4.413   2.585   2.898
 7082SOL     OW21291   5.459   2.821   3.718
 7082SOL    HW121292   5.416   2.753   3.659
 7082SOL    HW221293   5.399   2.840   3.796
 7083SOL     OW21294   4.030   1.923   2.490
 7083SOL    HW121295   4.006   2.019   2.508
 7083SOL    HW221296   4.041   1.875   2.576
 7084SOL     OW21297   5.350   2.242   2.225
 7084SOL    HW121298   5.376   2.169   2.288
 7084SOL    HW221299   5.322   2.323   2.277
 7085SOL     OW21300   4.748   2.617   2.820
 7085SOL    HW121301   4.743   2.639   2.917
 7085SOL    HW221302   4.721   2.522   2.806
 7086SOL     OW21303   5.602   3.329   3.464
 7086SOL    HW121304   5.619   3.369   3.374
 7086SOL    HW221305   5.675   3.356   3.526
 7087SOL     OW21306   4.072   2.773   3.668
 7087SOL    HW121307   4.151   2.807   3.719
 7087SOL    HW221308   4.102   2.710   3.597
 7088SOL     OW21309   5.252   2.131   1.992
 7088SOL    HW121310   5.182   2.063   2.017
 7088SOL    HW221311   5.288   2.173   2.075
 7089SOL     OW21312   5.013   2.688   1.889
 7089SOL    HW121313   5.054   2.597   1.897
 7089SOL    HW221314   5.044   2.731   1.804
 7090SOL     OW21315   4.794   3.201   2.712
 7090SOL    HW121316   4.798   3.123   2.649
 7090SOL    HW221317   4.854   3.274   2.679
 7091SOL     OW21318   4.035   2.668   2.805
 7091SOL    HW121319   4.132   2.694   2.800
 7091SOL    HW221320   4.028   2.574   2.838
 7092SOL     OW21321   4.052   2.389   2.873
 7092SOL    HW121322   4.013   2.297   2.862
 7092SOL    HW221323   4.132   2.398   2.815
 7093SOL     OW21324   4.858   2.235   3.554
 7093SOL    HW121325   4.805   2.292   3.616
 7093SOL    HW221326   4.950   2.272   3.545
 7094SOL     OW21327   4.886   2.065   3.337
 7094SOL    HW121328   4.871   2.128   3.414
 7094SOL    HW221329   4.928   2.115   3.261
 7095SOL     OW21330   3.725   3.178   2.057
 7095SOL    HW121331   3.635   3.197   2.017
 7095SOL    HW221332   3.726   3.084   2.092
 7096SOL     OW21333   3.821   3.647   2.798
 7096SOL    HW121334   3.786   3.565   2.753
 7096SOL    HW221335   3.916   3.663   2.768
 7097SOL     OW21336   4.219   3.437   2.769
 7097SOL    HW121337   4.288   3.504   2.794
 7097SOL    HW221338   4.258   3.369   2.706
 7098SOL     OW21339   4.700   2.655   3.086
 7098SOL    HW121340   4.760   2.630   3.163
 7098SOL    HW221341   4.610   2.614   3.100
 7099SOL     OW21342   3.761   2.413   2.979
 7099SOL    HW121343   3.843   2.400   2.924
 7099SOL    HW221344   3.786   2.416   3.076
 7100SOL     OW21345   3.917   2.384   3.592
 7100SOL    HW121346   3.970   2.332   3.526
 7100SOL    HW221347   3.877   2.464   3.547
 7101SOL     OW21348   5.104   2.799   3.517
 7101SOL    HW121349   5.127   2.896   3.518
 7101SOL    HW221350   5.102   2.766   3.423
 7102SOL     OW21351   4.541   2.434   2.222
 7102SOL    HW121352   4.550   2.354   2.162
 7102SOL    HW221353   4.463   2.489   2.193
 7103SOL     OW21354   5.367   2.465   3.044
 7103SOL    HW121355   5.350   2.405   3.122
 7103SOL    HW221356   5.458   2.447   3.007
 7104SOL     OW21357   4.431   2.310   3.115
 7104SOL    HW121358   4.373   2.232   3.091
 7104SOL    HW221359   4.428   2.378   3.042
 7105SOL     OW21360   4.184   2.357   2.048
 7105SOL    HW121361   4.248   2.430   2.073
 7105SOL    HW221362   4.093   2.397   2.034
 7106SOL     OW21363   3.879   2.999   3.339
 7106SOL    HW121364   3.880   2.952   3.427
 7106SOL    HW221365   3.896   2.933   3.265
 7107SOL     OW21366   5.039   2.904   3.082
 7107SOL    HW121367   5.070   2.836   3.016
 7107SOL    HW221368   4.973   2.965   3.039
 7108SOL     OW21369   5.039   2.718   2.162
 7108SOL    HW121370   4.963   2.691   2.220
 7108SOL    HW221371   5.014   2.706   2.066
 7109SOL     OW21372   5.468   3.609   2.962
 7109SOL    HW121373   5.548   3.629   2.905
 7109SOL    HW221374   5.453   3.511   2.965
 7110SOL     OW21375   4.966   3.588   2.962
 7110SOL    HW121376   5.054   3.618   2.926
 7110SOL    HW221377   4.972   3.491   2.986
 7111SOL     OW21378   3.810   3.125   2.878
 7111SOL    HW121379   3.789   3.138   2.975
 7111SOL    HW221380   3.738   3.070   2.836
 7112SOL     OW21381   5.443   2.011   2.362
 7112SOL    HW121382   5.519   2.001   2.297
 7112SOL    HW221383   5.426   1.923   2.407
 7113SOL     OW21384   5.118   3.432   2.348
 7113SOL    HW121385   5.182   3.465   2.278
 7113SOL    HW221386   5.064   3.509   2.382
 7114SOL     OW21387   5.006   2.790   2.528
 7114SOL    HW121388   5.081   2.725   2.543
 7114SOL    HW221389   5.039   2.867   2.473
 7115SOL     OW21390   4.529   3.137   3.301
 7115SOL    HW121391   4.517   3.162   3.397
 7115SOL    HW221392   4.452   3.172   3.247
 7116SOL     OW21393   4.393   3.483   2.016
 7116SOL    HW121394   4.409   3.501   1.919
 7116SOL    HW221395   4.334   3.402   2.025
 7117SOL     OW21396   5.566   2.032   2.826
 7117SOL    HW121397   5.600   1.941   2.803
 7117SOL    HW221398   5.475   2.044   2.786
 7118SOL     OW21399   3.980   2.176   2.578
 7118SOL    HW121400   3.892   2.213   2.550
 7118SOL    HW221401   3.983   2.168   2.677
 7119SOL     OW21402   4.932   3.463   1.895
 7119SOL    HW121403   4.923   3.369   1.928
 7119SOL    HW221404   4.865   3.480   1.823
 7120SOL     OW21405   4.548   2.871   3.236
 7120SOL    HW121406   4.598   2.856   3.151
 7120SOL    HW221407   4.542   2.969   3.255
 7121SOL     OW21408   4.644   2.772   2.149
 7121SOL    HW121409   4.705   2.808   2.078
 7121SOL    HW221410   4.690   2.701   2.201
 7122SOL     OW21411   5.213   3.491   1.904
 7122SOL    HW121412   5.114   3.480   1.893
 7122SOL    HW221413   5.256   3.497   1.814
 7123SOL     OW21414   4.091   3.179   3.361
 7123SOL    HW121415   4.084   3.252   3.292
 7123SOL    HW221416   4.018   3.113   3.347
 7124SOL     OW21417   5.332   3.138   3.142
 7124SOL    HW121418   5.412   3.129   3.202
 7124SOL    HW221419   5.251   3.160   3.197
 7125SOL     OW21420   4.784   2.968   2.576
 7125SOL    HW121421   4.708   2.918   2.616
 7125SOL    HW221422   4.852   2.903   2.542
 7126SOL     OW21423   4.746   2.101   2.829
 7126SOL    HW121424   4.742   2.057   2.739
 7126SOL    HW221425   4.744   2.031   2.901
 7127SOL     OW21426   4.328   3.348   2.342
 7127SOL    HW121427   4.379   3.294   2.274
 7127SOL    HW221428   4.255   3.398   2.295
 7128SOL     OW21429   5.455   2.256   3.243
 7128SOL    HW121430   5.527   2.324   3.243
 7128SOL    HW221431   5.480   2.180   3.182
 7129SOL     OW21432   3.977   3.210   2.150
 7129SOL    HW121433   3.881   3.203   2.123
 7129SOL    HW221434   3.983   3.248   2.242
 7130SOL     OW21435   3.835   2.885   3.586
 7130SOL    HW121436   3.753   2.859   3.637
 7130SOL    HW221437   3.915   2.841   3.628
 7131SOL     OW21438   4.407   2.056   3.362
 7131SOL    HW121439   4.493   2.032   3.317
 7131SOL    HW221440   4.425   2.090   3.454
 7132SOL     OW21441   3.805   2.191   1.892
 7132SOL    HW121442   3.713   2.167   1.861
 7132SOL    HW221443   3.837   2.272   1.843
 7133SOL     OW21444   5.148   2.719   3.258
 7133SOL    HW121445   5.092   2.781   3.203
 7133SOL    HW221446   5.242   2.719   3.224
 7134SOL     OW21447   3.788   2.017   2.165
 7134SOL    HW121448   3.771   2.102   2.115
 7134SOL    HW221449   3.876   1.979   2.138
 7135SOL     OW21450   4.904   3.200   1.982
 7135SOL    HW121451   4.809   3.170   1.976
 7135SOL    HW221452   4.933   3.201   2.078
 7136SOL     OW21453   4.348   2.692   3.295
 7136SOL    HW121454   4.405   2.772   3.279
 7136SOL    HW221455   4.406   2.611   3.305
 7137SOL     OW21456   5.214   3.646   2.851
 7137SOL    HW121457   5.227   3.708   2.774
 7137SOL    HW221458   5.301   3.632   2.899
 7138SOL     OW21459   4.446   2.420   3.565
 7138SOL    HW121460   4.490   2.487   3.624
 7138SOL    HW221461   4.466   2.328   3.598
 7139SOL     OW21462   5.199   3.061   3.496
 7139SOL    HW121463   5.182   3.073   3.594
 7139SOL    HW221464   5.297   3.072   3.478
 7140SOL     OW21465   4.105   3.640   3.392
 7140SOL    HW121466   4.017   3.687   3.384
 7140SOL    HW221467   4.090   3.542   3.403
 7141SOL     OW21468   5.389   2.740   3.117
 7141SOL    HW121469   5.385   2.648   3.077
 7141SOL    HW221470   5.378   2.808   3.045
 7142SOL     OW21471   4.943   2.179   2.322
 7142SOL    HW121472   5.007   2.102   2.312
 7142SOL    HW221473   4.970   2.234   2.401
 7143SOL     OW21474   4.311   2.599   2.530
 7143SOL    HW121475   4.352   2.689   2.520
 7143SOL    HW221476   4.241   2.586   2.460
 7144SOL     OW21477   5.475   2.227   3.514
 7144SOL    HW121478   5.466   2.243   3.416
 7144SOL    HW221479   5.402   2.167   3.546
 7145SOL     OW21480   5.473   2.794   3.371
 7145SOL    HW121481   5.460   2.890   3.393
 7145SOL    HW221482   5.455   2.779   3.274
 7146SOL     OW21483   4.590   3.226   1.904
 7146SOL    HW121484   4.549   3.250   1.992
 7146SOL    HW221485   4.606   3.309   1.851
 7147SOL     OW21486   4.388   3.647   2.803
 7147SOL    HW121487   4.366   3.742   2.783
 7147SOL    HW221488   4.487   3.634   2.795
 7148SOL     OW21489   4.593   2.832   2.718
 7148SOL    HW121490   4.644   2.754   2.755
 7148SOL    HW221491   4.551   2.883   2.793
 7149SOL     OW21492   4.802   2.851   1.946
 7149SOL    HW121493   4.774   2.905   1.866
 7149SOL    HW221494   4.880   2.793   1.922
 7150SOL     OW21495   5.574   3.414   2.708
 7150SOL    HW121496   5.495   3.408   2.647
 7150SOL    HW221497   5.561   3.352   2.785
 7151SOL     OW21498   3.960   3.091   3.736
 7151SOL    HW121499   3.889   3.036   3.692
 7151SOL    HW221500   3.920   3.142   3.813
 7152SOL     OW21501   3.811   3.091   2.525
 7152SOL    HW121502   3.814   3.045   2.614
 7152SOL    HW221503   3.880   3.052   2.464
 7153SOL     OW21504   5.529   2.045   3.096
 7153SOL    HW121505   5.544   1.949   3.120
 7153SOL    HW221506   5.542   2.057   2.998
 7154SOL     OW21507   4.154   2.291   2.389
 7154SOL    HW121508   4.188   2.220   2.326
 7154SOL    HW221509   4.100   2.247   2.461
 7155SOL     OW21510   5.423   3.341   2.953
 7155SOL    HW121511   5.340   3.326   2.900
 7155SOL    HW221512   5.429   3.274   3.026
 7156SOL     OW21513   4.058   2.417   3.151
 7156SOL    HW121514   4.115   2.361   3.211
 7156SOL    HW221515   4.074   2.392   3.056
 7157SOL     OW21516   4.553   3.440   2.539
 7157SOL    HW121517   4.541   3.502   2.462
 7157SOL    HW221518   4.475   3.378   2.545
 7158SOL     OW21519   5.155   2.092   2.979
 7158SOL    HW121520   5.178   2.003   3.017
 7158SOL    HW221521   5.100   2.144   3.046
 7159SOL     OW21522   4.734   1.878   3.000
 7159SOL    HW121523   4.670   1.815   2.957
 7159SOL    HW221524   4.825   1.838   3.002
 7160SOL     OW21525   4.498   3.194   2.182
 7160SOL    HW121526   4.470   3.098   2.190
 7160SOL    HW221527   4.583   3.208   2.233
 7161SOL     OW21528   4.358   3.417   3.161
 7161SOL    HW121529   4.359   3.508   3.203
 7161SOL    HW221530   4.445   3.401   3.115
 7162SOL     OW21531   5.077   1.913   2.031
 7162SOL    HW121532   5.119   1.846   1.969
 7162SOL    HW221533   4.985   1.883   2.054
 7163SOL     OW21534   5.015   2.326   2.543
 7163SOL    HW121535   4.962   2.411   2.545
 7163SOL    HW221536   5.013   2.283   2.633
 7164SOL     OW21537   5.310   2.066   2.745
 7164SOL    HW121538   5.252   2.085   2.824
 7164SOL    HW221539   5.312   2.146   2.685
 7165SOL     OW21540   3.767   2.927   2.169
 7165SOL    HW121541   3.865   2.927   2.150
 7165SOL    HW221542   3.737   2.834   2.192
 7166SOL     OW21543   4.608   3.523   2.202
 7166SOL    HW121544   4.533   3.502   2.139
 7166SOL    HW221545   4.582   3.601   2.260
 7167SOL     OW21546   3.947   2.479   3.852
 7167SOL    HW121547   3.855   2.482   3.891
 7167SOL    HW221548   3.940   2.458   3.754
 7168SOL     OW21549   3.947   2.144   4.719
 7168SOL    HW121550   3.979   2.110   4.807
 7168SOL    HW221551   3.853   2.112   4.702
 7169SOL     OW21552   3.725   2.248   4.358
 7169SOL    HW121553   3.641   2.278   4.403
 7169SOL    HW221554   3.707   2.164   4.306
 7170SOL     OW21555   4.293   3.158   4.908
 7170SOL    HW121556   4.202   3.154   4.866
 7170SOL    HW221557   4.310   3.250   4.942
 7171SOL     OW21558   5.287   3.374   4.432
 7171SOL    HW121559   5.245   3.351   4.520
 7171SOL    HW221560   5.216   3.381   4.362
 7172SOL     OW21561   4.857   2.564   4.420
 7172SOL    HW121562   4.908   2.648   4.403
 7172SOL    HW221563   4.806   2.573   4.505
 7173SOL     OW21564   5.493   2.462   3.947
 7173SOL    HW121565   5.470   2.458   3.850
 7173SOL    HW221566   5.455   2.382   3.994
 7174SOL     OW21567   4.469   3.003   4.764
 7174SOL    HW121568   4.401   3.038   4.829
 7174SOL    HW221569   4.513   3.080   4.718
 7175SOL     OW21570   4.597   2.628   5.545
 7175SOL    HW121571   4.585   2.696   5.617
 7175SOL    HW221572   4.621   2.674   5.459
 7176SOL     OW21573   4.408   2.862   4.373
 7176SOL    HW121574   4.479   2.851   4.443
 7176SOL    HW221575   4.333   2.917   4.409
 7177SOL     OW21576   4.435   3.015   5.541
 7177SOL    HW121577   4.487   3.094   5.573
 7177SOL    HW221578   4.350   3.046   5.500
 7178SOL     OW21579   4.050   3.286   4.790
 7178SOL    HW121580   3.974   3.241   4.743
 7178SOL    HW221581   4.103   3.338   4.723
 7179SOL     OW21582   5.182   3.363   5.081
 7179SOL    HW121583   5.240   3.445   5.088
 7179SOL    HW221584   5.112   3.365   5.152
 7180SOL     OW21585   4.174   2.256   5.204
 7180SOL    HW121586   4.255   2.198   5.211
 7180SOL    HW221587   4.092   2.202   5.222
 7181SOL     OW21588   5.336   2.309   4.468
 7181SOL    HW121589   5.260   2.327   4.406
 7181SOL    HW221590   5.344   2.383   4.534
 7182SOL     OW21591   3.948   3.576   4.204
 7182SOL    HW121592   3.966   3.656   4.260
 7182SOL    HW221593   4.021   3.564   4.137
 7183SOL     OW21594   4.861   3.202   5.421
 7183SOL    HW121595   4.908   3.200   5.510
 7183SOL    HW221596   4.805   3.120   5.412
 7184SOL     OW21597   3.956   3.308   4.269
 7184SOL    HW121598   3.939   3.406   4.268
 7184SOL    HW221599   3.894   3.264   4.334
 7185SOL     OW21600   3.993   2.952   4.625
 7185SOL    HW121601   3.988   2.858   4.657
 7185SOL    HW221602   3.930   3.009   4.677
 7186SOL     OW21603   4.324   3.658   5.150
 7186SOL    HW121604   4.241   3.634   5.200
 7186SOL    HW221605   4.355   3.749   5.178
 7187SOL     OW21606   4.308   2.849   3.861
 7187SOL    HW121607   4.354   2.894   3.785
 7187SOL    HW221608   4.347   2.881   3.947
 7188SOL     OW21609   5.321   1.987   5.194
 7188SOL    HW121610   5.338   2.067   5.137
 7188SOL    HW221611   5.307   2.015   5.288
 7189SOL     OW21612   3.838   2.522   4.288
 7189SOL    HW121613   3.809   2.427   4.304
 7189SOL    HW221614   3.832   2.574   4.373
 7190SOL     OW21615   5.569   3.618   4.058
 7190SOL    HW121616   5.640   3.589   4.123
 7190SOL    HW221617   5.586   3.713   4.031
 7191SOL     OW21618   3.668   3.448   3.889
 7191SOL    HW121619   3.708   3.358   3.906
 7191SOL    HW221620   3.703   3.513   3.956
 7192SOL     OW21621   5.415   2.783   4.371
 7192SOL    HW121622   5.499   2.732   4.354
 7192SOL    HW221623   5.391   2.836   4.290
 7193SOL     OW21624   5.376   2.967   4.155
 7193SOL    HW121625   5.465   2.964   4.110
 7193SOL    HW221626   5.379   3.034   4.230
 7194SOL     OW21627   3.847   2.606   5.309
 7194SOL    HW121628   3.944   2.632   5.311
 7194SOL    HW221629   3.791   2.689   5.312
 7195SOL     OW21630   4.337   3.255   4.453
 7195SOL    HW121631   4.291   3.167   4.466
 7195SOL    HW221632   4.323   3.285   4.359
 7196SOL     OW21633   5.013   3.098   5.146
 7196SOL    HW121634   5.040   3.027   5.080
 7196SOL    HW221635   5.072   3.093   5.226
 7197SOL     OW21636   4.541   1.871   4.232
 7197SOL    HW121637   4.587   1.957   4.210
 7197SOL    HW221638   4.442   1.886   4.240
 7198SOL     OW21639   3.915   2.825   4.999
 7198SOL    HW121640   4.004   2.781   4.985
 7198SOL    HW221641   3.845   2.776   4.947
 7199SOL     OW21642   5.256   2.862   3.927
 7199SOL    HW121643   5.182   2.801   3.957
 7199SOL    HW221644   5.302   2.899   4.007
 7200SOL     OW21645   4.906   3.672   5.346
 7200SOL    HW121646   4.914   3.741   5.273
 7200SOL    HW221647   4.926   3.582   5.308
 7201SOL     OW21648   4.064   2.111   5.553
 7201SOL    HW121649   4.113   2.197   5.568
 7201SOL    HW221650   3.967   2.124   5.574
 7202SOL     OW21651   5.189   3.282   4.672
 7202SOL    HW121652   5.122   3.301   4.744
 7202SOL    HW221653   5.180   3.186   4.643
 7203SOL     OW21654   5.375   3.609   4.303
 7203SOL    HW121655   5.358   3.581   4.208
 7203SOL    HW221656   5.353   3.534   4.364
 7204SOL     OW21657   4.319   2.583   3.996
 7204SOL    HW121658   4.322   2.668   3.943
 7204SOL    HW221659   4.249   2.592   4.067
 7205SOL     OW21660   5.001   2.219   4.657
 7205SOL    HW121661   4.908   2.185   4.664
 7205SOL    HW221662   5.060   2.167   4.719
 7206SOL     OW21663   5.309   3.535   4.035
 7206SOL    HW121664   5.405   3.564   4.033
 7206SOL    HW221665   5.277   3.517   3.942
 7207SOL     OW21666   4.514   2.475   5.174
 7207SOL    HW121667   4.489   2.452   5.268
 7207SOL    HW221668   4.476   2.407   5.111
 7208SOL     OW21669   5.115   2.332   5.403
 7208SOL    HW121670   5.116   2.381   5.490
 7208SOL    HW221671   5.177   2.253   5.410
 7209SOL     OW21672   4.677   2.747   5.307
 7209SOL    HW121673   4.735   2.675   5.269
 7209SOL    HW221674   4.623   2.789   5.233
 7210SOL     OW21675   4.718   2.268   4.954
 7210SOL    HW121676   4.629   2.291   4.993
 7210SOL    HW221677   4.705   2.219   4.868
 7211SOL     OW21678   4.774   2.561   4.149
 7211SOL    HW121679   4.795   2.556   4.246
 7211SOL    HW221680   4.688   2.513   4.131
 7212SOL     OW21681   3.813   2.689   4.504
 7212SOL    HW121682   3.898   2.677   4.554
 7212SOL    HW221683   3.764   2.768   4.540
 7213SOL     OW21684   3.852   3.731   5.311
 7213SOL    HW121685   3.857   3.704   5.407
 7213SOL    HW221686   3.766   3.700   5.271
 7214SOL     OW21687   4.620   2.214   3.920
 7214SOL    HW121688   4.660   2.282   3.858
 7214SOL    HW221689   4.629   2.123   3.881
 7215SOL     OW21690   5.426   2.435   5.550
 7215SOL    HW121691   5.390   2.514   5.500
 7215SOL    HW221692   5.456   2.365   5.484
 7216SOL     OW21693   5.104   3.004   4.259
 7216SOL    HW121694   5.188   2.988   4.208
 7216SOL    HW221695   5.048   3.072   4.211
 7217SOL     OW21696   4.271   2.036   4.624
 7217SOL    HW121697   4.275   2.066   4.719
 7217SOL    HW221698   4.274   2.116   4.564
 7218SOL     OW21699   4.727   3.305   4.198
 7218SOL    HW121700   4.699   3.386   4.145
 7218SOL    HW221701   4.706   3.320   4.295
 7219SOL     OW21702   4.080   3.675   4.594
 7219SOL    HW121703   4.124   3.586   4.601
 7219SOL    HW221704   4.147   3.747   4.613
 7220SOL     OW21705   5.522   2.919   4.595
 7220SOL    HW121706   5.470   2.896   4.513
 7220SOL    HW221707   5.459   2.925   4.673
 7221SOL     OW21708   4.951   3.398   5.238
 7221SOL    HW121709   4.938   3.324   5.304
 7221SOL    HW221710   4.883   3.389   5.165
 7222SOL     OW21711   4.046   2.819   3.979
 7222SOL    HW121712   4.131   2.845   3.934
 7222SOL    HW221713   4.011   2.735   3.937
 7223SOL     OW21714   5.207   2.611   4.447
 7223SOL    HW121715   5.200   2.566   4.536
 7223SOL    HW221716   5.287   2.670   4.446
 7224SOL     OW21717   4.192   3.127   5.455
 7224SOL    HW121718   4.166   3.133   5.359
 7224SOL    HW221719   4.110   3.124   5.512
 7225SOL     OW21720   4.844   3.634   3.942
 7225SOL    HW121721   4.766   3.599   3.993
 7225SOL    HW221722   4.875   3.565   3.877
 7226SOL     OW21723   3.926   2.138   5.227
 7226SOL    HW121724   3.844   2.195   5.222
 7226SOL    HW221725   3.905   2.052   5.273
 7227SOL     OW21726   5.349   3.240   3.816
 7227SOL    HW121727   5.309   3.331   3.807
 7227SOL    HW221728   5.280   3.171   3.795
 7228SOL     OW21729   4.187   3.598   4.056
 7228SOL    HW121730   4.224   3.663   4.122
 7228SOL    HW221731   4.252   3.584   3.982
 7229SOL     OW21732   5.125   1.966   4.159
 7229SOL    HW121733   5.113   1.941   4.064
 7229SOL    HW221734   5.223   1.975   4.179
 7230SOL     OW21735   3.982   3.654   4.951
 7230SOL    HW121736   4.033   3.582   4.998
 7230SOL    HW221737   3.964   3.625   4.857
 7231SOL     OW21738   4.660   3.564   4.622
 7231SOL    HW121739   4.742   3.517   4.654
 7231SOL    HW221740   4.618   3.511   4.548
 7232SOL     OW21741   4.120   2.550   4.200
 7232SOL    HW121742   4.140   2.453   4.213
 7232SOL    HW221743   4.022   2.567   4.216
 7233SOL     OW21744   5.253   2.085   5.452
 7233SOL    HW121745   5.264   2.106   5.549
 7233SOL    HW221746   5.181   2.017   5.441
 7234SOL     OW21747   4.364   1.980   3.826
 7234SOL    HW121748   4.433   1.911   3.848
 7234SOL    HW221749   4.308   1.948   3.749
 7235SOL     OW21750   4.488   2.138   5.481
 7235SOL    HW121751   4.572   2.084   5.475
 7235SOL    HW221752   4.436   2.111   5.562
 7236SOL     OW21753   4.599   3.377   4.916
 7236SOL    HW121754   4.580   3.341   4.825
 7236SOL    HW221755   4.672   3.323   4.959
 7237SOL     OW21756   5.064   2.451   5.159
 7237SOL    HW121757   5.094   2.416   5.248
 7237SOL    HW221758   5.099   2.543   5.146
 7238SOL     OW21759   4.543   3.252   4.664
 7238SOL    HW121760   4.633   3.240   4.622
 7238SOL    HW221761   4.474   3.257   4.593
 7239SOL     OW21762   4.651   2.370   4.622
 7239SOL    HW121763   4.625   2.362   4.526
 7239SOL    HW221764   4.683   2.281   4.655
 7240SOL     OW21765   4.271   1.926   4.219
 7240SOL    HW121766   4.189   1.924   4.276
 7240SOL    HW221767   4.268   2.007   4.160
 7241SOL     OW21768   5.149   3.060   3.767
 7241SOL    HW121769   5.184   2.982   3.818
 7241SOL    HW221770   5.060   3.087   3.804
 7242SOL     OW21771   4.015   1.910   3.910
 7242SOL    HW121772   4.067   1.982   3.864
 7242SOL    HW221773   4.077   1.845   3.953
 7243SOL     OW21774   4.670   2.112   4.181
 7243SOL    HW121775   4.638   2.154   4.096
 7243SOL    HW221776   4.768   2.126   4.190
 7244SOL     OW21777   4.803   2.544   5.179
 7244SOL    HW121778   4.728   2.479   5.185
 7244SOL    HW221779   4.890   2.495   5.175
 7245SOL     OW21780   4.945   3.430   4.517
 7245SOL    HW121781   4.959   3.501   4.448
 7245SOL    HW221782   5.015   3.439   4.588
 7246SOL     OW21783   4.193   3.015   4.452
 7246SOL    HW121784   4.126   2.994   4.523
 7246SOL    HW221785   4.151   3.001   4.362
 7247SOL     OW21786   4.987   3.654   4.333
 7247SOL    HW121787   5.040   3.716   4.276
 7247SOL    HW221788   4.916   3.705   4.381
 7248SOL     OW21789   4.745   2.399   3.753
 7248SOL    HW121790   4.699   2.485   3.729
 7248SOL    HW221791   4.814   2.416   3.823
 7249SOL     OW21792   3.810   2.419   5.115
 7249SOL    HW121793   3.904   2.414   5.083
 7249SOL    HW221794   3.802   2.490   5.185
 7250SOL     OW21795   4.282   2.086   4.895
 7250SOL    HW121796   4.332   2.010   4.937
 7250SOL    HW221797   4.187   2.084   4.925
 7251SOL     OW21798   4.590   2.321   4.361
 7251SOL    HW121799   4.542   2.382   4.298
 7251SOL    HW221800   4.617   2.238   4.311
 7252SOL     OW21801   4.741   1.914   4.470
 7252SOL    HW121802   4.680   1.915   4.391
 7252SOL    HW221803   4.716   1.838   4.530
 7253SOL     OW21804   5.168   3.023   4.582
 7253SOL    HW121805   5.093   2.957   4.587
 7253SOL    HW221806   5.197   3.034   4.487
 7254SOL     OW21807   5.192   2.469   4.695
 7254SOL    HW121808   5.130   2.390   4.695
 7254SOL    HW221809   5.253   2.463   4.774
 7255SOL     OW21810   5.566   2.672   4.104
 7255SOL    HW121811   5.624   2.624   4.170
 7255SOL    HW221812   5.536   2.608   4.033
 7256SOL     OW21813   4.227   3.215   3.931
 7256SOL    HW121814   4.133   3.213   3.965
 7256SOL    HW221815   4.227   3.200   3.832
 7257SOL     OW21816   5.398   3.129   4.367
 7257SOL    HW121817   5.497   3.126   4.379
 7257SOL    HW221818   5.364   3.221   4.389
 7258SOL     OW21819   5.114   2.436   3.795
 7258SOL    HW121820   5.051   2.414   3.869
 7258SOL    HW221821   5.207   2.409   3.820
 7259SOL     OW21822   4.252   2.126   4.035
 7259SOL    HW121823   4.299   2.074   3.964
 7259SOL    HW221824   4.224   2.215   3.997
 7260SOL     OW21825   5.477   3.102   5.286
 7260SOL    HW121826   5.566   3.060   5.274
 7260SOL    HW221827   5.488   3.196   5.320
 7261SOL     OW21828   4.778   3.212   5.060
 7261SOL    HW121829   4.697   3.182   5.110
 7261SOL    HW221830   4.860   3.172   5.102
 7262SOL     OW21831   5.337   3.491   5.380
 7262SOL    HW121832   5.322   3.526   5.288
 7262SOL    HW221833   5.423   3.440   5.383
 7263SOL     OW21834   4.860   3.079   4.829
 7263SOL    HW121835   4.801   3.114   4.902
 7263SOL    HW221836   4.825   3.110   4.740
 7264SOL     OW21837   5.349   2.959   4.803
 7264SOL    HW121838   5.345   3.024   4.879
 7264SOL    HW221839   5.272   2.975   4.742
 7265SOL     OW21840   4.647   1.956   5.116
 7265SOL    HW121841   4.668   1.934   5.021
 7265SOL    HW221842   4.726   2.000   5.159
 7266SOL     OW21843   4.703   2.977   5.445
 7266SOL    HW121844   4.609   2.996   5.472
 7266SOL    HW221845   4.706   2.894   5.389
 7267SOL     OW21846   4.438   2.924   4.095
 7267SOL    HW121847   4.418   2.905   4.192
 7267SOL    HW221848   4.516   2.869   4.066
 7268SOL     OW21849   4.146   2.676   4.978
 7268SOL    HW121850   4.219   2.690   5.045
 7268SOL    HW221851   4.107   2.585   4.988
 7269SOL     OW21852   4.987   2.239   5.004
 7269SOL    HW121853   5.024   2.318   5.053
 7269SOL    HW221854   4.892   2.256   4.979
 7270SOL     OW21855   3.798   3.434   5.077
 7270SOL    HW121856   3.763   3.505   5.016
 7270SOL    HW221857   3.898   3.432   5.072
 7271SOL     OW21858   4.069   2.980   4.210
 7271SOL    HW121859   4.074   3.061   4.152
 7271SOL    HW221860   4.066   2.898   4.152
 7272SOL     OW21861   4.273   2.405   4.586
 7272SOL    HW121862   4.287   2.465   4.507
 7272SOL    HW221863   4.341   2.426   4.655
 7273SOL     OW21864   4.972   3.216   4.120
 7273SOL    HW121865   5.034   3.288   4.150
 7273SOL    HW221866   4.880   3.234   4.153
 7274SOL     OW21867   5.011   3.323   4.871
 7274SOL    HW121868   5.069   3.329   4.952
 7274SOL    HW221869   4.956   3.240   4.876
 7275SOL     OW21870   5.301   2.483   4.206
 7275SOL    HW121871   5.251   2.531   4.277
 7275SOL    HW221872   5.349   2.549   4.148
 7276SOL     OW21873   4.072   3.391   5.034
 7276SOL    HW121874   4.056   3.347   4.946
 7276SOL    HW221875   4.170   3.405   5.047
 7277SOL     OW21876   4.139   2.608   5.324
 7277SOL    HW121877   4.205   2.654   5.265
 7277SOL    HW221878   4.173   2.516   5.347
 7278SOL     OW21879   5.331   2.646   5.408
 7278SOL    HW121880   5.240   2.688   5.406
 7278SOL    HW221881   5.388   2.687   5.337
 7279SOL     OW21882   4.721   1.995   5.474
 7279SOL    HW121883   4.779   2.074   5.458
 7279SOL    HW221884   4.770   1.912   5.448
 7280SOL     OW21885   4.217   1.899   5.474
 7280SOL    HW121886   4.172   1.840   5.406
 7280SOL    HW221887   4.159   1.978   5.492
 7281SOL     OW21888   4.308   2.733   4.758
 7281SOL    HW121889   4.343   2.827   4.755
 7281SOL    HW221890   4.248   2.723   4.837
 7282SOL     OW21891   5.077   2.719   4.749
 7282SOL    HW121892   4.986   2.711   4.708
 7282SOL    HW221893   5.125   2.632   4.741
 7283SOL     OW21894   4.922   2.389   3.989
 7283SOL    HW121895   4.935   2.306   4.044
 7283SOL    HW221896   4.878   2.459   4.044
 7284SOL     OW21897   4.021   2.059   4.971
 7284SOL    HW121898   3.985   2.095   5.056
 7284SOL    HW221899   4.005   1.960   4.967
 7285SOL     OW21900   3.776   3.172   5.000
 7285SOL    HW121901   3.808   3.111   5.072
 7285SOL    HW221902   3.779   3.266   5.032
 7286SOL     OW21903   4.448   2.493   4.779
 7286SOL    HW121904   4.525   2.473   4.718
 7286SOL    HW221905   4.413   2.585   4.760
 7287SOL     OW21906   5.459   2.823   5.579
 7287SOL    HW121907   5.416   2.754   5.520
 7287SOL    HW221908   5.400   2.841   5.657
 7288SOL     OW21909   4.030   1.923   4.352
 7288SOL    HW121910   4.006   2.019   4.370
 7288SOL    HW221911   4.041   1.875   4.438
 7289SOL     OW21912   5.350   2.242   4.087
 7289SOL    HW121913   5.376   2.169   4.150
 7289SOL    HW221914   5.322   2.322   4.139
 7290SOL     OW21915   4.748   2.617   4.682
 7290SOL    HW121916   4.743   2.639   4.780
 7290SOL    HW221917   4.721   2.522   4.668
 7291SOL     OW21918   4.705   3.425   5.441
 7291SOL    HW121919   4.689   3.473   5.355
 7291SOL    HW221920   4.753   3.339   5.423
 7292SOL     OW21921   5.579   3.366   5.328
 7292SOL    HW121922   5.598   3.392   5.233
 7292SOL    HW221923   5.662   3.378   5.382
 7293SOL     OW21924   4.077   2.780   5.528
 7293SOL    HW121925   4.157   2.802   5.584
 7293SOL    HW221926   4.102   2.714   5.457
 7294SOL     OW21927   5.252   2.131   3.854
 7294SOL    HW121928   5.182   2.063   3.879
 7294SOL    HW221929   5.288   2.173   3.938
 7295SOL     OW21930   5.013   2.688   3.751
 7295SOL    HW121931   5.054   2.597   3.759
 7295SOL    HW221932   5.044   2.731   3.666
 7296SOL     OW21933   4.793   3.199   4.578
 7296SOL    HW121934   4.797   3.121   4.515
 7296SOL    HW221935   4.853   3.272   4.544
 7297SOL     OW21936   4.035   2.668   4.667
 7297SOL    HW121937   4.132   2.694   4.662
 7297SOL    HW221938   4.027   2.574   4.700
 7298SOL     OW21939   4.052   2.389   4.735
 7298SOL    HW121940   4.013   2.297   4.724
 7298SOL    HW221941   4.132   2.398   4.677
 7299SOL     OW21942   4.858   2.235   5.416
 7299SOL    HW121943   4.805   2.292   5.478
 7299SOL    HW221944   4.950   2.272   5.407
 7300SOL     OW21945   4.886   2.066   5.199
 7300SOL    HW121946   4.871   2.128   5.276
 7300SOL    HW221947   4.928   2.115   5.123
 7301SOL     OW21948   3.732   3.172   3.919
 7301SOL    HW121949   3.640   3.189   3.883
 7301SOL    HW221950   3.736   3.079   3.957
 7302SOL     OW21951   3.817   3.646   4.667
 7302SOL    HW121952   3.781   3.565   4.622
 7302SOL    HW221953   3.911   3.663   4.635
 7303SOL     OW21954   4.218   3.437   4.629
 7303SOL    HW121955   4.288   3.504   4.655
 7303SOL    HW221956   4.259   3.370   4.566
 7304SOL     OW21957   4.700   2.656   4.949
 7304SOL    HW121958   4.760   2.632   5.025
 7304SOL    HW221959   4.610   2.614   4.962
 7305SOL     OW21960   3.761   2.414   4.841
 7305SOL    HW121961   3.843   2.400   4.786
 7305SOL    HW221962   3.786   2.416   4.938
 7306SOL     OW21963   3.916   2.385   5.454
 7306SOL    HW121964   3.969   2.331   5.388
 7306SOL    HW221965   3.876   2.464   5.408
 7307SOL     OW21966   5.104   2.798   5.379
 7307SOL    HW121967   5.127   2.895   5.380
 7307SOL    HW221968   5.101   2.765   5.284
 7308SOL     OW21969   4.541   2.435   4.084
 7308SOL    HW121970   4.549   2.355   4.024
 7308SOL    HW221971   4.463   2.490   4.054
 7309SOL     OW21972   5.367   2.465   4.906
 7309SOL    HW121973   5.350   2.406   4.984
 7309SOL    HW221974   5.458   2.447   4.869
 7310SOL     OW21975   3.964   3.409   5.450
 7310SOL    HW121976   3.943   3.484   5.514
 7310SOL    HW221977   3.970   3.323   5.501
 7311SOL     OW21978   4.431   2.310   4.977
 7311SOL    HW121979   4.373   2.232   4.953
 7311SOL    HW221980   4.428   2.378   4.904
 7312SOL     OW21981   4.645   3.543   5.195
 7312SOL    HW121982   4.619   3.498   5.109
 7312SOL    HW221983   4.645   3.642   5.181
 7313SOL     OW21984   4.184   2.358   3.911
 7313SOL    HW121985   4.248   2.431   3.935
 7313SOL    HW221986   4.093   2.396   3.897
 7314SOL     OW21987   3.867   2.999   5.199
 7314SOL    HW121988   3.868   2.954   5.288
 7314SOL    HW221989   3.887   2.932   5.127
 7315SOL     OW21990   5.041   2.906   4.943
 7315SOL    HW121991   5.068   2.838   4.875
 7315SOL    HW221992   4.973   2.967   4.903
 7316SOL     OW21993   5.039   2.720   4.024
 7316SOL    HW121994   4.963   2.691   4.082
 7316SOL    HW221995   5.013   2.706   3.928
 7317SOL     OW21996   5.503   3.593   4.879
 7317SOL    HW121997   5.564   3.627   4.808
 7317SOL    HW221998   5.472   3.501   4.855
 7318SOL     OW21999   4.965   3.594   4.829
 7318SOL    HW122000   5.051   3.623   4.786
 7318SOL    HW222001   4.971   3.498   4.853
 7319SOL     OW22002   3.810   3.127   4.735
 7319SOL    HW122003   3.794   3.142   4.832
 7319SOL    HW222004   3.737   3.069   4.698
 7320SOL     OW22005   4.404   3.535   5.459
 7320SOL    HW122006   4.342   3.613   5.455
 7320SOL    HW222007   4.477   3.546   5.391
 7321SOL     OW22008   5.443   2.011   4.224
 7321SOL    HW122009   5.519   2.001   4.159
 7321SOL    HW222010   5.426   1.923   4.269
 7322SOL     OW22011   5.118   3.433   4.211
 7322SOL    HW122012   5.184   3.466   4.142
 7322SOL    HW222013   5.064   3.510   4.245
 7323SOL     OW22014   3.869   3.649   5.570
 7323SOL    HW122015   3.811   3.582   5.615
 7323SOL    HW222016   3.918   3.703   5.638
 7324SOL     OW22017   5.006   2.790   4.390
 7324SOL    HW122018   5.080   2.725   4.406
 7324SOL    HW222019   5.039   2.867   4.336
 7325SOL     OW22020   4.529   3.140   5.151
 7325SOL    HW122021   4.500   3.183   5.236
 7325SOL    HW222022   4.460   3.155   5.080
 7326SOL     OW22023   5.341   3.591   5.111
 7326SOL    HW122024   5.399   3.592   5.029
 7326SOL    HW222025   5.327   3.684   5.143
 7327SOL     OW22026   5.566   2.032   4.688
 7327SOL    HW122027   5.600   1.940   4.665
 7327SOL    HW222028   5.475   2.044   4.648
 7328SOL     OW22029   3.980   2.176   4.440
 7328SOL    HW122030   3.891   2.213   4.412
 7328SOL    HW222031   3.983   2.168   4.539
 7329SOL     OW22032   4.941   3.451   3.754
 7329SOL    HW122033   4.932   3.361   3.798
 7329SOL    HW222034   4.900   3.448   3.663
 7330SOL     OW22035   4.547   2.871   5.102
 7330SOL    HW122036   4.598   2.856   5.017
 7330SOL    HW222037   4.545   2.969   5.122
 7331SOL     OW22038   4.645   2.774   4.010
 7331SOL    HW122039   4.707   2.810   3.941
 7331SOL    HW222040   4.690   2.702   4.062
 7332SOL     OW22041   5.215   3.489   3.774
 7332SOL    HW122042   5.117   3.474   3.763
 7332SOL    HW222043   5.257   3.499   3.683
 7333SOL     OW22044   4.090   3.165   5.211
 7333SOL    HW122045   4.080   3.245   5.153
 7333SOL    HW222046   4.010   3.105   5.200
 7334SOL     OW22047   5.338   3.146   5.008
 7334SOL    HW122048   5.401   3.127   5.084
 7334SOL    HW222049   5.272   3.216   5.036
 7335SOL     OW22050   4.784   2.968   4.438
 7335SOL    HW122051   4.708   2.918   4.478
 7335SOL    HW222052   4.852   2.903   4.404
 7336SOL     OW22053   4.746   2.101   4.691
 7336SOL    HW122054   4.742   2.057   4.601
 7336SOL    HW222055   4.744   2.031   4.763
 7337SOL     OW22056   4.329   3.356   4.195
 7337SOL    HW122057   4.359   3.291   4.126
 7337SOL    HW222058   4.248   3.404   4.163
 7338SOL     OW22059   5.454   2.256   5.104
 7338SOL    HW122060   5.527   2.325   5.105
 7338SOL    HW222061   5.480   2.181   5.044
 7339SOL     OW22062   3.976   3.212   4.024
 7339SOL    HW122063   3.882   3.205   3.989
 7339SOL    HW222064   3.974   3.251   4.116
 7340SOL     OW22065   3.838   2.895   5.451
 7340SOL    HW122066   3.757   2.868   5.502
 7340SOL    HW222067   3.919   2.850   5.490
 7341SOL     OW22068   4.407   2.056   5.224
 7341SOL    HW122069   4.493   2.032   5.179
 7341SOL    HW222070   4.425   2.090   5.316
 7342SOL     OW22071   3.805   2.190   3.753
 7342SOL    HW122072   3.713   2.167   3.722
 7342SOL    HW222073   3.838   2.272   3.705
 7343SOL     OW22074   5.148   2.719   5.119
 7343SOL    HW122075   5.093   2.783   5.066
 7343SOL    HW222076   5.242   2.720   5.086
 7344SOL     OW22077   3.788   2.017   4.027
 7344SOL    HW122078   3.771   2.102   3.977
 7344SOL    HW222079   3.876   1.979   4.000
 7345SOL     OW22080   4.905   3.196   3.854
 7345SOL    HW122081   4.813   3.157   3.847
 7345SOL    HW222082   4.934   3.197   3.950
 7346SOL     OW22083   4.347   2.692   5.157
 7346SOL    HW122084   4.404   2.773   5.143
 7346SOL    HW222085   4.405   2.611   5.167
 7347SOL     OW22086   5.209   3.648   4.710
 7347SOL    HW122087   5.231   3.711   4.635
 7347SOL    HW222088   5.294   3.616   4.752
 7348SOL     OW22089   4.446   2.421   5.427
 7348SOL    HW122090   4.490   2.488   5.486
 7348SOL    HW222091   4.466   2.329   5.460
 7349SOL     OW22092   5.197   3.059   5.359
 7349SOL    HW122093   5.182   3.072   5.457
 7349SOL    HW222094   5.293   3.077   5.337
 7350SOL     OW22095   4.096   3.600   5.290
 7350SOL    HW122096   4.012   3.651   5.276
 7350SOL    HW222097   4.075   3.512   5.333
 7351SOL     OW22098   5.390   2.740   4.980
 7351SOL    HW122099   5.385   2.649   4.939
 7351SOL    HW222100   5.378   2.810   4.909
 7352SOL     OW22101   4.943   2.179   4.184
 7352SOL    HW122102   5.007   2.102   4.174
 7352SOL    HW222103   4.970   2.234   4.263
 7353SOL     OW22104   4.311   2.599   4.393
 7353SOL    HW122105   4.353   2.689   4.381
 7353SOL    HW222106   4.241   2.585   4.322
 7354SOL     OW22107   5.476   2.227   5.376
 7354SOL    HW122108   5.465   2.243   5.278
 7354SOL    HW222109   5.402   2.167   5.408
 7355SOL     OW22110   5.475   2.794   5.234
 7355SOL    HW122111   5.465   2.891   5.255
 7355SOL    HW222112   5.455   2.779   5.137
 7356SOL     OW22113   4.596   3.200   3.784
 7356SOL    HW122114   4.561   3.208   3.877
 7356SOL    HW222115   4.616   3.291   3.748
 7357SOL     OW22116   4.388   3.648   4.665
 7357SOL    HW122117   4.364   3.743   4.644
 7357SOL    HW222118   4.487   3.635   4.656
 7358SOL     OW22119   4.593   2.832   4.580
 7358SOL    HW122120   4.644   2.754   4.617
 7358SOL    HW222121   4.551   2.883   4.656
 7359SOL     OW22122   4.805   2.856   3.809
 7359SOL    HW122123   4.773   2.904   3.728
 7359SOL    HW222124   4.881   2.795   3.785
 7360SOL     OW22125   5.571   3.418   4.571
 7360SOL    HW122126   5.494   3.406   4.509
 7360SOL    HW222127   5.566   3.349   4.643
 7361SOL     OW22128   3.955   3.161   5.581
 7361SOL    HW122129   3.888   3.095   5.546
 7361SOL    HW222130   3.940   3.175   5.679
 7362SOL     OW22131   3.809   3.092   4.388
 7362SOL    HW122132   3.814   3.045   4.476
 7362SOL    HW222133   3.878   3.054   4.326
 7363SOL     OW22134   4.406   3.271   5.357
 7363SOL    HW122135   4.325   3.221   5.389
 7363SOL    HW222136   4.404   3.363   5.394
 7364SOL     OW22137   5.529   2.045   4.958
 7364SOL    HW122138   5.544   1.949   4.982
 7364SOL    HW222139   5.542   2.056   4.859
 7365SOL     OW22140   4.155   2.290   4.251
 7365SOL    HW122141   4.188   2.220   4.188
 7365SOL    HW222142   4.100   2.247   4.323
 7366SOL     OW22143   5.418   3.345   4.818
 7366SOL    HW122144   5.337   3.327   4.763
 7366SOL    HW222145   5.428   3.274   4.888
 7367SOL     OW22146   4.058   2.418   5.013
 7367SOL    HW122147   4.115   2.361   5.073
 7367SOL    HW222148   4.074   2.392   4.918
 7368SOL     OW22149   4.553   3.441   4.403
 7368SOL    HW122150   4.534   3.506   4.329
 7368SOL    HW222151   4.476   3.377   4.411
 7369SOL     OW22152   5.155   2.092   4.841
 7369SOL    HW122153   5.178   2.003   4.879
 7369SOL    HW222154   5.100   2.144   4.907
 7370SOL     OW22155   4.734   1.878   4.862
 7370SOL    HW122156   4.670   1.815   4.819
 7370SOL    HW222157   4.825   1.838   4.864
 7371SOL     OW22158   4.515   3.196   4.041
 7371SOL    HW122159   4.470   3.108   4.050
 7371SOL    HW222160   4.591   3.201   4.107
 7372SOL     OW22161   4.347   3.421   5.013
 7372SOL    HW122162   4.345   3.508   5.063
 7372SOL    HW222163   4.438   3.408   4.973
 7373SOL     OW22164   5.077   1.913   3.893
 7373SOL    HW122165   5.119   1.846   3.831
 7373SOL    HW222166   4.985   1.883   3.916
 7374SOL     OW22167   5.016   2.326   4.405
 7374SOL    HW122168   4.963   2.411   4.407
 7374SOL    HW222169   5.013   2.283   4.495
 7375SOL     OW22170   5.310   2.066   4.607
 7375SOL    HW122171   5.252   2.084   4.686
 7375SOL    HW222172   5.312   2.145   4.547
 7376SOL     OW22173   3.769   2.925   4.032
 7376SOL    HW122174   3.867   2.923   4.011
 7376SOL    HW222175   3.739   2.833   4.055
 7377SOL     OW22176   4.611   3.519   4.066
 7377SOL    HW122177   4.531   3.461   4.049
 7377SOL    HW222178   4.584   3.598   4.122
 7378SOL     OW22179   3.946   2.482   5.713
 7378SOL    HW122180   3.855   2.482   5.753
 7378SOL    HW222181   3.940   2.459   5.616
 7379SOL     OW22182   3.944   2.149   6.582
 7379SOL    HW122183   3.980   2.111   6.667
 7379SOL    HW222184   3.853   2.113   6.565
 7380SOL     OW22185   3.725   2.248   6.221
 7380SOL    HW122186   3.640   2.278   6.265
 7380SOL    HW222187   3.707   2.164   6.169
 7381SOL     OW22188   4.283   3.143   6.755
 7381SOL    HW122189   4.195   3.163   6.713
 7381SOL    HW222190   4.313   3.221   6.810
 7382SOL     OW22191   5.287   3.374   6.294
 7382SOL    HW122192   5.243   3.352   6.381
 7382SOL    HW222193   5.218   3.382   6.222
 7383SOL     OW22194   4.856   2.565   6.282
 7383SOL    HW122195   4.908   2.649   6.266
 7383SOL    HW222196   4.805   2.572   6.367
 7384SOL     OW22197   5.494   2.462   5.809
 7384SOL    HW122198   5.470   2.457   5.712
 7384SOL    HW222199   5.455   2.383   5.857
 7385SOL     OW22200   4.482   3.006   6.628
 7385SOL    HW122201   4.407   3.032   6.689
 7385SOL    HW222202   4.515   3.087   6.579
 7386SOL     OW22203   4.408   2.861   6.235
 7386SOL    HW122204   4.479   2.850   6.305
 7386SOL    HW222205   4.333   2.917   6.272
 7387SOL     OW22206   4.056   3.275   6.649
 7387SOL    HW122207   3.972   3.242   6.607
 7387SOL    HW222208   4.104   3.336   6.586
 7388SOL     OW22209   5.336   2.310   6.329
 7388SOL    HW122210   5.259   2.327   6.267
 7388SOL    HW222211   5.339   2.382   6.398
 7389SOL     OW22212   3.946   3.576   6.057
 7389SOL    HW122213   3.964   3.655   6.116
 7389SOL    HW222214   4.021   3.566   5.992
 7390SOL     OW22215   3.956   3.305   6.122
 7390SOL    HW122216   3.941   3.404   6.122
 7390SOL    HW222217   3.897   3.262   6.190
 7391SOL     OW22218   3.990   2.953   6.486
 7391SOL    HW122219   3.986   2.859   6.522
 7391SOL    HW222220   3.931   3.012   6.541
 7392SOL     OW22221   4.338   3.667   6.988
 7392SOL    HW122222   4.249   3.639   0.023
 7392SOL    HW222223   4.360   3.758   0.023
 7393SOL     OW22224   4.307   2.849   5.726
 7393SOL    HW122225   4.354   2.896   5.652
 7393SOL    HW222226   4.347   2.877   5.814
 7394SOL     OW22227   3.838   2.523   6.150
 7394SOL    HW122228   3.808   2.428   6.166
 7394SOL    HW222229   3.832   2.575   6.235
 7395SOL     OW22230   5.569   3.618   5.919
 7395SOL    HW122231   5.638   3.587   5.984
 7395SOL    HW222232   5.586   3.714   5.896
 7396SOL     OW22233   3.752   3.453   5.709
 7396SOL    HW122234   3.737   3.356   5.729
 7396SOL    HW222235   3.732   3.507   5.791
 7397SOL     OW22236   5.414   2.782   6.231
 7397SOL    HW122237   5.499   2.732   6.214
 7397SOL    HW222238   5.391   2.836   6.150
 7398SOL     OW22239   5.376   2.967   6.017
 7398SOL    HW122240   5.465   2.965   5.972
 7398SOL    HW222241   5.379   3.034   6.092
 7399SOL     OW22242   4.336   3.252   6.320
 7399SOL    HW122243   4.289   3.164   6.333
 7399SOL    HW222244   4.322   3.282   6.226
 7400SOL     OW22245   4.541   1.870   6.094
 7400SOL    HW122246   4.587   1.956   6.072
 7400SOL    HW222247   4.442   1.886   6.102
 7401SOL     OW22248   3.917   2.840   6.846
 7401SOL    HW122249   4.000   2.786   6.830
 7401SOL    HW222250   3.837   2.786   6.822
 7402SOL     OW22251   5.256   2.862   5.790
 7402SOL    HW122252   5.182   2.801   5.819
 7402SOL    HW222253   5.303   2.900   5.870
 7403SOL     OW22254   5.177   3.285   6.532
 7403SOL    HW122255   5.119   3.299   6.612
 7403SOL    HW222256   5.174   3.189   6.505
 7404SOL     OW22257   5.374   3.610   6.162
 7404SOL    HW122258   5.356   3.580   6.068
 7404SOL    HW222259   5.354   3.535   6.225
 7405SOL     OW22260   4.319   2.582   5.858
 7405SOL    HW122261   4.325   2.667   5.805
 7405SOL    HW222262   4.250   2.591   5.929
 7406SOL     OW22263   4.999   2.217   6.517
 7406SOL    HW122264   4.905   2.184   6.525
 7406SOL    HW222265   5.057   2.167   6.581
 7407SOL     OW22266   5.307   3.534   5.893
 7407SOL    HW122267   5.403   3.562   5.891
 7407SOL    HW222268   5.275   3.517   5.800
 7408SOL     OW22269   4.518   2.471   0.046
 7408SOL    HW122270   4.456   2.513   0.112
 7408SOL    HW222271   4.466   2.415   6.981
 7409SOL     OW22272   4.729   2.255   6.794
 7409SOL    HW122273   4.669   2.309   6.853
 7409SOL    HW222274   4.675   2.208   6.724
 7410SOL     OW22275   4.774   2.561   6.011
 7410SOL    HW122276   4.796   2.556   6.108
 7410SOL    HW222277   4.688   2.513   5.994
 7411SOL     OW22278   3.813   2.688   6.367
 7411SOL    HW122279   3.899   2.677   6.417
 7411SOL    HW222280   3.764   2.768   6.402
 7412SOL     OW22281   3.883   3.714   0.149
 7412SOL    HW122282   3.844   3.641   0.205
 7412SOL    HW222283   3.824   3.729   0.069
 7413SOL     OW22284   4.620   2.215   5.782
 7413SOL    HW122285   4.660   2.282   5.720
 7413SOL    HW222286   4.630   2.123   5.743
 7414SOL     OW22287   5.103   3.005   6.120
 7414SOL    HW122288   5.188   2.989   6.070
 7414SOL    HW222289   5.047   3.072   6.071
 7415SOL     OW22290   4.271   2.036   6.484
 7415SOL    HW122291   4.277   2.067   6.579
 7415SOL    HW222292   4.275   2.115   6.423
 7416SOL     OW22293   4.720   3.305   6.050
 7416SOL    HW122294   4.687   3.385   6.000
 7416SOL    HW222295   4.704   3.318   6.148
 7417SOL     OW22296   4.079   3.676   6.453
 7417SOL    HW122297   4.122   3.586   6.463
 7417SOL    HW222298   4.147   3.747   6.473
 7418SOL     OW22299   5.525   2.918   6.452
 7418SOL    HW122300   5.473   2.895   6.370
 7418SOL    HW222301   5.462   2.919   6.531
 7419SOL     OW22302   4.046   2.821   5.840
 7419SOL    HW122303   4.134   2.841   5.796
 7419SOL    HW222304   4.009   2.736   5.802
 7420SOL     OW22305   5.206   2.610   6.307
 7420SOL    HW122306   5.198   2.564   6.395
 7420SOL    HW222307   5.286   2.669   6.307
 7421SOL     OW22308   4.845   3.638   5.813
 7421SOL    HW122309   4.767   3.600   5.861
 7421SOL    HW222310   4.875   3.574   5.742
 7422SOL     OW22311   5.349   3.243   5.673
 7422SOL    HW122312   5.310   3.334   5.658
 7422SOL    HW222313   5.279   3.174   5.655
 7423SOL     OW22314   4.189   3.597   5.905
 7423SOL    HW122315   4.230   3.659   5.971
 7423SOL    HW222316   4.260   3.561   5.844
 7424SOL     OW22317   5.125   1.966   6.022
 7424SOL    HW122318   5.114   1.941   5.926
 7424SOL    HW222319   5.223   1.975   6.042
 7425SOL     OW22320   3.992   3.661   6.819
 7425SOL    HW122321   4.041   3.601   6.883
 7425SOL    HW222322   3.951   3.605   6.747
 7426SOL     OW22323   4.660   3.562   6.482
 7426SOL    HW122324   4.745   3.517   6.509
 7426SOL    HW222325   4.617   3.511   6.407
 7427SOL     OW22326   4.119   2.551   6.061
 7427SOL    HW122327   4.139   2.454   6.074
 7427SOL    HW222328   4.022   2.567   6.078
 7428SOL     OW22329   4.364   1.980   5.688
 7428SOL    HW122330   4.433   1.911   5.710
 7428SOL    HW222331   4.308   1.948   5.611
 7429SOL     OW22332   4.593   3.381   6.762
 7429SOL    HW122333   4.575   3.346   6.670
 7429SOL    HW222334   4.633   3.308   6.818
 7430SOL     OW22335   4.543   3.252   6.520
 7430SOL    HW122336   4.632   3.241   6.478
 7430SOL    HW222337   4.472   3.256   6.449
 7431SOL     OW22338   4.651   2.370   6.485
 7431SOL    HW122339   4.624   2.362   6.389
 7431SOL    HW222340   4.688   2.283   6.516
 7432SOL     OW22341   4.271   1.926   6.081
 7432SOL    HW122342   4.189   1.924   6.138
 7432SOL    HW222343   4.268   2.007   6.022
 7433SOL     OW22344   5.149   3.060   5.629
 7433SOL    HW122345   5.183   2.983   5.682
 7433SOL    HW222346   5.061   3.089   5.665
 7434SOL     OW22347   4.015   1.910   5.772
 7434SOL    HW122348   4.068   1.982   5.726
 7434SOL    HW222349   4.077   1.845   5.815
 7435SOL     OW22350   4.669   2.112   6.043
 7435SOL    HW122351   4.638   2.154   5.958
 7435SOL    HW222352   4.768   2.125   6.052
 7436SOL     OW22353   4.943   3.432   6.381
 7436SOL    HW122354   4.957   3.503   6.312
 7436SOL    HW222355   5.021   3.431   6.444
 7437SOL     OW22356   4.192   3.012   6.315
 7437SOL    HW122357   4.124   2.993   6.387
 7437SOL    HW222358   4.150   2.999   6.226
 7438SOL     OW22359   4.987   3.654   6.196
 7438SOL    HW122360   5.039   3.716   6.137
 7438SOL    HW222361   4.914   3.704   6.242
 7439SOL     OW22362   4.745   2.399   5.615
 7439SOL    HW122363   4.700   2.485   5.591
 7439SOL    HW222364   4.814   2.416   5.685
 7440SOL     OW22365   4.287   2.083   6.756
 7440SOL    HW122366   4.332   1.999   6.786
 7440SOL    HW222367   4.191   2.083   6.786
 7441SOL     OW22368   4.589   2.321   6.223
 7441SOL    HW122369   4.542   2.382   6.159
 7441SOL    HW222370   4.617   2.238   6.175
 7442SOL     OW22371   4.742   1.910   6.328
 7442SOL    HW122372   4.680   1.911   6.250
 7442SOL    HW222373   4.717   1.836   6.390
 7443SOL     OW22374   5.164   3.022   6.442
 7443SOL    HW122375   5.095   2.950   6.444
 7443SOL    HW222376   5.195   3.036   6.348
 7444SOL     OW22377   5.190   2.467   6.551
 7444SOL    HW122378   5.128   2.388   6.557
 7444SOL    HW222379   5.253   2.464   6.629
 7445SOL     OW22380   5.567   2.672   5.965
 7445SOL    HW122381   5.625   2.624   6.031
 7445SOL    HW222382   5.537   2.608   5.895
 7446SOL     OW22383   4.211   3.282   5.742
 7446SOL    HW122384   4.131   3.255   5.795
 7446SOL    HW222385   4.208   3.238   5.652
 7447SOL     OW22386   5.398   3.129   6.229
 7447SOL    HW122387   5.497   3.126   6.242
 7447SOL    HW222388   5.364   3.221   6.251
 7448SOL     OW22389   5.114   2.436   5.657
 7448SOL    HW122390   5.051   2.414   5.731
 7448SOL    HW222391   5.207   2.409   5.683
 7449SOL     OW22392   4.252   2.126   5.897
 7449SOL    HW122393   4.299   2.074   5.826
 7449SOL    HW222394   4.224   2.215   5.859
 7450SOL     OW22395   5.481   3.042   0.171
 7450SOL    HW122396   5.579   3.028   0.155
 7450SOL    HW222397   5.456   3.135   0.146
 7451SOL     OW22398   4.843   3.099   6.695
 7451SOL    HW122399   4.759   3.060   6.733
 7451SOL    HW222400   4.829   3.122   6.599
 7452SOL     OW22401   5.344   2.946   6.651
 7452SOL    HW122402   5.345   3.017   6.721
 7452SOL    HW222403   5.269   2.963   6.587
 7453SOL     OW22404   4.437   2.921   5.959
 7453SOL    HW122405   4.419   2.904   6.056
 7453SOL    HW222406   4.515   2.867   5.929
 7454SOL     OW22407   4.148   2.675   6.846
 7454SOL    HW122408   4.207   2.700   6.923
 7454SOL    HW222409   4.112   2.583   6.860
 7455SOL     OW22410   4.993   2.249   6.856
 7455SOL    HW122411   5.020   2.323   6.917
 7455SOL    HW222412   4.898   2.263   6.827
 7456SOL     OW22413   3.814   3.424   6.859
 7456SOL    HW122414   3.751   3.498   6.882
 7456SOL    HW222415   3.889   3.422   6.925
 7457SOL     OW22416   4.068   2.979   6.073
 7457SOL    HW122417   4.073   3.061   6.016
 7457SOL    HW222418   4.066   2.898   6.014
 7458SOL     OW22419   4.271   2.407   6.449
 7458SOL    HW122420   4.285   2.466   6.369
 7458SOL    HW222421   4.342   2.426   6.517
 7459SOL     OW22422   4.970   3.216   5.978
 7459SOL    HW122423   5.031   3.289   6.009
 7459SOL    HW222424   4.877   3.236   6.008
 7460SOL     OW22425   5.005   3.312   6.746
 7460SOL    HW122426   5.040   3.303   6.840
 7460SOL    HW222427   4.944   3.236   6.726
 7461SOL     OW22428   5.301   2.484   6.067
 7461SOL    HW122429   5.251   2.531   6.140
 7461SOL    HW222430   5.349   2.551   6.010
 7462SOL     OW22431   4.091   3.358   6.905
 7462SOL    HW122432   4.059   3.322   6.818
 7462SOL    HW222433   4.186   3.389   6.896
 7463SOL     OW22434   4.308   2.732   6.623
 7463SOL    HW122435   4.341   2.826   6.616
 7463SOL    HW222436   4.248   2.724   6.702
 7464SOL     OW22437   5.073   2.718   6.596
 7464SOL    HW122438   4.982   2.704   6.556
 7464SOL    HW222439   5.125   2.633   6.593
 7465SOL     OW22440   4.922   2.389   5.851
 7465SOL    HW122441   4.935   2.306   5.906
 7465SOL    HW222442   4.878   2.459   5.906
 7466SOL     OW22443   4.026   2.063   6.834
 7466SOL    HW122444   3.987   2.093   6.921
 7466SOL    HW222445   4.014   1.964   6.825
 7467SOL     OW22446   3.751   3.163   6.868
 7467SOL    HW122447   3.804   3.116   6.938
 7467SOL    HW222448   3.778   3.260   6.866
 7468SOL     OW22449   4.449   2.489   6.642
 7468SOL    HW122450   4.527   2.468   6.583
 7468SOL    HW222451   4.417   2.582   6.624
 7469SOL     OW22452   4.029   1.924   6.212
 7469SOL    HW122453   4.005   2.019   6.231
 7469SOL    HW222454   4.040   1.875   6.299
 7470SOL     OW22455   5.350   2.242   5.948
 7470SOL    HW122456   5.376   2.169   6.011
 7470SOL    HW222457   5.322   2.323   6.001
 7471SOL     OW22458   4.746   2.619   6.550
 7471SOL    HW122459   4.742   2.639   6.648
 7471SOL    HW222460   4.721   2.523   6.535
 7472SOL     OW22461   5.252   2.131   5.716
 7472SOL    HW122462   5.182   2.063   5.741
 7472SOL    HW222463   5.288   2.173   5.799
 7473SOL     OW22464   5.013   2.688   5.613
 7473SOL    HW122465   5.054   2.597   5.621
 7473SOL    HW222466   5.044   2.730   5.528
 7474SOL     OW22467   4.796   3.198   6.439
 7474SOL    HW122468   4.799   3.121   6.376
 7474SOL    HW222469   4.854   3.272   6.404
 7475SOL     OW22470   4.037   2.667   6.529
 7475SOL    HW122471   4.133   2.694   6.522
 7475SOL    HW222472   4.031   2.572   6.559
 7476SOL     OW22473   4.055   2.390   6.603
 7476SOL    HW122474   4.015   2.300   6.590
 7476SOL    HW222475   4.135   2.400   6.545
 7477SOL     OW22476   4.863   2.101   0.053
 7477SOL    HW122477   4.929   2.120   0.126
 7477SOL    HW222478   4.899   2.138   6.967
 7478SOL     OW22479   3.725   3.178   5.780
 7478SOL    HW122480   3.635   3.197   5.740
 7478SOL    HW222481   3.726   3.084   5.816
 7479SOL     OW22482   3.815   3.651   6.527
 7479SOL    HW122483   3.780   3.568   6.484
 7479SOL    HW222484   3.911   3.665   6.500
 7480SOL     OW22485   4.218   3.440   6.491
 7480SOL    HW122486   4.288   3.505   6.519
 7480SOL    HW222487   4.258   3.371   6.430
 7481SOL     OW22488   4.706   2.659   6.823
 7481SOL    HW122489   4.783   2.634   6.881
 7481SOL    HW222490   4.623   2.614   6.857
 7482SOL     OW22491   3.774   2.417   6.713
 7482SOL    HW122492   3.830   2.383   6.637
 7482SOL    HW222493   3.833   2.453   6.785
 7483SOL     OW22494   4.541   2.434   5.947
 7483SOL    HW122495   4.550   2.354   5.886
 7483SOL    HW222496   4.463   2.489   5.917
 7484SOL     OW22497   5.371   2.472   6.753
 7484SOL    HW122498   5.356   2.413   6.832
 7484SOL    HW222499   5.466   2.461   6.721
 7485SOL     OW22500   4.397   2.325   6.850
 7485SOL    HW122501   4.361   2.237   6.818
 7485SOL    HW222502   4.412   2.385   6.771
 7486SOL     OW22503   4.667   3.524   6.998
 7486SOL    HW122504   4.634   3.515   6.904
 7486SOL    HW222505   4.648   3.617   0.031
 7487SOL     OW22506   4.183   2.357   5.772
 7487SOL    HW122507   4.248   2.430   5.797
 7487SOL    HW222508   4.093   2.397   5.758
 7488SOL     OW22509   3.881   3.005   0.058
 7488SOL    HW122510   3.934   2.963   0.131
 7488SOL    HW222511   3.890   2.950   6.975
 7489SOL     OW22512   5.011   2.870   6.814
 7489SOL    HW122513   5.049   2.818   6.737
 7489SOL    HW222514   4.982   2.960   6.781
 7490SOL     OW22515   5.039   2.719   5.885
 7490SOL    HW122516   4.963   2.691   5.944
 7490SOL    HW222517   5.013   2.706   5.790
 7491SOL     OW22518   5.480   3.620   6.724
 7491SOL    HW122519   5.555   3.643   6.662
 7491SOL    HW222520   5.458   3.523   6.716
 7492SOL     OW22521   4.971   3.588   6.700
 7492SOL    HW122522   5.055   3.617   6.653
 7492SOL    HW222523   4.976   3.490   6.718
 7493SOL     OW22524   3.805   3.126   6.600
 7493SOL    HW122525   3.786   3.135   6.697
 7493SOL    HW222526   3.738   3.066   6.557
 7494SOL     OW22527   5.443   2.011   6.085
 7494SOL    HW122528   5.519   2.001   6.022
 7494SOL    HW222529   5.425   1.924   6.131
 7495SOL     OW22530   5.119   3.432   6.073
 7495SOL    HW122531   5.182   3.464   6.002
 7495SOL    HW222532   5.064   3.510   6.106
 7496SOL     OW22533   5.005   2.790   6.253
 7496SOL    HW122534   5.080   2.725   6.268
 7496SOL    HW222535   5.039   2.867   6.198
 7497SOL     OW22536   4.393   3.483   5.740
 7497SOL    HW122537   4.409   3.501   5.643
 7497SOL    HW222538   4.334   3.402   5.750
 7498SOL     OW22539   5.565   2.036   6.555
 7498SOL    HW122540   5.600   1.945   6.533
 7498SOL    HW222541   5.474   2.047   6.517
 7499SOL     OW22542   3.980   2.177   6.301
 7499SOL    HW122543   3.891   2.213   6.273
 7499SOL    HW222544   3.983   2.169   6.401
 7500SOL     OW22545   4.932   3.463   5.619
 7500SOL    HW122546   4.923   3.369   5.652
 7500SOL    HW222547   4.865   3.480   5.547
 7501SOL     OW22548   4.502   2.888   6.951
 7501SOL    HW122549   4.561   2.846   6.882
 7501SOL    HW222550   4.547   2.970   6.988
 7502SOL     OW22551   4.644   2.772   5.873
 7502SOL    HW122552   4.705   2.808   5.803
 7502SOL    HW222553   4.690   2.701   5.925
 7503SOL     OW22554   5.212   3.491   5.628
 7503SOL    HW122555   5.114   3.480   5.617
 7503SOL    HW222556   5.256   3.497   5.538
 7504SOL     OW22557   5.339   3.141   6.835
 7504SOL    HW122558   5.429   3.143   6.879
 7504SOL    HW222559   5.270   3.119   6.903
 7505SOL     OW22560   4.784   2.968   6.300
 7505SOL    HW122561   4.707   2.917   6.339
 7505SOL    HW222562   4.852   2.904   6.266
 7506SOL     OW22563   4.743   2.099   6.541
 7506SOL    HW122564   4.742   2.049   6.454
 7506SOL    HW222565   4.745   2.033   6.616
 7507SOL     OW22566   4.328   3.348   6.066
 7507SOL    HW122567   4.379   3.294   5.999
 7507SOL    HW222568   4.255   3.397   6.021
 7508SOL     OW22569   5.419   2.285   6.945
 7508SOL    HW122570   5.488   2.292   0.018
 7508SOL    HW222571   5.426   2.195   6.903
 7509SOL     OW22572   3.977   3.210   5.874
 7509SOL    HW122573   3.881   3.203   5.847
 7509SOL    HW222574   3.983   3.248   5.967
 7510SOL     OW22575   4.395   2.052   0.081
 7510SOL    HW122576   4.485   2.029   0.043
 7510SOL    HW222577   4.405   2.130   0.143
 7511SOL     OW22578   3.805   2.191   5.616
 7511SOL    HW122579   3.713   2.167   5.585
 7511SOL    HW222580   3.837   2.272   5.567
 7512SOL     OW22581   3.788   2.017   5.889
 7512SOL    HW122582   3.771   2.102   5.838
 7512SOL    HW222583   3.876   1.979   5.863
 7513SOL     OW22584   4.904   3.200   5.706
 7513SOL    HW122585   4.809   3.170   5.700
 7513SOL    HW222586   4.933   3.201   5.802
 7514SOL     OW22587   5.215   3.645   6.578
 7514SOL    HW122588   5.228   3.706   6.500
 7514SOL    HW222589   5.303   3.626   6.621
 7515SOL     OW22590   5.217   3.154   0.283
 7515SOL    HW122591   5.125   3.146   0.322
 7515SOL    HW222592   5.252   3.063   0.260
 7516SOL     OW22593   4.110   3.589   0.090
 7516SOL    HW122594   4.030   3.643   0.117
 7516SOL    HW222595   4.103   3.497   0.129
 7517SOL     OW22596   5.422   2.740   6.829
 7517SOL    HW122597   5.389   2.650   6.801
 7517SOL    HW222598   5.388   2.810   6.766
 7518SOL     OW22599   4.943   2.179   6.046
 7518SOL    HW122600   5.007   2.102   6.035
 7518SOL    HW222601   4.970   2.234   6.125
 7519SOL     OW22602   4.310   2.599   6.255
 7519SOL    HW122603   4.352   2.689   6.244
 7519SOL    HW222604   4.240   2.586   6.184
 7520SOL     OW22605   5.495   2.768   0.093
 7520SOL    HW122606   5.482   2.863   0.121
 7520SOL    HW222607   5.468   2.757   6.998
 7521SOL     OW22608   4.590   3.226   5.628
 7521SOL    HW122609   4.549   3.250   5.716
 7521SOL    HW222610   4.605   3.310   5.575
 7522SOL     OW22611   4.390   3.649   6.533
 7522SOL    HW122612   4.366   3.742   6.507
 7522SOL    HW222613   4.489   3.635   6.519
 7523SOL     OW22614   4.593   2.831   6.443
 7523SOL    HW122615   4.642   2.753   6.480
 7523SOL    HW222616   4.553   2.885   6.517
 7524SOL     OW22617   4.802   2.852   5.670
 7524SOL    HW122618   4.774   2.905   5.590
 7524SOL    HW222619   4.880   2.793   5.646
 7525SOL     OW22620   5.574   3.419   6.432
 7525SOL    HW122621   5.494   3.406   6.373
 7525SOL    HW222622   5.569   3.357   6.510
 7526SOL     OW22623   3.810   3.091   6.249
 7526SOL    HW122624   3.813   3.045   6.338
 7526SOL    HW222625   3.880   3.052   6.189
 7527SOL     OW22626   5.535   2.038   6.835
 7527SOL    HW122627   5.512   1.941   6.837
 7527SOL    HW222628   5.550   2.067   6.740
 7528SOL     OW22629   4.155   2.291   6.113
 7528SOL    HW122630   4.188   2.221   6.050
 7528SOL    HW222631   4.100   2.247   6.185
 7529SOL     OW22632   5.404   3.364   6.676
 7529SOL    HW122633   5.326   3.343   6.616
 7529SOL    HW222634   5.416   3.290   6.742
 7530SOL     OW22635   4.040   2.411   6.878
 7530SOL    HW122636   4.112   2.359   6.925
 7530SOL    HW222637   4.050   2.399   6.779
 7531SOL     OW22638   4.552   3.441   6.263
 7531SOL    HW122639   4.540   3.502   6.185
 7531SOL    HW222640   4.475   3.378   6.269
 7532SOL     OW22641   5.158   2.097   6.702
 7532SOL    HW122642   5.193   2.016   6.749
 7532SOL    HW222643   5.104   2.151   6.766
 7533SOL     OW22644   4.740   1.881   6.714
 7533SOL    HW122645   4.677   1.814   6.674
 7533SOL    HW222646   4.831   1.839   6.724
 7534SOL     OW22647   4.498   3.194   5.906
 7534SOL    HW122648   4.470   3.098   5.914
 7534SOL    HW222649   4.583   3.207   5.957
 7535SOL     OW22650   4.348   3.427   6.865
 7535SOL    HW122651   4.345   3.522   6.895
 7535SOL    HW222652   4.435   3.409   6.819
 7536SOL     OW22653   5.078   1.913   5.755
 7536SOL    HW122654   5.120   1.845   5.694
 7536SOL    HW222655   4.985   1.884   5.778
 7537SOL     OW22656   5.016   2.325   6.266
 7537SOL    HW122657   4.963   2.410   6.269
 7537SOL    HW222658   5.013   2.281   6.356
 7538SOL     OW22659   5.311   2.067   6.470
 7538SOL    HW122660   5.249   2.085   6.547
 7538SOL    HW222661   5.312   2.146   6.409
 7539SOL     OW22662   3.767   2.927   5.893
 7539SOL    HW122663   3.865   2.927   5.874
 7539SOL    HW222664   3.737   2.834   5.915
 7540SOL     OW22665   4.608   3.523   5.927
 7540SOL    HW122666   4.533   3.502   5.864
 7540SOL    HW222667   4.582   3.601   5.984
 7541SOL     OW22668   3.945   4.361   0.136
 7541SOL    HW122669   3.849   4.345   0.161
 7541SOL    HW222670   3.957   4.341   0.038
 7542SOL     OW22671   3.946   4.006   0.994
 7542SOL    HW122672   3.979   3.972   1.082
 7542SOL    HW222673   3.853   3.974   0.978
 7543SOL     OW22674   3.725   4.111   0.637
 7543SOL    HW122675   3.643   4.145   0.683
 7543SOL    HW222676   3.704   4.025   0.591
 7544SOL     OW22677   4.293   5.020   1.184
 7544SOL    HW122678   4.202   5.016   1.141
 7544SOL    HW222679   4.310   5.112   1.218
 7545SOL     OW22680   5.287   5.237   0.708
 7545SOL    HW122681   5.246   5.212   0.796
 7545SOL    HW222682   5.217   5.240   0.638
 7546SOL     OW22683   4.855   4.425   0.696
 7546SOL    HW122684   4.909   4.508   0.680
 7546SOL    HW222685   4.805   4.434   0.782
 7547SOL     OW22686   5.508   4.304   0.202
 7547SOL    HW122687   5.442   4.352   0.144
 7547SOL    HW222688   5.459   4.241   0.263
 7548SOL     OW22689   4.469   4.865   1.040
 7548SOL    HW122690   4.401   4.899   1.105
 7548SOL    HW222691   4.513   4.942   0.994
 7549SOL     OW22692   4.597   4.490   1.821
 7549SOL    HW122693   4.585   4.558   1.893
 7549SOL    HW222694   4.621   4.536   1.735
 7550SOL     OW22695   4.407   4.721   0.651
 7550SOL    HW122696   4.478   4.712   0.720
 7550SOL    HW222697   4.333   4.778   0.686
 7551SOL     OW22698   4.435   4.877   1.817
 7551SOL    HW122699   4.487   4.956   1.849
 7551SOL    HW222700   4.349   4.908   1.776
 7552SOL     OW22701   4.050   5.148   1.066
 7552SOL    HW122702   3.974   5.103   1.019
 7552SOL    HW222703   4.104   5.200   0.999
 7553SOL     OW22704   5.182   5.225   1.357
 7553SOL    HW122705   5.240   5.307   1.364
 7553SOL    HW222706   5.112   5.227   1.429
 7554SOL     OW22707   4.174   4.118   1.479
 7554SOL    HW122708   4.255   4.060   1.487
 7554SOL    HW222709   4.092   4.064   1.497
 7555SOL     OW22710   5.337   4.173   0.747
 7555SOL    HW122711   5.263   4.194   0.683
 7555SOL    HW222712   5.347   4.248   0.812
 7556SOL     OW22713   3.944   5.447   0.470
 7556SOL    HW122714   3.962   5.526   0.529
 7556SOL    HW222715   4.029   5.419   0.425
 7557SOL     OW22716   4.861   5.064   1.698
 7557SOL    HW122717   4.908   5.062   1.786
 7557SOL    HW222718   4.805   4.982   1.688
 7558SOL     OW22719   3.938   5.172   0.533
 7558SOL    HW122720   3.927   5.270   0.543
 7558SOL    HW222721   3.887   5.124   0.605
 7559SOL     OW22722   3.991   4.814   0.900
 7559SOL    HW122723   3.987   4.720   0.933
 7559SOL    HW222724   3.929   4.871   0.953
 7560SOL     OW22725   4.324   5.521   1.426
 7560SOL    HW122726   4.241   5.497   1.476
 7560SOL    HW222727   4.355   5.611   1.454
 7561SOL     OW22728   4.311   4.692   0.146
 7561SOL    HW122729   4.369   4.714   0.068
 7561SOL    HW222730   4.348   4.737   0.228
 7562SOL     OW22731   5.320   3.849   1.469
 7562SOL    HW122732   5.339   3.929   1.412
 7562SOL    HW222733   5.306   3.878   1.564
 7563SOL     OW22734   3.839   4.377   0.562
 7563SOL    HW122735   3.809   4.284   0.582
 7563SOL    HW222736   3.833   4.433   0.645
 7564SOL     OW22737   5.560   5.487   0.349
 7564SOL    HW122738   5.631   5.457   0.413
 7564SOL    HW222739   5.566   5.586   0.337
 7565SOL     OW22740   3.739   5.304   0.147
 7565SOL    HW122741   3.668   5.237   0.126
 7565SOL    HW222742   3.716   5.351   0.232
 7566SOL     OW22743   5.415   4.638   0.650
 7566SOL    HW122744   5.499   4.588   0.631
 7566SOL    HW222745   5.393   4.696   0.571
 7567SOL     OW22746   5.379   4.820   0.445
 7567SOL    HW122747   5.448   4.839   0.375
 7567SOL    HW222748   5.384   4.889   0.517
 7568SOL     OW22749   3.848   4.468   1.585
 7568SOL    HW122750   3.944   4.494   1.587
 7568SOL    HW222751   3.791   4.551   1.588
 7569SOL     OW22752   4.336   5.113   0.737
 7569SOL    HW122753   4.289   5.025   0.750
 7569SOL    HW222754   4.326   5.142   0.642
 7570SOL     OW22755   5.013   4.960   1.422
 7570SOL    HW122756   5.040   4.889   1.356
 7570SOL    HW222757   5.072   4.955   1.502
 7571SOL     OW22758   4.542   3.736   0.514
 7571SOL    HW122759   4.588   3.822   0.490
 7571SOL    HW222760   4.444   3.751   0.522
 7572SOL     OW22761   3.915   4.687   1.276
 7572SOL    HW122762   4.004   4.643   1.261
 7572SOL    HW222763   3.845   4.638   1.223
 7573SOL     OW22764   5.217   4.743   0.213
 7573SOL    HW122765   5.149   4.676   0.245
 7573SOL    HW222766   5.303   4.729   0.262
 7574SOL     OW22767   4.905   5.534   1.622
 7574SOL    HW122768   4.914   5.602   1.549
 7574SOL    HW222769   4.926   5.443   1.585
 7575SOL     OW22770   4.064   3.973   1.829
 7575SOL    HW122771   4.114   4.059   1.844
 7575SOL    HW222772   3.967   3.986   1.850
 7576SOL     OW22773   5.188   5.144   0.947
 7576SOL    HW122774   5.121   5.163   1.020
 7576SOL    HW222775   5.180   5.049   0.919
 7577SOL     OW22776   5.368   5.474   0.583
 7577SOL    HW122777   5.350   5.447   0.489
 7577SOL    HW222778   5.350   5.396   0.644
 7578SOL     OW22779   4.324   4.441   0.266
 7578SOL    HW122780   4.330   4.531   0.223
 7578SOL    HW222781   4.259   4.445   0.342
 7579SOL     OW22782   5.001   4.080   0.932
 7579SOL    HW122783   4.907   4.047   0.940
 7579SOL    HW222784   5.061   4.029   0.994
 7580SOL     OW22785   5.300   5.400   0.316
 7580SOL    HW122786   5.395   5.432   0.315
 7580SOL    HW222787   5.266   5.392   0.223
 7581SOL     OW22788   4.514   4.337   1.450
 7581SOL    HW122789   4.489   4.314   1.544
 7581SOL    HW222790   4.475   4.269   1.387
 7582SOL     OW22791   5.115   4.194   1.679
 7582SOL    HW122792   5.116   4.243   1.766
 7582SOL    HW222793   5.177   4.115   1.686
 7583SOL     OW22794   4.677   4.609   1.583
 7583SOL    HW122795   4.735   4.537   1.545
 7583SOL    HW222796   4.623   4.651   1.509
 7584SOL     OW22797   4.718   4.131   1.230
 7584SOL    HW122798   4.629   4.154   1.270
 7584SOL    HW222799   4.704   4.080   1.145
 7585SOL     OW22800   4.774   4.425   0.429
 7585SOL    HW122801   4.797   4.422   0.526
 7585SOL    HW222802   4.689   4.376   0.413
 7586SOL     OW22803   3.814   4.548   0.777
 7586SOL    HW122804   3.899   4.537   0.829
 7586SOL    HW222805   3.764   4.627   0.813
 7587SOL     OW22806   3.852   5.593   1.587
 7587SOL    HW122807   3.857   5.566   1.683
 7587SOL    HW222808   3.766   5.561   1.547
 7588SOL     OW22809   4.612   4.066   0.206
 7588SOL    HW122810   4.662   4.127   0.145
 7588SOL    HW222811   4.628   3.971   0.180
 7589SOL     OW22812   5.426   4.297   1.826
 7589SOL    HW122813   5.390   4.376   1.776
 7589SOL    HW222814   5.456   4.227   1.761
 7590SOL     OW22815   5.106   4.865   0.549
 7590SOL    HW122816   5.189   4.852   0.496
 7590SOL    HW222817   5.046   4.931   0.504
 7591SOL     OW22818   4.271   3.899   0.900
 7591SOL    HW122819   4.275   3.928   0.995
 7591SOL    HW222820   4.274   3.979   0.840
 7592SOL     OW22821   4.716   5.164   0.470
 7592SOL    HW122822   4.684   5.244   0.420
 7592SOL    HW222823   4.699   5.176   0.568
 7593SOL     OW22824   4.080   5.537   0.868
 7593SOL    HW122825   4.124   5.447   0.875
 7593SOL    HW222826   4.147   5.608   0.888
 7594SOL     OW22827   5.523   4.779   0.873
 7594SOL    HW122828   5.473   4.757   0.790
 7594SOL    HW222829   5.460   4.785   0.950
 7595SOL     OW22830   4.950   5.260   1.515
 7595SOL    HW122831   4.937   5.186   1.580
 7595SOL    HW222832   4.884   5.251   1.440
 7596SOL     OW22833   4.039   4.684   0.229
 7596SOL    HW122834   4.132   4.697   0.194
 7596SOL    HW222835   4.010   4.590   0.210
 7597SOL     OW22836   5.207   4.469   0.724
 7597SOL    HW122837   5.202   4.428   0.815
 7597SOL    HW222838   5.287   4.529   0.719
 7598SOL     OW22839   4.192   4.989   1.731
 7598SOL    HW122840   4.166   4.995   1.635
 7598SOL    HW222841   4.110   4.986   1.788
 7599SOL     OW22842   4.843   5.490   0.241
 7599SOL    HW122843   4.771   5.444   0.293
 7599SOL    HW222844   4.881   5.428   0.173
 7600SOL     OW22845   3.926   4.000   1.502
 7600SOL    HW122846   3.844   4.057   1.499
 7600SOL    HW222847   3.905   3.914   1.549
 7601SOL     OW22848   5.370   5.154   0.101
 7601SOL    HW122849   5.323   5.238   0.072
 7601SOL    HW222850   5.306   5.095   0.149
 7602SOL     OW22851   4.208   5.424   0.377
 7602SOL    HW122852   4.237   5.508   0.422
 7602SOL    HW222853   4.267   5.406   0.298
 7603SOL     OW22854   3.982   5.516   1.227
 7603SOL    HW122855   4.034   5.444   1.274
 7603SOL    HW222856   3.964   5.487   1.133
 7604SOL     OW22857   4.660   5.426   0.897
 7604SOL    HW122858   4.743   5.378   0.927
 7604SOL    HW222859   4.617   5.374   0.823
 7605SOL     OW22860   4.121   4.412   0.470
 7605SOL    HW122861   4.141   4.315   0.488
 7605SOL    HW222862   4.024   4.430   0.489
 7606SOL     OW22863   5.253   3.947   1.728
 7606SOL    HW122864   5.264   3.968   1.825
 7606SOL    HW222865   5.181   3.879   1.717
 7607SOL     OW22866   4.488   4.000   1.757
 7607SOL    HW122867   4.571   3.946   1.751
 7607SOL    HW222868   4.436   3.973   1.838
 7608SOL     OW22869   4.599   5.239   1.193
 7608SOL    HW122870   4.579   5.203   1.101
 7608SOL    HW222871   4.672   5.185   1.235
 7609SOL     OW22872   5.064   4.313   1.435
 7609SOL    HW122873   5.094   4.278   1.524
 7609SOL    HW222874   5.100   4.405   1.422
 7610SOL     OW22875   4.543   5.114   0.941
 7610SOL    HW122876   4.633   5.102   0.898
 7610SOL    HW222877   4.473   5.119   0.870
 7611SOL     OW22878   4.651   4.231   0.900
 7611SOL    HW122879   4.625   4.223   0.803
 7611SOL    HW222880   4.684   4.142   0.932
 7612SOL     OW22881   4.273   3.796   0.504
 7612SOL    HW122882   4.190   3.793   0.559
 7612SOL    HW222883   4.269   3.874   0.442
 7613SOL     OW22884   5.146   4.937   0.014
 7613SOL    HW122885   5.175   4.855   0.064
 7613SOL    HW222886   5.062   4.974   0.054
 7614SOL     OW22887   4.672   3.973   0.461
 7614SOL    HW122888   4.639   4.014   0.376
 7614SOL    HW222889   4.771   3.988   0.469
 7615SOL     OW22890   4.804   4.407   1.456
 7615SOL    HW122891   4.729   4.341   1.462
 7615SOL    HW222892   4.891   4.358   1.452
 7616SOL     OW22893   4.943   5.291   0.796
 7616SOL    HW122894   4.957   5.361   0.726
 7616SOL    HW222895   5.016   5.298   0.864
 7617SOL     OW22896   4.194   4.876   0.732
 7617SOL    HW122897   4.124   4.854   0.799
 7617SOL    HW222898   4.156   4.867   0.640
 7618SOL     OW22899   4.982   5.510   0.611
 7618SOL    HW122900   5.037   5.572   0.555
 7618SOL    HW222901   4.910   5.561   0.657
 7619SOL     OW22902   4.786   4.302   0.031
 7619SOL    HW122903   4.691   4.326   0.050
 7619SOL    HW222904   4.835   4.291   0.118
 7620SOL     OW22905   3.809   4.281   1.391
 7620SOL    HW122906   3.904   4.276   1.359
 7620SOL    HW222907   3.802   4.352   1.461
 7621SOL     OW22908   4.282   3.948   1.171
 7621SOL    HW122909   4.332   3.872   1.213
 7621SOL    HW222910   4.187   3.946   1.201
 7622SOL     OW22911   4.590   4.181   0.639
 7622SOL    HW122912   4.545   4.244   0.575
 7622SOL    HW222913   4.617   4.098   0.590
 7623SOL     OW22914   4.742   3.773   0.743
 7623SOL    HW122915   4.678   3.774   0.666
 7623SOL    HW222916   4.718   3.700   0.806
 7624SOL     OW22917   5.169   4.885   0.860
 7624SOL    HW122918   5.094   4.820   0.862
 7624SOL    HW222919   5.202   4.896   0.766
 7625SOL     OW22920   5.192   4.332   0.973
 7625SOL    HW122921   5.131   4.252   0.972
 7625SOL    HW222922   5.253   4.326   1.051
 7626SOL     OW22923   5.554   4.530   0.390
 7626SOL    HW122924   5.614   4.469   0.442
 7626SOL    HW222925   5.546   4.497   0.296
 7627SOL     OW22926   4.199   5.147   0.153
 7627SOL    HW122927   4.138   5.100   0.216
 7627SOL    HW222928   4.160   5.145   0.060
 7628SOL     OW22929   5.396   4.989   0.652
 7628SOL    HW122930   5.496   4.987   0.661
 7628SOL    HW222931   5.363   5.083   0.666
 7629SOL     OW22932   5.115   4.278   0.068
 7629SOL    HW122933   5.055   4.275   0.147
 7629SOL    HW222934   5.179   4.201   0.071
 7630SOL     OW22935   4.239   3.989   0.313
 7630SOL    HW122936   4.250   3.922   0.240
 7630SOL    HW222937   4.216   4.078   0.274
 7631SOL     OW22938   5.477   4.964   1.563
 7631SOL    HW122939   5.567   4.922   1.550
 7631SOL    HW222940   5.488   5.058   1.596
 7632SOL     OW22941   4.778   5.074   1.336
 7632SOL    HW122942   4.697   5.045   1.387
 7632SOL    HW222943   4.860   5.034   1.378
 7633SOL     OW22944   5.337   5.353   1.656
 7633SOL    HW122945   5.322   5.388   1.564
 7633SOL    HW222946   5.423   5.302   1.659
 7634SOL     OW22947   4.860   4.942   1.105
 7634SOL    HW122948   4.800   4.976   1.178
 7634SOL    HW222949   4.826   4.972   1.016
 7635SOL     OW22950   5.348   4.820   1.079
 7635SOL    HW122951   5.344   4.886   1.155
 7635SOL    HW222952   5.273   4.837   1.016
 7636SOL     OW22953   4.647   3.819   1.392
 7636SOL    HW122954   4.669   3.796   1.297
 7636SOL    HW222955   4.726   3.862   1.435
 7637SOL     OW22956   4.703   4.839   1.721
 7637SOL    HW122957   4.609   4.858   1.748
 7637SOL    HW222958   4.706   4.756   1.665
 7638SOL     OW22959   4.437   4.781   0.375
 7638SOL    HW122960   4.419   4.765   0.472
 7638SOL    HW222961   4.517   4.728   0.347
 7639SOL     OW22962   4.146   4.538   1.254
 7639SOL    HW122963   4.219   4.552   1.321
 7639SOL    HW222964   4.107   4.447   1.265
 7640SOL     OW22965   4.987   4.101   1.280
 7640SOL    HW122966   5.024   4.180   1.329
 7640SOL    HW222967   4.891   4.118   1.255
 7641SOL     OW22968   3.798   5.296   1.353
 7641SOL    HW122969   3.763   5.367   1.291
 7641SOL    HW222970   3.898   5.294   1.348
 7642SOL     OW22971   4.090   4.844   0.484
 7642SOL    HW122972   4.069   4.921   0.424
 7642SOL    HW222973   4.086   4.758   0.432
 7643SOL     OW22974   4.273   4.267   0.861
 7643SOL    HW122975   4.288   4.326   0.781
 7643SOL    HW222976   4.341   4.288   0.931
 7644SOL     OW22977   4.967   5.068   0.406
 7644SOL    HW122978   5.026   5.144   0.435
 7644SOL    HW222979   4.873   5.087   0.433
 7645SOL     OW22980   5.010   5.185   1.147
 7645SOL    HW122981   5.069   5.191   1.228
 7645SOL    HW222982   4.956   5.102   1.152
 7646SOL     OW22983   5.311   4.350   0.480
 7646SOL    HW122984   5.254   4.394   0.550
 7646SOL    HW222985   5.367   4.420   0.435
 7647SOL     OW22986   4.072   5.253   1.310
 7647SOL    HW122987   4.056   5.209   1.222
 7647SOL    HW222988   4.170   5.267   1.323
 7648SOL     OW22989   4.139   4.470   1.600
 7648SOL    HW122990   4.205   4.516   1.541
 7648SOL    HW222991   4.173   4.378   1.623
 7649SOL     OW22992   5.331   4.508   1.684
 7649SOL    HW122993   5.240   4.550   1.682
 7649SOL    HW222994   5.388   4.549   1.613
 7650SOL     OW22995   4.721   3.857   1.750
 7650SOL    HW122996   4.779   3.936   1.734
 7650SOL    HW222997   4.770   3.774   1.724
 7651SOL     OW22998   4.217   3.761   1.750
 7651SOL    HW122999   4.172   3.702   1.682
 7651SOL    HW223000   4.159   3.840   1.768
 7652SOL     OW23001   4.307   4.595   1.034
 7652SOL    HW123002   4.343   4.689   1.030
 7652SOL    HW223003   4.248   4.585   1.114
 7653SOL     OW23004   5.077   4.581   1.026
 7653SOL    HW123005   4.988   4.574   0.982
 7653SOL    HW223006   5.125   4.494   1.018
 7654SOL     OW23007   4.920   4.251   0.272
 7654SOL    HW123008   4.934   4.171   0.330
 7654SOL    HW223009   4.881   4.325   0.327
 7655SOL     OW23010   4.021   3.921   1.246
 7655SOL    HW123011   3.985   3.957   1.332
 7655SOL    HW223012   4.005   3.822   1.243
 7656SOL     OW23013   3.775   5.034   1.276
 7656SOL    HW123014   3.808   4.973   1.348
 7656SOL    HW223015   3.779   5.128   1.308
 7657SOL     OW23016   4.447   4.354   1.055
 7657SOL    HW123017   4.525   4.335   0.995
 7657SOL    HW223018   4.413   4.447   1.036
 7658SOL     OW23019   5.459   4.684   1.855
 7658SOL    HW123020   5.416   4.616   1.796
 7658SOL    HW223021   5.400   4.703   1.933
 7659SOL     OW23022   4.029   3.789   0.629
 7659SOL    HW123023   4.005   3.884   0.649
 7659SOL    HW223024   4.040   3.739   0.715
 7660SOL     OW23025   5.350   4.100   0.375
 7660SOL    HW123026   5.375   4.030   0.442
 7660SOL    HW223027   5.328   4.185   0.422
 7661SOL     OW23028   4.747   4.479   0.958
 7661SOL    HW123029   4.743   4.501   1.056
 7661SOL    HW223030   4.721   4.384   0.945
 7662SOL     OW23031   4.705   5.287   1.717
 7662SOL    HW123032   4.689   5.335   1.631
 7662SOL    HW223033   4.753   5.201   1.699
 7663SOL     OW23034   5.579   5.228   1.604
 7663SOL    HW123035   5.597   5.254   1.509
 7663SOL    HW223036   5.662   5.240   1.658
 7664SOL     OW23037   4.077   4.642   1.804
 7664SOL    HW123038   4.157   4.663   1.860
 7664SOL    HW223039   4.102   4.577   1.733
 7665SOL     OW23040   5.212   4.016   0.153
 7665SOL    HW123041   5.172   3.926   0.167
 7665SOL    HW223042   5.270   4.040   0.231
 7666SOL     OW23043   5.018   4.546   0.033
 7666SOL    HW123044   5.064   4.458   0.024
 7666SOL    HW223045   5.044   4.606   6.958
 7667SOL     OW23046   4.792   5.061   0.855
 7667SOL    HW123047   4.797   4.983   0.792
 7667SOL    HW223048   4.852   5.133   0.821
 7668SOL     OW23049   4.035   4.530   0.943
 7668SOL    HW123050   4.132   4.557   0.940
 7668SOL    HW223051   4.028   4.436   0.976
 7669SOL     OW23052   4.052   4.251   1.011
 7669SOL    HW123053   4.013   4.159   1.000
 7669SOL    HW223054   4.133   4.260   0.953
 7670SOL     OW23055   4.858   4.097   1.692
 7670SOL    HW123056   4.805   4.154   1.754
 7670SOL    HW223057   4.950   4.134   1.683
 7671SOL     OW23058   4.885   3.928   1.475
 7671SOL    HW123059   4.871   3.990   1.552
 7671SOL    HW223060   4.928   3.977   1.399
 7672SOL     OW23061   3.817   5.508   0.943
 7672SOL    HW123062   3.780   5.427   0.898
 7672SOL    HW223063   3.911   5.524   0.911
 7673SOL     OW23064   4.218   5.300   0.905
 7673SOL    HW123065   4.288   5.366   0.932
 7673SOL    HW223066   4.258   5.232   0.844
 7674SOL     OW23067   4.700   4.518   1.225
 7674SOL    HW123068   4.760   4.494   1.301
 7674SOL    HW223069   4.610   4.476   1.240
 7675SOL     OW23070   3.761   4.275   1.117
 7675SOL    HW123071   3.843   4.262   1.062
 7675SOL    HW223072   3.786   4.278   1.214
 7676SOL     OW23073   3.916   4.247   1.730
 7676SOL    HW123074   3.969   4.194   1.664
 7676SOL    HW223075   3.876   4.326   1.684
 7677SOL     OW23076   5.104   4.660   1.655
 7677SOL    HW123077   5.127   4.757   1.656
 7677SOL    HW223078   5.101   4.627   1.560
 7678SOL     OW23079   4.542   4.292   0.370
 7678SOL    HW123080   4.550   4.214   0.308
 7678SOL    HW223081   4.465   4.349   0.342
 7679SOL     OW23082   5.367   4.327   1.182
 7679SOL    HW123083   5.350   4.267   1.261
 7679SOL    HW223084   5.458   4.309   1.145
 7680SOL     OW23085   3.964   5.271   1.726
 7680SOL    HW123086   3.943   5.345   1.790
 7680SOL    HW223087   3.970   5.185   1.776
 7681SOL     OW23088   4.430   4.172   1.253
 7681SOL    HW123089   4.373   4.094   1.229
 7681SOL    HW223090   4.427   4.240   1.180
 7682SOL     OW23091   4.644   5.405   1.471
 7682SOL    HW123092   4.619   5.359   1.386
 7682SOL    HW223093   4.644   5.504   1.457
 7683SOL     OW23094   4.180   4.223   0.189
 7683SOL    HW123095   4.244   4.296   0.214
 7683SOL    HW223096   4.087   4.259   0.185
 7684SOL     OW23097   3.867   4.861   1.475
 7684SOL    HW123098   3.868   4.816   1.564
 7684SOL    HW223099   3.887   4.794   1.403
 7685SOL     OW23100   5.040   4.768   1.220
 7685SOL    HW123101   5.068   4.700   1.152
 7685SOL    HW223102   4.972   4.830   1.179
 7686SOL     OW23103   5.026   4.570   0.306
 7686SOL    HW123104   4.943   4.543   0.357
 7686SOL    HW223105   5.013   4.550   0.209
 7687SOL     OW23106   5.504   5.455   1.156
 7687SOL    HW123107   5.565   5.489   1.085
 7687SOL    HW223108   5.473   5.363   1.132
 7688SOL     OW23109   4.966   5.457   1.106
 7688SOL    HW123110   5.051   5.486   1.063
 7688SOL    HW223111   4.971   5.360   1.129
 7689SOL     OW23112   3.809   4.990   1.010
 7689SOL    HW123113   3.793   5.004   1.108
 7689SOL    HW223114   3.738   4.931   0.973
 7690SOL     OW23115   4.404   5.397   1.735
 7690SOL    HW123116   4.343   5.475   1.730
 7690SOL    HW223117   4.477   5.407   1.667
 7691SOL     OW23118   4.662   3.801   0.113
 7691SOL    HW123119   4.733   3.855   0.067
 7691SOL    HW223120   4.705   3.742   0.182
 7692SOL     OW23121   5.452   3.884   0.528
 7692SOL    HW123122   5.522   3.876   0.457
 7692SOL    HW223123   5.425   3.792   0.558
 7693SOL     OW23124   5.114   5.286   0.490
 7693SOL    HW123125   5.179   5.316   0.421
 7693SOL    HW223126   5.060   5.364   0.522
 7694SOL     OW23127   3.869   5.512   1.846
 7694SOL    HW123128   3.811   5.444   1.891
 7694SOL    HW223129   3.918   5.565   1.914
 7695SOL     OW23130   5.006   4.647   0.670
 7695SOL    HW123131   5.081   4.582   0.684
 7695SOL    HW223132   5.040   4.726   0.618
 7696SOL     OW23133   4.529   5.002   1.427
 7696SOL    HW123134   4.499   5.045   1.512
 7696SOL    HW223135   4.460   5.017   1.356
 7697SOL     OW23136   4.398   5.328   0.191
 7697SOL    HW123137   4.404   5.376   0.103
 7697SOL    HW223138   4.340   5.246   0.180
 7698SOL     OW23139   5.341   5.452   1.387
 7698SOL    HW123140   5.399   5.453   1.305
 7698SOL    HW223141   5.327   5.546   1.419
 7699SOL     OW23142   5.566   3.894   0.963
 7699SOL    HW123143   5.600   3.803   0.941
 7699SOL    HW223144   5.475   3.906   0.923
 7700SOL     OW23145   3.980   4.041   0.716
 7700SOL    HW123146   3.891   4.077   0.688
 7700SOL    HW223147   3.983   4.032   0.816
 7701SOL     OW23148   4.943   5.323   0.039
 7701SOL    HW123149   4.937   5.228   0.070
 7701SOL    HW223150   4.858   5.350   6.994
 7702SOL     OW23151   4.547   4.733   1.377
 7702SOL    HW123152   4.598   4.718   1.293
 7702SOL    HW223153   4.545   4.831   1.398
 7703SOL     OW23154   4.647   4.637   0.293
 7703SOL    HW123155   4.702   4.666   0.215
 7703SOL    HW223156   4.695   4.565   0.344
 7704SOL     OW23157   5.213   5.378   0.041
 7704SOL    HW123158   5.115   5.357   0.040
 7704SOL    HW223159   5.244   5.391   6.947
 7705SOL     OW23160   4.090   5.027   1.487
 7705SOL    HW123161   4.080   5.107   1.428
 7705SOL    HW223162   4.010   4.967   1.476
 7706SOL     OW23163   5.337   5.007   1.284
 7706SOL    HW123164   5.401   4.989   1.359
 7706SOL    HW223165   5.272   5.078   1.313
 7707SOL     OW23166   4.784   4.830   0.714
 7707SOL    HW123167   4.708   4.780   0.754
 7707SOL    HW223168   4.852   4.765   0.680
 7708SOL     OW23169   4.746   3.962   0.966
 7708SOL    HW123170   4.742   3.918   0.877
 7708SOL    HW223171   4.744   3.893   1.038
 7709SOL     OW23172   4.336   5.202   0.485
 7709SOL    HW123173   4.375   5.151   0.408
 7709SOL    HW223174   4.275   5.273   0.449
 7710SOL     OW23175   5.455   4.118   1.380
 7710SOL    HW123176   5.527   4.186   1.381
 7710SOL    HW223177   5.480   4.042   1.320
 7711SOL     OW23178   4.002   5.045   0.308
 7711SOL    HW123179   3.918   5.032   0.256
 7711SOL    HW223180   3.981   5.098   0.391
 7712SOL     OW23181   3.838   4.757   1.727
 7712SOL    HW123182   3.757   4.730   1.778
 7712SOL    HW223183   3.919   4.712   1.766
 7713SOL     OW23184   4.407   3.918   1.500
 7713SOL    HW123185   4.493   3.894   1.455
 7713SOL    HW223186   4.425   3.952   1.592
 7714SOL     OW23187   3.828   4.048   0.016
 7714SOL    HW123188   3.766   3.993   6.960
 7714SOL    HW223189   3.860   4.127   6.963
 7715SOL     OW23190   5.148   4.581   1.395
 7715SOL    HW123191   5.093   4.645   1.342
 7715SOL    HW223192   5.242   4.582   1.362
 7716SOL     OW23193   3.774   3.898   0.328
 7716SOL    HW123194   3.760   3.989   0.290
 7716SOL    HW223195   3.850   3.854   0.281
 7717SOL     OW23196   4.910   5.069   0.128
 7717SOL    HW123197   4.812   5.052   0.111
 7717SOL    HW223198   4.929   5.059   0.225
 7718SOL     OW23199   4.347   4.554   1.433
 7718SOL    HW123200   4.404   4.635   1.419
 7718SOL    HW223201   4.405   4.473   1.443
 7719SOL     OW23202   5.209   5.512   0.987
 7719SOL    HW123203   5.233   5.574   0.912
 7719SOL    HW223204   5.293   5.476   1.028
 7720SOL     OW23205   4.446   4.283   1.703
 7720SOL    HW123206   4.490   4.350   1.762
 7720SOL    HW223207   4.466   4.191   1.736
 7721SOL     OW23208   5.197   4.921   1.635
 7721SOL    HW123209   5.182   4.934   1.733
 7721SOL    HW223210   5.293   4.939   1.613
 7722SOL     OW23211   4.096   5.462   1.566
 7722SOL    HW123212   4.012   5.513   1.552
 7722SOL    HW223213   4.075   5.374   1.609
 7723SOL     OW23214   5.390   4.602   1.256
 7723SOL    HW123215   5.385   4.511   1.215
 7723SOL    HW223216   5.378   4.672   1.185
 7724SOL     OW23217   4.945   4.040   0.457
 7724SOL    HW123218   5.026   3.989   0.428
 7724SOL    HW223219   4.967   4.093   0.539
 7725SOL     OW23220   4.312   4.459   0.665
 7725SOL    HW123221   4.352   4.550   0.658
 7725SOL    HW223222   4.241   4.448   0.596
 7726SOL     OW23223   5.476   4.089   1.652
 7726SOL    HW123224   5.465   4.105   1.554
 7726SOL    HW223225   5.402   4.029   1.684
 7727SOL     OW23226   5.475   4.656   1.510
 7727SOL    HW123227   5.465   4.753   1.531
 7727SOL    HW223228   5.455   4.641   1.413
 7728SOL     OW23229   4.625   5.107   0.051
 7728SOL    HW123230   4.563   5.082   0.126
 7728SOL    HW223231   4.629   5.206   0.043
 7729SOL     OW23232   4.388   5.510   0.943
 7729SOL    HW123233   4.365   5.605   0.920
 7729SOL    HW223234   4.487   5.497   0.932
 7730SOL     OW23235   4.593   4.694   0.857
 7730SOL    HW123236   4.644   4.616   0.893
 7730SOL    HW223237   4.551   4.745   0.932
 7731SOL     OW23238   4.805   4.707   0.082
 7731SOL    HW123239   4.800   4.763   6.999
 7731SOL    HW223240   4.885   4.647   0.076
 7732SOL     OW23241   5.571   5.281   0.847
 7732SOL    HW123242   5.494   5.267   0.784
 7732SOL    HW223243   5.572   5.208   0.915
 7733SOL     OW23244   3.954   5.023   1.857
 7733SOL    HW123245   3.888   4.957   1.823
 7733SOL    HW223246   3.940   5.037   1.955
 7734SOL     OW23247   3.806   4.958   0.665
 7734SOL    HW123248   3.821   4.907   0.750
 7734SOL    HW223249   3.855   4.914   0.590
 7735SOL     OW23250   4.406   5.133   1.633
 7735SOL    HW123251   4.325   5.083   1.665
 7735SOL    HW223252   4.404   5.225   1.670
 7736SOL     OW23253   5.529   3.907   1.234
 7736SOL    HW123254   5.544   3.811   1.258
 7736SOL    HW223255   5.542   3.918   1.135
 7737SOL     OW23256   4.155   4.153   0.528
 7737SOL    HW123257   4.186   4.082   0.465
 7737SOL    HW223258   4.101   4.113   0.601
 7738SOL     OW23259   5.416   5.208   1.096
 7738SOL    HW123260   5.336   5.189   1.039
 7738SOL    HW223261   5.426   5.136   1.164
 7739SOL     OW23262   4.058   4.280   1.289
 7739SOL    HW123263   4.115   4.223   1.349
 7739SOL    HW223264   4.074   4.253   1.194
 7740SOL     OW23265   4.551   5.304   0.680
 7740SOL    HW123266   4.540   5.362   0.599
 7740SOL    HW223267   4.474   5.240   0.686
 7741SOL     OW23268   5.155   3.955   1.117
 7741SOL    HW123269   5.179   3.866   1.155
 7741SOL    HW223270   5.100   4.006   1.184
 7742SOL     OW23271   4.734   3.740   1.138
 7742SOL    HW123272   4.670   3.676   1.095
 7742SOL    HW223273   4.825   3.700   1.140
 7743SOL     OW23274   4.507   5.042   0.308
 7743SOL    HW123275   4.473   4.950   0.328
 7743SOL    HW223276   4.584   5.063   0.368
 7744SOL     OW23277   4.347   5.283   1.289
 7744SOL    HW123278   4.345   5.370   1.339
 7744SOL    HW223279   4.438   5.270   1.249
 7745SOL     OW23280   5.077   3.777   0.185
 7745SOL    HW123281   5.116   3.721   0.113
 7745SOL    HW223282   4.990   3.738   0.215
 7746SOL     OW23283   5.009   4.184   0.679
 7746SOL    HW123284   4.960   4.271   0.682
 7746SOL    HW223285   5.011   4.143   0.770
 7747SOL     OW23286   5.309   3.927   0.883
 7747SOL    HW123287   5.252   3.948   0.962
 7747SOL    HW223288   5.313   4.007   0.823
 7748SOL     OW23289   3.811   4.779   0.360
 7748SOL    HW123290   3.899   4.755   0.319
 7748SOL    HW223291   3.756   4.696   0.371
 7749SOL     OW23292   4.612   5.386   0.353
 7749SOL    HW123293   4.537   5.357   0.294
 7749SOL    HW223294   4.583   5.465   0.407
 7750SOL     OW23295   3.947   4.344   1.989
 7750SOL    HW123296   3.855   4.344   2.029
 7750SOL    HW223297   3.940   4.321   1.892
 7751SOL     OW23298   3.947   4.007   2.856
 7751SOL    HW123299   3.980   3.972   2.944
 7751SOL    HW223300   3.854   3.974   2.840
 7752SOL     OW23301   3.725   4.110   2.496
 7752SOL    HW123302   3.641   4.139   2.541
 7752SOL    HW223303   3.708   4.026   2.445
 7753SOL     OW23304   4.293   5.020   3.046
 7753SOL    HW123305   4.202   5.017   3.004
 7753SOL    HW223306   4.310   5.113   3.080
 7754SOL     OW23307   5.288   5.237   2.570
 7754SOL    HW123308   5.245   5.213   2.657
 7754SOL    HW223309   5.217   5.244   2.499
 7755SOL     OW23310   4.857   4.427   2.557
 7755SOL    HW123311   4.908   4.511   2.541
 7755SOL    HW223312   4.806   4.434   2.643
 7756SOL     OW23313   5.493   4.324   2.085
 7756SOL    HW123314   5.470   4.319   1.988
 7756SOL    HW223315   5.455   4.245   2.132
 7757SOL     OW23316   4.469   4.865   2.902
 7757SOL    HW123317   4.401   4.900   2.967
 7757SOL    HW223318   4.513   4.942   2.856
 7758SOL     OW23319   4.598   4.490   3.683
 7758SOL    HW123320   4.585   4.559   3.754
 7758SOL    HW223321   4.621   4.535   3.597
 7759SOL     OW23322   4.408   4.723   2.511
 7759SOL    HW123323   4.479   4.712   2.580
 7759SOL    HW223324   4.333   4.779   2.548
 7760SOL     OW23325   4.435   4.877   3.679
 7760SOL    HW123326   4.487   4.956   3.712
 7760SOL    HW223327   4.350   4.909   3.638
 7761SOL     OW23328   4.050   5.148   2.928
 7761SOL    HW123329   3.974   5.103   2.881
 7761SOL    HW223330   4.104   5.200   2.862
 7762SOL     OW23331   5.182   5.225   3.219
 7762SOL    HW123332   5.239   5.307   3.226
 7762SOL    HW223333   5.112   5.227   3.290
 7763SOL     OW23334   4.179   4.122   3.342
 7763SOL    HW123335   4.259   4.061   3.348
 7763SOL    HW223336   4.096   4.069   3.359
 7764SOL     OW23337   5.336   4.171   2.606
 7764SOL    HW123338   5.259   4.190   2.545
 7764SOL    HW223339   5.343   4.245   2.673
 7765SOL     OW23340   3.946   5.438   2.334
 7765SOL    HW123341   3.964   5.517   2.393
 7765SOL    HW223342   4.021   5.428   2.268
 7766SOL     OW23343   4.861   5.064   3.560
 7766SOL    HW123344   4.908   5.062   3.648
 7766SOL    HW223345   4.805   4.982   3.550
 7767SOL     OW23346   3.957   5.167   2.398
 7767SOL    HW123347   3.941   5.266   2.398
 7767SOL    HW223348   3.897   5.124   2.465
 7768SOL     OW23349   3.992   4.814   2.762
 7768SOL    HW123350   3.988   4.720   2.795
 7768SOL    HW223351   3.930   4.871   2.816
 7769SOL     OW23352   4.324   5.520   3.288
 7769SOL    HW123353   4.241   5.497   3.339
 7769SOL    HW223354   4.355   5.611   3.316
 7770SOL     OW23355   4.307   4.711   2.002
 7770SOL    HW123356   4.354   4.758   1.928
 7770SOL    HW223357   4.347   4.739   2.090
 7771SOL     OW23358   5.262   3.916   3.313
 7771SOL    HW123359   5.316   3.987   3.268
 7771SOL    HW223360   5.280   3.918   3.411
 7772SOL     OW23361   3.837   4.384   2.425
 7772SOL    HW123362   3.809   4.290   2.442
 7772SOL    HW223363   3.832   4.436   2.511
 7773SOL     OW23364   5.570   5.480   2.195
 7773SOL    HW123365   5.639   5.449   2.260
 7773SOL    HW223366   5.586   5.576   2.172
 7774SOL     OW23367   3.752   5.315   1.985
 7774SOL    HW123368   3.737   5.218   2.004
 7774SOL    HW223369   3.732   5.369   2.067
 7775SOL     OW23370   5.415   4.645   2.509
 7775SOL    HW123371   5.500   4.594   2.492
 7775SOL    HW223372   5.391   4.698   2.428
 7776SOL     OW23373   5.376   4.829   2.294
 7776SOL    HW123374   5.465   4.826   2.248
 7776SOL    HW223375   5.378   4.896   2.368
 7777SOL     OW23376   3.848   4.468   3.447
 7777SOL    HW123377   3.945   4.493   3.448
 7777SOL    HW223378   3.792   4.551   3.450
 7778SOL     OW23379   4.336   5.114   2.596
 7778SOL    HW123380   4.290   5.026   2.608
 7778SOL    HW223381   4.323   5.145   2.502
 7779SOL     OW23382   5.013   4.959   3.284
 7779SOL    HW123383   5.040   4.889   3.218
 7779SOL    HW223384   5.073   4.955   3.364
 7780SOL     OW23385   4.540   3.732   2.369
 7780SOL    HW123386   4.587   3.818   2.348
 7780SOL    HW223387   4.442   3.748   2.378
 7781SOL     OW23388   3.915   4.686   3.137
 7781SOL    HW123389   4.004   4.643   3.124
 7781SOL    HW223390   3.845   4.638   3.085
 7782SOL     OW23391   5.256   4.724   2.066
 7782SOL    HW123392   5.182   4.663   2.095
 7782SOL    HW223393   5.302   4.761   2.146
 7783SOL     OW23394   4.906   5.534   3.484
 7783SOL    HW123395   4.914   5.602   3.411
 7783SOL    HW223396   4.926   5.443   3.447
 7784SOL     OW23397   4.051   3.978   3.692
 7784SOL    HW123398   4.103   4.062   3.708
 7784SOL    HW223399   3.956   3.991   3.719
 7785SOL     OW23400   5.189   5.144   2.810
 7785SOL    HW123401   5.122   5.163   2.881
 7785SOL    HW223402   5.180   5.049   2.781
 7786SOL     OW23403   5.375   5.471   2.438
 7786SOL    HW123404   5.357   5.443   2.344
 7786SOL    HW223405   5.353   5.396   2.500
 7787SOL     OW23406   4.319   4.444   2.134
 7787SOL    HW123407   4.325   4.529   2.082
 7787SOL    HW223408   4.250   4.453   2.206
 7788SOL     OW23409   5.003   4.079   2.796
 7788SOL    HW123410   4.908   4.046   2.804
 7788SOL    HW223411   5.061   4.027   2.859
 7789SOL     OW23412   5.307   5.396   2.170
 7789SOL    HW123413   5.403   5.425   2.166
 7789SOL    HW223414   5.274   5.379   2.077
 7790SOL     OW23415   4.513   4.337   3.312
 7790SOL    HW123416   4.487   4.315   3.405
 7790SOL    HW223417   4.475   4.269   3.249
 7791SOL     OW23418   5.116   4.197   3.542
 7791SOL    HW123419   5.116   4.245   3.629
 7791SOL    HW223420   5.180   4.120   3.546
 7792SOL     OW23421   4.677   4.609   3.445
 7792SOL    HW123422   4.735   4.536   3.407
 7792SOL    HW223423   4.623   4.650   3.372
 7793SOL     OW23424   4.718   4.137   3.091
 7793SOL    HW123425   4.628   4.153   3.132
 7793SOL    HW223426   4.708   4.077   3.011
 7794SOL     OW23427   4.774   4.423   2.287
 7794SOL    HW123428   4.796   4.418   2.385
 7794SOL    HW223429   4.688   4.375   2.270
 7795SOL     OW23430   3.813   4.551   2.642
 7795SOL    HW123431   3.898   4.539   2.692
 7795SOL    HW223432   3.764   4.631   2.678
 7796SOL     OW23433   3.852   5.593   3.449
 7796SOL    HW123434   3.857   5.566   3.545
 7796SOL    HW223435   3.766   5.562   3.409
 7797SOL     OW23436   4.620   4.076   2.058
 7797SOL    HW123437   4.660   4.144   1.996
 7797SOL    HW223438   4.630   3.985   2.019
 7798SOL     OW23439   5.425   4.297   3.687
 7798SOL    HW123440   5.389   4.376   3.637
 7798SOL    HW223441   5.458   4.228   3.622
 7799SOL     OW23442   5.103   4.867   2.397
 7799SOL    HW123443   5.188   4.851   2.345
 7799SOL    HW223444   5.047   4.934   2.348
 7800SOL     OW23445   4.271   3.898   2.762
 7800SOL    HW123446   4.276   3.927   2.858
 7800SOL    HW223447   4.274   3.979   2.703
 7801SOL     OW23448   4.720   5.166   2.326
 7801SOL    HW123449   4.687   5.247   2.277
 7801SOL    HW223450   4.705   5.179   2.424
 7802SOL     OW23451   4.080   5.537   2.731
 7802SOL    HW123452   4.124   5.448   2.738
 7802SOL    HW223453   4.147   5.609   2.750
 7803SOL     OW23454   5.522   4.782   2.733
 7803SOL    HW123455   5.471   4.758   2.651
 7803SOL    HW223456   5.459   4.787   2.811
 7804SOL     OW23457   4.950   5.260   3.376
 7804SOL    HW123458   4.937   5.186   3.442
 7804SOL    HW223459   4.884   5.251   3.302
 7805SOL     OW23460   4.046   4.683   2.115
 7805SOL    HW123461   4.134   4.703   2.072
 7805SOL    HW223462   4.010   4.597   2.078
 7806SOL     OW23463   5.206   4.473   2.585
 7806SOL    HW123464   5.199   4.427   2.674
 7806SOL    HW223465   5.287   4.532   2.584
 7807SOL     OW23466   4.192   4.989   3.593
 7807SOL    HW123467   4.166   4.995   3.497
 7807SOL    HW223468   4.110   4.986   3.650
 7808SOL     OW23469   4.845   5.500   2.089
 7808SOL    HW123470   4.767   5.462   2.137
 7808SOL    HW223471   4.875   5.436   2.018
 7809SOL     OW23472   3.929   4.014   3.359
 7809SOL    HW123473   3.847   4.071   3.355
 7809SOL    HW223474   3.904   3.923   3.392
 7810SOL     OW23475   5.349   5.106   1.950
 7810SOL    HW123476   5.310   5.197   1.934
 7810SOL    HW223477   5.279   5.036   1.931
 7811SOL     OW23478   4.189   5.459   2.181
 7811SOL    HW123479   4.230   5.521   2.247
 7811SOL    HW223480   4.260   5.423   2.120
 7812SOL     OW23481   5.125   3.828   2.298
 7812SOL    HW123482   5.114   3.803   2.202
 7812SOL    HW223483   5.223   3.838   2.318
 7813SOL     OW23484   3.982   5.516   3.089
 7813SOL    HW123485   4.033   5.444   3.136
 7813SOL    HW223486   3.964   5.487   2.995
 7814SOL     OW23487   4.660   5.426   2.759
 7814SOL    HW123488   4.742   5.379   2.789
 7814SOL    HW223489   4.617   5.374   2.685
 7815SOL     OW23490   4.119   4.413   2.337
 7815SOL    HW123491   4.139   4.316   2.350
 7815SOL    HW223492   4.022   4.429   2.354
 7816SOL     OW23493   5.260   3.955   3.594
 7816SOL    HW123494   5.266   3.973   3.692
 7816SOL    HW223495   5.185   3.890   3.577
 7817SOL     OW23496   4.363   3.842   1.964
 7817SOL    HW123497   4.433   3.774   1.986
 7817SOL    HW223498   4.308   3.810   1.887
 7818SOL     OW23499   4.484   4.011   3.618
 7818SOL    HW123500   4.569   3.958   3.619
 7818SOL    HW223501   4.429   3.989   3.698
 7819SOL     OW23502   4.598   5.239   3.055
 7819SOL    HW123503   4.580   5.203   2.963
 7819SOL    HW223504   4.672   5.185   3.097
 7820SOL     OW23505   5.064   4.313   3.297
 7820SOL    HW123506   5.094   4.278   3.385
 7820SOL    HW223507   5.099   4.406   3.285
 7821SOL     OW23508   4.543   5.114   2.802
 7821SOL    HW123509   4.633   5.102   2.760
 7821SOL    HW223510   4.473   5.119   2.731
 7822SOL     OW23511   4.650   4.232   2.760
 7822SOL    HW123512   4.625   4.223   2.664
 7822SOL    HW223513   4.682   4.144   2.795
 7823SOL     OW23514   4.270   3.788   2.357
 7823SOL    HW123515   4.189   3.786   2.415
 7823SOL    HW223516   4.267   3.869   2.298
 7824SOL     OW23517   5.150   4.923   1.905
 7824SOL    HW123518   5.183   4.845   1.958
 7824SOL    HW223519   5.061   4.951   1.941
 7825SOL     OW23520   4.015   3.772   2.048
 7825SOL    HW123521   4.068   3.844   2.002
 7825SOL    HW223522   4.077   3.707   2.091
 7826SOL     OW23523   4.669   3.974   2.319
 7826SOL    HW123524   4.638   4.016   2.234
 7826SOL    HW223525   4.768   3.987   2.328
 7827SOL     OW23526   4.803   4.406   3.318
 7827SOL    HW123527   4.728   4.340   3.321
 7827SOL    HW223528   4.890   4.357   3.312
 7828SOL     OW23529   4.944   5.293   2.656
 7828SOL    HW123530   4.959   5.363   2.586
 7828SOL    HW223531   5.015   5.301   2.726
 7829SOL     OW23532   4.192   4.875   2.591
 7829SOL    HW123533   4.125   4.855   2.662
 7829SOL    HW223534   4.150   4.862   2.501
 7830SOL     OW23535   4.988   5.516   2.472
 7830SOL    HW123536   5.039   5.578   2.413
 7830SOL    HW223537   4.915   5.567   2.518
 7831SOL     OW23538   4.745   4.261   1.891
 7831SOL    HW123539   4.700   4.347   1.867
 7831SOL    HW223540   4.814   4.278   1.961
 7832SOL     OW23541   3.809   4.281   3.254
 7832SOL    HW123542   3.903   4.275   3.221
 7832SOL    HW223543   3.802   4.353   3.323
 7833SOL     OW23544   4.284   3.948   3.033
 7833SOL    HW123545   4.336   3.875   3.079
 7833SOL    HW223546   4.189   3.945   3.063
 7834SOL     OW23547   4.590   4.182   2.499
 7834SOL    HW123548   4.542   4.244   2.436
 7834SOL    HW223549   4.617   4.099   2.450
 7835SOL     OW23550   4.742   3.776   2.608
 7835SOL    HW123551   4.680   3.776   2.529
 7835SOL    HW223552   4.717   3.701   2.670
 7836SOL     OW23553   5.168   4.885   2.720
 7836SOL    HW123554   5.093   4.820   2.724
 7836SOL    HW223555   5.197   4.896   2.625
 7837SOL     OW23556   5.192   4.331   2.833
 7837SOL    HW123557   5.130   4.252   2.833
 7837SOL    HW223558   5.253   4.325   2.912
 7838SOL     OW23559   5.567   4.534   2.242
 7838SOL    HW123560   5.625   4.486   2.307
 7838SOL    HW223561   5.537   4.470   2.171
 7839SOL     OW23562   4.211   5.144   2.017
 7839SOL    HW123563   4.131   5.117   2.071
 7839SOL    HW223564   4.208   5.099   1.928
 7840SOL     OW23565   5.398   4.991   2.505
 7840SOL    HW123566   5.497   4.988   2.517
 7840SOL    HW223567   5.364   5.083   2.526
 7841SOL     OW23568   5.114   4.298   1.933
 7841SOL    HW123569   5.051   4.276   2.007
 7841SOL    HW223570   5.207   4.271   1.958
 7842SOL     OW23571   4.252   3.988   2.173
 7842SOL    HW123572   4.299   3.936   2.102
 7842SOL    HW223573   4.224   4.077   2.135
 7843SOL     OW23574   5.477   4.965   3.424
 7843SOL    HW123575   5.567   4.922   3.412
 7843SOL    HW223576   5.489   5.058   3.458
 7844SOL     OW23577   4.778   5.074   3.198
 7844SOL    HW123578   4.697   5.045   3.248
 7844SOL    HW223579   4.860   5.034   3.240
 7845SOL     OW23580   5.337   5.353   3.518
 7845SOL    HW123581   5.322   5.388   3.426
 7845SOL    HW223582   5.423   5.302   3.521
 7846SOL     OW23583   4.860   4.942   2.967
 7846SOL    HW123584   4.800   4.976   3.039
 7846SOL    HW223585   4.826   4.972   2.878
 7847SOL     OW23586   5.349   4.821   2.941
 7847SOL    HW123587   5.345   4.886   3.017
 7847SOL    HW223588   5.272   4.837   2.879
 7848SOL     OW23589   4.636   3.849   3.244
 7848SOL    HW123590   4.659   3.802   3.159
 7848SOL    HW223591   4.720   3.881   3.288
 7849SOL     OW23592   4.703   4.838   3.583
 7849SOL    HW123593   4.609   4.858   3.610
 7849SOL    HW223594   4.706   4.756   3.527
 7850SOL     OW23595   4.437   4.783   2.235
 7850SOL    HW123596   4.419   4.765   2.332
 7850SOL    HW223597   4.515   4.729   2.205
 7851SOL     OW23598   4.146   4.538   3.116
 7851SOL    HW123599   4.219   4.552   3.183
 7851SOL    HW223600   4.107   4.447   3.126
 7852SOL     OW23601   4.987   4.102   3.140
 7852SOL    HW123602   5.023   4.180   3.191
 7852SOL    HW223603   4.891   4.120   3.117
 7853SOL     OW23604   3.798   5.296   3.215
 7853SOL    HW123605   3.763   5.367   3.153
 7853SOL    HW223606   3.898   5.294   3.210
 7854SOL     OW23607   4.067   4.841   2.349
 7854SOL    HW123608   4.073   4.923   2.292
 7854SOL    HW223609   4.065   4.760   2.291
 7855SOL     OW23610   4.272   4.267   2.724
 7855SOL    HW123611   4.287   4.327   2.644
 7855SOL    HW223612   4.341   4.287   2.793
 7856SOL     OW23613   4.970   5.078   2.254
 7856SOL    HW123614   5.031   5.151   2.285
 7856SOL    HW223615   4.877   5.098   2.284
 7857SOL     OW23616   5.011   5.185   3.009
 7857SOL    HW123617   5.069   5.191   3.090
 7857SOL    HW223618   4.956   5.102   3.013
 7858SOL     OW23619   5.301   4.346   2.343
 7858SOL    HW123620   5.251   4.393   2.415
 7858SOL    HW223621   5.349   4.412   2.286
 7859SOL     OW23622   4.072   5.253   3.172
 7859SOL    HW123623   4.056   5.209   3.084
 7859SOL    HW223624   4.170   5.267   3.185
 7860SOL     OW23625   4.139   4.469   3.462
 7860SOL    HW123626   4.205   4.515   3.403
 7860SOL    HW223627   4.172   4.377   3.483
 7861SOL     OW23628   5.331   4.509   3.546
 7861SOL    HW123629   5.240   4.550   3.543
 7861SOL    HW223630   5.388   4.550   3.474
 7862SOL     OW23631   4.717   3.872   3.626
 7862SOL    HW123632   4.776   3.949   3.603
 7862SOL    HW223633   4.744   3.792   3.573
 7863SOL     OW23634   4.226   3.799   3.598
 7863SOL    HW123635   4.199   3.743   3.520
 7863SOL    HW223636   4.155   3.865   3.619
 7864SOL     OW23637   4.307   4.596   2.896
 7864SOL    HW123638   4.344   4.689   2.893
 7864SOL    HW223639   4.248   4.585   2.976
 7865SOL     OW23640   5.077   4.581   2.887
 7865SOL    HW123641   4.986   4.573   2.846
 7865SOL    HW223642   5.125   4.494   2.879
 7866SOL     OW23643   4.922   4.251   2.127
 7866SOL    HW123644   4.935   4.168   2.182
 7866SOL    HW223645   4.878   4.321   2.182
 7867SOL     OW23646   4.023   3.921   3.107
 7867SOL    HW123647   3.987   3.962   3.191
 7867SOL    HW223648   4.005   3.823   3.107
 7868SOL     OW23649   3.775   5.034   3.138
 7868SOL    HW123650   3.808   4.973   3.210
 7868SOL    HW223651   3.779   5.128   3.170
 7869SOL     OW23652   4.448   4.355   2.917
 7869SOL    HW123653   4.526   4.334   2.857
 7869SOL    HW223654   4.414   4.447   2.896
 7870SOL     OW23655   5.459   4.684   3.717
 7870SOL    HW123656   5.416   4.616   3.658
 7870SOL    HW223657   5.400   4.703   3.795
 7871SOL     OW23658   4.029   3.786   2.489
 7871SOL    HW123659   4.006   3.881   2.508
 7871SOL    HW223660   4.042   3.737   2.576
 7872SOL     OW23661   5.350   4.104   2.225
 7872SOL    HW123662   5.376   4.031   2.288
 7872SOL    HW223663   5.322   4.185   2.277
 7873SOL     OW23664   4.748   4.480   2.821
 7873SOL    HW123665   4.743   4.501   2.918
 7873SOL    HW223666   4.721   4.385   2.807
 7874SOL     OW23667   4.705   5.287   3.579
 7874SOL    HW123668   4.689   5.335   3.493
 7874SOL    HW223669   4.753   5.201   3.561
 7875SOL     OW23670   5.579   5.228   3.466
 7875SOL    HW123671   5.597   5.254   3.371
 7875SOL    HW223672   5.662   5.240   3.520
 7876SOL     OW23673   4.077   4.642   3.666
 7876SOL    HW123674   4.157   4.663   3.722
 7876SOL    HW223675   4.102   4.576   3.595
 7877SOL     OW23676   5.252   3.993   1.992
 7877SOL    HW123677   5.182   3.925   2.017
 7877SOL    HW223678   5.288   4.035   2.075
 7878SOL     OW23679   5.013   4.550   1.889
 7878SOL    HW123680   5.054   4.459   1.897
 7878SOL    HW223681   5.044   4.593   1.804
 7879SOL     OW23682   4.793   5.061   2.716
 7879SOL    HW123683   4.797   4.983   2.654
 7879SOL    HW223684   4.853   5.134   2.682
 7880SOL     OW23685   4.035   4.530   2.805
 7880SOL    HW123686   4.132   4.556   2.801
 7880SOL    HW223687   4.027   4.436   2.837
 7881SOL     OW23688   4.051   4.252   2.873
 7881SOL    HW123689   4.013   4.160   2.862
 7881SOL    HW223690   4.132   4.261   2.815
 7882SOL     OW23691   4.859   4.101   3.560
 7882SOL    HW123692   4.807   4.160   3.621
 7882SOL    HW223693   4.951   4.137   3.548
 7883SOL     OW23694   4.873   3.936   3.342
 7883SOL    HW123695   4.868   4.002   3.416
 7883SOL    HW223696   4.929   3.973   3.268
 7884SOL     OW23697   3.725   5.040   2.057
 7884SOL    HW123698   3.635   5.059   2.017
 7884SOL    HW223699   3.726   4.946   2.092
 7885SOL     OW23700   3.817   5.508   2.805
 7885SOL    HW123701   3.781   5.427   2.760
 7885SOL    HW223702   3.911   5.525   2.773
 7886SOL     OW23703   4.218   5.300   2.767
 7886SOL    HW123704   4.288   5.366   2.794
 7886SOL    HW223705   4.259   5.232   2.705
 7887SOL     OW23706   4.699   4.519   3.087
 7887SOL    HW123707   4.760   4.494   3.163
 7887SOL    HW223708   4.611   4.473   3.099
 7888SOL     OW23709   3.761   4.276   2.979
 7888SOL    HW123710   3.843   4.261   2.923
 7888SOL    HW223711   3.787   4.278   3.076
 7889SOL     OW23712   3.915   4.246   3.592
 7889SOL    HW123713   3.965   4.190   3.527
 7889SOL    HW223714   3.878   4.327   3.545
 7890SOL     OW23715   5.104   4.660   3.517
 7890SOL    HW123716   5.127   4.757   3.518
 7890SOL    HW223717   5.100   4.627   3.423
 7891SOL     OW23718   4.541   4.296   2.222
 7891SOL    HW123719   4.550   4.216   2.162
 7891SOL    HW223720   4.463   4.351   2.192
 7892SOL     OW23721   5.367   4.328   3.044
 7892SOL    HW123722   5.348   4.267   3.120
 7892SOL    HW223723   5.458   4.310   3.007
 7893SOL     OW23724   3.964   5.271   3.588
 7893SOL    HW123725   3.943   5.346   3.652
 7893SOL    HW223726   3.970   5.185   3.638
 7894SOL     OW23727   4.429   4.174   3.116
 7894SOL    HW123728   4.373   4.094   3.091
 7894SOL    HW223729   4.427   4.240   3.042
 7895SOL     OW23730   4.644   5.405   3.333
 7895SOL    HW123731   4.619   5.359   3.248
 7895SOL    HW223732   4.644   5.504   3.319
 7896SOL     OW23733   4.183   4.219   2.048
 7896SOL    HW123734   4.248   4.291   2.072
 7896SOL    HW223735   4.093   4.259   2.034
 7897SOL     OW23736   3.866   4.861   3.337
 7897SOL    HW123737   3.868   4.816   3.426
 7897SOL    HW223738   3.887   4.794   3.265
 7898SOL     OW23739   5.041   4.768   3.081
 7898SOL    HW123740   5.068   4.700   3.013
 7898SOL    HW223741   4.973   4.829   3.041
 7899SOL     OW23742   5.039   4.581   2.162
 7899SOL    HW123743   4.963   4.553   2.220
 7899SOL    HW223744   5.013   4.568   2.066
 7900SOL     OW23745   5.503   5.455   3.018
 7900SOL    HW123746   5.564   5.489   2.947
 7900SOL    HW223747   5.472   5.363   2.994
 7901SOL     OW23748   4.965   5.457   2.968
 7901SOL    HW123749   5.051   5.485   2.925
 7901SOL    HW223750   4.971   5.360   2.991
 7902SOL     OW23751   3.809   4.989   2.873
 7902SOL    HW123752   3.794   5.004   2.970
 7902SOL    HW223753   3.737   4.931   2.836
 7903SOL     OW23754   4.404   5.397   3.597
 7903SOL    HW123755   4.343   5.475   3.592
 7903SOL    HW223756   4.477   5.408   3.529
 7904SOL     OW23757   5.442   3.873   2.361
 7904SOL    HW123758   5.519   3.862   2.297
 7904SOL    HW223759   5.425   3.785   2.407
 7905SOL     OW23760   5.119   5.294   2.349
 7905SOL    HW123761   5.182   5.326   2.278
 7905SOL    HW223762   5.064   5.371   2.382
 7906SOL     OW23763   3.869   5.511   3.708
 7906SOL    HW123764   3.811   5.444   3.753
 7906SOL    HW223765   3.918   5.565   3.776
 7907SOL     OW23766   5.006   4.652   2.528
 7907SOL    HW123767   5.080   4.587   2.544
 7907SOL    HW223768   5.039   4.729   2.474
 7908SOL     OW23769   4.529   5.002   3.289
 7908SOL    HW123770   4.500   5.045   3.374
 7908SOL    HW223771   4.460   5.017   3.218
 7909SOL     OW23772   4.393   5.345   2.016
 7909SOL    HW123773   4.409   5.363   1.919
 7909SOL    HW223774   4.334   5.264   2.026
 7910SOL     OW23775   5.341   5.452   3.249
 7910SOL    HW123776   5.399   5.453   3.167
 7910SOL    HW223777   5.327   5.546   3.281
 7911SOL     OW23778   5.569   3.893   2.820
 7911SOL    HW123779   5.602   3.801   2.797
 7911SOL    HW223780   5.476   3.905   2.786
 7912SOL     OW23781   3.980   4.038   2.577
 7912SOL    HW123782   3.892   4.076   2.550
 7912SOL    HW223783   3.984   4.030   2.677
 7913SOL     OW23784   4.932   5.325   1.895
 7913SOL    HW123785   4.923   5.231   1.928
 7913SOL    HW223786   4.865   5.342   1.823
 7914SOL     OW23787   4.547   4.733   3.240
 7914SOL    HW123788   4.599   4.716   3.156
 7914SOL    HW223789   4.546   4.831   3.259
 7915SOL     OW23790   4.644   4.634   2.148
 7915SOL    HW123791   4.705   4.670   2.078
 7915SOL    HW223792   4.690   4.563   2.201
 7916SOL     OW23793   5.212   5.354   1.904
 7916SOL    HW123794   5.114   5.342   1.893
 7916SOL    HW223795   5.256   5.359   1.814
 7917SOL     OW23796   4.089   5.027   3.349
 7917SOL    HW123797   4.080   5.107   3.290
 7917SOL    HW223798   4.010   4.967   3.338
 7918SOL     OW23799   5.338   5.008   3.146
 7918SOL    HW123800   5.401   4.989   3.221
 7918SOL    HW223801   5.272   5.078   3.174
 7919SOL     OW23802   4.784   4.830   2.576
 7919SOL    HW123803   4.708   4.780   2.616
 7919SOL    HW223804   4.853   4.766   2.542
 7920SOL     OW23805   4.746   3.962   2.830
 7920SOL    HW123806   4.743   3.917   2.741
 7920SOL    HW223807   4.744   3.892   2.902
 7921SOL     OW23808   4.328   5.210   2.342
 7921SOL    HW123809   4.380   5.156   2.275
 7921SOL    HW223810   4.255   5.260   2.296
 7922SOL     OW23811   5.456   4.115   3.240
 7922SOL    HW123812   5.527   4.185   3.240
 7922SOL    HW223813   5.483   4.040   3.180
 7923SOL     OW23814   3.977   5.072   2.150
 7923SOL    HW123815   3.881   5.065   2.123
 7923SOL    HW223816   3.983   5.110   2.242
 7924SOL     OW23817   3.838   4.756   3.589
 7924SOL    HW123818   3.757   4.729   3.640
 7924SOL    HW223819   3.919   4.712   3.628
 7925SOL     OW23820   4.403   3.930   3.359
 7925SOL    HW123821   4.490   3.912   3.313
 7925SOL    HW223822   4.421   3.957   3.454
 7926SOL     OW23823   3.805   4.053   1.892
 7926SOL    HW123824   3.713   4.029   1.861
 7926SOL    HW223825   3.837   4.134   1.843
 7927SOL     OW23826   5.148   4.581   3.258
 7927SOL    HW123827   5.093   4.645   3.204
 7927SOL    HW223828   5.242   4.582   3.224
 7928SOL     OW23829   3.788   3.879   2.165
 7928SOL    HW123830   3.771   3.964   2.115
 7928SOL    HW223831   3.876   3.841   2.139
 7929SOL     OW23832   4.904   5.062   1.982
 7929SOL    HW123833   4.809   5.031   1.976
 7929SOL    HW223834   4.933   5.063   2.078
 7930SOL     OW23835   4.347   4.554   3.295
 7930SOL    HW123836   4.404   4.635   3.281
 7930SOL    HW223837   4.404   4.473   3.305
 7931SOL     OW23838   5.209   5.511   2.849
 7931SOL    HW123839   5.230   5.572   2.773
 7931SOL    HW223840   5.294   5.478   2.890
 7932SOL     OW23841   4.443   4.287   3.565
 7932SOL    HW123842   4.490   4.352   3.624
 7932SOL    HW223843   4.464   4.193   3.594
 7933SOL     OW23844   5.197   4.921   3.497
 7933SOL    HW123845   5.182   4.934   3.595
 7933SOL    HW223846   5.293   4.939   3.475
 7934SOL     OW23847   4.096   5.462   3.428
 7934SOL    HW123848   4.012   5.513   3.414
 7934SOL    HW223849   4.075   5.374   3.471
 7935SOL     OW23850   5.390   4.602   3.118
 7935SOL    HW123851   5.385   4.511   3.077
 7935SOL    HW223852   5.378   4.671   3.047
 7936SOL     OW23853   4.944   4.041   2.322
 7936SOL    HW123854   5.007   3.964   2.312
 7936SOL    HW223855   4.970   4.096   2.401
 7937SOL     OW23856   4.311   4.461   2.530
 7937SOL    HW123857   4.352   4.551   2.520
 7937SOL    HW223858   4.241   4.448   2.460
 7938SOL     OW23859   5.482   4.089   3.513
 7938SOL    HW123860   5.471   4.103   3.415
 7938SOL    HW223861   5.408   4.031   3.547
 7939SOL     OW23862   5.476   4.656   3.372
 7939SOL    HW123863   5.465   4.753   3.393
 7939SOL    HW223864   5.455   4.641   3.275
 7940SOL     OW23865   4.589   5.088   1.904
 7940SOL    HW123866   4.549   5.112   1.992
 7940SOL    HW223867   4.606   5.171   1.851
 7941SOL     OW23868   4.388   5.510   2.805
 7941SOL    HW123869   4.365   5.605   2.783
 7941SOL    HW223870   4.487   5.497   2.794
 7942SOL     OW23871   4.593   4.694   2.718
 7942SOL    HW123872   4.644   4.616   2.755
 7942SOL    HW223873   4.551   4.745   2.794
 7943SOL     OW23874   4.802   4.714   1.946
 7943SOL    HW123875   4.774   4.767   1.866
 7943SOL    HW223876   4.880   4.655   1.922
 7944SOL     OW23877   5.571   5.280   2.709
 7944SOL    HW123878   5.494   5.268   2.646
 7944SOL    HW223879   5.567   5.210   2.780
 7945SOL     OW23880   3.955   5.023   3.719
 7945SOL    HW123881   3.888   4.957   3.684
 7945SOL    HW223882   3.940   5.037   3.817
 7946SOL     OW23883   3.811   4.954   2.526
 7946SOL    HW123884   3.815   4.908   2.614
 7946SOL    HW223885   3.879   4.914   2.464
 7947SOL     OW23886   4.406   5.132   3.495
 7947SOL    HW123887   4.325   5.083   3.527
 7947SOL    HW223888   4.404   5.225   3.532
 7948SOL     OW23889   5.532   3.908   3.090
 7948SOL    HW123890   5.513   3.812   3.112
 7948SOL    HW223891   5.547   3.917   2.992
 7949SOL     OW23892   4.154   4.153   2.388
 7949SOL    HW123893   4.188   4.083   2.326
 7949SOL    HW223894   4.101   4.110   2.461
 7950SOL     OW23895   5.417   5.207   2.957
 7950SOL    HW123896   5.336   5.189   2.901
 7950SOL    HW223897   5.427   5.136   3.026
 7951SOL     OW23898   4.058   4.279   3.151
 7951SOL    HW123899   4.117   4.224   3.211
 7951SOL    HW223900   4.074   4.253   3.056
 7952SOL     OW23901   4.552   5.304   2.541
 7952SOL    HW123902   4.539   5.364   2.462
 7952SOL    HW223903   4.475   5.240   2.547
 7953SOL     OW23904   5.156   3.953   2.983
 7953SOL    HW123905   5.190   3.870   3.027
 7953SOL    HW223906   5.100   4.005   3.047
 7954SOL     OW23907   4.735   3.739   3.003
 7954SOL    HW123908   4.669   3.671   2.970
 7954SOL    HW223909   4.827   3.699   3.003
 7955SOL     OW23910   4.498   5.056   2.182
 7955SOL    HW123911   4.470   4.960   2.190
 7955SOL    HW223912   4.583   5.069   2.233
 7956SOL     OW23913   4.347   5.283   3.151
 7956SOL    HW123914   4.345   5.370   3.201
 7956SOL    HW223915   4.438   5.270   3.111
 7957SOL     OW23916   5.078   3.775   2.031
 7957SOL    HW123917   5.119   3.707   1.970
 7957SOL    HW223918   4.985   3.746   2.054
 7958SOL     OW23919   5.016   4.187   2.544
 7958SOL    HW123920   4.962   4.272   2.546
 7958SOL    HW223921   5.014   4.144   2.634
 7959SOL     OW23922   5.311   3.928   2.747
 7959SOL    HW123923   5.252   3.945   2.826
 7959SOL    HW223924   5.311   4.009   2.688
 7960SOL     OW23925   3.767   4.789   2.169
 7960SOL    HW123926   3.865   4.788   2.150
 7960SOL    HW223927   3.737   4.696   2.192
 7961SOL     OW23928   4.608   5.385   2.203
 7961SOL    HW123929   4.533   5.364   2.140
 7961SOL    HW223930   4.582   5.463   2.260
 7962SOL     OW23931   3.948   4.343   3.851
 7962SOL    HW123932   3.856   4.343   3.891
 7962SOL    HW223933   3.941   4.321   3.754
 7963SOL     OW23934   3.947   4.006   4.718
 7963SOL    HW123935   3.979   3.972   4.807
 7963SOL    HW223936   3.853   3.974   4.702
 7964SOL     OW23937   3.726   4.110   4.358
 7964SOL    HW123938   3.641   4.139   4.403
 7964SOL    HW223939   3.708   4.027   4.305
 7965SOL     OW23940   4.292   5.020   4.908
 7965SOL    HW123941   4.202   5.017   4.865
 7965SOL    HW223942   4.310   5.112   4.942
 7966SOL     OW23943   5.288   5.237   4.431
 7966SOL    HW123944   5.245   5.213   4.519
 7966SOL    HW223945   5.217   5.244   4.361
 7967SOL     OW23946   4.857   4.427   4.420
 7967SOL    HW123947   4.909   4.510   4.403
 7967SOL    HW223948   4.807   4.436   4.506
 7968SOL     OW23949   5.491   4.325   3.947
 7968SOL    HW123950   5.469   4.320   3.850
 7968SOL    HW223951   5.456   4.244   3.994
 7969SOL     OW23952   4.469   4.865   4.764
 7969SOL    HW123953   4.401   4.900   4.829
 7969SOL    HW223954   4.513   4.942   4.718
 7970SOL     OW23955   4.597   4.490   5.545
 7970SOL    HW123956   4.585   4.558   5.617
 7970SOL    HW223957   4.621   4.536   5.459
 7971SOL     OW23958   4.408   4.723   4.373
 7971SOL    HW123959   4.479   4.713   4.443
 7971SOL    HW223960   4.333   4.779   4.410
 7972SOL     OW23961   4.435   4.877   5.541
 7972SOL    HW123962   4.487   4.956   5.573
 7972SOL    HW223963   4.350   4.909   5.500
 7973SOL     OW23964   4.050   5.148   4.790
 7973SOL    HW123965   3.974   5.103   4.743
 7973SOL    HW223966   4.104   5.200   4.724
 7974SOL     OW23967   5.182   5.225   5.081
 7974SOL    HW123968   5.240   5.307   5.088
 7974SOL    HW223969   5.112   5.227   5.152
 7975SOL     OW23970   4.174   4.118   5.203
 7975SOL    HW123971   4.255   4.060   5.211
 7975SOL    HW223972   4.092   4.064   5.221
 7976SOL     OW23973   5.336   4.170   4.468
 7976SOL    HW123974   5.261   4.190   4.405
 7976SOL    HW223975   5.346   4.245   4.533
 7977SOL     OW23976   3.946   5.438   4.196
 7977SOL    HW123977   3.964   5.517   4.255
 7977SOL    HW223978   4.021   5.428   4.130
 7978SOL     OW23979   4.861   5.064   5.422
 7978SOL    HW123980   4.908   5.062   5.510
 7978SOL    HW223981   4.805   4.982   5.412
 7979SOL     OW23982   3.957   5.167   4.260
 7979SOL    HW123983   3.941   5.266   4.259
 7979SOL    HW223984   3.896   5.124   4.327
 7980SOL     OW23985   3.992   4.814   4.624
 7980SOL    HW123986   3.988   4.720   4.658
 7980SOL    HW223987   3.930   4.871   4.678
 7981SOL     OW23988   4.324   5.520   5.151
 7981SOL    HW123989   4.241   5.497   5.201
 7981SOL    HW223990   4.355   5.611   5.178
 7982SOL     OW23991   4.307   4.711   3.864
 7982SOL    HW123992   4.354   4.758   3.790
 7982SOL    HW223993   4.347   4.739   3.952
 7983SOL     OW23994   5.320   3.849   5.194
 7983SOL    HW123995   5.338   3.929   5.137
 7983SOL    HW223996   5.306   3.877   5.288
 7984SOL     OW23997   3.838   4.384   4.287
 7984SOL    HW123998   3.809   4.290   4.304
 7984SOL    HW223999   3.832   4.436   4.372
 7985SOL     OW24000   5.570   5.480   4.057
 7985SOL    HW124001   5.639   5.449   4.122
 7985SOL    HW224002   5.586   5.576   4.034
 7986SOL     OW24003   3.752   5.315   3.847
 7986SOL    HW124004   3.737   5.218   3.867
 7986SOL    HW224005   3.732   5.369   3.929
 7987SOL     OW24006   5.415   4.645   4.370
 7987SOL    HW124007   5.499   4.594   4.353
 7987SOL    HW224008   5.391   4.698   4.290
 7988SOL     OW24009   5.376   4.829   4.156
 7988SOL    HW124010   5.465   4.826   4.110
 7988SOL    HW224011   5.378   4.896   4.230
 7989SOL     OW24012   3.848   4.468   5.309
 7989SOL    HW124013   3.944   4.494   5.311
 7989SOL    HW224014   3.791   4.551   5.312
 7990SOL     OW24015   4.336   5.114   4.458
 7990SOL    HW124016   4.290   5.026   4.470
 7990SOL    HW224017   4.323   5.145   4.364
 7991SOL     OW24018   5.013   4.959   5.146
 7991SOL    HW124019   5.040   4.889   5.080
 7991SOL    HW224020   5.072   4.955   5.226
 7992SOL     OW24021   4.538   3.729   4.227
 7992SOL    HW124022   4.586   3.814   4.207
 7992SOL    HW224023   4.441   3.747   4.238
 7993SOL     OW24024   3.915   4.687   4.999
 7993SOL    HW124025   4.004   4.643   4.985
 7993SOL    HW224026   3.845   4.638   4.947
 7994SOL     OW24027   5.256   4.724   3.928
 7994SOL    HW124028   5.183   4.663   3.957
 7994SOL    HW224029   5.302   4.761   4.008
 7995SOL     OW24030   4.906   5.534   5.346
 7995SOL    HW124031   4.914   5.603   5.273
 7995SOL    HW224032   4.926   5.444   5.309
 7996SOL     OW24033   4.064   3.973   5.553
 7996SOL    HW124034   4.113   4.059   5.568
 7996SOL    HW224035   3.967   3.986   5.574
 7997SOL     OW24036   5.189   5.144   4.672
 7997SOL    HW124037   5.122   5.163   4.744
 7997SOL    HW224038   5.180   5.049   4.643
 7998SOL     OW24039   5.375   5.471   4.300
 7998SOL    HW124040   5.357   5.443   4.206
 7998SOL    HW224041   5.353   5.396   4.362
 7999SOL     OW24042   4.319   4.444   3.997
 7999SOL    HW124043   4.325   4.528   3.943
 7999SOL    HW224044   4.250   4.453   4.068
 8000SOL     OW24045   5.001   4.081   4.657
 8000SOL    HW124046   4.908   4.048   4.664
 8000SOL    HW224047   5.060   4.029   4.719
 8001SOL     OW24048   5.307   5.396   4.032
 8001SOL    HW124049   5.403   5.424   4.028
 8001SOL    HW224050   5.274   5.379   3.939
 8002SOL     OW24051   4.514   4.337   5.174
 8002SOL    HW124052   4.489   4.314   5.268
 8002SOL    HW224053   4.476   4.269   5.111
 8003SOL     OW24054   5.115   4.194   5.403
 8003SOL    HW124055   5.115   4.243   5.490
 8003SOL    HW224056   5.177   4.115   5.410
 8004SOL     OW24057   4.677   4.609   5.307
 8004SOL    HW124058   4.735   4.537   5.269
 8004SOL    HW224059   4.623   4.651   5.233
 8005SOL     OW24060   4.718   4.130   4.954
 8005SOL    HW124061   4.629   4.154   4.993
 8005SOL    HW224062   4.705   4.082   4.868
 8006SOL     OW24063   4.774   4.422   4.149
 8006SOL    HW124064   4.795   4.418   4.247
 8006SOL    HW224065   4.688   4.374   4.131
 8007SOL     OW24066   3.813   4.551   4.503
 8007SOL    HW124067   3.898   4.539   4.554
 8007SOL    HW224068   3.764   4.630   4.540
 8008SOL     OW24069   3.852   5.593   5.311
 8008SOL    HW124070   3.857   5.566   5.407
 8008SOL    HW224071   3.766   5.562   5.271
 8009SOL     OW24072   4.621   4.074   3.917
 8009SOL    HW124073   4.657   4.146   3.857
 8009SOL    HW224074   4.648   3.984   3.881
 8010SOL     OW24075   5.426   4.297   5.550
 8010SOL    HW124076   5.390   4.376   5.500
 8010SOL    HW224077   5.456   4.227   5.484
 8011SOL     OW24078   5.103   4.867   4.258
 8011SOL    HW124079   5.188   4.851   4.207
 8011SOL    HW224080   5.047   4.934   4.210
 8012SOL     OW24081   4.272   3.898   4.624
 8012SOL    HW124082   4.275   3.928   4.719
 8012SOL    HW224083   4.274   3.978   4.564
 8013SOL     OW24084   4.720   5.167   4.188
 8013SOL    HW124085   4.687   5.247   4.139
 8013SOL    HW224086   4.705   5.180   4.286
 8014SOL     OW24087   4.080   5.537   4.593
 8014SOL    HW124088   4.124   5.448   4.600
 8014SOL    HW224089   4.147   5.609   4.612
 8015SOL     OW24090   5.522   4.781   4.595
 8015SOL    HW124091   5.471   4.758   4.513
 8015SOL    HW224092   5.459   4.787   4.673
 8016SOL     OW24093   4.951   5.260   5.238
 8016SOL    HW124094   4.937   5.186   5.304
 8016SOL    HW224095   4.883   5.252   5.165
 8017SOL     OW24096   4.046   4.683   3.977
 8017SOL    HW124097   4.134   4.703   3.934
 8017SOL    HW224098   4.010   4.597   3.940
 8018SOL     OW24099   5.207   4.473   4.448
 8018SOL    HW124100   5.200   4.428   4.537
 8018SOL    HW224101   5.287   4.532   4.446
 8019SOL     OW24102   4.192   4.989   5.455
 8019SOL    HW124103   4.166   4.995   5.359
 8019SOL    HW224104   4.110   4.986   5.512
 8020SOL     OW24105   4.845   5.500   3.951
 8020SOL    HW124106   4.767   5.462   3.999
 8020SOL    HW224107   4.875   5.436   3.880
 8021SOL     OW24108   3.926   4.000   5.227
 8021SOL    HW124109   3.844   4.057   5.222
 8021SOL    HW224110   3.905   3.914   5.273
 8022SOL     OW24111   5.349   5.106   3.812
 8022SOL    HW124112   5.310   5.197   3.796
 8022SOL    HW224113   5.279   5.036   3.793
 8023SOL     OW24114   4.189   5.458   4.043
 8023SOL    HW124115   4.230   5.521   4.109
 8023SOL    HW224116   4.260   5.423   3.982
 8024SOL     OW24117   5.126   3.829   4.162
 8024SOL    HW124118   5.114   3.805   4.066
 8024SOL    HW224119   5.224   3.840   4.181
 8025SOL     OW24120   3.982   5.516   4.951
 8025SOL    HW124121   4.033   5.444   4.998
 8025SOL    HW224122   3.964   5.487   4.857
 8026SOL     OW24123   4.660   5.426   4.621
 8026SOL    HW124124   4.743   5.379   4.651
 8026SOL    HW224125   4.617   5.374   4.547
 8027SOL     OW24126   4.119   4.413   4.199
 8027SOL    HW124127   4.140   4.316   4.213
 8027SOL    HW224128   4.022   4.429   4.216
 8028SOL     OW24129   5.253   3.947   5.452
 8028SOL    HW124130   5.264   3.968   5.549
 8028SOL    HW224131   5.181   3.879   5.441
 8029SOL     OW24132   4.351   3.827   3.836
 8029SOL    HW124133   4.443   3.789   3.831
 8029SOL    HW224134   4.304   3.811   3.749
 8030SOL     OW24135   4.488   4.000   5.481
 8030SOL    HW124136   4.571   3.946   5.475
 8030SOL    HW224137   4.436   3.973   5.562
 8031SOL     OW24138   4.598   5.238   4.917
 8031SOL    HW124139   4.580   5.203   4.825
 8031SOL    HW224140   4.672   5.185   4.959
 8032SOL     OW24141   5.064   4.313   5.159
 8032SOL    HW124142   5.094   4.278   5.248
 8032SOL    HW224143   5.099   4.405   5.146
 8033SOL     OW24144   4.543   5.114   4.664
 8033SOL    HW124145   4.633   5.102   4.622
 8033SOL    HW224146   4.474   5.119   4.593
 8034SOL     OW24147   4.651   4.231   4.623
 8034SOL    HW124148   4.625   4.224   4.526
 8034SOL    HW224149   4.683   4.143   4.655
 8035SOL     OW24150   4.271   3.791   4.224
 8035SOL    HW124151   4.188   3.790   4.281
 8035SOL    HW224152   4.269   3.872   4.164
 8036SOL     OW24153   5.150   4.923   3.767
 8036SOL    HW124154   5.183   4.845   3.820
 8036SOL    HW224155   5.061   4.951   3.803
 8037SOL     OW24156   4.012   3.780   3.925
 8037SOL    HW124157   4.060   3.835   3.856
 8037SOL    HW224158   4.074   3.711   3.962
 8038SOL     OW24159   4.669   3.971   4.181
 8038SOL    HW124160   4.636   4.015   4.097
 8038SOL    HW224161   4.768   3.987   4.189
 8039SOL     OW24162   4.804   4.407   5.180
 8039SOL    HW124163   4.728   4.341   5.185
 8039SOL    HW224164   4.891   4.357   5.175
 8040SOL     OW24165   4.944   5.293   4.518
 8040SOL    HW124166   4.958   5.363   4.448
 8040SOL    HW224167   5.015   5.301   4.588
 8041SOL     OW24168   4.192   4.875   4.453
 8041SOL    HW124169   4.125   4.855   4.524
 8041SOL    HW224170   4.150   4.862   4.363
 8042SOL     OW24171   4.988   5.516   4.334
 8042SOL    HW124172   5.039   5.578   4.275
 8042SOL    HW224173   4.915   5.567   4.380
 8043SOL     OW24174   4.744   4.263   3.755
 8043SOL    HW124175   4.699   4.349   3.730
 8043SOL    HW224176   4.814   4.281   3.824
 8044SOL     OW24177   3.809   4.281   5.115
 8044SOL    HW124178   3.904   4.276   5.083
 8044SOL    HW224179   3.802   4.352   5.185
 8045SOL     OW24180   4.282   3.948   4.895
 8045SOL    HW124181   4.332   3.872   4.938
 8045SOL    HW224182   4.187   3.946   4.925
 8046SOL     OW24183   4.590   4.182   4.361
 8046SOL    HW124184   4.542   4.244   4.299
 8046SOL    HW224185   4.617   4.099   4.312
 8047SOL     OW24186   4.743   3.776   4.471
 8047SOL    HW124187   4.682   3.779   4.392
 8047SOL    HW224188   4.717   3.701   4.531
 8048SOL     OW24189   5.169   4.885   4.582
 8048SOL    HW124190   5.093   4.820   4.586
 8048SOL    HW224191   5.198   4.897   4.487
 8049SOL     OW24192   5.192   4.331   4.695
 8049SOL    HW124193   5.130   4.252   4.695
 8049SOL    HW224194   5.253   4.326   4.774
 8050SOL     OW24195   5.567   4.534   4.104
 8050SOL    HW124196   5.625   4.486   4.169
 8050SOL    HW224197   5.536   4.471   4.033
 8051SOL     OW24198   4.211   5.144   3.879
 8051SOL    HW124199   4.131   5.117   3.933
 8051SOL    HW224200   4.208   5.099   3.790
 8052SOL     OW24201   5.398   4.991   4.368
 8052SOL    HW124202   5.497   4.988   4.380
 8052SOL    HW224203   5.364   5.082   4.388
 8053SOL     OW24204   5.115   4.299   3.795
 8053SOL    HW124205   5.052   4.276   3.870
 8053SOL    HW224206   5.208   4.272   3.820
 8054SOL     OW24207   4.255   3.989   4.039
 8054SOL    HW124208   4.292   3.929   3.968
 8054SOL    HW224209   4.227   4.076   3.997
 8055SOL     OW24210   5.477   4.964   5.286
 8055SOL    HW124211   5.567   4.922   5.274
 8055SOL    HW224212   5.488   5.058   5.320
 8056SOL     OW24213   4.778   5.074   5.060
 8056SOL    HW124214   4.697   5.044   5.110
 8056SOL    HW224215   4.860   5.034   5.101
 8057SOL     OW24216   5.337   5.353   5.380
 8057SOL    HW124217   5.322   5.388   5.288
 8057SOL    HW224218   5.423   5.302   5.383
 8058SOL     OW24219   4.860   4.941   4.829
 8058SOL    HW124220   4.800   4.976   4.902
 8058SOL    HW224221   4.826   4.972   4.740
 8059SOL     OW24222   5.349   4.821   4.803
 8059SOL    HW124223   5.345   4.886   4.879
 8059SOL    HW224224   5.272   4.837   4.741
 8060SOL     OW24225   4.647   3.818   5.116
 8060SOL    HW124226   4.669   3.796   5.021
 8060SOL    HW224227   4.726   3.862   5.159
 8061SOL     OW24228   4.703   4.839   5.445
 8061SOL    HW124229   4.609   4.858   5.472
 8061SOL    HW224230   4.706   4.756   5.389
 8062SOL     OW24231   4.437   4.783   4.097
 8062SOL    HW124232   4.419   4.765   4.194
 8062SOL    HW224233   4.516   4.729   4.067
 8063SOL     OW24234   4.146   4.538   4.978
 8063SOL    HW124235   4.219   4.552   5.045
 8063SOL    HW224236   4.107   4.447   4.988
 8064SOL     OW24237   4.987   4.101   5.004
 8064SOL    HW124238   5.024   4.180   5.052
 8064SOL    HW224239   4.892   4.118   4.979
 8065SOL     OW24240   3.798   5.296   5.077
 8065SOL    HW124241   3.763   5.367   5.016
 8065SOL    HW224242   3.898   5.294   5.072
 8066SOL     OW24243   4.067   4.841   4.211
 8066SOL    HW124244   4.073   4.923   4.154
 8066SOL    HW224245   4.065   4.760   4.153
 8067SOL     OW24246   4.273   4.267   4.586
 8067SOL    HW124247   4.287   4.326   4.506
 8067SOL    HW224248   4.341   4.288   4.655
 8068SOL     OW24249   4.970   5.078   4.116
 8068SOL    HW124250   5.031   5.151   4.147
 8068SOL    HW224251   4.877   5.098   4.147
 8069SOL     OW24252   5.011   5.185   4.871
 8069SOL    HW124253   5.069   5.191   4.952
 8069SOL    HW224254   4.956   5.102   4.876
 8070SOL     OW24255   5.302   4.345   4.207
 8070SOL    HW124256   5.251   4.395   4.277
 8070SOL    HW224257   5.349   4.410   4.147
 8071SOL     OW24258   4.072   5.253   5.034
 8071SOL    HW124259   4.056   5.209   4.946
 8071SOL    HW224260   4.170   5.267   5.047
 8072SOL     OW24261   4.139   4.470   5.324
 8072SOL    HW124262   4.205   4.516   5.265
 8072SOL    HW224263   4.173   4.378   5.347
 8073SOL     OW24264   5.331   4.508   5.408
 8073SOL    HW124265   5.240   4.550   5.406
 8073SOL    HW224266   5.388   4.549   5.337
 8074SOL     OW24267   4.721   3.857   5.474
 8074SOL    HW124268   4.779   3.936   5.458
 8074SOL    HW224269   4.770   3.774   5.448
 8075SOL     OW24270   4.217   3.761   5.474
 8075SOL    HW124271   4.172   3.702   5.406
 8075SOL    HW224272   4.159   3.840   5.492
 8076SOL     OW24273   4.308   4.595   4.758
 8076SOL    HW124274   4.343   4.689   4.755
 8076SOL    HW224275   4.248   4.585   4.838
 8077SOL     OW24276   5.077   4.581   4.749
 8077SOL    HW124277   4.987   4.574   4.707
 8077SOL    HW224278   5.125   4.494   4.741
 8078SOL     OW24279   4.923   4.250   3.990
 8078SOL    HW124280   4.935   4.168   4.045
 8078SOL    HW224281   4.878   4.321   4.045
 8079SOL     OW24282   4.021   3.921   4.971
 8079SOL    HW124283   3.985   3.957   5.056
 8079SOL    HW224284   4.005   3.822   4.967
 8080SOL     OW24285   3.776   5.034   5.000
 8080SOL    HW124286   3.808   4.973   5.072
 8080SOL    HW224287   3.779   5.129   5.032
 8081SOL     OW24288   4.448   4.355   4.779
 8081SOL    HW124289   4.525   4.335   4.719
 8081SOL    HW224290   4.413   4.447   4.760
 8082SOL     OW24291   5.459   4.684   5.579
 8082SOL    HW124292   5.416   4.616   5.520
 8082SOL    HW224293   5.400   4.703   5.657
 8083SOL     OW24294   4.030   3.787   4.354
 8083SOL    HW124295   4.005   3.882   4.372
 8083SOL    HW224296   4.040   3.738   4.441
 8084SOL     OW24297   5.349   4.104   4.089
 8084SOL    HW124298   5.377   4.031   4.152
 8084SOL    HW224299   5.322   4.185   4.141
 8085SOL     OW24300   4.748   4.479   4.682
 8085SOL    HW124301   4.743   4.501   4.780
 8085SOL    HW224302   4.721   4.384   4.668
 8086SOL     OW24303   4.705   5.287   5.441
 8086SOL    HW124304   4.689   5.335   5.355
 8086SOL    HW224305   4.753   5.201   5.423
 8087SOL     OW24306   5.579   5.228   5.328
 8087SOL    HW124307   5.598   5.254   5.233
 8087SOL    HW224308   5.662   5.240   5.382
 8088SOL     OW24309   4.077   4.642   5.529
 8088SOL    HW124310   4.157   4.664   5.584
 8088SOL    HW224311   4.102   4.576   5.458
 8089SOL     OW24312   5.249   3.994   3.858
 8089SOL    HW124313   5.179   3.927   3.884
 8089SOL    HW224314   5.287   4.035   3.941
 8090SOL     OW24315   5.013   4.550   3.751
 8090SOL    HW124316   5.054   4.459   3.759
 8090SOL    HW224317   5.044   4.593   3.666
 8091SOL     OW24318   4.793   5.061   4.578
 8091SOL    HW124319   4.797   4.983   4.516
 8091SOL    HW224320   4.853   5.134   4.544
 8092SOL     OW24321   4.035   4.530   4.667
 8092SOL    HW124322   4.131   4.556   4.662
 8092SOL    HW224323   4.027   4.436   4.700
 8093SOL     OW24324   4.052   4.251   4.735
 8093SOL    HW124325   4.013   4.159   4.724
 8093SOL    HW224326   4.132   4.260   4.677
 8094SOL     OW24327   4.858   4.097   5.416
 8094SOL    HW124328   4.805   4.154   5.478
 8094SOL    HW224329   4.950   4.134   5.407
 8095SOL     OW24330   4.886   3.928   5.199
 8095SOL    HW124331   4.871   3.990   5.276
 8095SOL    HW224332   4.928   3.977   5.123
 8096SOL     OW24333   3.725   5.040   3.919
 8096SOL    HW124334   3.635   5.059   3.879
 8096SOL    HW224335   3.726   4.946   3.954
 8097SOL     OW24336   3.817   5.508   4.667
 8097SOL    HW124337   3.781   5.427   4.622
 8097SOL    HW224338   3.911   5.525   4.635
 8098SOL     OW24339   4.218   5.300   4.629
 8098SOL    HW124340   4.288   5.366   4.656
 8098SOL    HW224341   4.259   5.232   4.567
 8099SOL     OW24342   4.700   4.518   4.949
 8099SOL    HW124343   4.760   4.494   5.025
 8099SOL    HW224344   4.610   4.476   4.963
 8100SOL     OW24345   3.761   4.276   4.841
 8100SOL    HW124346   3.843   4.262   4.786
 8100SOL    HW224347   3.786   4.278   4.938
 8101SOL     OW24348   3.916   4.247   5.454
 8101SOL    HW124349   3.969   4.194   5.388
 8101SOL    HW224350   3.876   4.326   5.408
 8102SOL     OW24351   5.104   4.660   5.379
 8102SOL    HW124352   5.127   4.757   5.380
 8102SOL    HW224353   5.100   4.627   5.284
 8103SOL     OW24354   4.541   4.295   4.083
 8103SOL    HW124355   4.549   4.215   4.023
 8103SOL    HW224356   4.464   4.351   4.055
 8104SOL     OW24357   5.367   4.327   4.906
 8104SOL    HW124358   5.350   4.268   4.984
 8104SOL    HW224359   5.458   4.309   4.869
 8105SOL     OW24360   3.964   5.271   5.450
 8105SOL    HW124361   3.943   5.346   5.514
 8105SOL    HW224362   3.970   5.185   5.501
 8106SOL     OW24363   4.431   4.172   4.977
 8106SOL    HW124364   4.373   4.094   4.953
 8106SOL    HW224365   4.427   4.240   4.904
 8107SOL     OW24366   4.645   5.405   5.195
 8107SOL    HW124367   4.619   5.359   5.110
 8107SOL    HW224368   4.645   5.504   5.181
 8108SOL     OW24369   4.185   4.218   3.910
 8108SOL    HW124370   4.249   4.291   3.934
 8108SOL    HW224371   4.094   4.257   3.896
 8109SOL     OW24372   3.867   4.861   5.199
 8109SOL    HW124373   3.868   4.816   5.288
 8109SOL    HW224374   3.887   4.795   5.127
 8110SOL     OW24375   5.041   4.768   4.943
 8110SOL    HW124376   5.068   4.700   4.875
 8110SOL    HW224377   4.972   4.829   4.903
 8111SOL     OW24378   5.039   4.580   4.024
 8111SOL    HW124379   4.962   4.554   4.082
 8111SOL    HW224380   5.014   4.568   3.928
 8112SOL     OW24381   5.503   5.455   4.880
 8112SOL    HW124382   5.564   5.489   4.808
 8112SOL    HW224383   5.472   5.363   4.856
 8113SOL     OW24384   4.965   5.457   4.830
 8113SOL    HW124385   5.051   5.485   4.787
 8113SOL    HW224386   4.971   5.360   4.853
 8114SOL     OW24387   3.809   4.989   4.735
 8114SOL    HW124388   3.794   5.004   4.832
 8114SOL    HW224389   3.737   4.931   4.698
 8115SOL     OW24390   4.404   5.397   5.459
 8115SOL    HW124391   4.342   5.475   5.455
 8115SOL    HW224392   4.477   5.408   5.391
 8116SOL     OW24393   5.442   3.872   4.223
 8116SOL    HW124394   5.518   3.863   4.159
 8116SOL    HW224395   5.426   3.785   4.269
 8117SOL     OW24396   5.119   5.294   4.211
 8117SOL    HW124397   5.182   5.326   4.140
 8117SOL    HW224398   5.064   5.371   4.244
 8118SOL     OW24399   3.869   5.511   5.570
 8118SOL    HW124400   3.811   5.444   5.616
 8118SOL    HW224401   3.918   5.565   5.638
 8119SOL     OW24402   5.006   4.652   4.390
 8119SOL    HW124403   5.080   4.587   4.406
 8119SOL    HW224404   5.039   4.729   4.335
 8120SOL     OW24405   4.529   5.002   5.151
 8120SOL    HW124406   4.500   5.045   5.236
 8120SOL    HW224407   4.460   5.018   5.080
 8121SOL     OW24408   4.393   5.345   3.878
 8121SOL    HW124409   4.409   5.363   3.781
 8121SOL    HW224410   4.334   5.264   3.888
 8122SOL     OW24411   5.342   5.452   5.111
 8122SOL    HW124412   5.399   5.454   5.029
 8122SOL    HW224413   5.327   5.546   5.143
 8123SOL     OW24414   5.566   3.894   4.688
 8123SOL    HW124415   5.600   3.803   4.665
 8123SOL    HW224416   5.475   3.906   4.648
 8124SOL     OW24417   3.980   4.039   4.440
 8124SOL    HW124418   3.891   4.076   4.412
 8124SOL    HW224419   3.983   4.031   4.540
 8125SOL     OW24420   4.932   5.325   3.757
 8125SOL    HW124421   4.923   5.231   3.790
 8125SOL    HW224422   4.866   5.342   3.684
 8126SOL     OW24423   4.547   4.733   5.101
 8126SOL    HW124424   4.598   4.718   5.017
 8126SOL    HW224425   4.545   4.831   5.122
 8127SOL     OW24426   4.644   4.635   4.011
 8127SOL    HW124427   4.705   4.670   3.940
 8127SOL    HW224428   4.691   4.563   4.063
 8128SOL     OW24429   5.213   5.353   3.766
 8128SOL    HW124430   5.114   5.342   3.755
 8128SOL    HW224431   5.256   5.359   3.676
 8129SOL     OW24432   4.090   5.027   5.211
 8129SOL    HW124433   4.080   5.107   5.152
 8129SOL    HW224434   4.010   4.967   5.200
 8130SOL     OW24435   5.338   5.008   5.008
 8130SOL    HW124436   5.401   4.989   5.084
 8130SOL    HW224437   5.272   5.078   5.036
 8131SOL     OW24438   4.784   4.830   4.438
 8131SOL    HW124439   4.708   4.780   4.478
 8131SOL    HW224440   4.852   4.766   4.404
 8132SOL     OW24441   4.746   3.963   4.691
 8132SOL    HW124442   4.743   3.919   4.602
 8132SOL    HW224443   4.744   3.894   4.763
 8133SOL     OW24444   4.328   5.210   4.204
 8133SOL    HW124445   4.379   5.156   4.137
 8133SOL    HW224446   4.255   5.260   4.158
 8134SOL     OW24447   5.454   4.118   5.104
 8134SOL    HW124448   5.527   4.186   5.105
 8134SOL    HW224449   5.480   4.043   5.044
 8135SOL     OW24450   3.977   5.072   4.012
 8135SOL    HW124451   3.881   5.065   3.985
 8135SOL    HW224452   3.983   5.110   4.104
 8136SOL     OW24453   3.838   4.756   5.451
 8136SOL    HW124454   3.757   4.729   5.502
 8136SOL    HW224455   3.919   4.712   5.490
 8137SOL     OW24456   4.407   3.918   5.224
 8137SOL    HW124457   4.493   3.894   5.180
 8137SOL    HW224458   4.425   3.952   5.316
 8138SOL     OW24459   3.797   4.058   3.756
 8138SOL    HW124460   3.705   4.037   3.723
 8138SOL    HW224461   3.833   4.137   3.706
 8139SOL     OW24462   5.148   4.581   5.119
 8139SOL    HW124463   5.093   4.645   5.066
 8139SOL    HW224464   5.242   4.582   5.086
 8140SOL     OW24465   3.787   3.887   4.027
 8140SOL    HW124466   3.770   3.971   3.975
 8140SOL    HW224467   3.874   3.847   4.000
 8141SOL     OW24468   4.904   5.062   3.844
 8141SOL    HW124469   4.809   5.032   3.838
 8141SOL    HW224470   4.932   5.063   3.940
 8142SOL     OW24471   4.347   4.554   5.157
 8142SOL    HW124472   4.404   4.635   5.143
 8142SOL    HW224473   4.405   4.473   5.167
 8143SOL     OW24474   5.209   5.511   4.711
 8143SOL    HW124475   5.230   5.572   4.635
 8143SOL    HW224476   5.294   5.478   4.752
 8144SOL     OW24477   4.446   4.283   5.427
 8144SOL    HW124478   4.490   4.350   5.486
 8144SOL    HW224479   4.466   4.191   5.460
 8145SOL     OW24480   5.197   4.921   5.359
 8145SOL    HW124481   5.182   4.934   5.457
 8145SOL    HW224482   5.293   4.939   5.337
 8146SOL     OW24483   4.096   5.462   5.290
 8146SOL    HW124484   4.012   5.513   5.276
 8146SOL    HW224485   4.075   5.374   5.333
 8147SOL     OW24486   5.390   4.602   4.980
 8147SOL    HW124487   5.385   4.511   4.939
 8147SOL    HW224488   5.378   4.672   4.909
 8148SOL     OW24489   4.942   4.040   4.184
 8148SOL    HW124490   5.007   3.964   4.175
 8148SOL    HW224491   4.968   4.096   4.263
 8149SOL     OW24492   4.311   4.460   4.392
 8149SOL    HW124493   4.352   4.551   4.382
 8149SOL    HW224494   4.241   4.447   4.322
 8150SOL     OW24495   5.476   4.089   5.376
 8150SOL    HW124496   5.465   4.105   5.278
 8150SOL    HW224497   5.402   4.029   5.408
 8151SOL     OW24498   5.475   4.656   5.234
 8151SOL    HW124499   5.465   4.753   5.255
 8151SOL    HW224500   5.455   4.641   5.137
 8152SOL     OW24501   4.590   5.088   3.766
 8152SOL    HW124502   4.549   5.113   3.854
 8152SOL    HW224503   4.606   5.171   3.713
 8153SOL     OW24504   4.388   5.510   4.667
 8153SOL    HW124505   4.365   5.605   4.645
 8153SOL    HW224506   4.487   5.497   4.655
 8154SOL     OW24507   4.593   4.694   4.580
 8154SOL    HW124508   4.644   4.616   4.617
 8154SOL    HW224509   4.551   4.745   4.656
 8155SOL     OW24510   4.802   4.714   3.808
 8155SOL    HW124511   4.774   4.767   3.728
 8155SOL    HW224512   4.880   4.655   3.784
 8156SOL     OW24513   5.571   5.280   4.571
 8156SOL    HW124514   5.494   5.268   4.508
 8156SOL    HW224515   5.566   5.211   4.643
 8157SOL     OW24516   3.955   5.023   5.581
 8157SOL    HW124517   3.888   4.957   5.547
 8157SOL    HW224518   3.940   5.037   5.679
 8158SOL     OW24519   3.810   4.954   4.388
 8158SOL    HW124520   3.814   4.908   4.476
 8158SOL    HW224521   3.879   4.915   4.326
 8159SOL     OW24522   4.406   5.133   5.357
 8159SOL    HW124523   4.325   5.083   5.389
 8159SOL    HW224524   4.404   5.225   5.394
 8160SOL     OW24525   5.529   3.907   4.958
 8160SOL    HW124526   5.544   3.811   4.982
 8160SOL    HW224527   5.542   3.918   4.859
 8161SOL     OW24528   4.155   4.153   4.251
 8161SOL    HW124529   4.188   4.084   4.187
 8161SOL    HW224530   4.100   4.109   4.323
 8162SOL     OW24531   5.418   5.207   4.818
 8162SOL    HW124532   5.337   5.189   4.763
 8162SOL    HW224533   5.427   5.136   4.888
 8163SOL     OW24534   4.058   4.280   5.013
 8163SOL    HW124535   4.115   4.223   5.073
 8163SOL    HW224536   4.074   4.254   4.918
 8164SOL     OW24537   4.552   5.304   4.403
 8164SOL    HW124538   4.540   5.364   4.324
 8164SOL    HW224539   4.475   5.240   4.409
 8165SOL     OW24540   5.155   3.954   4.841
 8165SOL    HW124541   5.179   3.866   4.880
 8165SOL    HW224542   5.100   4.006   4.907
 8166SOL     OW24543   4.734   3.741   4.862
 8166SOL    HW124544   4.670   3.677   4.820
 8166SOL    HW224545   4.826   3.700   4.864
 8167SOL     OW24546   4.498   5.056   4.044
 8167SOL    HW124547   4.470   4.960   4.052
 8167SOL    HW224548   4.583   5.069   4.095
 8168SOL     OW24549   4.347   5.283   5.013
 8168SOL    HW124550   4.345   5.370   5.063
 8168SOL    HW224551   4.438   5.270   4.973
 8169SOL     OW24552   5.076   3.776   3.896
 8169SOL    HW124553   5.122   3.709   3.839
 8169SOL    HW224554   4.983   3.745   3.916
 8170SOL     OW24555   5.014   4.188   4.404
 8170SOL    HW124556   4.962   4.273   4.407
 8170SOL    HW224557   5.013   4.145   4.495
 8171SOL     OW24558   5.310   3.927   4.607
 8171SOL    HW124559   5.251   3.947   4.686
 8171SOL    HW224560   5.312   4.007   4.547
 8172SOL     OW24561   3.767   4.789   4.032
 8172SOL    HW124562   3.865   4.789   4.012
 8172SOL    HW224563   3.737   4.696   4.054
 8173SOL     OW24564   4.608   5.385   4.065
 8173SOL    HW124565   4.533   5.364   4.002
 8173SOL    HW224566   4.581   5.463   4.122
 8174SOL     OW24567   3.946   4.344   5.713
 8174SOL    HW124568   3.855   4.344   5.753
 8174SOL    HW224569   3.940   4.321   5.616
 8175SOL     OW24570   3.944   4.011   6.582
 8175SOL    HW124571   3.980   3.973   6.667
 8175SOL    HW224572   3.853   3.975   6.565
 8176SOL     OW24573   3.725   4.110   6.221
 8176SOL    HW124574   3.640   4.140   6.265
 8176SOL    HW224575   3.707   4.026   6.169
 8177SOL     OW24576   4.283   5.005   6.755
 8177SOL    HW124577   4.195   5.025   6.713
 8177SOL    HW224578   4.313   5.083   6.810
 8178SOL     OW24579   5.287   5.236   6.294
 8178SOL    HW124580   5.243   5.214   6.381
 8178SOL    HW224581   5.218   5.244   6.222
 8179SOL     OW24582   4.856   4.427   6.282
 8179SOL    HW124583   4.908   4.511   6.266
 8179SOL    HW224584   4.805   4.434   6.367
 8180SOL     OW24585   5.494   4.324   5.809
 8180SOL    HW124586   5.470   4.319   5.712
 8180SOL    HW224587   5.455   4.245   5.856
 8181SOL     OW24588   4.482   4.868   6.628
 8181SOL    HW124589   4.407   4.894   6.689
 8181SOL    HW224590   4.515   4.949   6.579
 8182SOL     OW24591   4.408   4.723   6.235
 8182SOL    HW124592   4.478   4.712   6.305
 8182SOL    HW224593   4.333   4.779   6.272
 8183SOL     OW24594   4.056   5.137   6.649
 8183SOL    HW124595   3.972   5.104   6.607
 8183SOL    HW224596   4.104   5.198   6.586
 8184SOL     OW24597   5.336   4.172   6.329
 8184SOL    HW124598   5.259   4.189   6.267
 8184SOL    HW224599   5.339   4.244   6.398
 8185SOL     OW24600   3.946   5.438   6.057
 8185SOL    HW124601   3.964   5.517   6.116
 8185SOL    HW224602   4.021   5.428   5.992
 8186SOL     OW24603   3.957   5.167   6.122
 8186SOL    HW124604   3.941   5.266   6.122
 8186SOL    HW224605   3.897   5.124   6.190
 8187SOL     OW24606   3.990   4.815   6.486
 8187SOL    HW124607   3.986   4.721   6.522
 8187SOL    HW224608   3.931   4.874   6.541
 8188SOL     OW24609   4.338   5.529   6.988
 8188SOL    HW124610   4.249   5.501   0.023
 8188SOL    HW224611   4.360   5.620   0.023
 8189SOL     OW24612   4.307   4.711   5.726
 8189SOL    HW124613   4.354   4.758   5.652
 8189SOL    HW224614   4.347   4.739   5.814
 8190SOL     OW24615   3.838   4.385   6.150
 8190SOL    HW124616   3.808   4.290   6.166
 8190SOL    HW224617   3.832   4.437   6.235
 8191SOL     OW24618   5.569   5.480   5.919
 8191SOL    HW124619   5.638   5.449   5.984
 8191SOL    HW224620   5.586   5.576   5.896
 8192SOL     OW24621   3.752   5.315   5.709
 8192SOL    HW124622   3.737   5.218   5.729
 8192SOL    HW224623   3.732   5.369   5.791
 8193SOL     OW24624   5.414   4.644   6.231
 8193SOL    HW124625   5.499   4.594   6.214
 8193SOL    HW224626   5.391   4.698   6.150
 8194SOL     OW24627   5.376   4.829   6.017
 8194SOL    HW124628   5.465   4.827   5.972
 8194SOL    HW224629   5.379   4.896   6.092
 8195SOL     OW24630   4.335   5.114   6.320
 8195SOL    HW124631   4.289   5.026   6.333
 8195SOL    HW224632   4.322   5.145   6.226
 8196SOL     OW24633   4.541   3.732   6.094
 8196SOL    HW124634   4.587   3.818   6.072
 8196SOL    HW224635   4.442   3.748   6.102
 8197SOL     OW24636   3.917   4.702   6.846
 8197SOL    HW124637   4.000   4.648   6.831
 8197SOL    HW224638   3.837   4.648   6.822
 8198SOL     OW24639   5.256   4.724   5.790
 8198SOL    HW124640   5.182   4.663   5.819
 8198SOL    HW224641   5.302   4.762   5.870
 8199SOL     OW24642   5.177   5.147   6.532
 8199SOL    HW124643   5.119   5.161   6.612
 8199SOL    HW224644   5.174   5.051   6.505
 8200SOL     OW24645   5.374   5.472   6.162
 8200SOL    HW124646   5.356   5.442   6.068
 8200SOL    HW224647   5.354   5.397   6.225
 8201SOL     OW24648   4.319   4.444   5.858
 8201SOL    HW124649   4.325   4.529   5.805
 8201SOL    HW224650   4.250   4.453   5.929
 8202SOL     OW24651   4.999   4.079   6.517
 8202SOL    HW124652   4.905   4.046   6.525
 8202SOL    HW224653   5.057   4.029   6.581
 8203SOL     OW24654   5.307   5.396   5.893
 8203SOL    HW124655   5.403   5.424   5.891
 8203SOL    HW224656   5.275   5.379   5.801
 8204SOL     OW24657   4.518   4.333   0.046
 8204SOL    HW124658   4.456   4.375   0.112
 8204SOL    HW224659   4.466   4.277   6.981
 8205SOL     OW24660   4.729   4.117   6.794
 8205SOL    HW124661   4.669   4.171   6.853
 8205SOL    HW224662   4.675   4.071   6.724
 8206SOL     OW24663   4.774   4.423   6.011
 8206SOL    HW124664   4.796   4.418   6.108
 8206SOL    HW224665   4.688   4.375   5.994
 8207SOL     OW24666   3.813   4.550   6.367
 8207SOL    HW124667   3.899   4.539   6.417
 8207SOL    HW224668   3.764   4.630   6.402
 8208SOL     OW24669   3.882   5.576   0.149
 8208SOL    HW124670   3.844   5.503   0.205
 8208SOL    HW224671   3.824   5.590   0.069
 8209SOL     OW24672   4.620   4.077   5.782
 8209SOL    HW124673   4.660   4.144   5.720
 8209SOL    HW224674   4.630   3.985   5.743
 8210SOL     OW24675   5.103   4.867   6.120
 8210SOL    HW124676   5.188   4.851   6.069
 8210SOL    HW224677   5.047   4.934   6.071
 8211SOL     OW24678   4.271   3.898   6.484
 8211SOL    HW124679   4.277   3.929   6.579
 8211SOL    HW224680   4.275   3.977   6.423
 8212SOL     OW24681   4.720   5.167   6.050
 8212SOL    HW124682   4.687   5.247   6.000
 8212SOL    HW224683   4.704   5.180   6.148
 8213SOL     OW24684   4.079   5.538   6.453
 8213SOL    HW124685   4.122   5.448   6.463
 8213SOL    HW224686   4.147   5.609   6.473
 8214SOL     OW24687   5.525   4.780   6.452
 8214SOL    HW124688   5.473   4.757   6.370
 8214SOL    HW224689   5.462   4.781   6.531
 8215SOL     OW24690   4.046   4.683   5.840
 8215SOL    HW124691   4.134   4.703   5.796
 8215SOL    HW224692   4.009   4.598   5.802
 8216SOL     OW24693   5.206   4.472   6.307
 8216SOL    HW124694   5.198   4.426   6.395
 8216SOL    HW224695   5.286   4.531   6.307
 8217SOL     OW24696   4.845   5.500   5.813
 8217SOL    HW124697   4.767   5.462   5.861
 8217SOL    HW224698   4.875   5.436   5.742
 8218SOL     OW24699   5.349   5.105   5.673
 8218SOL    HW124700   5.310   5.196   5.658
 8218SOL    HW224701   5.279   5.036   5.655
 8219SOL     OW24702   4.189   5.459   5.905
 8219SOL    HW124703   4.230   5.521   5.971
 8219SOL    HW224704   4.260   5.423   5.844
 8220SOL     OW24705   5.125   3.828   6.022
 8220SOL    HW124706   5.114   3.803   5.926
 8220SOL    HW224707   5.223   3.837   6.042
 8221SOL     OW24708   3.992   5.522   6.819
 8221SOL    HW124709   4.041   5.462   6.882
 8221SOL    HW224710   3.951   5.468   6.746
 8222SOL     OW24711   4.660   5.424   6.481
 8222SOL    HW124712   4.745   5.379   6.509
 8222SOL    HW224713   4.617   5.373   6.407
 8223SOL     OW24714   4.119   4.413   6.061
 8223SOL    HW124715   4.139   4.316   6.074
 8223SOL    HW224716   4.022   4.429   6.078
 8224SOL     OW24717   4.363   3.842   5.688
 8224SOL    HW124718   4.433   3.773   5.710
 8224SOL    HW224719   4.308   3.810   5.611
 8225SOL     OW24720   4.593   5.243   6.762
 8225SOL    HW124721   4.575   5.208   6.670
 8225SOL    HW224722   4.633   5.170   6.817
 8226SOL     OW24723   4.543   5.114   6.520
 8226SOL    HW124724   4.632   5.103   6.478
 8226SOL    HW224725   4.472   5.118   6.449
 8227SOL     OW24726   4.651   4.232   6.485
 8227SOL    HW124727   4.624   4.224   6.389
 8227SOL    HW224728   4.688   4.145   6.516
 8228SOL     OW24729   4.271   3.788   6.081
 8228SOL    HW124730   4.189   3.786   6.138
 8228SOL    HW224731   4.268   3.869   6.022
 8229SOL     OW24732   5.150   4.922   5.629
 8229SOL    HW124733   5.183   4.845   5.682
 8229SOL    HW224734   5.061   4.951   5.665
 8230SOL     OW24735   4.015   3.772   5.772
 8230SOL    HW124736   4.068   3.844   5.726
 8230SOL    HW224737   4.077   3.707   5.815
 8231SOL     OW24738   4.669   3.974   6.043
 8231SOL    HW124739   4.638   4.016   5.958
 8231SOL    HW224740   4.768   3.987   6.052
 8232SOL     OW24741   4.943   5.295   6.382
 8232SOL    HW124742   4.957   5.365   6.312
 8232SOL    HW224743   5.021   5.293   6.444
 8233SOL     OW24744   4.192   4.874   6.315
 8233SOL    HW124745   4.124   4.855   6.387
 8233SOL    HW224746   4.150   4.861   6.226
 8234SOL     OW24747   4.987   5.516   6.196
 8234SOL    HW124748   5.039   5.578   6.137
 8234SOL    HW224749   4.914   5.566   6.242
 8235SOL     OW24750   4.745   4.261   5.615
 8235SOL    HW124751   4.700   4.347   5.591
 8235SOL    HW224752   4.814   4.278   5.684
 8236SOL     OW24753   4.287   3.945   6.756
 8236SOL    HW124754   4.332   3.861   6.786
 8236SOL    HW224755   4.191   3.945   6.786
 8237SOL     OW24756   4.589   4.183   6.223
 8237SOL    HW124757   4.542   4.244   6.159
 8237SOL    HW224758   4.617   4.100   6.175
 8238SOL     OW24759   4.742   3.772   6.328
 8238SOL    HW124760   4.680   3.773   6.250
 8238SOL    HW224761   4.717   3.698   6.390
 8239SOL     OW24762   5.164   4.885   6.442
 8239SOL    HW124763   5.095   4.812   6.444
 8239SOL    HW224764   5.195   4.898   6.348
 8240SOL     OW24765   5.190   4.329   6.551
 8240SOL    HW124766   5.128   4.250   6.556
 8240SOL    HW224767   5.253   4.326   6.629
 8241SOL     OW24768   5.567   4.534   5.965
 8241SOL    HW124769   5.625   4.486   6.031
 8241SOL    HW224770   5.537   4.470   5.895
 8242SOL     OW24771   4.211   5.144   5.742
 8242SOL    HW124772   4.131   5.117   5.795
 8242SOL    HW224773   4.208   5.100   5.652
 8243SOL     OW24774   5.398   4.991   6.229
 8243SOL    HW124775   5.497   4.988   6.242
 8243SOL    HW224776   5.364   5.083   6.251
 8244SOL     OW24777   5.114   4.298   5.657
 8244SOL    HW124778   5.051   4.276   5.731
 8244SOL    HW224779   5.207   4.272   5.683
 8245SOL     OW24780   4.252   3.988   5.897
 8245SOL    HW124781   4.299   3.936   5.826
 8245SOL    HW224782   4.224   4.077   5.859
 8246SOL     OW24783   5.481   4.904   0.171
 8246SOL    HW124784   5.579   4.890   0.155
 8246SOL    HW224785   5.457   4.997   0.146
 8247SOL     OW24786   4.843   4.961   6.695
 8247SOL    HW124787   4.759   4.922   6.733
 8247SOL    HW224788   4.829   4.984   6.599
 8248SOL     OW24789   5.344   4.808   6.651
 8248SOL    HW124790   5.345   4.879   6.721
 8248SOL    HW224791   5.269   4.825   6.587
 8249SOL     OW24792   4.437   4.783   5.959
 8249SOL    HW124793   4.419   4.765   6.056
 8249SOL    HW224794   4.515   4.729   5.929
 8250SOL     OW24795   4.148   4.537   6.846
 8250SOL    HW124796   4.207   4.562   6.923
 8250SOL    HW224797   4.112   4.445   6.860
 8251SOL     OW24798   4.993   4.111   6.856
 8251SOL    HW124799   5.020   4.185   6.917
 8251SOL    HW224800   4.898   4.125   6.827
 8252SOL     OW24801   3.814   5.285   6.859
 8252SOL    HW124802   3.751   5.361   6.880
 8252SOL    HW224803   3.889   5.285   6.925
 8253SOL     OW24804   4.068   4.841   6.073
 8253SOL    HW124805   4.073   4.923   6.016
 8253SOL    HW224806   4.066   4.760   6.014
 8254SOL     OW24807   4.271   4.269   6.449
 8254SOL    HW124808   4.285   4.328   6.369
 8254SOL    HW224809   4.342   4.288   6.517
 8255SOL     OW24810   4.970   5.078   5.978
 8255SOL    HW124811   5.031   5.151   6.009
 8255SOL    HW224812   4.877   5.098   6.008
 8256SOL     OW24813   5.005   5.174   6.746
 8256SOL    HW124814   5.040   5.164   6.839
 8256SOL    HW224815   4.944   5.098   6.726
 8257SOL     OW24816   5.301   4.346   6.067
 8257SOL    HW124817   5.251   4.393   6.140
 8257SOL    HW224818   5.349   4.413   6.010
 8258SOL     OW24819   4.091   5.221   6.905
 8258SOL    HW124820   4.059   5.184   6.818
 8258SOL    HW224821   4.186   5.251   6.896
 8259SOL     OW24822   4.308   4.594   6.623
 8259SOL    HW124823   4.341   4.688   6.616
 8259SOL    HW224824   4.248   4.586   6.702
 8260SOL     OW24825   5.073   4.580   6.596
 8260SOL    HW124826   4.982   4.566   6.556
 8260SOL    HW224827   5.125   4.495   6.594
 8261SOL     OW24828   4.922   4.251   5.851
 8261SOL    HW124829   4.935   4.168   5.906
 8261SOL    HW224830   4.878   4.321   5.906
 8262SOL     OW24831   4.026   3.925   6.834
 8262SOL    HW124832   3.987   3.955   6.921
 8262SOL    HW224833   4.014   3.826   6.825
 8263SOL     OW24834   3.751   5.025   6.868
 8263SOL    HW124835   3.804   4.977   6.938
 8263SOL    HW224836   3.778   5.121   6.866
 8264SOL     OW24837   4.449   4.351   6.642
 8264SOL    HW124838   4.527   4.330   6.583
 8264SOL    HW224839   4.417   4.444   6.624
 8265SOL     OW24840   4.029   3.786   6.212
 8265SOL    HW124841   4.005   3.881   6.231
 8265SOL    HW224842   4.040   3.737   6.299
 8266SOL     OW24843   5.350   4.104   5.948
 8266SOL    HW124844   5.376   4.031   6.011
 8266SOL    HW224845   5.322   4.185   6.001
 8267SOL     OW24846   4.746   4.481   6.550
 8267SOL    HW124847   4.742   4.501   6.648
 8267SOL    HW224848   4.721   4.385   6.535
 8268SOL     OW24849   5.252   3.993   5.716
 8268SOL    HW124850   5.182   3.925   5.741
 8268SOL    HW224851   5.288   4.035   5.799
 8269SOL     OW24852   5.013   4.550   5.613
 8269SOL    HW124853   5.054   4.459   5.621
 8269SOL    HW224854   5.044   4.593   5.528
 8270SOL     OW24855   4.796   5.060   6.439
 8270SOL    HW124856   4.799   4.983   6.376
 8270SOL    HW224857   4.854   5.134   6.404
 8271SOL     OW24858   4.037   4.529   6.529
 8271SOL    HW124859   4.133   4.556   6.522
 8271SOL    HW224860   4.031   4.434   6.559
 8272SOL     OW24861   4.055   4.252   6.604
 8272SOL    HW124862   4.015   4.162   6.590
 8272SOL    HW224863   4.135   4.262   6.545
 8273SOL     OW24864   4.863   3.963   0.053
 8273SOL    HW124865   4.929   3.982   0.126
 8273SOL    HW224866   4.899   4.000   6.967
 8274SOL     OW24867   3.725   5.040   5.780
 8274SOL    HW124868   3.635   5.059   5.740
 8274SOL    HW224869   3.726   4.946   5.816
 8275SOL     OW24870   3.815   5.513   6.527
 8275SOL    HW124871   3.780   5.430   6.484
 8275SOL    HW224872   3.911   5.527   6.500
 8276SOL     OW24873   4.218   5.302   6.491
 8276SOL    HW124874   4.288   5.367   6.519
 8276SOL    HW224875   4.258   5.233   6.430
 8277SOL     OW24876   4.706   4.521   6.823
 8277SOL    HW124877   4.783   4.496   6.881
 8277SOL    HW224878   4.623   4.476   6.857
 8278SOL     OW24879   3.774   4.279   6.713
 8278SOL    HW124880   3.830   4.245   6.637
 8278SOL    HW224881   3.833   4.315   6.785
 8279SOL     OW24882   4.541   4.296   5.947
 8279SOL    HW124883   4.550   4.216   5.886
 8279SOL    HW224884   4.463   4.351   5.917
 8280SOL     OW24885   5.371   4.334   6.753
 8280SOL    HW124886   5.356   4.275   6.832
 8280SOL    HW224887   5.466   4.323   6.721
 8281SOL     OW24888   4.397   4.187   6.850
 8281SOL    HW124889   4.361   4.099   6.818
 8281SOL    HW224890   4.412   4.247   6.771
 8282SOL     OW24891   4.667   5.386   6.998
 8282SOL    HW124892   4.634   5.377   6.904
 8282SOL    HW224893   4.648   5.479   0.031
 8283SOL     OW24894   4.183   4.219   5.772
 8283SOL    HW124895   4.248   4.292   5.797
 8283SOL    HW224896   4.093   4.259   5.758
 8284SOL     OW24897   3.881   4.866   0.058
 8284SOL    HW124898   3.934   4.825   0.131
 8284SOL    HW224899   3.890   4.812   6.975
 8285SOL     OW24900   5.011   4.732   6.814
 8285SOL    HW124901   5.049   4.680   6.737
 8285SOL    HW224902   4.982   4.822   6.781
 8286SOL     OW24903   5.039   4.581   5.885
 8286SOL    HW124904   4.963   4.553   5.944
 8286SOL    HW224905   5.013   4.568   5.790
 8287SOL     OW24906   5.480   5.482   6.725
 8287SOL    HW124907   5.555   5.505   6.662
 8287SOL    HW224908   5.458   5.385   6.716
 8288SOL     OW24909   4.972   5.450   6.700
 8288SOL    HW124910   5.055   5.479   6.653
 8288SOL    HW224911   4.976   5.352   6.718
 8289SOL     OW24912   3.805   4.988   6.600
 8289SOL    HW124913   3.786   4.997   6.697
 8289SOL    HW224914   3.738   4.928   6.557
 8290SOL     OW24915   5.443   3.873   6.085
 8290SOL    HW124916   5.519   3.863   6.021
 8290SOL    HW224917   5.425   3.786   6.131
 8291SOL     OW24918   5.119   5.294   6.073
 8291SOL    HW124919   5.182   5.326   6.002
 8291SOL    HW224920   5.064   5.372   6.106
 8292SOL     OW24921   5.006   4.652   6.253
 8292SOL    HW124922   5.080   4.587   6.268
 8292SOL    HW224923   5.039   4.729   6.198
 8293SOL     OW24924   4.393   5.345   5.740
 8293SOL    HW124925   4.409   5.363   5.643
 8293SOL    HW224926   4.334   5.264   5.750
 8294SOL     OW24927   5.565   3.898   6.555
 8294SOL    HW124928   5.600   3.807   6.533
 8294SOL    HW224929   5.474   3.909   6.517
 8295SOL     OW24930   3.980   4.039   6.301
 8295SOL    HW124931   3.891   4.075   6.273
 8295SOL    HW224932   3.983   4.031   6.401
 8296SOL     OW24933   4.932   5.325   5.619
 8296SOL    HW124934   4.923   5.231   5.652
 8296SOL    HW224935   4.865   5.342   5.546
 8297SOL     OW24936   4.502   4.750   6.951
 8297SOL    HW124937   4.561   4.708   6.882
 8297SOL    HW224938   4.547   4.832   6.987
 8298SOL     OW24939   4.644   4.634   5.873
 8298SOL    HW124940   4.705   4.670   5.803
 8298SOL    HW224941   4.690   4.563   5.925
 8299SOL     OW24942   5.213   5.353   5.628
 8299SOL    HW124943   5.114   5.342   5.617
 8299SOL    HW224944   5.256   5.359   5.538
 8300SOL     OW24945   5.339   5.003   6.835
 8300SOL    HW124946   5.429   5.005   6.879
 8300SOL    HW224947   5.270   4.981   6.903
 8301SOL     OW24948   4.784   4.830   6.300
 8301SOL    HW124949   4.707   4.779   6.339
 8301SOL    HW224950   4.852   4.766   6.266
 8302SOL     OW24951   4.743   3.961   6.541
 8302SOL    HW124952   4.742   3.911   6.454
 8302SOL    HW224953   4.745   3.895   6.616
 8303SOL     OW24954   4.328   5.210   6.066
 8303SOL    HW124955   4.379   5.156   5.999
 8303SOL    HW224956   4.255   5.260   6.021
 8304SOL     OW24957   5.420   4.147   6.945
 8304SOL    HW124958   5.488   4.154   0.018
 8304SOL    HW224959   5.426   4.057   6.903
 8305SOL     OW24960   3.977   5.072   5.874
 8305SOL    HW124961   3.881   5.065   5.847
 8305SOL    HW224962   3.983   5.110   5.967
 8306SOL     OW24963   4.395   3.914   0.081
 8306SOL    HW124964   4.485   3.891   0.043
 8306SOL    HW224965   4.405   3.992   0.143
 8307SOL     OW24966   3.805   4.053   5.616
 8307SOL    HW124967   3.713   4.029   5.585
 8307SOL    HW224968   3.837   4.134   5.567
 8308SOL     OW24969   3.788   3.879   5.889
 8308SOL    HW124970   3.771   3.964   5.838
 8308SOL    HW224971   3.876   3.841   5.863
 8309SOL     OW24972   4.904   5.062   5.706
 8309SOL    HW124973   4.809   5.032   5.700
 8309SOL    HW224974   4.933   5.063   5.802
 8310SOL     OW24975   5.215   5.507   6.578
 8310SOL    HW124976   5.228   5.568   6.500
 8310SOL    HW224977   5.303   5.488   6.621
 8311SOL     OW24978   5.217   5.016   0.284
 8311SOL    HW124979   5.125   5.007   0.322
 8311SOL    HW224980   5.252   4.925   0.260
 8312SOL     OW24981   4.110   5.451   0.090
 8312SOL    HW124982   4.030   5.505   0.117
 8312SOL    HW224983   4.102   5.359   0.129
 8313SOL     OW24984   5.422   4.602   6.829
 8313SOL    HW124985   5.389   4.512   6.801
 8313SOL    HW224986   5.388   4.672   6.766
 8314SOL     OW24987   4.943   4.041   6.046
 8314SOL    HW124988   5.007   3.964   6.035
 8314SOL    HW224989   4.970   4.096   6.125
 8315SOL     OW24990   4.310   4.461   6.255
 8315SOL    HW124991   4.352   4.551   6.244
 8315SOL    HW224992   4.240   4.448   6.184
 8316SOL     OW24993   5.495   4.630   0.093
 8316SOL    HW124994   5.482   4.725   0.121
 8316SOL    HW224995   5.468   4.619   6.998
 8317SOL     OW24996   4.590   5.088   5.628
 8317SOL    HW124997   4.549   5.112   5.716
 8317SOL    HW224998   4.606   5.171   5.575
 8318SOL     OW24999   4.390   5.511   6.533
 8318SOL    HW125000   4.366   5.604   6.507
 8318SOL    HW225001   4.489   5.497   6.519
 8319SOL     OW25002   4.593   4.693   6.443
 8319SOL    HW125003   4.642   4.615   6.480
 8319SOL    HW225004   4.553   4.747   6.517
 8320SOL     OW25005   4.802   4.713   5.670
 8320SOL    HW125006   4.774   4.767   5.590
 8320SOL    HW225007   4.880   4.655   5.646
 8321SOL     OW25008   5.574   5.281   6.432
 8321SOL    HW125009   5.494   5.268   6.373
 8321SOL    HW225010   5.569   5.219   6.509
 8322SOL     OW25011   3.810   4.953   6.249
 8322SOL    HW125012   3.813   4.906   6.338
 8322SOL    HW225013   3.880   4.914   6.189
 8323SOL     OW25014   5.535   3.900   6.835
 8323SOL    HW125015   5.512   3.803   6.837
 8323SOL    HW225016   5.550   3.929   6.740
 8324SOL     OW25017   4.155   4.153   6.113
 8324SOL    HW125018   4.188   4.083   6.050
 8324SOL    HW225019   4.100   4.109   6.185
 8325SOL     OW25020   5.403   5.227   6.676
 8325SOL    HW125021   5.326   5.205   6.617
 8325SOL    HW225022   5.416   5.153   6.742
 8326SOL     OW25023   4.040   4.273   6.878
 8326SOL    HW125024   4.112   4.222   6.925
 8326SOL    HW225025   4.050   4.261   6.779
 8327SOL     OW25026   4.552   5.303   6.263
 8327SOL    HW125027   4.540   5.365   6.185
 8327SOL    HW225028   4.475   5.240   6.268
 8328SOL     OW25029   5.158   3.959   6.702
 8328SOL    HW125030   5.193   3.878   6.749
 8328SOL    HW225031   5.104   4.013   6.766
 8329SOL     OW25032   4.740   3.743   6.714
 8329SOL    HW125033   4.677   3.676   6.674
 8329SOL    HW225034   4.831   3.701   6.724
 8330SOL     OW25035   4.498   5.056   5.906
 8330SOL    HW125036   4.470   4.960   5.914
 8330SOL    HW225037   4.583   5.069   5.957
 8331SOL     OW25038   4.348   5.289   6.865
 8331SOL    HW125039   4.345   5.384   6.895
 8331SOL    HW225040   4.435   5.271   6.819
 8332SOL     OW25041   5.078   3.775   5.755
 8332SOL    HW125042   5.120   3.707   5.694
 8332SOL    HW225043   4.985   3.746   5.778
 8333SOL     OW25044   5.016   4.187   6.266
 8333SOL    HW125045   4.963   4.272   6.269
 8333SOL    HW225046   5.013   4.143   6.356
 8334SOL     OW25047   5.311   3.929   6.470
 8334SOL    HW125048   5.249   3.947   6.547
 8334SOL    HW225049   5.312   4.009   6.409
 8335SOL     OW25050   3.767   4.789   5.893
 8335SOL    HW125051   3.865   4.789   5.874
 8335SOL    HW225052   3.737   4.696   5.915
 8336SOL     OW25053   4.608   5.385   5.927
 8336SOL    HW125054   4.533   5.364   5.864
 8336SOL    HW225055   4.582   5.463   5.984
 8337SOL     OW25056   3.946   6.223   0.135
 8337SOL    HW125057   3.850   6.209   0.161
 8337SOL    HW225058   3.958   6.203   0.038
 8338SOL     OW25059   3.946   5.868   0.994
 8338SOL    HW125060   3.979   5.834   1.082
 8338SOL    HW225061   3.853   5.836   0.978
 8339SOL     OW25062   3.725   5.973   0.637
 8339SOL    HW125063   3.643   6.007   0.683
 8339SOL    HW225064   3.704   5.887   0.591
 8340SOL     OW25065   4.292   6.871   1.173
 8340SOL    HW125066   4.216   6.874   1.109
 8340SOL    HW225067   4.268   6.919   1.257
 8341SOL     OW25068   5.263   0.056   0.687
 8341SOL    HW125069   5.242   0.053   0.785
 8341SOL    HW225070   5.183   0.089   0.637
 8342SOL     OW25071   4.854   6.286   0.696
 8342SOL    HW125072   4.908   6.369   0.681
 8342SOL    HW225073   4.804   6.293   0.782
 8343SOL     OW25074   5.504   6.172   0.207
 8343SOL    HW125075   5.438   6.208   0.141
 8343SOL    HW225076   5.459   6.103   0.265
 8344SOL     OW25077   4.487   6.746   1.025
 8344SOL    HW125078   4.419   6.783   1.088
 8344SOL    HW225079   4.489   6.800   0.942
 8345SOL     OW25080   4.599   6.352   1.822
 8345SOL    HW125081   4.583   6.419   1.895
 8345SOL    HW225082   4.623   6.400   1.737
 8346SOL     OW25083   4.408   6.582   0.650
 8346SOL    HW125084   4.479   6.572   0.720
 8346SOL    HW225085   4.334   6.638   0.687
 8347SOL     OW25086   4.415   6.734   1.815
 8347SOL    HW125087   4.454   6.825   1.832
 8347SOL    HW225088   4.334   6.743   1.757
 8348SOL     OW25089   4.060   0.007   1.058
 8348SOL    HW125090   3.981   6.961   1.018
 8348SOL    HW225091   4.108   0.059   0.988
 8349SOL     OW25092   4.174   5.980   1.480
 8349SOL    HW125093   4.255   5.922   1.487
 8349SOL    HW225094   4.092   5.926   1.498
 8350SOL     OW25095   5.337   6.035   0.747
 8350SOL    HW125096   5.263   6.056   0.683
 8350SOL    HW225097   5.347   6.110   0.812
 8351SOL     OW25098   3.983   6.675   0.903
 8351SOL    HW125099   3.981   6.581   0.935
 8351SOL    HW225100   3.922   6.731   0.959
 8352SOL     OW25101   4.313   6.549   0.140
 8352SOL    HW125102   4.377   6.565   0.064
 8352SOL    HW225103   4.349   6.592   0.223
 8353SOL     OW25104   5.320   5.711   1.469
 8353SOL    HW125105   5.339   5.790   1.412
 8353SOL    HW225106   5.306   5.740   1.564
 8354SOL     OW25107   3.838   6.240   0.562
 8354SOL    HW125108   3.808   6.147   0.582
 8354SOL    HW225109   3.832   6.295   0.646
 8355SOL     OW25110   5.415   6.494   0.650
 8355SOL    HW125111   5.503   6.448   0.639
 8355SOL    HW225112   5.396   6.550   0.570
 8356SOL     OW25113   5.383   6.673   0.445
 8356SOL    HW125114   5.447   6.697   0.371
 8356SOL    HW225115   5.394   6.738   0.520
 8357SOL     OW25116   3.850   6.331   1.585
 8357SOL    HW125117   3.947   6.353   1.586
 8357SOL    HW225118   3.796   6.415   1.595
 8358SOL     OW25119   5.038   6.818   1.431
 8358SOL    HW125120   5.062   6.747   1.364
 8358SOL    HW225121   5.097   6.809   1.511
 8359SOL     OW25122   4.542   5.598   0.514
 8359SOL    HW125123   4.588   5.684   0.490
 8359SOL    HW225124   4.444   5.614   0.522
 8360SOL     OW25125   3.916   6.551   1.274
 8360SOL    HW125126   4.003   6.504   1.260
 8360SOL    HW225127   3.843   6.502   1.226
 8361SOL     OW25128   5.228   6.591   0.209
 8361SOL    HW125129   5.157   6.527   0.239
 8361SOL    HW225130   5.303   6.591   0.275
 8362SOL     OW25131   4.064   5.835   1.829
 8362SOL    HW125132   4.113   5.921   1.845
 8362SOL    HW225133   3.967   5.848   1.850
 8363SOL     OW25134   5.182   6.989   0.947
 8363SOL    HW125135   5.114   0.016   1.016
 8363SOL    HW225136   5.165   6.895   0.918
 8364SOL     OW25137   4.324   6.302   0.267
 8364SOL    HW125138   4.329   6.391   0.222
 8364SOL    HW225139   4.259   6.306   0.343
 8365SOL     OW25140   5.001   5.942   0.932
 8365SOL    HW125141   4.907   5.909   0.940
 8365SOL    HW225142   5.061   5.891   0.994
 8366SOL     OW25143   4.514   6.198   1.450
 8366SOL    HW125144   4.489   6.174   1.544
 8366SOL    HW225145   4.476   6.130   1.387
 8367SOL     OW25146   5.116   6.056   1.680
 8367SOL    HW125147   5.116   6.105   1.767
 8367SOL    HW225148   5.177   5.977   1.686
 8368SOL     OW25149   4.680   6.474   1.583
 8368SOL    HW125150   4.738   6.401   1.548
 8368SOL    HW225151   4.625   6.511   1.509
 8369SOL     OW25152   4.718   5.993   1.230
 8369SOL    HW125153   4.628   6.015   1.269
 8369SOL    HW225154   4.705   5.943   1.145
 8370SOL     OW25155   4.775   6.288   0.428
 8370SOL    HW125156   4.797   6.284   0.526
 8370SOL    HW225157   4.689   6.239   0.412
 8371SOL     OW25158   3.812   6.411   0.777
 8371SOL    HW125159   3.898   6.399   0.828
 8371SOL    HW225160   3.762   6.489   0.815
 8372SOL     OW25161   4.610   5.927   0.208
 8372SOL    HW125162   4.656   5.989   0.145
 8372SOL    HW225163   4.628   5.832   0.181
 8373SOL     OW25164   5.426   6.159   1.825
 8373SOL    HW125165   5.390   6.237   1.775
 8373SOL    HW225166   5.456   6.089   1.760
 8374SOL     OW25167   5.114   6.722   0.557
 8374SOL    HW125168   5.206   6.714   0.518
 8374SOL    HW225169   5.076   6.812   0.534
 8375SOL     OW25170   4.271   5.761   0.900
 8375SOL    HW125171   4.275   5.790   0.995
 8375SOL    HW225172   4.274   5.841   0.840
 8376SOL     OW25173   5.523   6.639   0.877
 8376SOL    HW125174   5.472   6.626   0.792
 8376SOL    HW225175   5.460   6.647   0.954
 8377SOL     OW25176   4.051   6.536   0.246
 8377SOL    HW125177   4.136   6.552   0.197
 8377SOL    HW225178   4.014   6.447   0.221
 8378SOL     OW25179   5.207   6.329   0.724
 8378SOL    HW125180   5.203   6.289   0.815
 8378SOL    HW225181   5.287   6.390   0.719
 8379SOL     OW25182   3.926   5.862   1.503
 8379SOL    HW125183   3.844   5.919   1.498
 8379SOL    HW225184   3.905   5.776   1.549
 8380SOL     OW25185   5.370   0.027   0.079
 8380SOL    HW125186   5.347   0.123   0.095
 8380SOL    HW225187   5.287   6.972   0.081
 8381SOL     OW25188   4.121   6.273   0.470
 8381SOL    HW125189   4.140   6.177   0.488
 8381SOL    HW225190   4.025   6.292   0.488
 8382SOL     OW25191   5.253   5.809   1.728
 8382SOL    HW125192   5.264   5.830   1.825
 8382SOL    HW225193   5.181   5.740   1.717
 8383SOL     OW25194   4.488   5.863   1.757
 8383SOL    HW125195   4.571   5.809   1.751
 8383SOL    HW225196   4.436   5.835   1.838
 8384SOL     OW25197   5.064   6.174   1.436
 8384SOL    HW125198   5.094   6.139   1.524
 8384SOL    HW225199   5.100   6.266   1.422
 8385SOL     OW25200   4.651   6.092   0.900
 8385SOL    HW125201   4.625   6.085   0.803
 8385SOL    HW225202   4.684   6.003   0.932
 8386SOL     OW25203   4.273   5.658   0.504
 8386SOL    HW125204   4.190   5.654   0.559
 8386SOL    HW225205   4.269   5.736   0.442
 8387SOL     OW25206   5.142   6.797   0.038
 8387SOL    HW125207   5.194   6.725   0.086
 8387SOL    HW225208   5.057   6.758   0.002
 8388SOL     OW25209   4.672   5.835   0.462
 8388SOL    HW125210   4.639   5.875   0.376
 8388SOL    HW225211   4.771   5.850   0.469
 8389SOL     OW25212   4.804   6.269   1.457
 8389SOL    HW125213   4.728   6.203   1.462
 8389SOL    HW225214   4.891   6.219   1.452
 8390SOL     OW25215   4.992   0.147   0.742
 8390SOL    HW125216   4.961   0.231   0.698
 8390SOL    HW225217   5.005   0.163   0.840
 8391SOL     OW25218   4.190   6.717   0.737
 8391SOL    HW125219   4.119   6.707   0.806
 8391SOL    HW225220   4.149   6.715   0.646
 8392SOL     OW25221   4.790   6.176   0.030
 8392SOL    HW125222   4.692   6.189   0.048
 8392SOL    HW225223   4.837   6.155   0.116
 8393SOL     OW25224   3.809   6.144   1.391
 8393SOL    HW125225   3.904   6.139   1.359
 8393SOL    HW225226   3.801   6.215   1.460
 8394SOL     OW25227   4.282   5.810   1.171
 8394SOL    HW125228   4.332   5.733   1.213
 8394SOL    HW225229   4.187   5.808   1.201
 8395SOL     OW25230   4.590   6.043   0.639
 8395SOL    HW125231   4.546   6.106   0.575
 8395SOL    HW225232   4.617   5.960   0.590
 8396SOL     OW25233   4.742   5.635   0.743
 8396SOL    HW125234   4.678   5.636   0.666
 8396SOL    HW225235   4.718   5.562   0.806
 8397SOL     OW25236   5.164   6.733   0.862
 8397SOL    HW125237   5.087   6.668   0.861
 8397SOL    HW225238   5.195   6.748   0.768
 8398SOL     OW25239   5.192   6.192   0.972
 8398SOL    HW125240   5.131   6.113   0.972
 8398SOL    HW225241   5.253   6.187   1.051
 8399SOL     OW25242   5.561   6.395   0.386
 8399SOL    HW125243   5.617   6.336   0.444
 8399SOL    HW225244   5.546   6.350   0.298
 8400SOL     OW25245   5.402   6.832   0.654
 8400SOL    HW125246   5.500   6.845   0.670
 8400SOL    HW225247   5.354   6.919   0.670
 8401SOL     OW25248   5.115   6.141   0.069
 8401SOL    HW125249   5.054   6.138   0.148
 8401SOL    HW225250   5.178   6.064   0.072
 8402SOL     OW25251   4.239   5.851   0.313
 8402SOL    HW125252   4.251   5.784   0.240
 8402SOL    HW225253   4.216   5.940   0.274
 8403SOL     OW25254   5.478   6.814   1.567
 8403SOL    HW125255   5.563   6.764   1.588
 8403SOL    HW225256   5.494   6.912   1.579
 8404SOL     OW25257   4.800   6.895   1.327
 8404SOL    HW125258   4.720   6.879   1.386
 8404SOL    HW225259   4.883   6.878   1.379
 8405SOL     OW25260   4.859   6.760   1.102
 8405SOL    HW125261   4.827   6.810   1.182
 8405SOL    HW225262   4.805   6.788   1.022
 8406SOL     OW25263   5.348   6.682   1.082
 8406SOL    HW125264   5.336   6.738   1.164
 8406SOL    HW225265   5.271   6.698   1.020
 8407SOL     OW25266   4.647   5.681   1.392
 8407SOL    HW125267   4.668   5.658   1.297
 8407SOL    HW225268   4.726   5.724   1.434
 8408SOL     OW25269   4.692   6.696   1.738
 8408SOL    HW125270   4.595   6.710   1.754
 8408SOL    HW225271   4.705   6.622   1.672
 8409SOL     OW25272   4.431   6.632   0.373
 8409SOL    HW125273   4.417   6.623   0.471
 8409SOL    HW225274   4.513   6.582   0.346
 8410SOL     OW25275   4.145   6.400   1.254
 8410SOL    HW125276   4.217   6.413   1.322
 8410SOL    HW225277   4.106   6.309   1.265
 8411SOL     OW25278   4.986   5.962   1.280
 8411SOL    HW125279   5.023   6.041   1.329
 8411SOL    HW225280   4.891   5.980   1.255
 8412SOL     OW25281   4.075   6.700   0.489
 8412SOL    HW125282   4.116   6.778   0.442
 8412SOL    HW225283   4.080   6.619   0.431
 8413SOL     OW25284   4.273   6.129   0.861
 8413SOL    HW125285   4.288   6.189   0.782
 8413SOL    HW225286   4.341   6.150   0.931
 8414SOL     OW25287   5.309   6.211   0.481
 8414SOL    HW125288   5.254   6.255   0.552
 8414SOL    HW225289   5.363   6.280   0.433
 8415SOL     OW25290   4.140   6.330   1.601
 8415SOL    HW125291   4.206   6.375   1.541
 8415SOL    HW225292   4.173   6.238   1.624
 8416SOL     OW25293   5.331   6.370   1.684
 8416SOL    HW125294   5.239   6.410   1.681
 8416SOL    HW225295   5.387   6.411   1.613
 8417SOL     OW25296   4.721   5.719   1.750
 8417SOL    HW125297   4.779   5.798   1.734
 8417SOL    HW225298   4.770   5.636   1.724
 8418SOL     OW25299   4.217   5.623   1.750
 8418SOL    HW125300   4.172   5.564   1.682
 8418SOL    HW225301   4.159   5.703   1.768
 8419SOL     OW25302   4.306   6.453   1.035
 8419SOL    HW125303   4.334   6.548   1.025
 8419SOL    HW225304   4.246   6.444   1.114
 8420SOL     OW25305   5.082   6.440   1.027
 8420SOL    HW125306   4.991   6.438   0.985
 8420SOL    HW225307   5.125   6.351   1.015
 8421SOL     OW25308   4.918   6.113   0.272
 8421SOL    HW125309   4.933   6.033   0.330
 8421SOL    HW225310   4.879   6.187   0.326
 8422SOL     OW25311   4.021   5.783   1.246
 8422SOL    HW125312   3.985   5.819   1.332
 8422SOL    HW225313   4.006   5.684   1.243
 8423SOL     OW25314   3.784   6.898   1.282
 8423SOL    HW125315   3.817   6.841   1.358
 8423SOL    HW225316   3.785   6.994   1.310
 8424SOL     OW25317   4.449   6.215   1.056
 8424SOL    HW125318   4.526   6.196   0.995
 8424SOL    HW225319   4.413   6.307   1.037
 8425SOL     OW25320   5.458   6.547   1.853
 8425SOL    HW125321   5.415   6.477   1.796
 8425SOL    HW225322   5.402   6.563   1.934
 8426SOL     OW25323   4.029   5.651   0.629
 8426SOL    HW125324   4.005   5.746   0.649
 8426SOL    HW225325   4.040   5.601   0.715
 8427SOL     OW25326   5.351   5.962   0.375
 8427SOL    HW125327   5.375   5.892   0.442
 8427SOL    HW225328   5.328   6.047   0.422
 8428SOL     OW25329   4.748   6.339   0.959
 8428SOL    HW125330   4.744   6.362   1.056
 8428SOL    HW225331   4.721   6.244   0.946
 8429SOL     OW25332   5.579   0.066   1.600
 8429SOL    HW125333   5.614   0.141   1.545
 8429SOL    HW225334   5.634   0.056   1.683
 8430SOL     OW25335   4.079   6.507   1.801
 8430SOL    HW125336   4.155   6.518   1.866
 8430SOL    HW225337   4.103   6.439   1.732
 8431SOL     OW25338   5.211   5.879   0.153
 8431SOL    HW125339   5.172   5.788   0.167
 8431SOL    HW225340   5.269   5.903   0.231
 8432SOL     OW25341   5.017   6.411   0.030
 8432SOL    HW125342   5.061   6.321   0.024
 8432SOL    HW225343   5.048   6.469   6.955
 8433SOL     OW25344   4.034   6.391   0.942
 8433SOL    HW125345   4.130   6.417   0.936
 8433SOL    HW225346   4.027   6.298   0.976
 8434SOL     OW25347   4.052   6.113   1.011
 8434SOL    HW125348   4.013   6.021   1.000
 8434SOL    HW225349   4.133   6.122   0.953
 8435SOL     OW25350   4.858   5.959   1.691
 8435SOL    HW125351   4.805   6.016   1.754
 8435SOL    HW225352   4.950   5.996   1.683
 8436SOL     OW25353   4.885   5.790   1.475
 8436SOL    HW125354   4.871   5.852   1.552
 8436SOL    HW225355   4.928   5.839   1.399
 8437SOL     OW25356   4.700   6.378   1.225
 8437SOL    HW125357   4.760   6.355   1.301
 8437SOL    HW225358   4.611   6.334   1.238
 8438SOL     OW25359   3.761   6.137   1.117
 8438SOL    HW125360   3.843   6.124   1.062
 8438SOL    HW225361   3.786   6.140   1.214
 8439SOL     OW25362   3.916   6.108   1.730
 8439SOL    HW125363   3.968   6.055   1.664
 8439SOL    HW225364   3.876   6.188   1.684
 8440SOL     OW25365   5.104   6.523   1.655
 8440SOL    HW125366   5.133   6.619   1.654
 8440SOL    HW225367   5.100   6.489   1.561
 8441SOL     OW25368   4.542   6.155   0.370
 8441SOL    HW125369   4.550   6.076   0.309
 8441SOL    HW225370   4.465   6.211   0.342
 8442SOL     OW25371   5.367   6.188   1.182
 8442SOL    HW125372   5.351   6.129   1.261
 8442SOL    HW225373   5.458   6.171   1.145
 8443SOL     OW25374   4.430   6.033   1.254
 8443SOL    HW125375   4.373   5.955   1.229
 8443SOL    HW225376   4.428   6.101   1.180
 8444SOL     OW25377   4.180   6.084   0.189
 8444SOL    HW125378   4.244   6.157   0.214
 8444SOL    HW225379   4.087   6.122   0.185
 8445SOL     OW25380   3.890   6.728   1.476
 8445SOL    HW125381   3.880   6.679   1.563
 8445SOL    HW225382   3.902   6.662   1.402
 8446SOL     OW25383   5.053   6.624   1.224
 8446SOL    HW125384   5.083   6.556   1.156
 8446SOL    HW225385   4.980   6.679   1.185
 8447SOL     OW25386   5.026   6.433   0.304
 8447SOL    HW125387   4.946   6.406   0.358
 8447SOL    HW225388   5.009   6.415   0.207
 8448SOL     OW25389   3.807   6.858   1.014
 8448SOL    HW125390   3.792   6.868   1.113
 8448SOL    HW225391   3.736   6.799   0.975
 8449SOL     OW25392   4.662   5.663   0.113
 8449SOL    HW125393   4.733   5.717   0.067
 8449SOL    HW225394   4.705   5.604   0.182
 8450SOL     OW25395   5.451   5.746   0.528
 8450SOL    HW125396   5.522   5.737   0.457
 8450SOL    HW225397   5.424   5.654   0.558
 8451SOL     OW25398   5.005   6.506   0.671
 8451SOL    HW125399   5.080   6.441   0.686
 8451SOL    HW225400   5.039   6.584   0.619
 8452SOL     OW25401   4.540   6.844   1.420
 8452SOL    HW125402   4.515   6.886   1.507
 8452SOL    HW225403   4.467   6.859   1.353
 8453SOL     OW25404   5.566   5.756   0.963
 8453SOL    HW125405   5.600   5.665   0.941
 8453SOL    HW225406   5.475   5.767   0.923
 8454SOL     OW25407   3.980   5.903   0.716
 8454SOL    HW125408   3.891   5.939   0.688
 8454SOL    HW225409   3.983   5.894   0.816
 8455SOL     OW25410   4.550   6.582   1.370
 8455SOL    HW125411   4.608   6.560   1.291
 8455SOL    HW225412   4.554   6.680   1.388
 8456SOL     OW25413   4.648   6.500   0.290
 8456SOL    HW125414   4.708   6.536   0.219
 8456SOL    HW225415   4.697   6.429   0.341
 8457SOL     OW25416   4.116   6.892   1.501
 8457SOL    HW125417   4.082   6.982   1.475
 8457SOL    HW225418   4.040   6.827   1.503
 8458SOL     OW25419   5.329   6.846   1.313
 8458SOL    HW125420   5.404   6.835   1.377
 8458SOL    HW225421   5.260   6.908   1.352
 8459SOL     OW25422   4.782   6.696   0.727
 8459SOL    HW125423   4.704   6.645   0.762
 8459SOL    HW225424   4.849   6.633   0.687
 8460SOL     OW25425   4.746   5.824   0.966
 8460SOL    HW125426   4.742   5.780   0.877
 8460SOL    HW225427   4.744   5.755   1.038
 8461SOL     OW25428   5.455   5.980   1.380
 8461SOL    HW125429   5.527   6.049   1.381
 8461SOL    HW225430   5.480   5.905   1.320
 8462SOL     OW25431   3.833   6.608   1.716
 8462SOL    HW125432   3.753   6.587   1.773
 8462SOL    HW225433   3.916   6.574   1.760
 8463SOL     OW25434   4.407   5.780   1.500
 8463SOL    HW125435   4.493   5.756   1.455
 8463SOL    HW225436   4.425   5.814   1.592
 8464SOL     OW25437   3.825   5.913   0.017
 8464SOL    HW125438   3.766   5.856   6.961
 8464SOL    HW225439   3.862   5.988   6.961
 8465SOL     OW25440   5.151   6.439   1.399
 8465SOL    HW125441   5.097   6.503   1.344
 8465SOL    HW225442   5.245   6.439   1.367
 8466SOL     OW25443   3.774   5.760   0.328
 8466SOL    HW125444   3.760   5.851   0.290
 8466SOL    HW225445   3.850   5.715   0.281
 8467SOL     OW25446   4.346   6.414   1.434
 8467SOL    HW125447   4.405   6.492   1.414
 8467SOL    HW225448   4.402   6.332   1.444
 8468SOL     OW25449   4.446   6.145   1.703
 8468SOL    HW125450   4.491   6.211   1.763
 8468SOL    HW225451   4.466   6.052   1.736
 8469SOL     OW25452   5.209   6.779   1.646
 8469SOL    HW125453   5.195   6.798   1.743
 8469SOL    HW225454   5.305   6.793   1.622
 8470SOL     OW25455   5.392   6.462   1.254
 8470SOL    HW125456   5.385   6.371   1.213
 8470SOL    HW225457   5.379   6.531   1.183
 8471SOL     OW25458   4.945   5.903   0.457
 8471SOL    HW125459   5.026   5.850   0.428
 8471SOL    HW225460   4.967   5.955   0.539
 8472SOL     OW25461   4.311   6.322   0.666
 8472SOL    HW125462   4.352   6.413   0.659
 8472SOL    HW225463   4.240   6.311   0.596
 8473SOL     OW25464   5.476   5.951   1.652
 8473SOL    HW125465   5.466   5.967   1.554
 8473SOL    HW225466   5.402   5.891   1.684
 8474SOL     OW25467   5.468   6.519   1.507
 8474SOL    HW125468   5.461   6.617   1.525
 8474SOL    HW225469   5.453   6.502   1.410
 8475SOL     OW25470   4.591   6.549   0.859
 8475SOL    HW125471   4.645   6.473   0.893
 8475SOL    HW225472   4.559   6.605   0.935
 8476SOL     OW25473   4.814   6.586   0.085
 8476SOL    HW125474   4.760   6.592   0.001
 8476SOL    HW225475   4.891   6.524   0.070
 8477SOL     OW25476   3.936   6.906   1.813
 8477SOL    HW125477   3.877   6.826   1.824
 8477SOL    HW225478   3.949   6.951   1.902
 8478SOL     OW25479   3.814   6.822   0.674
 8478SOL    HW125480   3.833   6.760   0.750
 8478SOL    HW225481   3.874   6.798   0.597
 8479SOL     OW25482   4.429   6.970   1.632
 8479SOL    HW125483   4.332   6.959   1.651
 8479SOL    HW225484   4.449   0.066   1.613
 8480SOL     OW25485   5.529   5.769   1.234
 8480SOL    HW125486   5.544   5.673   1.258
 8480SOL    HW225487   5.541   5.780   1.135
 8481SOL     OW25488   4.155   6.015   0.528
 8481SOL    HW125489   4.186   5.944   0.465
 8481SOL    HW225490   4.100   5.974   0.601
 8482SOL     OW25491   5.370   0.044   1.137
 8482SOL    HW125492   5.323   0.028   1.050
 8482SOL    HW225493   5.365   6.961   1.193
 8483SOL     OW25494   4.058   6.141   1.289
 8483SOL    HW125495   4.115   6.085   1.349
 8483SOL    HW225496   4.074   6.115   1.194
 8484SOL     OW25497   5.155   5.817   1.117
 8484SOL    HW125498   5.178   5.727   1.155
 8484SOL    HW225499   5.100   5.868   1.184
 8485SOL     OW25500   4.734   5.602   1.138
 8485SOL    HW125501   4.670   5.538   1.095
 8485SOL    HW225502   4.825   5.562   1.140
 8486SOL     OW25503   4.529   6.878   0.289
 8486SOL    HW125504   4.488   6.791   0.312
 8486SOL    HW225505   4.541   6.933   0.372
 8487SOL     OW25506   5.077   5.639   0.184
 8487SOL    HW125507   5.117   5.582   0.113
 8487SOL    HW225508   4.991   5.600   0.215
 8488SOL     OW25509   5.009   6.046   0.679
 8488SOL    HW125510   4.960   6.132   0.682
 8488SOL    HW225511   5.011   6.005   0.770
 8489SOL     OW25512   5.309   5.789   0.883
 8489SOL    HW125513   5.252   5.810   0.962
 8489SOL    HW225514   5.313   5.869   0.823
 8490SOL     OW25515   3.801   6.644   0.319
 8490SOL    HW125516   3.900   6.627   0.319
 8490SOL    HW225517   3.753   6.561   0.345
 8491SOL     OW25518   3.947   6.206   1.988
 8491SOL    HW125519   3.855   6.206   2.029
 8491SOL    HW225520   3.939   6.182   1.891
 8492SOL     OW25521   3.947   5.868   2.856
 8492SOL    HW125522   3.979   5.834   2.945
 8492SOL    HW225523   3.853   5.836   2.840
 8493SOL     OW25524   3.725   5.972   2.496
 8493SOL    HW125525   3.641   6.002   2.541
 8493SOL    HW225526   3.707   5.888   2.445
 8494SOL     OW25527   4.293   6.871   3.035
 8494SOL    HW125528   4.216   6.873   2.971
 8494SOL    HW225529   4.267   6.920   3.118
 8495SOL     OW25530   5.265   0.056   2.552
 8495SOL    HW125531   5.243   0.051   2.649
 8495SOL    HW225532   5.186   0.090   2.501
 8496SOL     OW25533   4.855   6.287   2.557
 8496SOL    HW125534   4.908   6.370   2.541
 8496SOL    HW225535   4.805   6.295   2.644
 8497SOL     OW25536   5.494   6.184   2.084
 8497SOL    HW125537   5.470   6.180   1.987
 8497SOL    HW225538   5.455   6.105   2.132
 8498SOL     OW25539   4.489   6.747   2.888
 8498SOL    HW125540   4.420   6.784   2.951
 8498SOL    HW225541   4.488   6.801   2.803
 8499SOL     OW25542   4.599   6.352   3.684
 8499SOL    HW125543   4.583   6.419   3.756
 8499SOL    HW225544   4.623   6.400   3.599
 8500SOL     OW25545   4.410   6.584   2.510
 8500SOL    HW125546   4.480   6.573   2.581
 8500SOL    HW225547   4.335   6.639   2.546
 8501SOL     OW25548   4.415   6.734   3.677
 8501SOL    HW125549   4.453   6.825   3.694
 8501SOL    HW225550   4.334   6.743   3.619
 8502SOL     OW25551   4.060   0.007   2.921
 8502SOL    HW125552   3.981   6.961   2.880
 8502SOL    HW225553   4.108   0.060   2.850
 8503SOL     OW25554   4.174   5.981   3.342
 8503SOL    HW125555   4.255   5.922   3.349
 8503SOL    HW225556   4.092   5.926   3.360
 8504SOL     OW25557   5.336   6.033   2.606
 8504SOL    HW125558   5.259   6.052   2.544
 8504SOL    HW225559   5.346   6.108   2.670
 8505SOL     OW25560   3.983   6.676   2.764
 8505SOL    HW125561   3.981   6.581   2.797
 8505SOL    HW225562   3.922   6.731   2.821
 8506SOL     OW25563   4.304   6.565   2.004
 8506SOL    HW125564   4.349   6.616   1.930
 8506SOL    HW225565   4.344   6.591   2.092
 8507SOL     OW25566   5.320   5.710   3.331
 8507SOL    HW125567   5.338   5.790   3.274
 8507SOL    HW225568   5.306   5.740   3.426
 8508SOL     OW25569   3.839   6.244   2.427
 8508SOL    HW125570   3.809   6.151   2.444
 8508SOL    HW225571   3.832   6.298   2.511
 8509SOL     OW25572   5.413   6.503   2.506
 8509SOL    HW125573   5.501   6.458   2.492
 8509SOL    HW225574   5.390   6.558   2.426
 8510SOL     OW25575   5.376   6.692   2.288
 8510SOL    HW125576   5.465   6.686   2.243
 8510SOL    HW225577   5.383   6.751   2.368
 8511SOL     OW25578   3.850   6.331   3.447
 8511SOL    HW125579   3.947   6.353   3.448
 8511SOL    HW225580   3.796   6.415   3.456
 8512SOL     OW25581   5.038   6.818   3.293
 8512SOL    HW125582   5.062   6.747   3.226
 8512SOL    HW225583   5.097   6.809   3.373
 8513SOL     OW25584   4.541   5.595   2.369
 8513SOL    HW125585   4.587   5.681   2.348
 8513SOL    HW225586   4.442   5.610   2.378
 8514SOL     OW25587   3.916   6.551   3.136
 8514SOL    HW125588   4.003   6.504   3.122
 8514SOL    HW225589   3.843   6.502   3.087
 8515SOL     OW25590   5.259   6.587   2.063
 8515SOL    HW125591   5.186   6.526   2.092
 8515SOL    HW225592   5.307   6.622   2.144
 8516SOL     OW25593   4.064   5.835   3.691
 8516SOL    HW125594   4.113   5.921   3.707
 8516SOL    HW225595   3.967   5.848   3.712
 8517SOL     OW25596   5.182   6.989   2.809
 8517SOL    HW125597   5.114   0.014   2.878
 8517SOL    HW225598   5.165   6.895   2.779
 8518SOL     OW25599   4.319   6.303   2.135
 8518SOL    HW125600   4.324   6.388   2.083
 8518SOL    HW225601   4.250   6.312   2.208
 8519SOL     OW25602   5.001   5.943   2.795
 8519SOL    HW125603   4.908   5.909   2.802
 8519SOL    HW225604   5.060   5.891   2.857
 8520SOL     OW25605   4.514   6.198   3.312
 8520SOL    HW125606   4.489   6.174   3.406
 8520SOL    HW225607   4.476   6.130   3.249
 8521SOL     OW25608   5.115   6.056   3.542
 8521SOL    HW125609   5.116   6.105   3.629
 8521SOL    HW225610   5.177   5.977   3.547
 8522SOL     OW25611   4.680   6.474   3.445
 8522SOL    HW125612   4.738   6.400   3.410
 8522SOL    HW225613   4.625   6.511   3.371
 8523SOL     OW25614   4.718   5.993   3.092
 8523SOL    HW125615   4.628   6.015   3.131
 8523SOL    HW225616   4.706   5.944   3.006
 8524SOL     OW25617   4.774   6.285   2.287
 8524SOL    HW125618   4.795   6.281   2.384
 8524SOL    HW225619   4.688   6.237   2.269
 8525SOL     OW25620   3.811   6.413   2.641
 8525SOL    HW125621   3.896   6.401   2.691
 8525SOL    HW225622   3.760   6.490   2.679
 8526SOL     OW25623   4.620   5.938   2.058
 8526SOL    HW125624   4.660   6.005   1.996
 8526SOL    HW225625   4.630   5.846   2.019
 8527SOL     OW25626   5.426   6.159   3.687
 8527SOL    HW125627   5.390   6.237   3.637
 8527SOL    HW225628   5.456   6.089   3.622
 8528SOL     OW25629   5.110   6.722   2.408
 8528SOL    HW125630   5.191   6.715   2.349
 8528SOL    HW225631   5.057   6.803   2.383
 8529SOL     OW25632   4.271   5.760   2.762
 8529SOL    HW125633   4.275   5.790   2.857
 8529SOL    HW225634   4.274   5.840   2.702
 8530SOL     OW25635   5.522   6.639   2.738
 8530SOL    HW125636   5.470   6.629   2.653
 8530SOL    HW225637   5.459   6.646   2.815
 8531SOL     OW25638   4.047   6.545   2.119
 8531SOL    HW125639   4.135   6.562   2.075
 8531SOL    HW225640   4.008   6.460   2.084
 8532SOL     OW25641   5.208   6.332   2.586
 8532SOL    HW125642   5.203   6.289   2.676
 8532SOL    HW225643   5.287   6.393   2.582
 8533SOL     OW25644   3.926   5.863   3.365
 8533SOL    HW125645   3.844   5.919   3.360
 8533SOL    HW225646   3.905   5.777   3.411
 8534SOL     OW25647   5.364   6.969   1.946
 8534SOL    HW125648   5.330   0.061   1.964
 8534SOL    HW225649   5.286   6.907   1.933
 8535SOL     OW25650   5.125   5.690   2.297
 8535SOL    HW125651   5.113   5.665   2.201
 8535SOL    HW225652   5.223   5.700   2.317
 8536SOL     OW25653   4.119   6.274   2.337
 8536SOL    HW125654   4.139   6.177   2.350
 8536SOL    HW225655   4.023   6.291   2.355
 8537SOL     OW25656   5.253   5.809   3.590
 8537SOL    HW125657   5.264   5.830   3.687
 8537SOL    HW225658   5.181   5.741   3.578
 8538SOL     OW25659   4.364   5.704   1.964
 8538SOL    HW125660   4.433   5.635   1.986
 8538SOL    HW225661   4.308   5.672   1.887
 8539SOL     OW25662   4.488   5.863   3.619
 8539SOL    HW125663   4.572   5.809   3.613
 8539SOL    HW225664   4.436   5.835   3.700
 8540SOL     OW25665   5.064   6.174   3.297
 8540SOL    HW125666   5.094   6.139   3.386
 8540SOL    HW225667   5.100   6.266   3.284
 8541SOL     OW25668   4.651   6.092   2.760
 8541SOL    HW125669   4.625   6.085   2.664
 8541SOL    HW225670   4.683   6.003   2.793
 8542SOL     OW25671   4.271   5.650   2.357
 8542SOL    HW125672   4.189   5.648   2.414
 8542SOL    HW225673   4.267   5.731   2.298
 8543SOL     OW25674   5.143   6.788   1.921
 8543SOL    HW125675   5.197   6.717   1.967
 8543SOL    HW225676   5.049   6.756   1.909
 8544SOL     OW25677   4.015   5.634   2.048
 8544SOL    HW125678   4.068   5.706   2.002
 8544SOL    HW225679   4.077   5.569   2.091
 8545SOL     OW25680   4.669   5.836   2.319
 8545SOL    HW125681   4.638   5.878   2.234
 8545SOL    HW225682   4.768   5.850   2.328
 8546SOL     OW25683   4.804   6.269   3.319
 8546SOL    HW125684   4.728   6.203   3.324
 8546SOL    HW225685   4.890   6.219   3.314
 8547SOL     OW25686   4.994   0.147   2.603
 8547SOL    HW125687   4.961   0.231   2.560
 8547SOL    HW225688   5.005   0.163   2.701
 8548SOL     OW25689   4.190   6.715   2.597
 8548SOL    HW125690   4.119   6.706   2.667
 8548SOL    HW225691   4.148   6.712   2.506
 8549SOL     OW25692   4.745   6.123   1.891
 8549SOL    HW125693   4.700   6.209   1.867
 8549SOL    HW225694   4.814   6.139   1.961
 8550SOL     OW25695   3.810   6.144   3.253
 8550SOL    HW125696   3.904   6.139   3.221
 8550SOL    HW225697   3.802   6.215   3.322
 8551SOL     OW25698   4.282   5.810   3.033
 8551SOL    HW125699   4.332   5.733   3.075
 8551SOL    HW225700   4.187   5.808   3.063
 8552SOL     OW25701   4.589   6.044   2.499
 8552SOL    HW125702   4.542   6.106   2.437
 8552SOL    HW225703   4.617   5.962   2.449
 8553SOL     OW25704   4.741   5.639   2.608
 8553SOL    HW125705   4.680   5.638   2.529
 8553SOL    HW225706   4.716   5.562   2.669
 8554SOL     OW25707   5.164   6.734   2.720
 8554SOL    HW125708   5.088   6.669   2.721
 8554SOL    HW225709   5.194   6.748   2.625
 8555SOL     OW25710   5.192   6.192   2.833
 8555SOL    HW125711   5.131   6.113   2.833
 8555SOL    HW225712   5.253   6.186   2.912
 8556SOL     OW25713   5.567   6.392   2.242
 8556SOL    HW125714   5.625   6.344   2.309
 8556SOL    HW225715   5.538   6.327   2.171
 8557SOL     OW25716   5.403   6.832   2.510
 8557SOL    HW125717   5.501   6.843   2.527
 8557SOL    HW225718   5.356   6.918   2.531
 8558SOL     OW25719   5.114   6.160   1.933
 8558SOL    HW125720   5.052   6.138   2.008
 8558SOL    HW225721   5.207   6.133   1.959
 8559SOL     OW25722   4.252   5.850   2.172
 8559SOL    HW125723   4.299   5.798   2.102
 8559SOL    HW225724   4.223   5.938   2.135
 8560SOL     OW25725   5.478   6.814   3.430
 8560SOL    HW125726   5.563   6.764   3.450
 8560SOL    HW225727   5.494   6.912   3.441
 8561SOL     OW25728   4.800   6.895   3.189
 8561SOL    HW125729   4.720   6.879   3.247
 8561SOL    HW225730   4.883   6.878   3.241
 8562SOL     OW25731   4.860   6.762   2.963
 8562SOL    HW125732   4.827   6.811   3.044
 8562SOL    HW225733   4.804   6.786   2.884
 8563SOL     OW25734   5.347   6.682   2.944
 8563SOL    HW125735   5.336   6.738   3.026
 8563SOL    HW225736   5.271   6.698   2.882
 8564SOL     OW25737   4.647   5.681   3.254
 8564SOL    HW125738   4.668   5.658   3.159
 8564SOL    HW225739   4.726   5.724   3.296
 8565SOL     OW25740   4.692   6.696   3.600
 8565SOL    HW125741   4.595   6.710   3.616
 8565SOL    HW225742   4.705   6.622   3.534
 8566SOL     OW25743   4.432   6.638   2.231
 8566SOL    HW125744   4.418   6.629   2.329
 8566SOL    HW225745   4.514   6.587   2.204
 8567SOL     OW25746   4.145   6.400   3.116
 8567SOL    HW125747   4.217   6.413   3.184
 8567SOL    HW225748   4.106   6.309   3.127
 8568SOL     OW25749   4.987   5.962   3.142
 8568SOL    HW125750   5.023   6.041   3.190
 8568SOL    HW225751   4.891   5.980   3.116
 8569SOL     OW25752   4.066   6.702   2.353
 8569SOL    HW125753   4.106   6.782   2.308
 8569SOL    HW225754   4.060   6.626   2.289
 8570SOL     OW25755   4.273   6.130   2.724
 8570SOL    HW125756   4.287   6.189   2.645
 8570SOL    HW225757   4.342   6.150   2.793
 8571SOL     OW25758   5.301   6.208   2.343
 8571SOL    HW125759   5.252   6.255   2.416
 8571SOL    HW225760   5.353   6.274   2.289
 8572SOL     OW25761   4.140   6.330   3.463
 8572SOL    HW125762   4.205   6.375   3.403
 8572SOL    HW225763   4.173   6.238   3.485
 8573SOL     OW25764   5.331   6.370   3.546
 8573SOL    HW125765   5.239   6.410   3.543
 8573SOL    HW225766   5.387   6.411   3.474
 8574SOL     OW25767   4.721   5.719   3.612
 8574SOL    HW125768   4.779   5.798   3.596
 8574SOL    HW225769   4.770   5.636   3.586
 8575SOL     OW25770   4.216   5.623   3.612
 8575SOL    HW125771   4.172   5.564   3.544
 8575SOL    HW225772   4.159   5.702   3.630
 8576SOL     OW25773   4.307   6.452   2.898
 8576SOL    HW125774   4.333   6.548   2.886
 8576SOL    HW225775   4.246   6.443   2.976
 8577SOL     OW25776   5.082   6.440   2.889
 8577SOL    HW125777   4.990   6.438   2.848
 8577SOL    HW225778   5.126   6.351   2.877
 8578SOL     OW25779   4.922   6.113   2.127
 8578SOL    HW125780   4.935   6.030   2.181
 8578SOL    HW225781   4.877   6.183   2.182
 8579SOL     OW25782   4.021   5.783   3.109
 8579SOL    HW125783   3.985   5.819   3.194
 8579SOL    HW225784   4.005   5.684   3.105
 8580SOL     OW25785   3.783   6.898   3.145
 8580SOL    HW125786   3.817   6.841   3.220
 8580SOL    HW225787   3.786   6.994   3.172
 8581SOL     OW25788   4.450   6.216   2.918
 8581SOL    HW125789   4.526   6.196   2.856
 8581SOL    HW225790   4.414   6.307   2.899
 8582SOL     OW25791   5.458   6.547   3.715
 8582SOL    HW125792   5.415   6.477   3.658
 8582SOL    HW225793   5.402   6.563   3.796
 8583SOL     OW25794   4.030   5.647   2.490
 8583SOL    HW125795   4.006   5.743   2.508
 8583SOL    HW225796   4.041   5.598   2.576
 8584SOL     OW25797   5.350   5.966   2.225
 8584SOL    HW125798   5.376   5.893   2.288
 8584SOL    HW225799   5.322   6.047   2.277
 8585SOL     OW25800   4.748   6.340   2.820
 8585SOL    HW125801   4.744   6.362   2.918
 8585SOL    HW225802   4.721   6.244   2.807
 8586SOL     OW25803   5.579   0.066   3.463
 8586SOL    HW125804   5.614   0.141   3.407
 8586SOL    HW225805   5.635   0.056   3.545
 8587SOL     OW25806   4.079   6.507   3.663
 8587SOL    HW125807   4.155   6.518   3.728
 8587SOL    HW225808   4.103   6.439   3.594
 8588SOL     OW25809   5.251   5.855   1.992
 8588SOL    HW125810   5.182   5.787   2.017
 8588SOL    HW225811   5.288   5.897   2.075
 8589SOL     OW25812   5.012   6.410   1.886
 8589SOL    HW125813   5.054   6.320   1.896
 8589SOL    HW225814   5.044   6.451   1.800
 8590SOL     OW25815   4.034   6.392   2.804
 8590SOL    HW125816   4.130   6.417   2.795
 8590SOL    HW225817   4.026   6.298   2.838
 8591SOL     OW25818   4.052   6.113   2.874
 8591SOL    HW125819   4.013   6.021   2.862
 8591SOL    HW225820   4.132   6.123   2.815
 8592SOL     OW25821   4.858   5.959   3.554
 8592SOL    HW125822   4.805   6.016   3.616
 8592SOL    HW225823   4.950   5.996   3.545
 8593SOL     OW25824   4.886   5.790   3.337
 8593SOL    HW125825   4.871   5.852   3.414
 8593SOL    HW225826   4.928   5.839   3.261
 8594SOL     OW25827   3.746   6.895   2.044
 8594SOL    HW125828   3.658   6.923   2.006
 8594SOL    HW225829   3.736   6.807   2.090
 8595SOL     OW25830   4.700   6.378   3.087
 8595SOL    HW125831   4.760   6.354   3.163
 8595SOL    HW225832   4.611   6.333   3.099
 8596SOL     OW25833   3.761   6.137   2.979
 8596SOL    HW125834   3.843   6.124   2.924
 8596SOL    HW225835   3.786   6.140   3.076
 8597SOL     OW25836   3.916   6.108   3.592
 8597SOL    HW125837   3.968   6.055   3.526
 8597SOL    HW225838   3.876   6.188   3.546
 8598SOL     OW25839   5.103   6.523   3.517
 8598SOL    HW125840   5.133   6.619   3.516
 8598SOL    HW225841   5.100   6.489   3.423
 8599SOL     OW25842   4.542   6.158   2.222
 8599SOL    HW125843   4.551   6.078   2.162
 8599SOL    HW225844   4.463   6.213   2.193
 8600SOL     OW25845   5.367   6.188   3.044
 8600SOL    HW125846   5.350   6.128   3.122
 8600SOL    HW225847   5.458   6.171   3.007
 8601SOL     OW25848   4.430   6.033   3.116
 8601SOL    HW125849   4.373   5.955   3.091
 8601SOL    HW225850   4.428   6.101   3.043
 8602SOL     OW25851   4.183   6.081   2.047
 8602SOL    HW125852   4.248   6.153   2.073
 8602SOL    HW225853   4.092   6.121   2.034
 8603SOL     OW25854   3.891   6.728   3.338
 8603SOL    HW125855   3.880   6.679   3.425
 8603SOL    HW225856   3.902   6.662   3.264
 8604SOL     OW25857   5.054   6.624   3.086
 8604SOL    HW125858   5.083   6.556   3.018
 8604SOL    HW225859   4.980   6.680   3.047
 8605SOL     OW25860   5.040   6.447   2.159
 8605SOL    HW125861   4.967   6.416   2.221
 8605SOL    HW225862   5.012   6.430   2.064
 8606SOL     OW25863   3.807   6.858   2.876
 8606SOL    HW125864   3.792   6.867   2.975
 8606SOL    HW225865   3.736   6.799   2.837
 8607SOL     OW25866   5.443   5.735   2.361
 8607SOL    HW125867   5.519   5.725   2.297
 8607SOL    HW225868   5.426   5.647   2.407
 8608SOL     OW25869   5.006   6.508   2.531
 8608SOL    HW125870   5.080   6.443   2.547
 8608SOL    HW225871   5.041   6.586   2.479
 8609SOL     OW25872   4.541   6.844   3.281
 8609SOL    HW125873   4.515   6.886   3.368
 8609SOL    HW225874   4.468   6.859   3.215
 8610SOL     OW25875   5.566   5.756   2.826
 8610SOL    HW125876   5.600   5.665   2.803
 8610SOL    HW225877   5.475   5.768   2.786
 8611SOL     OW25878   3.980   5.900   2.578
 8611SOL    HW125879   3.892   5.937   2.550
 8611SOL    HW225880   3.983   5.892   2.677
 8612SOL     OW25881   4.971   0.211   1.872
 8612SOL    HW125882   4.974   0.146   1.947
 8612SOL    HW225883   4.879   0.213   1.833
 8613SOL     OW25884   4.550   6.582   3.232
 8613SOL    HW125885   4.607   6.559   3.154
 8613SOL    HW225886   4.554   6.680   3.250
 8614SOL     OW25887   4.644   6.495   2.142
 8614SOL    HW125888   4.710   6.536   2.079
 8614SOL    HW225889   4.690   6.425   2.198
 8615SOL     OW25890   4.116   6.892   3.364
 8615SOL    HW125891   4.082   6.982   3.336
 8615SOL    HW225892   4.040   6.827   3.366
 8616SOL     OW25893   5.329   6.846   3.175
 8616SOL    HW125894   5.404   6.835   3.239
 8616SOL    HW225895   5.260   6.907   3.214
 8617SOL     OW25896   4.785   6.695   2.587
 8617SOL    HW125897   4.705   6.645   2.622
 8617SOL    HW225898   4.851   6.629   2.550
 8618SOL     OW25899   4.746   5.825   2.829
 8618SOL    HW125900   4.742   5.781   2.739
 8618SOL    HW225901   4.744   5.755   2.901
 8619SOL     OW25902   5.455   5.980   3.243
 8619SOL    HW125903   5.527   6.049   3.243
 8619SOL    HW225904   5.480   5.905   3.182
 8620SOL     OW25905   3.833   6.608   3.578
 8620SOL    HW125906   3.753   6.587   3.635
 8620SOL    HW225907   3.916   6.574   3.622
 8621SOL     OW25908   4.407   5.780   3.362
 8621SOL    HW125909   4.493   5.756   3.317
 8621SOL    HW225910   4.425   5.814   3.454
 8622SOL     OW25911   3.805   5.915   1.892
 8622SOL    HW125912   3.713   5.891   1.861
 8622SOL    HW225913   3.837   5.996   1.842
 8623SOL     OW25914   5.151   6.439   3.261
 8623SOL    HW125915   5.097   6.503   3.206
 8623SOL    HW225916   5.245   6.439   3.228
 8624SOL     OW25917   3.788   5.741   2.165
 8624SOL    HW125918   3.771   5.826   2.115
 8624SOL    HW225919   3.876   5.703   2.138
 8625SOL     OW25920   4.346   6.414   3.296
 8625SOL    HW125921   4.405   6.492   3.276
 8625SOL    HW225922   4.402   6.331   3.306
 8626SOL     OW25923   4.446   6.145   3.565
 8626SOL    HW125924   4.491   6.211   3.625
 8626SOL    HW225925   4.466   6.052   3.598
 8627SOL     OW25926   5.209   6.779   3.508
 8627SOL    HW125927   5.195   6.798   3.605
 8627SOL    HW225928   5.305   6.793   3.484
 8628SOL     OW25929   5.392   6.462   3.116
 8628SOL    HW125930   5.385   6.371   3.075
 8628SOL    HW225931   5.379   6.531   3.045
 8629SOL     OW25932   4.943   5.903   2.321
 8629SOL    HW125933   5.007   5.826   2.311
 8629SOL    HW225934   4.970   5.958   2.401
 8630SOL     OW25935   4.310   6.323   2.531
 8630SOL    HW125936   4.352   6.414   2.521
 8630SOL    HW225937   4.241   6.310   2.460
 8631SOL     OW25938   5.476   5.951   3.514
 8631SOL    HW125939   5.466   5.967   3.416
 8631SOL    HW225940   5.402   5.891   3.546
 8632SOL     OW25941   5.469   6.519   3.369
 8632SOL    HW125942   5.461   6.617   3.387
 8632SOL    HW225943   5.453   6.502   3.272
 8633SOL     OW25944   4.591   6.551   2.720
 8633SOL    HW125945   4.645   6.473   2.754
 8633SOL    HW225946   4.560   6.606   2.798
 8634SOL     OW25947   4.816   6.586   1.952
 8634SOL    HW125948   4.776   6.633   1.874
 8634SOL    HW225949   4.883   6.519   1.921
 8635SOL     OW25950   3.936   6.906   3.675
 8635SOL    HW125951   3.877   6.826   3.686
 8635SOL    HW225952   3.948   6.950   3.764
 8636SOL     OW25953   3.814   6.820   2.536
 8636SOL    HW125954   3.834   6.758   2.612
 8636SOL    HW225955   3.878   6.802   2.461
 8637SOL     OW25956   4.429   6.970   3.494
 8637SOL    HW125957   4.332   6.958   3.512
 8637SOL    HW225958   4.449   0.066   3.475
 8638SOL     OW25959   5.529   5.769   3.096
 8638SOL    HW125960   5.544   5.673   3.120
 8638SOL    HW225961   5.542   5.781   2.998
 8639SOL     OW25962   4.154   6.014   2.389
 8639SOL    HW125963   4.188   5.944   2.326
 8639SOL    HW225964   4.100   5.971   2.461
 8640SOL     OW25965   5.370   0.043   2.999
 8640SOL    HW125966   5.322   0.027   2.912
 8640SOL    HW225967   5.366   6.961   3.055
 8641SOL     OW25968   4.058   6.141   3.151
 8641SOL    HW125969   4.115   6.085   3.211
 8641SOL    HW225970   4.074   6.116   3.056
 8642SOL     OW25971   5.155   5.816   2.979
 8642SOL    HW125972   5.178   5.727   3.017
 8642SOL    HW225973   5.100   5.867   3.046
 8643SOL     OW25974   4.734   5.602   3.000
 8643SOL    HW125975   4.670   5.539   2.957
 8643SOL    HW225976   4.825   5.562   3.002
 8644SOL     OW25977   4.483   6.908   2.130
 8644SOL    HW125978   4.461   6.812   2.149
 8644SOL    HW225979   4.521   6.951   2.212
 8645SOL     OW25980   5.078   5.637   2.031
 8645SOL    HW125981   5.120   5.569   1.970
 8645SOL    HW225982   4.985   5.607   2.054
 8646SOL     OW25983   5.015   6.049   2.542
 8646SOL    HW125984   4.962   6.134   2.545
 8646SOL    HW225985   5.013   6.007   2.633
 8647SOL     OW25986   5.310   5.790   2.745
 8647SOL    HW125987   5.252   5.809   2.824
 8647SOL    HW225988   5.312   5.870   2.685
 8648SOL     OW25989   3.760   6.647   2.172
 8648SOL    HW125990   3.858   6.653   2.151
 8648SOL    HW225991   3.737   6.552   2.195
 8649SOL     OW25992   3.947   6.206   3.850
 8649SOL    HW125993   3.855   6.206   3.891
 8649SOL    HW225994   3.940   6.182   3.753
 8650SOL     OW25995   3.947   5.868   4.718
 8650SOL    HW125996   3.979   5.834   4.807
 8650SOL    HW225997   3.853   5.836   4.702
 8651SOL     OW25998   3.725   5.972   4.358
 8651SOL    HW125999   3.641   6.002   4.403
 8651SOL    HW226000   3.707   5.888   4.307
 8652SOL     OW26001   4.293   6.871   4.897
 8652SOL    HW126002   4.216   6.873   4.833
 8652SOL    HW226003   4.267   6.919   4.981
 8653SOL     OW26004   5.265   0.056   4.414
 8653SOL    HW126005   5.243   0.051   4.511
 8653SOL    HW226006   5.186   0.090   4.363
 8654SOL     OW26007   4.855   6.287   4.419
 8654SOL    HW126008   4.908   6.370   4.403
 8654SOL    HW226009   4.805   6.295   4.506
 8655SOL     OW26010   5.494   6.184   3.946
 8655SOL    HW126011   5.470   6.180   3.849
 8655SOL    HW226012   5.455   6.105   3.994
 8656SOL     OW26013   4.489   6.747   4.750
 8656SOL    HW126014   4.420   6.784   4.813
 8656SOL    HW226015   4.488   6.801   4.665
 8657SOL     OW26016   4.599   6.352   5.546
 8657SOL    HW126017   4.583   6.419   5.619
 8657SOL    HW226018   4.623   6.400   5.461
 8658SOL     OW26019   4.410   6.584   4.372
 8658SOL    HW126020   4.480   6.573   4.443
 8658SOL    HW226021   4.335   6.639   4.408
 8659SOL     OW26022   4.415   6.734   5.539
 8659SOL    HW126023   4.454   6.825   5.557
 8659SOL    HW226024   4.334   6.743   5.481
 8660SOL     OW26025   4.060   0.007   4.783
 8660SOL    HW126026   3.981   6.961   4.742
 8660SOL    HW226027   4.108   0.060   4.712
 8661SOL     OW26028   4.174   5.981   5.204
 8661SOL    HW126029   4.255   5.922   5.211
 8661SOL    HW226030   4.092   5.926   5.222
 8662SOL     OW26031   5.336   6.033   4.468
 8662SOL    HW126032   5.259   6.052   4.406
 8662SOL    HW226033   5.346   6.108   4.532
 8663SOL     OW26034   3.983   6.676   4.626
 8663SOL    HW126035   3.981   6.581   4.659
 8663SOL    HW226036   3.922   6.731   4.683
 8664SOL     OW26037   4.304   6.565   3.866
 8664SOL    HW126038   4.349   6.616   3.792
 8664SOL    HW226039   4.344   6.591   3.954
 8665SOL     OW26040   5.320   5.710   5.194
 8665SOL    HW126041   5.338   5.790   5.136
 8665SOL    HW226042   5.306   5.740   5.288
 8666SOL     OW26043   3.839   6.244   4.289
 8666SOL    HW126044   3.809   6.151   4.306
 8666SOL    HW226045   3.832   6.298   4.373
 8667SOL     OW26046   5.413   6.503   4.368
 8667SOL    HW126047   5.501   6.458   4.353
 8667SOL    HW226048   5.390   6.558   4.288
 8668SOL     OW26049   5.376   6.692   4.150
 8668SOL    HW126050   5.465   6.686   4.105
 8668SOL    HW226051   5.383   6.751   4.230
 8669SOL     OW26052   3.850   6.331   5.309
 8669SOL    HW126053   3.947   6.353   5.310
 8669SOL    HW226054   3.796   6.415   5.318
 8670SOL     OW26055   5.038   6.818   5.155
 8670SOL    HW126056   5.062   6.747   5.088
 8670SOL    HW226057   5.097   6.809   5.235
 8671SOL     OW26058   4.541   5.594   4.232
 8671SOL    HW126059   4.587   5.681   4.210
 8671SOL    HW226060   4.442   5.610   4.240
 8672SOL     OW26061   3.916   6.551   4.998
 8672SOL    HW126062   4.003   6.504   4.984
 8672SOL    HW226063   3.843   6.502   4.949
 8673SOL     OW26064   5.259   6.587   3.925
 8673SOL    HW126065   5.186   6.526   3.954
 8673SOL    HW226066   5.307   6.622   4.006
 8674SOL     OW26067   4.064   5.835   5.553
 8674SOL    HW126068   4.113   5.921   5.569
 8674SOL    HW226069   3.967   5.848   5.574
 8675SOL     OW26070   5.182   6.989   4.671
 8675SOL    HW126071   5.114   0.014   4.740
 8675SOL    HW226072   5.165   6.895   4.641
 8676SOL     OW26073   4.319   6.303   3.997
 8676SOL    HW126074   4.324   6.388   3.945
 8676SOL    HW226075   4.250   6.313   4.070
 8677SOL     OW26076   5.002   5.943   4.657
 8677SOL    HW126077   4.908   5.909   4.664
 8677SOL    HW226078   5.060   5.891   4.719
 8678SOL     OW26079   4.514   6.198   5.174
 8678SOL    HW126080   4.489   6.174   5.268
 8678SOL    HW226081   4.476   6.130   5.111
 8679SOL     OW26082   5.115   6.056   5.404
 8679SOL    HW126083   5.116   6.105   5.491
 8679SOL    HW226084   5.177   5.977   5.410
 8680SOL     OW26085   4.680   6.474   5.307
 8680SOL    HW126086   4.738   6.400   5.272
 8680SOL    HW226087   4.625   6.511   5.233
 8681SOL     OW26088   4.718   5.993   4.954
 8681SOL    HW126089   4.628   6.015   4.993
 8681SOL    HW226090   4.706   5.944   4.868
 8682SOL     OW26091   4.774   6.285   4.149
 8682SOL    HW126092   4.795   6.280   4.246
 8682SOL    HW226093   4.688   6.237   4.131
 8683SOL     OW26094   3.811   6.413   4.503
 8683SOL    HW126095   3.896   6.401   4.553
 8683SOL    HW226096   3.760   6.490   4.541
 8684SOL     OW26097   4.620   5.938   3.920
 8684SOL    HW126098   4.659   6.005   3.858
 8684SOL    HW226099   4.630   5.846   3.881
 8685SOL     OW26100   5.426   6.159   5.549
 8685SOL    HW126101   5.390   6.237   5.499
 8685SOL    HW226102   5.456   6.089   5.484
 8686SOL     OW26103   5.110   6.722   4.270
 8686SOL    HW126104   5.191   6.715   4.211
 8686SOL    HW226105   5.057   6.803   4.245
 8687SOL     OW26106   4.271   5.760   4.624
 8687SOL    HW126107   4.275   5.790   4.719
 8687SOL    HW226108   4.274   5.840   4.564
 8688SOL     OW26109   5.522   6.639   4.600
 8688SOL    HW126110   5.470   6.629   4.515
 8688SOL    HW226111   5.459   6.646   4.677
 8689SOL     OW26112   4.047   6.545   3.981
 8689SOL    HW126113   4.135   6.562   3.937
 8689SOL    HW226114   4.008   6.460   3.946
 8690SOL     OW26115   5.208   6.332   4.447
 8690SOL    HW126116   5.203   6.289   4.538
 8690SOL    HW226117   5.287   6.393   4.444
 8691SOL     OW26118   3.926   5.863   5.227
 8691SOL    HW126119   3.844   5.919   5.222
 8691SOL    HW226120   3.905   5.777   5.273
 8692SOL     OW26121   5.364   6.969   3.808
 8692SOL    HW126122   5.330   0.061   3.826
 8692SOL    HW226123   5.286   6.907   3.795
 8693SOL     OW26124   5.125   5.690   4.159
 8693SOL    HW126125   5.113   5.665   4.064
 8693SOL    HW226126   5.223   5.700   4.179
 8694SOL     OW26127   4.119   6.274   4.199
 8694SOL    HW126128   4.139   6.177   4.213
 8694SOL    HW226129   4.023   6.291   4.217
 8695SOL     OW26130   5.253   5.809   5.452
 8695SOL    HW126131   5.264   5.830   5.549
 8695SOL    HW226132   5.181   5.741   5.441
 8696SOL     OW26133   4.364   5.704   3.826
 8696SOL    HW126134   4.433   5.635   3.848
 8696SOL    HW226135   4.308   5.672   3.749
 8697SOL     OW26136   4.488   5.863   5.481
 8697SOL    HW126137   4.571   5.809   5.475
 8697SOL    HW226138   4.436   5.835   5.562
 8698SOL     OW26139   5.064   6.174   5.159
 8698SOL    HW126140   5.094   6.139   5.248
 8698SOL    HW226141   5.100   6.266   5.146
 8699SOL     OW26142   4.651   6.092   4.622
 8699SOL    HW126143   4.625   6.085   4.526
 8699SOL    HW226144   4.683   6.003   4.655
 8700SOL     OW26145   4.271   5.650   4.219
 8700SOL    HW126146   4.189   5.648   4.276
 8700SOL    HW226147   4.268   5.731   4.160
 8701SOL     OW26148   5.143   6.788   3.783
 8701SOL    HW126149   5.197   6.717   3.829
 8701SOL    HW226150   5.049   6.756   3.771
 8702SOL     OW26151   4.015   5.634   3.910
 8702SOL    HW126152   4.068   5.706   3.864
 8702SOL    HW226153   4.077   5.569   3.953
 8703SOL     OW26154   4.670   5.836   4.181
 8703SOL    HW126155   4.638   5.878   4.096
 8703SOL    HW226156   4.768   5.850   4.190
 8704SOL     OW26157   4.804   6.269   5.181
 8704SOL    HW126158   4.728   6.203   5.186
 8704SOL    HW226159   4.890   6.219   5.176
 8705SOL     OW26160   4.994   0.147   4.465
 8705SOL    HW126161   4.960   0.231   4.422
 8705SOL    HW226162   5.005   0.163   4.563
 8706SOL     OW26163   4.190   6.715   4.459
 8706SOL    HW126164   4.119   6.706   4.529
 8706SOL    HW226165   4.149   6.712   4.368
 8707SOL     OW26166   4.745   6.123   3.753
 8707SOL    HW126167   4.700   6.209   3.729
 8707SOL    HW226168   4.814   6.139   3.823
 8708SOL     OW26169   3.810   6.144   5.115
 8708SOL    HW126170   3.904   6.139   5.083
 8708SOL    HW226171   3.802   6.215   5.184
 8709SOL     OW26172   4.282   5.810   4.895
 8709SOL    HW126173   4.332   5.733   4.937
 8709SOL    HW226174   4.187   5.808   4.925
 8710SOL     OW26175   4.589   6.044   4.361
 8710SOL    HW126176   4.542   6.106   4.299
 8710SOL    HW226177   4.617   5.962   4.311
 8711SOL     OW26178   4.741   5.639   4.470
 8711SOL    HW126179   4.680   5.639   4.391
 8711SOL    HW226180   4.716   5.562   4.531
 8712SOL     OW26181   5.164   6.734   4.582
 8712SOL    HW126182   5.088   6.669   4.583
 8712SOL    HW226183   5.194   6.748   4.487
 8713SOL     OW26184   5.192   6.192   4.695
 8713SOL    HW126185   5.131   6.113   4.695
 8713SOL    HW226186   5.253   6.186   4.774
 8714SOL     OW26187   5.567   6.392   4.104
 8714SOL    HW126188   5.625   6.344   4.170
 8714SOL    HW226189   5.538   6.327   4.033
 8715SOL     OW26190   5.403   6.832   4.372
 8715SOL    HW126191   5.501   6.843   4.389
 8715SOL    HW226192   5.356   6.918   4.393
 8716SOL     OW26193   5.114   6.160   3.795
 8716SOL    HW126194   5.052   6.138   3.870
 8716SOL    HW226195   5.207   6.133   3.821
 8717SOL     OW26196   4.252   5.850   4.035
 8717SOL    HW126197   4.299   5.797   3.964
 8717SOL    HW226198   4.224   5.938   3.997
 8718SOL     OW26199   5.478   6.813   5.291
 8718SOL    HW126200   5.563   6.764   5.311
 8718SOL    HW226201   5.494   6.912   5.303
 8719SOL     OW26202   4.800   6.895   5.051
 8719SOL    HW126203   4.720   6.879   5.110
 8719SOL    HW226204   4.883   6.878   5.103
 8720SOL     OW26205   4.860   6.762   4.825
 8720SOL    HW126206   4.827   6.811   4.906
 8720SOL    HW226207   4.804   6.786   4.746
 8721SOL     OW26208   5.347   6.682   4.806
 8721SOL    HW126209   5.336   6.738   4.888
 8721SOL    HW226210   5.271   6.698   4.744
 8722SOL     OW26211   4.647   5.680   5.116
 8722SOL    HW126212   4.668   5.658   5.021
 8722SOL    HW226213   4.726   5.724   5.159
 8723SOL     OW26214   4.692   6.697   5.461
 8723SOL    HW126215   4.595   6.710   5.478
 8723SOL    HW226216   4.705   6.622   5.396
 8724SOL     OW26217   4.432   6.638   4.093
 8724SOL    HW126218   4.418   6.629   4.191
 8724SOL    HW226219   4.514   6.587   4.066
 8725SOL     OW26220   4.145   6.400   4.978
 8725SOL    HW126221   4.217   6.413   5.046
 8725SOL    HW226222   4.106   6.309   4.989
 8726SOL     OW26223   4.987   5.962   5.004
 8726SOL    HW126224   5.023   6.041   5.053
 8726SOL    HW226225   4.891   5.980   4.979
 8727SOL     OW26226   4.066   6.702   4.215
 8727SOL    HW126227   4.106   6.782   4.170
 8727SOL    HW226228   4.060   6.626   4.151
 8728SOL     OW26229   4.273   6.130   4.586
 8728SOL    HW126230   4.287   6.189   4.507
 8728SOL    HW226231   4.342   6.150   4.655
 8729SOL     OW26232   5.301   6.208   4.205
 8729SOL    HW126233   5.252   6.255   4.278
 8729SOL    HW226234   5.352   6.274   4.151
 8730SOL     OW26235   4.140   6.330   5.325
 8730SOL    HW126236   4.205   6.375   5.265
 8730SOL    HW226237   4.173   6.238   5.347
 8731SOL     OW26238   5.331   6.370   5.408
 8731SOL    HW126239   5.239   6.410   5.405
 8731SOL    HW226240   5.387   6.411   5.336
 8732SOL     OW26241   4.721   5.719   5.474
 8732SOL    HW126242   4.779   5.798   5.458
 8732SOL    HW226243   4.770   5.636   5.448
 8733SOL     OW26244   4.217   5.623   5.474
 8733SOL    HW126245   4.172   5.564   5.406
 8733SOL    HW226246   4.159   5.702   5.492
 8734SOL     OW26247   4.307   6.452   4.760
 8734SOL    HW126248   4.333   6.548   4.748
 8734SOL    HW226249   4.246   6.443   4.838
 8735SOL     OW26250   5.082   6.440   4.751
 8735SOL    HW126251   4.990   6.438   4.710
 8735SOL    HW226252   5.126   6.351   4.739
 8736SOL     OW26253   4.922   6.113   3.989
 8736SOL    HW126254   4.935   6.030   4.043
 8736SOL    HW226255   4.877   6.183   4.045
 8737SOL     OW26256   4.021   5.783   4.971
 8737SOL    HW126257   3.985   5.819   5.056
 8737SOL    HW226258   4.005   5.684   4.967
 8738SOL     OW26259   3.783   6.898   5.007
 8738SOL    HW126260   3.817   6.841   5.082
 8738SOL    HW226261   3.786   6.994   5.034
 8739SOL     OW26262   4.450   6.216   4.780
 8739SOL    HW126263   4.526   6.196   4.718
 8739SOL    HW226264   4.414   6.307   4.761
 8740SOL     OW26265   5.458   6.547   5.577
 8740SOL    HW126266   5.415   6.477   5.520
 8740SOL    HW226267   5.402   6.563   5.658
 8741SOL     OW26268   4.029   5.647   4.352
 8741SOL    HW126269   4.006   5.743   4.370
 8741SOL    HW226270   4.041   5.598   4.438
 8742SOL     OW26271   5.350   5.966   4.087
 8742SOL    HW126272   5.376   5.893   4.150
 8742SOL    HW226273   5.322   6.047   4.139
 8743SOL     OW26274   4.748   6.340   4.682
 8743SOL    HW126275   4.744   6.362   4.780
 8743SOL    HW226276   4.721   6.244   4.669
 8744SOL     OW26277   5.579   0.065   5.324
 8744SOL    HW126278   5.614   0.141   5.269
 8744SOL    HW226279   5.634   0.056   5.407
 8745SOL     OW26280   4.079   6.507   5.526
 8745SOL    HW126281   4.155   6.518   5.590
 8745SOL    HW226282   4.103   6.439   5.456
 8746SOL     OW26283   5.251   5.855   3.854
 8746SOL    HW126284   5.182   5.787   3.879
 8746SOL    HW226285   5.288   5.897   3.937
 8747SOL     OW26286   5.012   6.410   3.748
 8747SOL    HW126287   5.054   6.320   3.758
 8747SOL    HW226288   5.044   6.451   3.662
 8748SOL     OW26289   4.034   6.392   4.666
 8748SOL    HW126290   4.130   6.417   4.657
 8748SOL    HW226291   4.026   6.298   4.700
 8749SOL     OW26292   4.052   6.113   4.736
 8749SOL    HW126293   4.013   6.021   4.724
 8749SOL    HW226294   4.132   6.123   4.677
 8750SOL     OW26295   4.858   5.959   5.416
 8750SOL    HW126296   4.805   6.016   5.478
 8750SOL    HW226297   4.950   5.996   5.407
 8751SOL     OW26298   4.886   5.790   5.199
 8751SOL    HW126299   4.871   5.852   5.276
 8751SOL    HW226300   4.928   5.839   5.123
 8752SOL     OW26301   3.746   6.895   3.906
 8752SOL    HW126302   3.658   6.923   3.868
 8752SOL    HW226303   3.736   6.807   3.952
 8753SOL     OW26304   4.700   6.378   4.949
 8753SOL    HW126305   4.760   6.354   5.025
 8753SOL    HW226306   4.611   6.333   4.961
 8754SOL     OW26307   3.761   6.137   4.841
 8754SOL    HW126308   3.843   6.124   4.786
 8754SOL    HW226309   3.786   6.140   4.938
 8755SOL     OW26310   3.916   6.108   5.454
 8755SOL    HW126311   3.969   6.055   5.388
 8755SOL    HW226312   3.876   6.188   5.408
 8756SOL     OW26313   5.104   6.523   5.379
 8756SOL    HW126314   5.133   6.619   5.378
 8756SOL    HW226315   5.100   6.489   5.285
 8757SOL     OW26316   4.542   6.158   4.084
 8757SOL    HW126317   4.550   6.078   4.024
 8757SOL    HW226318   4.463   6.213   4.055
 8758SOL     OW26319   5.367   6.188   4.906
 8758SOL    HW126320   5.350   6.128   4.984
 8758SOL    HW226321   5.458   6.171   4.869
 8759SOL     OW26322   4.430   6.033   4.978
 8759SOL    HW126323   4.373   5.955   4.953
 8759SOL    HW226324   4.428   6.101   4.905
 8760SOL     OW26325   4.183   6.081   3.910
 8760SOL    HW126326   4.248   6.153   3.935
 8760SOL    HW226327   4.092   6.121   3.896
 8761SOL     OW26328   3.891   6.728   5.200
 8761SOL    HW126329   3.880   6.679   5.287
 8761SOL    HW226330   3.902   6.662   5.126
 8762SOL     OW26331   5.054   6.624   4.948
 8762SOL    HW126332   5.083   6.556   4.880
 8762SOL    HW226333   4.980   6.680   4.909
 8763SOL     OW26334   5.040   6.447   4.021
 8763SOL    HW126335   4.967   6.416   4.083
 8763SOL    HW226336   5.012   6.430   3.926
 8764SOL     OW26337   3.807   6.858   4.738
 8764SOL    HW126338   3.792   6.867   4.837
 8764SOL    HW226339   3.736   6.799   4.699
 8765SOL     OW26340   5.443   5.735   4.224
 8765SOL    HW126341   5.519   5.725   4.159
 8765SOL    HW226342   5.426   5.647   4.269
 8766SOL     OW26343   5.006   6.508   4.393
 8766SOL    HW126344   5.080   6.443   4.409
 8766SOL    HW226345   5.041   6.586   4.341
 8767SOL     OW26346   4.540   6.844   5.143
 8767SOL    HW126347   4.515   6.886   5.230
 8767SOL    HW226348   4.468   6.859   5.077
 8768SOL     OW26349   5.566   5.756   4.688
 8768SOL    HW126350   5.600   5.665   4.665
 8768SOL    HW226351   5.475   5.768   4.648
 8769SOL     OW26352   3.980   5.900   4.440
 8769SOL    HW126353   3.892   5.937   4.412
 8769SOL    HW226354   3.983   5.892   4.539
 8770SOL     OW26355   4.971   0.212   3.734
 8770SOL    HW126356   4.974   0.146   3.809
 8770SOL    HW226357   4.879   0.212   3.695
 8771SOL     OW26358   4.550   6.582   5.094
 8771SOL    HW126359   4.607   6.560   5.015
 8771SOL    HW226360   4.554   6.680   5.112
 8772SOL     OW26361   4.644   6.495   4.004
 8772SOL    HW126362   4.710   6.536   3.941
 8772SOL    HW226363   4.690   6.425   4.060
 8773SOL     OW26364   4.116   6.892   5.226
 8773SOL    HW126365   4.082   6.982   5.198
 8773SOL    HW226366   4.040   6.827   5.228
 8774SOL     OW26367   5.329   6.846   5.037
 8774SOL    HW126368   5.404   6.835   5.102
 8774SOL    HW226369   5.260   6.907   5.076
 8775SOL     OW26370   4.785   6.695   4.449
 8775SOL    HW126371   4.705   6.645   4.484
 8775SOL    HW226372   4.851   6.629   4.412
 8776SOL     OW26373   4.746   5.825   4.691
 8776SOL    HW126374   4.742   5.781   4.601
 8776SOL    HW226375   4.744   5.755   4.763
 8777SOL     OW26376   5.455   5.980   5.105
 8777SOL    HW126377   5.527   6.049   5.105
 8777SOL    HW226378   5.480   5.905   5.044
 8778SOL     OW26379   3.833   6.608   5.440
 8778SOL    HW126380   3.753   6.587   5.497
 8778SOL    HW226381   3.916   6.574   5.484
 8779SOL     OW26382   4.407   5.780   5.224
 8779SOL    HW126383   4.493   5.756   5.179
 8779SOL    HW226384   4.425   5.814   5.316
 8780SOL     OW26385   3.805   5.915   3.754
 8780SOL    HW126386   3.713   5.891   3.723
 8780SOL    HW226387   3.837   5.996   3.704
 8781SOL     OW26388   5.151   6.439   5.123
 8781SOL    HW126389   5.097   6.503   5.068
 8781SOL    HW226390   5.245   6.439   5.090
 8782SOL     OW26391   3.788   5.741   4.027
 8782SOL    HW126392   3.771   5.826   3.977
 8782SOL    HW226393   3.876   5.703   4.000
 8783SOL     OW26394   4.346   6.414   5.158
 8783SOL    HW126395   4.405   6.492   5.138
 8783SOL    HW226396   4.402   6.331   5.168
 8784SOL     OW26397   4.446   6.145   5.427
 8784SOL    HW126398   4.491   6.212   5.487
 8784SOL    HW226399   4.466   6.052   5.460
 8785SOL     OW26400   5.209   6.779   5.370
 8785SOL    HW126401   5.195   6.798   5.467
 8785SOL    HW226402   5.305   6.793   5.346
 8786SOL     OW26403   5.392   6.462   4.978
 8786SOL    HW126404   5.385   6.371   4.937
 8786SOL    HW226405   5.379   6.531   4.907
 8787SOL     OW26406   4.943   5.903   4.183
 8787SOL    HW126407   5.007   5.826   4.173
 8787SOL    HW226408   4.970   5.958   4.263
 8788SOL     OW26409   4.310   6.323   4.393
 8788SOL    HW126410   4.352   6.414   4.383
 8788SOL    HW226411   4.241   6.310   4.322
 8789SOL     OW26412   5.476   5.951   5.376
 8789SOL    HW126413   5.465   5.967   5.278
 8789SOL    HW226414   5.402   5.891   5.408
 8790SOL     OW26415   5.469   6.519   5.231
 8790SOL    HW126416   5.461   6.617   5.249
 8790SOL    HW226417   5.453   6.502   5.134
 8791SOL     OW26418   4.591   6.551   4.582
 8791SOL    HW126419   4.645   6.473   4.616
 8791SOL    HW226420   4.560   6.606   4.660
 8792SOL     OW26421   4.816   6.586   3.815
 8792SOL    HW126422   4.776   6.633   3.736
 8792SOL    HW226423   4.883   6.519   3.783
 8793SOL     OW26424   3.936   6.906   5.537
 8793SOL    HW126425   3.877   6.826   5.548
 8793SOL    HW226426   3.948   6.950   5.626
 8794SOL     OW26427   3.814   6.820   4.398
 8794SOL    HW126428   3.834   6.758   4.474
 8794SOL    HW226429   3.878   6.802   4.323
 8795SOL     OW26430   4.429   6.970   5.356
 8795SOL    HW126431   4.332   6.958   5.374
 8795SOL    HW226432   4.449   0.066   5.337
 8796SOL     OW26433   5.529   5.769   4.958
 8796SOL    HW126434   5.544   5.673   4.982
 8796SOL    HW226435   5.542   5.781   4.860
 8797SOL     OW26436   4.154   6.014   4.251
 8797SOL    HW126437   4.188   5.944   4.188
 8797SOL    HW226438   4.100   5.971   4.323
 8798SOL     OW26439   5.370   0.043   4.861
 8798SOL    HW126440   5.322   0.027   4.774
 8798SOL    HW226441   5.366   6.961   4.917
 8799SOL     OW26442   4.058   6.141   5.013
 8799SOL    HW126443   4.115   6.085   5.073
 8799SOL    HW226444   4.074   6.116   4.918
 8800SOL     OW26445   5.155   5.816   4.841
 8800SOL    HW126446   5.178   5.727   4.880
 8800SOL    HW226447   5.100   5.868   4.908
 8801SOL     OW26448   4.734   5.602   4.862
 8801SOL    HW126449   4.670   5.539   4.819
 8801SOL    HW226450   4.825   5.562   4.864
 8802SOL     OW26451   4.483   6.908   3.992
 8802SOL    HW126452   4.461   6.812   4.011
 8802SOL    HW226453   4.521   6.951   4.074
 8803SOL     OW26454   5.078   5.637   3.893
 8803SOL    HW126455   5.119   5.570   3.832
 8803SOL    HW226456   4.985   5.607   3.916
 8804SOL     OW26457   5.015   6.049   4.404
 8804SOL    HW126458   4.962   6.134   4.407
 8804SOL    HW226459   5.013   6.007   4.495
 8805SOL     OW26460   5.310   5.790   4.607
 8805SOL    HW126461   5.252   5.809   4.686
 8805SOL    HW226462   5.312   5.870   4.547
 8806SOL     OW26463   3.760   6.647   4.034
 8806SOL    HW126464   3.858   6.653   4.013
 8806SOL    HW226465   3.737   6.552   4.057
 8807SOL     OW26466   3.946   6.206   5.712
 8807SOL    HW126467   3.855   6.205   5.753
 8807SOL    HW226468   3.940   6.182   5.615
 8808SOL     OW26469   3.944   5.874   6.582
 8808SOL    HW126470   3.980   5.835   6.667
 8808SOL    HW226471   3.853   5.837   6.565
 8809SOL     OW26472   3.725   5.972   6.221
 8809SOL    HW126473   3.640   6.002   6.265
 8809SOL    HW226474   3.707   5.888   6.169
 8810SOL     OW26475   4.286   6.878   6.769
 8810SOL    HW126476   4.219   6.889   6.696
 8810SOL    HW226477   4.239   6.877   6.858
 8811SOL     OW26478   5.265   0.056   6.275
 8811SOL    HW126479   5.241   0.050   6.372
 8811SOL    HW226480   5.186   0.092   6.224
 8812SOL     OW26481   4.854   6.286   6.282
 8812SOL    HW126482   4.907   6.370   6.266
 8812SOL    HW226483   4.804   6.294   6.368
 8813SOL     OW26484   5.494   6.184   5.808
 8813SOL    HW126485   5.470   6.179   5.711
 8813SOL    HW226486   5.455   6.105   5.856
 8814SOL     OW26487   4.480   6.740   6.615
 8814SOL    HW126488   4.416   6.783   6.679
 8814SOL    HW226489   4.493   6.800   6.536
 8815SOL     OW26490   4.410   6.584   6.234
 8815SOL    HW126491   4.480   6.573   6.304
 8815SOL    HW226492   4.334   6.639   6.271
 8816SOL     OW26493   4.059   0.014   6.641
 8816SOL    HW126494   3.981   6.964   6.604
 8816SOL    HW226495   4.105   0.064   6.568
 8817SOL     OW26496   5.335   6.034   6.329
 8817SOL    HW126497   5.259   6.050   6.267
 8817SOL    HW226498   5.340   6.107   6.397
 8818SOL     OW26499   3.984   6.677   6.492
 8818SOL    HW126500   3.981   6.582   6.524
 8818SOL    HW226501   3.923   6.733   6.547
 8819SOL     OW26502   4.304   6.565   5.728
 8819SOL    HW126503   4.349   6.616   5.654
 8819SOL    HW226504   4.344   6.591   5.816
 8820SOL     OW26505   3.839   6.244   6.151
 8820SOL    HW126506   3.808   6.151   6.168
 8820SOL    HW226507   3.832   6.298   6.235
 8821SOL     OW26508   5.413   6.503   6.227
 8821SOL    HW126509   5.500   6.456   6.211
 8821SOL    HW226510   5.390   6.559   6.148
 8822SOL     OW26511   5.376   6.692   6.011
 8822SOL    HW126512   5.465   6.686   5.966
 8822SOL    HW226513   5.383   6.752   6.091
 8823SOL     OW26514   4.541   5.594   6.094
 8823SOL    HW126515   4.587   5.680   6.072
 8823SOL    HW226516   4.442   5.610   6.102
 8824SOL     OW26517   3.916   6.556   6.837
 8824SOL    HW126518   3.999   6.501   6.825
 8824SOL    HW226519   3.836   6.502   6.812
 8825SOL     OW26520   5.259   6.587   5.787
 8825SOL    HW126521   5.186   6.526   5.816
 8825SOL    HW226522   5.307   6.622   5.868
 8826SOL     OW26523   5.179   6.995   6.530
 8826SOL    HW126524   5.118   0.020   6.605
 8826SOL    HW226525   5.162   6.899   6.504
 8827SOL     OW26526   4.319   6.303   5.859
 8827SOL    HW126527   4.324   6.388   5.807
 8827SOL    HW226528   4.250   6.313   5.931
 8828SOL     OW26529   4.999   5.941   6.518
 8828SOL    HW126530   4.905   5.908   6.525
 8828SOL    HW226531   5.058   5.891   6.582
 8829SOL     OW26532   4.521   6.187   0.049
 8829SOL    HW126533   4.459   6.235   0.112
 8829SOL    HW226534   4.467   6.136   6.982
 8830SOL     OW26535   4.727   5.977   6.798
 8830SOL    HW126536   4.663   6.034   6.850
 8830SOL    HW226537   4.679   5.932   6.722
 8831SOL     OW26538   4.774   6.285   6.011
 8831SOL    HW126539   4.795   6.281   6.108
 8831SOL    HW226540   4.688   6.237   5.993
 8832SOL     OW26541   3.812   6.410   6.366
 8832SOL    HW126542   3.898   6.401   6.417
 8832SOL    HW226543   3.761   6.489   6.401
 8833SOL     OW26544   4.620   5.938   5.782
 8833SOL    HW126545   4.659   6.006   5.720
 8833SOL    HW226546   4.630   5.846   5.743
 8834SOL     OW26547   5.110   6.722   6.133
 8834SOL    HW126548   5.190   6.715   6.073
 8834SOL    HW226549   5.057   6.803   6.108
 8835SOL     OW26550   4.271   5.760   6.484
 8835SOL    HW126551   4.277   5.791   6.579
 8835SOL    HW226552   4.275   5.839   6.423
 8836SOL     OW26553   5.529   6.639   6.452
 8836SOL    HW126554   5.476   6.626   6.367
 8836SOL    HW226555   5.466   6.639   6.530
 8837SOL     OW26556   4.047   6.545   5.843
 8837SOL    HW126557   4.135   6.562   5.799
 8837SOL    HW226558   4.008   6.460   5.808
 8838SOL     OW26559   5.208   6.332   6.308
 8838SOL    HW126560   5.201   6.287   6.397
 8838SOL    HW226561   5.287   6.393   6.307
 8839SOL     OW26562   5.364   6.969   5.669
 8839SOL    HW126563   5.330   0.062   5.688
 8839SOL    HW226564   5.286   6.907   5.657
 8840SOL     OW26565   5.125   5.690   6.022
 8840SOL    HW126566   5.114   5.665   5.926
 8840SOL    HW226567   5.223   5.699   6.042
 8841SOL     OW26568   4.119   6.274   6.060
 8841SOL    HW126569   4.139   6.177   6.074
 8841SOL    HW226570   4.022   6.291   6.079
 8842SOL     OW26571   4.363   5.704   5.688
 8842SOL    HW126572   4.433   5.635   5.710
 8842SOL    HW226573   4.308   5.672   5.611
 8843SOL     OW26574   4.651   6.092   6.485
 8843SOL    HW126575   4.624   6.086   6.389
 8843SOL    HW226576   4.688   6.004   6.515
 8844SOL     OW26577   4.271   5.650   6.081
 8844SOL    HW126578   4.189   5.647   6.138
 8844SOL    HW226579   4.268   5.731   6.022
 8845SOL     OW26580   5.143   6.788   5.645
 8845SOL    HW126581   5.197   6.717   5.691
 8845SOL    HW226582   5.049   6.756   5.633
 8846SOL     OW26583   4.015   5.634   5.772
 8846SOL    HW126584   4.068   5.706   5.726
 8846SOL    HW226585   4.077   5.569   5.815
 8847SOL     OW26586   4.669   5.836   6.043
 8847SOL    HW126587   4.638   5.878   5.958
 8847SOL    HW226588   4.768   5.850   6.052
 8848SOL     OW26589   4.994   0.148   6.323
 8848SOL    HW126590   4.958   0.233   6.285
 8848SOL    HW226591   5.001   0.155   6.423
 8849SOL     OW26592   4.189   6.715   6.322
 8849SOL    HW126593   4.119   6.706   6.392
 8849SOL    HW226594   4.147   6.712   6.231
 8850SOL     OW26595   4.745   6.123   5.615
 8850SOL    HW126596   4.700   6.209   5.591
 8850SOL    HW226597   4.814   6.139   5.685
 8851SOL     OW26598   4.287   5.807   6.756
 8851SOL    HW126599   4.332   5.723   6.786
 8851SOL    HW226600   4.191   5.807   6.786
 8852SOL     OW26601   4.588   6.045   6.223
 8852SOL    HW126602   4.542   6.106   6.160
 8852SOL    HW226603   4.617   5.962   6.175
 8853SOL     OW26604   4.742   5.635   6.328
 8853SOL    HW126605   4.680   5.635   6.250
 8853SOL    HW226606   4.717   5.561   6.390
 8854SOL     OW26607   5.160   6.736   6.443
 8854SOL    HW126608   5.087   6.668   6.446
 8854SOL    HW226609   5.189   6.750   6.349
 8855SOL     OW26610   5.190   6.189   6.552
 8855SOL    HW126611   5.128   6.110   6.557
 8855SOL    HW226612   5.253   6.187   6.629
 8856SOL     OW26613   5.567   6.391   5.966
 8856SOL    HW126614   5.625   6.344   6.032
 8856SOL    HW226615   5.538   6.327   5.895
 8857SOL     OW26616   5.404   6.834   6.231
 8857SOL    HW126617   5.502   6.846   6.250
 8857SOL    HW226618   5.356   6.919   6.253
 8858SOL     OW26619   5.114   6.160   5.657
 8858SOL    HW126620   5.051   6.138   5.732
 8858SOL    HW226621   5.207   6.133   5.683
 8859SOL     OW26622   4.252   5.850   5.897
 8859SOL    HW126623   4.299   5.797   5.826
 8859SOL    HW226624   4.224   5.938   5.859
 8860SOL     OW26625   5.466   6.787   0.182
 8860SOL    HW126626   5.558   6.761   0.212
 8860SOL    HW226627   5.467   6.882   0.151
 8861SOL     OW26628   4.791   6.901   6.929
 8861SOL    HW126629   4.700   6.881   6.964
 8861SOL    HW226630   4.857   6.899   0.004
 8862SOL     OW26631   4.855   6.761   6.702
 8862SOL    HW126632   4.826   6.819   6.778
 8862SOL    HW226633   4.817   6.798   6.616
 8863SOL     OW26634   5.346   6.664   6.647
 8863SOL    HW126635   5.344   6.726   6.725
 8863SOL    HW226636   5.269   6.683   6.587
 8864SOL     OW26637   4.432   6.638   5.955
 8864SOL    HW126638   4.418   6.629   6.053
 8864SOL    HW226639   4.514   6.587   5.928
 8865SOL     OW26640   4.148   6.399   6.847
 8865SOL    HW126641   4.209   6.422   6.923
 8865SOL    HW226642   4.113   6.306   6.859
 8866SOL     OW26643   4.992   5.973   6.856
 8866SOL    HW126644   5.020   6.048   6.916
 8866SOL    HW226645   4.897   5.987   6.827
 8867SOL     OW26646   4.064   6.702   6.077
 8867SOL    HW126647   4.106   6.781   6.033
 8867SOL    HW226648   4.059   6.626   6.013
 8868SOL     OW26649   4.271   6.132   6.449
 8868SOL    HW126650   4.285   6.190   6.369
 8868SOL    HW226651   4.343   6.150   6.516
 8869SOL     OW26652   5.301   6.208   6.066
 8869SOL    HW126653   5.253   6.254   6.141
 8869SOL    HW226654   5.352   6.276   6.013
 8870SOL     OW26655   4.310   6.453   6.623
 8870SOL    HW126656   4.339   6.548   6.609
 8870SOL    HW226657   4.248   6.448   6.701
 8871SOL     OW26658   5.077   6.437   6.605
 8871SOL    HW126659   4.986   6.432   6.564
 8871SOL    HW226660   5.124   6.349   6.594
 8872SOL     OW26661   4.922   6.113   5.851
 8872SOL    HW126662   4.935   6.030   5.905
 8872SOL    HW226663   4.877   6.183   5.907
 8873SOL     OW26664   4.026   5.787   6.834
 8873SOL    HW126665   3.989   5.816   6.922
 8873SOL    HW226666   4.014   5.688   6.824
 8874SOL     OW26667   3.772   6.900   6.877
 8874SOL    HW126668   3.816   6.836   6.941
 8874SOL    HW226669   3.802   6.993   6.898
 8875SOL     OW26670   4.449   6.212   6.642
 8875SOL    HW126671   4.527   6.192   6.583
 8875SOL    HW226672   4.417   6.305   6.624
 8876SOL     OW26673   4.029   5.648   6.212
 8876SOL    HW126674   4.005   5.743   6.231
 8876SOL    HW226675   4.040   5.599   6.299
 8877SOL     OW26676   5.350   5.967   5.948
 8877SOL    HW126677   5.376   5.893   6.011
 8877SOL    HW226678   5.322   6.047   6.000
 8878SOL     OW26679   4.747   6.341   6.550
 8878SOL    HW126680   4.746   6.361   6.648
 8878SOL    HW226681   4.721   6.245   6.536
 8879SOL     OW26682   5.251   5.855   5.716
 8879SOL    HW126683   5.182   5.787   5.741
 8879SOL    HW226684   5.288   5.897   5.799
 8880SOL     OW26685   5.012   6.410   5.609
 8880SOL    HW126686   5.053   6.320   5.620
 8880SOL    HW226687   5.044   6.451   5.524
 8881SOL     OW26688   4.035   6.391   6.529
 8881SOL    HW126689   4.131   6.417   6.517
 8881SOL    HW226690   4.030   6.296   6.559
 8882SOL     OW26691   4.055   6.115   6.604
 8882SOL    HW126692   4.015   6.024   6.590
 8882SOL    HW226693   4.136   6.125   6.545
 8883SOL     OW26694   4.863   5.826   0.054
 8883SOL    HW126695   4.930   5.843   0.126
 8883SOL    HW226696   4.899   5.861   6.967
 8884SOL     OW26697   3.746   6.895   5.768
 8884SOL    HW126698   3.658   6.923   5.730
 8884SOL    HW226699   3.736   6.807   5.814
 8885SOL     OW26700   4.713   6.376   6.825
 8885SOL    HW126701   4.785   6.336   6.882
 8885SOL    HW226702   4.624   6.345   6.858
 8886SOL     OW26703   3.774   6.140   6.714
 8886SOL    HW126704   3.828   6.107   6.637
 8886SOL    HW226705   3.836   6.176   6.785
 8887SOL     OW26706   4.542   6.157   5.946
 8887SOL    HW126707   4.551   6.078   5.886
 8887SOL    HW226708   4.463   6.212   5.917
 8888SOL     OW26709   5.371   6.195   6.754
 8888SOL    HW126710   5.356   6.136   6.833
 8888SOL    HW226711   5.466   6.184   6.722
 8889SOL     OW26712   4.396   6.049   6.850
 8889SOL    HW126713   4.361   5.961   6.818
 8889SOL    HW226714   4.412   6.109   6.772
 8890SOL     OW26715   4.183   6.081   5.772
 8890SOL    HW126716   4.248   6.153   5.797
 8890SOL    HW226717   4.092   6.121   5.758
 8891SOL     OW26718   3.899   6.723   0.043
 8891SOL    HW126719   3.880   6.672   0.127
 8891SOL    HW226720   3.902   6.660   6.966
 8892SOL     OW26721   5.039   6.601   6.819
 8892SOL    HW126722   5.075   6.541   6.748
 8892SOL    HW226723   4.971   6.663   6.780
 8893SOL     OW26724   5.040   6.447   5.883
 8893SOL    HW126725   4.968   6.416   5.945
 8893SOL    HW226726   5.012   6.430   5.788
 8894SOL     OW26727   3.806   6.859   6.605
 8894SOL    HW126728   3.788   6.868   6.703
 8894SOL    HW226729   3.737   6.800   6.563
 8895SOL     OW26730   5.443   5.735   6.085
 8895SOL    HW126731   5.519   5.725   6.021
 8895SOL    HW226732   5.425   5.648   6.131
 8896SOL     OW26733   5.006   6.508   6.255
 8896SOL    HW126734   5.080   6.443   6.271
 8896SOL    HW226735   5.041   6.586   6.203
 8897SOL     OW26736   4.538   6.841   0.017
 8897SOL    HW126737   4.534   6.856   0.116
 8897SOL    HW226738   4.453   6.873   6.975
 8898SOL     OW26739   5.565   5.760   6.556
 8898SOL    HW126740   5.600   5.669   6.533
 8898SOL    HW226741   5.474   5.771   6.517
 8899SOL     OW26742   3.980   5.900   6.301
 8899SOL    HW126743   3.891   5.937   6.273
 8899SOL    HW226744   3.983   5.893   6.401
 8900SOL     OW26745   4.971   0.211   5.596
 8900SOL    HW126746   4.975   0.146   5.671
 8900SOL    HW226747   4.878   0.212   5.557
 8901SOL     OW26748   4.515   6.584   6.940
 8901SOL    HW126749   4.570   6.561   6.860
 8901SOL    HW226750   4.534   6.678   6.968
 8902SOL     OW26751   4.644   6.495   5.866
 8902SOL    HW126752   4.710   6.536   5.803
 8902SOL    HW226753   4.690   6.425   5.922
 8903SOL     OW26754   4.122   6.886   6.997
 8903SOL    HW126755   4.103   6.961   0.059
 8903SOL    HW226756   4.053   6.814   0.009
 8904SOL     OW26757   5.343   6.831   6.855
 8904SOL    HW126758   5.423   6.849   6.911
 8904SOL    HW226759   5.262   6.821   6.914
 8905SOL     OW26760   4.784   6.693   6.309
 8905SOL    HW126761   4.705   6.644   6.345
 8905SOL    HW226762   4.851   6.628   6.274
 8906SOL     OW26763   4.743   5.823   6.542
 8906SOL    HW126764   4.742   5.774   6.455
 8906SOL    HW226765   4.745   5.757   6.617
 8907SOL     OW26766   5.419   6.009   6.947
 8907SOL    HW126767   5.493   6.014   0.015
 8907SOL    HW226768   5.421   5.920   6.902
 8908SOL     OW26769   4.395   5.776   0.081
 8908SOL    HW126770   4.484   5.753   0.041
 8908SOL    HW226771   4.405   5.853   0.144
 8909SOL     OW26772   3.805   5.915   5.616
 8909SOL    HW126773   3.713   5.891   5.585
 8909SOL    HW226774   3.837   5.996   5.566
 8910SOL     OW26775   3.788   5.741   5.889
 8910SOL    HW126776   3.771   5.826   5.839
 8910SOL    HW226777   3.876   5.703   5.862
 8911SOL     OW26778   5.194   6.856   0.318
 8911SOL    HW126779   5.143   6.773   0.339
 8911SOL    HW226780   5.272   6.833   0.260
 8912SOL     OW26781   5.419   6.462   6.829
 8912SOL    HW126782   5.387   6.371   6.801
 8912SOL    HW226783   5.387   6.529   6.763
 8913SOL     OW26784   4.943   5.903   6.045
 8913SOL    HW126785   5.007   5.826   6.035
 8913SOL    HW226786   4.970   5.958   6.125
 8914SOL     OW26787   4.309   6.324   6.255
 8914SOL    HW126788   4.351   6.414   6.245
 8914SOL    HW226789   4.240   6.311   6.183
 8915SOL     OW26790   5.509   6.507   0.082
 8915SOL    HW126791   5.475   6.596   0.112
 8915SOL    HW226792   5.474   6.487   6.991
 8916SOL     OW26793   4.592   6.550   6.444
 8916SOL    HW126794   4.645   6.473   6.480
 8916SOL    HW226795   4.558   6.605   6.520
 8917SOL     OW26796   4.816   6.586   5.676
 8917SOL    HW126797   4.776   6.633   5.598
 8917SOL    HW226798   4.883   6.519   5.645
 8918SOL     OW26799   3.817   6.823   6.260
 8918SOL    HW126800   3.827   6.758   6.335
 8918SOL    HW226801   3.880   6.799   6.186
 8919SOL     OW26802   5.536   5.762   6.835
 8919SOL    HW126803   5.512   5.664   6.837
 8919SOL    HW226804   5.551   5.790   6.740
 8920SOL     OW26805   4.155   6.014   6.113
 8920SOL    HW126806   4.188   5.944   6.050
 8920SOL    HW226807   4.100   5.971   6.185
 8921SOL     OW26808   5.374   0.052   6.712
 8921SOL    HW126809   5.326   0.044   6.625
 8921SOL    HW226810   5.368   6.965   6.761
 8922SOL     OW26811   4.040   6.135   6.877
 8922SOL    HW126812   4.112   6.084   6.925
 8922SOL    HW226813   4.051   6.123   6.779
 8923SOL     OW26814   5.158   5.821   6.703
 8923SOL    HW126815   5.192   5.739   6.748
 8923SOL    HW226816   5.104   5.875   6.767
 8924SOL     OW26817   4.741   5.604   6.714
 8924SOL    HW126818   4.677   5.538   6.674
 8924SOL    HW226819   4.831   5.563   6.724
 8925SOL     OW26820   4.482   6.907   5.853
 8925SOL    HW126821   4.461   6.812   5.873
 8925SOL    HW226822   4.520   6.951   5.935
 8926SOL     OW26823   5.078   5.637   5.755
 8926SOL    HW126824   5.120   5.569   5.694
 8926SOL    HW226825   4.985   5.608   5.778
 8927SOL     OW26826   5.015   6.049   6.266
 8927SOL    HW126827   4.962   6.134   6.269
 8927SOL    HW226828   5.013   6.005   6.356
 8928SOL     OW26829   5.311   5.792   6.470
 8928SOL    HW126830   5.249   5.810   6.547
 8928SOL    HW226831   5.312   5.871   6.409
 8929SOL     OW26832   3.760   6.647   5.896
 8929SOL    HW126833   3.858   6.653   5.875
 8929SOL    HW226834   3.737   6.552   5.919
 8930SOL     OW26835   5.807   0.643   0.136
 8930SOL    HW126836   5.713   0.622   0.163
 8930SOL    HW226837   5.819   0.623   0.039
 8931SOL     OW26838   5.809   0.302   0.996
 8931SOL    HW126839   5.848   0.264   1.080
 8931SOL    HW226840   5.726   0.252   0.973
 8932SOL     OW26841   5.591   0.390   0.630
 8932SOL    HW126842   5.506   0.416   0.675
 8932SOL    HW226843   5.574   0.313   0.568
 8933SOL     OW26844   6.154   1.296   1.185
 8933SOL    HW126845   6.065   1.292   1.141
 8933SOL    HW226846   6.172   1.388   1.218
 8934SOL     OW26847   0.067   1.547   0.761
 8934SOL    HW126848   0.101   1.455   0.775
 8934SOL    HW226849   0.031   1.556   0.668
 8935SOL     OW26850   6.694   0.718   0.689
 8935SOL    HW126851   6.760   0.792   0.678
 8935SOL    HW226852   6.658   0.719   0.782
 8936SOL     OW26853   6.332   1.141   1.042
 8936SOL    HW126854   6.263   1.176   1.106
 8936SOL    HW226855   6.375   1.217   0.994
 8937SOL     OW26856   6.459   0.767   1.823
 8937SOL    HW126857   6.441   0.834   1.894
 8937SOL    HW226858   6.482   0.815   1.738
 8938SOL     OW26859   6.269   0.998   0.650
 8938SOL    HW126860   6.340   0.988   0.719
 8938SOL    HW226861   6.195   1.055   0.686
 8939SOL     OW26862   6.293   1.150   1.814
 8939SOL    HW126863   6.343   1.230   1.846
 8939SOL    HW226864   6.207   1.179   1.772
 8940SOL     OW26865   5.912   1.424   1.066
 8940SOL    HW126866   5.836   1.379   1.019
 8940SOL    HW226867   5.966   1.476   1.000
 8941SOL     OW26868   6.030   0.399   1.485
 8941SOL    HW126869   6.115   0.347   1.490
 8941SOL    HW226870   5.952   0.335   1.489
 8942SOL     OW26871   5.805   1.723   0.471
 8942SOL    HW126872   5.823   1.802   0.529
 8942SOL    HW226873   5.890   1.696   0.425
 8943SOL     OW26874   6.716   1.345   1.704
 8943SOL    HW126875   6.810   1.315   1.714
 8943SOL    HW226876   6.655   1.266   1.704
 8944SOL     OW26877   5.801   1.448   0.533
 8944SOL    HW126878   5.789   1.547   0.542
 8944SOL    HW226879   5.749   1.401   0.605
 8945SOL     OW26880   5.853   1.091   0.900
 8945SOL    HW126881   5.849   0.996   0.933
 8945SOL    HW226882   5.791   1.147   0.953
 8946SOL     OW26883   6.185   1.798   1.425
 8946SOL    HW126884   6.102   1.773   1.476
 8946SOL    HW226885   6.215   1.889   1.454
 8947SOL     OW26886   6.173   0.968   0.145
 8947SOL    HW126887   6.229   0.992   0.066
 8947SOL    HW226888   6.209   1.013   0.227
 8948SOL     OW26889   5.701   0.654   0.562
 8948SOL    HW126890   5.673   0.560   0.581
 8948SOL    HW226891   5.695   0.709   0.646
 8949SOL     OW26892   5.598   1.583   0.146
 8949SOL    HW126893   5.530   1.514   0.126
 8949SOL    HW226894   5.576   1.628   0.233
 8950SOL     OW26895   5.708   0.748   1.583
 8950SOL    HW126896   5.804   0.776   1.585
 8950SOL    HW226897   5.650   0.830   1.584
 8951SOL     OW26898   6.197   1.389   0.737
 8951SOL    HW126899   6.151   1.301   0.749
 8951SOL    HW226900   6.187   1.418   0.641
 8952SOL     OW26901   6.841   1.222   1.432
 8952SOL    HW126902   6.879   1.152   1.372
 8952SOL    HW226903   6.903   1.236   1.510
 8953SOL     OW26904   6.408   0.027   0.520
 8953SOL    HW126905   6.448   0.117   0.502
 8953SOL    HW226906   6.309   0.035   0.523
 8954SOL     OW26907   5.776   0.962   1.277
 8954SOL    HW126908   5.865   0.919   1.262
 8954SOL    HW226909   5.707   0.917   1.220
 8955SOL     OW26910   6.780   1.813   1.616
 8955SOL    HW126911   6.766   1.881   1.545
 8955SOL    HW226912   6.780   1.721   1.576
 8956SOL     OW26913   5.905   0.269   1.791
 8956SOL    HW126914   5.968   0.336   1.830
 8956SOL    HW226915   5.818   0.272   1.840
 8957SOL     OW26916   6.184   0.717   0.267
 8957SOL    HW126917   6.190   0.807   0.223
 8957SOL    HW226918   6.118   0.720   0.342
 8958SOL     OW26919   6.851   0.371   0.890
 8958SOL    HW126920   6.755   0.354   0.914
 8958SOL    HW226921   6.910   0.332   0.961
 8959SOL     OW26922   6.388   0.614   1.455
 8959SOL    HW126923   6.357   0.590   1.547
 8959SOL    HW226924   6.346   0.551   1.389
 8960SOL     OW26925   6.943   0.465   1.675
 8960SOL    HW126926   6.906   0.544   1.724
 8960SOL    HW226927   0.043   0.466   1.681
 8961SOL     OW26928   6.543   0.886   1.582
 8961SOL    HW126929   6.599   0.812   1.545
 8961SOL    HW226930   6.490   0.928   1.509
 8962SOL     OW26931   6.592   0.411   1.231
 8962SOL    HW126932   6.505   0.431   1.278
 8962SOL    HW226933   6.573   0.366   1.144
 8963SOL     OW26934   6.637   0.701   0.425
 8963SOL    HW126935   6.657   0.704   0.523
 8963SOL    HW226936   6.549   0.655   0.410
 8964SOL     OW26937   5.675   0.824   0.779
 8964SOL    HW126938   5.761   0.813   0.830
 8964SOL    HW226939   5.625   0.903   0.813
 8965SOL     OW26940   5.714   1.870   1.587
 8965SOL    HW126941   5.719   1.842   1.683
 8965SOL    HW226942   5.629   1.837   1.547
 8966SOL     OW26943   6.470   0.363   0.211
 8966SOL    HW126944   6.468   0.429   0.137
 8966SOL    HW226945   6.473   0.270   0.173
 8967SOL     OW26946   6.926   1.135   0.527
 8967SOL    HW126947   6.987   1.106   0.454
 8967SOL    HW226948   6.875   1.216   0.499
 8968SOL     OW26949   6.092   0.192   0.910
 8968SOL    HW126950   6.131   0.222   0.997
 8968SOL    HW226951   6.117   0.257   0.839
 8969SOL     OW26952   6.572   1.441   0.475
 8969SOL    HW126953   6.537   1.519   0.423
 8969SOL    HW226954   6.550   1.453   0.571
 8970SOL     OW26955   5.942   1.813   0.869
 8970SOL    HW126956   5.986   1.723   0.875
 8970SOL    HW226957   6.009   1.885   0.888
 8971SOL     OW26958   6.797   1.557   1.505
 8971SOL    HW126959   6.803   1.480   1.569
 8971SOL    HW226960   6.751   1.526   1.422
 8972SOL     OW26961   5.901   0.960   0.229
 8972SOL    HW126962   5.994   0.973   0.194
 8972SOL    HW226963   5.871   0.866   0.209
 8973SOL     OW26964   6.052   1.263   1.731
 8973SOL    HW126965   6.026   1.270   1.634
 8973SOL    HW226966   5.970   1.262   1.788
 8974SOL     OW26967   6.683   1.764   0.236
 8974SOL    HW126968   6.616   1.710   0.287
 8974SOL    HW226969   6.711   1.713   0.154
 8975SOL     OW26970   5.778   0.273   1.510
 8975SOL    HW126971   5.718   0.352   1.496
 8975SOL    HW226972   5.799   0.265   1.608
 8976SOL     OW26973   0.231   1.384   0.044
 8976SOL    HW126974   0.163   1.433   0.098
 8976SOL    HW226975   0.208   1.287   0.042
 8977SOL     OW26976   6.067   1.700   0.376
 8977SOL    HW126977   6.097   1.785   0.420
 8977SOL    HW226978   6.128   1.679   0.300
 8978SOL     OW26979   5.845   1.792   1.227
 8978SOL    HW126980   5.896   1.720   1.274
 8978SOL    HW226981   5.826   1.763   1.133
 8979SOL     OW26982   6.524   1.701   0.896
 8979SOL    HW126983   6.610   1.653   0.917
 8979SOL    HW226984   6.475   1.652   0.824
 8980SOL     OW26985   5.983   0.686   0.470
 8980SOL    HW126986   6.003   0.589   0.488
 8980SOL    HW226987   5.886   0.704   0.489
 8981SOL     OW26988   6.216   0.121   0.111
 8981SOL    HW126989   6.315   0.106   0.119
 8981SOL    HW226990   6.193   0.136   0.014
 8982SOL     OW26991   6.349   0.276   1.766
 8982SOL    HW126992   6.435   0.225   1.762
 8982SOL    HW226993   6.291   0.237   1.839
 8983SOL     OW26994   6.460   1.517   1.192
 8983SOL    HW126995   6.441   1.482   1.100
 8983SOL    HW226996   6.532   1.463   1.234
 8984SOL     OW26997   6.402   1.391   0.941
 8984SOL    HW126998   6.492   1.378   0.900
 8984SOL    HW226999   6.332   1.395   0.869
 8985SOL     OW27000   6.509   0.512   0.898
 8985SOL    HW127001   6.484   0.507   0.801
 8985SOL    HW227002   6.538   0.421   0.929
 8986SOL     OW27003   6.142   0.065   0.497
 8986SOL    HW127004   6.060   0.055   0.554
 8986SOL    HW227005   6.128   0.141   0.433
 8987SOL     OW27006   5.903   0.071   0.195
 8987SOL    HW127007   5.951   0.158   0.206
 8987SOL    HW227008   5.934   0.007   0.265
 8988SOL     OW27009   6.539   0.261   0.457
 8988SOL    HW127010   6.502   0.300   0.373
 8988SOL    HW227011   6.638   0.273   0.460
 8989SOL     OW27012   6.657   0.669   1.460
 8989SOL    HW127013   6.563   0.636   1.462
 8989SOL    HW227014   6.720   0.591   1.462
 8990SOL     OW27015   6.781   1.575   0.802
 8990SOL    HW127016   6.800   1.637   0.726
 8990SOL    HW227017   6.866   1.556   0.852
 8991SOL     OW27018   6.056   1.152   0.732
 8991SOL    HW127019   5.985   1.130   0.800
 8991SOL    HW227020   6.018   1.143   0.640
 8992SOL     OW27021   6.841   1.794   0.603
 8992SOL    HW127022   6.868   1.856   0.529
 8992SOL    HW227023   6.771   1.838   0.660
 8993SOL     OW27024   6.676   0.580   0.023
 8993SOL    HW127025   6.578   0.596   0.034
 8993SOL    HW227026   6.716   0.562   0.113
 8994SOL     OW27027   5.676   0.552   1.397
 8994SOL    HW127028   5.769   0.553   1.360
 8994SOL    HW227029   5.666   0.626   1.463
 8995SOL     OW27030   6.157   0.244   1.175
 8995SOL    HW127031   6.210   0.171   1.218
 8995SOL    HW227032   6.062   0.238   1.204
 8996SOL     OW27033   6.450   0.458   0.639
 8996SOL    HW127034   6.408   0.525   0.576
 8996SOL    HW227035   6.477   0.377   0.588
 8997SOL     OW27036   6.526   0.031   0.775
 8997SOL    HW127037   6.474   0.020   0.690
 8997SOL    HW227038   6.611   6.979   0.770
 8998SOL     OW27039   6.060   1.421   0.150
 8998SOL    HW127040   5.999   1.373   0.213
 8998SOL    HW227041   6.021   1.421   0.058
 8999SOL     OW27042   6.098   0.263   0.307
 8999SOL    HW127043   6.152   0.208   0.242
 8999SOL    HW227044   6.079   0.353   0.267
 9000SOL     OW27045   6.629   1.348   1.332
 9000SOL    HW127046   6.546   1.321   1.381
 9000SOL    HW227047   6.708   1.304   1.375
 9001SOL     OW27048   6.726   1.224   1.101
 9001SOL    HW127049   6.667   1.255   1.176
 9001SOL    HW227050   6.685   1.251   1.014
 9002SOL     OW27051   6.477   0.148   1.386
 9002SOL    HW127052   6.492   0.110   1.295
 9002SOL    HW227053   6.564   0.169   1.429
 9003SOL     OW27054   6.566   1.112   1.727
 9003SOL    HW127055   6.471   1.135   1.752
 9003SOL    HW227056   6.566   1.033   1.667
 9004SOL     OW27057   6.298   1.057   0.375
 9004SOL    HW127058   6.280   1.042   0.472
 9004SOL    HW227059   6.377   1.003   0.347
 9005SOL     OW27060   6.008   0.816   1.254
 9005SOL    HW127061   6.082   0.828   1.321
 9005SOL    HW227062   5.969   0.725   1.263
 9006SOL     OW27063   6.857   0.363   1.283
 9006SOL    HW127064   6.914   0.442   1.307
 9006SOL    HW227065   6.765   0.395   1.258
 9007SOL     OW27066   5.660   1.572   1.353
 9007SOL    HW127067   5.625   1.642   1.291
 9007SOL    HW227068   5.760   1.570   1.347
 9008SOL     OW27069   5.951   1.120   0.485
 9008SOL    HW127070   5.931   1.197   0.424
 9008SOL    HW227071   5.948   1.034   0.433
 9009SOL     OW27072   6.140   0.547   0.861
 9009SOL    HW127073   6.153   0.606   0.782
 9009SOL    HW227074   6.210   0.566   0.930
 9010SOL     OW27075   6.825   1.364   0.417
 9010SOL    HW127076   6.877   1.443   0.448
 9010SOL    HW227077   6.727   1.381   0.431
 9011SOL     OW27078   6.850   1.476   1.140
 9011SOL    HW127079   6.929   1.470   1.202
 9011SOL    HW227080   6.808   1.386   1.131
 9012SOL     OW27081   5.934   1.529   1.310
 9012SOL    HW127082   5.918   1.485   1.222
 9012SOL    HW227083   6.033   1.543   1.323
 9013SOL     OW27084   6.003   0.744   1.601
 9013SOL    HW127085   6.066   0.793   1.540
 9013SOL    HW227086   6.041   0.654   1.622
 9014SOL     OW27087   6.581   0.130   1.750
 9014SOL    HW127088   6.623   0.194   1.685
 9014SOL    HW227089   6.597   0.036   1.720
 9015SOL     OW27090   6.049   0.039   1.758
 9015SOL    HW127091   5.986   6.966   1.733
 9015SOL    HW227092   5.999   0.125   1.768
 9016SOL     OW27093   6.170   0.872   1.033
 9016SOL    HW127094   6.204   0.966   1.029
 9016SOL    HW227095   6.109   0.863   1.112
 9017SOL     OW27096   6.951   0.845   1.037
 9017SOL    HW127097   6.861   0.837   0.994
 9017SOL    HW227098   6.986   0.754   1.059
 9018SOL     OW27099   6.771   0.520   0.269
 9018SOL    HW127100   6.794   0.443   0.328
 9018SOL    HW227101   6.732   0.594   0.325
 9019SOL     OW27102   5.897   0.209   1.248
 9019SOL    HW127103   5.833   0.220   1.324
 9019SOL    HW227104   5.884   0.119   1.206
 9020SOL     OW27105   5.636   1.310   1.276
 9020SOL    HW127106   5.669   1.249   1.348
 9020SOL    HW227107   5.640   1.404   1.308
 9021SOL     OW27108   6.315   0.638   1.057
 9021SOL    HW127109   6.388   0.615   0.992
 9021SOL    HW227110   6.277   0.727   1.034
 9022SOL     OW27111   5.905   0.060   0.627
 9022SOL    HW127112   5.883   0.154   0.655
 9022SOL    HW227113   5.858   6.996   0.687
 9023SOL     OW27114   0.190   0.409   0.367
 9023SOL    HW127115   0.242   0.344   0.422
 9023SOL    HW227116   0.177   0.493   0.420
 9024SOL     OW27117   6.610   0.757   0.959
 9024SOL    HW127118   6.605   0.777   1.057
 9024SOL    HW227119   6.583   0.662   0.944
 9025SOL     OW27120   6.555   1.566   1.706
 9025SOL    HW127121   6.543   1.611   1.618
 9025SOL    HW227122   6.607   1.482   1.694
 9026SOL     OW27123   5.939   0.917   1.805
 9026SOL    HW127124   6.019   0.940   1.860
 9026SOL    HW227125   5.965   0.851   1.734
 9027SOL     OW27126   6.886   0.839   0.033
 9027SOL    HW127127   6.942   0.757   0.023
 9027SOL    HW227128   6.905   0.902   6.958
 9028SOL     OW27129   6.650   1.333   0.857
 9028SOL    HW127130   6.654   1.258   0.791
 9028SOL    HW227131   6.702   1.411   0.821
 9029SOL     OW27132   5.897   0.809   0.943
 9029SOL    HW127133   5.993   0.836   0.937
 9029SOL    HW227134   5.891   0.714   0.975
 9030SOL     OW27135   5.921   0.538   1.012
 9030SOL    HW127136   5.879   0.449   1.000
 9030SOL    HW227137   6.002   0.545   0.954
 9031SOL     OW27138   6.689   0.384   1.679
 9031SOL    HW127139   6.646   0.438   1.751
 9031SOL    HW227140   6.788   0.400   1.681
 9032SOL     OW27141   6.720   0.217   1.476
 9032SOL    HW127142   6.712   0.285   1.549
 9032SOL    HW227143   6.769   0.258   1.398
 9033SOL     OW27144   5.680   1.784   0.943
 9033SOL    HW127145   5.642   1.703   0.898
 9033SOL    HW227146   5.773   1.800   0.911
 9034SOL     OW27147   6.080   1.576   0.905
 9034SOL    HW127148   6.150   1.642   0.932
 9034SOL    HW227149   6.120   1.508   0.843
 9035SOL     OW27150   6.565   0.792   1.225
 9035SOL    HW127151   6.623   0.767   1.302
 9035SOL    HW227152   6.475   0.751   1.236
 9036SOL     OW27153   5.621   0.548   1.120
 9036SOL    HW127154   5.699   0.532   1.060
 9036SOL    HW227155   5.652   0.551   1.215
 9037SOL     OW27156   5.771   0.529   1.729
 9037SOL    HW127157   5.849   0.495   1.675
 9037SOL    HW227158   5.730   0.608   1.682
 9038SOL     OW27159   6.401   0.576   0.376
 9038SOL    HW127160   6.413   0.496   0.317
 9038SOL    HW227161   6.321   0.629   0.345
 9039SOL     OW27162   5.826   1.547   1.726
 9039SOL    HW127163   5.805   1.622   1.790
 9039SOL    HW227164   5.832   1.461   1.777
 9040SOL     OW27165   6.296   0.462   1.257
 9040SOL    HW127166   6.241   0.383   1.232
 9040SOL    HW227167   6.295   0.528   1.183
 9041SOL     OW27168   6.500   1.686   1.467
 9041SOL    HW127169   6.481   1.637   1.382
 9041SOL    HW227170   6.496   1.785   1.450
 9042SOL     OW27171   6.041   0.499   0.183
 9042SOL    HW127172   6.106   0.570   0.209
 9042SOL    HW227173   5.948   0.537   0.184
 9043SOL     OW27174   5.728   1.137   1.475
 9043SOL    HW127175   5.730   1.092   1.564
 9043SOL    HW227176   5.747   1.070   1.404
 9044SOL     OW27177   6.896   1.046   1.223
 9044SOL    HW127178   6.920   0.972   1.161
 9044SOL    HW227179   6.832   1.108   1.178
 9045SOL     OW27180   6.886   0.864   0.311
 9045SOL    HW127181   6.809   0.823   0.359
 9045SOL    HW227182   6.877   0.847   0.213
 9046SOL     OW27183   6.845   1.747   1.119
 9046SOL    HW127184   6.923   1.765   1.059
 9046SOL    HW227185   6.834   1.648   1.130
 9047SOL     OW27186   5.671   1.266   1.010
 9047SOL    HW127187   5.655   1.280   1.108
 9047SOL    HW227188   5.600   1.207   0.973
 9048SOL     OW27189   6.266   1.673   1.737
 9048SOL    HW127190   6.205   1.752   1.729
 9048SOL    HW227191   6.341   1.681   1.672
 9049SOL     OW27192   6.498   0.106   0.128
 9049SOL    HW127193   6.570   0.089   0.062
 9049SOL    HW227194   6.493   0.030   0.193
 9050SOL     OW27195   6.974   1.578   0.491
 9050SOL    HW127196   0.061   1.610   0.453
 9050SOL    HW227197   6.921   1.657   0.522
 9051SOL     OW27198   5.730   1.788   1.846
 9051SOL    HW127199   5.673   1.720   1.891
 9051SOL    HW227200   5.780   1.841   1.914
 9052SOL     OW27201   6.870   0.916   0.664
 9052SOL    HW127202   6.956   0.866   0.676
 9052SOL    HW227203   6.887   1.000   0.612
 9053SOL     OW27204   6.384   1.276   1.427
 9053SOL    HW127205   6.355   1.321   1.511
 9053SOL    HW227206   6.317   1.292   1.355
 9054SOL     OW27207   6.251   1.608   0.196
 9054SOL    HW127208   6.306   1.631   0.116
 9054SOL    HW227209   6.194   1.528   0.175
 9055SOL     OW27210   5.845   0.313   0.715
 9055SOL    HW127211   5.755   0.348   0.688
 9055SOL    HW227212   5.852   0.312   0.814
 9056SOL     OW27213   6.742   1.624   0.005
 9056SOL    HW127214   6.826   1.590   0.048
 9056SOL    HW227215   6.731   1.582   6.915
 9057SOL     OW27216   6.412   1.009   1.378
 9057SOL    HW127217   6.458   0.996   1.291
 9057SOL    HW227218   6.405   1.106   1.399
 9058SOL     OW27219   6.504   0.908   0.290
 9058SOL    HW127220   6.557   0.937   0.211
 9058SOL    HW227221   6.556   0.840   0.342
 9059SOL     OW27222   5.951   1.302   1.487
 9059SOL    HW127223   5.942   1.383   1.428
 9059SOL    HW227224   5.871   1.244   1.475
 9060SOL     OW27225   6.640   1.107   0.712
 9060SOL    HW127226   6.566   1.055   0.754
 9060SOL    HW227227   6.706   1.044   0.671
 9061SOL     OW27228   6.599   0.253   0.954
 9061SOL    HW127229   6.571   0.208   0.870
 9061SOL    HW227230   6.594   0.188   1.030
 9062SOL     OW27231   6.197   1.478   0.485
 9062SOL    HW127232   6.238   1.427   0.409
 9062SOL    HW227233   6.135   1.548   0.448
 9063SOL     OW27234   5.863   1.320   0.308
 9063SOL    HW127235   5.779   1.309   0.255
 9063SOL    HW227236   5.843   1.373   0.391
 9064SOL     OW27237   5.700   1.033   1.727
 9064SOL    HW127238   5.618   1.006   1.778
 9064SOL    HW227239   5.780   0.988   1.767
 9065SOL     OW27240   6.254   0.237   1.509
 9065SOL    HW127241   6.334   0.209   1.456
 9065SOL    HW227242   6.284   0.269   1.599
 9066SOL     OW27243   5.696   0.342   0.035
 9066SOL    HW127244   5.641   0.282   6.977
 9066SOL    HW227245   5.737   0.414   6.979
 9067SOL     OW27246   5.657   0.167   0.307
 9067SOL    HW127247   5.644   0.251   0.254
 9067SOL    HW227248   5.737   0.119   0.273
 9068SOL     OW27249   6.211   0.829   1.433
 9068SOL    HW127250   6.267   0.910   1.419
 9068SOL    HW227251   6.270   0.749   1.444
 9069SOL     OW27252   6.310   0.558   1.704
 9069SOL    HW127253   6.351   0.628   1.764
 9069SOL    HW227254   6.326   0.467   1.743
 9070SOL     OW27255   0.004   1.264   1.650
 9070SOL    HW127256   0.001   1.198   1.725
 9070SOL    HW227257   0.082   1.242   1.591
 9071SOL     OW27258   5.959   1.738   1.567
 9071SOL    HW127259   5.874   1.789   1.552
 9071SOL    HW227260   5.937   1.650   1.609
 9072SOL     OW27261   6.817   0.307   0.445
 9072SOL    HW127262   6.887   0.255   0.396
 9072SOL    HW227263   6.858   0.358   0.520
 9073SOL     OW27264   6.174   0.737   0.666
 9073SOL    HW127265   6.214   0.827   0.657
 9073SOL    HW227266   6.103   0.724   0.596
 9074SOL     OW27267   6.449   1.383   0.030
 9074SOL    HW127268   6.411   1.349   0.115
 9074SOL    HW227269   6.461   1.482   0.036
 9075SOL     OW27270   6.251   1.786   0.944
 9075SOL    HW127271   6.227   1.881   0.921
 9075SOL    HW227272   6.349   1.773   0.933
 9076SOL     OW27273   6.453   0.969   0.857
 9076SOL    HW127274   6.506   0.892   0.893
 9076SOL    HW227275   6.413   1.020   0.933
 9077SOL     OW27276   6.658   0.979   0.078
 9077SOL    HW127277   6.692   1.072   0.065
 9077SOL    HW227278   6.733   0.914   0.066
 9078SOL     OW27279   5.816   1.300   1.857
 9078SOL    HW127280   5.749   1.233   1.823
 9078SOL    HW227281   5.802   1.313   1.955
 9079SOL     OW27282   5.668   1.234   0.665
 9079SOL    HW127283   5.685   1.183   0.749
 9079SOL    HW227284   5.717   1.191   0.589
 9080SOL     OW27285   6.262   1.410   1.628
 9080SOL    HW127286   6.184   1.359   1.664
 9080SOL    HW227287   6.265   1.501   1.670
 9081SOL     OW27288   6.017   0.427   0.525
 9081SOL    HW127289   6.048   0.355   0.463
 9081SOL    HW227290   5.963   0.386   0.599
 9082SOL     OW27291   5.920   0.558   1.288
 9082SOL    HW127292   5.977   0.500   1.346
 9082SOL    HW227293   5.937   0.535   1.192
 9083SOL     OW27294   6.411   1.581   0.680
 9083SOL    HW127295   6.402   1.637   0.598
 9083SOL    HW227296   6.334   1.516   0.686
 9084SOL     OW27297   6.975   0.218   1.080
 9084SOL    HW127298   0.007   0.135   1.126
 9084SOL    HW227299   6.930   0.277   1.147
 9085SOL     OW27300   6.562   0.056   1.135
 9085SOL    HW127301   6.505   6.993   1.082
 9085SOL    HW227302   6.616   0.005   1.201
 9086SOL     OW27303   6.366   1.319   0.307
 9086SOL    HW127304   6.332   1.227   0.327
 9086SOL    HW227305   6.447   1.338   0.363
 9087SOL     OW27306   6.209   1.559   1.289
 9087SOL    HW127307   6.207   1.646   1.339
 9087SOL    HW227308   6.300   1.546   1.249
 9088SOL     OW27309   5.672   1.054   0.361
 9088SOL    HW127310   5.760   1.031   0.320
 9088SOL    HW227311   5.618   0.971   0.372
 9089SOL     OW27312   6.463   1.659   0.360
 9089SOL    HW127313   6.387   1.633   0.301
 9089SOL    HW227314   6.439   1.742   0.411
 9090SOL     OW27315   5.807   0.619   1.989
 9090SOL    HW127316   5.718   0.619   2.033
 9090SOL    HW227317   5.796   0.598   1.892
 9091SOL     OW27318   5.808   0.303   2.859
 9091SOL    HW127319   5.848   0.264   2.942
 9091SOL    HW227320   5.725   0.252   2.835
 9092SOL     OW27321   5.595   0.394   2.490
 9092SOL    HW127322   5.506   0.412   2.532
 9092SOL    HW227323   5.586   0.320   2.423
 9093SOL     OW27324   6.154   1.296   3.047
 9093SOL    HW127325   6.064   1.293   3.004
 9093SOL    HW227326   6.172   1.389   3.080
 9094SOL     OW27327   0.070   1.546   2.622
 9094SOL    HW127328   0.103   1.453   2.632
 9094SOL    HW227329   0.041   1.561   2.527
 9095SOL     OW27330   6.693   0.718   2.550
 9095SOL    HW127331   6.759   0.792   2.539
 9095SOL    HW227332   6.658   0.719   2.643
 9096SOL     OW27333   6.331   1.141   2.904
 9096SOL    HW127334   6.263   1.176   2.968
 9096SOL    HW227335   6.375   1.217   2.857
 9097SOL     OW27336   6.459   0.767   3.685
 9097SOL    HW127337   6.441   0.834   3.757
 9097SOL    HW227338   6.482   0.815   3.600
 9098SOL     OW27339   6.270   1.000   2.510
 9098SOL    HW127340   6.341   0.988   2.580
 9098SOL    HW227341   6.195   1.055   2.548
 9099SOL     OW27342   6.293   1.150   3.676
 9099SOL    HW127343   6.343   1.230   3.708
 9099SOL    HW227344   6.207   1.179   3.634
 9100SOL     OW27345   5.912   1.424   2.928
 9100SOL    HW127346   5.836   1.379   2.881
 9100SOL    HW227347   5.966   1.476   2.862
 9101SOL     OW27348   6.029   0.399   3.347
 9101SOL    HW127349   6.115   0.347   3.352
 9101SOL    HW227350   5.952   0.335   3.351
 9102SOL     OW27351   5.808   1.714   2.334
 9102SOL    HW127352   5.826   1.793   2.393
 9102SOL    HW227353   5.882   1.704   2.268
 9103SOL     OW27354   6.715   1.345   3.565
 9103SOL    HW127355   6.810   1.315   3.576
 9103SOL    HW227356   6.655   1.266   3.566
 9104SOL     OW27357   5.819   1.443   2.398
 9104SOL    HW127358   5.803   1.542   2.397
 9104SOL    HW227359   5.759   1.400   2.465
 9105SOL     OW27360   5.854   1.090   2.763
 9105SOL    HW127361   5.850   0.996   2.795
 9105SOL    HW227362   5.791   1.147   2.816
 9106SOL     OW27363   6.185   1.798   3.287
 9106SOL    HW127364   6.102   1.773   3.338
 9106SOL    HW227365   6.215   1.888   3.316
 9107SOL     OW27366   6.169   0.986   2.002
 9107SOL    HW127367   6.215   1.034   1.927
 9107SOL    HW227368   6.209   1.015   2.089
 9108SOL     OW27369   5.700   0.661   2.425
 9108SOL    HW127370   5.673   0.566   2.442
 9108SOL    HW227371   5.694   0.713   2.511
 9109SOL     OW27372   5.615   1.591   1.986
 9109SOL    HW127373   5.599   1.494   2.005
 9109SOL    HW227374   5.594   1.645   2.067
 9110SOL     OW27375   5.708   0.748   3.445
 9110SOL    HW127376   5.804   0.776   3.448
 9110SOL    HW227377   5.650   0.830   3.446
 9111SOL     OW27378   6.198   1.390   2.595
 9111SOL    HW127379   6.152   1.302   2.608
 9111SOL    HW227380   6.185   1.421   2.501
 9112SOL     OW27381   6.841   1.222   3.294
 9112SOL    HW127382   6.879   1.152   3.234
 9112SOL    HW227383   6.903   1.236   3.371
 9113SOL     OW27384   6.411   0.025   2.379
 9113SOL    HW127385   6.449   0.116   2.361
 9113SOL    HW227386   6.311   0.031   2.383
 9114SOL     OW27387   5.776   0.962   3.138
 9114SOL    HW127388   5.865   0.919   3.123
 9114SOL    HW227389   5.707   0.915   3.083
 9115SOL     OW27390   6.779   1.813   3.478
 9115SOL    HW127391   6.766   1.881   3.407
 9115SOL    HW227392   6.780   1.722   3.438
 9116SOL     OW27393   5.905   0.269   3.652
 9116SOL    HW127394   5.968   0.336   3.692
 9116SOL    HW227395   5.818   0.272   3.702
 9117SOL     OW27396   6.179   0.719   2.133
 9117SOL    HW127397   6.185   0.806   2.083
 9117SOL    HW227398   6.111   0.727   2.205
 9118SOL     OW27399   6.851   0.371   2.752
 9118SOL    HW127400   6.755   0.354   2.775
 9118SOL    HW227401   6.910   0.331   2.823
 9119SOL     OW27402   6.387   0.614   3.317
 9119SOL    HW127403   6.357   0.590   3.409
 9119SOL    HW227404   6.346   0.552   3.251
 9120SOL     OW27405   6.943   0.465   3.537
 9120SOL    HW127406   6.906   0.543   3.587
 9120SOL    HW227407   0.043   0.466   3.543
 9121SOL     OW27408   6.543   0.885   3.445
 9121SOL    HW127409   6.599   0.812   3.407
 9121SOL    HW227410   6.490   0.928   3.371
 9122SOL     OW27411   6.592   0.412   3.093
 9122SOL    HW127412   6.505   0.430   3.139
 9122SOL    HW227413   6.574   0.366   3.006
 9123SOL     OW27414   6.635   0.700   2.286
 9123SOL    HW127415   6.653   0.701   2.384
 9123SOL    HW227416   6.548   0.653   2.268
 9124SOL     OW27417   5.674   0.828   2.642
 9124SOL    HW127418   5.760   0.815   2.692
 9124SOL    HW227419   5.625   0.907   2.678
 9125SOL     OW27420   5.714   1.870   3.449
 9125SOL    HW127421   5.719   1.842   3.545
 9125SOL    HW227422   5.629   1.838   3.409
 9126SOL     OW27423   6.475   0.353   2.060
 9126SOL    HW127424   6.523   0.413   1.996
 9126SOL    HW227425   6.454   0.266   2.016
 9127SOL     OW27426   6.927   1.132   2.379
 9127SOL    HW127427   6.998   1.116   2.311
 9127SOL    HW227428   6.875   1.214   2.353
 9128SOL     OW27429   6.090   0.191   2.773
 9128SOL    HW127430   6.130   0.223   2.859
 9128SOL    HW227431   6.116   0.254   2.700
 9129SOL     OW27432   6.572   1.448   2.333
 9129SOL    HW127433   6.540   1.526   2.279
 9129SOL    HW227434   6.548   1.463   2.429
 9130SOL     OW27435   5.942   1.813   2.731
 9130SOL    HW127436   5.986   1.724   2.738
 9130SOL    HW227437   6.009   1.885   2.750
 9131SOL     OW27438   6.797   1.557   3.367
 9131SOL    HW127439   6.804   1.481   3.431
 9131SOL    HW227440   6.751   1.526   3.284
 9132SOL     OW27441   5.908   0.959   2.116
 9132SOL    HW127442   5.996   0.979   2.072
 9132SOL    HW227443   5.871   0.874   2.078
 9133SOL     OW27444   6.052   1.263   3.593
 9133SOL    HW127445   6.026   1.270   3.496
 9133SOL    HW227446   5.970   1.262   3.650
 9134SOL     OW27447   6.711   1.771   2.105
 9134SOL    HW127448   6.628   1.741   2.152
 9134SOL    HW227449   6.725   1.714   2.023
 9135SOL     OW27450   5.778   0.273   3.373
 9135SOL    HW127451   5.718   0.351   3.358
 9135SOL    HW227452   5.799   0.265   3.470
 9136SOL     OW27453   6.050   1.735   2.180
 9136SOL    HW127454   6.092   1.797   2.247
 9136SOL    HW227455   6.121   1.698   2.120
 9137SOL     OW27456   5.844   1.792   3.089
 9137SOL    HW127457   5.896   1.720   3.136
 9137SOL    HW227458   5.826   1.763   2.995
 9138SOL     OW27459   6.524   1.701   2.759
 9138SOL    HW127460   6.609   1.654   2.781
 9138SOL    HW227461   6.477   1.651   2.686
 9139SOL     OW27462   5.981   0.687   2.337
 9139SOL    HW127463   6.002   0.590   2.350
 9139SOL    HW227464   5.884   0.703   2.355
 9140SOL     OW27465   6.229   0.112   1.964
 9140SOL    HW127466   6.269   0.037   2.017
 9140SOL    HW227467   6.167   0.074   1.895
 9141SOL     OW27468   6.349   0.276   3.628
 9141SOL    HW127469   6.435   0.226   3.624
 9141SOL    HW227470   6.292   0.237   3.701
 9142SOL     OW27471   6.460   1.518   3.054
 9142SOL    HW127472   6.441   1.482   2.962
 9142SOL    HW227473   6.532   1.463   3.096
 9143SOL     OW27474   6.402   1.391   2.803
 9143SOL    HW127475   6.492   1.377   2.762
 9143SOL    HW227476   6.333   1.395   2.731
 9144SOL     OW27477   6.509   0.512   2.759
 9144SOL    HW127478   6.484   0.507   2.662
 9144SOL    HW227479   6.538   0.422   2.791
 9145SOL     OW27480   6.142   0.066   2.357
 9145SOL    HW127481   6.060   0.055   2.413
 9145SOL    HW227482   6.130   0.142   2.293
 9146SOL     OW27483   6.988   1.123   1.882
 9146SOL    HW127484   0.025   1.074   1.961
 9146SOL    HW227485   6.923   1.192   1.913
 9147SOL     OW27486   5.896   0.048   2.048
 9147SOL    HW127487   5.937   0.139   2.043
 9147SOL    HW227488   5.950   6.990   2.110
 9148SOL     OW27489   6.537   0.263   2.317
 9148SOL    HW127490   6.501   0.299   2.231
 9148SOL    HW227491   6.637   0.274   2.318
 9149SOL     OW27492   6.657   0.669   3.322
 9149SOL    HW127493   6.563   0.636   3.324
 9149SOL    HW227494   6.720   0.591   3.325
 9150SOL     OW27495   6.783   1.574   2.663
 9150SOL    HW127496   6.801   1.639   2.589
 9150SOL    HW227497   6.867   1.555   2.713
 9151SOL     OW27498   6.054   1.152   2.591
 9151SOL    HW127499   5.987   1.131   2.662
 9151SOL    HW227500   6.013   1.138   2.501
 9152SOL     OW27501   6.841   1.792   2.468
 9152SOL    HW127502   6.879   1.853   2.399
 9152SOL    HW227503   6.771   1.840   2.521
 9153SOL     OW27504   6.609   0.540   1.890
 9153SOL    HW127505   6.562   0.627   1.873
 9153SOL    HW227506   6.673   0.551   1.966
 9154SOL     OW27507   5.676   0.552   3.259
 9154SOL    HW127508   5.769   0.553   3.222
 9154SOL    HW227509   5.666   0.626   3.325
 9155SOL     OW27510   6.158   0.244   3.037
 9155SOL    HW127511   6.210   0.170   3.078
 9155SOL    HW227512   6.062   0.238   3.067
 9156SOL     OW27513   6.450   0.460   2.499
 9156SOL    HW127514   6.403   0.525   2.439
 9156SOL    HW227515   6.477   0.379   2.447
 9157SOL     OW27516   6.527   0.032   2.636
 9157SOL    HW127517   6.475   0.020   2.551
 9157SOL    HW227518   6.610   6.977   2.632
 9158SOL     OW27519   6.073   1.421   2.020
 9158SOL    HW127520   5.992   1.393   2.071
 9158SOL    HW227521   6.073   1.376   1.931
 9159SOL     OW27522   6.111   0.263   2.166
 9159SOL    HW127523   6.166   0.213   2.100
 9159SOL    HW227524   6.086   0.352   2.129
 9160SOL     OW27525   6.629   1.348   3.194
 9160SOL    HW127526   6.546   1.321   3.243
 9160SOL    HW227527   6.709   1.304   3.236
 9161SOL     OW27528   6.726   1.224   2.963
 9161SOL    HW127529   6.668   1.255   3.038
 9161SOL    HW227530   6.685   1.251   2.876
 9162SOL     OW27531   6.476   0.148   3.248
 9162SOL    HW127532   6.492   0.110   3.157
 9162SOL    HW227533   6.564   0.169   3.291
 9163SOL     OW27534   6.565   1.112   3.589
 9163SOL    HW127535   6.471   1.135   3.614
 9163SOL    HW227536   6.566   1.033   3.529
 9164SOL     OW27537   6.298   1.058   2.235
 9164SOL    HW127538   6.281   1.042   2.332
 9164SOL    HW227539   6.376   1.004   2.205
 9165SOL     OW27540   6.009   0.816   3.116
 9165SOL    HW127541   6.082   0.828   3.183
 9165SOL    HW227542   5.969   0.725   3.125
 9166SOL     OW27543   6.857   0.363   3.145
 9166SOL    HW127544   6.914   0.442   3.170
 9166SOL    HW227545   6.765   0.395   3.120
 9167SOL     OW27546   5.660   1.572   3.215
 9167SOL    HW127547   5.625   1.643   3.153
 9167SOL    HW227548   5.760   1.570   3.209
 9168SOL     OW27549   5.929   1.117   2.349
 9168SOL    HW127550   5.935   1.199   2.292
 9168SOL    HW227551   5.927   1.036   2.291
 9169SOL     OW27552   6.139   0.547   2.724
 9169SOL    HW127553   6.153   0.606   2.644
 9169SOL    HW227554   6.210   0.566   2.792
 9170SOL     OW27555   6.824   1.369   2.279
 9170SOL    HW127556   6.879   1.446   2.313
 9170SOL    HW227557   6.727   1.387   2.296
 9171SOL     OW27558   6.850   1.476   3.002
 9171SOL    HW127559   6.929   1.471   3.064
 9171SOL    HW227560   6.809   1.385   2.994
 9172SOL     OW27561   5.934   1.529   3.172
 9172SOL    HW127562   5.918   1.485   3.084
 9172SOL    HW227563   6.032   1.543   3.185
 9173SOL     OW27564   6.003   0.744   3.463
 9173SOL    HW127565   6.066   0.793   3.402
 9173SOL    HW227566   6.040   0.653   3.484
 9174SOL     OW27567   6.582   0.130   3.612
 9174SOL    HW127568   6.623   0.193   3.546
 9174SOL    HW227569   6.597   0.036   3.583
 9175SOL     OW27570   6.049   0.040   3.620
 9175SOL    HW127571   5.986   6.967   3.594
 9175SOL    HW227572   5.999   0.125   3.630
 9176SOL     OW27573   6.170   0.873   2.895
 9176SOL    HW127574   6.205   0.967   2.892
 9176SOL    HW227575   6.109   0.863   2.974
 9177SOL     OW27576   6.951   0.845   2.895
 9177SOL    HW127577   6.859   0.836   2.857
 9177SOL    HW227578   6.986   0.755   2.920
 9178SOL     OW27579   6.770   0.538   2.112
 9178SOL    HW127580   6.790   0.452   2.158
 9178SOL    HW227581   6.730   0.602   2.178
 9179SOL     OW27582   5.897   0.209   3.110
 9179SOL    HW127583   5.833   0.219   3.186
 9179SOL    HW227584   5.884   0.120   3.067
 9180SOL     OW27585   5.638   1.310   3.138
 9180SOL    HW127586   5.670   1.249   3.210
 9180SOL    HW227587   5.641   1.405   3.170
 9181SOL     OW27588   6.316   0.638   2.919
 9181SOL    HW127589   6.389   0.615   2.854
 9181SOL    HW227590   6.277   0.727   2.896
 9182SOL     OW27591   5.907   0.060   2.491
 9182SOL    HW127592   5.884   0.154   2.517
 9182SOL    HW227593   5.865   6.996   2.555
 9183SOL     OW27594   0.196   0.438   2.210
 9183SOL    HW127595   0.214   0.348   2.249
 9183SOL    HW227596   0.181   0.504   2.284
 9184SOL     OW27597   6.610   0.757   2.821
 9184SOL    HW127598   6.605   0.777   2.919
 9184SOL    HW227599   6.583   0.662   2.806
 9185SOL     OW27600   6.555   1.566   3.568
 9185SOL    HW127601   6.543   1.611   3.480
 9185SOL    HW227602   6.607   1.482   3.556
 9186SOL     OW27603   5.939   0.918   3.666
 9186SOL    HW127604   6.019   0.940   3.722
 9186SOL    HW227605   5.965   0.851   3.596
 9187SOL     OW27606   6.883   0.819   1.891
 9187SOL    HW127607   6.940   0.746   1.928
 9187SOL    HW227608   6.923   0.852   1.805
 9188SOL     OW27609   6.650   1.333   2.717
 9188SOL    HW127610   6.654   1.257   2.652
 9188SOL    HW227611   6.702   1.411   2.682
 9189SOL     OW27612   5.897   0.809   2.805
 9189SOL    HW127613   5.993   0.835   2.798
 9189SOL    HW227614   5.890   0.714   2.836
 9190SOL     OW27615   5.921   0.539   2.874
 9190SOL    HW127616   5.878   0.449   2.862
 9190SOL    HW227617   6.002   0.545   2.816
 9191SOL     OW27618   6.689   0.385   3.540
 9191SOL    HW127619   6.646   0.438   3.613
 9191SOL    HW227620   6.788   0.400   3.542
 9192SOL     OW27621   6.720   0.217   3.338
 9192SOL    HW127622   6.712   0.286   3.411
 9192SOL    HW227623   6.769   0.257   3.260
 9193SOL     OW27624   5.586   1.316   2.057
 9193SOL    HW127625   5.497   1.335   2.017
 9193SOL    HW227626   5.587   1.222   2.092
 9194SOL     OW27627   5.679   1.784   2.805
 9194SOL    HW127628   5.643   1.703   2.760
 9194SOL    HW227629   5.773   1.800   2.773
 9195SOL     OW27630   6.080   1.576   2.767
 9195SOL    HW127631   6.150   1.642   2.794
 9195SOL    HW227632   6.120   1.508   2.705
 9196SOL     OW27633   6.564   0.793   3.087
 9196SOL    HW127634   6.623   0.767   3.164
 9196SOL    HW227635   6.475   0.750   3.098
 9197SOL     OW27636   5.621   0.550   2.982
 9197SOL    HW127637   5.699   0.530   2.922
 9197SOL    HW227638   5.652   0.551   3.077
 9198SOL     OW27639   5.771   0.529   3.591
 9198SOL    HW127640   5.848   0.495   3.538
 9198SOL    HW227641   5.730   0.608   3.544
 9199SOL     OW27642   6.403   0.575   2.220
 9199SOL    HW127643   6.411   0.494   2.162
 9199SOL    HW227644   6.324   0.629   2.191
 9200SOL     OW27645   5.826   1.547   3.588
 9200SOL    HW127646   5.805   1.622   3.652
 9200SOL    HW227647   5.832   1.461   3.638
 9201SOL     OW27648   6.297   0.462   3.119
 9201SOL    HW127649   6.241   0.383   3.094
 9201SOL    HW227650   6.296   0.529   3.045
 9202SOL     OW27651   6.500   1.687   3.329
 9202SOL    HW127652   6.481   1.637   3.244
 9202SOL    HW227653   6.496   1.785   3.312
 9203SOL     OW27654   6.046   0.496   2.041
 9203SOL    HW127655   6.110   0.567   2.069
 9203SOL    HW227656   5.955   0.535   2.030
 9204SOL     OW27657   5.728   1.137   3.337
 9204SOL    HW127658   5.730   1.092   3.426
 9204SOL    HW227659   5.748   1.070   3.265
 9205SOL     OW27660   6.896   1.045   3.084
 9205SOL    HW127661   6.920   0.972   3.021
 9205SOL    HW227662   6.832   1.108   3.040
 9206SOL     OW27663   6.888   0.871   2.170
 9206SOL    HW127664   6.821   0.833   2.233
 9206SOL    HW227665   6.859   0.853   2.076
 9207SOL     OW27666   6.844   1.747   2.979
 9207SOL    HW127667   6.923   1.765   2.920
 9207SOL    HW227668   6.834   1.648   2.992
 9208SOL     OW27669   5.671   1.265   2.873
 9208SOL    HW127670   5.656   1.280   2.970
 9208SOL    HW227671   5.599   1.207   2.836
 9209SOL     OW27672   6.266   1.673   3.599
 9209SOL    HW127673   6.206   1.752   3.591
 9209SOL    HW227674   6.341   1.681   3.534
 9210SOL     OW27675   6.978   1.584   2.348
 9210SOL    HW127676   0.064   1.624   2.317
 9210SOL    HW227677   6.918   1.656   2.382
 9211SOL     OW27678   5.730   1.788   3.708
 9211SOL    HW127679   5.673   1.720   3.753
 9211SOL    HW227680   5.780   1.841   3.776
 9212SOL     OW27681   6.869   0.917   2.523
 9212SOL    HW127682   6.955   0.871   2.543
 9212SOL    HW227683   6.887   0.999   2.468
 9213SOL     OW27684   6.384   1.276   3.288
 9213SOL    HW127685   6.355   1.321   3.373
 9213SOL    HW227686   6.316   1.291   3.217
 9214SOL     OW27687   6.254   1.623   2.017
 9214SOL    HW127688   6.271   1.639   1.920
 9214SOL    HW227689   6.197   1.541   2.027
 9215SOL     OW27690   5.846   0.313   2.578
 9215SOL    HW127691   5.757   0.349   2.551
 9215SOL    HW227692   5.852   0.311   2.677
 9216SOL     OW27693   6.750   1.609   1.898
 9216SOL    HW127694   6.771   1.512   1.903
 9216SOL    HW227695   6.689   1.626   1.821
 9217SOL     OW27696   6.411   1.009   3.240
 9217SOL    HW127697   6.459   0.996   3.153
 9217SOL    HW227698   6.405   1.106   3.261
 9218SOL     OW27699   6.504   0.909   2.147
 9218SOL    HW127700   6.568   0.947   2.080
 9218SOL    HW227701   6.550   0.839   2.201
 9219SOL     OW27702   5.951   1.302   3.349
 9219SOL    HW127703   5.942   1.383   3.291
 9219SOL    HW227704   5.871   1.244   3.337
 9220SOL     OW27705   6.642   1.106   2.573
 9220SOL    HW127706   6.567   1.055   2.615
 9220SOL    HW227707   6.709   1.042   2.536
 9221SOL     OW27708   6.599   0.253   2.816
 9221SOL    HW127709   6.571   0.208   2.731
 9221SOL    HW227710   6.594   0.188   2.892
 9222SOL     OW27711   6.191   1.487   2.341
 9222SOL    HW127712   6.242   1.432   2.275
 9222SOL    HW227713   6.116   1.534   2.295
 9223SOL     OW27714   5.838   1.347   2.150
 9223SOL    HW127715   5.742   1.341   2.123
 9223SOL    HW227716   5.844   1.386   2.242
 9224SOL     OW27717   5.700   1.033   3.589
 9224SOL    HW127718   5.618   1.006   3.640
 9224SOL    HW227719   5.780   0.988   3.628
 9225SOL     OW27720   6.254   0.238   3.371
 9225SOL    HW127721   6.334   0.209   3.318
 9225SOL    HW227722   6.284   0.269   3.461
 9226SOL     OW27723   5.661   0.334   1.896
 9226SOL    HW127724   5.565   0.311   1.879
 9226SOL    HW227725   5.687   0.414   1.842
 9227SOL     OW27726   5.659   0.178   2.180
 9227SOL    HW127727   5.660   0.249   2.109
 9227SOL    HW227728   5.713   0.099   2.150
 9228SOL     OW27729   6.211   0.829   3.295
 9228SOL    HW127730   6.267   0.910   3.281
 9228SOL    HW227731   6.270   0.749   3.307
 9229SOL     OW27732   6.310   0.558   3.567
 9229SOL    HW127733   6.351   0.627   3.626
 9229SOL    HW227734   6.326   0.467   3.605
 9230SOL     OW27735   0.004   1.264   3.512
 9230SOL    HW127736   0.001   1.198   3.587
 9230SOL    HW227737   0.082   1.242   3.453
 9231SOL     OW27738   5.958   1.738   3.429
 9231SOL    HW127739   5.874   1.789   3.414
 9231SOL    HW227740   5.937   1.650   3.471
 9232SOL     OW27741   6.817   0.308   2.302
 9232SOL    HW127742   6.890   0.256   2.257
 9232SOL    HW227743   6.856   0.363   2.376
 9233SOL     OW27744   6.174   0.738   2.529
 9233SOL    HW127745   6.215   0.828   2.518
 9233SOL    HW227746   6.104   0.724   2.459
 9234SOL     OW27747   6.429   1.367   1.893
 9234SOL    HW127748   6.410   1.389   1.989
 9234SOL    HW227749   6.461   1.450   1.846
 9235SOL     OW27750   6.250   1.786   2.804
 9235SOL    HW127751   6.227   1.881   2.783
 9235SOL    HW227752   6.349   1.774   2.795
 9236SOL     OW27753   6.454   0.970   2.718
 9236SOL    HW127754   6.506   0.892   2.754
 9236SOL    HW227755   6.413   1.020   2.795
 9237SOL     OW27756   6.670   0.990   1.950
 9237SOL    HW127757   6.636   1.043   1.873
 9237SOL    HW227758   6.743   0.929   1.918
 9238SOL     OW27759   5.816   1.300   3.719
 9238SOL    HW127760   5.749   1.233   3.685
 9238SOL    HW227761   5.803   1.313   3.817
 9239SOL     OW27762   5.673   1.230   2.525
 9239SOL    HW127763   5.676   1.184   2.614
 9239SOL    HW227764   5.741   1.190   2.464
 9240SOL     OW27765   6.262   1.410   3.489
 9240SOL    HW127766   6.184   1.359   3.526
 9240SOL    HW227767   6.265   1.501   3.532
 9241SOL     OW27768   6.017   0.426   2.386
 9241SOL    HW127769   6.051   0.355   2.325
 9241SOL    HW227770   5.963   0.384   2.459
 9242SOL     OW27771   5.920   0.558   3.150
 9242SOL    HW127772   5.977   0.500   3.208
 9242SOL    HW227773   5.937   0.535   3.054
 9243SOL     OW27774   6.412   1.580   2.541
 9243SOL    HW127775   6.397   1.641   2.463
 9243SOL    HW227776   6.336   1.516   2.549
 9244SOL     OW27777   6.975   0.217   2.942
 9244SOL    HW127778   0.007   0.134   2.987
 9244SOL    HW227779   6.930   0.276   3.009
 9245SOL     OW27780   6.561   0.056   2.997
 9245SOL    HW127781   6.505   6.993   2.943
 9245SOL    HW227782   6.616   0.005   3.063
 9246SOL     OW27783   6.360   1.332   2.182
 9246SOL    HW127784   6.331   1.236   2.188
 9246SOL    HW227785   6.445   1.345   2.232
 9247SOL     OW27786   6.209   1.559   3.151
 9247SOL    HW127787   6.207   1.646   3.201
 9247SOL    HW227788   6.300   1.546   3.111
 9248SOL     OW27789   5.629   1.065   2.170
 9248SOL    HW127790   5.727   1.065   2.150
 9248SOL    HW227791   5.599   0.972   2.192
 9249SOL     OW27792   6.466   1.664   2.204
 9249SOL    HW127793   6.393   1.642   2.140
 9249SOL    HW227794   6.437   1.741   2.262
 9250SOL     OW27795   5.807   0.620   3.851
 9250SOL    HW127796   5.718   0.619   3.895
 9250SOL    HW227797   5.796   0.598   3.754
 9251SOL     OW27798   5.808   0.303   4.721
 9251SOL    HW127799   5.848   0.264   4.804
 9251SOL    HW227800   5.725   0.252   4.697
 9252SOL     OW27801   5.595   0.394   4.352
 9252SOL    HW127802   5.506   0.412   4.394
 9252SOL    HW227803   5.586   0.320   4.285
 9253SOL     OW27804   6.154   1.296   4.909
 9253SOL    HW127805   6.064   1.293   4.866
 9253SOL    HW227806   6.172   1.389   4.942
 9254SOL     OW27807   0.070   1.547   4.484
 9254SOL    HW127808   0.103   1.453   4.495
 9254SOL    HW227809   0.041   1.561   4.389
 9255SOL     OW27810   6.693   0.718   4.412
 9255SOL    HW127811   6.759   0.792   4.401
 9255SOL    HW227812   6.658   0.719   4.505
 9256SOL     OW27813   6.331   1.141   4.766
 9256SOL    HW127814   6.263   1.176   4.830
 9256SOL    HW227815   6.375   1.217   4.719
 9257SOL     OW27816   6.459   0.767   5.547
 9257SOL    HW127817   6.440   0.834   5.619
 9257SOL    HW227818   6.482   0.815   5.462
 9258SOL     OW27819   6.270   1.000   4.372
 9258SOL    HW127820   6.341   0.988   4.442
 9258SOL    HW227821   6.195   1.055   4.410
 9259SOL     OW27822   6.293   1.150   5.538
 9259SOL    HW127823   6.343   1.230   5.570
 9259SOL    HW227824   6.207   1.179   5.496
 9260SOL     OW27825   5.912   1.424   4.790
 9260SOL    HW127826   5.836   1.379   4.743
 9260SOL    HW227827   5.966   1.476   4.724
 9261SOL     OW27828   6.030   0.399   5.209
 9261SOL    HW127829   6.115   0.347   5.214
 9261SOL    HW227830   5.952   0.336   5.213
 9262SOL     OW27831   5.808   1.714   4.196
 9262SOL    HW127832   5.826   1.793   4.255
 9262SOL    HW227833   5.882   1.704   4.130
 9263SOL     OW27834   6.715   1.345   5.427
 9263SOL    HW127835   6.809   1.316   5.439
 9263SOL    HW227836   6.654   1.266   5.427
 9264SOL     OW27837   5.819   1.443   4.260
 9264SOL    HW127838   5.803   1.542   4.259
 9264SOL    HW227839   5.759   1.400   4.327
 9265SOL     OW27840   5.854   1.090   4.625
 9265SOL    HW127841   5.850   0.996   4.657
 9265SOL    HW227842   5.792   1.147   4.678
 9266SOL     OW27843   6.184   1.798   5.149
 9266SOL    HW127844   6.102   1.773   5.200
 9266SOL    HW227845   6.215   1.888   5.178
 9267SOL     OW27846   6.169   0.986   3.864
 9267SOL    HW127847   6.215   1.034   3.789
 9267SOL    HW227848   6.209   1.015   3.951
 9268SOL     OW27849   5.700   0.661   4.287
 9268SOL    HW127850   5.673   0.566   4.304
 9268SOL    HW227851   5.694   0.713   4.373
 9269SOL     OW27852   5.615   1.591   3.847
 9269SOL    HW127853   5.599   1.494   3.866
 9269SOL    HW227854   5.594   1.645   3.929
 9270SOL     OW27855   5.708   0.748   5.306
 9270SOL    HW127856   5.804   0.776   5.310
 9270SOL    HW227857   5.650   0.830   5.309
 9271SOL     OW27858   6.198   1.390   4.457
 9271SOL    HW127859   6.152   1.302   4.470
 9271SOL    HW227860   6.185   1.421   4.363
 9272SOL     OW27861   6.841   1.222   5.156
 9272SOL    HW127862   6.880   1.152   5.096
 9272SOL    HW227863   6.903   1.237   5.233
 9273SOL     OW27864   6.411   0.025   4.241
 9273SOL    HW127865   6.449   0.116   4.223
 9273SOL    HW227866   6.311   0.031   4.245
 9274SOL     OW27867   5.776   0.962   5.000
 9274SOL    HW127868   5.865   0.919   4.985
 9274SOL    HW227869   5.707   0.915   4.946
 9275SOL     OW27870   6.780   1.813   5.340
 9275SOL    HW127871   6.766   1.881   5.269
 9275SOL    HW227872   6.780   1.722   5.300
 9276SOL     OW27873   5.905   0.269   5.515
 9276SOL    HW127874   5.968   0.337   5.554
 9276SOL    HW227875   5.818   0.272   5.564
 9277SOL     OW27876   6.179   0.719   3.995
 9277SOL    HW127877   6.185   0.806   3.945
 9277SOL    HW227878   6.111   0.727   4.068
 9278SOL     OW27879   6.851   0.371   4.614
 9278SOL    HW127880   6.755   0.354   4.637
 9278SOL    HW227881   6.910   0.331   4.685
 9279SOL     OW27882   6.388   0.614   5.179
 9279SOL    HW127883   6.357   0.590   5.271
 9279SOL    HW227884   6.346   0.552   5.113
 9280SOL     OW27885   6.943   0.465   5.399
 9280SOL    HW127886   6.906   0.543   5.448
 9280SOL    HW227887   0.043   0.466   5.405
 9281SOL     OW27888   6.543   0.885   5.307
 9281SOL    HW127889   6.599   0.812   5.269
 9281SOL    HW227890   6.490   0.928   5.233
 9282SOL     OW27891   6.592   0.411   4.955
 9282SOL    HW127892   6.505   0.431   5.001
 9282SOL    HW227893   6.574   0.366   4.868
 9283SOL     OW27894   6.635   0.700   4.148
 9283SOL    HW127895   6.653   0.701   4.246
 9283SOL    HW227896   6.548   0.653   4.130
 9284SOL     OW27897   5.674   0.828   4.504
 9284SOL    HW127898   5.760   0.815   4.554
 9284SOL    HW227899   5.625   0.907   4.540
 9285SOL     OW27900   5.714   1.869   5.311
 9285SOL    HW127901   5.719   1.842   5.407
 9285SOL    HW227902   5.628   1.838   5.271
 9286SOL     OW27903   6.475   0.353   3.923
 9286SOL    HW127904   6.523   0.412   3.858
 9286SOL    HW227905   6.454   0.266   3.878
 9287SOL     OW27906   6.927   1.132   4.241
 9287SOL    HW127907   6.998   1.116   4.173
 9287SOL    HW227908   6.875   1.214   4.215
 9288SOL     OW27909   6.091   0.191   4.635
 9288SOL    HW127910   6.130   0.223   4.721
 9288SOL    HW227911   6.116   0.254   4.562
 9289SOL     OW27912   6.572   1.448   4.195
 9289SOL    HW127913   6.540   1.526   4.141
 9289SOL    HW227914   6.548   1.463   4.291
 9290SOL     OW27915   5.942   1.813   4.593
 9290SOL    HW127916   5.986   1.723   4.600
 9290SOL    HW227917   6.009   1.885   4.612
 9291SOL     OW27918   6.798   1.557   5.228
 9291SOL    HW127919   6.804   1.481   5.293
 9291SOL    HW227920   6.750   1.526   5.146
 9292SOL     OW27921   5.908   0.959   3.978
 9292SOL    HW127922   5.996   0.979   3.934
 9292SOL    HW227923   5.871   0.873   3.940
 9293SOL     OW27924   6.053   1.262   5.454
 9293SOL    HW127925   6.026   1.270   5.358
 9293SOL    HW227926   5.971   1.262   5.512
 9294SOL     OW27927   6.711   1.771   3.967
 9294SOL    HW127928   6.629   1.741   4.015
 9294SOL    HW227929   6.725   1.715   3.885
 9295SOL     OW27930   5.778   0.273   5.235
 9295SOL    HW127931   5.718   0.352   5.220
 9295SOL    HW227932   5.799   0.265   5.332
 9296SOL     OW27933   6.050   1.735   4.042
 9296SOL    HW127934   6.092   1.797   4.109
 9296SOL    HW227935   6.121   1.698   3.982
 9297SOL     OW27936   5.844   1.792   4.951
 9297SOL    HW127937   5.896   1.720   4.998
 9297SOL    HW227938   5.826   1.763   4.857
 9298SOL     OW27939   6.524   1.701   4.621
 9298SOL    HW127940   6.609   1.654   4.643
 9298SOL    HW227941   6.477   1.651   4.548
 9299SOL     OW27942   5.981   0.687   4.199
 9299SOL    HW127943   6.002   0.590   4.212
 9299SOL    HW227944   5.884   0.703   4.217
 9300SOL     OW27945   6.229   0.112   3.826
 9300SOL    HW127946   6.269   0.037   3.879
 9300SOL    HW227947   6.167   0.074   3.757
 9301SOL     OW27948   6.349   0.276   5.490
 9301SOL    HW127949   6.435   0.226   5.486
 9301SOL    HW227950   6.292   0.237   5.563
 9302SOL     OW27951   6.460   1.518   4.916
 9302SOL    HW127952   6.441   1.482   4.824
 9302SOL    HW227953   6.532   1.463   4.958
 9303SOL     OW27954   6.402   1.391   4.665
 9303SOL    HW127955   6.492   1.377   4.624
 9303SOL    HW227956   6.333   1.395   4.593
 9304SOL     OW27957   6.509   0.512   4.621
 9304SOL    HW127958   6.484   0.507   4.524
 9304SOL    HW227959   6.538   0.422   4.653
 9305SOL     OW27960   6.142   0.066   4.219
 9305SOL    HW127961   6.060   0.055   4.275
 9305SOL    HW227962   6.130   0.142   4.155
 9306SOL     OW27963   6.989   1.123   3.744
 9306SOL    HW127964   0.025   1.074   3.823
 9306SOL    HW227965   6.924   1.193   3.775
 9307SOL     OW27966   5.896   0.048   3.911
 9307SOL    HW127967   5.938   0.138   3.905
 9307SOL    HW227968   5.950   6.990   3.972
 9308SOL     OW27969   6.537   0.263   4.179
 9308SOL    HW127970   6.501   0.298   4.093
 9308SOL    HW227971   6.637   0.274   4.180
 9309SOL     OW27972   6.657   0.669   5.184
 9309SOL    HW127973   6.563   0.637   5.186
 9309SOL    HW227974   6.719   0.591   5.187
 9310SOL     OW27975   6.783   1.574   4.525
 9310SOL    HW127976   6.802   1.639   4.451
 9310SOL    HW227977   6.867   1.555   4.576
 9311SOL     OW27978   6.054   1.152   4.453
 9311SOL    HW127979   5.987   1.131   4.524
 9311SOL    HW227980   6.013   1.138   4.363
 9312SOL     OW27981   6.841   1.791   4.330
 9312SOL    HW127982   6.879   1.853   4.261
 9312SOL    HW227983   6.771   1.839   4.383
 9313SOL     OW27984   6.609   0.540   3.752
 9313SOL    HW127985   6.562   0.627   3.735
 9313SOL    HW227986   6.673   0.551   3.828
 9314SOL     OW27987   5.676   0.552   5.121
 9314SOL    HW127988   5.769   0.553   5.084
 9314SOL    HW227989   5.666   0.626   5.187
 9315SOL     OW27990   6.158   0.244   4.899
 9315SOL    HW127991   6.210   0.169   4.940
 9315SOL    HW227992   6.062   0.238   4.929
 9316SOL     OW27993   6.450   0.460   4.361
 9316SOL    HW127994   6.403   0.525   4.301
 9316SOL    HW227995   6.477   0.379   4.309
 9317SOL     OW27996   6.527   0.032   4.498
 9317SOL    HW127997   6.475   0.020   4.414
 9317SOL    HW227998   6.610   6.977   4.494
 9318SOL     OW27999   6.073   1.421   3.882
 9318SOL    HW128000   5.992   1.393   3.933
 9318SOL    HW228001   6.074   1.376   3.793
 9319SOL     OW28002   6.111   0.263   4.028
 9319SOL    HW128003   6.166   0.213   3.962
 9319SOL    HW228004   6.086   0.352   3.991
 9320SOL     OW28005   6.629   1.348   5.056
 9320SOL    HW128006   6.546   1.321   5.105
 9320SOL    HW228007   6.709   1.304   5.098
 9321SOL     OW28008   6.726   1.224   4.825
 9321SOL    HW128009   6.668   1.255   4.900
 9321SOL    HW228010   6.685   1.251   4.738
 9322SOL     OW28011   6.477   0.148   5.110
 9322SOL    HW128012   6.492   0.110   5.019
 9322SOL    HW228013   6.564   0.169   5.153
 9323SOL     OW28014   6.566   1.112   5.451
 9323SOL    HW128015   6.471   1.135   5.476
 9323SOL    HW228016   6.566   1.033   5.391
 9324SOL     OW28017   6.298   1.058   4.097
 9324SOL    HW128018   6.281   1.042   4.194
 9324SOL    HW228019   6.376   1.004   4.067
 9325SOL     OW28020   6.009   0.816   4.978
 9325SOL    HW128021   6.082   0.828   5.045
 9325SOL    HW228022   5.969   0.725   4.987
 9326SOL     OW28023   6.857   0.363   5.007
 9326SOL    HW128024   6.914   0.442   5.032
 9326SOL    HW228025   6.765   0.395   4.982
 9327SOL     OW28026   5.660   1.572   5.077
 9327SOL    HW128027   5.625   1.643   5.016
 9327SOL    HW228028   5.760   1.570   5.072
 9328SOL     OW28029   5.929   1.117   4.211
 9328SOL    HW128030   5.935   1.199   4.154
 9328SOL    HW228031   5.927   1.036   4.153
 9329SOL     OW28032   6.139   0.547   4.586
 9329SOL    HW128033   6.153   0.606   4.506
 9329SOL    HW228034   6.210   0.566   4.654
 9330SOL     OW28035   6.824   1.369   4.141
 9330SOL    HW128036   6.878   1.446   4.175
 9330SOL    HW228037   6.727   1.387   4.158
 9331SOL     OW28038   6.850   1.476   4.864
 9331SOL    HW128039   6.929   1.471   4.926
 9331SOL    HW228040   6.809   1.385   4.856
 9332SOL     OW28041   5.934   1.529   5.034
 9332SOL    HW128042   5.918   1.485   4.946
 9332SOL    HW228043   6.032   1.543   5.047
 9333SOL     OW28044   6.003   0.744   5.325
 9333SOL    HW128045   6.066   0.793   5.264
 9333SOL    HW228046   6.041   0.653   5.346
 9334SOL     OW28047   6.582   0.130   5.474
 9334SOL    HW128048   6.623   0.193   5.408
 9334SOL    HW228049   6.597   0.036   5.444
 9335SOL     OW28050   6.049   0.040   5.482
 9335SOL    HW128051   5.986   6.966   5.457
 9335SOL    HW228052   5.999   0.125   5.492
 9336SOL     OW28053   6.170   0.873   4.757
 9336SOL    HW128054   6.205   0.967   4.754
 9336SOL    HW228055   6.109   0.862   4.836
 9337SOL     OW28056   6.951   0.845   4.757
 9337SOL    HW128057   6.859   0.836   4.719
 9337SOL    HW228058   6.986   0.755   4.782
 9338SOL     OW28059   6.770   0.538   3.974
 9338SOL    HW128060   6.790   0.452   4.020
 9338SOL    HW228061   6.730   0.602   4.040
 9339SOL     OW28062   5.897   0.209   4.972
 9339SOL    HW128063   5.833   0.220   5.048
 9339SOL    HW228064   5.884   0.120   4.930
 9340SOL     OW28065   5.638   1.310   4.999
 9340SOL    HW128066   5.670   1.249   5.072
 9340SOL    HW228067   5.641   1.405   5.032
 9341SOL     OW28068   6.316   0.638   4.781
 9341SOL    HW128069   6.389   0.615   4.716
 9341SOL    HW228070   6.277   0.727   4.758
 9342SOL     OW28071   5.907   0.060   4.353
 9342SOL    HW128072   5.884   0.154   4.380
 9342SOL    HW228073   5.864   6.996   4.417
 9343SOL     OW28074   0.196   0.439   4.072
 9343SOL    HW128075   0.214   0.348   4.110
 9343SOL    HW228076   0.181   0.504   4.146
 9344SOL     OW28077   6.610   0.757   4.683
 9344SOL    HW128078   6.605   0.777   4.781
 9344SOL    HW228079   6.583   0.662   4.668
 9345SOL     OW28080   6.555   1.566   5.430
 9345SOL    HW128081   6.543   1.611   5.342
 9345SOL    HW228082   6.607   1.482   5.418
 9346SOL     OW28083   5.939   0.918   5.528
 9346SOL    HW128084   6.019   0.940   5.584
 9346SOL    HW228085   5.965   0.851   5.458
 9347SOL     OW28086   6.883   0.819   3.753
 9347SOL    HW128087   6.940   0.746   3.791
 9347SOL    HW228088   6.923   0.852   3.667
 9348SOL     OW28089   6.650   1.333   4.579
 9348SOL    HW128090   6.654   1.257   4.514
 9348SOL    HW228091   6.702   1.411   4.544
 9349SOL     OW28092   5.897   0.809   4.666
 9349SOL    HW128093   5.993   0.835   4.660
 9349SOL    HW228094   5.890   0.714   4.698
 9350SOL     OW28095   5.921   0.539   4.736
 9350SOL    HW128096   5.878   0.449   4.724
 9350SOL    HW228097   6.002   0.545   4.678
 9351SOL     OW28098   6.689   0.385   5.402
 9351SOL    HW128099   6.646   0.438   5.475
 9351SOL    HW228100   6.788   0.400   5.404
 9352SOL     OW28101   6.720   0.217   5.200
 9352SOL    HW128102   6.712   0.285   5.273
 9352SOL    HW228103   6.769   0.257   5.122
 9353SOL     OW28104   5.586   1.316   3.919
 9353SOL    HW128105   5.497   1.335   3.879
 9353SOL    HW228106   5.587   1.222   3.954
 9354SOL     OW28107   5.679   1.784   4.667
 9354SOL    HW128108   5.642   1.703   4.622
 9354SOL    HW228109   5.773   1.800   4.635
 9355SOL     OW28110   6.080   1.576   4.629
 9355SOL    HW128111   6.150   1.642   4.656
 9355SOL    HW228112   6.120   1.508   4.567
 9356SOL     OW28113   6.564   0.793   4.949
 9356SOL    HW128114   6.623   0.767   5.026
 9356SOL    HW228115   6.474   0.750   4.960
 9357SOL     OW28116   5.621   0.550   4.844
 9357SOL    HW128117   5.699   0.530   4.784
 9357SOL    HW228118   5.652   0.551   4.939
 9358SOL     OW28119   5.771   0.529   5.453
 9358SOL    HW128120   5.848   0.495   5.399
 9358SOL    HW228121   5.730   0.608   5.406
 9359SOL     OW28122   6.403   0.575   4.082
 9359SOL    HW128123   6.411   0.494   4.024
 9359SOL    HW228124   6.324   0.629   4.053
 9360SOL     OW28125   5.826   1.547   5.450
 9360SOL    HW128126   5.804   1.622   5.514
 9360SOL    HW228127   5.832   1.461   5.501
 9361SOL     OW28128   6.297   0.462   4.981
 9361SOL    HW128129   6.241   0.383   4.956
 9361SOL    HW228130   6.296   0.529   4.907
 9362SOL     OW28131   6.500   1.687   5.190
 9362SOL    HW128132   6.481   1.637   5.105
 9362SOL    HW228133   6.497   1.785   5.174
 9363SOL     OW28134   6.046   0.496   3.903
 9363SOL    HW128135   6.110   0.567   3.931
 9363SOL    HW228136   5.955   0.535   3.892
 9364SOL     OW28137   5.728   1.137   5.199
 9364SOL    HW128138   5.730   1.092   5.288
 9364SOL    HW228139   5.748   1.070   5.127
 9365SOL     OW28140   6.896   1.045   4.946
 9365SOL    HW128141   6.920   0.972   4.883
 9365SOL    HW228142   6.832   1.107   4.902
 9366SOL     OW28143   6.888   0.871   4.032
 9366SOL    HW128144   6.821   0.833   4.096
 9366SOL    HW228145   6.859   0.853   3.938
 9367SOL     OW28146   6.844   1.747   4.841
 9367SOL    HW128147   6.923   1.765   4.783
 9367SOL    HW228148   6.834   1.648   4.853
 9368SOL     OW28149   5.671   1.265   4.735
 9368SOL    HW128150   5.656   1.280   4.832
 9368SOL    HW228151   5.599   1.207   4.698
 9369SOL     OW28152   6.266   1.673   5.461
 9369SOL    HW128153   6.206   1.752   5.453
 9369SOL    HW228154   6.341   1.681   5.396
 9370SOL     OW28155   6.978   1.584   4.210
 9370SOL    HW128156   0.064   1.625   4.179
 9370SOL    HW228157   6.918   1.656   4.244
 9371SOL     OW28158   5.730   1.788   5.570
 9371SOL    HW128159   5.673   1.720   5.615
 9371SOL    HW228160   5.780   1.841   5.638
 9372SOL     OW28161   6.869   0.917   4.385
 9372SOL    HW128162   6.955   0.871   4.405
 9372SOL    HW228163   6.887   0.999   4.330
 9373SOL     OW28164   6.384   1.276   5.151
 9373SOL    HW128165   6.355   1.321   5.235
 9373SOL    HW228166   6.316   1.291   5.079
 9374SOL     OW28167   6.254   1.623   3.879
 9374SOL    HW128168   6.271   1.639   3.782
 9374SOL    HW228169   6.197   1.541   3.889
 9375SOL     OW28170   5.846   0.313   4.440
 9375SOL    HW128171   5.757   0.350   4.413
 9375SOL    HW228172   5.852   0.311   4.539
 9376SOL     OW28173   6.749   1.609   3.760
 9376SOL    HW128174   6.772   1.512   3.765
 9376SOL    HW228175   6.688   1.626   3.683
 9377SOL     OW28176   6.412   1.009   5.102
 9377SOL    HW128177   6.459   0.996   5.015
 9377SOL    HW228178   6.405   1.106   5.123
 9378SOL     OW28179   6.504   0.909   4.009
 9378SOL    HW128180   6.568   0.947   3.942
 9378SOL    HW228181   6.549   0.839   4.063
 9379SOL     OW28182   5.951   1.302   5.210
 9379SOL    HW128183   5.942   1.383   5.153
 9379SOL    HW228184   5.871   1.244   5.199
 9380SOL     OW28185   6.642   1.106   4.435
 9380SOL    HW128186   6.567   1.055   4.477
 9380SOL    HW228187   6.709   1.042   4.398
 9381SOL     OW28188   6.599   0.253   4.678
 9381SOL    HW128189   6.571   0.208   4.593
 9381SOL    HW228190   6.594   0.188   4.754
 9382SOL     OW28191   6.191   1.486   4.203
 9382SOL    HW128192   6.242   1.432   4.137
 9382SOL    HW228193   6.116   1.534   4.157
 9383SOL     OW28194   5.838   1.347   4.012
 9383SOL    HW128195   5.742   1.341   3.985
 9383SOL    HW228196   5.844   1.386   4.104
 9384SOL     OW28197   5.700   1.032   5.450
 9384SOL    HW128198   5.618   1.005   5.502
 9384SOL    HW228199   5.780   0.988   5.490
 9385SOL     OW28200   6.254   0.237   5.233
 9385SOL    HW128201   6.334   0.209   5.180
 9385SOL    HW228202   6.284   0.269   5.323
 9386SOL     OW28203   5.661   0.334   3.758
 9386SOL    HW128204   5.565   0.311   3.741
 9386SOL    HW228205   5.687   0.414   3.704
 9387SOL     OW28206   5.659   0.179   4.042
 9387SOL    HW128207   5.660   0.249   3.971
 9387SOL    HW228208   5.713   0.099   4.012
 9388SOL     OW28209   6.211   0.829   5.157
 9388SOL    HW128210   6.267   0.910   5.143
 9388SOL    HW228211   6.270   0.749   5.169
 9389SOL     OW28212   6.310   0.558   5.429
 9389SOL    HW128213   6.351   0.627   5.488
 9389SOL    HW228214   6.326   0.467   5.467
 9390SOL     OW28215   0.004   1.264   5.374
 9390SOL    HW128216   0.001   1.198   5.449
 9390SOL    HW228217   0.082   1.242   5.315
 9391SOL     OW28218   5.958   1.738   5.291
 9391SOL    HW128219   5.874   1.789   5.276
 9391SOL    HW228220   5.937   1.650   5.333
 9392SOL     OW28221   6.817   0.308   4.164
 9392SOL    HW128222   6.890   0.256   4.119
 9392SOL    HW228223   6.856   0.363   4.238
 9393SOL     OW28224   6.174   0.738   4.391
 9393SOL    HW128225   6.215   0.828   4.380
 9393SOL    HW228226   6.104   0.724   4.321
 9394SOL     OW28227   6.428   1.368   3.755
 9394SOL    HW128228   6.410   1.389   3.851
 9394SOL    HW228229   6.461   1.450   3.708
 9395SOL     OW28230   6.250   1.786   4.665
 9395SOL    HW128231   6.227   1.881   4.645
 9395SOL    HW228232   6.349   1.774   4.658
 9396SOL     OW28233   6.454   0.970   4.580
 9396SOL    HW128234   6.506   0.892   4.616
 9396SOL    HW228235   6.413   1.020   4.657
 9397SOL     OW28236   6.670   0.990   3.812
 9397SOL    HW128237   6.636   1.043   3.735
 9397SOL    HW228238   6.744   0.929   3.780
 9398SOL     OW28239   5.817   1.300   5.581
 9398SOL    HW128240   5.749   1.234   5.548
 9398SOL    HW228241   5.803   1.314   5.679
 9399SOL     OW28242   5.673   1.230   4.387
 9399SOL    HW128243   5.676   1.184   4.476
 9399SOL    HW228244   5.741   1.190   4.326
 9400SOL     OW28245   6.262   1.410   5.351
 9400SOL    HW128246   6.184   1.359   5.388
 9400SOL    HW228247   6.265   1.501   5.394
 9401SOL     OW28248   6.017   0.426   4.248
 9401SOL    HW128249   6.051   0.355   4.187
 9401SOL    HW228250   5.963   0.384   4.321
 9402SOL     OW28251   5.920   0.558   5.012
 9402SOL    HW128252   5.977   0.500   5.070
 9402SOL    HW228253   5.937   0.535   4.916
 9403SOL     OW28254   6.412   1.580   4.403
 9403SOL    HW128255   6.396   1.641   4.325
 9403SOL    HW228256   6.336   1.516   4.412
 9404SOL     OW28257   6.975   0.217   4.804
 9404SOL    HW128258   0.007   0.134   4.849
 9404SOL    HW228259   6.930   0.276   4.871
 9405SOL     OW28260   6.561   0.057   4.859
 9405SOL    HW128261   6.505   6.993   4.805
 9405SOL    HW228262   6.616   0.005   4.925
 9406SOL     OW28263   6.360   1.332   4.043
 9406SOL    HW128264   6.331   1.236   4.050
 9406SOL    HW228265   6.445   1.345   4.094
 9407SOL     OW28266   6.209   1.559   5.012
 9407SOL    HW128267   6.207   1.646   5.063
 9407SOL    HW228268   6.300   1.546   4.973
 9408SOL     OW28269   5.629   1.065   4.031
 9408SOL    HW128270   5.727   1.065   4.012
 9408SOL    HW228271   5.599   0.972   4.054
 9409SOL     OW28272   6.466   1.664   4.066
 9409SOL    HW128273   6.393   1.642   4.002
 9409SOL    HW228274   6.438   1.741   4.124
 9410SOL     OW28275   5.807   0.619   5.713
 9410SOL    HW128276   5.718   0.619   5.757
 9410SOL    HW228277   5.796   0.598   5.616
 9411SOL     OW28278   5.804   0.306   6.585
 9411SOL    HW128279   5.844   0.264   6.666
 9411SOL    HW228280   5.723   0.255   6.558
 9412SOL     OW28281   5.595   0.394   6.214
 9412SOL    HW128282   5.507   0.414   6.255
 9412SOL    HW228283   5.585   0.320   6.147
 9413SOL     OW28284   6.144   1.280   6.755
 9413SOL    HW128285   6.056   1.304   6.713
 9413SOL    HW228286   6.175   1.355   6.812
 9414SOL     OW28287   0.071   1.546   6.346
 9414SOL    HW128288   0.104   1.453   6.356
 9414SOL    HW228289   0.041   1.562   6.252
 9415SOL     OW28290   6.693   0.718   6.275
 9415SOL    HW128291   6.759   0.792   6.264
 9415SOL    HW228292   6.657   0.719   6.368
 9416SOL     OW28293   6.339   1.142   6.625
 9416SOL    HW128294   6.267   1.168   6.688
 9416SOL    HW228295   6.376   1.223   6.580
 9417SOL     OW28296   6.269   1.000   6.235
 9417SOL    HW128297   6.340   0.988   6.304
 9417SOL    HW228298   6.195   1.055   6.272
 9418SOL     OW28299   5.918   1.412   6.648
 9418SOL    HW128300   5.833   1.381   6.606
 9418SOL    HW228301   5.966   1.474   6.586
 9419SOL     OW28302   5.808   1.714   6.057
 9419SOL    HW128303   5.825   1.793   6.117
 9419SOL    HW228304   5.883   1.704   5.992
 9420SOL     OW28305   5.818   1.443   6.122
 9420SOL    HW128306   5.803   1.542   6.122
 9420SOL    HW228307   5.759   1.399   6.190
 9421SOL     OW28308   5.851   1.091   6.485
 9421SOL    HW128309   5.848   0.998   6.521
 9421SOL    HW228310   5.793   1.150   6.541
 9422SOL     OW28311   6.177   1.825   6.960
 9422SOL    HW128312   6.100   1.784   0.008
 9422SOL    HW228313   6.209   1.905   0.010
 9423SOL     OW28314   6.169   0.986   5.726
 9423SOL    HW128315   6.215   1.034   5.651
 9423SOL    HW228316   6.209   1.015   5.813
 9424SOL     OW28317   5.700   0.661   6.150
 9424SOL    HW128318   5.673   0.566   6.167
 9424SOL    HW228319   5.694   0.713   6.235
 9425SOL     OW28320   5.614   1.591   5.709
 9425SOL    HW128321   5.599   1.494   5.728
 9425SOL    HW228322   5.594   1.645   5.791
 9426SOL     OW28323   6.199   1.390   6.320
 9426SOL    HW128324   6.152   1.303   6.334
 9426SOL    HW228325   6.185   1.420   6.225
 9427SOL     OW28326   6.822   1.190   0.023
 9427SOL    HW128327   6.872   1.143   6.950
 9427SOL    HW228328   6.888   1.237   0.082
 9428SOL     OW28329   6.410   0.025   6.100
 9428SOL    HW128330   6.449   0.116   6.084
 9428SOL    HW228331   6.311   0.031   6.105
 9429SOL     OW28332   5.779   0.977   6.846
 9429SOL    HW128333   5.862   0.924   6.830
 9429SOL    HW228334   5.699   0.922   6.822
 9430SOL     OW28335   6.179   0.719   5.857
 9430SOL    HW128336   6.185   0.806   5.807
 9430SOL    HW228337   6.111   0.727   5.930
 9431SOL     OW28338   6.853   0.370   6.480
 9431SOL    HW128339   6.756   0.354   6.499
 9431SOL    HW228340   6.908   0.332   6.554
 9432SOL     OW28341   6.402   0.589   0.048
 9432SOL    HW128342   6.348   0.646   0.110
 9432SOL    HW228343   6.341   0.547   6.981
 9433SOL     OW28344   6.580   0.366   6.806
 9433SOL    HW128345   6.525   0.436   6.850
 9433SOL    HW228346   6.535   0.337   6.721
 9434SOL     OW28347   6.635   0.700   6.010
 9434SOL    HW128348   6.653   0.701   6.109
 9434SOL    HW228349   6.549   0.653   5.993
 9435SOL     OW28350   5.675   0.828   6.366
 9435SOL    HW128351   5.760   0.816   6.416
 9435SOL    HW228352   5.626   0.907   6.402
 9436SOL     OW28353   5.742   1.853   0.151
 9436SOL    HW128354   5.705   1.777   0.204
 9436SOL    HW228355   5.688   1.865   0.068
 9437SOL     OW28356   6.475   0.353   5.784
 9437SOL    HW128357   6.523   0.412   5.720
 9437SOL    HW228358   6.454   0.266   5.740
 9438SOL     OW28359   6.926   1.132   6.103
 9438SOL    HW128360   6.998   1.116   6.035
 9438SOL    HW228361   6.874   1.214   6.078
 9439SOL     OW28362   6.093   0.198   6.499
 9439SOL    HW128363   6.137   0.242   6.578
 9439SOL    HW228364   6.112   0.253   6.417
 9440SOL     OW28365   6.572   1.448   6.057
 9440SOL    HW128366   6.541   1.526   6.002
 9440SOL    HW228367   6.546   1.463   6.152
 9441SOL     OW28368   5.942   1.813   6.452
 9441SOL    HW128369   5.983   1.723   6.463
 9441SOL    HW228370   6.009   1.884   6.475
 9442SOL     OW28371   5.908   0.959   5.840
 9442SOL    HW128372   5.996   0.979   5.796
 9442SOL    HW228373   5.871   0.873   5.802
 9443SOL     OW28374   6.711   1.771   5.828
 9443SOL    HW128375   6.629   1.741   5.876
 9443SOL    HW228376   6.725   1.715   5.747
 9444SOL     OW28377   6.050   1.736   5.904
 9444SOL    HW128378   6.091   1.797   5.971
 9444SOL    HW228379   6.121   1.698   5.844
 9445SOL     OW28380   5.851   1.800   6.821
 9445SOL    HW128381   5.906   1.747   6.886
 9445SOL    HW228382   5.814   1.739   6.751
 9446SOL     OW28383   6.521   1.703   6.480
 9446SOL    HW128384   6.602   1.656   6.513
 9446SOL    HW228385   6.478   1.650   6.406
 9447SOL     OW28386   5.981   0.687   6.061
 9447SOL    HW128387   6.001   0.590   6.074
 9447SOL    HW228388   5.884   0.703   6.079
 9448SOL     OW28389   6.229   0.112   5.688
 9448SOL    HW128390   6.269   0.037   5.741
 9448SOL    HW228391   6.167   0.074   5.619
 9449SOL     OW28392   6.460   1.519   6.769
 9449SOL    HW128393   6.442   1.483   6.678
 9449SOL    HW228394   6.478   1.444   6.833
 9450SOL     OW28395   6.404   1.391   6.525
 9450SOL    HW128396   6.494   1.377   6.482
 9450SOL    HW228397   6.334   1.395   6.454
 9451SOL     OW28398   6.510   0.510   6.484
 9451SOL    HW128399   6.484   0.508   6.387
 9451SOL    HW228400   6.543   0.420   6.512
 9452SOL     OW28401   6.143   0.066   6.082
 9452SOL    HW128402   6.061   0.055   6.139
 9452SOL    HW228403   6.129   0.142   6.018
 9453SOL     OW28404   6.988   1.123   5.606
 9453SOL    HW128405   0.025   1.074   5.685
 9453SOL    HW228406   6.923   1.193   5.637
 9454SOL     OW28407   5.896   0.048   5.773
 9454SOL    HW128408   5.937   0.138   5.766
 9454SOL    HW228409   5.951   6.990   5.833
 9455SOL     OW28410   6.537   0.263   6.041
 9455SOL    HW128411   6.501   0.299   5.955
 9455SOL    HW228412   6.637   0.274   6.042
 9456SOL     OW28413   6.785   1.570   6.381
 9456SOL    HW128414   6.797   1.638   6.310
 9456SOL    HW228415   6.871   1.558   6.431
 9457SOL     OW28416   6.054   1.151   6.315
 9457SOL    HW128417   5.986   1.132   6.387
 9457SOL    HW228418   6.012   1.138   6.225
 9458SOL     OW28419   6.840   1.791   6.192
 9458SOL    HW128420   6.877   1.853   6.123
 9458SOL    HW228421   6.769   1.838   6.245
 9459SOL     OW28422   6.609   0.540   5.614
 9459SOL    HW128423   6.562   0.627   5.597
 9459SOL    HW228424   6.673   0.551   5.690
 9460SOL     OW28425   6.163   0.221   6.775
 9460SOL    HW128426   6.183   0.128   6.744
 9460SOL    HW228427   6.066   0.228   6.798
 9461SOL     OW28428   6.449   0.461   6.223
 9461SOL    HW128429   6.402   0.525   6.163
 9461SOL    HW228430   6.476   0.380   6.171
 9462SOL     OW28431   6.530   0.039   6.351
 9462SOL    HW128432   6.477   0.024   6.268
 9462SOL    HW228433   6.605   6.973   6.356
 9463SOL     OW28434   6.073   1.421   5.744
 9463SOL    HW128435   5.992   1.393   5.796
 9463SOL    HW228436   6.073   1.376   5.655
 9464SOL     OW28437   6.111   0.263   5.891
 9464SOL    HW128438   6.166   0.213   5.824
 9464SOL    HW228439   6.086   0.352   5.853
 9465SOL     OW28440   0.225   1.576   0.248
 9465SOL    HW128441   0.233   1.636   0.168
 9465SOL    HW228442   0.303   1.513   0.250
 9466SOL     OW28443   6.721   1.220   6.690
 9466SOL    HW128444   6.642   1.209   6.751
 9466SOL    HW228445   6.688   1.250   6.600
 9467SOL     OW28446   6.297   1.058   5.959
 9467SOL    HW128447   6.280   1.042   6.056
 9467SOL    HW228448   6.376   1.004   5.929
 9468SOL     OW28449   6.011   0.814   6.846
 9468SOL    HW128450   6.067   0.841   6.925
 9468SOL    HW228451   5.974   0.722   6.861
 9469SOL     OW28452   6.841   0.395   6.846
 9469SOL    HW128453   6.845   0.481   6.897
 9469SOL    HW228454   6.747   0.378   6.816
 9470SOL     OW28455   5.678   1.561   6.859
 9470SOL    HW128456   5.618   1.635   6.889
 9470SOL    HW228457   5.759   1.558   6.916
 9471SOL     OW28458   5.929   1.117   6.073
 9471SOL    HW128459   5.935   1.199   6.016
 9471SOL    HW228460   5.927   1.036   6.014
 9472SOL     OW28461   6.138   0.546   6.447
 9472SOL    HW128462   6.151   0.605   6.367
 9472SOL    HW228463   6.208   0.568   6.516
 9473SOL     OW28464   6.824   1.369   6.004
 9473SOL    HW128465   6.879   1.446   6.037
 9473SOL    HW228466   6.727   1.387   6.021
 9474SOL     OW28467   6.822   1.474   6.756
 9474SOL    HW128468   6.917   1.463   6.786
 9474SOL    HW228469   6.784   1.384   6.734
 9475SOL     OW28470   5.952   1.494   6.904
 9475SOL    HW128471   5.922   1.457   6.816
 9475SOL    HW228472   6.045   1.528   6.896
 9476SOL     OW28473   6.171   0.872   6.623
 9476SOL    HW128474   6.205   0.965   6.616
 9476SOL    HW228475   6.110   0.863   6.702
 9477SOL     OW28476   6.951   0.840   6.610
 9477SOL    HW128477   6.859   0.828   6.572
 9477SOL    HW228478   6.987   0.752   6.639
 9478SOL     OW28479   6.770   0.538   5.836
 9478SOL    HW128480   6.790   0.452   5.882
 9478SOL    HW228481   6.730   0.602   5.902
 9479SOL     OW28482   5.898   0.210   6.835
 9479SOL    HW128483   5.839   0.212   6.915
 9479SOL    HW228484   5.894   0.120   6.793
 9480SOL     OW28485   5.613   1.301   6.869
 9480SOL    HW128486   5.666   1.253   6.938
 9480SOL    HW228487   5.640   1.398   6.866
 9481SOL     OW28488   6.312   0.631   6.642
 9481SOL    HW128489   6.388   0.612   6.581
 9481SOL    HW228490   6.277   0.724   6.624
 9482SOL     OW28491   5.909   0.060   6.219
 9482SOL    HW128492   5.883   0.153   6.244
 9482SOL    HW228493   5.854   6.995   6.273
 9483SOL     OW28494   0.196   0.439   5.933
 9483SOL    HW128495   0.213   0.348   5.971
 9483SOL    HW228496   0.181   0.504   6.008
 9484SOL     OW28497   6.611   0.755   6.549
 9484SOL    HW128498   6.603   0.775   6.647
 9484SOL    HW228499   6.584   0.661   6.532
 9485SOL     OW28500   6.883   0.819   5.615
 9485SOL    HW128501   6.940   0.746   5.653
 9485SOL    HW228502   6.923   0.852   5.530
 9486SOL     OW28503   6.654   1.331   6.443
 9486SOL    HW128504   6.656   1.257   6.376
 9486SOL    HW228505   6.704   1.410   6.406
 9487SOL     OW28506   5.899   0.808   6.528
 9487SOL    HW128507   5.995   0.835   6.522
 9487SOL    HW228508   5.893   0.713   6.560
 9488SOL     OW28509   5.926   0.538   6.607
 9488SOL    HW128510   5.880   0.451   6.592
 9488SOL    HW228511   6.005   0.546   6.545
 9489SOL     OW28512   6.792   0.232   0.069
 9489SOL    HW128513   6.743   0.272   0.147
 9489SOL    HW228514   6.764   0.278   6.985
 9490SOL     OW28515   5.586   1.315   5.780
 9490SOL    HW128516   5.497   1.335   5.740
 9490SOL    HW228517   5.587   1.222   5.816
 9491SOL     OW28518   5.676   1.790   6.525
 9491SOL    HW128519   5.642   1.706   6.483
 9491SOL    HW228520   5.772   1.802   6.500
 9492SOL     OW28521   6.078   1.577   6.490
 9492SOL    HW128522   6.148   1.643   6.518
 9492SOL    HW228523   6.120   1.508   6.430
 9493SOL     OW28524   6.567   0.793   6.816
 9493SOL    HW128525   6.634   0.789   6.890
 9493SOL    HW228526   6.479   0.760   6.850
 9494SOL     OW28527   5.635   0.556   6.712
 9494SOL    HW128528   5.685   0.509   6.639
 9494SOL    HW228529   5.700   0.588   6.782
 9495SOL     OW28530   6.403   0.575   5.944
 9495SOL    HW128531   6.411   0.494   5.886
 9495SOL    HW228532   6.324   0.629   5.915
 9496SOL     OW28533   6.266   0.467   6.851
 9496SOL    HW128534   6.231   0.378   6.822
 9496SOL    HW228535   6.275   0.527   6.771
 9497SOL     OW28536   6.452   1.663   0.015
 9497SOL    HW128537   6.465   1.644   6.917
 9497SOL    HW228538   6.521   1.727   0.046
 9498SOL     OW28539   6.046   0.496   5.765
 9498SOL    HW128540   6.110   0.567   5.793
 9498SOL    HW228541   5.955   0.534   5.754
 9499SOL     OW28542   5.742   1.142   0.058
 9499SOL    HW128543   5.797   1.101   0.131
 9499SOL    HW228544   5.752   1.087   6.975
 9500SOL     OW28545   6.889   1.022   6.807
 9500SOL    HW128546   6.919   0.960   6.734
 9500SOL    HW228547   6.834   1.096   6.768
 9501SOL     OW28548   6.888   0.871   5.894
 9501SOL    HW128549   6.821   0.833   5.957
 9501SOL    HW228550   6.860   0.853   5.800
 9502SOL     OW28551   6.840   1.742   6.693
 9502SOL    HW128552   6.927   1.754   6.645
 9502SOL    HW228553   6.830   1.645   6.717
 9503SOL     OW28554   5.667   1.265   6.600
 9503SOL    HW128555   5.648   1.273   6.697
 9503SOL    HW228556   5.599   1.204   6.558
 9504SOL     OW28557   6.979   1.584   6.072
 9504SOL    HW128558   0.064   1.625   6.041
 9504SOL    HW228559   6.918   1.656   6.106
 9505SOL     OW28560   6.870   0.917   6.247
 9505SOL    HW128561   6.956   0.870   6.265
 9505SOL    HW228562   6.887   0.999   6.193
 9506SOL     OW28563   6.254   1.623   5.741
 9506SOL    HW128564   6.271   1.639   5.644
 9506SOL    HW228565   6.197   1.541   5.751
 9507SOL     OW28566   5.845   0.314   6.303
 9507SOL    HW128567   5.756   0.349   6.274
 9507SOL    HW228568   5.850   0.313   6.402
 9508SOL     OW28569   6.750   1.609   5.622
 9508SOL    HW128570   6.770   1.512   5.628
 9508SOL    HW228571   6.689   1.626   5.545
 9509SOL     OW28572   6.367   1.026   6.950
 9509SOL    HW128573   6.428   0.990   6.879
 9509SOL    HW228574   6.411   1.103   6.996
 9510SOL     OW28575   6.504   0.909   5.871
 9510SOL    HW128576   6.568   0.947   5.804
 9510SOL    HW228577   6.550   0.839   5.925
 9511SOL     OW28578   6.641   1.106   6.296
 9511SOL    HW128579   6.566   1.055   6.339
 9511SOL    HW228580   6.708   1.042   6.259
 9512SOL     OW28581   6.598   0.250   6.529
 9512SOL    HW128582   6.565   0.203   6.447
 9512SOL    HW228583   6.603   0.185   6.604
 9513SOL     OW28584   6.191   1.486   6.065
 9513SOL    HW128585   6.242   1.432   5.998
 9513SOL    HW228586   6.115   1.533   6.020
 9514SOL     OW28587   5.838   1.348   5.874
 9514SOL    HW128588   5.742   1.341   5.847
 9514SOL    HW228589   5.844   1.386   5.966
 9515SOL     OW28590   5.661   0.333   5.620
 9515SOL    HW128591   5.565   0.312   5.604
 9515SOL    HW228592   5.687   0.414   5.565
 9516SOL     OW28593   5.660   0.178   5.905
 9516SOL    HW128594   5.660   0.248   5.834
 9516SOL    HW228595   5.713   0.099   5.874
 9517SOL     OW28596   5.967   1.727   0.086
 9517SOL    HW128597   5.889   1.781   0.118
 9517SOL    HW228598   5.970   1.640   0.135
 9518SOL     OW28599   6.817   0.307   6.026
 9518SOL    HW128600   6.890   0.256   5.981
 9518SOL    HW228601   6.856   0.362   6.100
 9519SOL     OW28602   6.174   0.737   6.252
 9519SOL    HW128603   6.214   0.828   6.242
 9519SOL    HW228604   6.103   0.724   6.183
 9520SOL     OW28605   6.429   1.367   5.617
 9520SOL    HW128606   6.410   1.388   5.713
 9520SOL    HW228607   6.460   1.450   5.571
 9521SOL     OW28608   6.251   1.785   6.527
 9521SOL    HW128609   6.228   1.880   6.506
 9521SOL    HW228610   6.350   1.773   6.519
 9522SOL     OW28611   6.455   0.969   6.442
 9522SOL    HW128612   6.506   0.892   6.480
 9522SOL    HW228613   6.414   1.022   6.517
 9523SOL     OW28614   6.671   0.990   5.674
 9523SOL    HW128615   6.636   1.044   5.597
 9523SOL    HW228616   6.744   0.929   5.642
 9524SOL     OW28617   5.673   1.228   6.249
 9524SOL    HW128618   5.676   1.183   6.338
 9524SOL    HW228619   5.742   1.189   6.189
 9525SOL     OW28620   6.017   0.426   6.111
 9525SOL    HW128621   6.051   0.355   6.049
 9525SOL    HW228622   5.962   0.384   6.183
 9526SOL     OW28623   5.899   0.551   6.879
 9526SOL    HW128624   5.967   0.496   6.928
 9526SOL    HW228625   5.913   0.542   6.781
 9527SOL     OW28626   6.414   1.577   6.263
 9527SOL    HW128627   6.396   1.639   6.187
 9527SOL    HW228628   6.336   1.515   6.275
 9528SOL     OW28629   6.977   0.227   6.681
 9528SOL    HW128630   0.011   0.149   6.733
 9528SOL    HW228631   6.930   0.290   6.742
 9529SOL     OW28632   6.579   0.050   6.705
 9529SOL    HW128633   6.496   6.997   6.686
 9529SOL    HW228634   6.616   0.022   6.794
 9530SOL     OW28635   6.360   1.332   5.904
 9530SOL    HW128636   6.331   1.236   5.912
 9530SOL    HW228637   6.445   1.345   5.956
 9531SOL     OW28638   6.206   1.570   6.862
 9531SOL    HW128639   6.203   1.665   6.894
 9531SOL    HW228640   6.296   1.550   6.823
 9532SOL     OW28641   5.629   1.065   5.893
 9532SOL    HW128642   5.727   1.065   5.874
 9532SOL    HW228643   5.599   0.972   5.915
 9533SOL     OW28644   6.467   1.665   5.927
 9533SOL    HW128645   6.393   1.642   5.863
 9533SOL    HW228646   6.438   1.741   5.985
 9534SOL     OW28647   5.807   2.499   0.136
 9534SOL    HW128648   5.712   2.483   0.161
 9534SOL    HW228649   5.819   2.479   0.038
 9535SOL     OW28650   5.808   2.144   0.994
 9535SOL    HW128651   5.841   2.110   1.082
 9535SOL    HW228652   5.715   2.112   0.978
 9536SOL     OW28653   5.587   2.249   0.637
 9536SOL    HW128654   5.505   2.283   0.683
 9536SOL    HW228655   5.567   2.163   0.591
 9537SOL     OW28656   6.154   3.158   1.185
 9537SOL    HW128657   6.064   3.154   1.141
 9537SOL    HW228658   6.172   3.250   1.218
 9538SOL     OW28659   0.067   3.410   0.761
 9538SOL    HW128660   0.101   3.317   0.775
 9538SOL    HW228661   0.031   3.418   0.668
 9539SOL     OW28662   6.693   2.580   0.690
 9539SOL    HW128663   6.760   2.654   0.679
 9539SOL    HW228664   6.657   2.582   0.783
 9540SOL     OW28665   6.332   3.003   1.042
 9540SOL    HW128666   6.263   3.038   1.106
 9540SOL    HW228667   6.375   3.080   0.994
 9541SOL     OW28668   6.460   2.628   1.823
 9541SOL    HW128669   6.441   2.696   1.894
 9541SOL    HW228670   6.482   2.676   1.738
 9542SOL     OW28671   6.269   2.859   0.650
 9542SOL    HW128672   6.340   2.849   0.720
 9542SOL    HW228673   6.195   2.916   0.686
 9543SOL     OW28674   6.293   3.012   1.814
 9543SOL    HW128675   6.343   3.093   1.846
 9543SOL    HW228676   6.207   3.041   1.772
 9544SOL     OW28677   5.912   3.286   1.066
 9544SOL    HW128678   5.836   3.241   1.019
 9544SOL    HW228679   5.966   3.338   1.000
 9545SOL     OW28680   6.037   2.256   1.480
 9545SOL    HW128681   6.117   2.197   1.487
 9545SOL    HW228682   5.954   2.202   1.498
 9546SOL     OW28683   5.805   3.585   0.471
 9546SOL    HW128684   5.823   3.664   0.529
 9546SOL    HW228685   5.890   3.558   0.425
 9547SOL     OW28686   6.716   3.207   1.703
 9547SOL    HW128687   6.810   3.177   1.714
 9547SOL    HW228688   6.655   3.128   1.704
 9548SOL     OW28689   5.801   3.310   0.533
 9548SOL    HW128690   5.789   3.409   0.542
 9548SOL    HW228691   5.749   3.263   0.605
 9549SOL     OW28692   5.853   2.952   0.900
 9549SOL    HW128693   5.848   2.858   0.933
 9549SOL    HW228694   5.791   3.010   0.953
 9550SOL     OW28695   6.185   3.660   1.425
 9550SOL    HW128696   6.102   3.635   1.476
 9550SOL    HW228697   6.215   3.751   1.454
 9551SOL     OW28698   6.173   2.830   0.145
 9551SOL    HW128699   6.229   2.854   0.066
 9551SOL    HW228700   6.209   2.875   0.227
 9552SOL     OW28701   5.701   2.515   0.562
 9552SOL    HW128702   5.671   2.422   0.582
 9552SOL    HW228703   5.695   2.571   0.645
 9553SOL     OW28704   5.598   3.445   0.147
 9553SOL    HW128705   5.529   3.376   0.126
 9553SOL    HW228706   5.576   3.490   0.233
 9554SOL     OW28707   5.709   2.606   1.585
 9554SOL    HW128708   5.805   2.633   1.587
 9554SOL    HW228709   5.652   2.688   1.587
 9555SOL     OW28710   6.197   3.251   0.737
 9555SOL    HW128711   6.151   3.163   0.749
 9555SOL    HW228712   6.187   3.280   0.641
 9556SOL     OW28713   6.841   3.084   1.432
 9556SOL    HW128714   6.879   3.014   1.372
 9556SOL    HW228715   6.903   3.098   1.510
 9557SOL     OW28716   6.404   1.875   0.518
 9557SOL    HW128717   6.449   1.960   0.492
 9557SOL    HW228718   6.305   1.889   0.524
 9558SOL     OW28719   5.776   2.824   1.276
 9558SOL    HW128720   5.865   2.780   1.261
 9558SOL    HW228721   5.707   2.777   1.222
 9559SOL     OW28722   6.780   3.675   1.616
 9559SOL    HW128723   6.766   3.743   1.545
 9559SOL    HW228724   6.780   3.583   1.576
 9560SOL     OW28725   5.926   2.111   1.831
 9560SOL    HW128726   5.974   2.198   1.844
 9560SOL    HW228727   5.829   2.124   1.851
 9561SOL     OW28728   6.185   2.580   0.268
 9561SOL    HW128729   6.191   2.669   0.223
 9561SOL    HW228730   6.119   2.584   0.343
 9562SOL     OW28731   6.870   2.185   0.895
 9562SOL    HW128732   6.772   2.173   0.910
 9562SOL    HW228733   6.921   2.149   0.974
 9563SOL     OW28734   6.384   2.474   1.451
 9563SOL    HW128735   6.356   2.452   1.544
 9563SOL    HW228736   6.343   2.409   1.387
 9564SOL     OW28737   6.943   2.320   1.675
 9564SOL    HW128738   6.920   2.405   1.723
 9564SOL    HW228739   0.042   2.313   1.665
 9565SOL     OW28740   6.543   2.747   1.582
 9565SOL    HW128741   6.598   2.673   1.545
 9565SOL    HW228742   6.490   2.789   1.509
 9566SOL     OW28743   6.583   2.274   1.233
 9566SOL    HW128744   6.491   2.293   1.269
 9566SOL    HW228745   6.575   2.224   1.146
 9567SOL     OW28746   6.636   2.564   0.426
 9567SOL    HW128747   6.656   2.567   0.524
 9567SOL    HW228748   6.549   2.517   0.411
 9568SOL     OW28749   5.676   2.685   0.778
 9568SOL    HW128750   5.761   2.675   0.829
 9568SOL    HW228751   5.626   2.764   0.813
 9569SOL     OW28752   5.714   3.732   1.587
 9569SOL    HW128753   5.719   3.704   1.683
 9569SOL    HW228754   5.629   3.699   1.547
 9570SOL     OW28755   6.466   2.211   0.213
 9570SOL    HW128756   6.477   2.278   0.140
 9570SOL    HW228757   6.491   2.120   0.178
 9571SOL     OW28758   6.926   2.997   0.527
 9571SOL    HW128759   6.987   2.969   0.453
 9571SOL    HW228760   6.875   3.078   0.499
 9572SOL     OW28761   6.133   2.037   0.900
 9572SOL    HW128762   6.137   2.067   0.995
 9572SOL    HW228763   6.136   2.117   0.840
 9573SOL     OW28764   6.572   3.303   0.474
 9573SOL    HW128765   6.537   3.381   0.423
 9573SOL    HW228766   6.550   3.315   0.571
 9574SOL     OW28767   5.942   3.675   0.869
 9574SOL    HW128768   5.986   3.585   0.875
 9574SOL    HW228769   6.009   3.746   0.888
 9575SOL     OW28770   6.798   3.419   1.504
 9575SOL    HW128771   6.804   3.343   1.569
 9575SOL    HW228772   6.751   3.388   1.422
 9576SOL     OW28773   5.901   2.822   0.229
 9576SOL    HW128774   5.994   2.836   0.194
 9576SOL    HW228775   5.872   2.729   0.210
 9577SOL     OW28776   6.052   3.125   1.731
 9577SOL    HW128777   6.026   3.132   1.634
 9577SOL    HW228778   5.970   3.124   1.788
 9578SOL     OW28779   6.683   3.626   0.236
 9578SOL    HW128780   6.616   3.572   0.287
 9578SOL    HW228781   6.711   3.575   0.154
 9579SOL     OW28782   5.788   2.139   1.503
 9579SOL    HW128783   5.706   2.195   1.497
 9579SOL    HW228784   5.767   2.052   1.548
 9580SOL     OW28785   0.232   3.246   0.044
 9580SOL    HW128786   0.164   3.296   0.098
 9580SOL    HW228787   0.208   3.149   0.042
 9581SOL     OW28788   6.067   3.562   0.376
 9581SOL    HW128789   6.097   3.647   0.420
 9581SOL    HW228790   6.128   3.541   0.300
 9582SOL     OW28791   5.845   3.654   1.227
 9582SOL    HW128792   5.896   3.582   1.274
 9582SOL    HW228793   5.826   3.625   1.133
 9583SOL     OW28794   6.524   3.563   0.896
 9583SOL    HW128795   6.609   3.515   0.917
 9583SOL    HW228796   6.475   3.514   0.824
 9584SOL     OW28797   5.983   2.549   0.470
 9584SOL    HW128798   6.003   2.453   0.488
 9584SOL    HW228799   5.886   2.567   0.489
 9585SOL     OW28800   6.349   2.139   1.759
 9585SOL    HW128801   6.431   2.082   1.752
 9585SOL    HW228802   6.295   2.110   1.837
 9586SOL     OW28803   6.460   3.380   1.192
 9586SOL    HW128804   6.441   3.344   1.100
 9586SOL    HW228805   6.532   3.325   1.234
 9587SOL     OW28806   6.402   3.253   0.941
 9587SOL    HW128807   6.492   3.240   0.900
 9587SOL    HW228808   6.332   3.257   0.869
 9588SOL     OW28809   6.512   2.368   0.901
 9588SOL    HW128810   6.487   2.362   0.804
 9588SOL    HW228811   6.544   2.279   0.933
 9589SOL     OW28812   6.135   1.933   0.504
 9589SOL    HW128813   6.051   1.930   0.558
 9589SOL    HW228814   6.131   2.012   0.442
 9590SOL     OW28815   6.531   2.111   0.461
 9590SOL    HW128816   6.495   2.151   0.377
 9590SOL    HW228817   6.630   2.123   0.464
 9591SOL     OW28818   6.656   2.530   1.460
 9591SOL    HW128819   6.562   2.495   1.461
 9591SOL    HW228820   6.720   2.453   1.460
 9592SOL     OW28821   6.781   3.436   0.802
 9592SOL    HW128822   6.800   3.499   0.726
 9592SOL    HW228823   6.866   3.418   0.852
 9593SOL     OW28824   6.056   3.013   0.732
 9593SOL    HW128825   5.986   2.992   0.799
 9593SOL    HW228826   6.018   3.005   0.640
 9594SOL     OW28827   6.841   3.656   0.603
 9594SOL    HW128828   6.868   3.718   0.529
 9594SOL    HW228829   6.771   3.700   0.660
 9595SOL     OW28830   6.682   2.452   0.026
 9595SOL    HW128831   6.582   2.458   0.030
 9595SOL    HW228832   6.717   2.431   0.117
 9596SOL     OW28833   5.672   2.419   1.391
 9596SOL    HW128834   5.766   2.415   1.359
 9596SOL    HW228835   5.664   2.490   1.461
 9597SOL     OW28836   6.145   2.087   1.172
 9597SOL    HW128837   6.193   2.009   1.211
 9597SOL    HW228838   6.049   2.085   1.202
 9598SOL     OW28839   6.450   2.316   0.641
 9598SOL    HW128840   6.410   2.383   0.578
 9598SOL    HW228841   6.476   2.234   0.589
 9599SOL     OW28842   6.606   1.909   0.740
 9599SOL    HW128843   6.540   1.910   0.665
 9599SOL    HW228844   6.581   1.836   0.805
 9600SOL     OW28845   6.061   3.283   0.150
 9600SOL    HW128846   5.999   3.235   0.213
 9600SOL    HW228847   6.021   3.283   0.058
 9601SOL     OW28848   6.102   2.127   0.313
 9601SOL    HW128849   6.111   2.059   0.240
 9601SOL    HW228850   6.079   2.216   0.273
 9602SOL     OW28851   6.629   3.210   1.332
 9602SOL    HW128852   6.546   3.183   1.381
 9602SOL    HW228853   6.708   3.166   1.374
 9603SOL     OW28854   6.726   3.086   1.101
 9603SOL    HW128855   6.667   3.117   1.176
 9603SOL    HW228856   6.685   3.113   1.014
 9604SOL     OW28857   6.505   1.958   1.388
 9604SOL    HW128858   6.526   1.934   1.294
 9604SOL    HW228859   6.585   1.999   1.431
 9605SOL     OW28860   6.566   2.974   1.727
 9605SOL    HW128861   6.471   2.997   1.752
 9605SOL    HW228862   6.566   2.894   1.667
 9606SOL     OW28863   6.298   2.919   0.375
 9606SOL    HW128864   6.280   2.904   0.472
 9606SOL    HW228865   6.377   2.865   0.347
 9607SOL     OW28866   6.008   2.677   1.254
 9607SOL    HW128867   6.081   2.690   1.321
 9607SOL    HW228868   5.969   2.585   1.264
 9608SOL     OW28869   6.851   2.235   1.292
 9608SOL    HW128870   6.907   2.315   1.311
 9608SOL    HW228871   6.759   2.264   1.265
 9609SOL     OW28872   5.660   3.434   1.353
 9609SOL    HW128873   5.625   3.504   1.291
 9609SOL    HW228874   5.760   3.432   1.347
 9610SOL     OW28875   5.951   2.982   0.484
 9610SOL    HW128876   5.931   3.059   0.424
 9610SOL    HW228877   5.948   2.897   0.432
 9611SOL     OW28878   6.135   2.406   0.862
 9611SOL    HW128879   6.149   2.464   0.782
 9611SOL    HW228880   6.204   2.426   0.931
 9612SOL     OW28881   6.825   3.226   0.417
 9612SOL    HW128882   6.877   3.305   0.448
 9612SOL    HW228883   6.727   3.243   0.431
 9613SOL     OW28884   6.850   3.338   1.140
 9613SOL    HW128885   6.929   3.333   1.202
 9613SOL    HW228886   6.808   3.248   1.131
 9614SOL     OW28887   5.934   3.391   1.310
 9614SOL    HW128888   5.918   3.347   1.222
 9614SOL    HW228889   6.032   3.405   1.323
 9615SOL     OW28890   6.001   2.608   1.600
 9615SOL    HW128891   6.067   2.654   1.541
 9615SOL    HW228892   6.033   2.516   1.621
 9616SOL     OW28893   6.578   1.986   1.753
 9616SOL    HW128894   6.630   2.069   1.734
 9616SOL    HW228895   6.633   1.906   1.730
 9617SOL     OW28896   6.078   1.900   1.749
 9617SOL    HW128897   6.034   1.841   1.682
 9617SOL    HW228898   6.020   1.979   1.768
 9618SOL     OW28899   6.170   2.733   1.034
 9618SOL    HW128900   6.204   2.827   1.029
 9618SOL    HW228901   6.109   2.724   1.113
 9619SOL     OW28902   6.952   2.711   1.033
 9619SOL    HW128903   6.860   2.700   0.994
 9619SOL    HW228904   6.988   2.620   1.058
 9620SOL     OW28905   6.770   2.385   0.270
 9620SOL    HW128906   6.785   2.304   0.327
 9620SOL    HW228907   6.732   2.458   0.326
 9621SOL     OW28908   5.883   2.059   1.246
 9621SOL    HW128909   5.847   2.095   1.332
 9621SOL    HW228910   5.868   1.960   1.243
 9622SOL     OW28911   5.637   3.172   1.276
 9622SOL    HW128912   5.669   3.111   1.348
 9622SOL    HW228913   5.640   3.266   1.308
 9623SOL     OW28914   6.311   2.494   1.056
 9623SOL    HW128915   6.387   2.473   0.995
 9623SOL    HW228916   6.275   2.585   1.036
 9624SOL     OW28917   5.891   1.927   0.629
 9624SOL    HW128918   5.867   2.022   0.649
 9624SOL    HW228919   5.902   1.877   0.715
 9625SOL     OW28920   0.183   2.281   0.376
 9625SOL    HW128921   0.260   2.233   0.418
 9625SOL    HW228922   0.166   2.367   0.424
 9626SOL     OW28923   6.608   2.617   0.960
 9626SOL    HW128924   6.604   2.638   1.057
 9626SOL    HW228925   6.583   2.521   0.945
 9627SOL     OW28926   6.555   3.428   1.706
 9627SOL    HW128927   6.543   3.472   1.618
 9627SOL    HW228928   6.607   3.343   1.694
 9628SOL     OW28929   5.939   2.779   1.805
 9628SOL    HW128930   6.019   2.802   1.860
 9628SOL    HW228931   5.964   2.714   1.734
 9629SOL     OW28932   6.887   2.704   0.034
 9629SOL    HW128933   6.923   2.613   0.011
 9629SOL    HW228934   6.905   2.767   6.959
 9630SOL     OW28935   6.650   3.195   0.856
 9630SOL    HW128936   6.654   3.120   0.791
 9630SOL    HW228937   6.702   3.273   0.821
 9631SOL     OW28938   5.897   2.668   0.943
 9631SOL    HW128939   5.993   2.694   0.938
 9631SOL    HW228940   5.890   2.574   0.976
 9632SOL     OW28941   5.914   2.389   1.012
 9632SOL    HW128942   5.875   2.297   1.001
 9632SOL    HW228943   5.995   2.398   0.954
 9633SOL     OW28944   6.694   2.224   1.688
 9633SOL    HW128945   6.647   2.286   1.751
 9633SOL    HW228946   6.790   2.252   1.680
 9634SOL     OW28947   6.744   2.058   1.474
 9634SOL    HW128948   6.723   2.117   1.552
 9634SOL    HW228949   6.787   2.112   1.402
 9635SOL     OW28950   5.680   3.646   0.943
 9635SOL    HW128951   5.642   3.565   0.898
 9635SOL    HW228952   5.773   3.662   0.911
 9636SOL     OW28953   6.080   3.438   0.905
 9636SOL    HW128954   6.150   3.504   0.932
 9636SOL    HW228955   6.120   3.370   0.843
 9637SOL     OW28956   6.564   2.654   1.225
 9637SOL    HW128957   6.624   2.630   1.302
 9637SOL    HW228958   6.474   2.613   1.239
 9638SOL     OW28959   5.623   2.413   1.117
 9638SOL    HW128960   5.705   2.400   1.062
 9638SOL    HW228961   5.648   2.416   1.214
 9639SOL     OW28962   5.779   2.385   1.730
 9639SOL    HW128963   5.829   2.330   1.663
 9639SOL    HW228964   5.739   2.464   1.684
 9640SOL     OW28965   6.402   2.435   0.374
 9640SOL    HW128966   6.410   2.354   0.316
 9640SOL    HW228967   6.324   2.490   0.344
 9641SOL     OW28968   5.826   3.409   1.726
 9641SOL    HW128969   5.804   3.484   1.790
 9641SOL    HW228970   5.832   3.323   1.777
 9642SOL     OW28971   6.295   2.312   1.255
 9642SOL    HW128972   6.237   2.233   1.232
 9642SOL    HW228973   6.291   2.379   1.181
 9643SOL     OW28974   6.500   3.548   1.467
 9643SOL    HW128975   6.481   3.499   1.382
 9643SOL    HW228976   6.496   3.647   1.450
 9644SOL     OW28977   6.043   2.361   0.188
 9644SOL    HW128978   6.106   2.434   0.213
 9644SOL    HW228979   5.950   2.398   0.185
 9645SOL     OW28980   5.728   2.999   1.475
 9645SOL    HW128981   5.730   2.954   1.564
 9645SOL    HW228982   5.748   2.932   1.403
 9646SOL     OW28983   6.896   2.908   1.223
 9646SOL    HW128984   6.921   2.835   1.159
 9646SOL    HW228985   6.831   2.970   1.178
 9647SOL     OW28986   6.890   2.723   0.311
 9647SOL    HW128987   6.810   2.686   0.358
 9647SOL    HW228988   6.879   2.710   0.213
 9648SOL     OW28989   6.844   3.609   1.118
 9648SOL    HW128990   6.923   3.627   1.059
 9648SOL    HW228991   6.834   3.510   1.130
 9649SOL     OW28992   5.671   3.128   1.010
 9649SOL    HW128993   5.655   3.142   1.108
 9649SOL    HW228994   5.600   3.069   0.973
 9650SOL     OW28995   6.266   3.535   1.738
 9650SOL    HW128996   6.205   3.614   1.729
 9650SOL    HW228997   6.341   3.543   1.672
 9651SOL     OW28998   6.530   1.962   0.118
 9651SOL    HW128999   6.604   1.988   0.055
 9651SOL    HW229000   6.565   1.896   0.184
 9652SOL     OW29001   6.974   3.440   0.491
 9652SOL    HW129002   0.061   3.473   0.453
 9652SOL    HW229003   6.921   3.519   0.522
 9653SOL     OW29004   5.730   3.650   1.846
 9653SOL    HW129005   5.673   3.582   1.891
 9653SOL    HW229006   5.780   3.703   1.914
 9654SOL     OW29007   6.870   2.778   0.663
 9654SOL    HW129008   6.956   2.729   0.678
 9654SOL    HW229009   6.887   2.862   0.611
 9655SOL     OW29010   6.384   3.138   1.427
 9655SOL    HW129011   6.355   3.183   1.511
 9655SOL    HW229012   6.316   3.153   1.355
 9656SOL     OW29013   6.251   3.470   0.196
 9656SOL    HW129014   6.306   3.493   0.116
 9656SOL    HW229015   6.194   3.390   0.175
 9657SOL     OW29016   5.842   2.179   0.716
 9657SOL    HW129017   5.753   2.214   0.688
 9657SOL    HW229018   5.845   2.170   0.816
 9658SOL     OW29019   6.742   3.486   0.005
 9658SOL    HW129020   6.826   3.452   0.048
 9658SOL    HW229021   6.731   3.444   6.915
 9659SOL     OW29022   6.412   2.871   1.378
 9659SOL    HW129023   6.459   2.858   1.291
 9659SOL    HW229024   6.405   2.968   1.399
 9660SOL     OW29025   6.503   2.770   0.290
 9660SOL    HW129026   6.556   2.799   0.211
 9660SOL    HW229027   6.556   2.702   0.342
 9661SOL     OW29028   5.951   3.164   1.487
 9661SOL    HW129029   5.942   3.245   1.428
 9661SOL    HW229030   5.871   3.106   1.475
 9662SOL     OW29031   6.640   2.969   0.712
 9662SOL    HW129032   6.566   2.917   0.754
 9662SOL    HW229033   6.706   2.906   0.671
 9663SOL     OW29034   6.606   2.101   0.966
 9663SOL    HW129035   6.599   2.056   0.876
 9663SOL    HW229036   6.605   2.031   1.038
 9664SOL     OW29037   6.197   3.340   0.484
 9664SOL    HW129038   6.237   3.290   0.408
 9664SOL    HW229039   6.134   3.410   0.449
 9665SOL     OW29040   5.863   3.182   0.308
 9665SOL    HW129041   5.779   3.172   0.255
 9665SOL    HW229042   5.843   3.235   0.391
 9666SOL     OW29043   5.700   2.895   1.727
 9666SOL    HW129044   5.618   2.868   1.778
 9666SOL    HW229045   5.780   2.850   1.767
 9667SOL     OW29046   6.267   2.058   1.500
 9667SOL    HW129047   6.353   2.034   1.455
 9667SOL    HW229048   6.287   2.091   1.593
 9668SOL     OW29049   5.689   2.188   0.018
 9668SOL    HW129050   5.628   2.131   6.962
 9668SOL    HW229051   5.722   2.264   6.963
 9669SOL     OW29052   5.636   2.037   0.329
 9669SOL    HW129053   5.623   2.128   0.291
 9669SOL    HW229054   5.709   1.990   0.280
 9670SOL     OW29055   6.210   2.691   1.434
 9670SOL    HW129056   6.267   2.772   1.419
 9670SOL    HW229057   6.269   2.611   1.444
 9671SOL     OW29058   6.311   2.420   1.702
 9671SOL    HW129059   6.352   2.486   1.764
 9671SOL    HW229060   6.327   2.327   1.736
 9672SOL     OW29061   0.004   3.125   1.650
 9672SOL    HW129062   0.001   3.060   1.725
 9672SOL    HW229063   0.082   3.104   1.591
 9673SOL     OW29064   5.958   3.600   1.567
 9673SOL    HW129065   5.874   3.651   1.552
 9673SOL    HW229066   5.937   3.512   1.609
 9674SOL     OW29067   6.803   2.171   0.442
 9674SOL    HW129068   6.876   2.115   0.404
 9674SOL    HW229069   6.839   2.225   0.519
 9675SOL     OW29070   6.173   2.597   0.666
 9675SOL    HW129071   6.214   2.688   0.658
 9675SOL    HW229072   6.103   2.586   0.596
 9676SOL     OW29073   6.449   3.245   0.030
 9676SOL    HW129074   6.411   3.211   0.116
 9676SOL    HW229075   6.461   3.344   0.036
 9677SOL     OW29076   6.250   3.648   0.943
 9677SOL    HW129077   6.227   3.743   0.921
 9677SOL    HW229078   6.349   3.635   0.933
 9678SOL     OW29079   6.454   2.831   0.857
 9678SOL    HW129080   6.506   2.754   0.893
 9678SOL    HW229081   6.413   2.882   0.933
 9679SOL     OW29082   6.658   2.841   0.079
 9679SOL    HW129083   6.691   2.935   0.066
 9679SOL    HW229084   6.734   2.777   0.067
 9680SOL     OW29085   5.816   3.161   1.857
 9680SOL    HW129086   5.750   3.095   1.822
 9680SOL    HW229087   5.801   3.175   1.955
 9681SOL     OW29088   5.668   3.097   0.665
 9681SOL    HW129089   5.684   3.045   0.749
 9681SOL    HW229090   5.717   3.053   0.590
 9682SOL     OW29091   6.262   3.272   1.628
 9682SOL    HW129092   6.184   3.221   1.664
 9682SOL    HW229093   6.265   3.363   1.670
 9683SOL     OW29094   6.017   2.291   0.528
 9683SOL    HW129095   6.048   2.220   0.465
 9683SOL    HW229096   5.962   2.250   0.601
 9684SOL     OW29097   5.921   2.418   1.289
 9684SOL    HW129098   5.977   2.361   1.349
 9684SOL    HW229099   5.936   2.392   1.194
 9685SOL     OW29100   6.411   3.442   0.680
 9685SOL    HW129101   6.402   3.499   0.598
 9685SOL    HW229102   6.335   3.378   0.686
 9686SOL     OW29103   6.993   2.082   1.117
 9686SOL    HW129104   0.017   1.993   1.156
 9686SOL    HW229105   6.940   2.135   1.183
 9687SOL     OW29106   6.598   1.877   1.138
 9687SOL    HW129107   6.539   1.810   1.094
 9687SOL    HW229108   6.691   1.840   1.144
 9688SOL     OW29109   6.367   3.181   0.307
 9688SOL    HW129110   6.333   3.089   0.327
 9688SOL    HW229111   6.447   3.200   0.363
 9689SOL     OW29112   6.209   3.421   1.289
 9689SOL    HW129113   6.207   3.508   1.339
 9689SOL    HW229114   6.300   3.408   1.249
 9690SOL     OW29115   5.672   2.916   0.361
 9690SOL    HW129116   5.760   2.894   0.320
 9690SOL    HW229117   5.618   2.833   0.372
 9691SOL     OW29118   6.463   3.521   0.360
 9691SOL    HW129119   6.387   3.495   0.301
 9691SOL    HW229120   6.439   3.603   0.411
 9692SOL     OW29121   5.809   2.480   1.989
 9692SOL    HW129122   5.717   2.482   2.029
 9692SOL    HW229123   5.802   2.458   1.892
 9693SOL     OW29124   5.809   2.144   2.856
 9693SOL    HW129125   5.841   2.110   2.945
 9693SOL    HW229126   5.715   2.112   2.840
 9694SOL     OW29127   5.587   2.247   2.496
 9694SOL    HW129128   5.503   2.278   2.541
 9694SOL    HW229129   5.569   2.164   2.444
 9695SOL     OW29130   6.144   3.137   3.034
 9695SOL    HW129131   6.053   3.135   2.992
 9695SOL    HW229132   6.169   3.231   3.056
 9696SOL     OW29133   0.070   3.408   2.622
 9696SOL    HW129134   0.103   3.314   2.632
 9696SOL    HW229135   0.041   3.423   2.527
 9697SOL     OW29136   6.692   2.581   2.550
 9697SOL    HW129137   6.759   2.654   2.539
 9697SOL    HW229138   6.656   2.582   2.644
 9698SOL     OW29139   6.335   2.999   2.903
 9698SOL    HW129140   6.262   3.031   2.963
 9698SOL    HW229141   6.375   3.076   2.854
 9699SOL     OW29142   6.461   2.628   3.685
 9699SOL    HW129143   6.441   2.696   3.756
 9699SOL    HW229144   6.482   2.675   3.600
 9700SOL     OW29145   6.270   2.861   2.511
 9700SOL    HW129146   6.341   2.850   2.580
 9700SOL    HW229147   6.195   2.917   2.548
 9701SOL     OW29148   6.291   3.010   3.677
 9701SOL    HW129149   6.335   3.093   3.710
 9701SOL    HW229150   6.203   3.033   3.635
 9702SOL     OW29151   5.910   3.273   2.906
 9702SOL    HW129152   5.830   3.235   2.859
 9702SOL    HW229153   5.962   3.331   2.843
 9703SOL     OW29154   6.037   2.256   3.342
 9703SOL    HW129155   6.117   2.197   3.349
 9703SOL    HW229156   5.954   2.202   3.360
 9704SOL     OW29157   5.808   3.576   2.334
 9704SOL    HW129158   5.825   3.655   2.392
 9704SOL    HW229159   5.882   3.566   2.268
 9705SOL     OW29160   6.722   3.198   3.571
 9705SOL    HW129161   6.817   3.167   3.560
 9705SOL    HW229162   6.661   3.119   3.569
 9706SOL     OW29163   5.819   3.305   2.399
 9706SOL    HW129164   5.803   3.404   2.397
 9706SOL    HW229165   5.758   3.262   2.465
 9707SOL     OW29166   5.855   2.951   2.763
 9707SOL    HW129167   5.850   2.857   2.795
 9707SOL    HW229168   5.791   3.008   2.815
 9708SOL     OW29169   6.169   2.848   2.002
 9708SOL    HW129170   6.215   2.896   1.927
 9708SOL    HW229171   6.209   2.877   2.089
 9709SOL     OW29172   5.700   2.522   2.425
 9709SOL    HW129173   5.670   2.428   2.442
 9709SOL    HW229174   5.694   2.574   2.510
 9710SOL     OW29175   5.615   3.453   1.985
 9710SOL    HW129176   5.599   3.356   2.004
 9710SOL    HW229177   5.594   3.507   2.067
 9711SOL     OW29178   5.709   2.606   3.447
 9711SOL    HW129179   5.806   2.632   3.449
 9711SOL    HW229180   5.653   2.688   3.451
 9712SOL     OW29181   6.197   3.252   2.594
 9712SOL    HW129182   6.150   3.164   2.607
 9712SOL    HW229183   6.184   3.283   2.499
 9713SOL     OW29184   6.839   3.081   3.293
 9713SOL    HW129185   6.877   3.012   3.231
 9713SOL    HW229186   6.902   3.094   3.370
 9714SOL     OW29187   6.401   1.872   2.372
 9714SOL    HW129188   6.447   1.958   2.349
 9714SOL    HW229189   6.303   1.887   2.380
 9715SOL     OW29190   5.777   2.821   3.138
 9715SOL    HW129191   5.866   2.778   3.123
 9715SOL    HW229192   5.708   2.776   3.083
 9716SOL     OW29193   6.749   3.667   3.478
 9716SOL    HW129194   6.756   3.742   3.411
 9716SOL    HW229195   6.769   3.580   3.433
 9717SOL     OW29196   5.926   2.111   3.692
 9717SOL    HW129197   5.974   2.198   3.706
 9717SOL    HW229198   5.829   2.124   3.713
 9718SOL     OW29199   6.181   2.582   2.134
 9718SOL    HW129200   6.186   2.667   2.082
 9718SOL    HW229201   6.112   2.591   2.206
 9719SOL     OW29202   6.872   2.183   2.755
 9719SOL    HW129203   6.774   2.173   2.770
 9719SOL    HW229204   6.922   2.148   2.834
 9720SOL     OW29205   6.384   2.474   3.313
 9720SOL    HW129206   6.356   2.452   3.406
 9720SOL    HW229207   6.343   2.409   3.249
 9721SOL     OW29208   6.943   2.320   3.537
 9721SOL    HW129209   6.920   2.405   3.586
 9721SOL    HW229210   0.042   2.312   3.527
 9722SOL     OW29211   6.543   2.747   3.444
 9722SOL    HW129212   6.599   2.672   3.408
 9722SOL    HW229213   6.490   2.788   3.371
 9723SOL     OW29214   6.583   2.274   3.094
 9723SOL    HW129215   6.491   2.292   3.130
 9723SOL    HW229216   6.575   2.224   3.008
 9724SOL     OW29217   6.634   2.563   2.286
 9724SOL    HW129218   6.652   2.564   2.384
 9724SOL    HW229219   6.548   2.514   2.268
 9725SOL     OW29220   5.675   2.689   2.641
 9725SOL    HW129221   5.760   2.677   2.692
 9725SOL    HW229222   5.625   2.768   2.677
 9726SOL     OW29223   6.481   2.214   2.058
 9726SOL    HW129224   6.522   2.281   1.996
 9726SOL    HW229225   6.484   2.123   2.016
 9727SOL     OW29226   6.926   2.994   2.379
 9727SOL    HW129227   6.998   2.978   2.311
 9727SOL    HW229228   6.874   3.076   2.353
 9728SOL     OW29229   6.134   2.037   2.762
 9728SOL    HW129230   6.137   2.067   2.858
 9728SOL    HW229231   6.136   2.117   2.702
 9729SOL     OW29232   6.572   3.310   2.333
 9729SOL    HW129233   6.540   3.388   2.278
 9729SOL    HW229234   6.548   3.325   2.429
 9730SOL     OW29235   5.946   3.676   2.724
 9730SOL    HW129236   5.991   3.587   2.734
 9730SOL    HW229237   6.011   3.748   2.748
 9731SOL     OW29238   6.780   3.418   3.367
 9731SOL    HW129239   6.802   3.341   3.427
 9731SOL    HW229240   6.752   3.383   3.277
 9732SOL     OW29241   5.908   2.820   2.116
 9732SOL    HW129242   5.996   2.841   2.072
 9732SOL    HW229243   5.871   2.736   2.077
 9733SOL     OW29244   6.048   3.120   3.594
 9733SOL    HW129245   6.018   3.132   3.499
 9733SOL    HW229246   5.968   3.112   3.653
 9734SOL     OW29247   6.711   3.633   2.105
 9734SOL    HW129248   6.629   3.603   2.152
 9734SOL    HW229249   6.725   3.576   2.023
 9735SOL     OW29250   5.788   2.139   3.365
 9735SOL    HW129251   5.706   2.195   3.359
 9735SOL    HW229252   5.767   2.052   3.411
 9736SOL     OW29253   6.050   3.597   2.180
 9736SOL    HW129254   6.092   3.659   2.247
 9736SOL    HW229255   6.121   3.561   2.120
 9737SOL     OW29256   5.843   3.654   3.042
 9737SOL    HW129257   5.889   3.572   3.075
 9737SOL    HW229258   5.801   3.635   2.953
 9738SOL     OW29259   6.522   3.564   2.757
 9738SOL    HW129260   6.605   3.516   2.783
 9738SOL    HW229261   6.476   3.513   2.683
 9739SOL     OW29262   5.981   2.550   2.337
 9739SOL    HW129263   6.002   2.453   2.351
 9739SOL    HW229264   5.884   2.567   2.354
 9740SOL     OW29265   6.227   1.979   1.963
 9740SOL    HW129266   6.294   1.908   1.986
 9740SOL    HW229267   6.170   1.949   1.887
 9741SOL     OW29268   6.349   2.139   3.621
 9741SOL    HW129269   6.431   2.082   3.614
 9741SOL    HW229270   6.295   2.110   3.699
 9742SOL     OW29271   6.463   3.362   3.028
 9742SOL    HW129272   6.450   3.318   2.939
 9742SOL    HW229273   6.537   3.317   3.077
 9743SOL     OW29274   6.401   3.240   2.791
 9743SOL    HW129275   6.492   3.231   2.749
 9743SOL    HW229276   6.332   3.249   2.719
 9744SOL     OW29277   6.511   2.369   2.762
 9744SOL    HW129278   6.487   2.363   2.665
 9744SOL    HW229279   6.544   2.279   2.794
 9745SOL     OW29280   6.133   1.926   2.357
 9745SOL    HW129281   6.051   1.924   2.414
 9745SOL    HW229282   6.129   2.007   2.297
 9746SOL     OW29283   6.988   2.985   1.882
 9746SOL    HW129284   0.025   2.935   1.961
 9746SOL    HW229285   6.924   3.055   1.913
 9747SOL     OW29286   5.876   1.911   2.048
 9747SOL    HW129287   5.929   1.981   2.001
 9747SOL    HW229288   5.939   1.846   2.091
 9748SOL     OW29289   6.529   2.111   2.316
 9748SOL    HW129290   6.494   2.153   2.233
 9748SOL    HW229291   6.628   2.123   2.321
 9749SOL     OW29292   6.656   2.530   3.322
 9749SOL    HW129293   6.563   2.495   3.322
 9749SOL    HW229294   6.721   2.453   3.322
 9750SOL     OW29295   6.784   3.436   2.662
 9750SOL    HW129296   6.801   3.502   2.589
 9750SOL    HW229297   6.869   3.417   2.711
 9751SOL     OW29298   6.054   3.013   2.591
 9751SOL    HW129299   5.987   2.993   2.662
 9751SOL    HW229300   6.012   3.000   2.501
 9752SOL     OW29301   6.841   3.654   2.468
 9752SOL    HW129302   6.879   3.715   2.400
 9752SOL    HW229303   6.770   3.701   2.521
 9753SOL     OW29304   6.610   2.401   1.888
 9753SOL    HW129305   6.564   2.487   1.869
 9753SOL    HW229306   6.674   2.413   1.964
 9754SOL     OW29307   5.672   2.419   3.253
 9754SOL    HW129308   5.766   2.415   3.221
 9754SOL    HW229309   5.664   2.490   3.322
 9755SOL     OW29310   6.145   2.087   3.034
 9755SOL    HW129311   6.194   2.009   3.074
 9755SOL    HW229312   6.049   2.085   3.064
 9756SOL     OW29313   6.450   2.317   2.500
 9756SOL    HW129314   6.405   2.383   2.440
 9756SOL    HW229315   6.475   2.236   2.447
 9757SOL     OW29316   6.606   1.911   2.604
 9757SOL    HW129317   6.541   1.913   2.528
 9757SOL    HW229318   6.581   1.837   2.667
 9758SOL     OW29319   6.073   3.283   2.020
 9758SOL    HW129320   5.992   3.255   2.071
 9758SOL    HW229321   6.073   3.238   1.931
 9759SOL     OW29322   6.115   2.126   2.172
 9759SOL    HW129323   6.162   2.074   2.101
 9759SOL    HW229324   6.086   2.214   2.135
 9760SOL     OW29325   6.632   3.210   3.190
 9760SOL    HW129326   6.547   3.184   3.237
 9760SOL    HW229327   6.709   3.164   3.234
 9761SOL     OW29328   6.727   3.085   2.961
 9761SOL    HW129329   6.668   3.116   3.036
 9761SOL    HW229330   6.685   3.112   2.874
 9762SOL     OW29331   6.505   1.958   3.250
 9762SOL    HW129332   6.526   1.934   3.156
 9762SOL    HW229333   6.585   1.999   3.293
 9763SOL     OW29334   6.561   2.973   3.590
 9763SOL    HW129335   6.466   2.993   3.614
 9763SOL    HW229336   6.564   2.894   3.529
 9764SOL     OW29337   6.298   2.920   2.235
 9764SOL    HW129338   6.281   2.903   2.332
 9764SOL    HW229339   6.377   2.866   2.205
 9765SOL     OW29340   6.009   2.676   3.115
 9765SOL    HW129341   6.081   2.689   3.183
 9765SOL    HW229342   5.969   2.584   3.126
 9766SOL     OW29343   6.851   2.235   3.155
 9766SOL    HW129344   6.907   2.315   3.173
 9766SOL    HW229345   6.759   2.265   3.127
 9767SOL     OW29346   5.672   3.404   3.189
 9767SOL    HW129347   5.640   3.488   3.145
 9767SOL    HW229348   5.772   3.401   3.185
 9768SOL     OW29349   5.929   2.979   2.349
 9768SOL    HW129350   5.935   3.061   2.292
 9768SOL    HW229351   5.927   2.898   2.291
 9769SOL     OW29352   6.135   2.405   2.725
 9769SOL    HW129353   6.149   2.465   2.645
 9769SOL    HW229354   6.204   2.426   2.794
 9770SOL     OW29355   6.824   3.231   2.280
 9770SOL    HW129356   6.879   3.308   2.313
 9770SOL    HW229357   6.727   3.249   2.296
 9771SOL     OW29358   6.852   3.336   3.004
 9771SOL    HW129359   6.932   3.326   3.063
 9771SOL    HW229360   6.808   3.248   2.991
 9772SOL     OW29361   5.937   3.367   3.150
 9772SOL    HW129362   5.916   3.326   3.061
 9772SOL    HW229363   6.036   3.372   3.161
 9773SOL     OW29364   6.001   2.608   3.462
 9773SOL    HW129365   6.067   2.654   3.403
 9773SOL    HW229366   6.033   2.516   3.483
 9774SOL     OW29367   6.578   1.986   3.615
 9774SOL    HW129368   6.630   2.069   3.596
 9774SOL    HW229369   6.632   1.906   3.592
 9775SOL     OW29370   6.079   1.900   3.611
 9775SOL    HW129371   6.034   1.841   3.544
 9775SOL    HW229372   6.020   1.979   3.629
 9776SOL     OW29373   6.170   2.733   2.896
 9776SOL    HW129374   6.205   2.826   2.892
 9776SOL    HW229375   6.109   2.723   2.975
 9777SOL     OW29376   6.951   2.710   2.894
 9777SOL    HW129377   6.859   2.700   2.856
 9777SOL    HW229378   6.988   2.621   2.919
 9778SOL     OW29379   6.768   2.397   2.114
 9778SOL    HW129380   6.784   2.311   2.163
 9778SOL    HW229381   6.730   2.465   2.177
 9779SOL     OW29382   5.883   2.059   3.109
 9779SOL    HW129383   5.847   2.095   3.194
 9779SOL    HW229384   5.868   1.960   3.105
 9780SOL     OW29385   5.624   3.148   3.138
 9780SOL    HW129386   5.664   3.093   3.210
 9780SOL    HW229387   5.637   3.245   3.158
 9781SOL     OW29388   6.311   2.494   2.918
 9781SOL    HW129389   6.387   2.473   2.856
 9781SOL    HW229390   6.275   2.585   2.898
 9782SOL     OW29391   5.892   1.924   2.490
 9782SOL    HW129392   5.868   2.019   2.508
 9782SOL    HW229393   5.903   1.875   2.576
 9783SOL     OW29394   0.210   2.309   2.202
 9783SOL    HW129395   0.172   2.217   2.206
 9783SOL    HW229396   0.189   2.357   2.287
 9784SOL     OW29397   6.609   2.617   2.821
 9784SOL    HW129398   6.604   2.638   2.919
 9784SOL    HW229399   6.583   2.521   2.807
 9785SOL     OW29400   6.565   3.414   3.602
 9785SOL    HW129401   6.570   3.479   3.526
 9785SOL    HW229402   6.617   3.332   3.579
 9786SOL     OW29403   5.938   2.778   3.668
 9786SOL    HW129404   6.019   2.800   3.723
 9786SOL    HW229405   5.964   2.713   3.596
 9787SOL     OW29406   6.885   2.680   1.892
 9787SOL    HW129407   6.946   2.609   1.928
 9787SOL    HW229408   6.921   2.714   1.805
 9788SOL     OW29409   6.653   3.195   2.716
 9788SOL    HW129410   6.658   3.119   2.650
 9788SOL    HW229411   6.705   3.273   2.680
 9789SOL     OW29412   5.897   2.668   2.805
 9789SOL    HW129413   5.993   2.694   2.799
 9789SOL    HW229414   5.889   2.574   2.838
 9790SOL     OW29415   5.914   2.389   2.874
 9790SOL    HW129416   5.875   2.297   2.863
 9790SOL    HW229417   5.995   2.398   2.816
 9791SOL     OW29418   6.694   2.225   3.550
 9791SOL    HW129419   6.647   2.286   3.614
 9791SOL    HW229420   6.790   2.252   3.542
 9792SOL     OW29421   6.744   2.058   3.336
 9792SOL    HW129422   6.723   2.117   3.414
 9792SOL    HW229423   6.787   2.112   3.264
 9793SOL     OW29424   5.587   3.178   2.057
 9793SOL    HW129425   5.497   3.197   2.016
 9793SOL    HW229426   5.588   3.084   2.092
 9794SOL     OW29427   5.687   3.642   2.795
 9794SOL    HW129428   5.650   3.561   2.751
 9794SOL    HW229429   5.778   3.662   2.759
 9795SOL     OW29430   6.081   3.440   2.763
 9795SOL    HW129431   6.152   3.503   2.795
 9795SOL    HW229432   6.123   3.371   2.703
 9796SOL     OW29433   6.564   2.654   3.087
 9796SOL    HW129434   6.624   2.630   3.163
 9796SOL    HW229435   6.474   2.611   3.100
 9797SOL     OW29436   5.623   2.413   2.979
 9797SOL    HW129437   5.705   2.400   2.924
 9797SOL    HW229438   5.648   2.416   3.076
 9798SOL     OW29439   5.779   2.385   3.592
 9798SOL    HW129440   5.829   2.330   3.525
 9798SOL    HW229441   5.738   2.464   3.546
 9799SOL     OW29442   6.403   2.434   2.221
 9799SOL    HW129443   6.411   2.354   2.161
 9799SOL    HW229444   6.325   2.490   2.192
 9800SOL     OW29445   5.813   3.388   3.634
 9800SOL    HW129446   5.778   3.449   3.705
 9800SOL    HW229447   5.821   3.295   3.671
 9801SOL     OW29448   6.295   2.312   3.117
 9801SOL    HW129449   6.237   2.233   3.094
 9801SOL    HW229450   6.291   2.379   3.043
 9802SOL     OW29451   6.046   2.358   2.048
 9802SOL    HW129452   6.110   2.430   2.073
 9802SOL    HW229453   5.955   2.396   2.034
 9803SOL     OW29454   5.731   2.993   3.339
 9803SOL    HW129455   5.732   2.948   3.429
 9803SOL    HW229456   5.752   2.925   3.268
 9804SOL     OW29457   6.895   2.907   3.084
 9804SOL    HW129458   6.921   2.834   3.020
 9804SOL    HW229459   6.831   2.970   3.038
 9805SOL     OW29460   6.888   2.733   2.170
 9805SOL    HW129461   6.820   2.696   2.233
 9805SOL    HW229462   6.862   2.714   2.076
 9806SOL     OW29463   6.847   3.608   2.983
 9806SOL    HW129464   6.923   3.627   2.921
 9806SOL    HW229465   6.836   3.509   2.993
 9807SOL     OW29466   5.668   3.122   2.870
 9807SOL    HW129467   5.650   3.131   2.968
 9807SOL    HW229468   5.596   3.065   2.828
 9808SOL     OW29469   6.978   3.446   2.349
 9808SOL    HW129470   0.064   3.487   2.317
 9808SOL    HW229471   6.918   3.518   2.382
 9809SOL     OW29472   5.697   3.686   3.742
 9809SOL    HW129473   5.661   3.598   3.772
 9809SOL    HW229474   5.767   3.717   3.806
 9810SOL     OW29475   6.869   2.778   2.522
 9810SOL    HW129476   6.955   2.733   2.543
 9810SOL    HW229477   6.887   2.860   2.467
 9811SOL     OW29478   6.387   3.134   3.278
 9811SOL    HW129479   6.352   3.172   3.364
 9811SOL    HW229480   6.322   3.152   3.205
 9812SOL     OW29481   6.254   3.484   2.017
 9812SOL    HW129482   6.271   3.501   1.920
 9812SOL    HW229483   6.197   3.403   2.027
 9813SOL     OW29484   5.842   2.176   2.578
 9813SOL    HW129485   5.753   2.213   2.550
 9813SOL    HW229486   5.845   2.168   2.677
 9814SOL     OW29487   6.750   3.471   1.898
 9814SOL    HW129488   6.772   3.374   1.902
 9814SOL    HW229489   6.688   3.488   1.821
 9815SOL     OW29490   6.413   2.867   3.239
 9815SOL    HW129491   6.460   2.852   3.152
 9815SOL    HW229492   6.406   2.966   3.256
 9816SOL     OW29493   6.504   2.772   2.147
 9816SOL    HW129494   6.568   2.809   2.080
 9816SOL    HW229495   6.550   2.701   2.201
 9817SOL     OW29496   5.948   3.164   3.350
 9817SOL    HW129497   5.939   3.239   3.285
 9817SOL    HW229498   5.869   3.103   3.343
 9818SOL     OW29499   6.642   2.968   2.572
 9818SOL    HW129500   6.567   2.917   2.615
 9818SOL    HW229501   6.709   2.904   2.535
 9819SOL     OW29502   6.606   2.101   2.828
 9819SOL    HW129503   6.600   2.057   2.739
 9819SOL    HW229504   6.605   2.032   2.900
 9820SOL     OW29505   6.191   3.349   2.341
 9820SOL    HW129506   6.242   3.295   2.274
 9820SOL    HW229507   6.116   3.396   2.295
 9821SOL     OW29508   5.838   3.209   2.151
 9821SOL    HW129509   5.743   3.203   2.123
 9821SOL    HW229510   5.844   3.248   2.243
 9822SOL     OW29511   5.699   2.890   3.590
 9822SOL    HW129512   5.617   2.864   3.641
 9822SOL    HW229513   5.779   2.846   3.631
 9823SOL     OW29514   6.268   2.058   3.362
 9823SOL    HW129515   6.353   2.033   3.317
 9823SOL    HW229516   6.286   2.091   3.455
 9824SOL     OW29517   5.667   2.191   1.892
 9824SOL    HW129518   5.575   2.167   1.860
 9824SOL    HW229519   5.699   2.272   1.843
 9825SOL     OW29520   5.650   2.017   2.166
 9825SOL    HW129521   5.633   2.102   2.115
 9825SOL    HW229522   5.738   1.979   2.138
 9826SOL     OW29523   6.210   2.690   3.296
 9826SOL    HW129524   6.266   2.771   3.280
 9826SOL    HW229525   6.269   2.610   3.306
 9827SOL     OW29526   6.311   2.420   3.564
 9827SOL    HW129527   6.352   2.486   3.627
 9827SOL    HW229528   6.327   2.327   3.597
 9828SOL     OW29529   6.996   3.124   3.509
 9828SOL    HW129530   0.000   3.062   3.588
 9828SOL    HW229531   0.079   3.112   3.454
 9829SOL     OW29532   6.806   2.174   2.301
 9829SOL    HW129533   6.880   2.119   2.262
 9829SOL    HW229534   6.842   2.229   2.376
 9830SOL     OW29535   6.173   2.598   2.531
 9830SOL    HW129536   6.215   2.688   2.520
 9830SOL    HW229537   6.103   2.586   2.460
 9831SOL     OW29538   6.429   3.230   1.893
 9831SOL    HW129539   6.410   3.251   1.989
 9831SOL    HW229540   6.461   3.312   1.846
 9832SOL     OW29541   6.252   3.648   2.814
 9832SOL    HW129542   6.227   3.742   2.789
 9832SOL    HW229543   6.350   3.635   2.799
 9833SOL     OW29544   6.454   2.831   2.718
 9833SOL    HW129545   6.506   2.753   2.754
 9833SOL    HW229546   6.414   2.882   2.794
 9834SOL     OW29547   6.671   2.851   1.950
 9834SOL    HW129548   6.636   2.905   1.873
 9834SOL    HW229549   6.744   2.791   1.919
 9835SOL     OW29550   5.816   3.133   3.730
 9835SOL    HW129551   5.747   3.075   3.687
 9835SOL    HW229552   5.795   3.144   3.827
 9836SOL     OW29553   5.673   3.091   2.524
 9836SOL    HW129554   5.676   3.045   2.613
 9836SOL    HW229555   5.742   3.052   2.464
 9837SOL     OW29556   6.260   3.250   3.481
 9837SOL    HW129557   6.181   3.205   3.521
 9837SOL    HW229558   6.286   3.328   3.538
 9838SOL     OW29559   6.017   2.290   2.389
 9838SOL    HW129560   6.050   2.220   2.326
 9838SOL    HW229561   5.962   2.247   2.461
 9839SOL     OW29562   5.921   2.417   3.151
 9839SOL    HW129563   5.977   2.360   3.211
 9839SOL    HW229564   5.936   2.392   3.056
 9840SOL     OW29565   6.412   3.442   2.540
 9840SOL    HW129566   6.398   3.504   2.463
 9840SOL    HW229567   6.334   3.379   2.546
 9841SOL     OW29568   6.992   2.082   2.979
 9841SOL    HW129569   0.018   1.994   3.019
 9841SOL    HW229570   6.939   2.135   3.045
 9842SOL     OW29571   6.598   1.877   3.000
 9842SOL    HW129572   6.538   1.810   2.956
 9842SOL    HW229573   6.691   1.841   3.005
 9843SOL     OW29574   6.360   3.194   2.182
 9843SOL    HW129575   6.331   3.098   2.188
 9843SOL    HW229576   6.445   3.207   2.232
 9844SOL     OW29577   6.209   3.391   3.101
 9844SOL    HW129578   6.198   3.484   3.135
 9844SOL    HW229579   6.303   3.378   3.070
 9845SOL     OW29580   6.909   1.941   2.003
 9845SOL    HW129581   6.949   1.890   1.927
 9845SOL    HW229582   6.831   1.891   2.040
 9846SOL     OW29583   5.629   2.927   2.170
 9846SOL    HW129584   5.727   2.927   2.150
 9846SOL    HW229585   5.599   2.834   2.192
 9847SOL     OW29586   6.466   3.526   2.204
 9847SOL    HW129587   6.393   3.504   2.139
 9847SOL    HW229588   6.437   3.603   2.261
 9848SOL     OW29589   5.809   2.481   3.851
 9848SOL    HW129590   5.717   2.481   3.891
 9848SOL    HW229591   5.802   2.458   3.754
 9849SOL     OW29592   5.809   2.144   4.718
 9849SOL    HW129593   5.841   2.110   4.807
 9849SOL    HW229594   5.716   2.112   4.702
 9850SOL     OW29595   5.587   2.248   4.358
 9850SOL    HW129596   5.503   2.278   4.403
 9850SOL    HW229597   5.569   2.164   4.306
 9851SOL     OW29598   6.154   3.158   4.909
 9851SOL    HW129599   6.064   3.155   4.866
 9851SOL    HW229600   6.172   3.250   4.942
 9852SOL     OW29601   0.070   3.409   4.484
 9852SOL    HW129602   0.102   3.315   4.495
 9852SOL    HW229603   0.042   3.423   4.389
 9853SOL     OW29604   6.691   2.581   4.412
 9853SOL    HW129605   6.758   2.654   4.401
 9853SOL    HW229606   6.656   2.582   4.506
 9854SOL     OW29607   6.331   3.003   4.765
 9854SOL    HW129608   6.262   3.038   4.829
 9854SOL    HW229609   6.375   3.080   4.719
 9855SOL     OW29610   6.460   2.628   5.547
 9855SOL    HW129611   6.441   2.696   5.619
 9855SOL    HW229612   6.482   2.676   5.462
 9856SOL     OW29613   6.270   2.861   4.373
 9856SOL    HW129614   6.341   2.850   4.442
 9856SOL    HW229615   6.195   2.917   4.410
 9857SOL     OW29616   6.293   3.012   5.538
 9857SOL    HW129617   6.343   3.092   5.570
 9857SOL    HW229618   6.207   3.041   5.496
 9858SOL     OW29619   5.912   3.285   4.790
 9858SOL    HW129620   5.836   3.241   4.743
 9858SOL    HW229621   5.966   3.338   4.724
 9859SOL     OW29622   6.037   2.256   5.203
 9859SOL    HW129623   6.117   2.197   5.211
 9859SOL    HW229624   5.954   2.202   5.222
 9860SOL     OW29625   5.806   3.576   4.196
 9860SOL    HW129626   5.824   3.655   4.255
 9860SOL    HW229627   5.882   3.565   4.132
 9861SOL     OW29628   6.715   3.207   5.427
 9861SOL    HW129629   6.810   3.177   5.439
 9861SOL    HW229630   6.655   3.128   5.428
 9862SOL     OW29631   5.820   3.306   4.263
 9862SOL    HW129632   5.803   3.405   4.261
 9862SOL    HW229633   5.758   3.263   4.329
 9863SOL     OW29634   5.854   2.952   4.624
 9863SOL    HW129635   5.850   2.858   4.658
 9863SOL    HW229636   5.792   3.009   4.678
 9864SOL     OW29637   6.184   3.660   5.149
 9864SOL    HW129638   6.102   3.635   5.200
 9864SOL    HW229639   6.215   3.750   5.178
 9865SOL     OW29640   6.169   2.846   3.866
 9865SOL    HW129641   6.215   2.894   3.791
 9865SOL    HW229642   6.208   2.875   3.954
 9866SOL     OW29643   5.700   2.522   4.287
 9866SOL    HW129644   5.671   2.428   4.304
 9866SOL    HW229645   5.694   2.574   4.372
 9867SOL     OW29646   5.624   3.450   3.853
 9867SOL    HW129647   5.604   3.353   3.870
 9867SOL    HW229648   5.599   3.504   3.933
 9868SOL     OW29649   5.709   2.606   5.309
 9868SOL    HW129650   5.806   2.632   5.311
 9868SOL    HW229651   5.652   2.688   5.312
 9869SOL     OW29652   6.198   3.252   4.457
 9869SOL    HW129653   6.152   3.164   4.470
 9869SOL    HW229654   6.185   3.283   4.363
 9870SOL     OW29655   6.842   3.084   5.155
 9870SOL    HW129656   6.880   3.014   5.096
 9870SOL    HW229657   6.903   3.098   5.233
 9871SOL     OW29658   6.401   1.872   4.234
 9871SOL    HW129659   6.447   1.958   4.211
 9871SOL    HW229660   6.303   1.887   4.242
 9872SOL     OW29661   5.777   2.825   4.999
 9872SOL    HW129662   5.865   2.781   4.985
 9872SOL    HW229663   5.706   2.775   4.948
 9873SOL     OW29664   6.780   3.675   5.340
 9873SOL    HW129665   6.766   3.743   5.269
 9873SOL    HW229666   6.780   3.584   5.300
 9874SOL     OW29667   5.926   2.112   5.553
 9874SOL    HW129668   5.974   2.198   5.568
 9874SOL    HW229669   5.829   2.124   5.574
 9875SOL     OW29670   6.181   2.582   3.996
 9875SOL    HW129671   6.185   2.667   3.944
 9875SOL    HW229672   6.111   2.590   4.068
 9876SOL     OW29673   6.872   2.183   4.617
 9876SOL    HW129674   6.774   2.173   4.632
 9876SOL    HW229675   6.922   2.148   4.696
 9877SOL     OW29676   6.384   2.474   5.175
 9877SOL    HW129677   6.356   2.452   5.268
 9877SOL    HW229678   6.343   2.409   5.111
 9878SOL     OW29679   6.943   2.320   5.399
 9878SOL    HW129680   6.920   2.405   5.447
 9878SOL    HW229681   0.042   2.313   5.389
 9879SOL     OW29682   6.543   2.747   5.306
 9879SOL    HW129683   6.599   2.673   5.269
 9879SOL    HW229684   6.490   2.789   5.233
 9880SOL     OW29685   6.583   2.274   4.957
 9880SOL    HW129686   6.491   2.292   4.992
 9880SOL    HW229687   6.575   2.224   4.870
 9881SOL     OW29688   6.634   2.563   4.147
 9881SOL    HW129689   6.652   2.564   4.246
 9881SOL    HW229690   6.548   2.514   4.130
 9882SOL     OW29691   5.675   2.689   4.503
 9882SOL    HW129692   5.760   2.677   4.554
 9882SOL    HW229693   5.626   2.768   4.540
 9883SOL     OW29694   5.714   3.731   5.311
 9883SOL    HW129695   5.719   3.704   5.407
 9883SOL    HW229696   5.628   3.700   5.271
 9884SOL     OW29697   6.481   2.214   3.920
 9884SOL    HW129698   6.522   2.280   3.858
 9884SOL    HW229699   6.484   2.123   3.878
 9885SOL     OW29700   6.925   2.994   4.241
 9885SOL    HW129701   6.998   2.978   4.174
 9885SOL    HW229702   6.874   3.076   4.216
 9886SOL     OW29703   6.134   2.037   4.624
 9886SOL    HW129704   6.137   2.067   4.720
 9886SOL    HW229705   6.136   2.117   4.564
 9887SOL     OW29706   6.570   3.310   4.196
 9887SOL    HW129707   6.540   3.389   4.143
 9887SOL    HW229708   6.548   3.324   4.292
 9888SOL     OW29709   5.942   3.675   4.594
 9888SOL    HW129710   5.986   3.586   4.601
 9888SOL    HW229711   6.009   3.747   4.613
 9889SOL     OW29712   6.798   3.419   5.228
 9889SOL    HW129713   6.804   3.343   5.293
 9889SOL    HW229714   6.751   3.388   5.146
 9890SOL     OW29715   5.907   2.820   3.978
 9890SOL    HW129716   5.995   2.841   3.935
 9890SOL    HW229717   5.871   2.736   3.939
 9891SOL     OW29718   6.053   3.124   5.454
 9891SOL    HW129719   6.026   3.132   5.358
 9891SOL    HW229720   5.971   3.124   5.512
 9892SOL     OW29721   6.709   3.638   3.970
 9892SOL    HW129722   6.627   3.606   4.016
 9892SOL    HW229723   6.730   3.578   3.893
 9893SOL     OW29724   5.788   2.139   5.227
 9893SOL    HW129725   5.705   2.195   5.222
 9893SOL    HW229726   5.767   2.053   5.273
 9894SOL     OW29727   6.050   3.594   4.050
 9894SOL    HW129728   6.091   3.659   4.114
 9894SOL    HW229729   6.121   3.559   3.989
 9895SOL     OW29730   5.844   3.654   4.951
 9895SOL    HW129731   5.895   3.582   4.998
 9895SOL    HW229732   5.826   3.625   4.857
 9896SOL     OW29733   6.524   3.563   4.621
 9896SOL    HW129734   6.609   3.516   4.644
 9896SOL    HW229735   6.477   3.513   4.548
 9897SOL     OW29736   5.981   2.550   4.199
 9897SOL    HW129737   6.002   2.454   4.212
 9897SOL    HW229738   5.884   2.567   4.216
 9898SOL     OW29739   6.227   1.980   3.825
 9898SOL    HW129740   6.293   1.908   3.848
 9898SOL    HW229741   6.170   1.949   3.749
 9899SOL     OW29742   6.349   2.139   5.483
 9899SOL    HW129743   6.431   2.082   5.475
 9899SOL    HW229744   6.295   2.109   5.561
 9900SOL     OW29745   6.460   3.380   4.916
 9900SOL    HW129746   6.441   3.344   4.824
 9900SOL    HW229747   6.532   3.325   4.958
 9901SOL     OW29748   6.402   3.253   4.665
 9901SOL    HW129749   6.492   3.239   4.624
 9901SOL    HW229750   6.333   3.257   4.593
 9902SOL     OW29751   6.512   2.369   4.624
 9902SOL    HW129752   6.487   2.362   4.527
 9902SOL    HW229753   6.544   2.280   4.656
 9903SOL     OW29754   6.133   1.926   4.219
 9903SOL    HW129755   6.051   1.924   4.276
 9903SOL    HW229756   6.129   2.007   4.159
 9904SOL     OW29757   6.990   2.988   3.744
 9904SOL    HW129758   0.026   2.937   3.822
 9904SOL    HW229759   6.922   3.054   3.776
 9905SOL     OW29760   5.876   1.911   3.910
 9905SOL    HW129761   5.929   1.982   3.863
 9905SOL    HW229762   5.939   1.845   3.953
 9906SOL     OW29763   6.529   2.111   4.178
 9906SOL    HW129764   6.494   2.153   4.094
 9906SOL    HW229765   6.628   2.123   4.183
 9907SOL     OW29766   6.656   2.530   5.184
 9907SOL    HW129767   6.563   2.495   5.184
 9907SOL    HW229768   6.720   2.453   5.185
 9908SOL     OW29769   6.783   3.435   4.524
 9908SOL    HW129770   6.802   3.501   4.452
 9908SOL    HW229771   6.866   3.417   4.576
 9909SOL     OW29772   6.054   3.013   4.453
 9909SOL    HW129773   5.987   2.993   4.524
 9909SOL    HW229774   6.013   3.000   4.363
 9910SOL     OW29775   6.841   3.654   4.330
 9910SOL    HW129776   6.880   3.716   4.262
 9910SOL    HW229777   6.771   3.701   4.383
 9911SOL     OW29778   6.610   2.401   3.750
 9911SOL    HW129779   6.564   2.487   3.732
 9911SOL    HW229780   6.674   2.413   3.826
 9912SOL     OW29781   5.672   2.419   5.114
 9912SOL    HW129782   5.766   2.415   5.083
 9912SOL    HW229783   5.663   2.490   5.184
 9913SOL     OW29784   6.145   2.087   4.896
 9913SOL    HW129785   6.194   2.009   4.937
 9913SOL    HW229786   6.049   2.085   4.926
 9914SOL     OW29787   6.450   2.317   4.362
 9914SOL    HW129788   6.405   2.383   4.302
 9914SOL    HW229789   6.475   2.236   4.309
 9915SOL     OW29790   6.606   1.910   4.466
 9915SOL    HW129791   6.541   1.912   4.390
 9915SOL    HW229792   6.582   1.837   4.529
 9916SOL     OW29793   6.069   3.281   3.880
 9916SOL    HW129794   5.990   3.253   3.934
 9916SOL    HW229795   6.064   3.241   3.789
 9917SOL     OW29796   6.115   2.126   4.034
 9917SOL    HW129797   6.162   2.074   3.963
 9917SOL    HW229798   6.086   2.214   3.997
 9918SOL     OW29799   6.629   3.209   5.056
 9918SOL    HW129800   6.546   3.183   5.105
 9918SOL    HW229801   6.709   3.166   5.098
 9919SOL     OW29802   6.726   3.086   4.825
 9919SOL    HW129803   6.668   3.117   4.900
 9919SOL    HW229804   6.684   3.113   4.738
 9920SOL     OW29805   6.505   1.958   5.112
 9920SOL    HW129806   6.526   1.934   5.018
 9920SOL    HW229807   6.585   1.999   5.155
 9921SOL     OW29808   6.566   2.974   5.451
 9921SOL    HW129809   6.471   2.997   5.476
 9921SOL    HW229810   6.566   2.894   5.391
 9922SOL     OW29811   6.299   2.922   4.097
 9922SOL    HW129812   6.281   2.904   4.194
 9922SOL    HW229813   6.377   2.867   4.068
 9923SOL     OW29814   6.008   2.677   4.978
 9923SOL    HW129815   6.081   2.690   5.045
 9923SOL    HW229816   5.969   2.585   4.988
 9924SOL     OW29817   6.851   2.235   5.017
 9924SOL    HW129818   6.907   2.315   5.036
 9924SOL    HW229819   6.759   2.265   4.989
 9925SOL     OW29820   5.660   3.434   5.077
 9925SOL    HW129821   5.625   3.505   5.016
 9925SOL    HW229822   5.760   3.432   5.072
 9926SOL     OW29823   5.930   2.979   4.211
 9926SOL    HW129824   5.933   3.061   4.153
 9926SOL    HW229825   5.928   2.898   4.153
 9927SOL     OW29826   6.135   2.405   4.586
 9927SOL    HW129827   6.149   2.464   4.507
 9927SOL    HW229828   6.204   2.426   4.656
 9928SOL     OW29829   6.823   3.231   4.143
 9928SOL    HW129830   6.877   3.309   4.176
 9928SOL    HW229831   6.726   3.249   4.160
 9929SOL     OW29832   6.850   3.338   4.864
 9929SOL    HW129833   6.929   3.333   4.925
 9929SOL    HW229834   6.809   3.247   4.856
 9930SOL     OW29835   5.934   3.391   5.034
 9930SOL    HW129836   5.918   3.347   4.946
 9930SOL    HW229837   6.032   3.405   5.047
 9931SOL     OW29838   6.001   2.608   5.324
 9931SOL    HW129839   6.067   2.654   5.265
 9931SOL    HW229840   6.033   2.516   5.345
 9932SOL     OW29841   6.578   1.986   5.477
 9932SOL    HW129842   6.630   2.069   5.458
 9932SOL    HW229843   6.633   1.906   5.454
 9933SOL     OW29844   6.079   1.900   5.473
 9933SOL    HW129845   6.034   1.841   5.406
 9933SOL    HW229846   6.020   1.979   5.491
 9934SOL     OW29847   6.170   2.733   4.758
 9934SOL    HW129848   6.205   2.827   4.754
 9934SOL    HW229849   6.109   2.724   4.837
 9935SOL     OW29850   6.951   2.710   4.755
 9935SOL    HW129851   6.859   2.699   4.719
 9935SOL    HW229852   6.988   2.621   4.781
 9936SOL     OW29853   6.768   2.397   3.976
 9936SOL    HW129854   6.784   2.312   4.025
 9936SOL    HW229855   6.729   2.465   4.039
 9937SOL     OW29856   5.883   2.059   4.971
 9937SOL    HW129857   5.847   2.095   5.056
 9937SOL    HW229858   5.868   1.960   4.967
 9938SOL     OW29859   5.638   3.172   4.999
 9938SOL    HW129860   5.670   3.111   5.072
 9938SOL    HW229861   5.641   3.267   5.032
 9939SOL     OW29862   6.311   2.494   4.780
 9939SOL    HW129863   6.387   2.473   4.718
 9939SOL    HW229864   6.275   2.585   4.760
 9940SOL     OW29865   5.892   1.924   4.352
 9940SOL    HW129866   5.868   2.019   4.370
 9940SOL    HW229867   5.903   1.875   4.438
 9941SOL     OW29868   0.210   2.309   4.064
 9941SOL    HW129869   0.172   2.217   4.068
 9941SOL    HW229870   0.189   2.357   4.149
 9942SOL     OW29871   6.608   2.617   4.683
 9942SOL    HW129872   6.604   2.638   4.781
 9942SOL    HW229873   6.583   2.522   4.669
 9943SOL     OW29874   6.555   3.428   5.430
 9943SOL    HW129875   6.543   3.473   5.342
 9943SOL    HW229876   6.607   3.344   5.418
 9944SOL     OW29877   5.939   2.780   5.529
 9944SOL    HW129878   6.019   2.802   5.584
 9944SOL    HW229879   5.964   2.714   5.458
 9945SOL     OW29880   6.886   2.681   3.754
 9945SOL    HW129881   6.946   2.610   3.791
 9945SOL    HW229882   6.922   2.713   3.667
 9946SOL     OW29883   6.649   3.195   4.579
 9946SOL    HW129884   6.655   3.119   4.514
 9946SOL    HW229885   6.702   3.273   4.544
 9947SOL     OW29886   5.897   2.668   4.667
 9947SOL    HW129887   5.993   2.694   4.662
 9947SOL    HW229888   5.889   2.574   4.700
 9948SOL     OW29889   5.914   2.389   4.736
 9948SOL    HW129890   5.875   2.297   4.725
 9948SOL    HW229891   5.995   2.398   4.677
 9949SOL     OW29892   6.694   2.225   5.412
 9949SOL    HW129893   6.647   2.286   5.475
 9949SOL    HW229894   6.790   2.252   5.404
 9950SOL     OW29895   6.744   2.058   5.198
 9950SOL    HW129896   6.723   2.117   5.276
 9950SOL    HW229897   6.787   2.112   5.126
 9951SOL     OW29898   5.587   3.176   3.921
 9951SOL    HW129899   5.498   3.195   3.880
 9951SOL    HW229900   5.589   3.083   3.957
 9952SOL     OW29901   5.679   3.646   4.667
 9952SOL    HW129902   5.643   3.564   4.622
 9952SOL    HW229903   5.772   3.663   4.635
 9953SOL     OW29904   6.080   3.438   4.629
 9953SOL    HW129905   6.150   3.504   4.656
 9953SOL    HW229906   6.120   3.370   4.567
 9954SOL     OW29907   6.564   2.654   4.949
 9954SOL    HW129908   6.624   2.630   5.025
 9954SOL    HW229909   6.474   2.613   4.963
 9955SOL     OW29910   5.623   2.414   4.841
 9955SOL    HW129911   5.705   2.399   4.786
 9955SOL    HW229912   5.648   2.416   4.938
 9956SOL     OW29913   5.778   2.385   5.454
 9956SOL    HW129914   5.829   2.330   5.387
 9956SOL    HW229915   5.738   2.464   5.408
 9957SOL     OW29916   6.403   2.434   4.083
 9957SOL    HW129917   6.411   2.354   4.023
 9957SOL    HW229918   6.325   2.490   4.054
 9958SOL     OW29919   5.826   3.409   5.450
 9958SOL    HW129920   5.805   3.484   5.514
 9958SOL    HW229921   5.832   3.323   5.501
 9959SOL     OW29922   6.295   2.312   4.979
 9959SOL    HW129923   6.237   2.234   4.956
 9959SOL    HW229924   6.291   2.379   4.905
 9960SOL     OW29925   6.500   3.549   5.191
 9960SOL    HW129926   6.481   3.500   5.105
 9960SOL    HW229927   6.497   3.647   5.174
 9961SOL     OW29928   6.046   2.357   3.910
 9961SOL    HW129929   6.110   2.430   3.935
 9961SOL    HW229930   5.955   2.396   3.896
 9962SOL     OW29931   5.728   2.999   5.199
 9962SOL    HW129932   5.730   2.954   5.288
 9962SOL    HW229933   5.748   2.932   5.127
 9963SOL     OW29934   6.896   2.907   4.946
 9963SOL    HW129935   6.921   2.835   4.882
 9963SOL    HW229936   6.831   2.970   4.902
 9964SOL     OW29937   6.888   2.734   4.032
 9964SOL    HW129938   6.820   2.695   4.095
 9964SOL    HW229939   6.862   2.713   3.938
 9965SOL     OW29940   6.844   3.609   4.841
 9965SOL    HW129941   6.923   3.627   4.783
 9965SOL    HW229942   6.834   3.510   4.853
 9966SOL     OW29943   5.671   3.127   4.735
 9966SOL    HW129944   5.657   3.142   4.832
 9966SOL    HW229945   5.599   3.069   4.698
 9967SOL     OW29946   6.266   3.535   5.461
 9967SOL    HW129947   6.206   3.614   5.453
 9967SOL    HW229948   6.341   3.543   5.396
 9968SOL     OW29949   6.978   3.447   4.209
 9968SOL    HW129950   0.064   3.487   4.179
 9968SOL    HW229951   6.918   3.519   4.244
 9969SOL     OW29952   5.730   3.650   5.570
 9969SOL    HW129953   5.673   3.582   5.615
 9969SOL    HW229954   5.780   3.703   5.638
 9970SOL     OW29955   6.869   2.778   4.384
 9970SOL    HW129956   6.955   2.733   4.406
 9970SOL    HW229957   6.887   2.860   4.329
 9971SOL     OW29958   6.385   3.138   5.151
 9971SOL    HW129959   6.355   3.183   5.235
 9971SOL    HW229960   6.316   3.153   5.079
 9972SOL     OW29961   6.251   3.481   3.894
 9972SOL    HW129962   6.284   3.494   3.801
 9972SOL    HW229963   6.193   3.400   3.898
 9973SOL     OW29964   5.842   2.176   4.440
 9973SOL    HW129965   5.753   2.213   4.412
 9973SOL    HW229966   5.845   2.168   4.539
 9974SOL     OW29967   6.766   3.469   3.774
 9974SOL    HW129968   6.801   3.376   3.775
 9974SOL    HW229969   6.696   3.478   3.703
 9975SOL     OW29970   6.412   2.870   5.102
 9975SOL    HW129971   6.460   2.858   5.016
 9975SOL    HW229972   6.405   2.968   5.123
 9976SOL     OW29973   6.504   2.772   4.009
 9976SOL    HW129974   6.569   2.809   3.942
 9976SOL    HW229975   6.550   2.702   4.063
 9977SOL     OW29976   5.951   3.164   5.210
 9977SOL    HW129977   5.942   3.245   5.153
 9977SOL    HW229978   5.871   3.105   5.199
 9978SOL     OW29979   6.642   2.968   4.434
 9978SOL    HW129980   6.567   2.917   4.477
 9978SOL    HW229981   6.709   2.904   4.398
 9979SOL     OW29982   6.606   2.101   4.690
 9979SOL    HW129983   6.600   2.056   4.601
 9979SOL    HW229984   6.605   2.032   4.762
 9980SOL     OW29985   6.192   3.348   4.203
 9980SOL    HW129986   6.240   3.294   4.134
 9980SOL    HW229987   6.117   3.399   4.160
 9981SOL     OW29988   5.839   3.207   4.018
 9981SOL    HW129989   5.744   3.205   3.989
 9981SOL    HW229990   5.845   3.247   4.110
 9982SOL     OW29991   5.700   2.894   5.450
 9982SOL    HW129992   5.618   2.867   5.502
 9982SOL    HW229993   5.780   2.850   5.490
 9983SOL     OW29994   6.268   2.058   5.224
 9983SOL    HW129995   6.354   2.033   5.179
 9983SOL    HW229996   6.286   2.091   5.317
 9984SOL     OW29997   5.667   2.191   3.754
 9984SOL    HW129998   5.575   2.167   3.723
 9984SOL    HW229999   5.699   2.272   3.705
 9985SOL     OW30000   5.650   2.017   4.028
 9985SOL    HW130001   5.633   2.102   3.977
 9985SOL    HW230002   5.738   1.979   4.000
 9986SOL     OW30003   6.210   2.691   5.157
 9986SOL    HW130004   6.267   2.772   5.143
 9986SOL    HW230005   6.269   2.611   5.168
 9987SOL     OW30006   6.311   2.420   5.426
 9987SOL    HW130007   6.352   2.486   5.488
 9987SOL    HW230008   6.327   2.327   5.460
 9988SOL     OW30009   0.004   3.125   5.374
 9988SOL    HW130010   0.001   3.060   5.449
 9988SOL    HW230011   0.082   3.104   5.314
 9989SOL     OW30012   5.958   3.600   5.291
 9989SOL    HW130013   5.874   3.651   5.277
 9989SOL    HW230014   5.938   3.512   5.333
 9990SOL     OW30015   6.806   2.174   4.163
 9990SOL    HW130016   6.880   2.119   4.124
 9990SOL    HW230017   6.842   2.228   4.238
 9991SOL     OW30018   6.173   2.598   4.392
 9991SOL    HW130019   6.215   2.689   4.382
 9991SOL    HW230020   6.103   2.586   4.322
 9992SOL     OW30021   6.406   3.240   3.756
 9992SOL    HW130022   6.406   3.243   3.856
 9992SOL    HW230023   6.472   3.307   3.721
 9993SOL     OW30024   6.250   3.648   4.665
 9993SOL    HW130025   6.226   3.743   4.645
 9993SOL    HW230026   6.349   3.636   4.658
 9994SOL     OW30027   6.454   2.832   4.580
 9994SOL    HW130028   6.506   2.754   4.616
 9994SOL    HW230029   6.413   2.882   4.656
 9995SOL     OW30030   6.672   2.852   3.812
 9995SOL    HW130031   6.636   2.904   3.734
 9995SOL    HW230032   6.744   2.791   3.781
 9996SOL     OW30033   5.816   3.162   5.581
 9996SOL    HW130034   5.749   3.096   5.547
 9996SOL    HW230035   5.803   3.176   5.679
 9997SOL     OW30036   5.672   3.092   4.388
 9997SOL    HW130037   5.676   3.046   4.476
 9997SOL    HW230038   5.741   3.053   4.327
 9998SOL     OW30039   6.262   3.272   5.351
 9998SOL    HW130040   6.185   3.221   5.388
 9998SOL    HW230041   6.265   3.363   5.394
 9999SOL     OW30042   6.017   2.290   4.251
 9999SOL    HW130043   6.050   2.220   4.188
 9999SOL    HW230044   5.962   2.247   4.323
10000SOL     OW30045   5.921   2.418   5.013
10000SOL    HW130046   5.977   2.361   5.073
10000SOL    HW230047   5.936   2.392   4.918
10001SOL     OW30048   6.412   3.442   4.404
10001SOL    HW130049   6.396   3.504   4.327
10001SOL    HW230050   6.335   3.378   4.412
10002SOL     OW30051   6.992   2.082   4.841
10002SOL    HW130052   0.018   1.994   4.881
10002SOL    HW230053   6.940   2.135   4.907
10003SOL     OW30054   6.598   1.877   4.862
10003SOL    HW130055   6.538   1.810   4.819
10003SOL    HW230056   6.691   1.841   4.867
10004SOL     OW30057   6.365   3.193   4.039
10004SOL    HW130058   6.334   3.098   4.050
10004SOL    HW230059   6.446   3.208   4.096
10005SOL     OW30060   6.209   3.421   5.012
10005SOL    HW130061   6.207   3.508   5.063
10005SOL    HW230062   6.300   3.408   4.973
10006SOL     OW30063   6.909   1.942   3.865
10006SOL    HW130064   6.949   1.890   3.789
10006SOL    HW230065   6.831   1.892   3.902
10007SOL     OW30066   5.630   2.926   4.032
10007SOL    HW130067   5.728   2.925   4.013
10007SOL    HW230068   5.599   2.833   4.054
10008SOL     OW30069   6.467   3.528   4.069
10008SOL    HW130070   6.390   3.502   4.010
10008SOL    HW230071   6.440   3.604   4.127
10009SOL     OW30072   5.809   2.481   5.713
10009SOL    HW130073   5.717   2.482   5.754
10009SOL    HW230074   5.802   2.458   5.616
10010SOL     OW30075   5.806   2.149   6.581
10010SOL    HW130076   5.842   2.111   6.667
10010SOL    HW230077   5.715   2.113   6.564
10011SOL     OW30078   5.587   2.248   6.221
10011SOL    HW130079   5.503   2.279   6.265
10011SOL    HW230080   5.569   2.164   6.170
10012SOL     OW30081   6.144   3.142   6.755
10012SOL    HW130082   6.056   3.166   6.713
10012SOL    HW230083   6.175   3.217   6.812
10013SOL     OW30084   0.071   3.408   6.346
10013SOL    HW130085   0.104   3.314   6.355
10013SOL    HW230086   0.041   3.424   6.252
10014SOL     OW30087   6.692   2.580   6.275
10014SOL    HW130088   6.759   2.654   6.264
10014SOL    HW230089   6.656   2.582   6.368
10015SOL     OW30090   6.339   3.004   6.625
10015SOL    HW130091   6.266   3.030   6.688
10015SOL    HW230092   6.376   3.085   6.579
10016SOL     OW30093   6.269   2.861   6.235
10016SOL    HW130094   6.340   2.850   6.305
10016SOL    HW230095   6.195   2.917   6.272
10017SOL     OW30096   5.918   3.274   6.648
10017SOL    HW130097   5.833   3.243   6.606
10017SOL    HW230098   5.966   3.336   6.586
10018SOL     OW30099   5.808   3.576   6.057
10018SOL    HW130100   5.826   3.655   6.117
10018SOL    HW230101   5.883   3.566   5.992
10019SOL     OW30102   5.818   3.305   6.122
10019SOL    HW130103   5.803   3.404   6.122
10019SOL    HW230104   5.759   3.262   6.190
10020SOL     OW30105   5.851   2.953   6.485
10020SOL    HW130106   5.848   2.860   6.522
10020SOL    HW230107   5.793   3.012   6.541
10021SOL     OW30108   6.177   3.687   6.960
10021SOL    HW130109   6.100   3.646   0.008
10021SOL    HW230110   6.209   3.767   0.010
10022SOL     OW30111   6.169   2.848   5.726
10022SOL    HW130112   6.215   2.896   5.651
10022SOL    HW230113   6.209   2.877   5.813
10023SOL     OW30114   0.242   2.053   0.083
10023SOL    HW130115   0.172   2.123   0.071
10023SOL    HW230116   0.202   1.972   0.126
10024SOL     OW30117   5.700   2.522   6.150
10024SOL    HW130118   5.670   2.429   6.166
10024SOL    HW230119   5.694   2.575   6.235
10025SOL     OW30120   5.614   3.453   5.709
10025SOL    HW130121   5.599   3.356   5.728
10025SOL    HW230122   5.594   3.507   5.791
10026SOL     OW30123   6.199   3.252   6.320
10026SOL    HW130124   6.152   3.165   6.334
10026SOL    HW230125   6.185   3.282   6.225
10027SOL     OW30126   6.822   3.053   0.023
10027SOL    HW130127   6.871   3.006   6.950
10027SOL    HW230128   6.888   3.100   0.082
10028SOL     OW30129   6.402   1.871   6.096
10028SOL    HW130130   6.446   1.958   6.073
10028SOL    HW230131   6.303   1.886   6.104
10029SOL     OW30132   5.779   2.839   6.847
10029SOL    HW130133   5.861   2.785   6.829
10029SOL    HW230134   5.698   2.785   6.822
10030SOL     OW30135   6.181   2.582   5.858
10030SOL    HW130136   6.186   2.668   5.806
10030SOL    HW230137   6.112   2.591   5.930
10031SOL     OW30138   6.871   2.186   6.479
10031SOL    HW130139   6.773   2.172   6.491
10031SOL    HW230140   6.920   2.150   6.558
10032SOL     OW30141   6.404   2.445   0.047
10032SOL    HW130142   6.350   2.505   0.107
10032SOL    HW230143   6.343   2.402   6.980
10033SOL     OW30144   6.569   2.235   6.803
10033SOL    HW130145   6.494   2.292   6.839
10033SOL    HW230146   6.539   2.190   6.719
10034SOL     OW30147   6.634   2.563   6.010
10034SOL    HW130148   6.652   2.564   6.108
10034SOL    HW230149   6.548   2.514   5.992
10035SOL     OW30150   5.675   2.689   6.366
10035SOL    HW130151   5.761   2.678   6.416
10035SOL    HW230152   5.626   2.768   6.401
10036SOL     OW30153   5.742   3.715   0.151
10036SOL    HW130154   5.705   3.639   0.205
10036SOL    HW230155   5.688   3.727   0.068
10037SOL     OW30156   6.481   2.214   5.782
10037SOL    HW130157   6.522   2.280   5.720
10037SOL    HW230158   6.483   2.123   5.740
10038SOL     OW30159   6.926   2.994   6.103
10038SOL    HW130160   6.997   2.977   6.035
10038SOL    HW230161   6.874   3.075   6.078
10039SOL     OW30162   6.135   2.037   6.486
10039SOL    HW130163   6.140   2.065   6.582
10039SOL    HW230164   6.136   2.118   6.428
10040SOL     OW30165   6.572   3.310   6.057
10040SOL    HW130166   6.541   3.388   6.002
10040SOL    HW230167   6.546   3.325   6.152
10041SOL     OW30168   5.941   3.675   6.452
10041SOL    HW130169   5.983   3.585   6.463
10041SOL    HW230170   6.009   3.746   6.475
10042SOL     OW30171   5.908   2.821   5.840
10042SOL    HW130172   5.996   2.841   5.796
10042SOL    HW230173   5.871   2.736   5.802
10043SOL     OW30174   6.711   3.633   5.828
10043SOL    HW130175   6.629   3.603   5.876
10043SOL    HW230176   6.725   3.577   5.747
10044SOL     OW30177   6.050   3.598   5.904
10044SOL    HW130178   6.091   3.659   5.971
10044SOL    HW230179   6.121   3.560   5.844
10045SOL     OW30180   5.851   3.662   6.820
10045SOL    HW130181   5.906   3.609   6.886
10045SOL    HW230182   5.814   3.601   6.751
10046SOL     OW30183   6.521   3.565   6.480
10046SOL    HW130184   6.602   3.518   6.512
10046SOL    HW230185   6.478   3.512   6.406
10047SOL     OW30186   5.981   2.550   6.061
10047SOL    HW130187   6.001   2.453   6.074
10047SOL    HW230188   5.884   2.567   6.078
10048SOL     OW30189   6.227   1.980   5.687
10048SOL    HW130190   6.293   1.908   5.711
10048SOL    HW230191   6.170   1.949   5.610
10049SOL     OW30192   6.460   3.381   6.769
10049SOL    HW130193   6.442   3.345   6.678
10049SOL    HW230194   6.478   3.306   6.833
10050SOL     OW30195   6.404   3.253   6.525
10050SOL    HW130196   6.494   3.239   6.482
10050SOL    HW230197   6.334   3.257   6.454
10051SOL     OW30198   6.513   2.368   6.486
10051SOL    HW130199   6.487   2.363   6.390
10051SOL    HW230200   6.548   2.279   6.516
10052SOL     OW30201   6.133   1.926   6.081
10052SOL    HW130202   6.051   1.923   6.138
10052SOL    HW230203   6.129   2.007   6.022
10053SOL     OW30204   6.988   2.985   5.606
10053SOL    HW130205   0.025   2.935   5.684
10053SOL    HW230206   6.924   3.055   5.637
10054SOL     OW30207   5.876   1.911   5.771
10054SOL    HW130208   5.930   1.982   5.726
10054SOL    HW230209   5.938   1.845   5.815
10055SOL     OW30210   6.529   2.111   6.040
10055SOL    HW130211   6.494   2.153   5.957
10055SOL    HW230212   6.628   2.123   6.045
10056SOL     OW30213   6.784   3.432   6.382
10056SOL    HW130214   6.796   3.500   6.310
10056SOL    HW230215   6.871   3.420   6.430
10057SOL     OW30216   6.054   3.013   6.315
10057SOL    HW130217   5.987   2.994   6.387
10057SOL    HW230218   6.012   2.999   6.225
10058SOL     OW30219   6.840   3.653   6.192
10058SOL    HW130220   6.877   3.715   6.123
10058SOL    HW230221   6.769   3.700   6.245
10059SOL     OW30222   6.610   2.401   5.612
10059SOL    HW130223   6.564   2.487   5.593
10059SOL    HW230224   6.674   2.413   5.688
10060SOL     OW30225   6.149   2.080   6.759
10060SOL    HW130226   6.192   1.997   6.794
10060SOL    HW230227   6.053   2.082   6.787
10061SOL     OW30228   6.450   2.318   6.224
10061SOL    HW130229   6.405   2.383   6.164
10061SOL    HW230230   6.475   2.236   6.172
10062SOL     OW30231   6.608   1.909   6.324
10062SOL    HW130232   6.541   1.911   6.250
10062SOL    HW230233   6.582   1.838   6.390
10063SOL     OW30234   6.073   3.283   5.744
10063SOL    HW130235   5.992   3.255   5.796
10063SOL    HW230236   6.073   3.238   5.655
10064SOL     OW30237   6.115   2.126   5.896
10064SOL    HW130238   6.162   2.074   5.825
10064SOL    HW230239   6.086   2.215   5.859
10065SOL     OW30240   0.225   3.438   0.248
10065SOL    HW130241   0.233   3.499   0.169
10065SOL    HW230242   0.304   3.376   0.249
10066SOL     OW30243   6.720   3.082   6.690
10066SOL    HW130244   6.642   3.072   6.751
10066SOL    HW230245   6.689   3.112   6.600
10067SOL     OW30246   6.298   2.920   5.959
10067SOL    HW130247   6.280   2.904   6.056
10067SOL    HW230248   6.376   2.867   5.929
10068SOL     OW30249   6.010   2.675   6.845
10068SOL    HW130250   6.065   2.703   6.924
10068SOL    HW230251   5.974   2.583   6.861
10069SOL     OW30252   6.828   2.269   6.864
10069SOL    HW130253   6.811   2.353   6.917
10069SOL    HW230254   6.745   2.242   6.816
10070SOL     OW30255   5.678   3.423   6.859
10070SOL    HW130256   5.618   3.497   6.889
10070SOL    HW230257   5.759   3.420   6.917
10071SOL     OW30258   5.929   2.979   6.073
10071SOL    HW130259   5.935   3.061   6.017
10071SOL    HW230260   5.927   2.898   6.014
10072SOL     OW30261   6.134   2.407   6.448
10072SOL    HW130262   6.147   2.465   6.368
10072SOL    HW230263   6.204   2.427   6.517
10073SOL     OW30264   6.824   3.231   6.004
10073SOL    HW130265   6.879   3.308   6.037
10073SOL    HW230266   6.727   3.249   6.021
10074SOL     OW30267   6.822   3.336   6.756
10074SOL    HW130268   6.917   3.326   6.786
10074SOL    HW230269   6.784   3.246   6.734
10075SOL     OW30270   5.952   3.355   6.904
10075SOL    HW130271   5.922   3.319   6.816
10075SOL    HW230272   6.045   3.390   6.896
10076SOL     OW30273   6.171   2.733   6.623
10076SOL    HW130274   6.204   2.827   6.616
10076SOL    HW230275   6.110   2.725   6.702
10077SOL     OW30276   6.952   2.707   6.608
10077SOL    HW130277   6.860   2.692   6.571
10077SOL    HW230278   6.990   2.619   6.637
10078SOL     OW30279   6.768   2.397   5.838
10078SOL    HW130280   6.784   2.311   5.886
10078SOL    HW230281   6.730   2.465   5.901
10079SOL     OW30282   5.887   2.064   6.834
10079SOL    HW130283   5.851   2.093   6.922
10079SOL    HW230284   5.875   1.965   6.824
10080SOL     OW30285   5.613   3.164   6.868
10080SOL    HW130286   5.666   3.115   6.938
10080SOL    HW230287   5.640   3.260   6.866
10081SOL     OW30288   6.310   2.491   6.641
10081SOL    HW130289   6.387   2.471   6.581
10081SOL    HW230290   6.277   2.584   6.623
10082SOL     OW30291   5.892   1.924   6.212
10082SOL    HW130292   5.868   2.020   6.232
10082SOL    HW230293   5.902   1.875   6.299
10083SOL     OW30294   0.210   2.309   5.926
10083SOL    HW130295   0.172   2.217   5.930
10083SOL    HW230296   0.189   2.357   6.011
10084SOL     OW30297   6.610   2.616   6.549
10084SOL    HW130298   6.603   2.636   6.647
10084SOL    HW230299   6.584   2.521   6.533
10085SOL     OW30300   6.885   2.680   5.617
10085SOL    HW130301   6.946   2.609   5.652
10085SOL    HW230302   6.921   2.714   5.530
10086SOL     OW30303   6.655   3.193   6.443
10086SOL    HW130304   6.656   3.119   6.376
10086SOL    HW230305   6.704   3.272   6.406
10087SOL     OW30306   5.899   2.667   6.529
10087SOL    HW130307   5.995   2.694   6.523
10087SOL    HW230308   5.893   2.572   6.560
10088SOL     OW30309   5.918   2.390   6.604
10088SOL    HW130310   5.877   2.299   6.590
10088SOL    HW230311   5.998   2.400   6.544
10089SOL     OW30312   6.768   2.078   0.053
10089SOL    HW130313   6.765   2.130   0.139
10089SOL    HW230314   6.772   2.142   6.976
10090SOL     OW30315   5.586   3.178   5.780
10090SOL    HW130316   5.497   3.197   5.740
10090SOL    HW230317   5.587   3.084   5.816
10091SOL     OW30318   5.676   3.652   6.525
10091SOL    HW130319   5.642   3.568   6.483
10091SOL    HW230320   5.772   3.664   6.500
10092SOL     OW30321   6.078   3.439   6.490
10092SOL    HW130322   6.148   3.505   6.518
10092SOL    HW230323   6.120   3.370   6.430
10093SOL     OW30324   6.567   2.655   6.816
10093SOL    HW130325   6.632   2.650   6.892
10093SOL    HW230326   6.478   2.623   6.847
10094SOL     OW30327   5.636   2.418   6.712
10094SOL    HW130328   5.693   2.383   6.637
10094SOL    HW230329   5.695   2.453   6.785
10095SOL     OW30330   6.403   2.435   5.944
10095SOL    HW130331   6.411   2.355   5.885
10095SOL    HW230332   6.325   2.490   5.916
10096SOL     OW30333   6.268   2.322   6.847
10096SOL    HW130334   6.227   2.235   6.819
10096SOL    HW230335   6.274   2.384   6.769
10097SOL     OW30336   6.451   3.524   0.015
10097SOL    HW130337   6.465   3.506   6.917
10097SOL    HW230338   6.520   3.590   0.046
10098SOL     OW30339   6.046   2.358   5.772
10098SOL    HW130340   6.110   2.430   5.797
10098SOL    HW230341   5.955   2.396   5.758
10099SOL     OW30342   5.742   3.004   0.058
10099SOL    HW130343   5.797   2.964   0.131
10099SOL    HW230344   5.752   2.950   6.975
10100SOL     OW30345   6.888   2.884   6.807
10100SOL    HW130346   6.919   2.824   6.734
10100SOL    HW230347   6.833   2.958   6.769
10101SOL     OW30348   6.888   2.733   5.894
10101SOL    HW130349   6.819   2.695   5.956
10101SOL    HW230350   6.862   2.714   5.800
10102SOL     OW30351   6.840   3.604   6.693
10102SOL    HW130352   6.927   3.617   6.645
10102SOL    HW230353   6.830   3.507   6.717
10103SOL     OW30354   5.667   3.126   6.600
10103SOL    HW130355   5.648   3.135   6.697
10103SOL    HW230356   5.599   3.066   6.558
10104SOL     OW30357   6.979   3.446   6.073
10104SOL    HW130358   0.064   3.487   6.041
10104SOL    HW230359   6.918   3.518   6.106
10105SOL     OW30360   6.870   2.779   6.247
10105SOL    HW130361   6.956   2.732   6.265
10105SOL    HW230362   6.887   2.860   6.192
10106SOL     OW30363   6.254   3.485   5.741
10106SOL    HW130364   6.271   3.501   5.644
10106SOL    HW230365   6.197   3.403   5.751
10107SOL     OW30366   5.842   2.177   6.301
10107SOL    HW130367   5.753   2.213   6.273
10107SOL    HW230368   5.844   2.168   6.401
10108SOL     OW30369   6.750   3.471   5.622
10108SOL    HW130370   6.770   3.373   5.628
10108SOL    HW230371   6.689   3.488   5.545
10109SOL     OW30372   6.367   2.887   6.950
10109SOL    HW130373   6.429   2.853   6.879
10109SOL    HW230374   6.410   2.966   6.995
10110SOL     OW30375   6.504   2.772   5.871
10110SOL    HW130376   6.568   2.809   5.804
10110SOL    HW230377   6.550   2.701   5.925
10111SOL     OW30378   6.641   2.968   6.297
10111SOL    HW130379   6.566   2.917   6.339
10111SOL    HW230380   6.708   2.904   6.258
10112SOL     OW30381   6.605   2.099   6.543
10112SOL    HW130382   6.600   2.052   6.455
10112SOL    HW230383   6.609   2.031   6.616
10113SOL     OW30384   6.191   3.348   6.065
10113SOL    HW130385   6.242   3.295   5.998
10113SOL    HW230386   6.115   3.395   6.020
10114SOL     OW30387   5.838   3.210   5.874
10114SOL    HW130388   5.742   3.203   5.847
10114SOL    HW230389   5.844   3.248   5.966
10115SOL     OW30390   6.261   2.049   0.085
10115SOL    HW130391   6.352   2.014   0.060
10115SOL    HW230392   6.270   2.125   0.149
10116SOL     OW30393   5.668   2.191   5.616
10116SOL    HW130394   5.575   2.167   5.586
10116SOL    HW230395   5.699   2.272   5.567
10117SOL     OW30396   5.650   2.017   5.890
10117SOL    HW130397   5.633   2.102   5.839
10117SOL    HW230398   5.738   1.979   5.862
10118SOL     OW30399   5.967   3.589   0.086
10118SOL    HW130400   5.889   3.643   0.118
10118SOL    HW230401   5.970   3.502   0.136
10119SOL     OW30402   6.806   2.174   6.024
10119SOL    HW130403   6.880   2.119   5.986
10119SOL    HW230404   6.841   2.229   6.100
10120SOL     OW30405   6.173   2.598   6.254
10120SOL    HW130406   6.214   2.689   6.244
10120SOL    HW230407   6.103   2.586   6.183
10121SOL     OW30408   6.429   3.229   5.617
10121SOL    HW130409   6.410   3.250   5.713
10121SOL    HW230410   6.461   3.312   5.571
10122SOL     OW30411   6.252   3.647   6.527
10122SOL    HW130412   6.228   3.742   6.506
10122SOL    HW230413   6.350   3.635   6.519
10123SOL     OW30414   6.455   2.831   6.442
10123SOL    HW130415   6.505   2.753   6.481
10123SOL    HW230416   6.414   2.884   6.517
10124SOL     OW30417   6.671   2.851   5.674
10124SOL    HW130418   6.636   2.905   5.597
10124SOL    HW230419   6.744   2.791   5.643
10125SOL     OW30420   5.673   3.091   6.249
10125SOL    HW130421   5.675   3.045   6.338
10125SOL    HW230422   5.742   3.051   6.189
10126SOL     OW30423   6.017   2.290   6.113
10126SOL    HW130424   6.050   2.220   6.050
10126SOL    HW230425   5.962   2.248   6.185
10127SOL     OW30426   5.902   2.411   6.878
10127SOL    HW130427   5.972   2.358   6.926
10127SOL    HW230428   5.912   2.399   6.779
10128SOL     OW30429   6.414   3.439   6.263
10128SOL    HW130430   6.396   3.502   6.187
10128SOL    HW230431   6.336   3.377   6.274
10129SOL     OW30432   6.990   2.089   6.706
10129SOL    HW130433   0.004   1.997   6.742
10129SOL    HW230434   6.932   2.141   6.768
10130SOL     OW30435   6.607   1.888   6.716
10130SOL    HW130436   6.536   1.820   6.697
10130SOL    HW230437   6.696   1.842   6.721
10131SOL     OW30438   6.360   3.194   5.904
10131SOL    HW130439   6.331   3.098   5.912
10131SOL    HW230440   6.445   3.207   5.956
10132SOL     OW30441   6.206   3.432   6.862
10132SOL    HW130442   6.203   3.527   6.894
10132SOL    HW230443   6.296   3.412   6.823
10133SOL     OW30444   6.909   1.942   5.727
10133SOL    HW130445   6.949   1.890   5.651
10133SOL    HW230446   6.831   1.892   5.765
10134SOL     OW30447   5.629   2.927   5.893
10134SOL    HW130448   5.727   2.927   5.875
10134SOL    HW230449   5.599   2.834   5.915
10135SOL     OW30450   6.466   3.527   5.927
10135SOL    HW130451   6.393   3.504   5.863
10135SOL    HW230452   6.438   3.603   5.985
10136SOL     OW30453   5.807   4.361   0.136
10136SOL    HW130454   5.712   4.345   0.161
10136SOL    HW230455   5.819   4.341   0.038
10137SOL     OW30456   5.808   4.006   0.994
10137SOL    HW130457   5.841   3.972   1.082
10137SOL    HW230458   5.715   3.974   0.978
10138SOL     OW30459   5.587   4.112   0.637
10138SOL    HW130460   5.505   4.145   0.683
10138SOL    HW230461   5.567   4.025   0.591
10139SOL     OW30462   6.154   5.020   1.185
10139SOL    HW130463   6.064   5.016   1.141
10139SOL    HW230464   6.172   5.112   1.218
10140SOL     OW30465   0.067   5.272   0.761
10140SOL    HW130466   0.101   5.179   0.775
10140SOL    HW230467   0.031   5.280   0.668
10141SOL     OW30468   6.693   4.442   0.690
10141SOL    HW130469   6.760   4.516   0.679
10141SOL    HW230470   6.657   4.444   0.783
10142SOL     OW30471   6.332   4.865   1.042
10142SOL    HW130472   6.263   4.900   1.106
10142SOL    HW230473   6.375   4.942   0.994
10143SOL     OW30474   6.460   4.490   1.823
10143SOL    HW130475   6.442   4.558   1.895
10143SOL    HW230476   6.482   4.538   1.738
10144SOL     OW30477   6.269   4.721   0.650
10144SOL    HW130478   6.340   4.711   0.720
10144SOL    HW230479   6.195   4.778   0.686
10145SOL     OW30480   6.293   4.874   1.814
10145SOL    HW130481   6.343   4.955   1.846
10145SOL    HW230482   6.207   4.903   1.772
10146SOL     OW30483   5.912   5.148   1.066
10146SOL    HW130484   5.836   5.103   1.019
10146SOL    HW230485   5.966   5.200   1.000
10147SOL     OW30486   6.037   4.118   1.480
10147SOL    HW130487   6.117   4.059   1.487
10147SOL    HW230488   5.954   4.064   1.498
10148SOL     OW30489   5.805   5.447   0.470
10148SOL    HW130490   5.823   5.526   0.529
10148SOL    HW230491   5.890   5.420   0.425
10149SOL     OW30492   6.715   5.069   1.703
10149SOL    HW130493   6.810   5.039   1.714
10149SOL    HW230494   6.655   4.990   1.704
10150SOL     OW30495   5.801   5.172   0.533
10150SOL    HW130496   5.789   5.271   0.542
10150SOL    HW230497   5.750   5.125   0.605
10151SOL     OW30498   5.853   4.814   0.900
10151SOL    HW130499   5.848   4.720   0.933
10151SOL    HW230500   5.791   4.872   0.953
10152SOL     OW30501   6.185   5.522   1.425
10152SOL    HW130502   6.102   5.497   1.476
10152SOL    HW230503   6.215   5.613   1.454
10153SOL     OW30504   6.173   4.692   0.145
10153SOL    HW130505   6.229   4.716   0.066
10153SOL    HW230506   6.209   4.737   0.227
10154SOL     OW30507   5.701   4.377   0.562
10154SOL    HW130508   5.671   4.284   0.582
10154SOL    HW230509   5.695   4.433   0.645
10155SOL     OW30510   5.599   5.307   0.147
10155SOL    HW130511   5.530   5.238   0.126
10155SOL    HW230512   5.576   5.352   0.233
10156SOL     OW30513   5.709   4.468   1.585
10156SOL    HW130514   5.806   4.494   1.587
10156SOL    HW230515   5.652   4.550   1.587
10157SOL     OW30516   6.197   5.113   0.737
10157SOL    HW130517   6.151   5.025   0.749
10157SOL    HW230518   6.187   5.142   0.641
10158SOL     OW30519   6.841   4.946   1.432
10158SOL    HW130520   6.879   4.876   1.372
10158SOL    HW230521   6.903   4.960   1.510
10159SOL     OW30522   6.404   3.737   0.518
10159SOL    HW130523   6.449   3.822   0.492
10159SOL    HW230524   6.305   3.751   0.524
10160SOL     OW30525   5.776   4.686   1.276
10160SOL    HW130526   5.865   4.643   1.261
10160SOL    HW230527   5.707   4.639   1.222
10161SOL     OW30528   6.780   5.537   1.616
10161SOL    HW130529   6.766   5.605   1.545
10161SOL    HW230530   6.780   5.446   1.576
10162SOL     OW30531   5.926   3.974   1.830
10162SOL    HW130532   5.974   4.060   1.844
10162SOL    HW230533   5.829   3.986   1.851
10163SOL     OW30534   6.185   4.442   0.268
10163SOL    HW130535   6.191   4.531   0.223
10163SOL    HW230536   6.119   4.446   0.343
10164SOL     OW30537   6.870   4.047   0.895
10164SOL    HW130538   6.772   4.035   0.910
10164SOL    HW230539   6.921   4.011   0.974
10165SOL     OW30540   6.384   4.336   1.451
10165SOL    HW130541   6.356   4.314   1.544
10165SOL    HW230542   6.343   4.271   1.387
10166SOL     OW30543   6.943   4.182   1.675
10166SOL    HW130544   6.920   4.267   1.723
10166SOL    HW230545   0.042   4.175   1.666
10167SOL     OW30546   6.543   4.609   1.582
10167SOL    HW130547   6.599   4.535   1.545
10167SOL    HW230548   6.490   4.651   1.509
10168SOL     OW30549   6.583   4.136   1.233
10168SOL    HW130550   6.492   4.155   1.269
10168SOL    HW230551   6.575   4.086   1.146
10169SOL     OW30552   6.636   4.426   0.426
10169SOL    HW130553   6.656   4.429   0.524
10169SOL    HW230554   6.549   4.379   0.411
10170SOL     OW30555   5.676   4.547   0.778
10170SOL    HW130556   5.761   4.537   0.829
10170SOL    HW230557   5.626   4.626   0.813
10171SOL     OW30558   5.714   5.594   1.587
10171SOL    HW130559   5.719   5.567   1.683
10171SOL    HW230560   5.629   5.561   1.547
10172SOL     OW30561   6.466   4.073   0.213
10172SOL    HW130562   6.477   4.140   0.140
10172SOL    HW230563   6.491   3.982   0.178
10173SOL     OW30564   6.926   4.859   0.527
10173SOL    HW130565   6.987   4.831   0.453
10173SOL    HW230566   6.875   4.940   0.499
10174SOL     OW30567   6.133   3.899   0.900
10174SOL    HW130568   6.137   3.929   0.995
10174SOL    HW230569   6.136   3.979   0.840
10175SOL     OW30570   6.572   5.165   0.474
10175SOL    HW130571   6.537   5.243   0.423
10175SOL    HW230572   6.550   5.177   0.571
10176SOL     OW30573   5.942   5.537   0.869
10176SOL    HW130574   5.985   5.447   0.875
10176SOL    HW230575   6.009   5.608   0.888
10177SOL     OW30576   6.798   5.281   1.504
10177SOL    HW130577   6.804   5.205   1.569
10177SOL    HW230578   6.750   5.250   1.422
10178SOL     OW30579   5.901   4.684   0.229
10178SOL    HW130580   5.994   4.698   0.194
10178SOL    HW230581   5.872   4.591   0.210
10179SOL     OW30582   6.053   4.987   1.731
10179SOL    HW130583   6.026   4.994   1.634
10179SOL    HW230584   5.970   4.986   1.788
10180SOL     OW30585   6.683   5.487   0.236
10180SOL    HW130586   6.616   5.434   0.287
10180SOL    HW230587   6.711   5.437   0.154
10181SOL     OW30588   5.788   4.001   1.503
10181SOL    HW130589   5.706   4.057   1.498
10181SOL    HW230590   5.767   3.914   1.549
10182SOL     OW30591   0.232   5.108   0.045
10182SOL    HW130592   0.162   5.158   0.096
10182SOL    HW230593   0.208   5.011   0.042
10183SOL     OW30594   6.067   5.424   0.376
10183SOL    HW130595   6.097   5.509   0.420
10183SOL    HW230596   6.128   5.403   0.300
10184SOL     OW30597   5.845   5.516   1.227
10184SOL    HW130598   5.896   5.444   1.274
10184SOL    HW230599   5.826   5.487   1.133
10185SOL     OW30600   6.524   5.425   0.896
10185SOL    HW130601   6.609   5.377   0.917
10185SOL    HW230602   6.475   5.376   0.824
10186SOL     OW30603   5.983   4.411   0.470
10186SOL    HW130604   6.003   4.315   0.488
10186SOL    HW230605   5.886   4.429   0.489
10187SOL     OW30606   6.349   4.001   1.759
10187SOL    HW130607   6.431   3.944   1.752
10187SOL    HW230608   6.295   3.972   1.837
10188SOL     OW30609   6.460   5.242   1.192
10188SOL    HW130610   6.441   5.206   1.100
10188SOL    HW230611   6.532   5.187   1.234
10189SOL     OW30612   6.402   5.115   0.941
10189SOL    HW130613   6.492   5.102   0.900
10189SOL    HW230614   6.332   5.119   0.869
10190SOL     OW30615   6.512   4.230   0.901
10190SOL    HW130616   6.487   4.224   0.804
10190SOL    HW230617   6.544   4.141   0.933
10191SOL     OW30618   6.135   3.795   0.504
10191SOL    HW130619   6.051   3.792   0.558
10191SOL    HW230620   6.131   3.874   0.442
10192SOL     OW30621   6.531   3.973   0.461
10192SOL    HW130622   6.495   4.013   0.377
10192SOL    HW230623   6.630   3.985   0.464
10193SOL     OW30624   6.656   4.392   1.460
10193SOL    HW130625   6.563   4.357   1.461
10193SOL    HW230626   6.720   4.315   1.461
10194SOL     OW30627   6.781   5.298   0.802
10194SOL    HW130628   6.800   5.361   0.726
10194SOL    HW230629   6.866   5.280   0.852
10195SOL     OW30630   6.056   4.875   0.732
10195SOL    HW130631   5.986   4.854   0.800
10195SOL    HW230632   6.018   4.867   0.640
10196SOL     OW30633   6.841   5.518   0.603
10196SOL    HW130634   6.868   5.580   0.529
10196SOL    HW230635   6.771   5.562   0.660
10197SOL     OW30636   6.682   4.314   0.026
10197SOL    HW130637   6.582   4.320   0.030
10197SOL    HW230638   6.717   4.293   0.117
10198SOL     OW30639   5.672   4.281   1.391
10198SOL    HW130640   5.766   4.277   1.359
10198SOL    HW230641   5.663   4.352   1.461
10199SOL     OW30642   6.145   3.949   1.172
10199SOL    HW130643   6.193   3.871   1.212
10199SOL    HW230644   6.049   3.947   1.202
10200SOL     OW30645   6.450   4.178   0.641
10200SOL    HW130646   6.410   4.245   0.578
10200SOL    HW230647   6.476   4.096   0.589
10201SOL     OW30648   6.606   3.770   0.740
10201SOL    HW130649   6.540   3.772   0.665
10201SOL    HW230650   6.581   3.698   0.805
10202SOL     OW30651   6.061   5.145   0.150
10202SOL    HW130652   5.999   5.097   0.213
10202SOL    HW230653   6.021   5.145   0.058
10203SOL     OW30654   6.102   3.989   0.313
10203SOL    HW130655   6.111   3.921   0.240
10203SOL    HW230656   6.079   4.078   0.273
10204SOL     OW30657   6.629   5.072   1.332
10204SOL    HW130658   6.546   5.045   1.381
10204SOL    HW230659   6.708   5.028   1.374
10205SOL     OW30660   6.726   4.948   1.101
10205SOL    HW130661   6.667   4.979   1.176
10205SOL    HW230662   6.685   4.975   1.014
10206SOL     OW30663   6.505   3.820   1.388
10206SOL    HW130664   6.526   3.796   1.294
10206SOL    HW230665   6.585   3.861   1.431
10207SOL     OW30666   6.566   4.836   1.727
10207SOL    HW130667   6.471   4.859   1.752
10207SOL    HW230668   6.566   4.756   1.667
10208SOL     OW30669   6.298   4.781   0.375
10208SOL    HW130670   6.280   4.766   0.472
10208SOL    HW230671   6.377   4.727   0.347
10209SOL     OW30672   6.008   4.539   1.254
10209SOL    HW130673   6.081   4.552   1.321
10209SOL    HW230674   5.969   4.447   1.264
10210SOL     OW30675   6.851   4.097   1.292
10210SOL    HW130676   6.907   4.177   1.312
10210SOL    HW230677   6.759   4.127   1.265
10211SOL     OW30678   5.660   5.296   1.353
10211SOL    HW130679   5.625   5.366   1.291
10211SOL    HW230680   5.760   5.294   1.347
10212SOL     OW30681   5.951   4.844   0.484
10212SOL    HW130682   5.931   4.921   0.424
10212SOL    HW230683   5.948   4.759   0.432
10213SOL     OW30684   6.135   4.268   0.862
10213SOL    HW130685   6.149   4.326   0.782
10213SOL    HW230686   6.204   4.288   0.931
10214SOL     OW30687   6.824   5.088   0.417
10214SOL    HW130688   6.877   5.167   0.448
10214SOL    HW230689   6.727   5.105   0.431
10215SOL     OW30690   6.850   5.200   1.140
10215SOL    HW130691   6.929   5.195   1.202
10215SOL    HW230692   6.808   5.110   1.132
10216SOL     OW30693   5.934   5.253   1.310
10216SOL    HW130694   5.918   5.209   1.222
10216SOL    HW230695   6.032   5.267   1.323
10217SOL     OW30696   6.001   4.470   1.600
10217SOL    HW130697   6.067   4.516   1.541
10217SOL    HW230698   6.033   4.378   1.621
10218SOL     OW30699   6.578   3.848   1.753
10218SOL    HW130700   6.630   3.931   1.734
10218SOL    HW230701   6.633   3.768   1.730
10219SOL     OW30702   6.078   3.762   1.749
10219SOL    HW130703   6.034   3.703   1.682
10219SOL    HW230704   6.020   3.841   1.767
10220SOL     OW30705   6.170   4.595   1.034
10220SOL    HW130706   6.204   4.689   1.029
10220SOL    HW230707   6.109   4.586   1.113
10221SOL     OW30708   6.952   4.573   1.033
10221SOL    HW130709   6.860   4.562   0.994
10221SOL    HW230710   6.988   4.483   1.058
10222SOL     OW30711   6.770   4.247   0.270
10222SOL    HW130712   6.785   4.166   0.327
10222SOL    HW230713   6.732   4.320   0.326
10223SOL     OW30714   5.883   3.921   1.246
10223SOL    HW130715   5.847   3.957   1.332
10223SOL    HW230716   5.868   3.822   1.243
10224SOL     OW30717   5.637   5.034   1.276
10224SOL    HW130718   5.669   4.973   1.348
10224SOL    HW230719   5.641   5.128   1.308
10225SOL     OW30720   6.311   4.356   1.056
10225SOL    HW130721   6.387   4.335   0.995
10225SOL    HW230722   6.275   4.447   1.036
10226SOL     OW30723   5.891   3.789   0.629
10226SOL    HW130724   5.867   3.884   0.649
10226SOL    HW230725   5.902   3.739   0.715
10227SOL     OW30726   0.183   4.143   0.376
10227SOL    HW130727   0.260   4.096   0.419
10227SOL    HW230728   0.166   4.229   0.424
10228SOL     OW30729   6.608   4.479   0.960
10228SOL    HW130730   6.604   4.500   1.057
10228SOL    HW230731   6.583   4.383   0.945
10229SOL     OW30732   6.555   5.290   1.706
10229SOL    HW130733   6.543   5.334   1.618
10229SOL    HW230734   6.607   5.205   1.694
10230SOL     OW30735   5.939   4.642   1.805
10230SOL    HW130736   6.019   4.664   1.860
10230SOL    HW230737   5.964   4.576   1.734
10231SOL     OW30738   6.887   4.566   0.034
10231SOL    HW130739   6.923   4.475   0.010
10231SOL    HW230740   6.905   4.629   6.959
10232SOL     OW30741   6.650   5.057   0.856
10232SOL    HW130742   6.654   4.982   0.791
10232SOL    HW230743   6.702   5.135   0.821
10233SOL     OW30744   5.897   4.530   0.943
10233SOL    HW130745   5.993   4.556   0.938
10233SOL    HW230746   5.890   4.436   0.976
10234SOL     OW30747   5.914   4.251   1.012
10234SOL    HW130748   5.875   4.159   1.001
10234SOL    HW230749   5.995   4.260   0.953
10235SOL     OW30750   6.694   4.087   1.688
10235SOL    HW130751   6.647   4.148   1.751
10235SOL    HW230752   6.790   4.114   1.680
10236SOL     OW30753   6.744   3.920   1.474
10236SOL    HW130754   6.723   3.979   1.552
10236SOL    HW230755   6.787   3.974   1.402
10237SOL     OW30756   5.680   5.508   0.943
10237SOL    HW130757   5.642   5.427   0.898
10237SOL    HW230758   5.773   5.524   0.911
10238SOL     OW30759   6.080   5.300   0.905
10238SOL    HW130760   6.150   5.366   0.932
10238SOL    HW230761   6.120   5.232   0.843
10239SOL     OW30762   6.564   4.516   1.225
10239SOL    HW130763   6.624   4.492   1.302
10239SOL    HW230764   6.474   4.475   1.239
10240SOL     OW30765   5.623   4.275   1.117
10240SOL    HW130766   5.705   4.262   1.062
10240SOL    HW230767   5.648   4.278   1.214
10241SOL     OW30768   5.778   4.247   1.730
10241SOL    HW130769   5.829   4.192   1.663
10241SOL    HW230770   5.738   4.326   1.684
10242SOL     OW30771   6.402   4.297   0.374
10242SOL    HW130772   6.410   4.216   0.316
10242SOL    HW230773   6.324   4.352   0.344
10243SOL     OW30774   5.826   5.271   1.726
10243SOL    HW130775   5.805   5.345   1.790
10243SOL    HW230776   5.832   5.185   1.776
10244SOL     OW30777   6.295   4.174   1.255
10244SOL    HW130778   6.237   4.095   1.232
10244SOL    HW230779   6.291   4.241   1.181
10245SOL     OW30780   6.500   5.410   1.467
10245SOL    HW130781   6.481   5.361   1.382
10245SOL    HW230782   6.496   5.509   1.450
10246SOL     OW30783   6.043   4.223   0.188
10246SOL    HW130784   6.106   4.296   0.213
10246SOL    HW230785   5.950   4.260   0.185
10247SOL     OW30786   5.728   4.861   1.475
10247SOL    HW130787   5.730   4.816   1.564
10247SOL    HW230788   5.748   4.794   1.403
10248SOL     OW30789   6.896   4.770   1.223
10248SOL    HW130790   6.921   4.697   1.159
10248SOL    HW230791   6.831   4.832   1.178
10249SOL     OW30792   6.890   4.585   0.311
10249SOL    HW130793   6.810   4.548   0.358
10249SOL    HW230794   6.879   4.572   0.212
10250SOL     OW30795   6.844   5.471   1.118
10250SOL    HW130796   6.923   5.489   1.059
10250SOL    HW230797   6.834   5.372   1.130
10251SOL     OW30798   5.671   4.990   1.010
10251SOL    HW130799   5.655   5.004   1.108
10251SOL    HW230800   5.600   4.931   0.973
10252SOL     OW30801   6.266   5.397   1.737
10252SOL    HW130802   6.206   5.476   1.729
10252SOL    HW230803   6.341   5.405   1.672
10253SOL     OW30804   6.530   3.824   0.117
10253SOL    HW130805   6.604   3.851   0.055
10253SOL    HW230806   6.565   3.758   0.184
10254SOL     OW30807   6.974   5.302   0.490
10254SOL    HW130808   0.061   5.334   0.453
10254SOL    HW230809   6.921   5.381   0.522
10255SOL     OW30810   5.730   5.512   1.846
10255SOL    HW130811   5.673   5.444   1.891
10255SOL    HW230812   5.780   5.565   1.914
10256SOL     OW30813   6.870   4.640   0.663
10256SOL    HW130814   6.956   4.592   0.678
10256SOL    HW230815   6.887   4.723   0.611
10257SOL     OW30816   6.384   5.000   1.426
10257SOL    HW130817   6.355   5.045   1.511
10257SOL    HW230818   6.316   5.015   1.355
10258SOL     OW30819   6.251   5.332   0.196
10258SOL    HW130820   6.306   5.355   0.116
10258SOL    HW230821   6.194   5.252   0.175
10259SOL     OW30822   5.842   4.041   0.716
10259SOL    HW130823   5.753   4.077   0.688
10259SOL    HW230824   5.845   4.032   0.816
10260SOL     OW30825   6.742   5.348   0.005
10260SOL    HW130826   6.826   5.313   0.048
10260SOL    HW230827   6.731   5.306   6.915
10261SOL     OW30828   6.412   4.733   1.378
10261SOL    HW130829   6.459   4.720   1.291
10261SOL    HW230830   6.405   4.830   1.399
10262SOL     OW30831   6.503   4.632   0.290
10262SOL    HW130832   6.556   4.661   0.211
10262SOL    HW230833   6.556   4.564   0.342
10263SOL     OW30834   5.951   5.026   1.487
10263SOL    HW130835   5.942   5.107   1.428
10263SOL    HW230836   5.871   4.968   1.475
10264SOL     OW30837   6.640   4.831   0.712
10264SOL    HW130838   6.566   4.779   0.754
10264SOL    HW230839   6.706   4.768   0.671
10265SOL     OW30840   6.606   3.963   0.965
10265SOL    HW130841   6.599   3.918   0.876
10265SOL    HW230842   6.605   3.893   1.038
10266SOL     OW30843   6.197   5.202   0.484
10266SOL    HW130844   6.238   5.151   0.409
10266SOL    HW230845   6.134   5.272   0.448
10267SOL     OW30846   5.863   5.044   0.308
10267SOL    HW130847   5.779   5.033   0.255
10267SOL    HW230848   5.843   5.097   0.391
10268SOL     OW30849   5.700   4.757   1.727
10268SOL    HW130850   5.618   4.730   1.778
10268SOL    HW230851   5.780   4.712   1.767
10269SOL     OW30852   6.267   3.920   1.500
10269SOL    HW130853   6.353   3.896   1.455
10269SOL    HW230854   6.287   3.953   1.593
10270SOL     OW30855   5.689   4.050   0.017
10270SOL    HW130856   5.628   3.993   6.962
10270SOL    HW230857   5.722   4.126   6.963
10271SOL     OW30858   5.636   3.899   0.329
10271SOL    HW130859   5.623   3.990   0.291
10271SOL    HW230860   5.709   3.852   0.280
10272SOL     OW30861   6.210   4.553   1.433
10272SOL    HW130862   6.267   4.634   1.419
10272SOL    HW230863   6.269   4.473   1.444
10273SOL     OW30864   6.311   4.282   1.702
10273SOL    HW130865   6.352   4.348   1.764
10273SOL    HW230866   6.327   4.189   1.736
10274SOL     OW30867   0.004   4.987   1.650
10274SOL    HW130868   0.001   4.922   1.725
10274SOL    HW230869   0.082   4.966   1.591
10275SOL     OW30870   5.958   5.462   1.567
10275SOL    HW130871   5.874   5.513   1.552
10275SOL    HW230872   5.937   5.374   1.609
10276SOL     OW30873   6.803   4.033   0.442
10276SOL    HW130874   6.876   3.977   0.403
10276SOL    HW230875   6.839   4.086   0.519
10277SOL     OW30876   6.173   4.459   0.666
10277SOL    HW130877   6.214   4.550   0.658
10277SOL    HW230878   6.103   4.448   0.596
10278SOL     OW30879   6.449   5.107   0.030
10278SOL    HW130880   6.411   5.073   0.116
10278SOL    HW230881   6.461   5.206   0.036
10279SOL     OW30882   6.250   5.510   0.943
10279SOL    HW130883   6.227   5.605   0.921
10279SOL    HW230884   6.349   5.497   0.933
10280SOL     OW30885   6.454   4.693   0.857
10280SOL    HW130886   6.506   4.616   0.893
10280SOL    HW230887   6.413   4.744   0.933
10281SOL     OW30888   6.658   4.703   0.079
10281SOL    HW130889   6.691   4.797   0.066
10281SOL    HW230890   6.734   4.639   0.067
10282SOL     OW30891   5.816   5.023   1.857
10282SOL    HW130892   5.750   4.957   1.823
10282SOL    HW230893   5.802   5.037   1.955
10283SOL     OW30894   5.668   4.959   0.665
10283SOL    HW130895   5.684   4.907   0.750
10283SOL    HW230896   5.717   4.915   0.590
10284SOL     OW30897   6.262   5.134   1.627
10284SOL    HW130898   6.184   5.083   1.664
10284SOL    HW230899   6.265   5.225   1.670
10285SOL     OW30900   6.017   4.153   0.528
10285SOL    HW130901   6.048   4.082   0.465
10285SOL    HW230902   5.963   4.112   0.601
10286SOL     OW30903   5.921   4.280   1.289
10286SOL    HW130904   5.977   4.223   1.349
10286SOL    HW230905   5.936   4.254   1.194
10287SOL     OW30906   6.411   5.304   0.680
10287SOL    HW130907   6.402   5.360   0.598
10287SOL    HW230908   6.334   5.240   0.686
10288SOL     OW30909   6.993   3.944   1.117
10288SOL    HW130910   0.017   3.855   1.157
10288SOL    HW230911   6.940   3.997   1.183
10289SOL     OW30912   6.598   3.739   1.138
10289SOL    HW130913   6.538   3.672   1.094
10289SOL    HW230914   6.691   3.702   1.143
10290SOL     OW30915   6.366   5.043   0.307
10290SOL    HW130916   6.333   4.951   0.327
10290SOL    HW230917   6.447   5.062   0.363
10291SOL     OW30918   6.209   5.283   1.289
10291SOL    HW130919   6.207   5.370   1.339
10291SOL    HW230920   6.300   5.270   1.249
10292SOL     OW30921   5.672   4.778   0.361
10292SOL    HW130922   5.761   4.756   0.320
10292SOL    HW230923   5.618   4.695   0.372
10293SOL     OW30924   6.463   5.383   0.360
10293SOL    HW130925   6.387   5.357   0.301
10293SOL    HW230926   6.439   5.465   0.411
10294SOL     OW30927   5.809   4.343   1.989
10294SOL    HW130928   5.717   4.343   2.030
10294SOL    HW230929   5.802   4.320   1.892
10295SOL     OW30930   5.809   4.008   2.854
10295SOL    HW130931   5.842   3.973   2.942
10295SOL    HW230932   5.717   3.974   2.838
10296SOL     OW30933   5.587   4.110   2.495
10296SOL    HW130934   5.503   4.140   2.541
10296SOL    HW230935   5.569   4.026   2.445
10297SOL     OW30936   6.154   5.020   3.047
10297SOL    HW130937   6.064   5.016   3.004
10297SOL    HW230938   6.172   5.113   3.080
10298SOL     OW30939   0.070   5.271   2.622
10298SOL    HW130940   0.103   5.177   2.633
10298SOL    HW230941   0.041   5.285   2.527
10299SOL     OW30942   6.692   4.442   2.550
10299SOL    HW130943   6.758   4.516   2.539
10299SOL    HW230944   6.656   4.443   2.643
10300SOL     OW30945   6.331   4.865   2.903
10300SOL    HW130946   6.263   4.900   2.967
10300SOL    HW230947   6.375   4.942   2.856
10301SOL     OW30948   6.461   4.490   3.685
10301SOL    HW130949   6.442   4.558   3.756
10301SOL    HW230950   6.483   4.537   3.600
10302SOL     OW30951   6.269   4.723   2.511
10302SOL    HW130952   6.341   4.712   2.580
10302SOL    HW230953   6.195   4.779   2.548
10303SOL     OW30954   6.293   4.874   3.676
10303SOL    HW130955   6.343   4.955   3.708
10303SOL    HW230956   6.207   4.903   3.634
10304SOL     OW30957   5.912   5.148   2.928
10304SOL    HW130958   5.836   5.103   2.881
10304SOL    HW230959   5.966   5.200   2.862
10305SOL     OW30960   6.040   4.130   3.342
10305SOL    HW130961   6.122   4.073   3.349
10305SOL    HW230962   5.959   4.075   3.358
10306SOL     OW30963   5.808   5.438   2.334
10306SOL    HW130964   5.826   5.517   2.393
10306SOL    HW230965   5.882   5.428   2.268
10307SOL     OW30966   6.715   5.069   3.565
10307SOL    HW130967   6.810   5.039   3.576
10307SOL    HW230968   6.655   4.990   3.566
10308SOL     OW30969   5.819   5.167   2.398
10308SOL    HW130970   5.803   5.266   2.398
10308SOL    HW230971   5.759   5.123   2.465
10309SOL     OW30972   5.854   4.814   2.763
10309SOL    HW130973   5.850   4.720   2.796
10309SOL    HW230974   5.792   4.871   2.816
10310SOL     OW30975   6.184   5.522   3.287
10310SOL    HW130976   6.102   5.497   3.338
10310SOL    HW230977   6.215   5.612   3.316
10311SOL     OW30978   6.169   4.710   2.002
10311SOL    HW130979   6.215   4.758   1.927
10311SOL    HW230980   6.209   4.739   2.089
10312SOL     OW30981   5.700   4.384   2.425
10312SOL    HW130982   5.670   4.290   2.442
10312SOL    HW230983   5.694   4.436   2.510
10313SOL     OW30984   5.614   5.315   1.985
10313SOL    HW130985   5.599   5.218   2.004
10313SOL    HW230986   5.594   5.369   2.067
10314SOL     OW30987   5.709   4.470   3.445
10314SOL    HW130988   5.805   4.496   3.447
10314SOL    HW230989   5.652   4.552   3.448
10315SOL     OW30990   6.198   5.114   2.595
10315SOL    HW130991   6.152   5.026   2.608
10315SOL    HW230992   6.185   5.145   2.501
10316SOL     OW30993   6.842   4.946   3.293
10316SOL    HW130994   6.879   4.876   3.234
10316SOL    HW230995   6.903   4.960   3.371
10317SOL     OW30996   6.401   3.733   2.372
10317SOL    HW130997   6.447   3.819   2.349
10317SOL    HW230998   6.303   3.749   2.380
10318SOL     OW30999   5.777   4.686   3.137
10318SOL    HW131000   5.865   4.643   3.123
10318SOL    HW231001   5.707   4.637   3.085
10319SOL     OW31002   6.779   5.537   3.479
10319SOL    HW131003   6.766   5.605   3.407
10319SOL    HW231004   6.779   5.446   3.438
10320SOL     OW31005   5.905   3.995   3.674
10320SOL    HW131006   5.954   4.079   3.699
10320SOL    HW231007   5.812   3.998   3.711
10321SOL     OW31008   6.181   4.444   2.134
10321SOL    HW131009   6.186   4.529   2.082
10321SOL    HW231010   6.112   4.453   2.206
10322SOL     OW31011   6.872   4.045   2.754
10322SOL    HW131012   6.774   4.036   2.770
10322SOL    HW231013   6.922   4.010   2.834
10323SOL     OW31014   6.384   4.336   3.314
10323SOL    HW131015   6.355   4.313   3.407
10323SOL    HW231016   6.343   4.272   3.249
10324SOL     OW31017   6.942   4.181   3.537
10324SOL    HW131018   6.918   4.267   3.583
10324SOL    HW231019   0.042   4.176   3.527
10325SOL     OW31020   6.543   4.609   3.445
10325SOL    HW131021   6.598   4.534   3.408
10325SOL    HW231022   6.490   4.651   3.371
10326SOL     OW31023   6.588   4.146   3.091
10326SOL    HW131024   6.499   4.155   3.136
10326SOL    HW231025   6.578   4.090   3.009
10327SOL     OW31026   6.634   4.425   2.285
10327SOL    HW131027   6.652   4.426   2.384
10327SOL    HW231028   6.548   4.376   2.268
10328SOL     OW31029   5.675   4.552   2.641
10328SOL    HW131030   5.760   4.539   2.692
10328SOL    HW231031   5.626   4.630   2.678
10329SOL     OW31032   5.714   5.594   3.449
10329SOL    HW131033   5.719   5.566   3.545
10329SOL    HW231034   5.629   5.561   3.409
10330SOL     OW31035   6.481   4.076   2.057
10330SOL    HW131036   6.522   4.143   1.996
10330SOL    HW231037   6.485   3.985   2.016
10331SOL     OW31038   6.926   4.856   2.379
10331SOL    HW131039   6.998   4.840   2.311
10331SOL    HW231040   6.874   4.938   2.353
10332SOL     OW31041   6.134   3.897   2.762
10332SOL    HW131042   6.138   3.928   2.857
10332SOL    HW231043   6.136   3.977   2.701
10333SOL     OW31044   6.572   5.172   2.333
10333SOL    HW131045   6.540   5.250   2.279
10333SOL    HW231046   6.548   5.187   2.429
10334SOL     OW31047   5.942   5.537   2.731
10334SOL    HW131048   5.986   5.448   2.738
10334SOL    HW231049   6.009   5.609   2.750
10335SOL     OW31050   6.797   5.281   3.367
10335SOL    HW131051   6.804   5.205   3.431
10335SOL    HW231052   6.751   5.250   3.284
10336SOL     OW31053   5.908   4.683   2.116
10336SOL    HW131054   5.996   4.703   2.072
10336SOL    HW231055   5.871   4.598   2.078
10337SOL     OW31056   6.053   4.987   3.593
10337SOL    HW131057   6.026   4.994   3.496
10337SOL    HW231058   5.970   4.986   3.650
10338SOL     OW31059   6.711   5.495   2.105
10338SOL    HW131060   6.629   5.465   2.152
10338SOL    HW231061   6.725   5.438   2.023
10339SOL     OW31062   5.792   4.023   3.367
10339SOL    HW131063   5.709   4.076   3.346
10339SOL    HW231064   5.774   3.964   3.445
10340SOL     OW31065   6.050   5.459   2.180
10340SOL    HW131066   6.092   5.521   2.247
10340SOL    HW231067   6.121   5.422   2.120
10341SOL     OW31068   5.844   5.516   3.089
10341SOL    HW131069   5.896   5.444   3.136
10341SOL    HW231070   5.826   5.487   2.995
10342SOL     OW31071   6.524   5.425   2.759
10342SOL    HW131072   6.609   5.378   2.781
10342SOL    HW231073   6.477   5.375   2.686
10343SOL     OW31074   5.981   4.413   2.337
10343SOL    HW131075   6.002   4.316   2.350
10343SOL    HW231076   5.884   4.429   2.354
10344SOL     OW31077   6.227   3.842   1.963
10344SOL    HW131078   6.294   3.771   1.986
10344SOL    HW231079   6.170   3.811   1.887
10345SOL     OW31080   6.352   4.003   3.623
10345SOL    HW131081   6.431   3.942   3.615
10345SOL    HW231082   6.298   3.976   3.702
10346SOL     OW31083   6.460   5.242   3.054
10346SOL    HW131084   6.441   5.206   2.962
10346SOL    HW231085   6.532   5.187   3.096
10347SOL     OW31086   6.402   5.115   2.803
10347SOL    HW131087   6.492   5.101   2.762
10347SOL    HW231088   6.333   5.119   2.731
10348SOL     OW31089   6.512   4.232   2.761
10348SOL    HW131090   6.487   4.224   2.665
10348SOL    HW231091   6.543   4.143   2.795
10349SOL     OW31092   6.133   3.788   2.357
10349SOL    HW131093   6.050   3.786   2.413
10349SOL    HW231094   6.130   3.869   2.297
10350SOL     OW31095   6.988   4.847   1.881
10350SOL    HW131096   0.025   4.797   1.960
10350SOL    HW231097   6.924   4.916   1.913
10351SOL     OW31098   5.876   3.773   2.048
10351SOL    HW131099   5.929   3.844   2.001
10351SOL    HW231100   5.939   3.707   2.091
10352SOL     OW31101   6.529   3.973   2.316
10352SOL    HW131102   6.494   4.015   2.232
10352SOL    HW231103   6.628   3.985   2.321
10353SOL     OW31104   6.656   4.392   3.323
10353SOL    HW131105   6.561   4.358   3.323
10353SOL    HW231106   6.719   4.314   3.318
10354SOL     OW31107   6.783   5.298   2.663
10354SOL    HW131108   6.802   5.363   2.589
10354SOL    HW231109   6.867   5.279   2.714
10355SOL     OW31110   6.054   4.876   2.591
10355SOL    HW131111   5.987   4.855   2.662
10355SOL    HW231112   6.013   4.862   2.501
10356SOL     OW31113   6.841   5.516   2.468
10356SOL    HW131114   6.879   5.577   2.399
10356SOL    HW231115   6.771   5.563   2.521
10357SOL     OW31116   6.610   4.263   1.888
10357SOL    HW131117   6.564   4.349   1.869
10357SOL    HW231118   6.674   4.275   1.964
10358SOL     OW31119   5.672   4.280   3.254
10358SOL    HW131120   5.766   4.276   3.221
10358SOL    HW231121   5.663   4.352   3.322
10359SOL     OW31122   6.146   3.953   3.031
10359SOL    HW131123   6.201   3.886   3.082
10359SOL    HW231124   6.051   3.948   3.062
10360SOL     OW31125   6.450   4.178   2.500
10360SOL    HW131126   6.405   4.245   2.441
10360SOL    HW231127   6.475   4.097   2.447
10361SOL     OW31128   6.607   3.772   2.603
10361SOL    HW131129   6.542   3.775   2.528
10361SOL    HW231130   6.581   3.699   2.667
10362SOL     OW31131   6.073   5.145   2.020
10362SOL    HW131132   5.992   5.117   2.071
10362SOL    HW231133   6.074   5.099   1.931
10363SOL     OW31134   6.115   3.988   2.172
10363SOL    HW131135   6.162   3.936   2.100
10363SOL    HW231136   6.086   4.076   2.135
10364SOL     OW31137   6.629   5.072   3.194
10364SOL    HW131138   6.546   5.045   3.243
10364SOL    HW231139   6.709   5.028   3.236
10365SOL     OW31140   6.726   4.948   2.963
10365SOL    HW131141   6.668   4.979   3.038
10365SOL    HW231142   6.685   4.975   2.876
10366SOL     OW31143   6.496   3.887   3.226
10366SOL    HW131144   6.520   3.833   3.145
10366SOL    HW231145   6.577   3.900   3.282
10367SOL     OW31146   6.565   4.836   3.589
10367SOL    HW131147   6.471   4.858   3.614
10367SOL    HW231148   6.566   4.756   3.529
10368SOL     OW31149   6.298   4.782   2.235
10368SOL    HW131150   6.281   4.766   2.332
10368SOL    HW231151   6.377   4.728   2.205
10369SOL     OW31152   6.008   4.539   3.116
10369SOL    HW131153   6.081   4.551   3.183
10369SOL    HW231154   5.969   4.448   3.126
10370SOL     OW31155   6.850   4.096   3.156
10370SOL    HW131156   6.908   4.176   3.174
10370SOL    HW231157   6.760   4.127   3.127
10371SOL     OW31158   5.660   5.296   3.215
10371SOL    HW131159   5.625   5.367   3.153
10371SOL    HW231160   5.760   5.294   3.210
10372SOL     OW31161   5.929   4.841   2.349
10372SOL    HW131162   5.935   4.923   2.292
10372SOL    HW231163   5.927   4.760   2.291
10373SOL     OW31164   6.135   4.267   2.723
10373SOL    HW131165   6.149   4.327   2.644
10373SOL    HW231166   6.204   4.287   2.793
10374SOL     OW31167   6.824   5.093   2.279
10374SOL    HW131168   6.878   5.170   2.313
10374SOL    HW231169   6.727   5.111   2.296
10375SOL     OW31170   6.850   5.200   3.002
10375SOL    HW131171   6.929   5.195   3.063
10375SOL    HW231172   6.809   5.109   2.994
10376SOL     OW31173   5.934   5.253   3.172
10376SOL    HW131174   5.918   5.209   3.084
10376SOL    HW231175   6.032   5.267   3.185
10377SOL     OW31176   6.001   4.469   3.462
10377SOL    HW131177   6.067   4.516   3.403
10377SOL    HW231178   6.031   4.376   3.480
10378SOL     OW31179   6.577   3.846   3.615
10378SOL    HW131180   6.626   3.931   3.598
10378SOL    HW231181   6.631   3.768   3.584
10379SOL     OW31182   6.085   3.803   3.668
10379SOL    HW131183   6.081   3.744   3.588
10379SOL    HW231184   6.015   3.874   3.661
10380SOL     OW31185   6.169   4.596   2.895
10380SOL    HW131186   6.205   4.690   2.893
10380SOL    HW231187   6.109   4.586   2.975
10381SOL     OW31188   6.951   4.572   2.893
10381SOL    HW131189   6.858   4.561   2.857
10381SOL    HW231190   6.987   4.483   2.919
10382SOL     OW31191   6.768   4.259   2.114
10382SOL    HW131192   6.784   4.174   2.163
10382SOL    HW231193   6.730   4.327   2.177
10383SOL     OW31194   5.885   3.919   3.104
10383SOL    HW131195   5.845   3.951   3.190
10383SOL    HW231196   5.864   3.823   3.091
10384SOL     OW31197   5.638   5.034   3.137
10384SOL    HW131198   5.670   4.973   3.210
10384SOL    HW231199   5.641   5.129   3.170
10385SOL     OW31200   6.311   4.357   2.916
10385SOL    HW131201   6.387   4.336   2.855
10385SOL    HW231202   6.276   4.448   2.895
10386SOL     OW31203   5.891   3.787   2.487
10386SOL    HW131204   5.867   3.882   2.506
10386SOL    HW231205   5.905   3.738   2.573
10387SOL     OW31206   0.210   4.171   2.202
10387SOL    HW131207   0.172   4.079   2.206
10387SOL    HW231208   0.190   4.220   2.287
10388SOL     OW31209   6.609   4.480   2.822
10388SOL    HW131210   6.604   4.501   2.920
10388SOL    HW231211   6.584   4.384   2.807
10389SOL     OW31212   6.555   5.290   3.568
10389SOL    HW131213   6.543   5.334   3.480
10389SOL    HW231214   6.607   5.205   3.556
10390SOL     OW31215   5.939   4.641   3.667
10390SOL    HW131216   6.019   4.664   3.722
10390SOL    HW231217   5.964   4.575   3.596
10391SOL     OW31218   6.885   4.542   1.892
10391SOL    HW131219   6.946   4.471   1.929
10391SOL    HW231220   6.921   4.575   1.805
10392SOL     OW31221   6.649   5.057   2.717
10392SOL    HW131222   6.654   4.981   2.652
10392SOL    HW231223   6.702   5.135   2.682
10393SOL     OW31224   5.897   4.530   2.805
10393SOL    HW131225   5.993   4.556   2.801
10393SOL    HW231226   5.889   4.436   2.837
10394SOL     OW31227   5.914   4.252   2.873
10394SOL    HW131228   5.875   4.160   2.862
10394SOL    HW231229   5.995   4.261   2.815
10395SOL     OW31230   6.694   4.084   3.552
10395SOL    HW131231   6.646   4.146   3.614
10395SOL    HW231232   6.790   4.113   3.543
10396SOL     OW31233   6.750   3.916   3.340
10396SOL    HW131234   6.727   3.975   3.417
10396SOL    HW231235   6.792   3.970   3.267
10397SOL     OW31236   5.586   5.040   2.057
10397SOL    HW131237   5.497   5.059   2.017
10397SOL    HW231238   5.587   4.946   2.092
10398SOL     OW31239   5.679   5.508   2.805
10398SOL    HW131240   5.642   5.427   2.760
10398SOL    HW231241   5.773   5.524   2.773
10399SOL     OW31242   6.080   5.300   2.767
10399SOL    HW131243   6.150   5.366   2.794
10399SOL    HW231244   6.120   5.232   2.705
10400SOL     OW31245   6.563   4.517   3.088
10400SOL    HW131246   6.624   4.492   3.164
10400SOL    HW231247   6.475   4.472   3.099
10401SOL     OW31248   5.623   4.277   2.980
10401SOL    HW131249   5.704   4.261   2.923
10401SOL    HW231250   5.649   4.278   3.076
10402SOL     OW31251   5.774   4.251   3.593
10402SOL    HW131252   5.826   4.195   3.528
10402SOL    HW231253   5.736   4.331   3.545
10403SOL     OW31254   6.403   4.296   2.221
10403SOL    HW131255   6.411   4.216   2.161
10403SOL    HW231256   6.325   4.352   2.192
10404SOL     OW31257   5.826   5.271   3.588
10404SOL    HW131258   5.805   5.345   3.652
10404SOL    HW231259   5.832   5.185   3.638
10405SOL     OW31260   6.293   4.179   3.116
10405SOL    HW131261   6.236   4.101   3.094
10405SOL    HW231262   6.291   4.245   3.041
10406SOL     OW31263   6.500   5.411   3.329
10406SOL    HW131264   6.481   5.361   3.244
10406SOL    HW231265   6.496   5.509   3.312
10407SOL     OW31266   6.046   4.219   2.048
10407SOL    HW131267   6.110   4.292   2.073
10407SOL    HW231268   5.955   4.258   2.034
10408SOL     OW31269   5.728   4.861   3.337
10408SOL    HW131270   5.730   4.816   3.426
10408SOL    HW231271   5.748   4.794   3.265
10409SOL     OW31272   6.896   4.769   3.084
10409SOL    HW131273   6.921   4.697   3.020
10409SOL    HW231274   6.831   4.832   3.040
10410SOL     OW31275   6.888   4.595   2.170
10410SOL    HW131276   6.820   4.558   2.233
10410SOL    HW231277   6.862   4.576   2.076
10411SOL     OW31278   6.844   5.471   2.979
10411SOL    HW131279   6.923   5.489   2.921
10411SOL    HW231280   6.834   5.372   2.991
10412SOL     OW31281   5.671   4.990   2.872
10412SOL    HW131282   5.656   5.004   2.970
10412SOL    HW231283   5.599   4.931   2.836
10413SOL     OW31284   6.266   5.397   3.600
10413SOL    HW131285   6.206   5.476   3.591
10413SOL    HW231286   6.341   5.405   3.534
10414SOL     OW31287   6.978   5.308   2.348
10414SOL    HW131288   0.064   5.349   2.317
10414SOL    HW231289   6.918   5.380   2.382
10415SOL     OW31290   5.730   5.512   3.708
10415SOL    HW131291   5.673   5.444   3.753
10415SOL    HW231292   5.780   5.565   3.776
10416SOL     OW31293   6.869   4.640   2.522
10416SOL    HW131294   6.955   4.596   2.544
10416SOL    HW231295   6.887   4.722   2.467
10417SOL     OW31296   6.385   5.000   3.288
10417SOL    HW131297   6.355   5.045   3.373
10417SOL    HW231298   6.316   5.015   3.217
10418SOL     OW31299   6.254   5.347   2.017
10418SOL    HW131300   6.271   5.363   1.920
10418SOL    HW231301   6.197   5.265   2.027
10419SOL     OW31302   5.842   4.039   2.577
10419SOL    HW131303   5.753   4.076   2.549
10419SOL    HW231304   5.845   4.031   2.676
10420SOL     OW31305   6.749   5.333   1.898
10420SOL    HW131306   6.772   5.236   1.903
10420SOL    HW231307   6.688   5.350   1.821
10421SOL     OW31308   6.411   4.732   3.241
10421SOL    HW131309   6.459   4.718   3.155
10421SOL    HW231310   6.405   4.830   3.261
10422SOL     OW31311   6.504   4.634   2.147
10422SOL    HW131312   6.568   4.671   2.080
10422SOL    HW231313   6.550   4.563   2.201
10423SOL     OW31314   5.951   5.026   3.349
10423SOL    HW131315   5.942   5.107   3.291
10423SOL    HW231316   5.871   4.968   3.337
10424SOL     OW31317   6.642   4.830   2.573
10424SOL    HW131318   6.567   4.779   2.615
10424SOL    HW231319   6.709   4.766   2.536
10425SOL     OW31320   6.606   3.963   2.828
10425SOL    HW131321   6.601   3.918   2.739
10425SOL    HW231322   6.605   3.894   2.900
10426SOL     OW31323   6.191   5.210   2.341
10426SOL    HW131324   6.242   5.156   2.275
10426SOL    HW231325   6.116   5.258   2.295
10427SOL     OW31326   5.838   5.071   2.150
10427SOL    HW131327   5.742   5.065   2.123
10427SOL    HW231328   5.844   5.110   2.242
10428SOL     OW31329   5.700   4.757   3.589
10428SOL    HW131330   5.619   4.730   3.640
10428SOL    HW231331   5.781   4.712   3.628
10429SOL     OW31332   6.262   3.968   3.361
10429SOL    HW131333   6.342   3.940   3.308
10429SOL    HW231334   6.289   3.983   3.457
10430SOL     OW31335   5.667   4.053   1.892
10430SOL    HW131336   5.575   4.029   1.861
10430SOL    HW231337   5.699   4.134   1.842
10431SOL     OW31338   5.650   3.879   2.166
10431SOL    HW131339   5.633   3.964   2.116
10431SOL    HW231340   5.738   3.841   2.138
10432SOL     OW31341   6.210   4.552   3.296
10432SOL    HW131342   6.267   4.633   3.281
10432SOL    HW231343   6.268   4.472   3.306
10433SOL     OW31344   6.311   4.283   3.565
10433SOL    HW131345   6.353   4.349   3.627
10433SOL    HW231346   6.328   4.190   3.598
10434SOL     OW31347   0.004   4.987   3.512
10434SOL    HW131348   0.001   4.922   3.587
10434SOL    HW231349   0.082   4.966   3.452
10435SOL     OW31350   5.958   5.462   3.429
10435SOL    HW131351   5.874   5.513   3.414
10435SOL    HW231352   5.937   5.374   3.471
10436SOL     OW31353   6.806   4.036   2.301
10436SOL    HW131354   6.880   3.981   2.262
10436SOL    HW231355   6.841   4.091   2.376
10437SOL     OW31356   6.173   4.460   2.530
10437SOL    HW131357   6.215   4.551   2.520
10437SOL    HW231358   6.103   4.448   2.460
10438SOL     OW31359   6.429   5.092   1.893
10438SOL    HW131360   6.410   5.113   1.989
10438SOL    HW231361   6.461   5.174   1.846
10439SOL     OW31362   6.250   5.510   2.804
10439SOL    HW131363   6.227   5.605   2.783
10439SOL    HW231364   6.349   5.498   2.796
10440SOL     OW31365   6.454   4.694   2.719
10440SOL    HW131366   6.506   4.616   2.754
10440SOL    HW231367   6.413   4.744   2.795
10441SOL     OW31368   6.671   4.713   1.950
10441SOL    HW131369   6.637   4.767   1.873
10441SOL    HW231370   6.744   4.653   1.919
10442SOL     OW31371   5.816   5.023   3.719
10442SOL    HW131372   5.750   4.956   3.684
10442SOL    HW231373   5.802   5.037   3.817
10443SOL     OW31374   5.673   4.954   2.526
10443SOL    HW131375   5.675   4.908   2.614
10443SOL    HW231376   5.741   4.914   2.465
10444SOL     OW31377   6.262   5.134   3.489
10444SOL    HW131378   6.185   5.083   3.526
10444SOL    HW231379   6.265   5.225   3.532
10445SOL     OW31380   6.017   4.152   2.388
10445SOL    HW131381   6.050   4.082   2.326
10445SOL    HW231382   5.962   4.110   2.461
10446SOL     OW31383   5.919   4.281   3.150
10446SOL    HW131384   5.977   4.227   3.211
10446SOL    HW231385   5.936   4.254   3.055
10447SOL     OW31386   6.412   5.304   2.541
10447SOL    HW131387   6.396   5.365   2.463
10447SOL    HW231388   6.336   5.240   2.550
10448SOL     OW31389   6.992   3.944   2.979
10448SOL    HW131390   0.018   3.857   3.020
10448SOL    HW231391   6.939   3.997   3.045
10449SOL     OW31392   6.599   3.742   3.003
10449SOL    HW131393   6.537   3.672   2.966
10449SOL    HW231394   6.691   3.705   3.010
10450SOL     OW31395   6.360   5.056   2.181
10450SOL    HW131396   6.331   4.960   2.188
10450SOL    HW231397   6.445   5.069   2.232
10451SOL     OW31398   6.209   5.283   3.150
10451SOL    HW131399   6.207   5.370   3.201
10451SOL    HW231400   6.300   5.270   3.111
10452SOL     OW31401   6.909   3.804   2.003
10452SOL    HW131402   6.949   3.752   1.927
10452SOL    HW231403   6.831   3.753   2.040
10453SOL     OW31404   5.629   4.789   2.170
10453SOL    HW131405   5.727   4.789   2.150
10453SOL    HW231406   5.599   4.696   2.192
10454SOL     OW31407   6.466   5.388   2.204
10454SOL    HW131408   6.393   5.366   2.139
10454SOL    HW231409   6.438   5.465   2.262
10455SOL     OW31410   5.809   4.344   3.851
10455SOL    HW131411   5.718   4.343   3.893
10455SOL    HW231412   5.801   4.323   3.754
10456SOL     OW31413   5.809   4.006   4.719
10456SOL    HW131414   5.841   3.972   4.807
10456SOL    HW231415   5.715   3.974   4.702
10457SOL     OW31416   5.588   4.110   4.358
10457SOL    HW131417   5.503   4.139   4.403
10457SOL    HW231418   5.570   4.027   4.305
10458SOL     OW31419   6.154   5.020   4.909
10458SOL    HW131420   6.064   5.017   4.866
10458SOL    HW231421   6.172   5.112   4.942
10459SOL     OW31422   0.070   5.270   4.484
10459SOL    HW131423   0.103   5.177   4.494
10459SOL    HW231424   0.041   5.285   4.389
10460SOL     OW31425   6.692   4.442   4.412
10460SOL    HW131426   6.759   4.516   4.401
10460SOL    HW231427   6.656   4.444   4.506
10461SOL     OW31428   6.331   4.865   4.765
10461SOL    HW131429   6.262   4.900   4.829
10461SOL    HW231430   6.375   4.941   4.719
10462SOL     OW31431   6.460   4.490   5.547
10462SOL    HW131432   6.441   4.558   5.618
10462SOL    HW231433   6.482   4.538   5.462
10463SOL     OW31434   6.269   4.723   4.373
10463SOL    HW131435   6.341   4.712   4.442
10463SOL    HW231436   6.195   4.779   4.410
10464SOL     OW31437   6.293   4.874   5.538
10464SOL    HW131438   6.343   4.954   5.570
10464SOL    HW231439   6.207   4.903   5.496
10465SOL     OW31440   5.912   5.147   4.790
10465SOL    HW131441   5.836   5.103   4.743
10465SOL    HW231442   5.966   5.200   4.724
10466SOL     OW31443   6.037   4.118   5.203
10466SOL    HW131444   6.117   4.059   5.211
10466SOL    HW231445   5.954   4.064   5.222
10467SOL     OW31446   5.808   5.438   4.196
10467SOL    HW131447   5.826   5.517   4.255
10467SOL    HW231448   5.882   5.428   4.130
10468SOL     OW31449   6.715   5.069   5.427
10468SOL    HW131450   6.810   5.039   5.438
10468SOL    HW231451   6.655   4.990   5.428
10469SOL     OW31452   5.819   5.167   4.260
10469SOL    HW131453   5.803   5.266   4.259
10469SOL    HW231454   5.759   5.124   4.327
10470SOL     OW31455   5.854   4.814   4.625
10470SOL    HW131456   5.850   4.720   4.658
10470SOL    HW231457   5.792   4.871   4.678
10471SOL     OW31458   6.184   5.522   5.149
10471SOL    HW131459   6.102   5.497   5.200
10471SOL    HW231460   6.215   5.612   5.178
10472SOL     OW31461   6.169   4.710   3.864
10472SOL    HW131462   6.215   4.758   3.789
10472SOL    HW231463   6.209   4.738   3.951
10473SOL     OW31464   5.700   4.384   4.287
10473SOL    HW131465   5.671   4.290   4.304
10473SOL    HW231466   5.694   4.436   4.372
10474SOL     OW31467   5.614   5.315   3.847
10474SOL    HW131468   5.599   5.218   3.866
10474SOL    HW231469   5.594   5.369   3.929
10475SOL     OW31470   5.709   4.468   5.309
10475SOL    HW131471   5.806   4.494   5.311
10475SOL    HW231472   5.652   4.550   5.312
10476SOL     OW31473   6.198   5.114   4.457
10476SOL    HW131474   6.152   5.026   4.470
10476SOL    HW231475   6.185   5.145   4.363
10477SOL     OW31476   6.841   4.946   5.156
10477SOL    HW131477   6.879   4.876   5.096
10477SOL    HW231478   6.903   4.960   5.233
10478SOL     OW31479   6.401   3.734   4.235
10478SOL    HW131480   6.447   3.820   4.211
10478SOL    HW231481   6.303   3.749   4.242
10479SOL     OW31482   5.777   4.687   4.999
10479SOL    HW131483   5.865   4.643   4.985
10479SOL    HW231484   5.706   4.638   4.947
10480SOL     OW31485   6.779   5.537   5.341
10480SOL    HW131486   6.766   5.605   5.269
10480SOL    HW231487   6.780   5.446   5.300
10481SOL     OW31488   5.926   3.974   5.553
10481SOL    HW131489   5.974   4.060   5.568
10481SOL    HW231490   5.829   3.986   5.574
10482SOL     OW31491   6.180   4.444   3.996
10482SOL    HW131492   6.186   4.529   3.944
10482SOL    HW231493   6.111   4.453   4.067
10483SOL     OW31494   6.872   4.045   4.617
10483SOL    HW131495   6.774   4.036   4.632
10483SOL    HW231496   6.922   4.010   4.696
10484SOL     OW31497   6.384   4.336   5.175
10484SOL    HW131498   6.356   4.314   5.268
10484SOL    HW231499   6.343   4.271   5.111
10485SOL     OW31500   6.943   4.182   5.399
10485SOL    HW131501   6.920   4.267   5.447
10485SOL    HW231502   0.042   4.175   5.389
10486SOL     OW31503   6.543   4.609   5.306
10486SOL    HW131504   6.599   4.535   5.269
10486SOL    HW231505   6.490   4.651   5.233
10487SOL     OW31506   6.583   4.136   4.957
10487SOL    HW131507   6.491   4.154   4.992
10487SOL    HW231508   6.575   4.086   4.870
10488SOL     OW31509   6.634   4.425   4.148
10488SOL    HW131510   6.652   4.426   4.246
10488SOL    HW231511   6.548   4.376   4.130
10489SOL     OW31512   5.675   4.551   4.504
10489SOL    HW131513   5.760   4.539   4.554
10489SOL    HW231514   5.625   4.630   4.540
10490SOL     OW31515   5.714   5.594   5.311
10490SOL    HW131516   5.719   5.566   5.407
10490SOL    HW231517   5.628   5.562   5.271
10491SOL     OW31518   6.481   4.079   3.923
10491SOL    HW131519   6.524   4.142   3.858
10491SOL    HW231520   6.469   3.990   3.879
10492SOL     OW31521   6.926   4.856   4.241
10492SOL    HW131522   6.998   4.839   4.173
10492SOL    HW231523   6.874   4.938   4.215
10493SOL     OW31524   6.134   3.899   4.624
10493SOL    HW131525   6.137   3.929   4.720
10493SOL    HW231526   6.136   3.978   4.564
10494SOL     OW31527   6.572   5.172   4.195
10494SOL    HW131528   6.540   5.250   4.141
10494SOL    HW231529   6.548   5.187   4.291
10495SOL     OW31530   5.942   5.537   4.593
10495SOL    HW131531   5.986   5.448   4.600
10495SOL    HW231532   6.009   5.609   4.612
10496SOL     OW31533   6.798   5.281   5.229
10496SOL    HW131534   6.803   5.205   5.293
10496SOL    HW231535   6.751   5.250   5.146
10497SOL     OW31536   5.908   4.683   3.978
10497SOL    HW131537   5.996   4.703   3.934
10497SOL    HW231538   5.871   4.598   3.939
10498SOL     OW31539   6.053   4.986   5.455
10498SOL    HW131540   6.026   4.994   5.358
10498SOL    HW231541   5.970   4.986   5.512
10499SOL     OW31542   6.711   5.495   3.967
10499SOL    HW131543   6.629   5.465   4.014
10499SOL    HW231544   6.725   5.438   3.885
10500SOL     OW31545   5.788   4.001   5.227
10500SOL    HW131546   5.706   4.057   5.222
10500SOL    HW231547   5.767   3.915   5.273
10501SOL     OW31548   6.050   5.459   4.042
10501SOL    HW131549   6.092   5.521   4.109
10501SOL    HW231550   6.121   5.422   3.982
10502SOL     OW31551   5.844   5.516   4.951
10502SOL    HW131552   5.896   5.444   4.998
10502SOL    HW231553   5.826   5.487   4.857
10503SOL     OW31554   6.524   5.425   4.621
10503SOL    HW131555   6.609   5.378   4.643
10503SOL    HW231556   6.477   5.375   4.548
10504SOL     OW31557   5.981   4.413   4.199
10504SOL    HW131558   6.001   4.316   4.213
10504SOL    HW231559   5.884   4.430   4.216
10505SOL     OW31560   6.260   3.849   3.856
10505SOL    HW131561   6.322   3.771   3.865
10505SOL    HW231562   6.191   3.829   3.787
10506SOL     OW31563   6.349   4.001   5.483
10506SOL    HW131564   6.431   3.944   5.476
10506SOL    HW231565   6.295   3.972   5.561
10507SOL     OW31566   6.460   5.241   4.916
10507SOL    HW131567   6.441   5.206   4.824
10507SOL    HW231568   6.532   5.187   4.958
10508SOL     OW31569   6.402   5.115   4.665
10508SOL    HW131570   6.492   5.101   4.624
10508SOL    HW231571   6.333   5.119   4.593
10509SOL     OW31572   6.511   4.231   4.624
10509SOL    HW131573   6.487   4.225   4.527
10509SOL    HW231574   6.544   4.141   4.656
10510SOL     OW31575   6.132   3.789   4.221
10510SOL    HW131576   6.050   3.785   4.278
10510SOL    HW231577   6.129   3.870   4.163
10511SOL     OW31578   6.988   4.847   3.744
10511SOL    HW131579   0.025   4.797   3.822
10511SOL    HW231580   6.924   4.916   3.775
10512SOL     OW31581   5.882   3.775   3.923
10512SOL    HW131582   5.937   3.840   3.870
10512SOL    HW231583   5.942   3.706   3.963
10513SOL     OW31584   6.530   3.973   4.178
10513SOL    HW131585   6.495   4.015   4.095
10513SOL    HW231586   6.629   3.985   4.183
10514SOL     OW31587   6.656   4.392   5.184
10514SOL    HW131588   6.563   4.357   5.184
10514SOL    HW231589   6.720   4.315   5.184
10515SOL     OW31590   6.783   5.298   4.525
10515SOL    HW131591   6.801   5.363   4.451
10515SOL    HW231592   6.867   5.279   4.575
10516SOL     OW31593   6.054   4.875   4.453
10516SOL    HW131594   5.987   4.855   4.524
10516SOL    HW231595   6.013   4.862   4.363
10517SOL     OW31596   6.841   5.516   4.330
10517SOL    HW131597   6.879   5.577   4.261
10517SOL    HW231598   6.771   5.564   4.383
10518SOL     OW31599   6.610   4.263   3.750
10518SOL    HW131600   6.564   4.349   3.731
10518SOL    HW231601   6.674   4.275   3.826
10519SOL     OW31602   5.672   4.281   5.115
10519SOL    HW131603   5.766   4.277   5.083
10519SOL    HW231604   5.663   4.352   5.185
10520SOL     OW31605   6.145   3.949   4.896
10520SOL    HW131606   6.194   3.872   4.937
10520SOL    HW231607   6.049   3.947   4.926
10521SOL     OW31608   6.450   4.178   4.362
10521SOL    HW131609   6.406   4.245   4.302
10521SOL    HW231610   6.476   4.098   4.309
10522SOL     OW31611   6.607   3.772   4.466
10522SOL    HW131612   6.541   3.776   4.391
10522SOL    HW231613   6.581   3.699   4.529
10523SOL     OW31614   6.073   5.145   3.882
10523SOL    HW131615   5.992   5.117   3.933
10523SOL    HW231616   6.074   5.099   3.793
10524SOL     OW31617   6.115   3.992   4.041
10524SOL    HW131618   6.175   3.943   3.978
10524SOL    HW231619   6.085   4.077   3.999
10525SOL     OW31620   6.629   5.071   5.056
10525SOL    HW131621   6.546   5.045   5.105
10525SOL    HW231622   6.709   5.028   5.098
10526SOL     OW31623   6.726   4.948   4.825
10526SOL    HW131624   6.668   4.979   4.900
10526SOL    HW231625   6.685   4.975   4.738
10527SOL     OW31626   6.505   3.820   5.112
10527SOL    HW131627   6.526   3.796   5.018
10527SOL    HW231628   6.585   3.861   5.155
10528SOL     OW31629   6.566   4.836   5.451
10528SOL    HW131630   6.472   4.859   5.476
10528SOL    HW231631   6.566   4.756   5.391
10529SOL     OW31632   6.298   4.782   4.097
10529SOL    HW131633   6.281   4.765   4.194
10529SOL    HW231634   6.377   4.729   4.067
10530SOL     OW31635   6.008   4.539   4.978
10530SOL    HW131636   6.081   4.552   5.045
10530SOL    HW231637   5.969   4.447   4.988
10531SOL     OW31638   6.851   4.097   5.017
10531SOL    HW131639   6.907   4.177   5.035
10531SOL    HW231640   6.759   4.127   4.989
10532SOL     OW31641   5.660   5.296   5.077
10532SOL    HW131642   5.625   5.367   5.016
10532SOL    HW231643   5.760   5.294   5.072
10533SOL     OW31644   5.929   4.841   4.211
10533SOL    HW131645   5.935   4.923   4.154
10533SOL    HW231646   5.927   4.760   4.153
10534SOL     OW31647   6.135   4.267   4.587
10534SOL    HW131648   6.148   4.326   4.507
10534SOL    HW231649   6.204   4.288   4.656
10535SOL     OW31650   6.824   5.093   4.142
10535SOL    HW131651   6.879   5.170   4.175
10535SOL    HW231652   6.727   5.111   4.158
10536SOL     OW31653   6.850   5.200   4.864
10536SOL    HW131654   6.929   5.195   4.926
10536SOL    HW231655   6.809   5.109   4.856
10537SOL     OW31656   5.934   5.253   5.034
10537SOL    HW131657   5.918   5.209   4.946
10537SOL    HW231658   6.032   5.267   5.047
10538SOL     OW31659   6.001   4.470   5.324
10538SOL    HW131660   6.067   4.516   5.265
10538SOL    HW231661   6.033   4.378   5.345
10539SOL     OW31662   6.578   3.848   5.477
10539SOL    HW131663   6.630   3.931   5.458
10539SOL    HW231664   6.633   3.768   5.454
10540SOL     OW31665   6.079   3.762   5.473
10540SOL    HW131666   6.034   3.703   5.406
10540SOL    HW231667   6.020   3.841   5.491
10541SOL     OW31668   6.170   4.595   4.758
10541SOL    HW131669   6.205   4.689   4.754
10541SOL    HW231670   6.109   4.586   4.837
10542SOL     OW31671   6.951   4.572   4.756
10542SOL    HW131672   6.859   4.562   4.719
10542SOL    HW231673   6.988   4.483   4.781
10543SOL     OW31674   6.768   4.260   3.976
10543SOL    HW131675   6.784   4.174   4.024
10543SOL    HW231676   6.730   4.327   4.039
10544SOL     OW31677   5.883   3.921   4.971
10544SOL    HW131678   5.847   3.957   5.056
10544SOL    HW231679   5.868   3.822   4.967
10545SOL     OW31680   5.638   5.034   5.000
10545SOL    HW131681   5.670   4.973   5.072
10545SOL    HW231682   5.641   5.129   5.032
10546SOL     OW31683   6.311   4.356   4.780
10546SOL    HW131684   6.387   4.335   4.718
10546SOL    HW231685   6.275   4.447   4.760
10547SOL     OW31686   5.891   3.785   4.352
10547SOL    HW131687   5.867   3.880   4.370
10547SOL    HW231688   5.902   3.736   4.439
10548SOL     OW31689   0.210   4.171   4.064
10548SOL    HW131690   0.172   4.079   4.069
10548SOL    HW231691   0.190   4.220   4.149
10549SOL     OW31692   6.608   4.479   4.683
10549SOL    HW131693   6.604   4.500   4.781
10549SOL    HW231694   6.583   4.384   4.669
10550SOL     OW31695   6.555   5.290   5.430
10550SOL    HW131696   6.543   5.335   5.342
10550SOL    HW231697   6.607   5.206   5.418
10551SOL     OW31698   5.939   4.642   5.529
10551SOL    HW131699   6.019   4.664   5.584
10551SOL    HW231700   5.964   4.576   5.458
10552SOL     OW31701   6.885   4.542   3.755
10552SOL    HW131702   6.945   4.471   3.790
10552SOL    HW231703   6.920   4.575   3.667
10553SOL     OW31704   6.650   5.057   4.580
10553SOL    HW131705   6.654   4.981   4.514
10553SOL    HW231706   6.702   5.135   4.544
10554SOL     OW31707   5.897   4.530   4.667
10554SOL    HW131708   5.993   4.556   4.661
10554SOL    HW231709   5.889   4.436   4.700
10555SOL     OW31710   5.914   4.251   4.736
10555SOL    HW131711   5.875   4.159   4.725
10555SOL    HW231712   5.995   4.260   4.678
10556SOL     OW31713   6.694   4.086   5.412
10556SOL    HW131714   6.647   4.148   5.475
10556SOL    HW231715   6.790   4.114   5.404
10557SOL     OW31716   6.744   3.920   5.198
10557SOL    HW131717   6.723   3.979   5.276
10557SOL    HW231718   6.787   3.974   5.126
10558SOL     OW31719   5.586   5.040   3.919
10558SOL    HW131720   5.497   5.059   3.879
10558SOL    HW231721   5.588   4.946   3.954
10559SOL     OW31722   5.679   5.508   4.667
10559SOL    HW131723   5.643   5.427   4.622
10559SOL    HW231724   5.773   5.525   4.635
10560SOL     OW31725   6.080   5.300   4.629
10560SOL    HW131726   6.150   5.366   4.656
10560SOL    HW231727   6.120   5.232   4.567
10561SOL     OW31728   6.564   4.516   4.949
10561SOL    HW131729   6.624   4.492   5.025
10561SOL    HW231730   6.474   4.475   4.963
10562SOL     OW31731   5.623   4.275   4.841
10562SOL    HW131732   5.705   4.262   4.786
10562SOL    HW231733   5.648   4.278   4.938
10563SOL     OW31734   5.778   4.247   5.454
10563SOL    HW131735   5.829   4.193   5.387
10563SOL    HW231736   5.738   4.326   5.408
10564SOL     OW31737   6.403   4.297   4.084
10564SOL    HW131738   6.413   4.218   4.024
10564SOL    HW231739   6.325   4.352   4.055
10565SOL     OW31740   5.826   5.271   5.450
10565SOL    HW131741   5.805   5.346   5.514
10565SOL    HW231742   5.832   5.185   5.501
10566SOL     OW31743   6.295   4.174   4.979
10566SOL    HW131744   6.237   4.096   4.956
10566SOL    HW231745   6.291   4.241   4.905
10567SOL     OW31746   6.500   5.411   5.191
10567SOL    HW131747   6.481   5.362   5.105
10567SOL    HW231748   6.497   5.509   5.174
10568SOL     OW31749   6.045   4.219   3.909
10568SOL    HW131750   6.110   4.291   3.934
10568SOL    HW231751   5.954   4.259   3.896
10569SOL     OW31752   5.728   4.861   5.199
10569SOL    HW131753   5.730   4.816   5.288
10569SOL    HW231754   5.748   4.794   5.127
10570SOL     OW31755   6.895   4.769   4.946
10570SOL    HW131756   6.921   4.697   4.883
10570SOL    HW231757   6.831   4.832   4.902
10571SOL     OW31758   6.888   4.595   4.032
10571SOL    HW131759   6.820   4.558   4.094
10571SOL    HW231760   6.862   4.576   3.938
10572SOL     OW31761   6.844   5.471   4.841
10572SOL    HW131762   6.923   5.489   4.783
10572SOL    HW231763   6.834   5.372   4.853
10573SOL     OW31764   5.671   4.989   4.735
10573SOL    HW131765   5.656   5.004   4.832
10573SOL    HW231766   5.599   4.931   4.698
10574SOL     OW31767   6.266   5.397   5.461
10574SOL    HW131768   6.206   5.476   5.453
10574SOL    HW231769   6.341   5.405   5.396
10575SOL     OW31770   6.978   5.308   4.210
10575SOL    HW131771   0.064   5.349   4.179
10575SOL    HW231772   6.918   5.380   4.244
10576SOL     OW31773   5.730   5.512   5.570
10576SOL    HW131774   5.673   5.444   5.615
10576SOL    HW231775   5.780   5.565   5.638
10577SOL     OW31776   6.869   4.640   4.384
10577SOL    HW131777   6.956   4.595   4.405
10577SOL    HW231778   6.887   4.722   4.329
10578SOL     OW31779   6.385   5.000   5.151
10578SOL    HW131780   6.355   5.045   5.235
10578SOL    HW231781   6.316   5.015   5.079
10579SOL     OW31782   6.254   5.347   3.879
10579SOL    HW131783   6.271   5.363   3.782
10579SOL    HW231784   6.197   5.265   3.889
10580SOL     OW31785   5.842   4.038   4.440
10580SOL    HW131786   5.754   4.075   4.412
10580SOL    HW231787   5.845   4.030   4.540
10581SOL     OW31788   6.750   5.333   3.760
10581SOL    HW131789   6.772   5.236   3.765
10581SOL    HW231790   6.688   5.350   3.683
10582SOL     OW31791   6.412   4.733   5.102
10582SOL    HW131792   6.459   4.720   5.015
10582SOL    HW231793   6.405   4.830   5.123
10583SOL     OW31794   6.504   4.634   4.009
10583SOL    HW131795   6.568   4.671   3.942
10583SOL    HW231796   6.550   4.563   4.063
10584SOL     OW31797   5.951   5.026   5.211
10584SOL    HW131798   5.942   5.107   5.153
10584SOL    HW231799   5.871   4.968   5.199
10585SOL     OW31800   6.642   4.830   4.435
10585SOL    HW131801   6.567   4.779   4.477
10585SOL    HW231802   6.709   4.766   4.398
10586SOL     OW31803   6.606   3.963   4.690
10586SOL    HW131804   6.601   3.919   4.601
10586SOL    HW231805   6.605   3.894   4.762
10587SOL     OW31806   6.191   5.210   4.203
10587SOL    HW131807   6.242   5.156   4.137
10587SOL    HW231808   6.116   5.258   4.157
10588SOL     OW31809   5.838   5.071   4.012
10588SOL    HW131810   5.742   5.065   3.985
10588SOL    HW231811   5.844   5.110   4.104
10589SOL     OW31812   5.700   4.756   5.450
10589SOL    HW131813   5.618   4.729   5.502
10589SOL    HW231814   5.780   4.712   5.490
10590SOL     OW31815   6.268   3.920   5.224
10590SOL    HW131816   6.354   3.895   5.179
10590SOL    HW231817   6.286   3.953   5.317
10591SOL     OW31818   5.656   4.061   3.763
10591SOL    HW131819   5.572   4.026   3.723
10591SOL    HW231820   5.686   4.142   3.712
10592SOL     OW31821   5.649   3.881   4.029
10592SOL    HW131822   5.631   3.962   3.972
10592SOL    HW231823   5.739   3.844   4.006
10593SOL     OW31824   6.210   4.553   5.157
10593SOL    HW131825   6.267   4.634   5.143
10593SOL    HW231826   6.269   4.473   5.168
10594SOL     OW31827   6.311   4.282   5.426
10594SOL    HW131828   6.352   4.348   5.488
10594SOL    HW231829   6.327   4.189   5.460
10595SOL     OW31830   0.004   4.987   5.374
10595SOL    HW131831   0.001   4.922   5.449
10595SOL    HW231832   0.082   4.966   5.314
10596SOL     OW31833   5.958   5.462   5.291
10596SOL    HW131834   5.874   5.513   5.276
10596SOL    HW231835   5.937   5.374   5.333
10597SOL     OW31836   6.806   4.035   4.163
10597SOL    HW131837   6.880   3.981   4.124
10597SOL    HW231838   6.842   4.091   4.238
10598SOL     OW31839   6.172   4.461   4.393
10598SOL    HW131840   6.215   4.551   4.382
10598SOL    HW231841   6.103   4.448   4.322
10599SOL     OW31842   6.428   5.092   3.755
10599SOL    HW131843   6.410   5.113   3.851
10599SOL    HW231844   6.461   5.174   3.708
10600SOL     OW31845   6.250   5.510   4.666
10600SOL    HW131846   6.227   5.605   4.645
10600SOL    HW231847   6.349   5.498   4.657
10601SOL     OW31848   6.454   4.694   4.581
10601SOL    HW131849   6.506   4.616   4.616
10601SOL    HW231850   6.413   4.744   4.657
10602SOL     OW31851   6.671   4.714   3.812
10602SOL    HW131852   6.636   4.767   3.735
10602SOL    HW231853   6.744   4.653   3.781
10603SOL     OW31854   5.816   5.024   5.581
10603SOL    HW131855   5.749   4.958   5.547
10603SOL    HW231856   5.803   5.038   5.679
10604SOL     OW31857   5.673   4.954   4.387
10604SOL    HW131858   5.676   4.908   4.476
10604SOL    HW231859   5.741   4.915   4.326
10605SOL     OW31860   6.262   5.134   5.351
10605SOL    HW131861   6.184   5.083   5.389
10605SOL    HW231862   6.265   5.225   5.394
10606SOL     OW31863   6.016   4.154   4.253
10606SOL    HW131864   6.050   4.085   4.189
10606SOL    HW231865   5.962   4.110   4.324
10607SOL     OW31866   5.921   4.280   5.013
10607SOL    HW131867   5.977   4.223   5.073
10607SOL    HW231868   5.936   4.254   4.918
10608SOL     OW31869   6.412   5.304   4.403
10608SOL    HW131870   6.397   5.365   4.325
10608SOL    HW231871   6.336   5.241   4.411
10609SOL     OW31872   6.992   3.944   4.841
10609SOL    HW131873   0.018   3.856   4.882
10609SOL    HW231874   6.939   3.997   4.907
10610SOL     OW31875   6.598   3.739   4.862
10610SOL    HW131876   6.538   3.672   4.819
10610SOL    HW231877   6.691   3.703   4.867
10611SOL     OW31878   6.360   5.056   4.044
10611SOL    HW131879   6.331   4.960   4.050
10611SOL    HW231880   6.445   5.069   4.094
10612SOL     OW31881   6.209   5.283   5.013
10612SOL    HW131882   6.207   5.370   5.063
10612SOL    HW231883   6.300   5.270   4.973
10613SOL     OW31884   6.909   3.805   3.864
10613SOL    HW131885   6.951   3.750   3.792
10613SOL    HW231886   6.830   3.757   3.902
10614SOL     OW31887   5.629   4.789   4.032
10614SOL    HW131888   5.727   4.789   4.012
10614SOL    HW231889   5.599   4.696   4.054
10615SOL     OW31890   6.466   5.388   4.066
10615SOL    HW131891   6.393   5.366   4.001
10615SOL    HW231892   6.437   5.465   4.123
10616SOL     OW31893   5.809   4.343   5.713
10616SOL    HW131894   5.717   4.344   5.754
10616SOL    HW231895   5.802   4.320   5.616
10617SOL     OW31896   5.806   4.011   6.581
10617SOL    HW131897   5.842   3.973   6.667
10617SOL    HW231898   5.715   3.975   6.564
10618SOL     OW31899   5.587   4.110   6.221
10618SOL    HW131900   5.503   4.141   6.265
10618SOL    HW231901   5.569   4.026   6.170
10619SOL     OW31902   6.144   5.004   6.755
10619SOL    HW131903   6.056   5.028   6.713
10619SOL    HW231904   6.175   5.079   6.812
10620SOL     OW31905   0.070   5.270   6.346
10620SOL    HW131906   0.104   5.176   6.355
10620SOL    HW231907   0.041   5.287   6.252
10621SOL     OW31908   6.692   4.442   6.275
10621SOL    HW131909   6.759   4.516   6.264
10621SOL    HW231910   6.656   4.444   6.368
10622SOL     OW31911   6.339   4.866   6.625
10622SOL    HW131912   6.266   4.892   6.688
10622SOL    HW231913   6.376   4.947   6.579
10623SOL     OW31914   6.269   4.723   6.235
10623SOL    HW131915   6.340   4.712   6.305
10623SOL    HW231916   6.195   4.779   6.272
10624SOL     OW31917   5.918   5.136   6.648
10624SOL    HW131918   5.833   5.104   6.606
10624SOL    HW231919   5.966   5.198   6.586
10625SOL     OW31920   5.808   5.438   6.057
10625SOL    HW131921   5.826   5.517   6.117
10625SOL    HW231922   5.883   5.428   5.992
10626SOL     OW31923   5.818   5.167   6.122
10626SOL    HW131924   5.803   5.266   6.122
10626SOL    HW231925   5.759   5.124   6.190
10627SOL     OW31926   5.851   4.815   6.485
10627SOL    HW131927   5.848   4.722   6.522
10627SOL    HW231928   5.793   4.874   6.541
10628SOL     OW31929   6.176   5.549   6.960
10628SOL    HW131930   6.099   5.508   0.008
10628SOL    HW231931   6.209   5.629   0.010
10629SOL     OW31932   6.169   4.710   5.726
10629SOL    HW131933   6.215   4.758   5.651
10629SOL    HW231934   6.209   4.739   5.813
10630SOL     OW31935   0.242   3.915   0.083
10630SOL    HW131936   0.172   3.985   0.071
10630SOL    HW231937   0.202   3.834   0.127
10631SOL     OW31938   5.700   4.384   6.150
10631SOL    HW131939   5.670   4.291   6.166
10631SOL    HW231940   5.694   4.437   6.235
10632SOL     OW31941   5.614   5.315   5.709
10632SOL    HW131942   5.599   5.218   5.728
10632SOL    HW231943   5.594   5.369   5.791
10633SOL     OW31944   6.199   5.114   6.320
10633SOL    HW131945   6.152   5.027   6.334
10633SOL    HW231946   6.185   5.144   6.225
10634SOL     OW31947   6.822   4.915   0.023
10634SOL    HW131948   6.871   4.868   6.950
10634SOL    HW231949   6.888   4.962   0.082
10635SOL     OW31950   6.402   3.733   6.096
10635SOL    HW131951   6.446   3.820   6.073
10635SOL    HW231952   6.303   3.748   6.104
10636SOL     OW31953   5.779   4.701   6.847
10636SOL    HW131954   5.861   4.647   6.829
10636SOL    HW231955   5.698   4.647   6.822
10637SOL     OW31956   6.181   4.444   5.858
10637SOL    HW131957   6.186   4.530   5.806
10637SOL    HW231958   6.112   4.453   5.930
10638SOL     OW31959   6.871   4.048   6.479
10638SOL    HW131960   6.773   4.034   6.491
10638SOL    HW231961   6.920   4.012   6.558
10639SOL     OW31962   6.404   4.307   0.047
10639SOL    HW131963   6.350   4.367   0.107
10639SOL    HW231964   6.343   4.264   6.980
10640SOL     OW31965   6.569   4.097   6.803
10640SOL    HW131966   6.495   4.154   6.839
10640SOL    HW231967   6.539   4.052   6.719
10641SOL     OW31968   6.634   4.425   6.010
10641SOL    HW131969   6.652   4.426   6.108
10641SOL    HW231970   6.548   4.376   5.992
10642SOL     OW31971   5.675   4.551   6.366
10642SOL    HW131972   5.761   4.540   6.416
10642SOL    HW231973   5.626   4.630   6.401
10643SOL     OW31974   5.741   5.577   0.151
10643SOL    HW131975   5.705   5.501   0.205
10643SOL    HW231976   5.688   5.587   0.067
10644SOL     OW31977   6.481   4.076   5.782
10644SOL    HW131978   6.522   4.142   5.720
10644SOL    HW231979   6.484   3.985   5.740
10645SOL     OW31980   6.926   4.856   6.103
10645SOL    HW131981   6.997   4.839   6.035
10645SOL    HW231982   6.874   4.937   6.078
10646SOL     OW31983   6.135   3.899   6.486
10646SOL    HW131984   6.140   3.927   6.582
10646SOL    HW231985   6.136   3.980   6.427
10647SOL     OW31986   6.572   5.172   6.057
10647SOL    HW131987   6.541   5.250   6.002
10647SOL    HW231988   6.546   5.187   6.152
10648SOL     OW31989   5.942   5.538   6.453
10648SOL    HW131990   5.983   5.447   6.463
10648SOL    HW231991   6.010   5.608   6.474
10649SOL     OW31992   5.908   4.683   5.840
10649SOL    HW131993   5.996   4.703   5.796
10649SOL    HW231994   5.871   4.598   5.802
10650SOL     OW31995   6.711   5.495   5.829
10650SOL    HW131996   6.629   5.465   5.876
10650SOL    HW231997   6.725   5.438   5.747
10651SOL     OW31998   6.050   5.459   5.904
10651SOL    HW131999   6.092   5.521   5.971
10651SOL    HW232000   6.121   5.422   5.844
10652SOL     OW32001   5.851   5.524   6.820
10652SOL    HW132002   5.906   5.471   6.885
10652SOL    HW232003   5.815   5.464   6.750
10653SOL     OW32004   6.521   5.427   6.480
10653SOL    HW132005   6.603   5.380   6.512
10653SOL    HW232006   6.478   5.374   6.406
10654SOL     OW32007   5.981   4.412   6.061
10654SOL    HW132008   6.002   4.315   6.074
10654SOL    HW232009   5.884   4.429   6.078
10655SOL     OW32010   6.227   3.842   5.687
10655SOL    HW132011   6.293   3.770   5.710
10655SOL    HW232012   6.170   3.811   5.611
10656SOL     OW32013   6.460   5.243   6.769
10656SOL    HW132014   6.442   5.207   6.678
10656SOL    HW232015   6.478   5.168   6.832
10657SOL     OW32016   6.404   5.115   6.525
10657SOL    HW132017   6.494   5.101   6.482
10657SOL    HW232018   6.334   5.119   6.454
10658SOL     OW32019   6.513   4.230   6.486
10658SOL    HW132020   6.487   4.225   6.390
10658SOL    HW232021   6.548   4.141   6.516
10659SOL     OW32022   6.133   3.788   6.081
10659SOL    HW132023   6.051   3.785   6.138
10659SOL    HW232024   6.129   3.869   6.022
10660SOL     OW32025   6.988   4.847   5.606
10660SOL    HW132026   0.025   4.797   5.685
10660SOL    HW232027   6.924   4.917   5.637
10661SOL     OW32028   5.876   3.773   5.771
10661SOL    HW132029   5.929   3.844   5.726
10661SOL    HW232030   5.938   3.707   5.815
10662SOL     OW32031   6.529   3.973   6.040
10662SOL    HW132032   6.494   4.015   5.957
10662SOL    HW232033   6.628   3.985   6.045
10663SOL     OW32034   6.784   5.294   6.382
10663SOL    HW132035   6.796   5.363   6.310
10663SOL    HW232036   6.871   5.281   6.430
10664SOL     OW32037   6.054   4.875   6.315
10664SOL    HW132038   5.986   4.856   6.387
10664SOL    HW232039   6.012   4.861   6.225
10665SOL     OW32040   6.840   5.515   6.192
10665SOL    HW132041   6.877   5.577   6.123
10665SOL    HW232042   6.769   5.563   6.245
10666SOL     OW32043   6.610   4.263   5.612
10666SOL    HW132044   6.564   4.349   5.593
10666SOL    HW232045   6.674   4.275   5.688
10667SOL     OW32046   6.149   3.942   6.759
10667SOL    HW132047   6.192   3.859   6.794
10667SOL    HW232048   6.053   3.944   6.787
10668SOL     OW32049   6.450   4.180   6.224
10668SOL    HW132050   6.405   4.245   6.164
10668SOL    HW232051   6.475   4.098   6.172
10669SOL     OW32052   6.608   3.771   6.324
10669SOL    HW132053   6.541   3.773   6.250
10669SOL    HW232054   6.582   3.700   6.390
10670SOL     OW32055   6.073   5.145   5.744
10670SOL    HW132056   5.992   5.117   5.796
10670SOL    HW232057   6.073   5.100   5.655
10671SOL     OW32058   6.115   3.988   5.896
10671SOL    HW132059   6.162   3.936   5.825
10671SOL    HW232060   6.086   4.077   5.859
10672SOL     OW32061   0.225   5.300   0.248
10672SOL    HW132062   0.233   5.361   0.169
10672SOL    HW232063   0.303   5.237   0.249
10673SOL     OW32064   6.720   4.944   6.690
10673SOL    HW132065   6.642   4.934   6.751
10673SOL    HW232066   6.689   4.974   6.600
10674SOL     OW32067   6.298   4.782   5.959
10674SOL    HW132068   6.280   4.766   6.056
10674SOL    HW232069   6.376   4.729   5.929
10675SOL     OW32070   6.010   4.537   6.845
10675SOL    HW132071   6.065   4.565   6.924
10675SOL    HW232072   5.974   4.445   6.861
10676SOL     OW32073   6.828   4.131   6.864
10676SOL    HW132074   6.811   4.215   6.917
10676SOL    HW232075   6.745   4.104   6.816
10677SOL     OW32076   5.677   5.285   6.859
10677SOL    HW132077   5.618   5.360   6.888
10677SOL    HW232078   5.759   5.282   6.917
10678SOL     OW32079   5.929   4.841   6.073
10678SOL    HW132080   5.935   4.923   6.017
10678SOL    HW232081   5.927   4.760   6.014
10679SOL     OW32082   6.134   4.269   6.448
10679SOL    HW132083   6.147   4.327   6.368
10679SOL    HW232084   6.204   4.289   6.517
10680SOL     OW32085   6.824   5.093   6.004
10680SOL    HW132086   6.879   5.170   6.037
10680SOL    HW232087   6.727   5.111   6.021
10681SOL     OW32088   6.822   5.198   6.756
10681SOL    HW132089   6.917   5.188   6.786
10681SOL    HW232090   6.784   5.108   6.735
10682SOL     OW32091   5.952   5.218   6.904
10682SOL    HW132092   5.922   5.181   6.816
10682SOL    HW232093   6.045   5.252   6.896
10683SOL     OW32094   6.171   4.595   6.623
10683SOL    HW132095   6.204   4.689   6.615
10683SOL    HW232096   6.110   4.587   6.702
10684SOL     OW32097   6.952   4.569   6.608
10684SOL    HW132098   6.860   4.554   6.571
10684SOL    HW232099   6.990   4.481   6.637
10685SOL     OW32100   6.768   4.259   5.838
10685SOL    HW132101   6.784   4.173   5.886
10685SOL    HW232102   6.730   4.327   5.901
10686SOL     OW32103   5.887   3.926   6.834
10686SOL    HW132104   5.851   3.955   6.922
10686SOL    HW232105   5.875   3.828   6.824
10687SOL     OW32106   5.613   5.025   6.868
10687SOL    HW132107   5.666   4.977   6.938
10687SOL    HW232108   5.640   5.121   6.866
10688SOL     OW32109   6.310   4.353   6.641
10688SOL    HW132110   6.387   4.333   6.581
10688SOL    HW232111   6.277   4.446   6.623
10689SOL     OW32112   5.892   3.786   6.212
10689SOL    HW132113   5.868   3.881   6.232
10689SOL    HW232114   5.902   3.737   6.299
10690SOL     OW32115   0.210   4.171   5.926
10690SOL    HW132116   0.172   4.079   5.930
10690SOL    HW232117   0.189   4.219   6.011
10691SOL     OW32118   6.610   4.478   6.549
10691SOL    HW132119   6.603   4.498   6.647
10691SOL    HW232120   6.584   4.383   6.533
10692SOL     OW32121   6.885   4.542   5.617
10692SOL    HW132122   6.946   4.470   5.652
10692SOL    HW232123   6.921   4.576   5.530
10693SOL     OW32124   6.655   5.055   6.443
10693SOL    HW132125   6.656   4.981   6.377
10693SOL    HW232126   6.704   5.134   6.406
10694SOL     OW32127   5.899   4.529   6.529
10694SOL    HW132128   5.995   4.556   6.523
10694SOL    HW232129   5.893   4.434   6.560
10695SOL     OW32130   5.918   4.252   6.604
10695SOL    HW132131   5.877   4.161   6.590
10695SOL    HW232132   5.998   4.262   6.544
10696SOL     OW32133   6.768   3.941   0.053
10696SOL    HW132134   6.765   3.993   0.139
10696SOL    HW232135   6.772   4.004   6.976
10697SOL     OW32136   5.586   5.040   5.780
10697SOL    HW132137   5.497   5.059   5.740
10697SOL    HW232138   5.587   4.946   5.816
10698SOL     OW32139   5.676   5.514   6.526
10698SOL    HW132140   5.642   5.430   6.483
10698SOL    HW232141   5.772   5.526   6.500
10699SOL     OW32142   6.078   5.301   6.490
10699SOL    HW132143   6.148   5.367   6.518
10699SOL    HW232144   6.120   5.232   6.430
10700SOL     OW32145   6.567   4.517   6.816
10700SOL    HW132146   6.632   4.512   6.892
10700SOL    HW232147   6.478   4.485   6.847
10701SOL     OW32148   5.636   4.280   6.712
10701SOL    HW132149   5.692   4.245   6.637
10701SOL    HW232150   5.695   4.315   6.785
10702SOL     OW32151   6.403   4.297   5.945
10702SOL    HW132152   6.411   4.217   5.885
10702SOL    HW232153   6.325   4.352   5.916
10703SOL     OW32154   6.268   4.184   6.847
10703SOL    HW132155   6.227   4.098   6.819
10703SOL    HW232156   6.274   4.246   6.769
10704SOL     OW32157   6.452   5.386   0.015
10704SOL    HW132158   6.465   5.368   6.917
10704SOL    HW232159   6.521   5.451   0.046
10705SOL     OW32160   6.046   4.220   5.772
10705SOL    HW132161   6.110   4.292   5.797
10705SOL    HW232162   5.955   4.258   5.758
10706SOL     OW32163   5.742   4.866   0.058
10706SOL    HW132164   5.797   4.826   0.131
10706SOL    HW232165   5.752   4.812   6.975
10707SOL     OW32166   6.888   4.746   6.807
10707SOL    HW132167   6.919   4.686   6.734
10707SOL    HW232168   6.833   4.820   6.769
10708SOL     OW32169   6.888   4.595   5.894
10708SOL    HW132170   6.819   4.557   5.956
10708SOL    HW232171   6.863   4.576   5.800
10709SOL     OW32172   6.840   5.466   6.693
10709SOL    HW132173   6.927   5.479   6.645
10709SOL    HW232174   6.830   5.369   6.717
10710SOL     OW32175   5.667   4.988   6.599
10710SOL    HW132176   5.648   4.997   6.697
10710SOL    HW232177   5.599   4.928   6.558
10711SOL     OW32178   6.979   5.308   6.073
10711SOL    HW132179   0.064   5.349   6.041
10711SOL    HW232180   6.918   5.380   6.106
10712SOL     OW32181   6.870   4.641   6.247
10712SOL    HW132182   6.956   4.594   6.265
10712SOL    HW232183   6.887   4.722   6.192
10713SOL     OW32184   6.254   5.346   5.741
10713SOL    HW132185   6.271   5.363   5.644
10713SOL    HW232186   6.197   5.265   5.751
10714SOL     OW32187   5.842   4.039   6.301
10714SOL    HW132188   5.753   4.075   6.273
10714SOL    HW232189   5.844   4.030   6.401
10715SOL     OW32190   6.750   5.333   5.622
10715SOL    HW132191   6.770   5.235   5.627
10715SOL    HW232192   6.689   5.350   5.545
10716SOL     OW32193   6.367   4.749   6.950
10716SOL    HW132194   6.429   4.715   6.879
10716SOL    HW232195   6.410   4.828   6.995
10717SOL     OW32196   6.504   4.634   5.871
10717SOL    HW132197   6.568   4.671   5.804
10717SOL    HW232198   6.550   4.563   5.925
10718SOL     OW32199   6.641   4.830   6.297
10718SOL    HW132200   6.566   4.779   6.339
10718SOL    HW232201   6.708   4.766   6.258
10719SOL     OW32202   6.605   3.961   6.543
10719SOL    HW132203   6.600   3.914   6.455
10719SOL    HW232204   6.609   3.893   6.616
10720SOL     OW32205   6.191   5.210   6.065
10720SOL    HW132206   6.242   5.157   5.998
10720SOL    HW232207   6.115   5.258   6.020
10721SOL     OW32208   5.838   5.071   5.874
10721SOL    HW132209   5.742   5.065   5.847
10721SOL    HW232210   5.844   5.110   5.966
10722SOL     OW32211   6.261   3.911   0.085
10722SOL    HW132212   6.351   3.877   0.060
10722SOL    HW232213   6.270   3.987   0.149
10723SOL     OW32214   5.668   4.053   5.616
10723SOL    HW132215   5.575   4.029   5.586
10723SOL    HW232216   5.699   4.134   5.566
10724SOL     OW32217   5.650   3.879   5.890
10724SOL    HW132218   5.633   3.964   5.839
10724SOL    HW232219   5.738   3.841   5.862
10725SOL     OW32220   5.967   5.452   0.087
10725SOL    HW132221   5.889   5.505   0.118
10725SOL    HW232222   5.970   5.364   0.135
10726SOL     OW32223   6.806   4.036   6.024
10726SOL    HW132224   6.880   3.981   5.986
10726SOL    HW232225   6.841   4.091   6.100
10727SOL     OW32226   6.173   4.460   6.254
10727SOL    HW132227   6.214   4.551   6.244
10727SOL    HW232228   6.103   4.448   6.183
10728SOL     OW32229   6.429   5.091   5.617
10728SOL    HW132230   6.410   5.112   5.713
10728SOL    HW232231   6.461   5.174   5.570
10729SOL     OW32232   6.252   5.509   6.528
10729SOL    HW132233   6.228   5.604   6.506
10729SOL    HW232234   6.350   5.497   6.519
10730SOL     OW32235   6.455   4.693   6.442
10730SOL    HW132236   6.505   4.615   6.481
10730SOL    HW232237   6.414   4.746   6.517
10731SOL     OW32238   6.671   4.713   5.674
10731SOL    HW132239   6.636   4.767   5.597
10731SOL    HW232240   6.744   4.653   5.643
10732SOL     OW32241   5.672   4.953   6.249
10732SOL    HW132242   5.675   4.907   6.338
10732SOL    HW232243   5.742   4.913   6.189
10733SOL     OW32244   6.017   4.152   6.113
10733SOL    HW132245   6.050   4.082   6.050
10733SOL    HW232246   5.962   4.109   6.185
10734SOL     OW32247   5.902   4.273   6.878
10734SOL    HW132248   5.972   4.220   6.926
10734SOL    HW232249   5.912   4.261   6.779
10735SOL     OW32250   6.414   5.301   6.263
10735SOL    HW132251   6.396   5.364   6.187
10735SOL    HW232252   6.336   5.239   6.274
10736SOL     OW32253   6.990   3.951   6.706
10736SOL    HW132254   0.005   3.859   6.742
10736SOL    HW232255   6.932   4.003   6.768
10737SOL     OW32256   6.607   3.750   6.716
10737SOL    HW132257   6.536   3.682   6.697
10737SOL    HW232258   6.696   3.704   6.721
10738SOL     OW32259   6.360   5.056   5.905
10738SOL    HW132260   6.331   4.960   5.912
10738SOL    HW232261   6.445   5.069   5.956
10739SOL     OW32262   6.206   5.294   6.862
10739SOL    HW132263   6.203   5.389   6.894
10739SOL    HW232264   6.296   5.274   6.823
10740SOL     OW32265   6.909   3.804   5.727
10740SOL    HW132266   6.949   3.752   5.651
10740SOL    HW232267   6.831   3.753   5.765
10741SOL     OW32268   5.629   4.789   5.893
10741SOL    HW132269   5.727   4.789   5.875
10741SOL    HW232270   5.599   4.696   5.915
10742SOL     OW32271   6.466   5.389   5.927
10742SOL    HW132272   6.393   5.366   5.863
10742SOL    HW232273   6.438   5.465   5.985
10743SOL     OW32274   5.808   6.224   0.135
10743SOL    HW132275   5.713   6.209   0.161
10743SOL    HW232276   5.820   6.203   0.038
10744SOL     OW32277   5.808   5.869   0.994
10744SOL    HW132278   5.841   5.834   1.082
10744SOL    HW232279   5.715   5.836   0.978
10745SOL     OW32280   5.587   5.974   0.637
10745SOL    HW132281   5.505   6.007   0.683
10745SOL    HW232282   5.567   5.887   0.591
10746SOL     OW32283   6.154   6.871   1.173
10746SOL    HW132284   6.078   6.873   1.108
10746SOL    HW232285   6.129   6.921   1.256
10747SOL     OW32286   0.070   0.134   0.686
10747SOL    HW132287   0.011   0.089   0.753
10747SOL    HW232288   0.115   0.064   0.629
10748SOL     OW32289   6.694   6.305   0.690
10748SOL    HW132290   6.759   6.380   0.678
10748SOL    HW232291   6.658   6.306   0.783
10749SOL     OW32292   6.350   6.746   1.026
10749SOL    HW132293   6.282   6.783   1.089
10749SOL    HW232294   6.353   6.800   0.942
10750SOL     OW32295   6.460   6.353   1.822
10750SOL    HW132296   6.452   6.419   1.897
10750SOL    HW232297   6.485   6.401   1.738
10751SOL     OW32298   6.270   6.583   0.650
10751SOL    HW132299   6.341   6.572   0.719
10751SOL    HW232300   6.195   6.639   0.687
10752SOL     OW32301   6.277   6.734   1.815
10752SOL    HW132302   6.318   6.823   1.835
10752SOL    HW232303   6.196   6.746   1.758
10753SOL     OW32304   5.922   0.007   1.059
10753SOL    HW132305   5.843   6.961   1.018
10753SOL    HW232306   5.970   0.060   0.988
10754SOL     OW32307   6.037   5.980   1.480
10754SOL    HW132308   6.117   5.921   1.487
10754SOL    HW232309   5.954   5.926   1.498
10755SOL     OW32310   5.845   6.675   0.903
10755SOL    HW132311   5.843   6.581   0.936
10755SOL    HW232312   5.784   6.731   0.959
10756SOL     OW32313   6.174   6.549   0.140
10756SOL    HW132314   6.235   6.565   0.062
10756SOL    HW232315   6.211   6.592   0.222
10757SOL     OW32316   5.700   6.240   0.562
10757SOL    HW132317   5.670   6.147   0.582
10757SOL    HW232318   5.694   6.295   0.646
10758SOL     OW32319   5.711   6.331   1.585
10758SOL    HW132320   5.809   6.353   1.586
10758SOL    HW232321   5.658   6.415   1.594
10759SOL     OW32322   6.859   6.792   1.446
10759SOL    HW132323   6.902   6.723   1.388
10759SOL    HW232324   6.922   6.819   1.519
10760SOL     OW32325   6.404   5.599   0.518
10760SOL    HW132326   6.449   5.684   0.492
10760SOL    HW232327   6.305   5.613   0.524
10761SOL     OW32328   5.778   6.551   1.274
10761SOL    HW132329   5.865   6.504   1.260
10761SOL    HW232330   5.705   6.502   1.226
10762SOL     OW32331   5.926   5.836   1.830
10762SOL    HW132332   5.975   5.922   1.845
10762SOL    HW232333   5.829   5.848   1.850
10763SOL     OW32334   6.185   6.302   0.269
10763SOL    HW132335   6.190   6.390   0.223
10763SOL    HW232336   6.119   6.307   0.344
10764SOL     OW32337   6.870   5.908   0.895
10764SOL    HW132338   6.772   5.897   0.910
10764SOL    HW232339   6.921   5.873   0.974
10765SOL     OW32340   6.384   6.197   1.451
10765SOL    HW132341   6.356   6.175   1.545
10765SOL    HW232342   6.343   6.132   1.388
10766SOL     OW32343   6.942   6.045   1.675
10766SOL    HW132344   6.919   6.131   1.722
10766SOL    HW232345   0.042   6.038   1.667
10767SOL     OW32346   6.546   6.473   1.583
10767SOL    HW132347   6.603   6.399   1.548
10767SOL    HW232348   6.491   6.511   1.509
10768SOL     OW32349   6.583   5.998   1.233
10768SOL    HW132350   6.492   6.016   1.269
10768SOL    HW232351   6.575   5.948   1.146
10769SOL     OW32352   6.636   6.287   0.426
10769SOL    HW132353   6.656   6.291   0.524
10769SOL    HW232354   6.549   6.240   0.412
10770SOL     OW32355   5.674   6.411   0.777
10770SOL    HW132356   5.760   6.399   0.828
10770SOL    HW232357   5.624   6.489   0.815
10771SOL     OW32358   6.466   5.935   0.213
10771SOL    HW132359   6.477   6.002   0.140
10771SOL    HW232360   6.491   5.844   0.178
10772SOL     OW32361   6.932   6.721   0.521
10772SOL    HW132362   6.996   6.695   0.448
10772SOL    HW232363   6.880   6.801   0.492
10773SOL     OW32364   6.133   5.761   0.900
10773SOL    HW132365   6.137   5.791   0.995
10773SOL    HW232366   6.136   5.841   0.840
10774SOL     OW32367   5.912   6.536   0.247
10774SOL    HW132368   5.998   6.552   0.198
10774SOL    HW232369   5.875   6.447   0.221
10775SOL     OW32370   5.788   5.863   1.503
10775SOL    HW132371   5.705   5.918   1.498
10775SOL    HW232372   5.767   5.776   1.549
10776SOL     OW32373   5.983   6.273   0.470
10776SOL    HW132374   6.002   6.177   0.488
10776SOL    HW232375   5.886   6.292   0.488
10777SOL     OW32376   6.349   5.863   1.758
10777SOL    HW132377   6.431   5.806   1.752
10777SOL    HW232378   6.295   5.834   1.837
10778SOL     OW32379   6.512   6.092   0.901
10778SOL    HW132380   6.487   6.086   0.804
10778SOL    HW232381   6.544   6.002   0.933
10779SOL     OW32382   6.135   5.657   0.504
10779SOL    HW132383   6.051   5.654   0.558
10779SOL    HW232384   6.131   5.736   0.442
10780SOL     OW32385   6.531   5.835   0.461
10780SOL    HW132386   6.495   5.875   0.377
10780SOL    HW232387   6.630   5.847   0.464
10781SOL     OW32388   6.657   6.254   1.460
10781SOL    HW132389   6.563   6.220   1.461
10781SOL    HW232390   6.721   6.178   1.463
10782SOL     OW32391   6.816   0.099   0.789
10782SOL    HW132392   6.787   0.173   0.728
10782SOL    HW232393   6.836   0.138   0.879
10783SOL     OW32394   6.052   6.717   0.737
10783SOL    HW132395   5.981   6.707   0.806
10783SOL    HW232396   6.011   6.715   0.646
10784SOL     OW32397   6.682   6.179   0.026
10784SOL    HW132398   6.582   6.183   0.030
10784SOL    HW232399   6.718   6.157   0.117
10785SOL     OW32400   5.672   6.144   1.390
10785SOL    HW132401   5.766   6.139   1.359
10785SOL    HW232402   5.664   6.215   1.460
10786SOL     OW32403   6.145   5.811   1.172
10786SOL    HW132404   6.194   5.733   1.212
10786SOL    HW232405   6.049   5.809   1.202
10787SOL     OW32406   6.450   6.040   0.641
10787SOL    HW132407   6.410   6.107   0.578
10787SOL    HW232408   6.476   5.958   0.590
10788SOL     OW32409   6.606   5.633   0.740
10788SOL    HW132410   6.540   5.634   0.665
10788SOL    HW232411   6.581   5.560   0.805
10789SOL     OW32412   6.102   5.851   0.313
10789SOL    HW132413   6.112   5.783   0.240
10789SOL    HW232414   6.078   5.940   0.273
10790SOL     OW32415   6.649   6.894   1.324
10790SOL    HW132416   6.566   6.880   1.377
10790SOL    HW232417   6.728   6.865   1.378
10791SOL     OW32418   6.728   6.771   1.097
10791SOL    HW132419   6.691   6.814   1.180
10791SOL    HW232420   6.666   6.787   1.020
10792SOL     OW32421   6.505   5.682   1.388
10792SOL    HW132422   6.526   5.658   1.294
10792SOL    HW232423   6.585   5.723   1.431
10793SOL     OW32424   6.553   6.699   1.737
10793SOL    HW132425   6.455   6.710   1.754
10793SOL    HW232426   6.567   6.625   1.671
10794SOL     OW32427   6.291   6.634   0.373
10794SOL    HW132428   6.276   6.625   0.472
10794SOL    HW232429   6.372   6.581   0.347
10795SOL     OW32430   6.007   6.400   1.254
10795SOL    HW132431   6.080   6.413   1.322
10795SOL    HW232432   5.968   6.309   1.265
10796SOL     OW32433   6.851   5.959   1.292
10796SOL    HW132434   6.907   6.039   1.312
10796SOL    HW232435   6.759   5.989   1.265
10797SOL     OW32436   5.937   6.699   0.489
10797SOL    HW132437   5.977   6.777   0.442
10797SOL    HW232438   5.942   6.618   0.431
10798SOL     OW32439   6.135   6.130   0.862
10798SOL    HW132440   6.150   6.189   0.782
10798SOL    HW232441   6.204   6.150   0.931
10799SOL     OW32442   6.823   6.951   0.410
10799SOL    HW132443   6.870   0.035   0.434
10799SOL    HW232444   6.728   6.954   0.443
10800SOL     OW32445   6.001   6.330   1.601
10800SOL    HW132446   6.067   6.375   1.541
10800SOL    HW232447   6.034   6.238   1.623
10801SOL     OW32448   6.578   5.710   1.753
10801SOL    HW132449   6.630   5.793   1.734
10801SOL    HW232450   6.633   5.630   1.730
10802SOL     OW32451   6.079   5.624   1.749
10802SOL    HW132452   6.034   5.565   1.682
10802SOL    HW232453   6.020   5.703   1.767
10803SOL     OW32454   6.168   6.453   1.035
10803SOL    HW132455   6.195   6.549   1.025
10803SOL    HW232456   6.107   6.444   1.114
10804SOL     OW32457   6.955   6.433   1.032
10804SOL    HW132458   6.862   6.425   0.995
10804SOL    HW232459   6.989   6.342   1.056
10805SOL     OW32460   6.770   6.109   0.270
10805SOL    HW132461   6.786   6.029   0.327
10805SOL    HW232462   6.731   6.183   0.326
10806SOL     OW32463   5.883   5.783   1.246
10806SOL    HW132464   5.847   5.819   1.332
10806SOL    HW232465   5.868   5.684   1.243
10807SOL     OW32466   5.646   6.898   1.282
10807SOL    HW132467   5.679   6.841   1.358
10807SOL    HW232468   5.647   6.994   1.310
10808SOL     OW32469   6.312   6.217   1.057
10808SOL    HW132470   6.388   6.196   0.995
10808SOL    HW232471   6.276   6.308   1.037
10809SOL     OW32472   5.891   5.651   0.629
10809SOL    HW132473   5.867   5.746   0.649
10809SOL    HW232474   5.902   5.601   0.715
10810SOL     OW32475   0.183   6.005   0.376
10810SOL    HW132476   0.260   5.958   0.418
10810SOL    HW232477   0.166   6.091   0.424
10811SOL     OW32478   6.609   6.340   0.960
10811SOL    HW132479   6.605   6.361   1.057
10811SOL    HW232480   6.584   6.244   0.945
10812SOL     OW32481   5.941   6.507   1.802
10812SOL    HW132482   6.017   6.518   1.866
10812SOL    HW232483   5.965   6.439   1.732
10813SOL     OW32484   6.893   6.427   0.037
10813SOL    HW132485   6.919   6.334   0.012
10813SOL    HW232486   6.907   6.488   6.959
10814SOL     OW32487   5.896   6.391   0.942
10814SOL    HW132488   5.992   6.417   0.935
10814SOL    HW232489   5.888   6.298   0.976
10815SOL     OW32490   5.914   6.113   1.012
10815SOL    HW132491   5.875   6.021   1.001
10815SOL    HW232492   5.995   6.122   0.953
10816SOL     OW32493   6.694   5.949   1.688
10816SOL    HW132494   6.647   6.010   1.752
10816SOL    HW232495   6.790   5.976   1.680
10817SOL     OW32496   6.744   5.782   1.474
10817SOL    HW132497   6.723   5.841   1.552
10817SOL    HW232498   6.787   5.836   1.402
10818SOL     OW32499   6.564   6.378   1.225
10818SOL    HW132500   6.624   6.353   1.301
10818SOL    HW232501   6.475   6.332   1.237
10819SOL     OW32502   5.623   6.137   1.117
10819SOL    HW132503   5.705   6.123   1.062
10819SOL    HW232504   5.648   6.140   1.214
10820SOL     OW32505   5.778   6.108   1.730
10820SOL    HW132506   5.829   6.054   1.663
10820SOL    HW232507   5.738   6.188   1.684
10821SOL     OW32508   6.403   6.159   0.374
10821SOL    HW132509   6.410   6.077   0.316
10821SOL    HW232510   6.324   6.213   0.345
10822SOL     OW32511   6.295   6.035   1.255
10822SOL    HW132512   6.237   5.957   1.232
10822SOL    HW232513   6.291   6.102   1.181
10823SOL     OW32514   6.042   6.085   0.187
10823SOL    HW132515   6.106   6.157   0.214
10823SOL    HW232516   5.949   6.122   0.185
10824SOL     OW32517   5.753   6.728   1.476
10824SOL    HW132518   5.742   6.679   1.563
10824SOL    HW232519   5.764   6.662   1.402
10825SOL     OW32520   6.915   6.625   1.225
10825SOL    HW132521   6.935   6.550   1.161
10825SOL    HW232522   6.844   6.683   1.185
10826SOL     OW32523   6.892   6.455   0.312
10826SOL    HW132524   6.814   6.415   0.360
10826SOL    HW232525   6.884   6.436   0.214
10827SOL     OW32526   5.669   6.858   1.014
10827SOL    HW132527   5.654   6.868   1.113
10827SOL    HW232528   5.598   6.799   0.975
10828SOL     OW32529   6.530   5.686   0.118
10828SOL    HW132530   6.604   5.713   0.056
10828SOL    HW232531   6.565   5.620   0.184
10829SOL     OW32532   6.869   6.505   0.663
10829SOL    HW132533   6.955   6.455   0.677
10829SOL    HW232534   6.887   6.587   0.609
10830SOL     OW32535   6.397   6.844   1.418
10830SOL    HW132536   6.373   6.885   1.505
10830SOL    HW232537   6.322   6.857   1.353
10831SOL     OW32538   5.842   5.903   0.716
10831SOL    HW132539   5.753   5.939   0.688
10831SOL    HW232540   5.845   5.894   0.816
10832SOL     OW32541   6.414   6.581   1.371
10832SOL    HW132542   6.470   6.561   1.291
10832SOL    HW232543   6.415   6.680   1.389
10833SOL     OW32544   6.502   6.492   0.290
10833SOL    HW132545   6.555   6.518   0.210
10833SOL    HW232546   6.554   6.426   0.345
10834SOL     OW32547   5.978   6.892   1.502
10834SOL    HW132548   5.944   6.982   1.474
10834SOL    HW232549   5.902   6.827   1.504
10835SOL     OW32550   6.637   6.699   0.719
10835SOL    HW132551   6.562   6.645   0.758
10835SOL    HW232552   6.707   6.638   0.682
10836SOL     OW32553   6.606   5.824   0.965
10836SOL    HW132554   6.599   5.780   0.876
10836SOL    HW232555   6.605   5.755   1.037
10837SOL     OW32556   5.695   6.608   1.716
10837SOL    HW132557   5.615   6.587   1.773
10837SOL    HW232558   5.778   6.574   1.760
10838SOL     OW32559   6.267   5.782   1.500
10838SOL    HW132560   6.353   5.758   1.455
10838SOL    HW232561   6.286   5.815   1.593
10839SOL     OW32562   5.685   5.916   0.018
10839SOL    HW132563   5.628   5.856   6.963
10839SOL    HW232564   5.724   5.987   6.960
10840SOL     OW32565   5.636   5.761   0.330
10840SOL    HW132566   5.623   5.852   0.291
10840SOL    HW232567   5.709   5.714   0.280
10841SOL     OW32568   6.209   6.412   1.434
10841SOL    HW132569   6.268   6.491   1.415
10841SOL    HW232570   6.266   6.331   1.445
10842SOL     OW32571   6.310   6.145   1.702
10842SOL    HW132572   6.352   6.212   1.764
10842SOL    HW232573   6.327   6.053   1.736
10843SOL     OW32574   0.028   6.858   1.650
10843SOL    HW132575   6.998   6.797   1.723
10843SOL    HW232576   0.105   6.816   1.601
10844SOL     OW32577   6.803   5.896   0.442
10844SOL    HW132578   6.876   5.839   0.403
10844SOL    HW232579   6.839   5.948   0.519
10845SOL     OW32580   6.173   6.322   0.667
10845SOL    HW132581   6.214   6.413   0.659
10845SOL    HW232582   6.102   6.311   0.597
10846SOL     OW32583   6.453   6.550   0.858
10846SOL    HW132584   6.507   6.473   0.892
10846SOL    HW232585   6.422   6.605   0.936
10847SOL     OW32586   6.658   6.557   0.077
10847SOL    HW132587   6.683   6.652   0.057
10847SOL    HW232588   6.740   6.499   0.069
10848SOL     OW32589   5.798   6.906   1.813
10848SOL    HW132590   5.740   6.826   1.823
10848SOL    HW232591   5.810   6.950   1.902
10849SOL     OW32592   5.677   6.822   0.674
10849SOL    HW132593   5.694   6.760   0.750
10849SOL    HW232594   5.736   6.797   0.597
10850SOL     OW32595   6.289   6.969   1.631
10850SOL    HW132596   6.192   6.959   1.650
10850SOL    HW232597   6.310   0.065   1.614
10851SOL     OW32598   6.017   6.015   0.527
10851SOL    HW132599   6.048   5.944   0.465
10851SOL    HW232600   5.962   5.974   0.601
10852SOL     OW32601   5.920   6.142   1.289
10852SOL    HW132602   5.977   6.084   1.349
10852SOL    HW232603   5.936   6.115   1.194
10853SOL     OW32604   6.993   5.806   1.117
10853SOL    HW132605   0.017   5.717   1.157
10853SOL    HW232606   6.940   5.859   1.183
10854SOL     OW32607   6.598   5.601   1.138
10854SOL    HW132608   6.538   5.534   1.094
10854SOL    HW232609   6.691   5.564   1.143
10855SOL     OW32610   6.388   6.880   0.289
10855SOL    HW132611   6.347   6.792   0.313
10855SOL    HW232612   6.398   6.935   0.372
10856SOL     OW32613   5.663   6.644   0.319
10856SOL    HW132614   5.762   6.627   0.319
10856SOL    HW232615   5.615   6.561   0.344
10857SOL     OW32616   5.809   6.206   1.988
10857SOL    HW132617   5.718   6.205   2.029
10857SOL    HW232618   5.801   6.182   1.891
10858SOL     OW32619   5.809   5.868   2.857
10858SOL    HW132620   5.841   5.834   2.945
10858SOL    HW232621   5.715   5.836   2.840
10859SOL     OW32622   5.587   5.972   2.496
10859SOL    HW132623   5.503   6.002   2.541
10859SOL    HW232624   5.569   5.888   2.445
10860SOL     OW32625   6.154   6.871   3.035
10860SOL    HW132626   6.078   6.872   2.970
10860SOL    HW232627   6.129   6.921   3.117
10861SOL     OW32628   0.071   0.133   2.546
10861SOL    HW132629   0.010   0.089   2.611
10861SOL    HW232630   0.117   0.064   2.490
10862SOL     OW32631   6.693   6.305   2.550
10862SOL    HW132632   6.758   6.380   2.538
10862SOL    HW232633   6.657   6.306   2.644
10863SOL     OW32634   6.352   6.747   2.889
10863SOL    HW132635   6.282   6.784   2.951
10863SOL    HW232636   6.352   6.800   2.804
10864SOL     OW32637   6.460   6.353   3.684
10864SOL    HW132638   6.452   6.419   3.759
10864SOL    HW232639   6.485   6.401   3.600
10865SOL     OW32640   6.271   6.584   2.510
10865SOL    HW132641   6.342   6.573   2.580
10865SOL    HW232642   6.196   6.639   2.547
10866SOL     OW32643   6.277   6.734   3.677
10866SOL    HW132644   6.318   6.823   3.697
10866SOL    HW232645   6.196   6.746   3.620
10867SOL     OW32646   5.922   0.008   2.921
10867SOL    HW132647   5.843   6.961   2.880
10867SOL    HW232648   5.970   0.060   2.851
10868SOL     OW32649   6.037   5.980   3.342
10868SOL    HW132650   6.117   5.921   3.349
10868SOL    HW232651   5.954   5.926   3.360
10869SOL     OW32652   5.845   6.676   2.764
10869SOL    HW132653   5.843   6.581   2.797
10869SOL    HW232654   5.784   6.731   2.821
10870SOL     OW32655   6.166   6.565   2.004
10870SOL    HW132656   6.211   6.615   1.931
10870SOL    HW232657   6.206   6.592   2.092
10871SOL     OW32658   5.701   6.244   2.427
10871SOL    HW132659   5.671   6.150   2.444
10871SOL    HW232660   5.694   6.298   2.511
10872SOL     OW32661   5.711   6.331   3.447
10872SOL    HW132662   5.809   6.353   3.448
10872SOL    HW232663   5.658   6.415   3.456
10873SOL     OW32664   6.859   6.792   3.308
10873SOL    HW132665   6.902   6.723   3.250
10873SOL    HW232666   6.922   6.819   3.381
10874SOL     OW32667   6.401   5.596   2.372
10874SOL    HW132668   6.447   5.682   2.349
10874SOL    HW232669   6.303   5.611   2.380
10875SOL     OW32670   5.777   6.551   3.136
10875SOL    HW132671   5.865   6.504   3.122
10875SOL    HW232672   5.705   6.502   3.087
10876SOL     OW32673   5.926   5.836   3.692
10876SOL    HW132674   5.975   5.922   3.707
10876SOL    HW232675   5.829   5.848   3.712
10877SOL     OW32676   6.181   6.303   2.135
10877SOL    HW132677   6.187   6.388   2.083
10877SOL    HW232678   6.112   6.313   2.207
10878SOL     OW32679   6.872   5.907   2.755
10878SOL    HW132680   6.774   5.897   2.770
10878SOL    HW232681   6.922   5.872   2.834
10879SOL     OW32682   6.384   6.197   3.313
10879SOL    HW132683   6.356   6.175   3.407
10879SOL    HW232684   6.343   6.132   3.250
10880SOL     OW32685   6.942   6.045   3.537
10880SOL    HW132686   6.919   6.131   3.583
10880SOL    HW232687   0.042   6.037   3.529
10881SOL     OW32688   6.546   6.473   3.445
10881SOL    HW132689   6.603   6.399   3.410
10881SOL    HW232690   6.491   6.511   3.371
10882SOL     OW32691   6.583   5.998   3.094
10882SOL    HW132692   6.491   6.016   3.131
10882SOL    HW232693   6.575   5.949   3.008
10883SOL     OW32694   6.634   6.286   2.286
10883SOL    HW132695   6.653   6.288   2.384
10883SOL    HW232696   6.549   6.237   2.269
10884SOL     OW32697   5.673   6.413   2.641
10884SOL    HW132698   5.758   6.401   2.691
10884SOL    HW232699   5.622   6.490   2.679
10885SOL     OW32700   6.481   5.938   2.057
10885SOL    HW132701   6.522   6.005   1.996
10885SOL    HW232702   6.486   5.847   2.016
10886SOL     OW32703   6.934   6.718   2.377
10886SOL    HW132704   6.999   6.697   2.305
10886SOL    HW232705   6.879   6.798   2.351
10887SOL     OW32706   6.134   5.761   2.762
10887SOL    HW132707   6.137   5.791   2.858
10887SOL    HW232708   6.136   5.841   2.702
10888SOL     OW32709   5.909   6.545   2.119
10888SOL    HW132710   5.997   6.562   2.075
10888SOL    HW232711   5.870   6.460   2.084
10889SOL     OW32712   5.788   5.863   3.365
10889SOL    HW132713   5.705   5.919   3.360
10889SOL    HW232714   5.767   5.776   3.411
10890SOL     OW32715   5.981   6.274   2.336
10890SOL    HW132716   6.001   6.177   2.350
10890SOL    HW232717   5.884   6.291   2.355
10891SOL     OW32718   6.226   5.704   1.963
10891SOL    HW132719   6.293   5.633   1.986
10891SOL    HW232720   6.170   5.672   1.887
10892SOL     OW32721   6.349   5.863   3.620
10892SOL    HW132722   6.431   5.806   3.614
10892SOL    HW232723   6.295   5.834   3.699
10893SOL     OW32724   6.512   6.092   2.762
10893SOL    HW132725   6.487   6.086   2.665
10893SOL    HW232726   6.544   6.003   2.794
10894SOL     OW32727   6.132   5.650   2.357
10894SOL    HW132728   6.051   5.648   2.414
10894SOL    HW232729   6.129   5.731   2.297
10895SOL     OW32730   6.982   6.708   1.879
10895SOL    HW132731   0.022   6.662   1.958
10895SOL    HW232732   6.934   6.791   1.909
10896SOL     OW32733   5.876   5.634   2.048
10896SOL    HW132734   5.929   5.706   2.002
10896SOL    HW232735   5.939   5.569   2.091
10897SOL     OW32736   6.529   5.835   2.316
10897SOL    HW132737   6.494   5.877   2.233
10897SOL    HW232738   6.628   5.847   2.321
10898SOL     OW32739   6.657   6.254   3.322
10898SOL    HW132740   6.563   6.220   3.323
10898SOL    HW232741   6.721   6.178   3.324
10899SOL     OW32742   6.818   0.100   2.651
10899SOL    HW132743   6.785   0.172   2.589
10899SOL    HW232744   6.838   0.139   2.740
10900SOL     OW32745   6.052   6.716   2.598
10900SOL    HW132746   5.980   6.706   2.667
10900SOL    HW232747   6.010   6.712   2.507
10901SOL     OW32748   6.609   6.124   1.888
10901SOL    HW132749   6.564   6.211   1.869
10901SOL    HW232750   6.674   6.136   1.964
10902SOL     OW32751   5.672   6.144   3.253
10902SOL    HW132752   5.766   6.139   3.221
10902SOL    HW232753   5.664   6.215   3.322
10903SOL     OW32754   6.145   5.811   3.034
10903SOL    HW132755   6.194   5.733   3.075
10903SOL    HW232756   6.049   5.809   3.064
10904SOL     OW32757   6.450   6.040   2.501
10904SOL    HW132758   6.406   6.107   2.441
10904SOL    HW232759   6.475   5.960   2.447
10905SOL     OW32760   6.606   5.634   2.604
10905SOL    HW132761   6.541   5.637   2.528
10905SOL    HW232762   6.581   5.561   2.667
10906SOL     OW32763   6.115   5.850   2.172
10906SOL    HW132764   6.162   5.797   2.101
10906SOL    HW232765   6.086   5.938   2.135
10907SOL     OW32766   6.649   6.894   3.186
10907SOL    HW132767   6.566   6.879   3.239
10907SOL    HW232768   6.728   6.865   3.240
10908SOL     OW32769   6.729   6.772   2.959
10908SOL    HW132770   6.691   6.814   3.041
10908SOL    HW232771   6.666   6.785   2.883
10909SOL     OW32772   6.505   5.682   3.250
10909SOL    HW132773   6.526   5.658   3.156
10909SOL    HW232774   6.585   5.723   3.293
10910SOL     OW32775   6.553   6.699   3.599
10910SOL    HW132776   6.455   6.710   3.616
10910SOL    HW232777   6.567   6.625   3.533
10911SOL     OW32778   6.292   6.639   2.232
10911SOL    HW132779   6.278   6.630   2.330
10911SOL    HW232780   6.374   6.587   2.205
10912SOL     OW32781   6.007   6.401   3.117
10912SOL    HW132782   6.080   6.413   3.184
10912SOL    HW232783   5.968   6.309   3.127
10913SOL     OW32784   6.850   5.959   3.155
10913SOL    HW132785   6.907   6.039   3.173
10913SOL    HW232786   6.759   5.989   3.127
10914SOL     OW32787   5.928   6.702   2.353
10914SOL    HW132788   5.968   6.782   2.308
10914SOL    HW232789   5.922   6.626   2.289
10915SOL     OW32790   6.135   6.130   2.725
10915SOL    HW132791   6.149   6.189   2.645
10915SOL    HW232792   6.205   6.150   2.793
10916SOL     OW32793   6.819   6.952   2.278
10916SOL    HW132794   6.864   0.032   2.315
10916SOL    HW232795   6.722   6.952   2.305
10917SOL     OW32796   6.001   6.330   3.463
10917SOL    HW132797   6.067   6.375   3.403
10917SOL    HW232798   6.034   6.238   3.485
10918SOL     OW32799   6.578   5.710   3.615
10918SOL    HW132800   6.630   5.793   3.596
10918SOL    HW232801   6.633   5.630   3.592
10919SOL     OW32802   6.079   5.624   3.611
10919SOL    HW132803   6.034   5.565   3.544
10919SOL    HW232804   6.020   5.703   3.629
10920SOL     OW32805   6.169   6.452   2.898
10920SOL    HW132806   6.195   6.548   2.886
10920SOL    HW232807   6.107   6.444   2.976
10921SOL     OW32808   6.954   6.433   2.894
10921SOL    HW132809   6.862   6.425   2.857
10921SOL    HW232810   6.988   6.342   2.919
10922SOL     OW32811   6.768   6.119   2.114
10922SOL    HW132812   6.784   6.034   2.164
10922SOL    HW232813   6.730   6.188   2.176
10923SOL     OW32814   5.883   5.783   3.109
10923SOL    HW132815   5.847   5.819   3.194
10923SOL    HW232816   5.868   5.684   3.105
10924SOL     OW32817   5.645   6.898   3.145
10924SOL    HW132818   5.679   6.841   3.220
10924SOL    HW232819   5.648   6.994   3.172
10925SOL     OW32820   6.313   6.217   2.919
10925SOL    HW132821   6.388   6.196   2.856
10925SOL    HW232822   6.276   6.307   2.899
10926SOL     OW32823   5.892   5.648   2.490
10926SOL    HW132824   5.868   5.743   2.508
10926SOL    HW232825   5.903   5.598   2.576
10927SOL     OW32826   0.211   6.032   2.203
10927SOL    HW132827   0.172   5.940   2.207
10927SOL    HW232828   0.190   6.081   2.287
10928SOL     OW32829   6.609   6.340   2.821
10928SOL    HW132830   6.605   6.361   2.919
10928SOL    HW232831   6.584   6.244   2.807
10929SOL     OW32832   5.941   6.507   3.664
10929SOL    HW132833   6.017   6.518   3.728
10929SOL    HW232834   5.965   6.439   3.594
10930SOL     OW32835   6.885   6.403   1.892
10930SOL    HW132836   6.950   6.335   1.927
10930SOL    HW232837   6.926   6.450   1.814
10931SOL     OW32838   5.896   6.392   2.804
10931SOL    HW132839   5.992   6.417   2.795
10931SOL    HW232840   5.888   6.298   2.838
10932SOL     OW32841   5.914   6.113   2.874
10932SOL    HW132842   5.875   6.021   2.863
10932SOL    HW232843   5.995   6.123   2.816
10933SOL     OW32844   6.694   5.949   3.551
10933SOL    HW132845   6.647   6.010   3.614
10933SOL    HW232846   6.790   5.976   3.543
10934SOL     OW32847   6.744   5.782   3.336
10934SOL    HW132848   6.723   5.841   3.414
10934SOL    HW232849   6.787   5.836   3.264
10935SOL     OW32850   5.608   6.895   2.044
10935SOL    HW132851   5.520   6.923   2.006
10935SOL    HW232852   5.598   6.807   2.090
10936SOL     OW32853   6.564   6.378   3.087
10936SOL    HW132854   6.624   6.353   3.163
10936SOL    HW232855   6.475   6.332   3.098
10937SOL     OW32856   5.623   6.137   2.979
10937SOL    HW132857   5.705   6.124   2.924
10937SOL    HW232858   5.648   6.140   3.076
10938SOL     OW32859   5.778   6.108   3.592
10938SOL    HW132860   5.829   6.054   3.525
10938SOL    HW232861   5.738   6.188   3.546
10939SOL     OW32862   6.403   6.157   2.222
10939SOL    HW132863   6.411   6.078   2.161
10939SOL    HW232864   6.326   6.213   2.193
10940SOL     OW32865   6.295   6.035   3.117
10940SOL    HW132866   6.237   5.957   3.094
10940SOL    HW232867   6.291   6.102   3.043
10941SOL     OW32868   6.045   6.081   2.047
10941SOL    HW132869   6.110   6.153   2.073
10941SOL    HW232870   5.955   6.120   2.033
10942SOL     OW32871   5.753   6.728   3.338
10942SOL    HW132872   5.742   6.679   3.425
10942SOL    HW232873   5.764   6.662   3.264
10943SOL     OW32874   6.915   6.625   3.087
10943SOL    HW132875   6.935   6.550   3.024
10943SOL    HW232876   6.844   6.684   3.047
10944SOL     OW32877   6.889   6.455   2.170
10944SOL    HW132878   6.819   6.419   2.232
10944SOL    HW232879   6.861   6.437   2.075
10945SOL     OW32880   5.669   6.858   2.876
10945SOL    HW132881   5.654   6.867   2.975
10945SOL    HW232882   5.598   6.799   2.837
10946SOL     OW32883   6.869   6.505   2.522
10946SOL    HW132884   6.955   6.457   2.541
10946SOL    HW232885   6.888   6.586   2.467
10947SOL     OW32886   6.397   6.844   3.280
10947SOL    HW132887   6.373   6.886   3.367
10947SOL    HW232888   6.322   6.857   3.215
10948SOL     OW32889   5.842   5.900   2.578
10948SOL    HW132890   5.754   5.937   2.550
10948SOL    HW232891   5.845   5.892   2.677
10949SOL     OW32892   6.830   0.208   1.900
10949SOL    HW132893   6.841   0.123   1.952
10949SOL    HW232894   6.742   0.206   1.852
10950SOL     OW32895   6.414   6.581   3.234
10950SOL    HW132896   6.469   6.560   3.153
10950SOL    HW232897   6.415   6.680   3.251
10951SOL     OW32898   6.502   6.493   2.148
10951SOL    HW132899   6.565   6.530   2.080
10951SOL    HW232900   6.549   6.424   2.203
10952SOL     OW32901   5.978   6.892   3.365
10952SOL    HW132902   5.944   6.982   3.336
10952SOL    HW232903   5.902   6.827   3.366
10953SOL     OW32904   6.639   6.698   2.582
10953SOL    HW132905   6.563   6.645   2.620
10953SOL    HW232906   6.708   6.636   2.545
10954SOL     OW32907   6.606   5.825   2.828
10954SOL    HW132908   6.601   5.780   2.739
10954SOL    HW232909   6.605   5.756   2.900
10955SOL     OW32910   5.695   6.609   3.578
10955SOL    HW132911   5.615   6.587   3.635
10955SOL    HW232912   5.778   6.574   3.622
10956SOL     OW32913   6.267   5.782   3.362
10956SOL    HW132914   6.353   5.758   3.317
10956SOL    HW232915   6.286   5.815   3.455
10957SOL     OW32916   5.667   5.915   1.892
10957SOL    HW132917   5.575   5.891   1.861
10957SOL    HW232918   5.699   5.996   1.843
10958SOL     OW32919   5.650   5.741   2.166
10958SOL    HW132920   5.633   5.826   2.115
10958SOL    HW232921   5.738   5.703   2.138
10959SOL     OW32922   6.209   6.412   3.296
10959SOL    HW132923   6.268   6.491   3.277
10959SOL    HW232924   6.266   6.331   3.307
10960SOL     OW32925   6.310   6.145   3.564
10960SOL    HW132926   6.352   6.212   3.626
10960SOL    HW232927   6.327   6.053   3.598
10961SOL     OW32928   0.029   6.858   3.512
10961SOL    HW132929   6.998   6.797   3.585
10961SOL    HW232930   0.105   6.816   3.463
10962SOL     OW32931   6.806   5.897   2.301
10962SOL    HW132932   6.880   5.843   2.262
10962SOL    HW232933   6.841   5.953   2.376
10963SOL     OW32934   6.172   6.323   2.531
10963SOL    HW132935   6.214   6.413   2.521
10963SOL    HW232936   6.103   6.310   2.460
10964SOL     OW32937   6.453   6.551   2.720
10964SOL    HW132938   6.507   6.473   2.753
10964SOL    HW232939   6.422   6.605   2.798
10965SOL     OW32940   6.665   6.569   1.949
10965SOL    HW132941   6.635   6.630   1.876
10965SOL    HW232942   6.743   6.515   1.918
10966SOL     OW32943   5.797   6.906   3.675
10966SOL    HW132944   5.740   6.825   3.685
10966SOL    HW232945   5.809   6.950   3.764
10967SOL     OW32946   5.677   6.820   2.536
10967SOL    HW132947   5.696   6.758   2.612
10967SOL    HW232948   5.740   6.802   2.461
10968SOL     OW32949   6.289   6.969   3.492
10968SOL    HW132950   6.191   6.958   3.511
10968SOL    HW232951   6.310   0.065   3.476
10969SOL     OW32952   6.016   6.014   2.388
10969SOL    HW132953   6.050   5.943   2.326
10969SOL    HW232954   5.962   5.971   2.461
10970SOL     OW32955   5.920   6.142   3.151
10970SOL    HW132956   5.977   6.085   3.211
10970SOL    HW232957   5.936   6.116   3.056
10971SOL     OW32958   6.992   5.806   2.979
10971SOL    HW132959   0.018   5.718   3.019
10971SOL    HW232960   6.940   5.859   3.045
10972SOL     OW32961   6.598   5.601   3.000
10972SOL    HW132962   6.538   5.534   2.956
10972SOL    HW232963   6.691   5.565   3.005
10973SOL     OW32964   6.341   6.907   2.128
10973SOL    HW132965   6.320   6.812   2.148
10973SOL    HW232966   6.380   6.950   2.209
10974SOL     OW32967   6.909   5.666   2.003
10974SOL    HW132968   6.949   5.614   1.927
10974SOL    HW232969   6.831   5.616   2.040
10975SOL     OW32970   5.622   6.647   2.172
10975SOL    HW132971   5.720   6.653   2.151
10975SOL    HW232972   5.599   6.552   2.195
10976SOL     OW32973   5.809   6.206   3.850
10976SOL    HW132974   5.717   6.205   3.891
10976SOL    HW232975   5.802   6.182   3.753
10977SOL     OW32976   5.809   5.868   4.718
10977SOL    HW132977   5.841   5.834   4.807
10977SOL    HW232978   5.715   5.836   4.702
10978SOL     OW32979   5.587   5.972   4.358
10978SOL    HW132980   5.503   6.002   4.403
10978SOL    HW232981   5.569   5.888   4.306
10979SOL     OW32982   6.154   6.871   4.897
10979SOL    HW132983   6.078   6.872   4.832
10979SOL    HW232984   6.129   6.921   4.980
10980SOL     OW32985   0.071   0.134   4.408
10980SOL    HW132986   0.010   0.089   4.473
10980SOL    HW232987   0.117   0.064   4.352
10981SOL     OW32988   6.693   6.305   4.412
10981SOL    HW132989   6.758   6.380   4.400
10981SOL    HW232990   6.657   6.307   4.506
10982SOL     OW32991   6.352   6.747   4.751
10982SOL    HW132992   6.283   6.784   4.813
10982SOL    HW232993   6.352   6.800   4.666
10983SOL     OW32994   6.460   6.353   5.546
10983SOL    HW132995   6.452   6.419   5.621
10983SOL    HW232996   6.485   6.401   5.462
10984SOL     OW32997   6.271   6.584   4.372
10984SOL    HW132998   6.342   6.573   4.442
10984SOL    HW232999   6.196   6.639   4.409
10985SOL     OW33000   6.277   6.734   5.539
10985SOL    HW133001   6.318   6.824   5.558
10985SOL    HW233002   6.196   6.746   5.482
10986SOL     OW33003   5.922   0.007   4.783
10986SOL    HW133004   5.843   6.961   4.742
10986SOL    HW233005   5.970   0.060   4.712
10987SOL     OW33006   6.037   5.980   5.204
10987SOL    HW133007   6.117   5.921   5.211
10987SOL    HW233008   5.954   5.926   5.222
10988SOL     OW33009   5.845   6.676   4.627
10988SOL    HW133010   5.843   6.581   4.659
10988SOL    HW233011   5.784   6.731   4.683
10989SOL     OW33012   6.166   6.565   3.866
10989SOL    HW133013   6.211   6.615   3.793
10989SOL    HW233014   6.206   6.592   3.954
10990SOL     OW33015   5.701   6.244   4.289
10990SOL    HW133016   5.671   6.150   4.306
10990SOL    HW233017   5.694   6.298   4.373
10991SOL     OW33018   5.711   6.331   5.309
10991SOL    HW133019   5.809   6.353   5.310
10991SOL    HW233020   5.658   6.415   5.318
10992SOL     OW33021   6.859   6.792   5.170
10992SOL    HW133022   6.902   6.723   5.112
10992SOL    HW233023   6.922   6.819   5.243
10993SOL     OW33024   6.401   5.595   4.234
10993SOL    HW133025   6.447   5.681   4.211
10993SOL    HW233026   6.303   5.611   4.242
10994SOL     OW33027   5.777   6.551   4.998
10994SOL    HW133028   5.865   6.504   4.984
10994SOL    HW233029   5.705   6.502   4.949
10995SOL     OW33030   5.926   5.836   5.553
10995SOL    HW133031   5.975   5.922   5.569
10995SOL    HW233032   5.829   5.848   5.574
10996SOL     OW33033   6.181   6.303   3.997
10996SOL    HW133034   6.187   6.388   3.945
10996SOL    HW233035   6.112   6.313   4.069
10997SOL     OW33036   6.872   5.907   4.617
10997SOL    HW133037   6.774   5.897   4.632
10997SOL    HW233038   6.922   5.872   4.696
10998SOL     OW33039   6.384   6.197   5.175
10998SOL    HW133040   6.356   6.175   5.269
10998SOL    HW233041   6.343   6.132   5.112
10999SOL     OW33042   6.942   6.045   5.399
10999SOL    HW133043   6.919   6.131   5.445
10999SOL    HW233044   0.042   6.037   5.390
11000SOL     OW33045   6.546   6.473   5.307
11000SOL    HW133046   6.603   6.399   5.272
11000SOL    HW233047   6.491   6.511   5.233
11001SOL     OW33048   6.583   5.998   4.956
11001SOL    HW133049   6.491   6.016   4.993
11001SOL    HW233050   6.575   5.949   4.870
11002SOL     OW33051   6.634   6.286   4.148
11002SOL    HW133052   6.653   6.288   4.246
11002SOL    HW233053   6.549   6.237   4.131
11003SOL     OW33054   5.673   6.413   4.503
11003SOL    HW133055   5.758   6.401   4.553
11003SOL    HW233056   5.622   6.490   4.541
11004SOL     OW33057   6.481   5.937   3.919
11004SOL    HW133058   6.522   6.005   3.858
11004SOL    HW233059   6.486   5.847   3.878
11005SOL     OW33060   6.934   6.718   4.239
11005SOL    HW133061   6.999   6.697   4.167
11005SOL    HW233062   6.879   6.798   4.213
11006SOL     OW33063   6.134   5.761   4.624
11006SOL    HW133064   6.137   5.791   4.720
11006SOL    HW233065   6.136   5.841   4.564
11007SOL     OW33066   5.909   6.545   3.981
11007SOL    HW133067   5.997   6.562   3.937
11007SOL    HW233068   5.870   6.460   3.946
11008SOL     OW33069   5.788   5.863   5.227
11008SOL    HW133070   5.705   5.919   5.222
11008SOL    HW233071   5.767   5.777   5.273
11009SOL     OW33072   5.981   6.274   4.199
11009SOL    HW133073   6.001   6.177   4.212
11009SOL    HW233074   5.884   6.291   4.217
11010SOL     OW33075   6.226   5.703   3.825
11010SOL    HW133076   6.294   5.633   3.848
11010SOL    HW233077   6.170   5.672   3.749
11011SOL     OW33078   6.349   5.863   5.482
11011SOL    HW133079   6.431   5.806   5.476
11011SOL    HW233080   6.295   5.834   5.561
11012SOL     OW33081   6.512   6.092   4.624
11012SOL    HW133082   6.487   6.086   4.527
11012SOL    HW233083   6.544   6.003   4.656
11013SOL     OW33084   6.132   5.650   4.219
11013SOL    HW133085   6.050   5.648   4.276
11013SOL    HW233086   6.129   5.731   4.159
11014SOL     OW33087   6.982   6.708   3.741
11014SOL    HW133088   0.022   6.662   3.820
11014SOL    HW233089   6.935   6.791   3.771
11015SOL     OW33090   5.876   5.635   3.910
11015SOL    HW133091   5.929   5.706   3.863
11015SOL    HW233092   5.939   5.569   3.953
11016SOL     OW33093   6.529   5.835   4.178
11016SOL    HW133094   6.494   5.877   4.095
11016SOL    HW233095   6.628   5.847   4.183
11017SOL     OW33096   6.657   6.254   5.184
11017SOL    HW133097   6.563   6.220   5.185
11017SOL    HW233098   6.720   6.177   5.186
11018SOL     OW33099   6.818   0.100   4.513
11018SOL    HW133100   6.785   0.172   4.451
11018SOL    HW233101   6.838   0.139   4.602
11019SOL     OW33102   6.052   6.716   4.460
11019SOL    HW133103   5.980   6.706   4.529
11019SOL    HW233104   6.010   6.712   4.369
11020SOL     OW33105   6.609   6.124   3.750
11020SOL    HW133106   6.564   6.211   3.731
11020SOL    HW233107   6.674   6.136   3.826
11021SOL     OW33108   5.672   6.144   5.115
11021SOL    HW133109   5.766   6.139   5.083
11021SOL    HW233110   5.664   6.215   5.184
11022SOL     OW33111   6.145   5.811   4.896
11022SOL    HW133112   6.194   5.733   4.937
11022SOL    HW233113   6.049   5.809   4.926
11023SOL     OW33114   6.450   6.040   4.363
11023SOL    HW133115   6.406   6.107   4.303
11023SOL    HW233116   6.475   5.960   4.309
11024SOL     OW33117   6.606   5.634   4.466
11024SOL    HW133118   6.541   5.637   4.390
11024SOL    HW233119   6.581   5.561   4.529
11025SOL     OW33120   6.115   5.850   4.034
11025SOL    HW133121   6.162   5.797   3.963
11025SOL    HW233122   6.086   5.938   3.997
11026SOL     OW33123   6.649   6.894   5.048
11026SOL    HW133124   6.566   6.879   5.101
11026SOL    HW233125   6.728   6.865   5.102
11027SOL     OW33126   6.729   6.772   4.821
11027SOL    HW133127   6.691   6.814   4.903
11027SOL    HW233128   6.666   6.785   4.745
11028SOL     OW33129   6.505   5.682   5.112
11028SOL    HW133130   6.526   5.658   5.018
11028SOL    HW233131   6.585   5.723   5.155
11029SOL     OW33132   6.553   6.698   5.461
11029SOL    HW133133   6.455   6.710   5.478
11029SOL    HW233134   6.567   6.625   5.395
11030SOL     OW33135   6.292   6.639   4.094
11030SOL    HW133136   6.278   6.630   4.192
11030SOL    HW233137   6.374   6.587   4.067
11031SOL     OW33138   6.007   6.401   4.979
11031SOL    HW133139   6.080   6.413   5.046
11031SOL    HW233140   5.968   6.309   4.989
11032SOL     OW33141   6.850   5.959   5.017
11032SOL    HW133142   6.907   6.039   5.035
11032SOL    HW233143   6.759   5.989   4.989
11033SOL     OW33144   5.928   6.702   4.215
11033SOL    HW133145   5.968   6.782   4.170
11033SOL    HW233146   5.922   6.626   4.151
11034SOL     OW33147   6.135   6.130   4.587
11034SOL    HW133148   6.149   6.189   4.507
11034SOL    HW233149   6.205   6.150   4.655
11035SOL     OW33150   6.818   6.951   4.140
11035SOL    HW133151   6.864   0.032   4.177
11035SOL    HW233152   6.722   6.952   4.166
11036SOL     OW33153   6.001   6.330   5.325
11036SOL    HW133154   6.067   6.375   5.265
11036SOL    HW233155   6.034   6.238   5.347
11037SOL     OW33156   6.578   5.710   5.477
11037SOL    HW133157   6.630   5.793   5.458
11037SOL    HW233158   6.633   5.630   5.453
11038SOL     OW33159   6.079   5.624   5.473
11038SOL    HW133160   6.034   5.565   5.406
11038SOL    HW233161   6.020   5.703   5.491
11039SOL     OW33162   6.169   6.452   4.760
11039SOL    HW133163   6.195   6.548   4.747
11039SOL    HW233164   6.107   6.444   4.838
11040SOL     OW33165   6.954   6.433   4.757
11040SOL    HW133166   6.862   6.425   4.719
11040SOL    HW233167   6.988   6.342   4.781
11041SOL     OW33168   6.768   6.119   3.976
11041SOL    HW133169   6.784   6.034   4.026
11041SOL    HW233170   6.730   6.188   4.038
11042SOL     OW33171   5.883   5.783   4.971
11042SOL    HW133172   5.847   5.819   5.056
11042SOL    HW233173   5.868   5.684   4.967
11043SOL     OW33174   5.646   6.898   5.007
11043SOL    HW133175   5.679   6.841   5.082
11043SOL    HW233176   5.648   6.994   5.034
11044SOL     OW33177   6.313   6.217   4.781
11044SOL    HW133178   6.388   6.196   4.718
11044SOL    HW233179   6.276   6.307   4.761
11045SOL     OW33180   5.892   5.647   4.352
11045SOL    HW133181   5.868   5.743   4.370
11045SOL    HW233182   5.903   5.598   4.438
11046SOL     OW33183   0.211   6.032   4.065
11046SOL    HW133184   0.172   5.940   4.069
11046SOL    HW233185   0.190   6.081   4.149
11047SOL     OW33186   6.609   6.340   4.683
11047SOL    HW133187   6.605   6.361   4.781
11047SOL    HW233188   6.584   6.244   4.669
11048SOL     OW33189   5.941   6.507   5.526
11048SOL    HW133190   6.017   6.518   5.590
11048SOL    HW233191   5.965   6.439   5.456
11049SOL     OW33192   6.885   6.403   3.754
11049SOL    HW133193   6.950   6.335   3.789
11049SOL    HW233194   6.926   6.449   3.676
11050SOL     OW33195   5.896   6.392   4.666
11050SOL    HW133196   5.992   6.417   4.656
11050SOL    HW233197   5.888   6.298   4.700
11051SOL     OW33198   5.914   6.113   4.736
11051SOL    HW133199   5.875   6.021   4.725
11051SOL    HW233200   5.995   6.123   4.678
11052SOL     OW33201   6.694   5.949   5.413
11052SOL    HW133202   6.647   6.010   5.476
11052SOL    HW233203   6.790   5.976   5.405
11053SOL     OW33204   6.744   5.782   5.198
11053SOL    HW133205   6.723   5.841   5.276
11053SOL    HW233206   6.787   5.836   5.126
11054SOL     OW33207   5.608   6.895   3.906
11054SOL    HW133208   5.520   6.923   3.868
11054SOL    HW233209   5.598   6.807   3.952
11055SOL     OW33210   6.564   6.378   4.949
11055SOL    HW133211   6.624   6.353   5.025
11055SOL    HW233212   6.475   6.332   4.960
11056SOL     OW33213   5.623   6.137   4.841
11056SOL    HW133214   5.705   6.124   4.786
11056SOL    HW233215   5.648   6.140   4.938
11057SOL     OW33216   5.778   6.108   5.454
11057SOL    HW133217   5.829   6.054   5.387
11057SOL    HW233218   5.738   6.188   5.408
11058SOL     OW33219   6.403   6.157   4.084
11058SOL    HW133220   6.411   6.078   4.023
11058SOL    HW233221   6.326   6.213   4.055
11059SOL     OW33222   6.295   6.035   4.979
11059SOL    HW133223   6.237   5.957   4.956
11059SOL    HW233224   6.292   6.102   4.905
11060SOL     OW33225   6.045   6.081   3.909
11060SOL    HW133226   6.110   6.153   3.935
11060SOL    HW233227   5.955   6.120   3.896
11061SOL     OW33228   5.753   6.728   5.201
11061SOL    HW133229   5.742   6.679   5.287
11061SOL    HW233230   5.764   6.662   5.126
11062SOL     OW33231   6.914   6.625   4.949
11062SOL    HW133232   6.935   6.550   4.886
11062SOL    HW233233   6.844   6.684   4.909
11063SOL     OW33234   6.889   6.455   4.032
11063SOL    HW133235   6.819   6.418   4.094
11063SOL    HW233236   6.862   6.437   3.937
11064SOL     OW33237   5.669   6.858   4.738
11064SOL    HW133238   5.654   6.867   4.837
11064SOL    HW233239   5.598   6.799   4.699
11065SOL     OW33240   6.869   6.505   4.384
11065SOL    HW133241   6.955   6.457   4.403
11065SOL    HW233242   6.888   6.586   4.329
11066SOL     OW33243   6.397   6.844   5.142
11066SOL    HW133244   6.373   6.886   5.229
11066SOL    HW233245   6.322   6.857   5.077
11067SOL     OW33246   5.842   5.900   4.440
11067SOL    HW133247   5.754   5.937   4.412
11067SOL    HW233248   5.845   5.892   4.539
11068SOL     OW33249   6.830   0.208   3.762
11068SOL    HW133250   6.841   0.123   3.814
11068SOL    HW233251   6.742   0.206   3.714
11069SOL     OW33252   6.414   6.581   5.096
11069SOL    HW133253   6.469   6.561   5.015
11069SOL    HW233254   6.415   6.680   5.113
11070SOL     OW33255   6.502   6.493   4.010
11070SOL    HW133256   6.565   6.530   3.942
11070SOL    HW233257   6.549   6.424   4.065
11071SOL     OW33258   5.978   6.892   5.226
11071SOL    HW133259   5.944   6.982   5.198
11071SOL    HW233260   5.902   6.827   5.228
11072SOL     OW33261   6.639   6.698   4.444
11072SOL    HW133262   6.563   6.645   4.482
11072SOL    HW233263   6.708   6.636   4.407
11073SOL     OW33264   6.606   5.825   4.690
11073SOL    HW133265   6.601   5.780   4.601
11073SOL    HW233266   6.605   5.756   4.762
11074SOL     OW33267   5.695   6.609   5.440
11074SOL    HW133268   5.615   6.587   5.497
11074SOL    HW233269   5.778   6.574   5.484
11075SOL     OW33270   6.268   5.782   5.224
11075SOL    HW133271   6.353   5.757   5.179
11075SOL    HW233272   6.286   5.815   5.317
11076SOL     OW33273   5.667   5.915   3.754
11076SOL    HW133274   5.575   5.891   3.723
11076SOL    HW233275   5.699   5.996   3.705
11077SOL     OW33276   5.650   5.741   4.028
11077SOL    HW133277   5.633   5.826   3.977
11077SOL    HW233278   5.738   5.703   4.000
11078SOL     OW33279   6.209   6.412   5.158
11078SOL    HW133280   6.268   6.491   5.139
11078SOL    HW233281   6.266   6.331   5.169
11079SOL     OW33282   6.310   6.145   5.426
11079SOL    HW133283   6.352   6.211   5.488
11079SOL    HW233284   6.327   6.052   5.460
11080SOL     OW33285   0.030   6.858   5.374
11080SOL    HW133286   6.999   6.796   5.447
11080SOL    HW233287   0.105   6.816   5.324
11081SOL     OW33288   6.806   5.897   4.163
11081SOL    HW133289   6.880   5.843   4.124
11081SOL    HW233290   6.841   5.953   4.238
11082SOL     OW33291   6.172   6.323   4.393
11082SOL    HW133292   6.214   6.413   4.383
11082SOL    HW233293   6.103   6.310   4.322
11083SOL     OW33294   6.453   6.551   4.582
11083SOL    HW133295   6.507   6.473   4.615
11083SOL    HW233296   6.422   6.605   4.660
11084SOL     OW33297   6.665   6.569   3.811
11084SOL    HW133298   6.635   6.630   3.738
11084SOL    HW233299   6.743   6.515   3.780
11085SOL     OW33300   5.798   6.906   5.537
11085SOL    HW133301   5.740   6.825   5.547
11085SOL    HW233302   5.809   6.950   5.626
11086SOL     OW33303   5.677   6.820   4.398
11086SOL    HW133304   5.696   6.758   4.474
11086SOL    HW233305   5.740   6.802   4.323
11087SOL     OW33306   6.289   6.969   5.354
11087SOL    HW133307   6.191   6.958   5.373
11087SOL    HW233308   6.310   0.065   5.337
11088SOL     OW33309   6.016   6.014   4.250
11088SOL    HW133310   6.050   5.943   4.188
11088SOL    HW233311   5.962   5.971   4.323
11089SOL     OW33312   5.920   6.142   5.013
11089SOL    HW133313   5.977   6.085   5.072
11089SOL    HW233314   5.936   6.116   4.918
11090SOL     OW33315   6.992   5.806   4.841
11090SOL    HW133316   0.018   5.718   4.882
11090SOL    HW233317   6.940   5.859   4.907
11091SOL     OW33318   6.598   5.601   4.862
11091SOL    HW133319   6.538   5.534   4.818
11091SOL    HW233320   6.691   5.565   4.867
11092SOL     OW33321   6.341   6.907   3.990
11092SOL    HW133322   6.320   6.812   4.010
11092SOL    HW233323   6.380   6.950   4.071
11093SOL     OW33324   6.909   5.665   3.865
11093SOL    HW133325   6.949   5.614   3.789
11093SOL    HW233326   6.831   5.615   3.902
11094SOL     OW33327   5.622   6.647   4.034
11094SOL    HW133328   5.720   6.653   4.013
11094SOL    HW233329   5.599   6.552   4.057
11095SOL     OW33330   5.809   6.206   5.712
11095SOL    HW133331   5.717   6.205   5.753
11095SOL    HW233332   5.801   6.182   5.615
11096SOL     OW33333   5.806   5.874   6.582
11096SOL    HW133334   5.842   5.835   6.667
11096SOL    HW233335   5.715   5.837   6.564
11097SOL     OW33336   5.587   5.972   6.221
11097SOL    HW133337   5.502   6.002   6.265
11097SOL    HW233338   5.569   5.888   6.170
11098SOL     OW33339   6.148   6.879   6.769
11098SOL    HW133340   6.081   6.889   6.696
11098SOL    HW233341   6.101   6.877   6.857
11099SOL     OW33342   0.074   0.133   6.269
11099SOL    HW133343   0.001   0.099   6.329
11099SOL    HW233344   0.116   0.057   6.220
11100SOL     OW33345   6.694   6.305   6.275
11100SOL    HW133346   6.758   6.380   6.264
11100SOL    HW233347   6.657   6.306   6.369
11101SOL     OW33348   6.345   6.742   6.613
11101SOL    HW133349   6.281   6.781   6.679
11101SOL    HW233350   6.351   6.802   6.533
11102SOL     OW33351   6.271   6.584   6.234
11102SOL    HW133352   6.342   6.572   6.304
11102SOL    HW233353   6.196   6.639   6.271
11103SOL     OW33354   5.921   0.014   6.641
11103SOL    HW133355   5.843   6.964   6.604
11103SOL    HW233356   5.966   0.064   6.568
11104SOL     OW33357   5.847   6.677   6.492
11104SOL    HW133358   5.843   6.582   6.524
11104SOL    HW233359   5.785   6.733   6.547
11105SOL     OW33360   6.166   6.565   5.728
11105SOL    HW133361   6.211   6.615   5.654
11105SOL    HW233362   6.206   6.591   5.816
11106SOL     OW33363   0.242   5.777   0.082
11106SOL    HW133364   0.171   5.847   0.071
11106SOL    HW233365   0.202   5.696   0.127
11107SOL     OW33366   5.701   6.244   6.151
11107SOL    HW133367   5.670   6.151   6.168
11107SOL    HW233368   5.694   6.298   6.235
11108SOL     OW33369   6.845   6.779   0.026
11108SOL    HW133370   6.889   6.723   6.956
11108SOL    HW233371   6.915   6.825   0.080
11109SOL     OW33372   6.402   5.595   6.096
11109SOL    HW133373   6.446   5.681   6.073
11109SOL    HW233374   6.303   5.610   6.104
11110SOL     OW33375   5.778   6.556   6.837
11110SOL    HW133376   5.860   6.501   6.824
11110SOL    HW233377   5.698   6.502   6.813
11111SOL     OW33378   6.181   6.303   5.859
11111SOL    HW133379   6.187   6.388   5.807
11111SOL    HW233380   6.112   6.313   5.931
11112SOL     OW33381   6.871   5.910   6.479
11112SOL    HW133382   6.773   5.896   6.491
11112SOL    HW233383   6.920   5.874   6.558
11113SOL     OW33384   6.404   6.169   0.047
11113SOL    HW133385   6.351   6.228   0.107
11113SOL    HW233386   6.343   6.126   6.980
11114SOL     OW33387   6.568   5.959   6.804
11114SOL    HW133388   6.493   6.016   6.838
11114SOL    HW233389   6.540   5.914   6.719
11115SOL     OW33390   6.635   6.286   6.010
11115SOL    HW133391   6.653   6.288   6.109
11115SOL    HW233392   6.549   6.237   5.993
11116SOL     OW33393   5.674   6.411   6.366
11116SOL    HW133394   5.760   6.401   6.417
11116SOL    HW233395   5.623   6.489   6.401
11117SOL     OW33396   6.481   5.938   5.782
11117SOL    HW133397   6.522   6.005   5.720
11117SOL    HW233398   6.485   5.847   5.740
11118SOL     OW33399   6.934   6.718   6.102
11118SOL    HW133400   6.999   6.697   6.029
11118SOL    HW233401   6.880   6.798   6.076
11119SOL     OW33402   6.134   5.761   6.486
11119SOL    HW133403   6.140   5.789   6.582
11119SOL    HW233404   6.136   5.842   6.427
11120SOL     OW33405   5.909   6.545   5.843
11120SOL    HW133406   5.997   6.562   5.799
11120SOL    HW233407   5.870   6.460   5.808
11121SOL     OW33408   5.981   6.274   6.061
11121SOL    HW133409   6.002   6.177   6.075
11121SOL    HW233410   5.884   6.290   6.079
11122SOL     OW33411   6.227   5.704   5.687
11122SOL    HW133412   6.293   5.633   5.710
11122SOL    HW233413   6.170   5.673   5.611
11123SOL     OW33414   6.513   6.091   6.486
11123SOL    HW133415   6.487   6.086   6.390
11123SOL    HW233416   6.548   6.002   6.516
11124SOL     OW33417   6.133   5.650   6.081
11124SOL    HW133418   6.051   5.647   6.138
11124SOL    HW233419   6.129   5.731   6.022
11125SOL     OW33420   6.981   6.708   5.603
11125SOL    HW133421   0.022   6.662   5.682
11125SOL    HW233422   6.934   6.791   5.633
11126SOL     OW33423   5.876   5.635   5.772
11126SOL    HW133424   5.930   5.706   5.726
11126SOL    HW233425   5.938   5.569   5.815
11127SOL     OW33426   6.529   5.835   6.041
11127SOL    HW133427   6.494   5.877   5.957
11127SOL    HW233428   6.628   5.847   6.045
11128SOL     OW33429   6.827   0.100   6.375
11128SOL    HW133430   6.780   0.164   6.315
11128SOL    HW233431   6.833   0.138   6.467
11129SOL     OW33432   6.051   6.715   6.322
11129SOL    HW133433   5.981   6.706   6.392
11129SOL    HW233434   6.009   6.712   6.231
11130SOL     OW33435   6.609   6.124   5.612
11130SOL    HW133436   6.564   6.211   5.593
11130SOL    HW233437   6.674   6.137   5.687
11131SOL     OW33438   6.149   5.804   6.759
11131SOL    HW133439   6.192   5.721   6.793
11131SOL    HW233440   6.053   5.806   6.787
11132SOL     OW33441   6.450   6.042   6.224
11132SOL    HW133442   6.405   6.108   6.164
11132SOL    HW233443   6.475   5.960   6.172
11133SOL     OW33444   6.607   5.633   6.325
11133SOL    HW133445   6.541   5.635   6.250
11133SOL    HW233446   6.582   5.562   6.390
11134SOL     OW33447   6.115   5.850   5.896
11134SOL    HW133448   6.162   5.797   5.825
11134SOL    HW233449   6.086   5.938   5.859
11135SOL     OW33450   6.643   6.927   6.933
11135SOL    HW133451   6.558   6.888   6.970
11135SOL    HW233452   6.722   6.881   6.976
11136SOL     OW33453   6.723   6.772   6.703
11136SOL    HW133454   6.689   6.834   6.774
11136SOL    HW233455   6.676   6.791   6.617
11137SOL     OW33456   6.292   6.639   5.956
11137SOL    HW133457   6.278   6.630   6.054
11137SOL    HW233458   6.374   6.587   5.929
11138SOL     OW33459   6.010   6.399   6.847
11138SOL    HW133460   6.070   6.423   6.923
11138SOL    HW233461   5.974   6.307   6.860
11139SOL     OW33462   6.828   5.991   6.865
11139SOL    HW133463   6.813   6.077   6.915
11139SOL    HW233464   6.744   5.965   6.818
11140SOL     OW33465   5.926   6.702   6.077
11140SOL    HW133466   5.967   6.782   6.032
11140SOL    HW233467   5.921   6.626   6.013
11141SOL     OW33468   6.134   6.131   6.449
11141SOL    HW133469   6.147   6.190   6.369
11141SOL    HW233470   6.205   6.151   6.516
11142SOL     OW33471   6.819   6.951   6.003
11142SOL    HW133472   6.864   0.033   6.038
11142SOL    HW233473   6.722   6.953   6.028
11143SOL     OW33474   6.171   6.453   6.622
11143SOL    HW133475   6.202   6.547   6.610
11143SOL    HW233476   6.110   6.447   6.701
11144SOL     OW33477   6.958   6.431   6.613
11144SOL    HW133478   6.866   6.421   6.573
11144SOL    HW233479   6.993   6.341   6.638
11145SOL     OW33480   6.768   6.120   5.838
11145SOL    HW133481   6.783   6.034   5.887
11145SOL    HW233482   6.731   6.188   5.900
11146SOL     OW33483   5.887   5.788   6.834
11146SOL    HW133484   5.854   5.816   6.924
11146SOL    HW233485   5.875   5.689   6.823
11147SOL     OW33486   5.634   6.900   6.877
11147SOL    HW133487   5.678   6.836   6.941
11147SOL    HW233488   5.664   6.993   6.898
11148SOL     OW33489   6.312   6.214   6.642
11148SOL    HW133490   6.388   6.194   6.581
11148SOL    HW233491   6.277   6.306   6.624
11149SOL     OW33492   5.892   5.648   6.212
11149SOL    HW133493   5.867   5.743   6.232
11149SOL    HW233494   5.902   5.599   6.299
11150SOL     OW33495   0.211   6.032   5.927
11150SOL    HW133496   0.172   5.940   5.931
11150SOL    HW233497   0.190   6.081   6.011
11151SOL     OW33498   6.610   6.339   6.549
11151SOL    HW133499   6.603   6.359   6.647
11151SOL    HW233500   6.584   6.244   6.533
11152SOL     OW33501   6.886   6.403   5.617
11152SOL    HW133502   6.949   6.334   5.651
11152SOL    HW233503   6.925   6.450   5.538
11153SOL     OW33504   5.897   6.391   6.529
11153SOL    HW133505   5.993   6.418   6.518
11153SOL    HW233506   5.892   6.296   6.560
11154SOL     OW33507   5.918   6.114   6.604
11154SOL    HW133508   5.877   6.024   6.590
11154SOL    HW233509   5.998   6.125   6.544
11155SOL     OW33510   6.767   5.802   0.054
11155SOL    HW133511   6.766   5.855   0.139
11155SOL    HW233512   6.773   5.865   6.976
11156SOL     OW33513   5.608   6.895   5.767
11156SOL    HW133514   5.520   6.923   5.730
11156SOL    HW233515   5.598   6.807   5.814
11157SOL     OW33516   6.565   6.378   6.818
11157SOL    HW133517   6.631   6.369   6.892
11157SOL    HW233518   6.477   6.340   6.847
11158SOL     OW33519   5.636   6.141   6.713
11158SOL    HW133520   5.690   6.107   6.637
11158SOL    HW233521   5.697   6.175   6.785
11159SOL     OW33522   6.404   6.158   5.946
11159SOL    HW133523   6.412   6.078   5.885
11159SOL    HW233524   6.326   6.213   5.917
11160SOL     OW33525   6.267   6.046   6.848
11160SOL    HW133526   6.227   5.959   6.819
11160SOL    HW233527   6.274   6.107   6.769
11161SOL     OW33528   6.045   6.081   5.771
11161SOL    HW133529   6.110   6.153   5.797
11161SOL    HW233530   5.955   6.120   5.758
11162SOL     OW33531   5.762   6.723   0.043
11162SOL    HW133532   5.742   6.672   0.127
11162SOL    HW233533   5.764   6.660   6.965
11163SOL     OW33534   6.893   6.597   6.817
11163SOL    HW133535   6.928   6.540   6.743
11163SOL    HW233536   6.828   6.663   6.779
11164SOL     OW33537   6.888   6.454   5.894
11164SOL    HW133538   6.818   6.418   5.955
11164SOL    HW233539   6.863   6.437   5.799
11165SOL     OW33540   5.668   6.859   6.605
11165SOL    HW133541   5.650   6.868   6.703
11165SOL    HW233542   5.599   6.801   6.563
11166SOL     OW33543   6.870   6.505   6.247
11166SOL    HW133544   6.955   6.454   6.261
11166SOL    HW233545   6.888   6.586   6.193
11167SOL     OW33546   6.400   6.840   0.021
11167SOL    HW133547   6.393   6.854   0.119
11167SOL    HW233548   6.313   6.862   6.977
11168SOL     OW33549   5.842   5.901   6.301
11168SOL    HW133550   5.753   5.937   6.273
11168SOL    HW233551   5.844   5.892   6.401
11169SOL     OW33552   6.830   0.208   5.624
11169SOL    HW133553   6.841   0.123   5.676
11169SOL    HW233554   6.742   0.206   5.576
11170SOL     OW33555   6.366   6.583   6.935
11170SOL    HW133556   6.438   6.548   6.876
11170SOL    HW233557   6.393   6.673   6.970
11171SOL     OW33558   6.502   6.493   5.872
11171SOL    HW133559   6.565   6.530   5.804
11171SOL    HW233560   6.549   6.424   5.927
11172SOL     OW33561   5.985   6.886   6.998
11172SOL    HW133562   5.964   6.962   0.060
11172SOL    HW233563   5.916   6.814   0.009
11173SOL     OW33564   6.640   6.699   6.308
11173SOL    HW133565   6.564   6.646   6.345
11173SOL    HW233566   6.708   6.637   6.268
11174SOL     OW33567   6.605   5.823   6.544
11174SOL    HW133568   6.600   5.776   6.455
11174SOL    HW233569   6.608   5.755   6.617
11175SOL     OW33570   6.261   5.773   0.085
11175SOL    HW133571   6.351   5.739   0.059
11175SOL    HW233572   6.271   5.849   0.149
11176SOL     OW33573   5.667   5.915   5.616
11176SOL    HW133574   5.575   5.891   5.585
11176SOL    HW233575   5.699   5.996   5.566
11177SOL     OW33576   5.650   5.741   5.890
11177SOL    HW133577   5.633   5.826   5.839
11177SOL    HW233578   5.738   5.703   5.862
11178SOL     OW33579   6.806   5.897   6.025
11178SOL    HW133580   6.880   5.843   5.986
11178SOL    HW233581   6.841   5.953   6.100
11179SOL     OW33582   6.171   6.323   6.255
11179SOL    HW133583   6.214   6.414   6.245
11179SOL    HW233584   6.102   6.311   6.184
11180SOL     OW33585   6.453   6.549   6.444
11180SOL    HW133586   6.507   6.473   6.479
11180SOL    HW233587   6.420   6.604   6.521
11181SOL     OW33588   6.665   6.569   5.674
11181SOL    HW133589   6.635   6.630   5.600
11181SOL    HW233590   6.743   6.515   5.643
11182SOL     OW33591   5.679   6.823   6.260
11182SOL    HW133592   5.689   6.759   6.335
11182SOL    HW233593   5.742   6.798   6.186
11183SOL     OW33594   6.017   6.014   6.113
11183SOL    HW133595   6.050   5.943   6.050
11183SOL    HW233596   5.962   5.971   6.185
11184SOL     OW33597   5.902   6.135   6.878
11184SOL    HW133598   5.973   6.083   6.925
11184SOL    HW233599   5.913   6.123   6.779
11185SOL     OW33600   6.990   5.813   6.706
11185SOL    HW133601   0.004   5.721   6.742
11185SOL    HW233602   6.932   5.865   6.768
11186SOL     OW33603   6.607   5.611   6.716
11186SOL    HW133604   6.536   5.544   6.696
11186SOL    HW233605   6.696   5.566   6.722
11187SOL     OW33606   6.340   6.907   5.851
11187SOL    HW133607   6.320   6.811   5.871
11187SOL    HW233608   6.380   6.950   5.932
11188SOL     OW33609   6.909   5.665   5.727
11188SOL    HW133610   6.948   5.614   5.651
11188SOL    HW233611   6.831   5.615   5.765
11189SOL     OW33612   5.622   6.647   5.896
11189SOL    HW133613   5.720   6.653   5.875
11189SOL    HW233614   5.599   6.552   5.919
   7.00000   7.00000   7.00000
