CHOL + DPPC + H2O
66721
    1CHOL    C1    1   9.784   9.041   2.763
    1CHOL    C2    2   9.764   9.055   2.612
    1CHOL    C3    3   9.732   8.919   2.549
    1CHOL    C4    4   9.606   8.859   2.612
    1CHOL    C5    5   9.609   8.856   2.764
    1CHOL    C6    6   9.557   8.754   2.833
    1CHOL    C7    7   9.547   8.746   2.984
    1CHOL    C8    8   9.573   8.882   3.047
    1CHOL    C9    9   9.693   8.950   2.978
    1CHOL   C10   10   9.658   8.984   2.831
    1CHOL   C11   11   9.739   9.074   3.057
    1CHOL   C12   12   9.763   9.051   3.207
    1CHOL   C13   13   9.639   8.988   3.274
    1CHOL   C14   14   9.608   8.860   3.195
    1CHOL   C15   15   9.502   8.787   3.279
    1CHOL   C16   16   9.540   8.825   3.424
    1CHOL   C17   17   9.659   8.925   3.415
    1CHOL   C18   18   9.523   9.090   3.275
    1CHOL   C19   19   9.546   9.090   2.826
    1CHOL   C20   20   9.662   9.020   3.536
    1CHOL   C21   21   9.792   9.101   3.544
    1CHOL   C22   22   9.648   8.943   3.668
    1CHOL   C23   23   9.587   9.029   3.779
    1CHOL   C24   24   9.566   8.945   3.905
    1CHOL   C25   25   9.478   9.015   4.009
    1CHOL   C26   26   9.480   8.934   4.139
    1CHOL   C27   27   9.333   9.021   3.958
    1CHOL   O28   28   9.714   8.934   2.407
    1CHOL   H29   29   9.616   8.966   2.390
    2CHOL    C1   30  10.113   4.192   2.902
    2CHOL    C2   31  10.062   4.192   2.757
    2CHOL    C3   32   9.974   4.070   2.729
    2CHOL    C4   33   9.855   4.069   2.826
    2CHOL    C5   34   9.900   4.076   2.972
    2CHOL    C6   35   9.846   3.996   3.065
    2CHOL    C7   36   9.877   4.001   3.212
    2CHOL    C8   37   9.946   4.133   3.248
    2CHOL    C9   38  10.057   4.163   3.145
    2CHOL   C10   39   9.998   4.188   3.004
    2CHOL   C11   40  10.143   4.282   3.194
    2CHOL   C12   41   0.038   4.272   3.338
    2CHOL   C13   42  10.083   4.241   3.438
    2CHOL   C14   43  10.013   4.115   3.385
    2CHOL   C15   44   9.921   4.070   3.500
    2CHOL   C16   45  10.002   4.108   3.626
    2CHOL   C17   46  10.127   4.186   3.577
    2CHOL   C18   47   9.989   4.363   3.452
    2CHOL   C19   48   9.922   4.322   3.002
    2CHOL   C20   49   0.019   4.281   3.689
    2CHOL   C21   50   0.136   4.370   3.647
    2CHOL   C22   51   0.064   4.196   3.809
    2CHOL   C23   52   0.091   4.276   3.938
    2CHOL   C24   53  10.119   4.328   4.002
    2CHOL   C25   54  10.146   4.401   4.133
    2CHOL   C26   55  10.013   4.425   4.205
    2CHOL   C27   56   0.053   4.538   4.105
    2CHOL   O28   57   9.924   4.075   2.595
    2CHOL   H29   58  10.002   4.057   2.529
    3CHOL    C1   59   1.476   9.902   2.749
    3CHOL    C2   60   1.469   9.827   2.616
    3CHOL    C3   61   1.610   9.794   2.565
    3CHOL    C4   62   1.684   9.708   2.668
    3CHOL    C5   63   1.687   9.773   2.806
    3CHOL    C6   64   1.798   9.773   2.883
    3CHOL    C7   65   1.806   9.827   3.024
    3CHOL    C8   66   1.666   9.845   3.083
    3CHOL    C9   67   1.576   9.914   2.977
    3CHOL   C10   68   1.552   9.821   2.856
    3CHOL   C11   69   1.444   9.961   3.041
    3CHOL   C12   70   1.456  10.039   3.173
    3CHOL   C13   71   1.540   9.961   3.276
    3CHOL   C14   72   1.675   9.932   3.210
    3CHOL   C15   73   1.763   9.877   3.324
    3CHOL   C16   74   1.709   9.953   3.448
    3CHOL   C17   75   1.590  10.040   3.400
    3CHOL   C18   76   1.463   9.834   3.319
    3CHOL   C19   77   1.468   9.699   2.899
    3CHOL   C20   78   1.486  10.066   3.512
    3CHOL   C21   79   1.389  10.179   3.475
    3CHOL   C22   80   1.552  10.102   3.646
    3CHOL   C23   81   1.453  10.105   3.763
    3CHOL   C24   82   1.524  10.129   3.896
    3CHOL   C25   83   1.429  10.131   4.016
    3CHOL   C26   84   1.363   9.995   4.037
    3CHOL   C27   85   1.507  10.170   4.141
    3CHOL   O28   86   1.598   9.725   2.440
    3CHOL   H29   87   1.566   9.795   2.370
    4CHOL    C1   88   1.196   3.995   2.654
    4CHOL    C2   89   1.221   3.973   2.504
    4CHOL    C3   90   1.277   4.100   2.439
    4CHOL    C4   91   1.408   4.142   2.509
    4CHOL    C5   92   1.393   4.155   2.660
    4CHOL    C6   93   1.453   4.254   2.728
    4CHOL    C7   94   1.451   4.268   2.879
    4CHOL    C8   95   1.405   4.139   2.947
    4CHOL    C9   96   1.285   4.080   2.870
    4CHOL   C10   97   1.324   4.037   2.728
    4CHOL   C11   98   1.224   3.962   2.950
    4CHOL   C12   99   1.188   3.992   3.096
    4CHOL   C13  100   1.307   4.055   3.172
    4CHOL   C14  101   1.355   4.174   3.088
    4CHOL   C15  102   1.456   4.247   3.179
    4CHOL   C16  103   1.397   4.223   3.320
    4CHOL   C17  104   1.272   4.131   3.302
    4CHOL   C18  105   1.415   3.947   3.195
    4CHOL   C19  106   1.423   3.919   2.733
    4CHOL   C20  107   1.243   4.049   3.430
    4CHOL   C21  108   1.105   3.981   3.424
    4CHOL   C22  109   1.246   4.137   3.556
    4CHOL   C23  110   1.242   4.055   3.686
    4CHOL   C24  111   1.248   4.147   3.809
    4CHOL   C25  112   1.250   4.068   3.940
    4CHOL   C26  113   1.234   4.166   4.056
    4CHOL   C27  114   1.383   3.994   3.957
    4CHOL   O28  115   1.302   4.073   2.300
    4CHOL   H29  116   1.210   4.053   2.255
    5CHOL    C1  117   2.090   5.760   2.734
    5CHOL    C2  118   2.082   5.748   2.582
    5CHOL    C3  119   2.207   5.680   2.526
    5CHOL    C4  120   2.222   5.539   2.588
    5CHOL    C5  121   2.220   5.542   2.740
    5CHOL    C6  122   2.304   5.467   2.813
    5CHOL    C7  123   2.304   5.457   2.964
    5CHOL    C8  124   2.176   5.516   3.023
    5CHOL    C9  125   2.140   5.648   2.951
    5CHOL   C10  126   2.107   5.623   2.802
    5CHOL   C11  127   2.026   5.719   3.026
    5CHOL   C12  128   2.049   5.741   3.176
    5CHOL   C13  129   2.086   5.609   3.248
    5CHOL   C14  130   2.205   5.551   3.171
    5CHOL   C15  131   2.257   5.436   3.259
    5CHOL   C16  132   2.228   5.487   3.402
    5CHOL   C17  133   2.153   5.622   3.387
    5CHOL   C18  134   1.963   5.516   3.252
    5CHOL   C19  135   1.976   5.543   2.790
    5CHOL   C20  136   2.065   5.650   3.512
    5CHOL   C21  137   1.999   5.789   3.507
    5CHOL   C22  138   2.148   5.643   3.641
    5CHOL   C23  139   2.062   5.651   3.768
    5CHOL   C24  140   2.149   5.646   3.894
    5CHOL   C25  141   2.065   5.651   4.023
    5CHOL   C26  142   2.156   5.622   4.143
    5CHOL   C27  143   2.005   5.790   4.042
    5CHOL   O28  144   2.198   5.672   2.383
    5CHOL   H29  145   2.294   5.657   2.345
    6CHOL    C1  146   1.662   5.297   2.750
    6CHOL    C2  147   1.640   5.388   2.628
    6CHOL    C3  148   1.522   5.339   2.544
    6CHOL    C4  149   1.394   5.326   2.628
    6CHOL    C5  150   1.414   5.250   2.758
    6CHOL    C6  151   1.319   5.168   2.807
    6CHOL    C7  152   1.325   5.100   2.942
    6CHOL    C8  153   1.430   5.169   3.031
    6CHOL    C9  154   1.559   5.185   2.949
    6CHOL   C10  155   1.537   5.291   2.838
    6CHOL   C11  156   1.674   5.222   3.043
    6CHOL   C12  157   1.642   5.249   3.191
    6CHOL   C13  158   1.559   5.135   3.253
    6CHOL   C14  159   1.427   5.112   3.174
    6CHOL   C15  160   1.319   5.195   3.246
    6CHOL   C16  161   1.391   5.268   3.360
    6CHOL   C17  162   1.509   5.174   3.395
    6CHOL   C18  163   1.636   5.001   3.256
    6CHOL   C19  164   1.511   5.429   2.902
    6CHOL   C20  165   1.608   5.244   3.491
    6CHOL   C21  166   1.712   5.147   3.549
    6CHOL   C22  167   1.534   5.309   3.609
    6CHOL   C23  168   1.621   5.401   3.695
    6CHOL   C24  169   1.535   5.470   3.801
    6CHOL   C25  170   1.615   5.562   3.894
    6CHOL   C26  171   1.520   5.614   4.003
    6CHOL   C27  172   1.670   5.683   3.817
    6CHOL   O28  173   1.500   5.432   2.438
    6CHOL   H29  174   1.425   5.396   2.376
    7CHOL    C1  175   3.144   5.572   2.702
    7CHOL    C2  176   3.135   5.553   2.551
    7CHOL    C3  177   3.263   5.486   2.499
    7CHOL    C4  178   3.281   5.349   2.566
    7CHOL    C5  179   3.280   5.357   2.718
    7CHOL    C6  180   3.363   5.285   2.795
    7CHOL    C7  181   3.362   5.283   2.947
    7CHOL    C8  182   3.234   5.347   3.003
    7CHOL    C9  183   3.203   5.474   2.922
    7CHOL   C10  184   3.166   5.440   2.777
    7CHOL   C11  185   3.091   5.557   2.989
    7CHOL   C12  186   3.113   5.585   3.138
    7CHOL   C13  187   3.135   5.455   3.216
    7CHOL   C14  188   3.256   5.385   3.151
    7CHOL   C15  189   3.291   5.271   3.248
    7CHOL   C16  190   3.251   5.329   3.387
    7CHOL   C17  191   3.191   5.470   3.361
    7CHOL   C18  192   3.006   5.370   3.215
    7CHOL   C19  193   3.036   5.357   2.772
    7CHOL   C20  194   3.089   5.513   3.469
    7CHOL   C21  195   3.055   5.662   3.460
    7CHOL   C22  196   3.140   5.484   3.612
    7CHOL   C23  197   3.033   5.513   3.718
    7CHOL   C24  198   3.083   5.482   3.859
    7CHOL   C25  199   2.980   5.525   3.965
    7CHOL   C26  200   2.977   5.678   3.978
    7CHOL   C27  201   3.015   5.462   4.100
    7CHOL   O28  202   3.254   5.474   2.357
    7CHOL   H29  203   3.259   5.569   2.318
    8CHOL    C1  204   2.080   6.756   2.737
    8CHOL    C2  205   2.074   6.728   2.586
    8CHOL    C3  206   2.199   6.652   2.542
    8CHOL    C4  207   2.209   6.518   2.617
    8CHOL    C5  208   2.202   6.534   2.768
    8CHOL    C6  209   2.276   6.458   2.850
    8CHOL    C7  210   2.270   6.460   3.002
    8CHOL    C8  211   2.146   6.536   3.051
    8CHOL    C9  212   2.126   6.663   2.966
    8CHOL   C10  213   2.092   6.626   2.819
    8CHOL   C11  214   2.019   6.755   3.029
    8CHOL   C12  215   2.045   6.789   3.177
    8CHOL   C13  216   2.062   6.662   3.263
    8CHOL   C14  217   2.173   6.579   3.196
    8CHOL   C15  218   2.202   6.466   3.296
    8CHOL   C16  219   2.179   6.535   3.433
    8CHOL   C17  220   2.129   6.679   3.402
    8CHOL   C18  221   1.927   6.589   3.273
    8CHOL   C19  222   1.958   6.551   2.814
    8CHOL   C20  223   2.047   6.736   3.520
    8CHOL   C21  224   2.012   6.884   3.500
    8CHOL   C22  225   2.127   6.724   3.651
    8CHOL   C23  226   2.040   6.744   3.776
    8CHOL   C24  227   2.124   6.735   3.904
    8CHOL   C25  228   2.040   6.744   4.031
    8CHOL   C26  229   2.130   6.721   4.153
    8CHOL   C27  230   1.974   6.882   4.044
    8CHOL   O28  231   2.197   6.630   2.401
    8CHOL   H29  232   2.111   6.580   2.371
    9CHOL    C1  233   2.851   9.820   2.564
    9CHOL    C2  234   2.827   9.810   2.412
    9CHOL    C3  235   2.921   9.706   2.350
    9CHOL    C4  236   2.898   9.569   2.415
    9CHOL    C5  237   2.914   9.574   2.566
    9CHOL    C6  238   2.982   9.480   2.632
    9CHOL    C7  239   2.996   9.472   2.782
    9CHOL    C8  240   2.892   9.562   2.850
    9CHOL    C9  241   2.887   9.699   2.780
    9CHOL   C10  242   2.834   9.685   2.635
    9CHOL   C11  243   2.805   9.799   2.864
    9CHOL   C12  244   2.843   9.809   3.013
    9CHOL   C13  245   2.844   9.671   3.080
    9CHOL   C14  246   2.938   9.583   2.995
    9CHOL   C15  247   2.957   9.455   3.077
    9CHOL   C16  248   2.950   9.506   3.223
    9CHOL   C17  249   2.917   9.658   3.217
    9CHOL   C18  250   2.700   9.617   3.089
    9CHOL   C19  251   2.685   9.646   2.637
    9CHOL   C20  252   2.843   9.703   3.345
    9CHOL   C21  253   2.834   9.856   3.353
    9CHOL   C22  254   2.914   9.654   3.472
    9CHOL   C23  255   2.821   9.647   3.593
    9CHOL   C24  256   2.895   9.599   3.718
    9CHOL   C25  257   2.802   9.567   3.835
    9CHOL   C26  258   2.885   9.507   3.950
    9CHOL   C27  259   2.730   9.691   3.887
    9CHOL   O28  260   2.896   9.696   2.209
    9CHOL   H29  261   2.980   9.730   2.159
   10CHOL    C1  262   2.975   3.794   2.738
   10CHOL    C2  263   2.941   3.824   2.591
   10CHOL    C3  264   2.818   3.743   2.548
   10CHOL    C4  265   2.698   3.783   2.636
   10CHOL    C5  266   2.727   3.760   2.783
   10CHOL    C6  267   2.637   3.701   2.863
   10CHOL    C7  268   2.654   3.679   3.012
   10CHOL    C8  269   2.772   3.760   3.067
   10CHOL    C9  270   2.891   3.755   2.969
   10CHOL   C10  271   2.857   3.821   2.833
   10CHOL   C11  272   3.016   3.817   3.034
   10CHOL   C12  273   3.054   3.751   3.167
   10CHOL   C13  274   2.937   3.751   3.267
   10CHOL   C14  275   2.817   3.687   3.195
   10CHOL   C15  276   2.712   3.667   3.305
   10CHOL   C16  277   2.798   3.636   3.429
   10CHOL   C17  278   2.946   3.649   3.384
   10CHOL   C18  279   2.911   3.894   3.318
   10CHOL   C19  280   2.839   3.973   2.850
   10CHOL   C20  281   3.040   3.675   3.505
   10CHOL   C21  282   3.188   3.676   3.466
   10CHOL   C22  283   3.021   3.565   3.611
   10CHOL   C23  284   3.088   3.593   3.746
   10CHOL   C24  285   3.018   3.704   3.825
   10CHOL   C25  286   3.081   3.728   3.962
   10CHOL   C26  287   3.064   3.606   4.054
   10CHOL   C27  288   3.017   3.850   4.028
   10CHOL   O28  289   2.786   3.767   2.411
   10CHOL   H29  290   2.698   3.717   2.391
   11CHOL    C1  291   4.347   8.574   2.809
   11CHOL    C2  292   4.374   8.596   2.659
   11CHOL    C3  293   4.244   8.589   2.579
   11CHOL    C4  294   4.149   8.698   2.629
   11CHOL    C5  295   4.120   8.682   2.777
   11CHOL    C6  296   3.995   8.684   2.826
   11CHOL    C7  297   3.959   8.676   2.972
   11CHOL    C8  298   4.081   8.701   3.059
   11CHOL    C9  299   4.202   8.622   3.005
   11CHOL   C10  300   4.244   8.673   2.865
   11CHOL   C11  301   4.318   8.626   3.107
   11CHOL   C12  302   4.282   8.587   3.251
   11CHOL   C13  303   4.162   8.669   3.303
   11CHOL   C14  304   4.049   8.649   3.200
   11CHOL   C15  305   3.924   8.708   3.267
   11CHOL   C16  306   3.948   8.678   3.417
   11CHOL   C17  307   4.089   8.614   3.429
   11CHOL   C18  308   4.204   8.816   3.323
   11CHOL   C19  309   4.307   8.813   2.876
   11CHOL   C20  310   4.150   8.639   3.569
   11CHOL   C21  311   4.279   8.559   3.591
   11CHOL   C22  312   4.049   8.602   3.679
   11CHOL   C23  313   4.093   8.640   3.820
   11CHOL   C24  314   3.982   8.606   3.920
   11CHOL   C25  315   4.020   8.634   4.066
   11CHOL   C26  316   4.040   8.784   4.091
   11CHOL   C27  317   3.909   8.581   4.157
   11CHOL   O28  318   4.274   8.607   2.440
   11CHOL   H29  319   4.303   8.514   2.403
   12CHOL    C1  320   4.877   4.167   2.723
   12CHOL    C2  321   4.907   4.161   2.573
   12CHOL    C3  322   4.966   4.294   2.523
   12CHOL    C4  323   5.093   4.327   2.602
   12CHOL    C5  324   5.072   4.325   2.753
   12CHOL    C6  325   5.127   4.419   2.832
   12CHOL    C7  326   5.119   4.421   2.982
   12CHOL    C8  327   5.076   4.285   3.036
   12CHOL    C9  328   4.958   4.230   2.953
   12CHOL   C10  329   5.001   4.201   2.807
   12CHOL   C11  330   4.896   4.107   3.023
   12CHOL   C12  331   4.865   4.122   3.173
   12CHOL   C13  332   4.988   4.174   3.251
   12CHOL   C14  333   5.031   4.303   3.181
   12CHOL   C15  334   5.136   4.366   3.274
   12CHOL   C16  335   5.088   4.322   3.414
   12CHOL   C17  336   4.965   4.229   3.394
   12CHOL   C18  337   5.096   4.064   3.253
   12CHOL   C19  338   5.099   4.082   2.804
   12CHOL   C20  339   4.953   4.126   3.509
   12CHOL   C21  340   4.814   4.060   3.512
   12CHOL   C22  341   4.982   4.189   3.646
   12CHOL   C23  342   5.008   4.086   3.757
   12CHOL   C24  343   5.067   4.156   3.879
   12CHOL   C25  344   5.095   4.060   3.995
   12CHOL   C26  345   4.964   4.015   4.061
   12CHOL   C27  346   5.184   4.128   4.099
   12CHOL   O28  347   5.000   4.283   2.385
   12CHOL   H29  348   5.075   4.213   2.376
   13CHOL    C1  349   4.269   3.875   2.544
   13CHOL    C2  350   4.286   3.829   2.398
   13CHOL    C3  351   4.429   3.853   2.349
   13CHOL    C4  352   4.532   3.785   2.442
   13CHOL    C5  353   4.510   3.814   2.589
   13CHOL    C6  354   4.613   3.833   2.673
   13CHOL    C7  355   4.601   3.848   2.823
   13CHOL    C8  356   4.466   3.793   2.869
   13CHOL    C9  357   4.357   3.856   2.780
   13CHOL   C10  358   4.365   3.799   2.637
   13CHOL   C11  359   4.218   3.835   2.844
   13CHOL   C12  360   4.204   3.858   2.995
   13CHOL   C13  361   4.309   3.775   3.072
   13CHOL   C14  362   4.446   3.820   3.019
   13CHOL   C15  363   4.547   3.753   3.113
   13CHOL   C16  364   4.471   3.748   3.248
   13CHOL   C17  365   4.330   3.808   3.221
   13CHOL   C18  366   4.279   3.625   3.052
   13CHOL   C19  367   4.327   3.650   2.638
   13CHOL   C20  368   4.219   3.756   3.315
   13CHOL   C21  369   4.113   3.864   3.336
   13CHOL   C22  370   4.270   3.709   3.452
   13CHOL   C23  371   4.166   3.628   3.530
   13CHOL   C24  372   4.223   3.565   3.658
   13CHOL   C25  373   4.260   3.669   3.765
   13CHOL   C26  374   4.410   3.659   3.795
   13CHOL   C27  375   4.181   3.640   3.893
   13CHOL   O28  376   4.446   3.800   2.217
   13CHOL   H29  377   4.357   3.811   2.166
   14CHOL    C1  378   4.043   5.018   2.782
   14CHOL    C2  379   4.073   5.032   2.632
   14CHOL    C3  380   4.021   4.910   2.555
   14CHOL    C4  381   3.870   4.894   2.577
   14CHOL    C5  382   3.830   4.893   2.724
   14CHOL    C6  383   3.735   4.810   2.770
   14CHOL    C7  384   3.682   4.809   2.911
   14CHOL    C8  385   3.723   4.937   2.985
   14CHOL    C9  386   3.871   4.967   2.957
   14CHOL   C10  387   3.892   5.003   2.809
   14CHOL   C11  388   3.922   5.077   3.052
   14CHOL   C12  389   3.890   5.058   3.202
   14CHOL   C13  390   3.739   5.034   3.223
   14CHOL   C14  391   3.701   4.914   3.135
   14CHOL   C15  392   3.558   4.878   3.177
   14CHOL   C16  393   3.558   4.911   3.328
   14CHOL   C17  394   3.695   4.976   3.361
   14CHOL   C18  395   3.661   5.162   3.189
   14CHOL   C19  396   3.821   5.137   2.777
   14CHOL   C20  397   3.682   5.073   3.480
   14CHOL   C21  398   3.817   5.127   3.529
   14CHOL   C22  399   3.615   5.003   3.600
   14CHOL   C23  400   3.539   5.100   3.690
   14CHOL   C24  401   3.471   5.024   3.804
   14CHOL   C25  402   3.367   5.105   3.882
   14CHOL   C26  403   3.425   5.233   3.942
   14CHOL   C27  404   3.245   5.136   3.795
   14CHOL   O28  405   4.047   4.927   2.415
   14CHOL   H29  406   3.993   5.009   2.380
   15CHOL    C1  407   4.414   4.252   2.812
   15CHOL    C2  408   4.434   4.274   2.661
   15CHOL    C3  409   4.346   4.390   2.616
   15CHOL    C4  410   4.386   4.520   2.688
   15CHOL    C5  411   4.382   4.504   2.840
   15CHOL    C6  412   4.339   4.603   2.920
   15CHOL    C7  413   4.338   4.599   3.071
   15CHOL    C8  414   4.418   4.480   3.125
   15CHOL    C9  415   4.395   4.355   3.037
   15CHOL   C10  416   4.448   4.378   2.894
   15CHOL   C11  417   4.458   4.230   3.101
   15CHOL   C12  418   4.411   4.204   3.246
   15CHOL   C13  419   4.433   4.327   3.334
   15CHOL   C14  420   4.362   4.444   3.264
   15CHOL   C15  421   4.361   4.557   3.368
   15CHOL   C16  422   4.350   4.482   3.502
   15CHOL   C17  423   4.357   4.330   3.470
   15CHOL   C18  424   4.584   4.350   3.354
   15CHOL   C19  425   4.600   4.398   2.896
   15CHOL   C20  426   4.419   4.251   3.589
   15CHOL   C21  427   4.409   4.099   3.570
   15CHOL   C22  428   4.348   4.285   3.721
   15CHOL   C23  429   4.428   4.248   3.846
   15CHOL   C24  430   4.553   4.335   3.863
   15CHOL   C25  431   4.628   4.308   3.994
   15CHOL   C26  432   4.545   4.352   4.115
   15CHOL   C27  433   4.760   4.386   3.993
   15CHOL   O28  434   4.355   4.405   2.474
   15CHOL   H29  435   4.445   4.451   2.450
   16CHOL    C1  436   5.052   6.233   2.931
   16CHOL    C2  437   5.060   6.233   2.778
   16CHOL    C3  438   5.103   6.095   2.729
   16CHOL    C4  439   4.998   5.992   2.770
   16CHOL    C5  440   4.981   5.988   2.921
   16CHOL    C6  441   4.974   5.873   2.989
   16CHOL    C7  442   4.952   5.860   3.138
   16CHOL    C8  443   4.908   5.993   3.200
   16CHOL    C9  444   4.987   6.109   3.137
   16CHOL   C10  445   4.958   6.124   2.986
   16CHOL   C11  446   4.958   6.240   3.214
   16CHOL   C12  447   4.982   6.232   3.366
   16CHOL   C13  448   4.907   6.113   3.430
   16CHOL   C14  449   4.947   5.989   3.349
   16CHOL   C15  450   4.894   5.870   3.432
   16CHOL   C16  451   4.908   5.921   3.577
   16CHOL   C17  452   4.958   6.068   3.569
   16CHOL   C18  453   4.755   6.140   3.430
   16CHOL   C19  454   4.812   6.167   2.963
   16CHOL   C20  455   4.922   6.146   3.697
   16CHOL   C21  456   4.970   6.292   3.695
   16CHOL   C22  457   4.986   6.077   3.819
   16CHOL   C23  458   4.945   6.135   3.956
   16CHOL   C24  459   4.801   6.100   3.994
   16CHOL   C25  460   4.763   6.162   4.130
   16CHOL   C26  461   4.749   6.314   4.119
   16CHOL   C27  462   4.632   6.101   4.180
   16CHOL   O28  463   5.123   6.094   2.587
   16CHOL   H29  464   5.033   6.114   2.538
   17CHOL    C1  465   1.086   7.192   2.748
   17CHOL    C2  466   1.112   7.147   2.604
   17CHOL    C3  467   1.240   7.211   2.550
   17CHOL    C4  468   1.360   7.173   2.638
   17CHOL    C5  469   1.337   7.198   2.787
   17CHOL    C6  470   1.437   7.240   2.867
   17CHOL    C7  471   1.427   7.259   3.016
   17CHOL    C8  472   1.300   7.195   3.072
   17CHOL    C9  473   1.182   7.223   2.977
   17CHOL   C10  474   1.202   7.153   2.841
   17CHOL   C11  475   1.049   7.182   3.043
   17CHOL   C12  476   1.026   7.243   3.183
   17CHOL   C13  477   1.143   7.210   3.278
   17CHOL   C14  478   1.270   7.260   3.209
   17CHOL   C15  479   1.380   7.248   3.316
   17CHOL   C16  480   1.303   7.276   3.447
   17CHOL   C17  481   1.154   7.294   3.408
   17CHOL   C18  482   1.142   7.059   3.309
   17CHOL   C19  483   1.203   7.000   2.859
   17CHOL   C20  484   1.060   7.262   3.527
   17CHOL   C21  485   0.912   7.291   3.496
   17CHOL   C22  486   1.099   7.346   3.650
   17CHOL   C23  487   1.018   7.311   3.776
   17CHOL   C24  488   1.054   7.405   3.891
   17CHOL   C25  489   0.964   7.382   4.014
   17CHOL   C26  490   1.017   7.466   4.130
   17CHOL   C27  491   0.820   7.425   3.983
   17CHOL   O28  492   1.263   7.166   2.416
   17CHOL   H29  493   1.304   7.071   2.418
   18CHOL    C1  494   1.694   5.809   2.666
   18CHOL    C2  495   1.726   5.842   2.520
   18CHOL    C3  496   1.624   5.777   2.426
   18CHOL    C4  497   1.482   5.825   2.461
   18CHOL    C5  498   1.447   5.805   2.608
   18CHOL    C6  499   1.327   5.763   2.649
   18CHOL    C7  500   1.283   5.750   2.793
   18CHOL    C8  501   1.379   5.824   2.888
   18CHOL    C9  502   1.524   5.795   2.843
   18CHOL   C10  503   1.553   5.855   2.705
   18CHOL   C11  504   1.625   5.844   2.948
   18CHOL   C12  505   1.598   5.799   3.093
   18CHOL   C13  506   1.454   5.835   3.135
   18CHOL   C14  507   1.360   5.771   3.031
   18CHOL   C15  508   1.220   5.785   3.094
   18CHOL   C16  509   1.248   5.780   3.246
   18CHOL   C17  510   1.402   5.766   3.263
   18CHOL   C18  511   1.440   5.989   3.144
   18CHOL   C19  512   1.548   6.009   2.711
   18CHOL   C20  513   1.456   5.827   3.394
   18CHOL   C21  514   1.590   5.762   3.433
   18CHOL   C22  515   1.361   5.814   3.514
   18CHOL   C23  516   1.401   5.913   3.624
   18CHOL   C24  517   1.313   5.899   3.749
   18CHOL   C25  518   1.346   6.006   3.854
   18CHOL   C26  519   1.275   5.972   3.985
   18CHOL   C27  520   1.297   6.143   3.807
   18CHOL   O28  521   1.661   5.814   2.293
   18CHOL   H29  522   1.599   5.766   2.224
   19CHOL    C1  523   2.859   6.671   2.766
   19CHOL    C2  524   2.850   6.662   2.613
   19CHOL    C3  525   2.854   6.515   2.569
   19CHOL    C4  526   2.737   6.438   2.632
   19CHOL    C5  527   2.729   6.454   2.783
   19CHOL    C6  528   2.693   6.352   2.862
   19CHOL    C7  529   2.674   6.359   3.012
   19CHOL    C8  530   2.666   6.504   3.059
   19CHOL    C9  531   2.773   6.588   2.987
   19CHOL   C10  532   2.743   6.596   2.835
   19CHOL   C11  533   2.786   6.727   3.052
   19CHOL   C12  534   2.804   6.726   3.204
   19CHOL   C13  535   2.693   6.646   3.274
   19CHOL   C14  536   2.694   6.506   3.211
   19CHOL   C15  537   2.599   6.423   3.298
   19CHOL   C16  538   2.618   6.485   3.439
   19CHOL   C17  539   2.718   6.603   3.422
   19CHOL   C18  540   2.559   6.721   3.259
   19CHOL   C19  541   2.612   6.673   2.811
   19CHOL   C20  542   2.700   6.712   3.530
   19CHOL   C21  543   2.821   6.806   3.535
   19CHOL   C22  544   2.682   6.651   3.671
   19CHOL   C23  545   2.633   6.755   3.773
   19CHOL   C24  546   2.622   6.694   3.913
   19CHOL   C25  547   2.570   6.794   4.016
   19CHOL   C26  548   2.548   6.722   4.150
   19CHOL   C27  549   2.671   6.907   4.037
   19CHOL   O28  550   2.845   6.509   2.426
   19CHOL   H29  551   2.751   6.537   2.397
   20CHOL    C1  552   0.842   8.256   2.766
   20CHOL    C2  553   0.793   8.273   2.622
   20CHOL    C3  554   0.772   8.137   2.554
   20CHOL    C4  555   0.678   8.047   2.637
   20CHOL    C5  556   0.709   8.043   2.787
   20CHOL    C6  557   0.688   7.932   2.861
   20CHOL    C7  558   0.702   7.924   3.011
   20CHOL    C8  559   0.702   8.064   3.071
   20CHOL    C9  560   0.799   8.153   2.990
   20CHOL   C10  561   0.741   8.178   2.850
   20CHOL   C11  562   0.827   8.285   3.064
   20CHOL   C12  563   0.855   8.277   3.216
   20CHOL   C13  564   0.744   8.198   3.288
   20CHOL   C14  565   0.739   8.060   3.221
   20CHOL   C15  566   0.646   7.977   3.310
   20CHOL   C16  567   0.672   8.035   3.451
   20CHOL   C17  568   0.770   8.155   3.434
   20CHOL   C18  569   0.612   8.277   3.277
   20CHOL   C19  570   0.610   8.259   2.862
   20CHOL   C20  571   0.747   8.263   3.543
   20CHOL   C21  572   0.861   8.366   3.547
   20CHOL   C22  573   0.732   8.202   3.683
   20CHOL   C23  574   0.673   8.301   3.783
   20CHOL   C24  575   0.643   8.233   3.917
   20CHOL   C25  576   0.579   8.329   4.018
   20CHOL   C26  577   0.530   8.249   4.139
   20CHOL   C27  578   0.681   8.433   4.066
   20CHOL   O28  579   0.714   8.160   2.425
   20CHOL   H29  580   0.735   8.077   2.366
   21CHOL    C1  581   0.455   7.525   2.721
   21CHOL    C2  582   0.474   7.459   2.583
   21CHOL    C3  583   0.617   7.406   2.568
   21CHOL    C4  584   0.646   7.304   2.678
   21CHOL    C5  585   0.623   7.361   2.817
   21CHOL    C6  586   0.710   7.338   2.917
   21CHOL    C7  587   0.690   7.382   3.060
   21CHOL    C8  588   0.545   7.422   3.085
   21CHOL    C9  589   0.494   7.510   2.968
   21CHOL   C10  590   0.488   7.429   2.837
   21CHOL   C11  591   0.358   7.573   3.006
   21CHOL   C12  592   0.354   7.646   3.142
   21CHOL   C13  593   0.404   7.556   3.256
   21CHOL   C14  594   0.543   7.505   3.214
   21CHOL   C15  595   0.599   7.435   3.338
   21CHOL   C16  596   0.537   7.517   3.454
   21CHOL   C17  597   0.446   7.625   3.388
   21CHOL   C18  598   0.302   7.443   3.281
   21CHOL   C19  599   0.379   7.320   2.847
   21CHOL   C20  600   0.332   7.672   3.481
   21CHOL   C21  601   0.282   7.810   3.437
   21CHOL   C22  602   0.375   7.679   3.629
   21CHOL   C23  603   0.259   7.706   3.726
   21CHOL   C24  604   0.303   7.689   3.872
   21CHOL   C25  605   0.408   7.792   3.919
   21CHOL   C26  606   0.462   7.748   4.055
   21CHOL   C27  607   0.343   7.930   3.935
   21CHOL   O28  608   0.633   7.342   2.441
   21CHOL   H29  609   0.646   7.414   2.368
   22CHOL    C1  610   9.890   8.224   2.802
   22CHOL    C2  611   9.885   8.223   2.649
   22CHOL    C3  612   9.767   8.137   2.602
   22CHOL    C4  613   9.635   8.197   2.653
   22CHOL    C5  614   9.636   8.214   2.805
   22CHOL    C6  615   9.528   8.187   2.881
   22CHOL    C7  616   9.519   8.208   3.031
   22CHOL    C8  617   9.635   8.294   3.082
   22CHOL    C9  618   9.766   8.250   3.013
   22CHOL   C10  619   9.761   8.280   2.862
   22CHOL   C11  620   9.889   8.317   3.077
   22CHOL   C12  621   9.897   8.299   3.229
   22CHOL   C13  622   9.768   8.346   3.298
   22CHOL   C14  623   9.652   8.268   3.233
   22CHOL   C15  624   9.531   8.298   3.323
   22CHOL   C16  625   9.594   8.315   3.463
   22CHOL   C17  626   9.747   8.301   3.445
   22CHOL   C18  627   9.756   8.500   3.285
   22CHOL   C19  628   9.753   8.432   2.836
   22CHOL   C20  629   9.826   8.376   3.556
   22CHOL   C21  630   9.976   8.347   3.551
   22CHOL   C22  631   9.775   8.338   3.696
   22CHOL   C23  632   9.839   8.421   3.808
   22CHOL   C24  633   9.789   8.379   3.946
   22CHOL   C25  634   9.644   8.420   3.973
   22CHOL   C26  635   9.634   8.572   3.993
   22CHOL   C27  636   9.593   8.349   4.098
   22CHOL   O28  637   9.773   8.128   2.459
   22CHOL   H29  638   9.860   8.078   2.435
   23CHOL    C1  639   2.258   8.086   2.710
   23CHOL    C2  640   2.302   8.090   2.563
   23CHOL    C3  641   2.244   8.213   2.493
   23CHOL    C4  642   2.288   8.341   2.565
   23CHOL    C5  643   2.259   8.339   2.714
   23CHOL    C6  644   2.215   8.448   2.778
   23CHOL    C7  645   2.192   8.459   2.927
   23CHOL    C8  646   2.261   8.343   3.001
   23CHOL    C9  647   2.233   8.212   2.925
   23CHOL   C10  648   2.301   8.212   2.787
   23CHOL   C11  649   2.275   8.091   3.011
   23CHOL   C12  650   2.222   8.091   3.156
   23CHOL   C13  651   2.258   8.221   3.229
   23CHOL   C14  652   2.202   8.336   3.143
   23CHOL   C15  653   2.219   8.462   3.229
   23CHOL   C16  654   2.203   8.407   3.373
   23CHOL   C17  655   2.182   8.254   3.360
   23CHOL   C18  656   2.411   8.227   3.250
   23CHOL   C19  657   2.454   8.212   2.803
   23CHOL   C20  658   2.221   8.177   3.489
   23CHOL   C21  659   2.165   8.035   3.488
   23CHOL   C22  660   2.171   8.249   3.616
   23CHOL   C23  661   2.214   8.180   3.746
   23CHOL   C24  662   2.166   8.259   3.868
   23CHOL   C25  663   2.197   8.188   4.001
   23CHOL   C26  664   2.134   8.268   4.115
   23CHOL   C27  665   2.348   8.178   4.025
   23CHOL   O28  666   2.291   8.215   2.357
   23CHOL   H29  667   2.394   8.226   2.357
   24CHOL    C1  668   0.567   8.829   2.525
   24CHOL    C2  669   0.547   8.833   2.372
   24CHOL    C3  670   0.516   8.692   2.320
   24CHOL    C4  671   0.386   8.642   2.385
   24CHOL    C5  672   0.399   8.639   2.536
   24CHOL    C6  673   0.363   8.531   2.608
   24CHOL    C7  674   0.368   8.522   2.758
   24CHOL    C8  675   0.383   8.660   2.821
   24CHOL    C9  676   0.490   8.742   2.745
   24CHOL   C10  677   0.446   8.770   2.599
   24CHOL   C11  678   0.523   8.871   2.823
   24CHOL   C12  679   0.559   8.852   2.971
   24CHOL   C13  680   0.453   8.769   3.045
   24CHOL   C14  681   0.435   8.640   2.965
   24CHOL   C15  682   0.348   8.550   3.054
   24CHOL   C16  683   0.392   8.590   3.197
   24CHOL   C17  684   0.493   8.708   3.182
   24CHOL   C18  685   0.323   8.852   3.059
   24CHOL   C19  686   0.329   8.871   2.597
   24CHOL   C20  687   0.489   8.801   3.306
   24CHOL   C21  688   0.606   8.900   3.307
   24CHOL   C22  689   0.494   8.721   3.437
   24CHOL   C23  690   0.438   8.800   3.555
   24CHOL   C24  691   0.438   8.714   3.682
   24CHOL   C25  692   0.367   8.782   3.800
   24CHOL   C26  693   0.355   8.681   3.914
   24CHOL   C27  694   0.445   8.903   3.849
   24CHOL   O28  695   0.503   8.693   2.177
   24CHOL   H29  696   0.588   8.652   2.139
   25CHOL    C1  697   3.441   6.541   2.868
   25CHOL    C2  698   3.434   6.547   2.715
   25CHOL    C3  699   3.361   6.423   2.660
   25CHOL    C4  700   3.220   6.415   2.719
   25CHOL    C5  701   3.219   6.419   2.870
   25CHOL    C6  702   3.137   6.339   2.941
   25CHOL    C7  703   3.122   6.342   3.091
   25CHOL    C8  704   3.183   6.470   3.150
   25CHOL    C9  705   3.319   6.501   3.083
   25CHOL   C10  706   3.302   6.531   2.933
   25CHOL   C11  707   3.390   6.616   3.158
   25CHOL   C12  708   3.405   6.596   3.311
   25CHOL   C13  709   3.270   6.560   3.375
   25CHOL   C14  710   3.212   6.441   3.298
   25CHOL   C15  711   3.094   6.392   3.384
   25CHOL   C16  712   3.145   6.417   3.529
   25CHOL   C17  713   3.281   6.490   3.512
   25CHOL   C18  714   3.178   6.684   3.377
   25CHOL   C19  715   3.227   6.665   2.914
   25CHOL   C20  716   3.335   6.566   3.635
   25CHOL   C21  717   3.418   6.468   3.718
   25CHOL   C22  718   3.222   6.623   3.724
   25CHOL   C23  719   3.271   6.700   3.847
   25CHOL   C24  720   3.152   6.742   3.933
   25CHOL   C25  721   3.196   6.801   4.068
   25CHOL   C26  722   3.260   6.693   4.156
   25CHOL   C27  723   3.074   6.858   4.141
   25CHOL   O28  724   3.350   6.432   2.517
   25CHOL   H29  725   3.442   6.441   2.474
   26CHOL    C1  726   2.681   7.069   2.699
   26CHOL    C2  727   2.688   7.080   2.546
   26CHOL    C3  728   2.571   7.005   2.482
   26CHOL    C4  729   2.437   7.058   2.533
   26CHOL    C5  730   2.427   7.069   2.684
   26CHOL    C6  731   2.312   7.047   2.749
   26CHOL    C7  732   2.289   7.064   2.897
   26CHOL    C8  733   2.404   7.141   2.961
   26CHOL    C9  734   2.539   7.092   2.903
   26CHOL   C10  735   2.549   7.128   2.754
   26CHOL   C11  736   2.657   7.150   2.984
   26CHOL   C12  737   2.648   7.128   3.136
   26CHOL   C13  738   2.514   7.181   3.192
   26CHOL   C14  739   2.403   7.111   3.112
   26CHOL   C15  740   2.273   7.146   3.187
   26CHOL   C16  741   2.320   7.154   3.334
   26CHOL   C17  742   2.474   7.133   3.334
   26CHOL   C18  743   2.511   7.335   3.181
   26CHOL   C19  744   2.550   7.281   2.734
   26CHOL   C20  745   2.540   7.203   3.455
   26CHOL   C21  746   2.688   7.166   3.470
   26CHOL   C22  747   2.471   7.164   3.587
   26CHOL   C23  748   2.508   7.259   3.702
   26CHOL   C24  749   2.444   7.216   3.835
   26CHOL   C25  750   2.291   7.217   3.834
   26CHOL   C26  751   2.235   7.359   3.822
   26CHOL   C27  752   2.239   7.152   3.963
   26CHOL   O28  753   2.577   7.023   2.340
   26CHOL   H29  754   2.554   7.122   2.321
   27CHOL    C1  755   4.528   6.840   2.986
   27CHOL    C2  756   4.490   6.817   2.839
   27CHOL    C3  757   4.589   6.723   2.769
   27CHOL    C4  758   4.606   6.591   2.846
   27CHOL    C5  759   4.623   6.606   2.996
   27CHOL    C6  760   4.699   6.520   3.067
   27CHOL    C7  761   4.711   6.518   3.218
   27CHOL    C8  762   4.597   6.598   3.281
   27CHOL    C9  763   4.583   6.732   3.206
   27CHOL   C10  764   4.531   6.707   3.063
   27CHOL   C11  765   4.490   6.827   3.285
   27CHOL   C12  766   4.516   6.840   3.436
   27CHOL   C13  767   4.518   6.701   3.504
   27CHOL   C14  768   4.626   6.620   3.430
   27CHOL   C15  769   4.644   6.493   3.515
   27CHOL   C16  770   4.617   6.543   3.659
   27CHOL   C17  771   4.575   6.693   3.647
   27CHOL   C18  772   4.377   6.638   3.497
   27CHOL   C19  773   4.389   6.647   3.070
   27CHOL   C20  774   4.486   6.734   3.767
   27CHOL   C21  775   4.455   6.884   3.769
   27CHOL   C22  776   4.556   6.698   3.899
   27CHOL   C23  777   4.467   6.710   4.023
   27CHOL   C24  778   4.543   6.667   4.149
   27CHOL   C25  779   4.659   6.761   4.183
   27CHOL   C26  780   4.608   6.888   4.252
   27CHOL   C27  781   4.761   6.690   4.271
   27CHOL   O28  782   4.539   6.694   2.639
   27CHOL   H29  783   4.491   6.779   2.604
   28CHOL    C1  784   4.119   6.582   2.821
   28CHOL    C2  785   4.136   6.579   2.668
   28CHOL    C3  786   4.105   6.439   2.615
   28CHOL    C4  787   3.961   6.400   2.651
   28CHOL    C5  788   3.935   6.408   2.801
   28CHOL    C6  789   3.867   6.313   2.866
   28CHOL    C7  790   3.831   6.317   3.013
   28CHOL    C8  791   3.853   6.456   3.073
   28CHOL    C9  792   3.985   6.517   3.019
   28CHOL   C10  793   3.979   6.539   2.867
   28CHOL   C11  794   4.017   6.647   3.096
   28CHOL   C12  795   4.024   6.631   3.249
   28CHOL   C13  796   3.894   6.568   3.304
   28CHOL   C14  797   3.873   6.438   3.225
   28CHOL   C15  798   3.760   6.365   3.300
   28CHOL   C16  799   3.784   6.406   3.447
   28CHOL   C17  800   3.901   6.508   3.447
   28CHOL   C18  801   3.778   6.668   3.290
   28CHOL   C19  802   3.877   6.649   2.832
   28CHOL   C20  803   3.890   6.603   3.569
   28CHOL   C21  804   4.009   6.699   3.582
   28CHOL   C22  805   3.881   6.523   3.700
   28CHOL   C23  806   3.840   6.607   3.821
   28CHOL   C24  807   3.837   6.522   3.948
   28CHOL   C25  808   3.790   6.601   4.070
   28CHOL   C26  809   3.641   6.635   4.058
   28CHOL   C27  810   3.814   6.519   4.197
   28CHOL   O28  811   4.122   6.437   2.472
   28CHOL   H29  812   4.057   6.509   2.434
   29CHOL    C1  813   3.468   7.674   2.736
   29CHOL    C2  814   3.491   7.655   2.585
   29CHOL    C3  815   3.640   7.631   2.559
   29CHOL    C4  816   3.685   7.504   2.631
   29CHOL    C5  817   3.660   7.514   2.781
   29CHOL    C6  818   3.752   7.477   2.871
   29CHOL    C7  819   3.734   7.479   3.021
   29CHOL    C8  820   3.586   7.495   3.058
   29CHOL    C9  821   3.521   7.601   2.967
   29CHOL   C10  822   3.519   7.556   2.820
   29CHOL   C11  823   3.380   7.638   3.018
   29CHOL   C12  824   3.376   7.680   3.165
   29CHOL   C13  825   3.439   7.574   3.257
   29CHOL   C14  826   3.581   7.548   3.203
   29CHOL   C15  827   3.647   7.460   3.310
   29CHOL   C16  828   3.583   7.512   3.442
   29CHOL   C17  829   3.479   7.620   3.400
   29CHOL   C18  830   3.349   7.449   3.261
   29CHOL   C19  831   3.423   7.436   2.801
   29CHOL   C20  832   3.370   7.640   3.507
   29CHOL   C21  833   3.278   7.759   3.476
   29CHOL   C22  834   3.432   7.663   3.646
   29CHOL   C23  835   3.329   7.670   3.759
   29CHOL   C24  836   3.397   7.692   3.895
   29CHOL   C25  837   3.297   7.704   4.010
   29CHOL   C26  838   3.216   7.834   4.000
   29CHOL   C27  839   3.371   7.699   4.144
   29CHOL   O28  840   3.662   7.621   2.418
   29CHOL   H29  841   3.654   7.716   2.379
   30CHOL    C1  842   1.779   8.424   2.505
   30CHOL    C2  843   1.780   8.446   2.353
   30CHOL    C3  844   1.641   8.423   2.292
   30CHOL    C4  845   1.542   8.520   2.358
   30CHOL    C5  846   1.537   8.501   2.508
   30CHOL    C6  847   1.421   8.485   2.573
   30CHOL    C7  848   1.408   8.471   2.723
   30CHOL    C8  849   1.535   8.521   2.791
   30CHOL    C9  850   1.658   8.458   2.722
   30CHOL   C10  851   1.673   8.510   2.577
   30CHOL   C11  852   1.784   8.484   2.808
   30CHOL   C12  853   1.773   8.453   2.958
   30CHOL   C13  854   1.651   8.523   3.021
   30CHOL   C14  855   1.530   8.478   2.938
   30CHOL   C15  856   1.408   8.528   3.017
   30CHOL   C16  857   1.455   8.518   3.164
   30CHOL   C17  858   1.604   8.472   3.160
   30CHOL   C18  859   1.673   8.675   3.022
   30CHOL   C19  860   1.717   8.658   2.577
   30CHOL   C20  861   1.681   8.523   3.285
   30CHOL   C21  862   1.817   8.454   3.298
   30CHOL   C22  863   1.602   8.497   3.414
   30CHOL   C23  864   1.657   8.573   3.535
   30CHOL   C24  865   1.571   8.546   3.659
   30CHOL   C25  866   1.620   8.620   3.783
   30CHOL   C26  867   1.757   8.568   3.829
   30CHOL   C27  868   1.518   8.604   3.896
   30CHOL   O28  869   1.643   8.447   2.151
   30CHOL   H29  870   1.546   8.448   2.114
   31CHOL    C1  871   4.021   7.213   2.865
   31CHOL    C2  872   4.030   7.200   2.712
   31CHOL    C3  873   4.154   7.276   2.662
   31CHOL    C4  874   4.280   7.213   2.723
   31CHOL    C5  875   4.275   7.215   2.875
   31CHOL    C6  876   4.382   7.251   2.947
   31CHOL    C7  877   4.389   7.252   3.098
   31CHOL    C8  878   4.270   7.177   3.160
   31CHOL    C9  879   4.140   7.211   3.083
   31CHOL   C10  880   4.146   7.162   2.937
   31CHOL   C11  881   4.017   7.157   3.159
   31CHOL   C12  882   4.009   7.198   3.307
   31CHOL   C13  883   4.139   7.163   3.382
   31CHOL   C14  884   4.254   7.229   3.304
   31CHOL   C15  885   4.376   7.213   3.395
   31CHOL   C16  886   4.315   7.218   3.537
   31CHOL   C17  887   4.162   7.233   3.519
   31CHOL   C18  888   4.150   7.010   3.394
   31CHOL   C19  889   4.148   7.008   2.932
   31CHOL   C20  890   4.079   7.175   3.637
   31CHOL   C21  891   3.944   7.247   3.646
   31CHOL   C22  892   4.151   7.186   3.772
   31CHOL   C23  893   4.086   7.100   3.881
   31CHOL   C24  894   4.174   7.094   4.006
   31CHOL   C25  895   4.114   7.009   4.118
   31CHOL   C26  896   4.206   7.017   4.240
   31CHOL   C27  897   4.103   6.862   4.075
   31CHOL   O28  898   4.160   7.273   2.519
   31CHOL   H29  899   4.171   7.174   2.491
   32CHOL    C1  900   3.445   8.470   2.678
   32CHOL    C2  901   3.519   8.451   2.545
   32CHOL    C3  902   3.537   8.584   2.473
   32CHOL    C4  903   3.610   8.687   2.561
   32CHOL    C5  904   3.552   8.699   2.702
   32CHOL    C6  905   3.547   8.817   2.766
   32CHOL    C7  906   3.502   8.836   2.909
   32CHOL    C8  907   3.498   8.703   2.984
   32CHOL    C9  908   3.434   8.595   2.894
   32CHOL   C10  909   3.522   8.566   2.771
   32CHOL   C11  910   3.406   8.467   2.974
   32CHOL   C12  911   3.329   8.488   3.105
   32CHOL   C13  912   3.397   8.593   3.195
   32CHOL   C14  913   3.412   8.720   3.110
   32CHOL   C15  914   3.456   8.828   3.210
   32CHOL   C16  915   3.384   8.786   3.341
   32CHOL   C17  916   3.311   8.652   3.310
   32CHOL   C18  917   3.532   8.538   3.248
   32CHOL   C19  918   3.654   8.500   2.815
   32CHOL   C20  919   3.286   8.571   3.439
   32CHOL   C21  920   3.210   8.439   3.414
   32CHOL   C22  921   3.203   8.654   3.538
   32CHOL   C23  922   3.181   8.588   3.674
   32CHOL   C24  923   3.094   8.676   3.764
   32CHOL   C25  924   3.065   8.611   3.900
   32CHOL   C26  925   2.996   8.714   3.990
   32CHOL   C27  926   2.973   8.490   3.883
   32CHOL   O28  927   3.615   8.561   2.355
   32CHOL   H29  928   3.596   8.636   2.286
   33CHOL    C1  929   0.765   2.113   2.694
   33CHOL    C2  930   0.801   2.084   2.548
   33CHOL    C3  931   0.711   2.164   2.453
   33CHOL    C4  932   0.722   2.315   2.483
   33CHOL    C5  933   0.706   2.351   2.630
   33CHOL    C6  934   0.646   2.465   2.667
   33CHOL    C7  935   0.634   2.516   2.809
   33CHOL    C8  936   0.727   2.438   2.903
   33CHOL    C9  937   0.723   2.287   2.869
   33CHOL   C10  938   0.781   2.262   2.728
   33CHOL   C11  939   0.796   2.205   2.977
   33CHOL   C12  940   0.750   2.231   3.122
   33CHOL   C13  941   0.755   2.382   3.153
   33CHOL   C14  942   0.673   2.455   3.046
   33CHOL   C15  943   0.659   2.598   3.100
   33CHOL   C16  944   0.649   2.578   3.253
   33CHOL   C17  945   0.669   2.425   3.274
   33CHOL   C18  946   0.901   2.429   3.162
   33CHOL   C19  947   0.931   2.298   2.725
   33CHOL   C20  948   0.702   2.379   3.418
   33CHOL   C21  949   0.571   2.373   3.497
   33CHOL   C22  950   0.799   2.474   3.492
   33CHOL   C23  951   0.844   2.420   3.628
   33CHOL   C24  952   0.942   2.517   3.695
   33CHOL   C25  953   0.985   2.472   3.835
   33CHOL   C26  954   0.868   2.480   3.933
   33CHOL   C27  955   1.100   2.560   3.884
   33CHOL   O28  956   0.752   2.140   2.318
   33CHOL   H29  957   0.843   2.186   2.303
   34CHOL    C1  958  10.130   9.303   2.864
   34CHOL    C2  959  10.121   9.280   2.713
   34CHOL    C3  960   0.081   9.347   2.641
   34CHOL    C4  961   0.214   9.291   2.694
   34CHOL    C5  962   0.225   9.301   2.845
   34CHOL    C6  963   0.339   9.340   2.905
   34CHOL    C7  964   0.362   9.344   3.054
   34CHOL    C8  965   0.254   9.263   3.127
   34CHOL    C9  966   0.116   9.297   3.068
   34CHOL   C10  967   0.104   9.249   2.922
   34CHOL   C11  968   0.004   9.238   3.157
   34CHOL   C12  969   0.015   9.272   3.307
   34CHOL   C13  970   0.153   9.233   3.363
   34CHOL   C14  971   0.258   9.304   3.276
   34CHOL   C15  972   0.391   9.282   3.350
   34CHOL   C16  973   0.348   9.281   3.498
   34CHOL   C17  974   0.193   9.295   3.500
   34CHOL   C18  975   0.167   9.079   3.365
   34CHOL   C19  976   0.103   9.095   2.915
   34CHOL   C20  977   0.130   9.234   3.628
   34CHOL   C21  978  10.139   9.269   3.642
   34CHOL   C22  979   0.203   9.284   3.754
   34CHOL   C23  980   0.156   9.215   3.883
   34CHOL   C24  981   0.232   9.268   4.004
   34CHOL   C25  982   0.181   9.208   4.135
   34CHOL   C26  983   0.278   9.247   4.248
   34CHOL   C27  984   0.043   9.264   4.169
   34CHOL   O28  985   0.071   9.322   2.501
   34CHOL   H29  986   0.149   9.372   2.454
   35CHOL    C1  987   1.824   3.620   2.397
   35CHOL    C2  988   1.788   3.645   2.250
   35CHOL    C3  989   1.717   3.523   2.189
   35CHOL    C4  990   1.591   3.489   2.270
   35CHOL    C5  991   1.618   3.473   2.419
   35CHOL    C6  992   1.560   3.376   2.491
   35CHOL    C7  993   1.574   3.358   2.640
   35CHOL    C8  994   1.628   3.485   2.705
   35CHOL    C9  995   1.746   3.540   2.622
   35CHOL   C10  996   1.700   3.586   2.482
   35CHOL   C11  997   1.817   3.653   2.701
   35CHOL   C12  998   1.855   3.621   2.847
   35CHOL   C13  999   1.734   3.567   2.926
   35CHOL   C14 1000   1.679   3.449   2.845
   35CHOL   C15 1001   1.578   3.381   2.939
   35CHOL   C16 1002   1.638   3.406   3.079
   35CHOL   C17 1003   1.765   3.493   3.059
   35CHOL   C18 1004   1.632   3.681   2.949
   35CHOL   C19 1005   1.611   3.711   2.494
   35CHOL   C20 1006   1.796   3.576   3.186
   35CHOL   C21 1007   1.932   3.646   3.177
   35CHOL   C22 1008   1.797   3.487   3.311
   35CHOL   C23 1009   1.784   3.564   3.443
   35CHOL   C24 1010   1.645   3.627   3.459
   35CHOL   C25 1011   1.625   3.693   3.595
   35CHOL   C26 1012   1.621   3.588   3.707
   35CHOL   C27 1013   1.494   3.771   3.594
   35CHOL   O28 1014   1.681   3.552   2.054
   35CHOL   H29 1015   1.647   3.465   2.009
   36CHOL    C1 1016   1.540   9.005   2.306
   36CHOL    C2 1017   1.558   9.032   2.156
   36CHOL    C3 1018   1.423   9.049   2.085
   36CHOL    C4 1019   1.341   9.160   2.153
   36CHOL    C5 1020   1.327   9.140   2.302
   36CHOL    C6 1021   1.209   9.156   2.364
   36CHOL    C7 1022   1.188   9.146   2.513
   36CHOL    C8 1023   1.321   9.158   2.586
   36CHOL    C9 1024   1.426   9.067   2.520
   36CHOL   C10 1025   1.458   9.114   2.376
   36CHOL   C11 1026   1.553   9.060   2.608
   36CHOL   C12 1027   1.532   9.031   2.758
   36CHOL   C13 1028   1.427   9.126   2.819
   36CHOL   C14 1029   1.302   9.112   2.732
   36CHOL   C15 1030   1.191   9.183   2.811
   36CHOL   C16 1031   1.228   9.151   2.957
   36CHOL   C17 1032   1.367   9.083   2.956
   36CHOL   C18 1033   1.482   9.271   2.825
   36CHOL   C19 1034   1.539   9.245   2.380
   36CHOL   C20 1035   1.444   9.117   3.086
   36CHOL   C21 1036   1.583   9.053   3.095
   36CHOL   C22 1037   1.366   9.069   3.210
   36CHOL   C23 1038   1.388   9.159   3.332
   36CHOL   C24 1039   1.305   9.288   3.320
   36CHOL   C25 1040   1.331   9.392   3.429
   36CHOL   C26 1041   1.310   9.337   3.570
   36CHOL   C27 1042   1.470   9.455   3.413
   36CHOL   O28 1043   1.446   9.088   1.949
   36CHOL   H29 1044   1.505   9.172   1.951
   37CHOL    C1 1045   1.301   0.271   2.805
   37CHOL    C2 1046   1.272   0.237   2.658
   37CHOL    C3 1047   1.320   0.096   2.626
   37CHOL    C4 1048   1.252  10.496   2.718
   37CHOL    C5 1049   1.261   0.028   2.866
   37CHOL    C6 1050   1.275  10.436   2.960
   37CHOL    C7 1051   1.276  10.460   3.110
   37CHOL    C8 1052   1.228   0.099   3.144
   37CHOL    C9 1053   1.286   0.200   3.043
   37CHOL   C10 1054   1.232   0.173   2.901
   37CHOL   C11 1055   1.258   0.345   3.088
   37CHOL   C12 1056   1.305   0.376   3.231
   37CHOL   C13 1057   1.247   0.276   3.333
   37CHOL   C14 1058   1.283   0.136   3.283
   37CHOL   C15 1059   1.246   0.042   3.399
   37CHOL   C16 1060   1.275   0.129   3.524
   37CHOL   C17 1061   1.316   0.270   3.472
   37CHOL   C18 1062   1.095   0.300   3.349
   37CHOL   C19 1063   1.080   0.197   2.895
   37CHOL   C20 1064   1.287   0.378   3.579
   37CHOL   C21 1065   1.328   0.519   3.534
   37CHOL   C22 1066   1.364   0.346   3.708
   37CHOL   C23 1067   1.332   0.437   3.828
   37CHOL   C24 1068   1.192   0.411   3.884
   37CHOL   C25 1069   1.160   0.501   4.004
   37CHOL   C26 1070   1.253   0.472   4.122
   37CHOL   C27 1071   1.015   0.478   4.048
   37CHOL   O28 1072   1.289   0.067   2.489
   37CHOL   H29 1073   1.332  10.481   2.461
   38CHOL    C1 1074   0.638   0.021   3.087
   38CHOL    C2 1075   0.682   0.023   2.940
   38CHOL    C3 1076   0.603   0.127   2.861
   38CHOL    C4 1077   0.616   0.267   2.924
   38CHOL    C5 1078   0.594   0.270   3.075
   38CHOL    C6 1079   0.536   0.375   3.136
   38CHOL    C7 1080   0.519   0.392   3.285
   38CHOL    C8 1081   0.608   0.294   3.362
   38CHOL    C9 1082   0.597   0.156   3.294
   38CHOL   C10 1083   0.660   0.157   3.153
   38CHOL   C11 1084   0.657   0.048   3.386
   38CHOL   C12 1085   0.693   0.083   3.532
   38CHOL   C13 1086   0.592   0.180   3.596
   38CHOL   C14 1087   0.587   0.311   3.514
   38CHOL   C15 1088   0.709   0.392   3.563
   38CHOL   C16 1089   0.760   0.322   3.691
   38CHOL   C17 1090   0.644   0.230   3.734
   38CHOL   C18 1091   0.451   0.121   3.609
   38CHOL   C19 1092   0.811   0.185   3.164
   38CHOL   C20 1093   0.687   0.120   3.835
   38CHOL   C21 1094   0.568   0.073   3.919
   38CHOL   C22 1095   0.798   0.167   3.931
   38CHOL   C23 1096   0.857   0.055   4.018
   38CHOL   C24 1097   0.939  10.455   3.940
   38CHOL   C25 1098   1.076   0.003   3.893
   38CHOL   C26 1099   1.140  10.400   3.803
   38CHOL   C27 1100   1.169   0.025   4.013
   38CHOL   O28 1101   0.652   0.133   2.727
   38CHOL   H29 1102   0.677   0.038   2.695
   39CHOL    C1 1103   2.740  10.495   2.571
   39CHOL    C2 1104   2.704   0.036   2.429
   39CHOL    C3 1105   2.694  10.418   2.335
   39CHOL    C4 1106   2.592  10.316   2.388
   39CHOL    C5 1107   2.609  10.281   2.535
   39CHOL    C6 1108   2.583  10.158   2.584
   39CHOL    C7 1109   2.585  10.119   2.731
   39CHOL    C8 1110   2.586  10.243   2.821
   39CHOL    C9 1111   2.686  10.345   2.762
   39CHOL   C10 1112   2.634  10.399   2.627
   39CHOL   C11 1113   2.713  10.461   2.861
   39CHOL   C12 1114   2.746  10.421   3.005
   39CHOL   C13 1115   2.639  10.325   3.060
   39CHOL   C14 1116   2.629  10.205   2.964
   39CHOL   C15 1117   2.542  10.104   3.042
   39CHOL   C16 1118   2.583  10.128   3.190
   39CHOL   C17 1119   2.684  10.245   3.184
   39CHOL   C18 1120   2.506  10.401   3.079
   39CHOL   C19 1121   2.501  10.475   2.648
   39CHOL   C20 1122   2.718  10.319   3.315
   39CHOL   C21 1123   2.824  10.237   3.389
   39CHOL   C22 1124   2.599  10.338   3.410
   39CHOL   C23 1125   2.628  10.442   3.519
   39CHOL   C24 1126   2.513  10.450   3.619
   39CHOL   C25 1127   2.530   0.058   3.723
   39CHOL   C26 1128   2.407   0.060   3.814
   39CHOL   C27 1129   2.655   0.035   3.810
   39CHOL   O28 1130   2.656  10.467   2.206
   39CHOL   H29 1131   2.676   0.064   2.201
   40CHOL    C1 1132   1.806   0.808   2.576
   40CHOL    C2 1133   1.798   0.797   2.423
   40CHOL    C3 1134   1.656   0.828   2.375
   40CHOL    C4 1135   1.615   0.969   2.419
   40CHOL    C5 1136   1.628   0.988   2.569
   40CHOL    C6 1137   1.533   1.050   2.642
   40CHOL    C7 1138   1.542   1.080   2.789
   40CHOL    C8 1139   1.687   1.066   2.838
   40CHOL    C9 1140   1.748   0.936   2.781
   40CHOL   C10 1141   1.763   0.946   2.628
   40CHOL   C11 1142   1.882   0.904   2.850
   40CHOL   C12 1143   1.881   0.908   3.004
   40CHOL   C13 1144   1.824   1.042   3.055
   40CHOL   C14 1145   1.685   1.057   2.992
   40CHOL   C15 1146   1.621   1.175   3.066
   40CHOL   C16 1147   1.681   1.165   3.208
   40CHOL   C17 1148   1.784   1.048   3.205
   40CHOL   C18 1149   1.921   1.157   3.019
   40CHOL   C19 1150   1.869   1.051   2.590
   40CHOL   C20 1151   1.898   1.071   3.308
   40CHOL   C21 1152   1.985   0.946   3.326
   40CHOL   C22 1153   1.843   1.110   3.446
   40CHOL   C23 1154   1.953   1.169   3.537
   40CHOL   C24 1155   1.903   1.192   3.680
   40CHOL   C25 1156   1.875   1.062   3.756
   40CHOL   C26 1157   2.005   0.985   3.781
   40CHOL   C27 1158   1.808   1.094   3.890
   40CHOL   O28 1159   1.649   0.817   2.233
   40CHOL   H29 1160   1.721   0.879   2.191
   41CHOL    C1 1161   3.769   4.133   2.710
   41CHOL    C2 1162   3.804   4.075   2.571
   41CHOL    C3 1163   3.834   4.188   2.472
   41CHOL    C4 1164   3.952   4.272   2.524
   41CHOL    C5 1165   3.928   4.325   2.665
   41CHOL    C6 1166   3.962   4.450   2.700
   41CHOL    C7 1167   3.952   4.507   2.840
   41CHOL    C8 1168   3.933   4.396   2.943
   41CHOL    C9 1169   3.829   4.294   2.891
   41CHOL   C10 1170   3.882   4.220   2.766
   41CHOL   C11 1171   3.789   4.196   3.003
   41CHOL   C12 1172   3.744   4.263   3.134
   41CHOL   C13 1173   3.849   4.362   3.187
   41CHOL   C14 1174   3.877   4.460   3.072
   41CHOL   C15 1175   3.963   4.571   3.135
   41CHOL   C16 1176   3.910   4.577   3.280
   41CHOL   C17 1177   3.803   4.466   3.293
   41CHOL   C18 1178   3.974   4.284   3.235
   41CHOL   C19 1179   4.002   4.132   2.803
   41CHOL   C20 1180   3.783   4.423   3.440
   41CHOL   C21 1181   3.666   4.326   3.459
   41CHOL   C22 1182   3.759   4.546   3.529
   41CHOL   C23 1183   3.755   4.517   3.679
   41CHOL   C24 1184   3.737   4.648   3.758
   41CHOL   C25 1185   3.730   4.627   3.909
   41CHOL   C26 1186   3.741   4.763   3.979
   41CHOL   C27 1187   3.596   4.564   3.948
   41CHOL   O28 1188   3.865   4.131   2.344
   41CHOL   H29 1189   3.778   4.085   2.310
   42CHOL    C1 1190   3.250   9.907   2.758
   42CHOL    C2 1191   3.268   9.846   2.618
   42CHOL    C3 1192   3.395   9.899   2.551
   42CHOL    C4 1193   3.518   9.869   2.639
   42CHOL    C5 1194   3.502   9.915   2.783
   42CHOL    C6 1195   3.604   9.971   2.850
   42CHOL    C7 1196   3.601  10.009   2.996
   42CHOL    C8 1197   3.484   9.939   3.067
   42CHOL    C9 1198   3.357   9.957   2.980
   42CHOL   C10 1199   3.370   9.876   2.849
   42CHOL   C11 1200   3.232   9.917   3.061
   42CHOL   C12 1201   3.221   9.972   3.205
   42CHOL   C13 1202   3.348   9.939   3.286
   42CHOL   C14 1203   3.466  10.000   3.207
   42CHOL   C15 1204   3.586   9.987   3.302
   42CHOL   C16 1205   3.521  10.002   3.442
   42CHOL   C17 1206   3.368  10.015   3.420
   42CHOL   C18 1207   3.359   9.787   3.306
   42CHOL   C19 1208   3.373   9.725   2.881
   42CHOL   C20 1209   3.285   9.961   3.539
   42CHOL   C21 1210   3.143  10.018   3.538
   42CHOL   C22 1211   3.348   9.994   3.676
   42CHOL   C23 1212   3.295   9.906   3.790
   42CHOL   C24 1213   3.337   9.760   3.773
   42CHOL   C25 1214   3.287   9.670   3.887
   42CHOL   C26 1215   3.357   9.704   4.019
   42CHOL   C27 1216   3.313   9.523   3.851
   42CHOL   O28 1217   3.411   9.833   2.424
   42CHOL   H29 1218   3.501   9.862   2.383
   43CHOL    C1 1219   4.553   3.322   2.636
   43CHOL    C2 1220   4.506   3.332   2.490
   43CHOL    C3 1221   4.492   3.194   2.425
   43CHOL    C4 1222   4.398   3.106   2.508
   43CHOL    C5 1223   4.437   3.099   2.655
   43CHOL    C6 1224   4.435   2.984   2.724
   43CHOL    C7 1225   4.461   2.971   2.872
   43CHOL    C8 1226   4.448   3.107   2.940
   43CHOL    C9 1227   4.526   3.212   2.859
   43CHOL   C10 1228   4.460   3.234   2.721
   43CHOL   C11 1229   4.539   3.343   2.939
   43CHOL   C12 1230   4.584   3.330   3.086
   43CHOL   C13 1231   4.497   3.228   3.162
   43CHOL   C14 1232   4.505   3.097   3.082
   43CHOL   C15 1233   4.440   2.991   3.173
   43CHOL   C16 1234   4.476   3.041   3.315
   43CHOL   C17 1235   4.552   3.176   3.298
   43CHOL   C18 1236   4.353   3.281   3.178
   43CHOL   C19 1237   4.323   3.303   2.739
   43CHOL   C20 1238   4.534   3.266   3.423
   43CHOL   C21 1239   4.626   3.388   3.420
   43CHOL   C22 1240   4.562   3.188   3.552
   43CHOL   C23 1241   4.516   3.262   3.678
   43CHOL   C24 1242   4.540   3.177   3.803
   43CHOL   C25 1243   4.488   3.246   3.930
   43CHOL   C26 1244   4.530   3.163   4.052
   43CHOL   C27 1245   4.334   3.253   3.928
   43CHOL   O28 1246   4.437   3.209   2.294
   43CHOL   H29 1247   4.357   3.274   2.298
   44CHOL    C1 1248   4.297   9.347   3.019
   44CHOL    C2 1249   4.299   9.295   2.874
   44CHOL    C3 1250   4.435   9.322   2.808
   44CHOL    C4 1251   4.546   9.255   2.890
   44CHOL    C5 1252   4.544   9.295   3.037
   44CHOL    C6 1253   4.657   9.322   3.103
   44CHOL    C7 1254   4.667   9.353   3.250
   44CHOL    C8 1255   4.539   9.309   3.322
   44CHOL    C9 1256   4.416   9.356   3.241
   44CHOL   C10 1257   4.407   9.283   3.105
   44CHOL   C11 1258   4.288   9.339   3.326
   44CHOL   C12 1259   4.293   9.393   3.470
   44CHOL   C13 1260   4.415   9.337   3.546
   44CHOL   C14 1261   4.538   9.373   3.461
   44CHOL   C15 1262   4.659   9.340   3.550
   44CHOL   C16 1263   4.606   9.371   3.693
   44CHOL   C17 1264   4.456   9.409   3.678
   44CHOL   C18 1265   4.397   9.186   3.569
   44CHOL   C19 1266   4.374   9.134   3.127
   44CHOL   C20 1267   4.378   9.374   3.807
   44CHOL   C21 1268   4.236   9.431   3.805
   44CHOL   C22 1269   4.447   9.431   3.932
   44CHOL   C23 1270   4.402   9.365   4.063
   44CHOL   C24 1271   4.467   9.228   4.083
   44CHOL   C25 1272   4.421   9.159   4.212
   44CHOL   C26 1273   4.516   9.045   4.246
   44CHOL   C27 1274   4.281   9.099   4.191
   44CHOL   O28 1275   4.438   9.267   2.676
   44CHOL   H29 1276   4.507   9.318   2.620
   45CHOL    C1 1277   3.176   9.027   2.713
   45CHOL    C2 1278   3.181   9.009   2.560
   45CHOL    C3 1279   3.185   8.860   2.524
   45CHOL    C4 1280   3.063   8.788   2.581
   45CHOL    C5 1281   3.047   8.809   2.731
   45CHOL    C6 1282   3.015   8.709   2.813
   45CHOL    C7 1283   2.988   8.723   2.962
   45CHOL    C8 1284   2.969   8.870   3.000
   45CHOL    C9 1285   3.077   8.955   2.929
   45CHOL   C10 1286   3.056   8.954   2.776
   45CHOL   C11 1287   3.080   9.098   2.985
   45CHOL   C12 1288   3.091   9.105   3.138
   45CHOL   C13 1289   2.979   9.026   3.207
   45CHOL   C14 1290   2.988   8.883   3.152
   45CHOL   C15 1291   2.893   8.801   3.242
   45CHOL   C16 1292   2.904   8.872   3.379
   45CHOL   C17 1293   2.999   8.993   3.358
   45CHOL   C18 1294   2.842   9.093   3.182
   45CHOL   C19 1295   2.925   9.027   2.739
   45CHOL   C20 1296   2.976   9.103   3.465
   45CHOL   C21 1297   3.077   9.218   3.453
   45CHOL   C22 1298   2.988   9.044   3.606
   45CHOL   C23 1299   2.959   9.144   3.719
   45CHOL   C24 1300   2.811   9.178   3.736
   45CHOL   C25 1301   2.731   9.070   3.811
   45CHOL   C26 1302   2.779   9.059   3.957
   45CHOL   C27 1303   2.583   9.108   3.811
   45CHOL   O28 1304   3.187   8.848   2.381
   45CHOL   H29 1305   3.199   8.747   2.356
   46CHOL    C1 1306   3.137   0.892   2.587
   46CHOL    C2 1307   3.136   0.917   2.436
   46CHOL    C3 1308   3.037   0.824   2.365
   46CHOL    C4 1309   2.896   0.839   2.425
   46CHOL    C5 1310   2.893   0.827   2.576
   46CHOL    C6 1311   2.795   0.762   2.642
   46CHOL    C7 1312   2.780   0.754   2.792
   46CHOL    C8 1313   2.868   0.859   2.861
   46CHOL    C9 1314   3.007   0.860   2.795
   46CHOL   C10 1315   2.998   0.909   2.649
   46CHOL   C11 1316   3.108   0.944   2.877
   46CHOL   C12 1317   3.113   0.913   3.027
   46CHOL   C13 1318   2.972   0.920   3.090
   46CHOL   C14 1319   2.884   0.823   3.010
   46CHOL   C15 1320   2.754   0.814   3.091
   46CHOL   C16 1321   2.803   0.832   3.237
   46CHOL   C17 1322   2.956   0.858   3.231
   46CHOL   C18 1323   2.923   1.066   3.087
   46CHOL   C19 1324   2.958   1.058   2.645
   46CHOL   C20 1325   3.007   0.943   3.350
   46CHOL   C21 1326   3.159   0.934   3.365
   46CHOL   C22 1327   2.942   0.901   3.483
   46CHOL   C23 1328   2.966   1.003   3.595
   46CHOL   C24 1329   2.892   0.962   3.722
   46CHOL   C25 1330   2.909   1.063   3.836
   46CHOL   C26 1331   2.842   1.196   3.803
   46CHOL   C27 1332   2.848   1.006   3.964
   46CHOL   O28 1333   3.037   0.859   2.226
   46CHOL   H29 1334   3.134   0.851   2.191
   47CHOL    C1 1335   2.999   0.165   2.219
   47CHOL    C2 1336   3.000   0.102   2.080
   47CHOL    C3 1337   3.041   0.205   1.974
   47CHOL    C4 1338   3.180   0.262   2.007
   47CHOL    C5 1339   3.189   0.317   2.149
   47CHOL    C6 1340   3.255   0.431   2.178
   47CHOL    C7 1341   3.276   0.487   2.318
   47CHOL    C8 1342   3.246   0.381   2.424
   47CHOL    C9 1343   3.116   0.306   2.386
   47CHOL   C10 1344   3.136   0.224   2.257
   47CHOL   C11 1345   3.068   0.217   2.502
   47CHOL   C12 1346   3.058   0.285   2.639
   47CHOL   C13 1347   3.191   0.354   2.676
   47CHOL   C14 1348   3.224   0.450   2.560
   47CHOL   C15 1349   3.340   0.535   2.614
   47CHOL   C16 1350   3.314   0.541   2.766
   47CHOL   C17 1351   3.185   0.457   2.792
   47CHOL   C18 1352   3.300   0.247   2.701
   47CHOL   C19 1353   3.237   0.110   2.280
   47CHOL   C20 1354   3.179   0.398   2.935
   47CHOL   C21 1355   3.035   0.355   2.971
   47CHOL   C22 1356   3.227   0.498   3.042
   47CHOL   C23 1357   3.241   0.432   3.180
   47CHOL   C24 1358   3.287   0.533   3.286
   47CHOL   C25 1359   3.295   0.472   3.426
   47CHOL   C26 1360   3.321   0.582   3.528
   47CHOL   C27 1361   3.409   0.369   3.434
   47CHOL   O28 1362   3.044   0.138   1.848
   47CHOL   H29 1363   3.100   0.051   1.857
   48CHOL    C1 1364   4.232   0.202   2.437
   48CHOL    C2 1365   4.206   0.187   2.287
   48CHOL    C3 1366   4.300   0.082   2.227
   48CHOL    C4 1367   4.275  10.450   2.294
   48CHOL    C5 1368   4.294  10.458   2.445
   48CHOL    C6 1369   4.363  10.365   2.512
   48CHOL    C7 1370   4.381  10.361   2.662
   48CHOL    C8 1371   4.280  10.454   2.730
   48CHOL    C9 1372   4.275   0.086   2.655
   48CHOL   C10 1373   4.217   0.068   2.513
   48CHOL   C11 1374   4.196   0.191   2.738
   48CHOL   C12 1375   4.239   0.206   2.886
   48CHOL   C13 1376   4.241   0.070   2.956
   48CHOL   C14 1377   4.329  10.479   2.873
   48CHOL   C15 1378   4.349  10.355   2.963
   48CHOL   C16 1379   4.353  10.416   3.106
   48CHOL   C17 1380   4.325   0.064   3.085
   48CHOL   C18 1381   4.096   0.019   2.977
   48CHOL   C19 1382   4.068   0.031   2.520
   48CHOL   C20 1383   4.285   0.145   3.211
   48CHOL   C21 1384   4.414   0.199   3.273
   48CHOL   C22 1385   4.211   0.060   3.317
   48CHOL   C23 1386   4.173   0.140   3.442
   48CHOL   C24 1387   4.104   0.052   3.546
   48CHOL   C25 1388   4.075   0.128   3.677
   48CHOL   C26 1389   3.986   0.042   3.766
   48CHOL   C27 1390   4.206   0.154   3.752
   48CHOL   O28 1391   4.282   0.071   2.085
   48CHOL   H29 1392   4.186   0.045   2.061
   49CHOL    C1 1393   1.143   1.098   2.622
   49CHOL    C2 1394   1.124   1.104   2.470
   49CHOL    C3 1395   1.025   0.997   2.423
   49CHOL    C4 1396   0.890   1.011   2.495
   49CHOL    C5 1397   0.902   1.022   2.647
   49CHOL    C6 1398   0.813   0.964   2.729
   49CHOL    C7 1399   0.812   0.977   2.880
   49CHOL    C8 1400   0.901   1.093   2.925
   49CHOL    C9 1401   1.034   1.089   2.846
   49CHOL   C10 1402   1.010   1.118   2.697
   49CHOL   C11 1403   1.135   1.188   2.908
   49CHOL   C12 1404   1.154   1.180   3.060
   49CHOL   C13 1405   1.019   1.188   3.134
   49CHOL   C14 1406   0.931   1.077   3.075
   49CHOL   C15 1407   0.809   1.069   3.168
   49CHOL   C16 1408   0.867   1.110   3.306
   49CHOL   C17 1409   1.017   1.144   3.283
   49CHOL   C18 1410   0.959   1.330   3.117
   49CHOL   C19 1411   0.961   1.263   2.677
   49CHOL   C20 1412   1.072   1.244   3.388
   49CHOL   C21 1413   1.225   1.253   3.386
   49CHOL   C22 1414   1.026   1.206   3.530
   49CHOL   C23 1415   1.068   1.306   3.639
   49CHOL   C24 1416   1.000   1.272   3.772
   49CHOL   C25 1417   1.051   1.358   3.888
   49CHOL   C26 1418   0.956   1.342   4.007
   49CHOL   C27 1419   1.189   1.307   3.932
   49CHOL   O28 1420   1.004   1.014   2.281
   49CHOL   H29 1421   0.950   1.102   2.267
   50CHOL    C1 1422   0.463   0.773   2.929
   50CHOL    C2 1423   0.448   0.770   2.776
   50CHOL    C3 1424   0.373   0.643   2.735
   50CHOL    C4 1425   0.234   0.641   2.799
   50CHOL    C5 1426   0.237   0.658   2.950
   50CHOL    C6 1427   0.151   0.591   3.028
   50CHOL    C7 1428   0.140   0.606   3.178
   50CHOL    C8 1429   0.218   0.728   3.228
   50CHOL    C9 1430   0.351   0.742   3.152
   50CHOL   C10 1431   0.327   0.769   3.002
   50CHOL   C11 1432   0.440   0.850   3.218
   50CHOL   C12 1433   0.467   0.822   3.367
   50CHOL   C13 1434   0.337   0.805   3.447
   50CHOL   C14 1435   0.255   0.697   3.374
   50CHOL   C15 1436   0.137   0.668   3.468
   50CHOL   C16 1437   0.200   0.685   3.608
   50CHOL   C17 1438   0.346   0.732   3.584
   50CHOL   C18 1439   0.265   0.941   3.460
   50CHOL   C19 1440   0.256   0.905   2.983
   50CHOL   C20 1441   0.403   0.801   3.710
   50CHOL   C21 1442   0.550   0.844   3.695
   50CHOL   C22 1443   0.392   0.705   3.829
   50CHOL   C23 1444   0.429   0.767   3.965
   50CHOL   C24 1445   0.412   0.667   4.081
   50CHOL   C25 1446   0.505   0.545   4.074
   50CHOL   C26 1447   0.651   0.586   4.092
   50CHOL   C27 1448   0.467   0.446   4.185
   50CHOL   O28 1449   0.360   0.635   2.592
   50CHOL   H29 1450   0.288   0.699   2.560
   51CHOL    C1 1451   1.885   1.570   2.561
   51CHOL    C2 1452   1.873   1.542   2.410
   51CHOL    C3 1453   1.964   1.637   2.331
   51CHOL    C4 1454   2.109   1.622   2.377
   51CHOL    C5 1455   2.126   1.638   2.527
   51CHOL    C6 1456   2.229   1.707   2.579
   51CHOL    C7 1457   2.259   1.721   2.727
   51CHOL    C8 1458   2.181   1.617   2.808
   51CHOL    C9 1459   2.035   1.610   2.756
   51CHOL   C10 1460   2.029   1.557   2.611
   51CHOL   C11 1461   1.949   1.524   2.851
   51CHOL   C12 1462   1.958   1.563   2.999
   51CHOL   C13 1463   2.103   1.568   3.049
   51CHOL   C14 1464   2.178   1.663   2.954
   51CHOL   C15 1465   2.314   1.687   3.023
   51CHOL   C16 1466   2.278   1.682   3.174
   51CHOL   C17 1467   2.128   1.643   3.182
   51CHOL   C18 1468   2.164   1.426   3.053
   51CHOL   C19 1469   2.071   1.409   2.607
   51CHOL   C20 1470   2.096   1.576   3.318
   51CHOL   C21 1471   1.950   1.529   3.331
   51CHOL   C22 1472   2.124   1.674   3.433
   51CHOL   C23 1473   2.103   1.613   3.571
   51CHOL   C24 1474   2.106   1.720   3.680
   51CHOL   C25 1475   2.065   1.664   3.817
   51CHOL   C26 1476   2.086   1.772   3.923
   51CHOL   C27 1477   1.916   1.626   3.816
   51CHOL   O28 1478   1.956   1.606   2.191
   51CHOL   H29 1479   2.020   1.671   2.141
   52CHOL    C1 1480   0.358   1.736   2.869
   52CHOL    C2 1481   0.371   1.746   2.716
   52CHOL    C3 1482   0.254   1.826   2.656
   52CHOL    C4 1483   0.250   1.966   2.719
   52CHOL    C5 1484   0.246   1.963   2.870
   52CHOL    C6 1485   0.165   2.044   2.940
   52CHOL    C7 1486   0.162   2.055   3.091
   52CHOL    C8 1487   0.289   1.994   3.150
   52CHOL    C9 1488   0.314   1.857   3.084
   52CHOL   C10 1489   0.351   1.874   2.935
   52CHOL   C11 1490   0.422   1.779   3.163
   52CHOL   C12 1491   0.407   1.775   3.316
   52CHOL   C13 1492   0.389   1.917   3.375
   52CHOL   C14 1493   0.268   1.977   3.302
   52CHOL   C15 1494   0.236   2.106   3.379
   52CHOL   C16 1495   0.272   2.069   3.525
   52CHOL   C17 1496   0.335   1.927   3.520
   52CHOL   C18 1497   0.519   1.998   3.359
   52CHOL   C19 1498   0.489   1.943   2.923
   52CHOL   C20 1499   0.430   1.907   3.641
   52CHOL   C21 1500   0.493   1.767   3.645
   52CHOL   C22 1501   0.353   1.926   3.772
   52CHOL   C23 1502   0.442   1.940   3.897
   52CHOL   C24 1503   0.510   2.077   3.908
   52CHOL   C25 1504   0.413   2.191   3.940
   52CHOL   C26 1505   0.489   2.324   3.932
   52CHOL   C27 1506   0.355   2.176   4.081
   52CHOL   O28 1507   0.273   1.839   2.515
   52CHOL   H29 1508   0.266   1.746   2.472
   53CHOL    C1 1509   2.135   2.451   2.646
   53CHOL    C2 1510   2.148   2.477   2.495
   53CHOL    C3 1511   2.011   2.507   2.433
   53CHOL    C4 1512   1.949   2.629   2.502
   53CHOL    C5 1513   1.937   2.608   2.652
   53CHOL    C6 1514   1.823   2.635   2.717
   53CHOL    C7 1515   1.805   2.625   2.866
   53CHOL    C8 1516   1.941   2.623   2.935
   53CHOL    C9 1517   2.033   2.520   2.865
   53CHOL   C10 1518   2.066   2.567   2.721
   53CHOL   C11 1519   2.159   2.494   2.951
   53CHOL   C12 1520   2.138   2.466   3.101
   53CHOL   C13 1521   2.049   2.575   3.164
   53CHOL   C14 1522   1.920   2.581   3.081
   53CHOL   C15 1523   1.824   2.669   3.164
   53CHOL   C16 1524   1.860   2.631   3.310
   53CHOL   C17 1525   1.985   2.538   3.300
   53CHOL   C18 1526   2.127   2.708   3.170
   53CHOL   C19 1527   2.161   2.688   2.725
   53CHOL   C20 1528   2.071   2.528   3.427
   53CHOL   C21 1529   2.016   2.410   3.509
   53CHOL   C22 1530   2.063   2.654   3.516
   53CHOL   C23 1531   2.151   2.649   3.641
   53CHOL   C24 1532   2.117   2.767   3.733
   53CHOL   C25 1533   2.193   2.765   3.866
   53CHOL   C26 1534   2.157   2.640   3.948
   53CHOL   C27 1535   2.155   2.889   3.947
   53CHOL   O28 1536   2.025   2.537   2.293
   53CHOL   H29 1537   2.108   2.597   2.280
   54CHOL    C1 1538   9.945   3.622   2.816
   54CHOL    C2 1539   9.910   3.648   2.668
   54CHOL    C3 1540   9.873   3.518   2.597
   54CHOL    C4 1541   9.754   3.450   2.668
   54CHOL    C5 1542   9.778   3.431   2.817
   54CHOL    C6 1543   9.742   3.318   2.880
   54CHOL    C7 1544   9.752   3.294   3.029
   54CHOL    C8 1545   9.769   3.427   3.103
   54CHOL    C9 1546   9.878   3.510   3.031
   54CHOL   C10 1547   9.829   3.555   2.891
   54CHOL   C11 1548   9.921   3.629   3.119
   54CHOL   C12 1549   9.951   3.598   3.267
   54CHOL   C13 1550   9.833   3.524   3.334
   54CHOL   C14 1551   9.808   3.399   3.248
   54CHOL   C15 1552   9.708   3.315   3.330
   54CHOL   C16 1553   9.747   3.348   3.476
   54CHOL   C17 1554   9.860   3.454   3.470
   54CHOL   C18 1555   9.711   3.619   3.343
   54CHOL   C19 1556   9.712   3.655   2.906
   54CHOL   C20 1557   9.865   3.538   3.600
   54CHOL   C21 1558   9.984   3.635   3.604
   54CHOL   C22 1559   9.873   3.446   3.722
   54CHOL   C23 1560   9.853   3.519   3.856
   54CHOL   C24 1561   9.861   3.419   3.972
   54CHOL   C25 1562   9.836   3.485   4.108
   54CHOL   C26 1563   9.824   3.377   4.216
   54CHOL   C27 1564   9.953   3.577   4.146
   54CHOL   O28 1565   9.835   3.546   2.462
   54CHOL   H29 1566   9.758   3.615   2.461
   55CHOL    C1 1567   1.681   2.145   2.609
   55CHOL    C2 1568   1.673   2.098   2.463
   55CHOL    C3 1569   1.812   2.095   2.397
   55CHOL    C4 1570   1.909   2.009   2.480
   55CHOL    C5 1571   1.911   2.043   2.628
   55CHOL    C6 1572   2.025   2.043   2.699
   55CHOL    C7 1573   2.035   2.064   2.848
   55CHOL    C8 1574   1.897   2.043   2.913
   55CHOL    C9 1575   1.792   2.121   2.831
   55CHOL   C10 1576   1.774   2.055   2.693
   55CHOL   C11 1577   1.659   2.130   2.909
   55CHOL   C12 1578   1.668   2.171   3.057
   55CHOL   C13 1579   1.768   2.081   3.133
   55CHOL   C14 1580   1.902   2.093   3.059
   55CHOL   C15 1581   2.002   2.022   3.151
   55CHOL   C16 1582   1.945   2.048   3.293
   55CHOL   C17 1583   1.814   2.129   3.273
   55CHOL   C18 1584   1.712   1.937   3.140
   55CHOL   C19 1585   1.711   1.915   2.707
   55CHOL   C20 1586   1.711   2.110   3.387
   55CHOL   C21 1587   1.614   2.229   3.391
   55CHOL   C22 1588   1.777   2.097   3.526
   55CHOL   C23 1589   1.676   2.059   3.635
   55CHOL   C24 1590   1.743   2.047   3.772
   55CHOL   C25 1591   1.643   2.018   3.884
   55CHOL   C26 1592   1.582   1.878   3.869
   55CHOL   C27 1593   1.714   2.029   4.019
   55CHOL   O28 1594   1.799   2.039   2.266
   55CHOL   H29 1595   1.743   2.103   2.207
   56CHOL    C1 1596   0.948   3.318   2.697
   56CHOL    C2 1597   0.958   3.294   2.546
   56CHOL    C3 1598   1.013   3.419   2.477
   56CHOL    C4 1599   1.153   3.451   2.531
   56CHOL    C5 1600   1.152   3.469   2.682
   56CHOL    C6 1601   1.220   3.568   2.741
   56CHOL    C7 1602   1.231   3.590   2.890
   56CHOL    C8 1603   1.185   3.466   2.967
   56CHOL    C9 1604   1.056   3.411   2.903
   56CHOL   C10 1605   1.083   3.358   2.760
   56CHOL   C11 1606   0.992   3.304   2.994
   56CHOL   C12 1607   0.974   3.346   3.141
   56CHOL   C13 1608   1.107   3.395   3.203
   56CHOL   C14 1609   1.157   3.508   3.112
   56CHOL   C15 1610   1.276   3.569   3.188
   56CHOL   C16 1611   1.234   3.551   3.336
   56CHOL   C17 1612   1.099   3.474   3.336
   56CHOL   C18 1613   1.204   3.275   3.214
   56CHOL   C19 1614   1.174   3.234   2.765
   56CHOL   C20 1615   1.077   3.396   3.467
   56CHOL   C21 1616   0.934   3.341   3.477
   56CHOL   C22 1617   1.102   3.485   3.590
   56CHOL   C23 1618   1.099   3.407   3.722
   56CHOL   C24 1619   1.116   3.499   3.843
   56CHOL   C25 1620   1.109   3.423   3.976
   56CHOL   C26 1621   0.970   3.363   3.998
   56CHOL   C27 1622   1.142   3.519   4.091
   56CHOL   O28 1623   1.020   3.398   2.335
   56CHOL   H29 1624   1.085   3.319   2.316
   57CHOL    C1 1625   3.625   1.675   2.591
   57CHOL    C2 1626   3.638   1.698   2.440
   57CHOL    C3 1627   3.503   1.737   2.379
   57CHOL    C4 1628   3.451   1.864   2.448
   57CHOL    C5 1629   3.440   1.848   2.599
   57CHOL    C6 1630   3.332   1.888   2.667
   57CHOL    C7 1631   3.317   1.883   2.817
   57CHOL    C8 1632   3.453   1.863   2.884
   57CHOL    C9 1633   3.532   1.753   2.810
   57CHOL   C10 1634   3.567   1.797   2.666
   57CHOL   C11 1635   3.657   1.714   2.891
   57CHOL   C12 1636   3.631   1.677   3.038
   57CHOL   C13 1637   3.554   1.788   3.112
   57CHOL   C14 1638   3.427   1.815   3.028
   57CHOL   C15 1639   3.343   1.908   3.117
   57CHOL   C16 1640   3.374   1.858   3.260
   57CHOL   C17 1641   3.484   1.748   3.245
   57CHOL   C18 1642   3.644   1.912   3.130
   57CHOL   C19 1643   3.670   1.911   2.668
   57CHOL   C20 1644   3.562   1.732   3.377
   57CHOL   C21 1645   3.674   1.627   3.369
   57CHOL   C22 1646   3.465   1.689   3.489
   57CHOL   C23 1647   3.528   1.682   3.629
   57CHOL   C24 1648   3.425   1.629   3.730
   57CHOL   C25 1649   3.479   1.607   3.872
   57CHOL   C26 1650   3.595   1.508   3.876
   57CHOL   C27 1651   3.519   1.739   3.939
   57CHOL   O28 1652   3.517   1.765   2.238
   57CHOL   H29 1653   3.518   1.677   2.184
   58CHOL    C1 1654   2.841   1.437   2.676
   58CHOL    C2 1655   2.859   1.445   2.524
   58CHOL    C3 1656   2.743   1.521   2.458
   58CHOL    C4 1657   2.721   1.659   2.523
   58CHOL    C5 1658   2.726   1.662   2.675
   58CHOL    C6 1659   2.654   1.751   2.745
   58CHOL    C7 1660   2.661   1.770   2.895
   58CHOL    C8 1661   2.785   1.703   2.953
   58CHOL    C9 1662   2.802   1.564   2.889
   58CHOL   C10 1663   2.835   1.577   2.739
   58CHOL   C11 1664   2.909   1.482   2.965
   58CHOL   C12 1665   2.896   1.480   3.119
   58CHOL   C13 1666   2.887   1.622   3.176
   58CHOL   C14 1667   2.768   1.690   3.105
   58CHOL   C15 1668   2.747   1.821   3.182
   58CHOL   C16 1669   2.792   1.786   3.325
   58CHOL   C17 1670   2.838   1.638   3.323
   58CHOL   C18 1671   3.022   1.695   3.155
   58CHOL   C19 1672   2.971   1.648   2.721
   58CHOL   C20 1673   2.940   1.604   3.435
   58CHOL   C21 1674   2.964   1.454   3.453
   58CHOL   C22 1675   2.906   1.665   3.572
   58CHOL   C23 1676   2.775   1.616   3.637
   58CHOL   C24 1677   2.747   1.695   3.765
   58CHOL   C25 1678   2.607   1.669   3.822
   58CHOL   C26 1679   2.594   1.741   3.956
   58CHOL   C27 1680   2.501   1.727   3.727
   58CHOL   O28 1681   2.776   1.540   2.319
   58CHOL   H29 1682   2.843   1.620   2.312
   59CHOL    C1 1683   4.905   1.191   2.764
   59CHOL    C2 1684   4.892   1.161   2.614
   59CHOL    C3 1685   5.032   1.159   2.550
   59CHOL    C4 1686   5.120   1.052   2.616
   59CHOL    C5 1687   5.126   1.065   2.768
   59CHOL    C6 1688   5.239   1.041   2.836
   59CHOL    C7 1689   5.253   1.042   2.987
   59CHOL    C8 1690   5.115   1.042   3.054
   59CHOL    C9 1691   5.022   1.139   2.979
   59CHOL   C10 1692   4.992   1.087   2.837
   59CHOL   C11 1693   4.892   1.165   3.059
   59CHOL   C12 1694   4.915   1.206   3.206
   59CHOL   C13 1695   5.002   1.103   3.280
   59CHOL   C14 1696   5.133   1.091   3.199
   59CHOL   C15 1697   5.225   1.006   3.288
   59CHOL   C16 1698   5.182   1.046   3.431
   59CHOL   C17 1699   5.064   1.146   3.415
   59CHOL   C18 1700   4.924   0.970   3.293
   59CHOL   C19 1701   4.916   0.953   2.843
   59CHOL   C20 1702   4.971   1.148   3.539
   59CHOL   C21 1703   4.881   1.273   3.539
   59CHOL   C22 1704   5.049   1.144   3.671
   59CHOL   C23 1705   4.960   1.131   3.795
   59CHOL   C24 1706   5.041   1.117   3.925
   59CHOL   C25 1707   5.126   1.240   3.960
   59CHOL   C26 1708   5.038   1.360   3.997
   59CHOL   C27 1709   5.219   1.206   4.077
   59CHOL   O28 1710   5.020   1.132   2.410
   59CHOL   H29 1711   4.993   1.033   2.397
   60CHOL    C1 1712   4.034   1.095   2.605
   60CHOL    C2 1713   4.054   1.136   2.458
   60CHOL    C3 1714   3.934   1.217   2.407
   60CHOL    C4 1715   3.914   1.342   2.494
   60CHOL    C5 1716   3.904   1.309   2.642
   60CHOL    C6 1717   3.813   1.368   2.722
   60CHOL    C7 1718   3.804   1.349   2.872
   60CHOL    C8 1719   3.933   1.288   2.925
   60CHOL    C9 1720   3.972   1.169   2.836
   60CHOL   C10 1721   4.014   1.218   2.695
   60CHOL   C11 1722   4.083   1.085   2.904
   60CHOL   C12 1723   4.061   1.051   3.052
   60CHOL   C13 1724   4.034   1.178   3.135
   60CHOL   C14 1725   3.912   1.246   3.071
   60CHOL   C15 1726   3.875   1.358   3.170
   60CHOL   C16 1727   3.913   1.297   3.307
   60CHOL   C17 1728   3.977   1.159   3.278
   60CHOL   C18 1729   4.161   1.266   3.138
   60CHOL   C19 1730   4.145   1.297   2.704
   60CHOL   C20 1731   4.075   1.115   3.390
   60CHOL   C21 1732   4.115   0.968   3.376
   60CHOL   C22 1733   4.014   1.136   3.530
   60CHOL   C23 1734   4.113   1.107   3.644
   60CHOL   C24 1735   4.048   1.129   3.780
   60CHOL   C25 1736   4.139   1.085   3.895
   60CHOL   C26 1737   4.078   1.131   4.028
   60CHOL   C27 1738   4.150   0.933   3.897
   60CHOL   O28 1739   3.956   1.256   2.271
   60CHOL   H29 1740   4.052   1.292   2.261
   61CHOL    C1 1741   3.139   2.927   2.556
   61CHOL    C2 1742   3.103   2.953   2.409
   61CHOL    C3 1743   3.103   2.821   2.331
   61CHOL    C4 1744   2.998   2.727   2.391
   61CHOL    C5 1745   3.017   2.705   2.540
   61CHOL    C6 1746   3.001   2.583   2.595
   61CHOL    C7 1747   3.010   2.553   2.743
   61CHOL    C8 1748   3.008   2.682   2.826
   61CHOL    C9 1749   3.097   2.789   2.760
   61CHOL   C10 1750   3.039   2.831   2.623
   61CHOL   C11 1751   3.116   2.909   2.855
   61CHOL   C12 1752   3.164   2.873   2.997
   61CHOL   C13 1753   3.074   2.766   3.062
   61CHOL   C14 1754   3.069   2.649   2.963
   61CHOL   C15 1755   3.000   2.536   3.040
   61CHOL   C16 1756   3.049   2.558   3.185
   61CHOL   C17 1757   3.132   2.690   3.184
   61CHOL   C18 1758   2.936   2.827   3.094
   61CHOL   C19 1759   2.904   2.903   2.642
   61CHOL   C20 1760   3.131   2.754   3.324
   61CHOL   C21 1761   3.220   2.879   3.334
   61CHOL   C22 1762   3.179   2.653   3.429
   61CHOL   C23 1763   3.149   2.693   3.573
   61CHOL   C24 1764   3.195   2.583   3.669
   61CHOL   C25 1765   3.160   2.611   3.815
   61CHOL   C26 1766   3.226   2.504   3.902
   61CHOL   C27 1767   3.008   2.602   3.835
   61CHOL   O28 1768   3.072   2.847   2.193
   61CHOL   H29 1769   3.085   2.760   2.140
   62CHOL    C1 1770   2.508   4.211   2.742
   62CHOL    C2 1771   2.491   4.224   2.590
   62CHOL    C3 1772   2.456   4.088   2.529
   62CHOL    C4 1773   2.325   4.035   2.590
   62CHOL    C5 1774   2.332   4.028   2.742
   62CHOL    C6 1775   2.284   3.922   2.809
   62CHOL    C7 1776   2.279   3.910   2.959
   62CHOL    C8 1777   2.302   4.046   3.025
   62CHOL    C9 1778   2.418   4.120   2.956
   62CHOL   C10 1779   2.382   4.155   2.810
   62CHOL   C11 1780   2.459   4.245   3.036
   62CHOL   C12 1781   2.485   4.224   3.187
   62CHOL   C13 1782   2.366   4.151   3.251
   62CHOL   C14 1783   2.341   4.022   3.172
   62CHOL   C15 1784   2.243   3.942   3.260
   62CHOL   C16 1785   2.286   3.978   3.404
   62CHOL   C17 1786   2.399   4.084   3.387
   62CHOL   C18 1787   2.244   4.245   3.257
   62CHOL   C19 1788   2.270   4.261   2.806
   62CHOL   C20 1789   2.433   4.171   3.509
   62CHOL   C21 1790   2.532   4.093   3.596
   62CHOL   C22 1791   2.312   4.205   3.597
   62CHOL   C23 1792   2.339   4.323   3.691
   62CHOL   C24 1793   2.225   4.345   3.790
   62CHOL   C25 1794   2.222   4.238   3.900
   62CHOL   C26 1795   2.091   4.249   3.978
   62CHOL   C27 1796   2.338   4.261   3.998
   62CHOL   O28 1797   2.440   4.103   2.388
   62CHOL   H29 1798   2.532   4.130   2.348
   63CHOL    C1 1799   4.039   1.855   2.786
   63CHOL    C2 1800   4.045   1.818   2.637
   63CHOL    C3 1801   4.174   1.869   2.573
   63CHOL    C4 1802   4.296   1.812   2.647
   63CHOL    C5 1803   4.291   1.831   2.798
   63CHOL    C6 1804   4.402   1.860   2.869
   63CHOL    C7 1805   4.408   1.871   3.020
   63CHOL    C8 1806   4.283   1.813   3.085
   63CHOL    C9 1807   4.158   1.856   3.006
   63CHOL   C10 1808   4.158   1.797   2.864
   63CHOL   C11 1809   4.030   1.819   3.084
   63CHOL   C12 1810   4.027   1.867   3.231
   63CHOL   C13 1811   4.152   1.821   3.308
   63CHOL   C14 1812   4.274   1.869   3.228
   63CHOL   C15 1813   4.393   1.841   3.321
   63CHOL   C16 1814   4.333   1.861   3.462
   63CHOL   C17 1815   4.182   1.893   3.442
   63CHOL   C18 1816   4.145   1.667   3.327
   63CHOL   C19 1817   4.144   1.643   2.871
   63CHOL   C20 1818   4.096   1.855   3.565
   63CHOL   C21 1819   3.959   1.923   3.560
   63CHOL   C22 1820   4.164   1.891   3.698
   63CHOL   C23 1821   4.092   1.831   3.819
   63CHOL   C24 1822   4.168   1.861   3.949
   63CHOL   C25 1823   4.096   1.804   4.072
   63CHOL   C26 1824   4.189   1.813   4.193
   63CHOL   C27 1825   3.969   1.884   4.102
   63CHOL   O28 1826   4.180   1.828   2.436
   63CHOL   H29 1827   4.099   1.868   2.384
   64CHOL    C1 1828   3.423   3.183   2.461
   64CHOL    C2 1829   3.420   3.201   2.308
   64CHOL    C3 1830   3.286   3.261   2.265
   64CHOL    C4 1831   3.269   3.399   2.330
   64CHOL    C5 1832   3.279   3.392   2.481
   64CHOL    C6 1833   3.195   3.461   2.560
   64CHOL    C7 1834   3.202   3.467   2.710
   64CHOL    C8 1835   3.335   3.411   2.762
   64CHOL    C9 1836   3.370   3.282   2.684
   64CHOL   C10 1837   3.399   3.315   2.536
   64CHOL   C11 1838   3.485   3.206   2.752
   64CHOL   C12 1839   3.463   3.180   2.902
   64CHOL   C13 1840   3.436   3.310   2.979
   64CHOL   C14 1841   3.315   3.377   2.910
   64CHOL   C15 1842   3.279   3.495   3.000
   64CHOL   C16 1843   3.313   3.442   3.141
   64CHOL   C17 1844   3.373   3.300   3.121
   64CHOL   C18 1845   3.563   3.396   2.981
   64CHOL   C19 1846   3.526   3.402   2.524
   64CHOL   C20 1847   3.456   3.256   3.243
   64CHOL   C21 1848   3.506   3.111   3.232
   64CHOL   C22 1849   3.371   3.271   3.370
   64CHOL   C23 1850   3.430   3.223   3.503
   64CHOL   C24 1851   3.335   3.262   3.617
   64CHOL   C25 1852   3.359   3.191   3.751
   64CHOL   C26 1853   3.503   3.206   3.802
   64CHOL   C27 1854   3.317   3.044   3.745
   64CHOL   O28 1855   3.279   3.272   2.122
   64CHOL   H29 1856   3.348   3.344   2.090
   65CHOL    C1 1857   6.254   9.747   2.946
   65CHOL    C2 1858   6.261   9.774   2.795
   65CHOL    C3 1859   6.122   9.759   2.732
   65CHOL    C4 1860   6.020   9.853   2.799
   65CHOL    C5 1861   6.019   9.841   2.951
   65CHOL    C6 1862   5.904   9.848   3.021
   65CHOL    C7 1863   5.894   9.848   3.172
   65CHOL    C8 1864   6.030   9.877   3.235
   65CHOL    C9 1865   6.138   9.794   3.163
   65CHOL   C10 1866   6.156   9.841   3.017
   65CHOL   C11 1867   6.271   9.798   3.241
   65CHOL   C12 1868   6.261   9.769   3.392
   65CHOL   C13 1869   6.157   9.860   3.460
   65CHOL   C14 1870   6.025   9.840   3.384
   65CHOL   C15 1871   5.921   9.914   3.470
   65CHOL   C16 1872   5.974   9.895   3.614
   65CHOL   C17 1873   6.110   9.820   3.602
   65CHOL   C18 1874   6.209  10.006   3.458
   65CHOL   C19 1875   6.213   9.985   3.016
   65CHOL   C20 1876   6.203   9.853   3.722
   65CHOL   C21 1877   6.329   9.766   3.724
   65CHOL   C22 1878   6.130   9.834   3.856
   65CHOL   C23 1879   6.209   9.885   3.977
   65CHOL   C24 1880   6.130   9.864   4.106
   65CHOL   C25 1881   6.207   9.907   4.231
   65CHOL   C26 1882   6.114   9.897   4.352
   65CHOL   C27 1883   6.327   9.815   4.255
   65CHOL   O28 1884   6.130   9.790   2.592
   65CHOL   H29 1885   6.136   9.891   2.578
   66CHOL    C1 1886   5.529   4.387   2.933
   66CHOL    C2 1887   5.547   4.376   2.781
   66CHOL    C3 1888   5.647   4.481   2.731
   66CHOL    C4 1889   5.783   4.462   2.802
   66CHOL    C5 1890   5.770   4.461   2.954
   66CHOL    C6 1891   5.860   4.523   3.032
   66CHOL    C7 1892   5.860   4.520   3.183
   66CHOL    C8 1893   5.769   4.410   3.237
   66CHOL    C9 1894   5.637   4.407   3.157
   66CHOL   C10 1895   5.661   4.370   3.009
   66CHOL   C11 1896   5.536   4.311   3.225
   66CHOL   C12 1897   5.512   4.338   3.375
   66CHOL   C13 1898   5.645   4.342   3.454
   66CHOL   C14 1899   5.734   4.445   3.383
   66CHOL   C15 1900   5.853   4.466   3.478
   66CHOL   C16 1901   5.789   4.448   3.617
   66CHOL   C17 1902   5.640   4.410   3.594
   66CHOL   C18 1903   5.706   4.201   3.462
   66CHOL   C19 1904   5.708   4.224   2.998
   66CHOL   C20 1905   5.581   4.334   3.716
   66CHOL   C21 1906   5.431   4.308   3.703
   66CHOL   C22 1907   5.606   4.415   3.844
   66CHOL   C23 1908   5.567   4.346   3.975
   66CHOL   C24 1909   5.610   4.432   4.094
   66CHOL   C25 1910   5.570   4.372   4.229
   66CHOL   C26 1911   5.646   4.445   4.340
   66CHOL   C27 1912   5.420   4.392   4.253
   66CHOL   O28 1913   5.662   4.466   2.590
   66CHOL   H29 1914   5.716   4.545   2.549
   67CHOL    C1 1915   7.334   8.928   2.991
   67CHOL    C2 1916   7.381   8.931   2.845
   67CHOL    C3 1917   7.434   9.070   2.806
   67CHOL    C4 1918   7.550   9.107   2.899
   67CHOL    C5 1919   7.513   9.098   3.046
   67CHOL    C6 1920   7.549   9.194   3.133
   67CHOL    C7 1921   7.524   9.190   3.282
   67CHOL    C8 1922   7.490   9.048   3.326
   67CHOL    C9 1923   7.386   8.988   3.230
   67CHOL   C10 1924   7.447   8.968   3.089
   67CHOL   C11 1925   7.329   8.857   3.289
   67CHOL   C12 1926   7.281   8.865   3.436
   67CHOL   C13 1927   7.392   8.920   3.528
   67CHOL   C14 1928   7.433   9.056   3.469
   67CHOL   C15 1929   7.524   9.119   3.575
   67CHOL   C16 1930   7.464   9.066   3.708
   67CHOL   C17 1931   7.349   8.969   3.669
   67CHOL   C18 1932   7.508   8.819   3.537
   67CHOL   C19 1933   7.553   8.856   3.092
   67CHOL   C20 1934   7.322   8.868   3.783
   67CHOL   C21 1935   7.205   8.774   3.754
   67CHOL   C22 1936   7.292   8.944   3.914
   67CHOL   C23 1937   7.275   8.856   4.038
   67CHOL   C24 1938   7.246   8.943   4.160
   67CHOL   C25 1939   7.216   8.862   4.287
   67CHOL   C26 1940   7.339   8.785   4.334
   67CHOL   C27 1941   7.171   8.957   4.398
   67CHOL   O28 1942   7.480   9.068   2.671
   67CHOL   H29 1943   7.532   9.156   2.653
   68CHOL    C1 1944   6.418   4.128   2.917
   68CHOL    C2 1945   6.379   4.127   2.768
   68CHOL    C3 1946   6.232   4.088   2.750
   68CHOL    C4 1947   6.146   4.191   2.823
   68CHOL    C5 1948   6.179   4.194   2.971
   68CHOL    C6 1949   6.084   4.183   3.065
   68CHOL    C7 1950   6.109   4.188   3.214
   68CHOL    C8 1951   6.247   4.246   3.243
   68CHOL    C9 1952   6.352   4.180   3.150
   68CHOL   C10 1953   6.327   4.217   3.002
   68CHOL   C11 1954   6.495   4.217   3.196
   68CHOL   C12 1955   6.524   4.190   3.345
   68CHOL   C13 1956   6.419   4.256   3.436
   68CHOL   C14 1957   6.282   4.207   3.388
   68CHOL   C15 1958   6.183   4.256   3.495
   68CHOL   C16 1959   6.267   4.247   3.625
   68CHOL   C17 1960   6.411   4.205   3.582
   68CHOL   C18 1961   6.436   4.409   3.431
   68CHOL   C19 1962   6.361   4.365   2.976
   68CHOL   C20 1963   6.515   4.255   3.685
   68CHOL   C21 1964   6.656   4.202   3.656
   68CHOL   C22 1965   6.477   4.209   3.827
   68CHOL   C23 1966   6.541   4.295   3.936
   68CHOL   C24 1967   6.508   4.238   4.074
   68CHOL   C25 1968   6.546   4.328   4.193
   68CHOL   C26 1969   6.461   4.456   4.193
   68CHOL   C27 1970   6.695   4.362   4.194
   68CHOL   O28 1971   6.200   4.085   2.610
   68CHOL   H29 1972   6.101   4.103   2.598
   69CHOL    C1 1973   6.494   5.688   2.803
   69CHOL    C2 1974   6.505   5.656   2.653
   69CHOL    C3 1975   6.629   5.723   2.593
   69CHOL    C4 1976   6.756   5.680   2.667
   69CHOL    C5 1977   6.747   5.695   2.819
   69CHOL    C6 1978   6.852   5.735   2.893
   69CHOL    C7 1979   6.855   5.742   3.044
   69CHOL    C8 1980   6.736   5.666   3.105
   69CHOL    C9 1981   6.609   5.699   3.024
   69CHOL   C10 1982   6.618   5.642   2.881
   69CHOL   C11 1983   6.483   5.647   3.096
   69CHOL   C12 1984   6.472   5.691   3.243
   69CHOL   C13 1985   6.598   5.651   3.323
   69CHOL   C14 1986   6.718   5.713   3.250
   69CHOL   C15 1987   6.836   5.691   3.346
   69CHOL   C16 1988   6.770   5.703   3.485
   69CHOL   C17 1989   6.618   5.722   3.460
   69CHOL   C18 1990   6.605   5.498   3.336
   69CHOL   C19 1991   6.623   5.488   2.884
   69CHOL   C20 1992   6.533   5.678   3.582
   69CHOL   C21 1993   6.383   5.705   3.564
   69CHOL   C22 1994   6.580   5.754   3.708
   69CHOL   C23 1995   6.505   5.715   3.835
   69CHOL   C24 1996   6.548   5.805   3.952
   69CHOL   C25 1997   6.457   5.790   4.074
   69CHOL   C26 1998   6.493   5.898   4.175
   69CHOL   C27 1999   6.476   5.652   4.138
   69CHOL   O28 2000   6.639   5.685   2.456
   69CHOL   H29 2001   6.701   5.749   2.405
   70CHOL    C1 2002   4.957   5.145   2.870
   70CHOL    C2 2003   5.049   5.090   2.760
   70CHOL    C3 2004   5.138   5.199   2.699
   70CHOL    C4 2005   5.221   5.261   2.811
   70CHOL    C5 2006   5.133   5.319   2.920
   70CHOL    C6 2007   5.144   5.446   2.960
   70CHOL    C7 2008   5.064   5.508   3.071
   70CHOL    C8 2009   5.000   5.401   3.159
   70CHOL    C9 2010   4.933   5.296   3.068
   70CHOL   C10 2011   5.035   5.219   2.981
   70CHOL   C11 2012   4.844   5.205   3.156
   70CHOL   C12 2013   4.807   5.248   3.299
   70CHOL   C13 2014   4.788   5.401   3.312
   70CHOL   C14 2015   4.918   5.472   3.269
   70CHOL   C15 2016   5.009   5.468   3.394
   70CHOL   C16 2017   4.917   5.434   3.512
   70CHOL   C17 2018   4.773   5.449   3.459
   70CHOL   C18 2019   4.671   5.453   3.226
   70CHOL   C19 2020   5.114   5.118   3.067
   70CHOL   C20 2021   4.671   5.379   3.553
   70CHOL   C21 2022   4.526   5.418   3.521
   70CHOL   C22 2023   4.696   5.416   3.700
   70CHOL   C23 2024   4.613   5.333   3.799
   70CHOL   C24 2025   4.635   5.382   3.942
   70CHOL   C25 2026   4.555   5.302   4.045
   70CHOL   C26 2027   4.404   5.324   4.027
   70CHOL   C27 2028   4.596   5.347   4.186
   70CHOL   O28 2029   5.228   5.139   2.605
   70CHOL   H29 2030   5.189   5.147   2.509
   71CHOL    C1 2031   8.070   5.687   2.580
   71CHOL    C2 2032   8.035   5.707   2.432
   71CHOL    C3 2033   8.137   5.629   2.348
   71CHOL    C4 2034   8.124   5.479   2.377
   71CHOL    C5 2035   8.142   5.448   2.526
   71CHOL    C6 2036   8.209   5.340   2.569
   71CHOL    C7 2037   8.227   5.297   2.713
   71CHOL    C8 2038   8.138   5.379   2.807
   71CHOL    C9 2039   8.135   5.526   2.759
   71CHOL   C10 2040   8.066   5.539   2.622
   71CHOL   C11 2041   8.069   5.618   2.864
   71CHOL   C12 2042   8.131   5.604   3.004
   71CHOL   C13 2043   8.127   5.459   3.054
   71CHOL   C14 2044   8.200   5.374   2.948
   71CHOL   C15 2045   8.214   5.236   3.013
   71CHOL   C16 2046   8.230   5.269   3.163
   71CHOL   C17 2047   8.216   5.423   3.176
   71CHOL   C18 2048   7.981   5.416   3.078
   71CHOL   C19 2049   7.919   5.493   2.630
   71CHOL   C20 2050   8.169   5.466   3.317
   71CHOL   C21 2051   8.172   5.618   3.336
   71CHOL   C22 2052   8.258   5.404   3.427
   71CHOL   C23 2053   8.207   5.435   3.568
   71CHOL   C24 2054   8.310   5.397   3.675
   71CHOL   C25 2055   8.267   5.443   3.815
   71CHOL   C26 2056   8.367   5.389   3.918
   71CHOL   C27 2057   8.268   5.596   3.824
   71CHOL   O28 2058   8.122   5.661   2.209
   71CHOL   H29 2059   8.059   5.594   2.163
   72CHOL    C1 2060   6.601   6.837   2.792
   72CHOL    C2 2061   6.576   6.830   2.640
   72CHOL    C3 2062   6.597   6.686   2.593
   72CHOL    C4 2063   6.495   6.593   2.661
   72CHOL    C5 2064   6.506   6.601   2.813
   72CHOL    C6 2065   6.500   6.490   2.889
   72CHOL    C7 2066   6.503   6.487   3.039
   72CHOL    C8 2067   6.485   6.627   3.098
   72CHOL    C9 2068   6.563   6.731   3.016
   72CHOL   C10 2069   6.510   6.741   2.871
   72CHOL   C11 2070   6.563   6.868   3.088
   72CHOL   C12 2071   6.610   6.863   3.235
   72CHOL   C13 2072   6.533   6.757   3.317
   72CHOL   C14 2073   6.547   6.626   3.239
   72CHOL   C15 2074   6.495   6.517   3.334
   72CHOL   C16 2075   6.535   6.572   3.474
   72CHOL   C17 2076   6.597   6.712   3.451
   72CHOL   C18 2077   6.387   6.803   3.337
   72CHOL   C19 2078   6.367   6.798   2.871
   72CHOL   C20 2079   6.579   6.800   3.577
   72CHOL   C21 2080   6.652   6.935   3.563
   72CHOL   C22 2081   6.636   6.730   3.701
   72CHOL   C23 2082   6.591   6.793   3.834
   72CHOL   C24 2083   6.442   6.769   3.860
   72CHOL   C25 2084   6.395   6.821   3.997
   72CHOL   C26 2085   6.464   6.746   4.111
   72CHOL   C27 2086   6.244   6.801   4.008
   72CHOL   O28 2087   6.589   6.675   2.450
   72CHOL   H29 2088   6.491   6.660   2.421
   73CHOL    C1 2089   7.962   9.377   3.112
   73CHOL    C2 2090   8.012   9.408   2.971
   73CHOL    C3 2091   7.895   9.447   2.881
   73CHOL    C4 2092   7.824   9.571   2.938
   73CHOL    C5 2093   7.782   9.554   3.083
   73CHOL    C6 2094   7.665   9.602   3.130
   73CHOL    C7 2095   7.621   9.598   3.274
   73CHOL    C8 2096   7.739   9.567   3.366
   73CHOL    C9 2097   7.821   9.451   3.305
   73CHOL   C10 2098   7.890   9.497   3.175
   73CHOL   C11 2099   7.922   9.395   3.406
   73CHOL   C12 2100   7.870   9.367   3.548
   73CHOL   C13 2101   7.800   9.492   3.605
   73CHOL   C14 2102   7.688   9.530   3.507
   73CHOL   C15 2103   7.608   9.638   3.582
   73CHOL   C16 2104   7.624   9.596   3.731
   73CHOL   C17 2105   7.713   9.470   3.731
   73CHOL   C18 2106   7.904   9.603   3.627
   73CHOL   C19 2107   7.993   9.607   3.206
   73CHOL   C20 2108   7.797   9.445   3.859
   73CHOL   C21 2109   7.797   9.296   3.892
   73CHOL   C22 2110   7.750   9.523   3.983
   73CHOL   C23 2111   7.859   9.527   4.091
   73CHOL   C24 2112   7.821   9.619   4.207
   73CHOL   C25 2113   7.935   9.637   4.308
   73CHOL   C26 2114   8.056   9.706   4.243
   73CHOL   C27 2115   7.887   9.722   4.425
   73CHOL   O28 2116   7.943   9.472   2.748
   73CHOL   H29 2117   7.992   9.388   2.715
   74CHOL    C1 2118   7.395   4.820   2.571
   74CHOL    C2 2119   7.405   4.864   2.424
   74CHOL    C3 2120   7.270   4.844   2.354
   74CHOL    C4 2121   7.159   4.922   2.425
   74CHOL    C5 2122   7.152   4.892   2.573
   74CHOL    C6 2123   7.034   4.877   2.636
   74CHOL    C7 2124   7.018   4.858   2.785
   74CHOL    C8 2125   7.147   4.897   2.858
   74CHOL    C9 2126   7.267   4.834   2.785
   74CHOL   C10 2127   7.285   4.898   2.646
   74CHOL   C11 2128   7.394   4.844   2.872
   74CHOL   C12 2129   7.379   4.802   3.020
   74CHOL   C13 2130   7.262   4.876   3.088
   74CHOL   C14 2131   7.138   4.847   3.002
   74CHOL   C15 2132   7.020   4.902   3.084
   74CHOL   C16 2133   7.066   4.877   3.230
   74CHOL   C17 2134   7.210   4.820   3.222
   74CHOL   C18 2135   7.295   5.027   3.099
   74CHOL   C19 2136   7.327   5.045   2.662
   74CHOL   C20 2137   7.285   4.847   3.355
   74CHOL   C21 2138   7.428   4.793   3.357
   74CHOL   C22 2139   7.207   4.778   3.469
   74CHOL   C23 2140   7.241   4.830   3.609
   74CHOL   C24 2141   7.152   4.757   3.710
   74CHOL   C25 2142   7.160   4.816   3.852
   74CHOL   C26 2143   7.082   4.725   3.947
   74CHOL   C27 2144   7.096   4.955   3.854
   74CHOL   O28 2145   7.273   4.883   2.216
   74CHOL   H29 2146   7.205   4.820   2.169
   75CHOL    C1 2147   8.662   8.048   2.835
   75CHOL    C2 2148   8.674   8.062   2.683
   75CHOL    C3 2149   8.540   8.104   2.623
   75CHOL    C4 2150   8.495   8.237   2.684
   75CHOL    C5 2151   8.489   8.233   2.836
   75CHOL    C6 2152   8.387   8.288   2.904
   75CHOL    C7 2153   8.378   8.297   3.054
   75CHOL    C8 2154   8.515   8.270   3.118
   75CHOL    C9 2155   8.580   8.148   3.051
   75CHOL   C10 2156   8.614   8.178   2.903
   75CHOL   C11 2157   8.704   8.102   3.131
   75CHOL   C12 2158   8.685   8.088   3.283
   75CHOL   C13 2159   8.625   8.216   3.345
   75CHOL   C14 2160   8.495   8.243   3.268
   75CHOL   C15 2161   8.425   8.355   3.347
   75CHOL   C16 2162   8.470   8.328   3.492
   75CHOL   C17 2163   8.567   8.206   3.488
   75CHOL   C18 2164   8.728   8.331   3.334
   75CHOL   C19 2165   8.726   8.284   2.895
   75CHOL   C20 2166   8.668   8.209   3.606
   75CHOL   C21 2167   8.749   8.079   3.620
   75CHOL   C22 2168   8.604   8.242   3.742
   75CHOL   C23 2169   8.507   8.137   3.798
   75CHOL   C24 2170   8.438   8.186   3.926
   75CHOL   C25 2171   8.530   8.196   4.048
   75CHOL   C26 2172   8.456   8.269   4.159
   75CHOL   C27 2173   8.565   8.056   4.098
   75CHOL   O28 2174   8.551   8.120   2.480
   75CHOL   H29 2175   8.568   8.028   2.437
   76CHOL    C1 2176  10.025   4.671   2.874
   76CHOL    C2 2177  10.029   4.623   2.728
   76CHOL    C3 2178  10.074   4.737   2.636
   76CHOL    C4 2179   0.055   4.787   2.680
   76CHOL    C5 2180   0.065   4.822   2.828
   76CHOL    C6 2181   0.139   4.925   2.872
   76CHOL    C7 2182   0.162   4.960   3.018
   76CHOL    C8 2183   0.117   4.847   3.111
   76CHOL    C9 2184  10.142   4.788   3.059
   76CHOL   C10 2185   0.004   4.719   2.923
   76CHOL   C11 2186  10.081   4.691   3.163
   76CHOL   C12 2187  10.067   4.749   3.304
   76CHOL   C13 2188   0.044   4.805   3.356
   76CHOL   C14 2189   0.091   4.906   3.250
   76CHOL   C15 2190   0.209   4.979   3.317
   76CHOL   C16 2191   0.170   4.981   3.466
   76CHOL   C17 2192   0.038   4.900   3.479
   76CHOL   C18 2193   0.142   4.688   3.380
   76CHOL   C19 2194   0.099   4.599   2.936
   76CHOL   C20 2195   0.023   4.841   3.621
   76CHOL   C21 2196  10.049   4.765   3.641
   76CHOL   C22 2197   0.028   4.955   3.725
   76CHOL   C23 2198   0.038   4.904   3.870
   76CHOL   C24 2199   0.031   5.021   3.968
   76CHOL   C25 2200   0.037   4.975   4.114
   76CHOL   C26 2201   0.005   5.093   4.206
   76CHOL   C27 2202   0.178   4.924   4.148
   76CHOL   O28 2203  10.077   4.689   2.501
   76CHOL   H29 2204  10.079   4.770   2.436
   77CHOL    C1 2205   9.008   5.135   2.573
   77CHOL    C2 2206   8.992   5.069   2.435
   77CHOL    C3 2207   9.070   5.146   2.328
   77CHOL    C4 2208   9.218   5.155   2.367
   77CHOL    C5 2209   9.239   5.213   2.506
   77CHOL    C6 2210   9.336   5.302   2.532
   77CHOL    C7 2211   9.371   5.355   2.669
   77CHOL    C8 2212   9.310   5.266   2.777
   77CHOL    C9 2213   9.163   5.235   2.741
   77CHOL   C10 2214   9.156   5.147   2.615
   77CHOL   C11 2215   9.091   5.170   2.861
   77CHOL   C12 2216   9.109   5.239   2.998
   77CHOL   C13 2217   9.258   5.260   3.030
   77CHOL   C14 2218   9.319   5.338   2.913
   77CHOL   C15 2219   9.460   5.377   2.961
   77CHOL   C16 2220   9.441   5.393   3.114
   77CHOL   C17 2221   9.292   5.359   3.145
   77CHOL   C18 2222   9.324   5.123   3.055
   77CHOL   C19 2223   9.213   5.007   2.643
   77CHOL   C20 2224   9.269   5.305   3.288
   77CHOL   C21 2225   9.124   5.327   3.332
   77CHOL   C22 2226   9.363   5.368   3.392
   77CHOL   C23 2227   9.355   5.300   3.529
   77CHOL   C24 2228   9.464   5.350   3.625
   77CHOL   C25 2229   9.453   5.499   3.661
   77CHOL   C26 2230   9.328   5.527   3.745
   77CHOL   C27 2231   9.577   5.540   3.740
   77CHOL   O28 2232   9.058   5.078   2.202
   77CHOL   H29 2233   9.125   5.121   2.136
   78CHOL    C1 2234   8.589   4.478   2.687
   78CHOL    C2 2235   8.533   4.458   2.546
   78CHOL    C3 2236   8.596   4.335   2.480
   78CHOL    C4 2237   8.573   4.209   2.565
   78CHOL    C5 2238   8.612   4.226   2.711
   78CHOL    C6 2239   8.668   4.127   2.782
   78CHOL    C7 2240   8.698   4.132   2.930
   78CHOL    C8 2241   8.622   4.247   2.997
   78CHOL    C9 2242   8.637   4.374   2.910
   78CHOL   C10 2243   8.563   4.355   2.776
   78CHOL   C11 2244   8.585   4.498   2.986
   78CHOL   C12 2245   8.635   4.515   3.130
   78CHOL   C13 2246   8.612   4.388   3.213
   78CHOL   C14 2247   8.680   4.273   3.137
   78CHOL   C15 2248   8.675   4.154   3.234
   78CHOL   C16 2249   8.686   4.222   3.373
   78CHOL   C17 2250   8.688   4.376   3.348
   78CHOL   C18 2251   8.460   4.367   3.234
   78CHOL   C19 2252   8.412   4.342   2.802
   78CHOL   C20 2253   8.633   4.454   3.469
   78CHOL   C21 2254   8.663   4.605   3.459
   78CHOL   C22 2255   8.692   4.402   3.601
   78CHOL   C23 2256   8.623   4.458   3.726
   78CHOL   C24 2257   8.685   4.397   3.852
   78CHOL   C25 2258   8.623   4.451   3.981
   78CHOL   C26 2259   8.657   4.599   4.001
   78CHOL   C27 2260   8.677   4.371   4.100
   78CHOL   O28 2261   8.537   4.318   2.350
   78CHOL   H29 2262   8.437   4.296   2.362
   79CHOL    C1 2263   9.974   5.393   2.541
   79CHOL    C2 2264   9.983   5.349   2.394
   79CHOL    C3 2265  10.088   5.431   2.318
   79CHOL    C4 2266   0.067   5.419   2.388
   79CHOL    C5 2267   0.061   5.456   2.535
   79CHOL    C6 2268   0.153   5.535   2.593
   79CHOL    C7 2269   0.159   5.568   2.740
   79CHOL    C8 2270   0.073   5.470   2.821
   79CHOL    C9 2271  10.094   5.453   2.751
   79CHOL   C10 2272  10.110   5.384   2.614
   79CHOL   C11 2273   9.996   5.377   2.843
   79CHOL   C12 2274   9.985   5.430   2.987
   79CHOL   C13 2275  10.124   5.439   3.054
   79CHOL   C14 2276   0.053   5.527   2.962
   79CHOL   C15 2277   0.180   5.554   3.044
   79CHOL   C16 2278   0.128   5.557   3.190
   79CHOL   C17 2279  10.134   5.523   3.184
   79CHOL   C18 2280   0.023   5.297   3.076
   79CHOL   C19 2281  10.150   5.236   2.631
   79CHOL   C20 2282  10.084   5.457   3.315
   79CHOL   C21 2283   9.931   5.447   3.321
   79CHOL   C22 2284  10.130   5.536   3.439
   79CHOL   C23 2285  10.106   5.459   3.570
   79CHOL   C24 2286  10.148   5.541   3.692
   79CHOL   C25 2287  10.126   5.466   3.824
   79CHOL   C26 2288   0.030   5.548   3.937
   79CHOL   C27 2289   9.977   5.449   3.852
   79CHOL   O28 2290  10.098   5.381   2.184
   79CHOL   H29 2291  10.094   5.278   2.186
   80CHOL    C1 2292   9.570   6.187   2.640
   80CHOL    C2 2293   9.590   6.157   2.491
   80CHOL    C3 2294   9.610   6.286   2.411
   80CHOL    C4 2295   9.732   6.363   2.466
   80CHOL    C5 2296   9.724   6.387   2.616
   80CHOL    C6 2297   9.764   6.503   2.671
   80CHOL    C7 2298   9.770   6.532   2.819
   80CHOL    C8 2299   9.758   6.403   2.901
   80CHOL    C9 2300   9.648   6.314   2.840
   80CHOL   C10 2301   9.688   6.265   2.700
   80CHOL   C11 2302   9.615   6.197   2.935
   80CHOL   C12 2303   9.585   6.237   3.081
   80CHOL   C13 2304   9.699   6.322   3.140
   80CHOL   C14 2305   9.719   6.442   3.045
   80CHOL   C15 2306   9.816   6.534   3.120
   80CHOL   C16 2307   9.782   6.508   3.269
   80CHOL   C17 2308   9.668   6.403   3.268
   80CHOL   C18 2309   9.825   6.234   3.157
   80CHOL   C19 2310   9.812   6.174   2.709
   80CHOL   C20 2311   9.654   6.322   3.399
   80CHOL   C21 2312   9.510   6.273   3.413
   80CHOL   C22 2313   9.691   6.403   3.525
   80CHOL   C23 2314   9.691   6.316   3.652
   80CHOL   C24 2315   9.731   6.395   3.777
   80CHOL   C25 2316   9.879   6.434   3.781
   80CHOL   C26 2317   9.967   6.310   3.800
   80CHOL   C27 2318   9.903   6.532   3.897
   80CHOL   O28 2319   9.631   6.251   2.274
   80CHOL   H29 2320   9.668   6.330   2.221
   81CHOL    C1 2321   6.051   7.247   2.986
   81CHOL    C2 2322   6.044   7.245   2.833
   81CHOL    C3 2323   6.111   7.118   2.782
   81CHOL    C4 2324   6.036   6.994   2.834
   81CHOL    C5 2325   6.028   6.993   2.986
   81CHOL    C6 2326   6.045   6.881   3.058
   81CHOL    C7 2327   6.032   6.870   3.208
   81CHOL    C8 2328   5.966   6.995   3.268
   81CHOL    C9 2329   6.020   7.122   3.199
   81CHOL   C10 2330   5.983   7.124   3.049
   81CHOL   C11 2331   5.972   7.248   3.272
   81CHOL   C12 2332   6.002   7.250   3.423
   81CHOL   C13 2333   5.949   7.123   3.492
   81CHOL   C14 2334   6.008   7.004   3.416
   81CHOL   C15 2335   5.975   6.882   3.503
   81CHOL   C16 2336   5.983   6.939   3.647
   81CHOL   C17 2337   6.008   7.092   3.633
   81CHOL   C18 2338   5.795   7.125   3.494
   81CHOL   C19 2339   5.830   7.137   3.033
   81CHOL   C20 2340   5.955   7.168   3.757
   81CHOL   C21 2341   5.985   7.319   3.753
   81CHOL   C22 2342   6.019   7.111   3.885
   81CHOL   C23 2343   5.958   7.165   4.015
   81CHOL   C24 2344   6.030   7.106   4.137
   81CHOL   C25 2345   5.974   7.157   4.270
   81CHOL   C26 2346   6.066   7.109   4.383
   81CHOL   C27 2347   5.834   7.100   4.294
   81CHOL   O28 2348   6.115   7.120   2.638
   81CHOL   H29 2349   6.018   7.113   2.601
   82CHOL    C1 2350   5.977   5.958   2.678
   82CHOL    C2 2351   5.979   5.913   2.531
   82CHOL    C3 2352   6.086   5.806   2.505
   82CHOL    C4 2353   6.060   5.686   2.597
   82CHOL    C5 2354   6.052   5.726   2.743
   82CHOL    C6 2355   6.118   5.657   2.837
   82CHOL    C7 2356   6.112   5.684   2.986
   82CHOL    C8 2357   5.992   5.773   3.019
   82CHOL    C9 2358   5.984   5.890   2.918
   82CHOL   C10 2359   5.956   5.840   2.774
   82CHOL   C11 2360   5.881   5.994   2.966
   82CHOL   C12 2361   5.900   6.042   3.111
   82CHOL   C13 2362   5.906   5.924   3.210
   82CHOL   C14 2363   6.016   5.831   3.159
   82CHOL   C15 2364   6.037   5.729   3.273
   82CHOL   C16 2365   6.010   5.813   3.400
   82CHOL   C17 2366   5.964   5.953   3.351
   82CHOL   C18 2367   5.767   5.856   3.220
   82CHOL   C19 2368   5.811   5.789   2.762
   82CHOL   C20 2369   5.875   6.023   3.458
   82CHOL   C21 2370   5.837   6.166   3.418
   82CHOL   C22 2371   5.948   6.030   3.593
   82CHOL   C23 2372   5.858   6.081   3.707
   82CHOL   C24 2373   5.935   6.096   3.839
   82CHOL   C25 2374   5.976   5.962   3.902
   82CHOL   C26 2375   6.070   5.991   4.019
   82CHOL   C27 2376   5.854   5.888   3.956
   82CHOL   O28 2377   6.078   5.763   2.369
   82CHOL   H29 2378   6.155   5.806   2.316
   83CHOL    C1 2379   6.902   6.415   2.819
   83CHOL    C2 2380   6.886   6.412   2.667
   83CHOL    C3 2381   7.003   6.337   2.602
   83CHOL    C4 2382   7.008   6.193   2.654
   83CHOL    C5 2383   7.017   6.189   2.806
   83CHOL    C6 2384   7.103   6.107   2.868
   83CHOL    C7 2385   7.113   6.090   3.018
   83CHOL    C8 2386   6.988   6.146   3.086
   83CHOL    C9 2387   6.958   6.285   3.027
   83CHOL   C10 2388   6.913   6.273   2.879
   83CHOL   C11 2389   6.855   6.359   3.115
   83CHOL   C12 2390   6.884   6.361   3.267
   83CHOL   C13 2391   6.906   6.218   3.321
   83CHOL   C14 2392   7.019   6.157   3.236
   83CHOL   C15 2393   7.053   6.025   3.306
   83CHOL   C16 2394   7.027   6.057   3.455
   83CHOL   C17 2395   6.973   6.203   3.460
   83CHOL   C18 2396   6.774   6.139   3.314
   83CHOL   C19 2397   6.777   6.203   2.871
   83CHOL   C20 2398   6.889   6.228   3.587
   83CHOL   C21 2399   6.860   6.377   3.608
   83CHOL   C22 2400   6.961   6.174   3.712
   83CHOL   C23 2401   6.876   6.175   3.840
   83CHOL   C24 2402   6.954   6.113   3.956
   83CHOL   C25 2403   6.878   6.119   4.089
   83CHOL   C26 2404   6.954   6.037   4.193
   83CHOL   C27 2405   6.870   6.264   4.138
   83CHOL   O28 2406   6.989   6.336   2.459
   83CHOL   H29 2407   6.904   6.284   2.432
   84CHOL    C1 2408   6.891   7.236   3.031
   84CHOL    C2 2409   6.929   7.221   2.883
   84CHOL    C3 2410   6.953   7.359   2.820
   84CHOL    C4 2411   7.062   7.434   2.897
   84CHOL    C5 2412   7.038   7.441   3.048
   84CHOL    C6 2413   7.068   7.551   3.119
   84CHOL    C7 2414   7.058   7.562   3.270
   84CHOL    C8 2415   7.045   7.424   3.334
   84CHOL    C9 2416   6.944   7.340   3.254
   84CHOL   C10 2417   6.999   7.309   3.112
   84CHOL   C11 2418   6.908   7.211   3.331
   84CHOL   C12 2419   6.871   7.230   3.479
   84CHOL   C13 2420   6.980   7.308   3.555
   84CHOL   C14 2421   6.998   7.440   3.480
   84CHOL   C15 2422   7.088   7.524   3.573
   84CHOL   C16 2423   7.048   7.477   3.714
   84CHOL   C17 2424   6.942   7.364   3.695
   84CHOL   C18 2425   7.108   7.222   3.563
   84CHOL   C19 2426   7.124   7.219   3.123
   84CHOL   C20 2427   6.940   7.265   3.814
   84CHOL   C21 2428   6.819   7.170   3.808
   84CHOL   C22 2429   6.939   7.337   3.950
   84CHOL   C23 2430   6.949   7.241   4.069
   84CHOL   C24 2431   6.943   7.315   4.203
   84CHOL   C25 2432   6.935   7.223   4.326
   84CHOL   C26 2433   7.055   7.127   4.334
   84CHOL   C27 2434   6.804   7.145   4.329
   84CHOL   O28 2435   6.995   7.342   2.684
   84CHOL   H29 2436   6.919   7.302   2.628
   85CHOL    C1 2437   4.994   7.965   3.200
   85CHOL    C2 2438   5.001   7.954   3.047
   85CHOL    C3 2439   5.034   8.090   2.985
   85CHOL    C4 2440   5.166   8.146   3.041
   85CHOL    C5 2441   5.174   8.144   3.193
   85CHOL    C6 2442   5.236   8.241   3.262
   85CHOL    C7 2443   5.258   8.242   3.412
   85CHOL    C8 2444   5.235   8.103   3.471
   85CHOL    C9 2445   5.107   8.044   3.409
   85CHOL   C10 2446   5.127   8.015   3.259
   85CHOL   C11 2447   5.062   7.918   3.487
   85CHOL   C12 2448   5.060   7.931   3.640
   85CHOL   C13 2449   5.196   7.980   3.694
   85CHOL   C14 2450   5.223   8.114   3.624
   85CHOL   C15 2451   5.345   8.172   3.698
   85CHOL   C16 2452   5.327   8.118   3.842
   85CHOL   C17 2453   5.200   8.029   3.842
   85CHOL   C18 2454   5.304   7.873   3.668
   85CHOL   C19 2455   5.236   7.907   3.240
   85CHOL   C20 2456   5.205   7.919   3.951
   85CHOL   C21 2457   5.073   7.842   3.968
   85CHOL   C22 2458   5.247   7.969   4.091
   85CHOL   C23 2459   5.151   8.067   4.159
   85CHOL   C24 2460   5.195   8.094   4.303
   85CHOL   C25 2461   5.108   8.198   4.374
   85CHOL   C26 2462   5.139   8.195   4.523
   85CHOL   C27 2463   5.143   8.338   4.322
   85CHOL   O28 2464   5.044   8.076   2.843
   85CHOL   H29 2465   5.013   8.164   2.799
   86CHOL    C1 2466   3.639   8.048   2.964
   86CHOL    C2 2467   3.704   8.011   2.829
   86CHOL    C3 2468   3.803   8.120   2.786
   86CHOL    C4 2469   3.912   8.136   2.893
   86CHOL    C5 2470   3.854   8.164   3.031
   86CHOL    C6 2471   3.907   8.258   3.111
   86CHOL    C7 2472   3.861   8.288   3.252
   86CHOL    C8 2473   3.771   8.176   3.305
   86CHOL    C9 2474   3.671   8.133   3.196
   86CHOL   C10 2475   3.743   8.070   3.075
   86CHOL   C11 2476   3.564   8.040   3.257
   86CHOL   C12 2477   3.494   8.094   3.383
   86CHOL   C13 2478   3.595   8.136   3.491
   86CHOL   C14 2479   3.691   8.234   3.423
   86CHOL   C15 2480   3.773   8.296   3.538
   86CHOL   C16 2481   3.672   8.299   3.655
   86CHOL   C17 2482   3.543   8.229   3.603
   86CHOL   C18 2483   3.665   8.011   3.549
   86CHOL   C19 2484   3.805   7.934   3.115
   86CHOL   C20 2485   3.462   8.170   3.722
   86CHOL   C21 2486   3.329   8.108   3.678
   86CHOL   C22 2487   3.430   8.280   3.825
   86CHOL   C23 2488   3.380   8.225   3.959
   86CHOL   C24 2489   3.338   8.337   4.055
   86CHOL   C25 2490   3.452   8.429   4.099
   86CHOL   C26 2491   3.394   8.549   4.174
   86CHOL   C27 2492   3.547   8.355   4.194
   86CHOL   O28 2493   3.865   8.085   2.662
   86CHOL   H29 2494   3.912   7.993   2.674
   87CHOL    C1 2495   6.517   7.713   3.105
   87CHOL    C2 2496   6.547   7.695   2.956
   87CHOL    C3 2497   6.526   7.827   2.881
   87CHOL    C4 2498   6.616   7.937   2.940
   87CHOL    C5 2499   6.603   7.950   3.091
   87CHOL    C6 2500   6.605   8.071   3.150
   87CHOL    C7 2501   6.603   8.094   3.299
   87CHOL    C8 2502   6.637   7.966   3.374
   87CHOL    C9 2503   6.560   7.846   3.313
   87CHOL   C10 2504   6.608   7.819   3.169
   87CHOL   C11 2505   6.574   7.722   3.404
   87CHOL   C12 2506   6.543   7.744   3.553
   87CHOL   C13 2507   6.621   7.863   3.611
   87CHOL   C14 2508   6.590   7.983   3.520
   87CHOL   C15 2509   6.647   8.104   3.594
   87CHOL   C16 2510   6.625   8.067   3.742
   87CHOL   C17 2511   6.569   7.922   3.745
   87CHOL   C18 2512   6.771   7.828   3.619
   87CHOL   C19 2513   6.753   7.767   3.170
   87CHOL   C20 2514   6.609   7.850   3.876
   87CHOL   C21 2515   6.536   7.716   3.893
   87CHOL   C22 2516   6.577   7.937   3.999
   87CHOL   C23 2517   6.650   7.893   4.127
   87CHOL   C24 2518   6.802   7.909   4.114
   87CHOL   C25 2519   6.876   7.875   4.243
   87CHOL   C26 2520   7.026   7.866   4.214
   87CHOL   C27 2521   6.854   7.985   4.347
   87CHOL   O28 2522   6.559   7.809   2.742
   87CHOL   H29 2523   6.661   7.792   2.735
   88CHOL    C1 2524   6.145   8.086   2.927
   88CHOL    C2 2525   6.173   8.086   2.776
   88CHOL    C3 2526   6.074   8.178   2.704
   88CHOL    C4 2527   6.083   8.321   2.760
   88CHOL    C5 2528   6.075   8.329   2.912
   88CHOL    C6 2529   6.012   8.430   2.973
   88CHOL    C7 2530   6.008   8.453   3.123
   88CHOL    C8 2531   6.113   8.367   3.194
   88CHOL    C9 2532   6.111   8.224   3.134
   88CHOL   C10 2533   6.159   8.226   2.987
   88CHOL   C11 2534   6.195   8.129   3.222
   88CHOL   C12 2535   6.167   8.134   3.373
   88CHOL   C13 2536   6.177   8.277   3.427
   88CHOL   C14 2537   6.080   8.362   3.344
   88CHOL   C15 2538   6.074   8.497   3.416
   88CHOL   C16 2539   6.093   8.458   3.565
   88CHOL   C17 2540   6.116   8.305   3.568
   88CHOL   C18 2541   6.324   8.326   3.420
   88CHOL   C19 2542   6.308   8.268   2.982
   88CHOL   C20 2543   6.198   8.261   3.692
   88CHOL   C21 2544   6.197   8.109   3.710
   88CHOL   C22 2545   6.144   8.325   3.821
   88CHOL   C23 2546   6.234   8.302   3.942
   88CHOL   C24 2547   6.171   8.358   4.070
   88CHOL   C25 2548   6.256   8.331   4.195
   88CHOL   C26 2549   6.265   8.181   4.225
   88CHOL   C27 2550   6.193   8.403   4.315
   88CHOL   O28 2551   6.105   8.180   2.564
   88CHOL   H29 2552   6.020   8.211   2.511
   89CHOL    C1 2553   8.539   5.517   2.536
   89CHOL    C2 2554   8.533   5.456   2.396
   89CHOL    C3 2555   8.645   5.513   2.308
   89CHOL    C4 2556   8.783   5.489   2.371
   89CHOL    C5 2557   8.791   5.533   2.516
   89CHOL    C6 2558   8.900   5.593   2.566
   89CHOL    C7 2559   8.921   5.630   2.711
   89CHOL    C8 2560   8.820   5.557   2.800
   89CHOL    C9 2561   8.680   5.569   2.736
   89CHOL   C10 2562   8.674   5.489   2.604
   89CHOL   C11 2563   8.572   5.523   2.836
   89CHOL   C12 2564   8.581   5.578   2.980
   89CHOL   C13 2565   8.722   5.555   3.038
   89CHOL   C14 2566   8.821   5.620   2.940
   89CHOL   C15 2567   8.956   5.617   3.014
   89CHOL   C16 2568   8.914   5.630   3.163
   89CHOL   C17 2569   8.759   5.634   3.166
   89CHOL   C18 2570   8.744   5.403   3.058
   89CHOL   C19 2571   8.686   5.338   2.633
   89CHOL   C20 2572   8.697   5.579   3.296
   89CHOL   C21 2573   8.561   5.645   3.323
   89CHOL   C22 2574   8.786   5.598   3.420
   89CHOL   C23 2575   8.739   5.512   3.538
   89CHOL   C24 2576   8.836   5.520   3.657
   89CHOL   C25 2577   8.838   5.657   3.726
   89CHOL   C26 2578   8.958   5.661   3.821
   89CHOL   C27 2579   8.711   5.675   3.809
   89CHOL   O28 2580   8.639   5.450   2.179
   89CHOL   H29 2581   8.540   5.438   2.152
   90CHOL    C1 2582   7.554   6.219   2.913
   90CHOL    C2 2583   7.595   6.252   2.769
   90CHOL    C3 2584   7.480   6.320   2.695
   90CHOL    C4 2585   7.439   6.449   2.768
   90CHOL    C5 2586   7.412   6.429   2.916
   90CHOL    C6 2587   7.314   6.496   2.978
   90CHOL    C7 2588   7.287   6.492   3.127
   90CHOL    C8 2589   7.405   6.431   3.202
   90CHOL    C9 2590   7.455   6.306   3.126
   90CHOL   C10 2591   7.516   6.346   2.991
   90CHOL   C11 2592   7.554   6.225   3.213
   90CHOL   C12 2593   7.508   6.195   3.357
   90CHOL   C13 2594   7.466   6.324   3.430
   90CHOL   C14 2595   7.358   6.390   3.342
   90CHOL   C15 2596   7.301   6.503   3.428
   90CHOL   C16 2597   7.309   6.445   3.571
   90CHOL   C17 2598   7.383   6.308   3.560
   90CHOL   C18 2599   7.589   6.414   3.453
   90CHOL   C19 2600   7.641   6.433   3.013
   90CHOL   C20 2601   7.454   6.275   3.693
   90CHOL   C21 2602   7.521   6.138   3.692
   90CHOL   C22 2603   7.352   6.277   3.809
   90CHOL   C23 2604   7.416   6.293   3.947
   90CHOL   C24 2605   7.307   6.302   4.054
   90CHOL   C25 2606   7.356   6.343   4.194
   90CHOL   C26 2607   7.421   6.481   4.193
   90CHOL   C27 2608   7.451   6.239   4.254
   90CHOL   O28 2609   7.523   6.352   2.562
   90CHOL   H29 2610   7.608   6.413   2.569
   91CHOL    C1 2611   0.396   6.134   2.602
   91CHOL    C2 2612   0.408   6.099   2.453
   91CHOL    C3 2613   0.383   6.224   2.369
   91CHOL    C4 2614   0.487   6.332   2.402
   91CHOL    C5 2615   0.484   6.367   2.550
   91CHOL    C6 2616   0.487   6.494   2.592
   91CHOL    C7 2617   0.492   6.538   2.736
   91CHOL    C8 2618   0.533   6.421   2.826
   91CHOL    C9 2619   0.454   6.294   2.786
   91CHOL   C10 2620   0.493   6.247   2.644
   91CHOL   C11 2621   0.474   6.184   2.892
   91CHOL   C12 2622   0.451   6.225   3.038
   91CHOL   C13 2623   0.535   6.350   3.075
   91CHOL   C14 2624   0.498   6.457   2.971
   91CHOL   C15 2625   0.563   6.586   3.025
   91CHOL   C16 2626   0.552   6.568   3.178
   91CHOL   C17 2627   0.494   6.426   3.204
   91CHOL   C18 2628   0.685   6.314   3.075
   91CHOL   C19 2629   0.637   6.193   2.644
   91CHOL   C20 2630   0.540   6.371   3.341
   91CHOL   C21 2631   0.471   6.239   3.378
   91CHOL   C22 2632   0.511   6.473   3.453
   91CHOL   C23 2633   0.579   6.438   3.586
   91CHOL   C24 2634   0.551   6.546   3.691
   91CHOL   C25 2635   0.621   6.518   3.824
   91CHOL   C26 2636   0.602   6.639   3.916
   91CHOL   C27 2637   0.558   6.396   3.893
   91CHOL   O28 2638   0.388   6.195   2.228
   91CHOL   H29 2639   0.360   6.282   2.179
   92CHOL    C1 2640   8.867   6.290   2.554
   92CHOL    C2 2641   8.892   6.274   2.403
   92CHOL    C3 2642   9.029   6.333   2.367
   92CHOL    C4 2643   9.140   6.260   2.444
   92CHOL    C5 2644   9.117   6.267   2.593
   92CHOL    C6 2645   9.217   6.296   2.677
   92CHOL    C7 2646   9.207   6.296   2.828
   92CHOL    C8 2647   9.080   6.222   2.871
   92CHOL    C9 2648   8.961   6.270   2.786
   92CHOL   C10 2649   8.977   6.225   2.639
   92CHOL   C11 2650   8.828   6.221   2.849
   92CHOL   C12 2651   8.811   6.249   2.999
   92CHOL   C13 2652   8.931   6.196   3.081
   92CHOL   C14 2653   9.056   6.258   3.019
   92CHOL   C15 2654   9.171   6.222   3.114
   92CHOL   C16 2655   9.100   6.221   3.252
   92CHOL   C17 2656   8.950   6.251   3.224
   92CHOL   C18 2657   8.930   6.041   3.079
   92CHOL   C19 2658   8.964   6.072   2.629
   92CHOL   C20 2659   8.862   6.202   3.341
   92CHOL   C21 2660   8.715   6.240   3.325
   92CHOL   C22 2661   8.914   6.264   3.472
   92CHOL   C23 2662   8.851   6.208   3.600
   92CHOL   C24 2663   8.923   6.269   3.721
   92CHOL   C25 2664   8.868   6.219   3.855
   92CHOL   C26 2665   8.890   6.068   3.870
   92CHOL   C27 2666   8.942   6.292   3.967
   92CHOL   O28 2667   9.057   6.323   2.227
   92CHOL   H29 2668   9.134   6.391   2.211
   93CHOL    C1 2669   8.166   7.395   2.828
   93CHOL    C2 2670   8.147   7.414   2.677
   93CHOL    C3 2671   8.085   7.288   2.615
   93CHOL    C4 2672   7.952   7.253   2.683
   93CHOL    C5 2673   7.957   7.251   2.835
   93CHOL    C6 2674   7.883   7.164   2.904
   93CHOL    C7 2675   7.872   7.158   3.054
   93CHOL    C8 2676   7.927   7.286   3.117
   93CHOL    C9 2677   8.059   7.327   3.047
   93CHOL   C10 2678   8.033   7.367   2.900
   93CHOL   C11 2679   8.128   7.440   3.127
   93CHOL   C12 2680   8.143   7.416   3.278
   93CHOL   C13 2681   8.008   7.379   3.343
   93CHOL   C14 2682   7.955   7.258   3.265
   93CHOL   C15 2683   7.835   7.208   3.347
   93CHOL   C16 2684   7.875   7.244   3.492
   93CHOL   C17 2685   8.012   7.316   3.485
   93CHOL   C18 2686   7.914   7.501   3.339
   93CHOL   C19 2687   7.945   7.494   2.895
   93CHOL   C20 2688   8.036   7.415   3.601
   93CHOL   C21 2689   8.186   7.436   3.623
   93CHOL   C22 2690   7.973   7.367   3.733
   93CHOL   C23 2691   7.973   7.475   3.843
   93CHOL   C24 2692   7.901   7.423   3.968
   93CHOL   C25 2693   7.902   7.525   4.083
   93CHOL   C26 2694   7.809   7.475   4.193
   93CHOL   C27 2695   8.043   7.537   4.141
   93CHOL   O28 2696   8.056   7.307   2.476
   93CHOL   H29 2697   8.104   7.392   2.439
   94CHOL    C1 2698   9.138   7.942   2.830
   94CHOL    C2 2699   9.095   7.928   2.684
   94CHOL    C3 2700   9.167   7.809   2.619
   94CHOL    C4 2701   9.139   7.679   2.694
   94CHOL    C5 2702   9.164   7.689   2.844
   94CHOL    C6 2703   9.215   7.587   2.914
   94CHOL    C7 2704   9.232   7.584   3.065
   94CHOL    C8 2705   9.149   7.695   3.130
   94CHOL    C9 2706   9.170   7.826   3.051
   94CHOL   C10 2707   9.107   7.814   2.910
   94CHOL   C11 2708   9.114   7.947   3.129
   94CHOL   C12 2709   9.151   7.955   3.278
   94CHOL   C13 2710   9.117   7.823   3.351
   94CHOL   C14 2711   9.193   7.712   3.276
   94CHOL   C15 2712   9.178   7.588   3.366
   94CHOL   C16 2713   9.171   7.649   3.508
   94CHOL   C17 2714   9.178   7.803   3.492
   94CHOL   C18 2715   8.964   7.804   3.353
   94CHOL   C19 2716   8.954   7.799   2.923
   94CHOL   C20 2717   9.107   7.882   3.604
   94CHOL   C21 2718   9.170   8.021   3.621
   94CHOL   C22 2719   9.108   7.809   3.740
   94CHOL   C23 2720   9.017   7.875   3.843
   94CHOL   C24 2721   8.986   7.779   3.958
   94CHOL   C25 2722   8.895   7.842   4.062
   94CHOL   C26 2723   8.974   7.937   4.154
   94CHOL   C27 2724   8.826   7.734   4.144
   94CHOL   O28 2725   9.125   7.794   2.483
   94CHOL   H29 2726   9.205   7.757   2.429
   95CHOL    C1 2727   9.288   6.720   2.694
   95CHOL    C2 2728   9.341   6.747   2.553
   95CHOL    C3 2729   9.309   6.890   2.508
   95CHOL    C4 2730   9.369   6.991   2.608
   95CHOL    C5 2731   9.327   6.964   2.751
   95CHOL    C6 2732   9.292   7.064   2.835
   95CHOL    C7 2733   9.259   7.047   2.981
   95CHOL    C8 2734   9.311   6.912   3.032
   95CHOL    C9 2735   9.270   6.802   2.931
   95CHOL   C10 2736   9.344   6.820   2.797
   95CHOL   C11 2737   9.294   6.663   2.993
   95CHOL   C12 2738   9.243   6.641   3.137
   95CHOL   C13 2739   9.297   6.751   3.232
   95CHOL   C14 2740   9.253   6.885   3.172
   95CHOL   C15 2741   9.285   6.988   3.281
   95CHOL   C16 2742   9.264   6.908   3.412
   95CHOL   C17 2743   9.229   6.763   3.371
   95CHOL   C18 2744   9.450   6.737   3.246
   95CHOL   C19 2745   9.494   6.792   2.818
   95CHOL   C20 2746   9.270   6.659   3.479
   95CHOL   C21 2747   9.209   6.521   3.451
   95CHOL   C22 2748   9.227   6.701   3.620
   95CHOL   C23 2749   9.285   6.608   3.728
   95CHOL   C24 2750   9.236   6.646   3.868
   95CHOL   C25 2751   9.292   6.554   3.977
   95CHOL   C26 2752   9.221   6.585   4.109
   95CHOL   C27 2753   9.442   6.578   3.996
   95CHOL   O28 2754   9.364   6.914   2.378
   95CHOL   H29 2755   9.315   6.853   2.310
   96CHOL    C1 2756   8.693   8.699   3.131
   96CHOL    C2 2757   8.707   8.719   2.979
   96CHOL    C3 2758   8.574   8.687   2.909
   96CHOL    C4 2759   8.465   8.779   2.963
   96CHOL    C5 2760   8.451   8.770   3.114
   96CHOL    C6 2761   8.330   8.764   3.172
   96CHOL    C7 2762   8.305   8.763   3.320
   96CHOL    C8 2763   8.430   8.805   3.397
   96CHOL    C9 2764   8.555   8.737   3.337
   96CHOL   C10 2765   8.581   8.785   3.192
   96CHOL   C11 2766   8.676   8.756   3.430
   96CHOL   C12 2767   8.652   8.715   3.576
   96CHOL   C13 2768   8.529   8.786   3.636
   96CHOL   C14 2769   8.412   8.756   3.541
   96CHOL   C15 2770   8.287   8.808   3.614
   96CHOL   C16 2771   8.322   8.782   3.762
   96CHOL   C17 2772   8.466   8.725   3.764
   96CHOL   C18 2773   8.559   8.936   3.653
   96CHOL   C19 2774   8.625   8.932   3.192
   96CHOL   C20 2775   8.532   8.746   3.903
   96CHOL   C21 2776   8.670   8.681   3.913
   96CHOL   C22 2777   8.442   8.687   4.013
   96CHOL   C23 2778   8.484   8.725   4.155
   96CHOL   C24 2779   8.395   8.658   4.261
   96CHOL   C25 2780   8.252   8.711   4.263
   96CHOL   C26 2781   8.166   8.620   4.351
   96CHOL   C27 2782   8.249   8.852   4.323
   96CHOL   O28 2783   8.583   8.707   2.767
   96CHOL   H29 2784   8.665   8.656   2.729
   97CHOL    C1 2785   5.559   3.189   2.724
   97CHOL    C2 2786   5.566   3.206   2.571
   97CHOL    C3 2787   5.431   3.252   2.514
   97CHOL    C4 2788   5.391   3.384   2.581
   97CHOL    C5 2789   5.387   3.374   2.732
   97CHOL    C6 2790   5.283   3.422   2.803
   97CHOL    C7 2791   5.275   3.423   2.953
   97CHOL    C8 2792   5.413   3.400   3.015
   97CHOL    C9 2793   5.484   3.283   2.943
   97CHOL   C10 2794   5.514   3.317   2.796
   97CHOL   C11 2795   5.610   3.244   3.023
   97CHOL   C12 2796   5.593   3.222   3.174
   97CHOL   C13 2797   5.522   3.341   3.241
   97CHOL   C14 2798   5.392   3.362   3.162
   97CHOL   C15 2799   5.311   3.463   3.246
   97CHOL   C16 2800   5.352   3.428   3.391
   97CHOL   C17 2801   5.461   3.318   3.382
   97CHOL   C18 2802   5.615   3.464   3.240
   97CHOL   C19 2803   5.626   3.423   2.787
   97CHOL   C20 2804   5.555   3.325   3.505
   97CHOL   C21 2805   5.653   3.207   3.510
   97CHOL   C22 2806   5.475   3.325   3.636
   97CHOL   C23 2807   5.561   3.364   3.757
   97CHOL   C24 2808   5.480   3.357   3.887
   97CHOL   C25 2809   5.561   3.398   4.010
   97CHOL   C26 2810   5.678   3.301   4.033
   97CHOL   C27 2811   5.471   3.398   4.133
   97CHOL   O28 2812   5.442   3.274   2.373
   97CHOL   H29 2813   5.532   3.319   2.351
   98CHOL    C1 2814   4.357   9.814   2.665
   98CHOL    C2 2815   4.382   9.803   2.514
   98CHOL    C3 2816   4.450   9.929   2.462
   98CHOL    C4 2817   4.585   9.948   2.532
   98CHOL    C5 2818   4.568   9.955   2.683
   98CHOL    C6 2819   4.629  10.049   2.756
   98CHOL    C7 2820   4.623  10.061   2.907
   98CHOL    C8 2821   4.566   9.933   2.969
   98CHOL    C9 2822   4.445   9.884   2.887
   98CHOL   C10 2823   4.486   9.842   2.744
   98CHOL   C11 2824   4.372   9.770   2.961
   98CHOL   C12 2825   4.332   9.803   3.106
   98CHOL   C13 2826   4.453   9.852   3.188
   98CHOL   C14 2827   4.515   9.969   3.110
   98CHOL   C15 2828   4.618  10.029   3.207
   98CHOL   C16 2829   4.553  10.006   3.345
   98CHOL   C17 2830   4.421   9.927   3.320
   98CHOL   C18 2831   4.551   9.735   3.211
   98CHOL   C19 2832   4.573   9.714   2.748
   98CHOL   C20 2833   4.379   9.843   3.443
   98CHOL   C21 2834   4.236   9.789   3.431
   98CHOL   C22 2835   4.388   9.925   3.573
   98CHOL   C23 2836   4.371   9.839   3.699
   98CHOL   C24 2837   4.393   9.924   3.825
   98CHOL   C25 2838   4.380   9.841   3.954
   98CHOL   C26 2839   4.430   9.925   4.072
   98CHOL   C27 2840   4.233   9.805   3.979
   98CHOL   O28 2841   4.468   9.919   2.320
   98CHOL   H29 2842   4.522   9.833   2.299
   99CHOL    C1 2843   6.912   3.822   2.865
   99CHOL    C2 2844   6.900   3.868   2.719
   99CHOL    C3 2845   6.819   3.997   2.708
   99CHOL    C4 2846   6.889   4.107   2.790
   99CHOL    C5 2847   6.907   4.066   2.935
   99CHOL    C6 2848   6.877   4.147   3.038
   99CHOL    C7 2849   6.901   4.115   3.184
   99CHOL    C8 2850   6.995   3.995   3.199
   99CHOL    C9 2851   6.953   3.885   3.100
   99CHOL   C10 2852   6.974   3.930   2.955
   99CHOL   C11 2853   7.026   3.753   3.131
   99CHOL   C12 2854   7.023   3.706   3.277
   99CHOL   C13 2855   7.072   3.818   3.372
   99CHOL   C14 2856   6.983   3.941   3.343
   99CHOL   C15 2857   7.017   4.039   3.456
   99CHOL   C16 2858   7.051   3.946   3.575
   99CHOL   C17 2859   7.040   3.800   3.522
   99CHOL   C18 2860   7.222   3.843   3.349
   99CHOL   C19 2861   7.124   3.944   2.923
   99CHOL   C20 2862   7.129   3.700   3.600
   99CHOL   C21 2863   7.079   3.557   3.581
   99CHOL   C22 2864   7.134   3.730   3.751
   99CHOL   C23 2865   7.242   3.649   3.824
   99CHOL   C24 2866   7.247   3.685   3.973
   99CHOL   C25 2867   7.354   3.607   4.049
   99CHOL   C26 2868   7.318   3.458   4.059
   99CHOL   C27 2869   7.371   3.665   4.190
   99CHOL   O28 2870   6.811   4.030   2.569
   99CHOL   H29 2871   6.806   4.133   2.553
  100CHOL    C1 2872   6.632   9.254   3.037
  100CHOL    C2 2873   6.634   9.281   2.886
  100CHOL    C3 2874   6.531   9.195   2.811
  100CHOL    C4 2875   6.391   9.214   2.870
  100CHOL    C5 2876   6.387   9.198   3.021
  100CHOL    C6 2877   6.287   9.133   3.083
  100CHOL    C7 2878   6.270   9.124   3.233
  100CHOL    C8 2879   6.354   9.230   3.303
  100CHOL    C9 2880   6.496   9.229   3.243
  100CHOL   C10 2881   6.493   9.277   3.097
  100CHOL   C11 2882   6.592   9.313   3.329
  100CHOL   C12 2883   6.587   9.290   3.481
  100CHOL   C13 2884   6.443   9.301   3.534
  100CHOL   C14 2885   6.360   9.200   3.454
  100CHOL   C15 2886   6.224   9.194   3.526
  100CHOL   C16 2887   6.262   9.222   3.674
  100CHOL   C17 2888   6.415   9.248   3.677
  100CHOL   C18 2889   6.393   9.447   3.519
  100CHOL   C19 2890   6.456   9.427   3.091
  100CHOL   C20 2891   6.455   9.340   3.795
  100CHOL   C21 2892   6.607   9.344   3.815
  100CHOL   C22 2893   6.392   9.294   3.928
  100CHOL   C23 2894   6.407   9.397   4.040
  100CHOL   C24 2895   6.347   9.347   4.172
  100CHOL   C25 2896   6.195   9.330   4.169
  100CHOL   C26 2897   6.150   9.258   4.296
  100CHOL   C27 2898   6.126   9.467   4.166
  100CHOL   O28 2899   6.532   9.235   2.673
  100CHOL   H29 2900   6.462   9.178   2.623
  101CHOL    C1 2901   5.615   0.260   2.758
  101CHOL    C2 2902   5.649   0.182   2.630
  101CHOL    C3 2903   5.719   0.272   2.528
  101CHOL    C4 2904   5.848   0.328   2.589
  101CHOL    C5 2905   5.822   0.402   2.720
  101CHOL    C6 2906   5.878   0.521   2.747
  101CHOL    C7 2907   5.864   0.597   2.877
  101CHOL    C8 2908   5.811   0.504   2.987
  101CHOL    C9 2909   5.693   0.421   2.932
  101CHOL   C10 2910   5.740   0.324   2.822
  101CHOL   C11 2911   5.621   0.348   3.048
  101CHOL   C12 2912   5.588   0.431   3.174
  101CHOL   C13 2913   5.712   0.507   3.224
  101CHOL   C14 2914   5.763   0.590   3.105
  101CHOL   C15 2915   5.868   0.684   3.166
  101CHOL   C16 2916   5.817   0.706   3.311
  101CHOL   C17 2917   5.689   0.620   3.328
  101CHOL   C18 2918   5.816   0.405   3.277
  101CHOL   C19 2919   5.828   0.213   2.883
  101CHOL   C20 2920   5.668   0.572   3.474
  101CHOL   C21 2921   5.521   0.535   3.499
  101CHOL   C22 2922   5.712   0.676   3.578
  101CHOL   C23 2923   5.724   0.616   3.719
  101CHOL   C24 2924   5.789   0.716   3.815
  101CHOL   C25 2925   5.807   0.657   3.956
  101CHOL   C26 2926   5.897   0.750   4.037
  101CHOL   C27 2927   5.672   0.648   4.027
  101CHOL   O28 2928   5.749   0.196   2.410
  101CHOL   H29 2929   5.795   0.107   2.438
  102CHOL    C1 2930   6.174  10.367   3.409
  102CHOL    C2 2931   6.225  10.422   3.276
  102CHOL    C3 2932   6.117   0.003   3.206
  102CHOL    C4 2933   6.073   0.117   3.299
  102CHOL    C5 2934   6.029   0.069   3.436
  102CHOL    C6 2935   5.922   0.120   3.498
  102CHOL    C7 2936   5.877   0.085   3.638
  102CHOL    C8 2937   5.987   0.011   3.716
  102CHOL    C9 2938   6.053  10.411   3.624
  102CHOL   C10 2939   6.127  10.477   3.505
  102CHOL   C11 2940   6.149  10.325   3.708
  102CHOL   C12 2941   6.080  10.261   3.829
  102CHOL   C13 2942   6.004  10.357   3.923
  102CHOL   C14 2943   5.918  10.457   3.842
  102CHOL   C15 2944   5.895   0.071   3.939
  102CHOL   C16 2945   6.036   0.087   3.999
  102CHOL   C17 2946   6.083  10.445   4.025
  102CHOL   C18 2947   5.909  10.269   4.004
  102CHOL   C19 2948   6.248   0.055   3.555
  102CHOL   C20 2949   6.236  10.432   4.045
  102CHOL   C21 2950   6.271  10.298   4.113
  102CHOL   C22 2951   6.291   0.042   4.133
  102CHOL   C23 2952   6.444   0.048   4.140
  102CHOL   C24 2953   6.491   0.170   4.219
  102CHOL   C25 2954   6.462   0.303   4.148
  102CHOL   C26 2955   6.487   0.419   4.244
  102CHOL   C27 2956   6.555   0.319   4.027
  102CHOL   O28 2957   6.169   0.058   3.085
  102CHOL   H29 2958   6.184  10.486   3.017
  103CHOL    C1 2959   7.234  10.137   3.228
  103CHOL    C2 2960   7.203  10.149   3.078
  103CHOL    C3 2961   7.253  10.023   3.006
  103CHOL    C4 2962   7.180   9.900   3.060
  103CHOL    C5 2963   7.195   9.885   3.210
  103CHOL    C6 2964   7.215   9.765   3.267
  103CHOL    C7 2965   7.224   9.739   3.416
  103CHOL    C8 2966   7.179   9.861   3.497
  103CHOL    C9 2967   7.232   9.991   3.431
  103CHOL   C10 2968   7.170  10.012   3.292
  103CHOL   C11 2969   7.211  10.112   3.525
  103CHOL   C12 2970   7.267  10.092   3.667
  103CHOL   C13 2971   7.212   9.964   3.733
  103CHOL   C14 2972   7.243   9.849   3.636
  103CHOL   C15 2973   7.208   9.722   3.714
  103CHOL   C16 2974   7.246   9.759   3.859
  103CHOL   C17 2975   7.289   9.909   3.856
  103CHOL   C18 2976   7.062   9.983   3.764
  103CHOL   C19 2977   7.018  10.036   3.304
  103CHOL   C20 2978   7.272   9.973   3.996
  103CHOL   C21 2979   7.324  10.117   4.000
  103CHOL   C22 2980   7.348   9.892   4.102
  103CHOL   C23 2981   7.320   9.934   4.246
  103CHOL   C24 2982   7.403   9.849   4.344
  103CHOL   C25 2983   7.381   9.882   4.492
  103CHOL   C26 2984   7.236   9.861   4.535
  103CHOL   C27 2985   7.428  10.024   4.526
  103CHOL   O28 2986   7.237  10.036   2.865
  103CHOL   H29 2987   7.137  10.023   2.840
  104CHOL    C1 2988   7.410   0.915   3.079
  104CHOL    C2 2989   7.389   0.929   2.927
  104CHOL    C3 2990   7.256   0.866   2.885
  104CHOL    C4 2991   7.142   0.937   2.959
  104CHOL    C5 2992   7.159   0.926   3.109
  104CHOL    C6 2993   7.059   0.887   3.189
  104CHOL    C7 2994   7.065   0.880   3.339
  104CHOL    C8 2995   7.185   0.959   3.392
  104CHOL    C9 2996   7.311   0.928   3.308
  104CHOL   C10 2997   7.294   0.974   3.161
  104CHOL   C11 2998   7.436   0.989   3.375
  104CHOL   C12 2999   7.456   0.950   3.523
  104CHOL   C13 3000   7.329   0.978   3.607
  104CHOL   C14 3001   7.213   0.908   3.534
  104CHOL   C15 3002   7.096   0.914   3.633
  104CHOL   C16 3003   7.166   0.898   3.769
  104CHOL   C17 3004   7.319   0.902   3.741
  104CHOL   C18 3005   7.309   1.130   3.624
  104CHOL   C19 3006   7.299   1.128   3.152
  104CHOL   C20 3007   7.393   0.944   3.870
  104CHOL   C21 3008   7.543   0.973   3.850
  104CHOL   C22 3009   7.382   0.829   3.971
  104CHOL   C23 3010   7.416   0.866   4.116
  104CHOL   C24 3011   7.302   0.946   4.181
  104CHOL   C25 3012   7.325   0.980   4.329
  104CHOL   C26 3013   7.450   1.067   4.349
  104CHOL   C27 3014   7.333   0.854   4.416
  104CHOL   O28 3015   7.236   0.879   2.743
  104CHOL   H29 3016   7.140   0.849   2.723
  105CHOL    C1 3017   8.030   4.209   2.914
  105CHOL    C2 3018   7.996   4.191   2.765
  105CHOL    C3 3019   8.119   4.140   2.689
  105CHOL    C4 3020   8.162   4.005   2.746
  105CHOL    C5 3021   8.193   4.014   2.894
  105CHOL    C6 3022   8.304   3.958   2.946
  105CHOL    C7 3023   8.340   3.956   3.092
  105CHOL    C8 3024   8.219   3.995   3.178
  105CHOL    C9 3025   8.147   4.116   3.116
  105CHOL   C10 3026   8.085   4.080   2.979
  105CHOL   C11 3027   8.042   4.172   3.215
  105CHOL   C12 3028   8.097   4.202   3.355
  105CHOL   C13 3029   8.167   4.080   3.417
  105CHOL   C14 3030   8.273   4.034   3.316
  105CHOL   C15 3031   8.355   3.927   3.391
  105CHOL   C16 3032   8.351   3.978   3.537
  105CHOL   C17 3033   8.262   4.106   3.537
  105CHOL   C18 3034   8.062   3.971   3.450
  105CHOL   C19 3035   7.969   3.981   2.997
  105CHOL   C20 3036   8.200   4.134   3.676
  105CHOL   C21 3037   8.138   4.274   3.684
  105CHOL   C22 3038   8.305   4.122   3.788
  105CHOL   C23 3039   8.244   4.127   3.928
  105CHOL   C24 3040   8.351   4.111   4.036
  105CHOL   C25 3041   8.293   4.118   4.178
  105CHOL   C26 3042   8.407   4.118   4.279
  105CHOL   C27 3043   8.204   3.996   4.205
  105CHOL   O28 3044   8.095   4.128   2.548
  105CHOL   H29 3045   8.026   4.054   2.531
  106CHOL    C1 3046   6.866   0.010   2.916
  106CHOL    C2 3047   6.846   0.037   2.766
  106CHOL    C3 3048   6.699   0.017   2.729
  106CHOL    C4 3049   6.609   0.111   2.810
  106CHOL    C5 3050   6.633   0.103   2.960
  106CHOL    C6 3051   6.532   0.115   3.048
  106CHOL    C7 3052   6.547   0.118   3.199
  106CHOL    C8 3053   6.693   0.140   3.240
  106CHOL    C9 3054   6.785   0.054   3.149
  106CHOL   C10 3055   6.779   0.103   3.003
  106CHOL   C11 3056   6.929   0.051   3.205
  106CHOL   C12 3057   6.940   0.012   3.353
  106CHOL   C13 3058   6.852   0.103   3.441
  106CHOL   C14 3059   6.709   0.094   3.386
  106CHOL   C15 3060   6.623   0.167   3.491
  106CHOL   C16 3061   6.697   0.138   3.624
  106CHOL   C17 3062   6.824   0.056   3.587
  106CHOL   C18 3063   6.910   0.246   3.440
  106CHOL   C19 3064   6.835   0.247   2.993
  106CHOL   C20 3065   6.939   0.074   3.690
  106CHOL   C21 3066   7.046  10.468   3.674
  106CHOL   C22 3067   6.888   0.071   3.835
  106CHOL   C23 3068   6.996   0.111   3.936
  106CHOL   C24 3069   6.946   0.107   4.081
  106CHOL   C25 3070   6.907  10.469   4.130
  106CHOL   C26 3071   6.844  10.480   4.269
  106CHOL   C27 3072   7.030  10.378   4.139
  106CHOL   O28 3073   6.680   0.043   2.589
  106CHOL   H29 3074   6.614  10.477   2.552
  107CHOL    C1 3075   9.500   4.419   2.782
  107CHOL    C2 3076   9.514   4.434   2.630
  107CHOL    C3 3077   9.417   4.541   2.577
  107CHOL    C4 3078   9.445   4.675   2.644
  107CHOL    C5 3079   9.440   4.665   2.796
  107CHOL    C6 3080   9.378   4.758   2.871
  107CHOL    C7 3081   9.376   4.760   3.022
  107CHOL    C8 3082   9.486   4.669   3.078
  107CHOL    C9 3083   9.483   4.534   3.004
  107CHOL   C10 3084   9.523   4.552   2.856
  107CHOL   C11 3085   9.571   4.431   3.077
  107CHOL   C12 3086   9.551   4.419   3.230
  107CHOL   C13 3087   9.559   4.556   3.299
  107CHOL   C14 3088   9.457   4.646   3.227
  107CHOL   C15 3089   9.448   4.773   3.314
  107CHOL   C16 3090   9.468   4.717   3.457
  107CHOL   C17 3091   9.501   4.566   3.443
  107CHOL   C18 3092   9.704   4.610   3.293
  107CHOL   C19 3093   9.671   4.591   2.846
  107CHOL   C20 3094   9.583   4.517   3.565
  107CHOL   C21 3095   9.613   4.366   3.559
  107CHOL   C22 3096   9.504   4.543   3.694
  107CHOL   C23 3097   9.581   4.523   3.825
  107CHOL   C24 3098   9.687   4.632   3.847
  107CHOL   C25 3099   9.751   4.623   3.985
  107CHOL   C26 3100   9.868   4.721   3.993
  107CHOL   C27 3101   9.650   4.660   4.094
  107CHOL   O28 3102   9.432   4.551   2.434
  107CHOL   H29 3103   9.401   4.461   2.395
  108CHOL    C1 3104   9.370   9.847   3.076
  108CHOL    C2 3105   9.332   9.896   2.935
  108CHOL    C3 3106   9.366   9.788   2.832
  108CHOL    C4 3107   9.293   9.656   2.863
  108CHOL    C5 3108   9.312   9.609   3.006
  108CHOL    C6 3109   9.322   9.478   3.037
  108CHOL    C7 3110   9.330   9.422   3.178
  108CHOL    C8 3111   9.289   9.528   3.281
  108CHOL    C9 3112   9.356   9.662   3.244
  108CHOL   C10 3113   9.296   9.717   3.112
  108CHOL   C11 3114   9.343   9.764   3.359
  108CHOL   C12 3115   9.384   9.712   3.498
  108CHOL   C13 3116   9.307   9.583   3.533
  108CHOL   C14 3117   9.336   9.482   3.420
  108CHOL   C15 3118   9.278   9.350   3.472
  108CHOL   C16 3119   9.299   9.360   3.625
  108CHOL   C17 3120   9.360   9.500   3.653
  108CHOL   C18 3121   9.157   9.616   3.550
  108CHOL   C19 3122   9.146   9.747   3.131
  108CHOL   C20 3123   9.327   9.550   3.796
  108CHOL   C21 3124   9.410   9.674   3.833
  108CHOL   C22 3125   9.354   9.442   3.901
  108CHOL   C23 3126   9.300   9.478   4.040
  108CHOL   C24 3127   9.332   9.365   4.140
  108CHOL   C25 3128   9.278   9.391   4.281
  108CHOL   C26 3129   9.125   9.393   4.282
  108CHOL   C27 3130   9.327   9.280   4.374
  108CHOL   O28 3131   9.330   9.834   2.701
  108CHOL   H29 3132   9.240   9.789   2.674
  109CHOL    C1 3133   8.280   9.778   3.007
  109CHOL    C2 3134   8.280   9.787   2.853
  109CHOL    C3 3135   8.161   9.871   2.805
  109CHOL    C4 3136   8.173  10.012   2.862
  109CHOL    C5 3137   8.174  10.009   3.014
  109CHOL    C6 3138   8.095  10.089   3.087
  109CHOL    C7 3139   8.093  10.096   3.238
  109CHOL    C8 3140   8.216  10.028   3.298
  109CHOL    C9 3141   8.243   9.894   3.224
  109CHOL   C10 3142   8.278   9.916   3.075
  109CHOL   C11 3143   8.351   9.812   3.299
  109CHOL   C12 3144   8.321   9.788   3.449
  109CHOL   C13 3145   8.291   9.921   3.521
  109CHOL   C14 3146   8.181   9.993   3.443
  109CHOL   C15 3147   8.140  10.109   3.536
  109CHOL   C16 3148   8.157  10.049   3.678
  109CHOL   C17 3149   8.215   9.907   3.654
  109CHOL   C18 3150   8.421  10.002   3.536
  109CHOL   C19 3151   8.416   9.982   3.061
  109CHOL   C20 3152   8.288   9.839   3.773
  109CHOL   C21 3153   8.198   9.724   3.821
  109CHOL   C22 3154   8.315   9.931   3.893
  109CHOL   C23 3155   8.398   9.863   4.002
  109CHOL   C24 3156   8.401   9.943   4.133
  109CHOL   C25 3157   8.480  10.074   4.124
  109CHOL   C26 3158   8.630  10.046   4.108
  109CHOL   C27 3159   8.457  10.156   4.252
  109CHOL   O28 3160   8.159   9.876   2.662
  109CHOL   H29 3161   8.099   9.797   2.630
  110CHOL    C1 3162   8.899   0.118   3.084
  110CHOL    C2 3163   8.960   0.096   2.945
  110CHOL    C3 3164   8.876   0.167   2.838
  110CHOL    C4 3165   8.862   0.317   2.870
  110CHOL    C5 3166   8.819   0.347   3.013
  110CHOL    C6 3167   8.738   0.451   3.042
  110CHOL    C7 3168   8.701   0.495   3.182
  110CHOL    C8 3169   8.795   0.433   3.285
  110CHOL    C9 3170   8.814   0.283   3.252
  110CHOL   C10 3171   8.892   0.267   3.120
  110CHOL   C11 3172   8.884   0.210   3.368
  110CHOL   C12 3173   8.829   0.239   3.509
  110CHOL   C13 3174   8.824   0.390   3.538
  110CHOL   C14 3175   8.738   0.452   3.427
  110CHOL   C15 3176   8.716   0.597   3.472
  110CHOL   C16 3177   8.711   0.585   3.626
  110CHOL   C17 3178   8.741   0.437   3.660
  110CHOL   C18 3179   8.968   0.446   3.545
  110CHOL   C19 3180   9.034   0.323   3.136
  110CHOL   C20 3181   8.801   0.422   3.803
  110CHOL   C21 3182   8.824   0.276   3.843
  110CHOL   C22 3183   8.708   0.488   3.906
  110CHOL   C23 3184   8.756   0.479   4.051
  110CHOL   C24 3185   8.651   0.539   4.145
  110CHOL   C25 3186   8.684   0.518   4.293
  110CHOL   C26 3187   8.676   0.370   4.330
  110CHOL   C27 3188   8.583   0.596   4.377
  110CHOL   O28 3189   8.941   0.150   2.711
  110CHOL   H29 3190   9.034   0.198   2.715
  111CHOL    C1 3191   9.068  10.143   3.103
  111CHOL    C2 3192   9.033  10.204   2.967
  111CHOL    C3 3193   8.922  10.123   2.897
  111CHOL    C4 3194   8.798  10.114   2.987
  111CHOL    C5 3195   8.829  10.068   3.129
  111CHOL    C6 3196   8.747   9.984   3.195
  111CHOL    C7 3197   8.763   9.941   3.339
  111CHOL    C8 3198   8.858  10.036   3.412
  111CHOL    C9 3199   8.983  10.057   3.324
  111CHOL   C10 3200   8.946  10.137   3.197
  111CHOL   C11 3201   9.096  10.123   3.406
  111CHOL   C12 3202   9.124  10.064   3.545
  111CHOL   C13 3203   8.995  10.059   3.630
  111CHOL   C14 3204   8.894   9.977   3.549
  111CHOL   C15 3205   8.776   9.956   3.646
  111CHOL   C16 3206   8.845   9.949   3.784
  111CHOL   C17 3207   8.997   9.971   3.759
  111CHOL   C18 3208   8.950  10.203   3.662
  111CHOL   C19 3209   8.905  10.281   3.236
  111CHOL   C20 3210   9.069  10.027   3.884
  111CHOL   C21 3211   9.221  10.015   3.870
  111CHOL   C22 3212   9.027   9.954   4.013
  111CHOL   C23 3213   9.079  10.018   4.142
  111CHOL   C24 3214   9.019  10.156   4.168
  111CHOL   C25 3215   9.071  10.220   4.297
  111CHOL   C26 3216   9.221  10.253   4.286
  111CHOL   C27 3217   8.993  10.349   4.326
  111CHOL   O28 3218   8.888  10.189   2.774
  111CHOL   H29 3219   8.824  10.130   2.720
  112CHOL    C1 3220   9.748  10.115   2.989
  112CHOL    C2 3221   9.787  10.093   2.842
  112CHOL    C3 3222   9.913  10.173   2.806
  112CHOL    C4 3223  10.028  10.134   2.900
  112CHOL    C5 3224   9.992  10.143   3.047
  112CHOL    C6 3225  10.080  10.192   3.137
  112CHOL    C7 3226  10.058  10.196   3.286
  112CHOL    C8 3227   9.942  10.105   3.326
  112CHOL    C9 3228   9.824  10.126   3.228
  112CHOL   C10 3229   9.861  10.077   3.086
  112CHOL   C11 3230   9.696  10.058   3.282
  112CHOL   C12 3231   9.660  10.094   3.428
  112CHOL   C13 3232   9.778  10.067   3.523
  112CHOL   C14 3233   9.899  10.145   3.468
  112CHOL   C15 3234  10.006  10.133   3.578
  112CHOL   C16 3235   9.921  10.126   3.708
  112CHOL   C17 3236   9.773  10.133   3.663
  112CHOL   C18 3237   9.801   9.915   3.533
  112CHOL   C19 3238   9.879   9.924   3.086
  112CHOL   C20 3239   9.672  10.069   3.761
  112CHOL   C21 3240   9.538  10.143   3.750
  112CHOL   C22 3241   9.718  10.073   3.908
  112CHOL   C23 3242   9.629   9.986   3.999
  112CHOL   C24 3243   9.682   9.983   4.142
  112CHOL   C25 3244   9.594   9.898   4.235
  112CHOL   C26 3245   9.646   9.913   4.379
  112CHOL   C27 3246   9.599   9.750   4.197
  112CHOL   O28 3247   9.952  10.144   2.671
  112CHOL   H29 3248  10.044  10.190   2.652
  113CHOL    C1 3249   6.729   1.587   2.563
  113CHOL    C2 3250   6.735   1.623   2.414
  113CHOL    C3 3251   6.668   1.515   2.328
  113CHOL    C4 3252   6.523   1.493   2.375
  113CHOL    C5 3253   6.512   1.465   2.524
  113CHOL    C6 3254   6.431   1.369   2.572
  113CHOL    C7 3255   6.407   1.342   2.718
  113CHOL    C8 3256   6.449   1.464   2.801
  113CHOL    C9 3257   6.590   1.509   2.756
  113CHOL   C10 3258   6.585   1.565   2.612
  113CHOL   C11 3259   6.649   1.609   2.858
  113CHOL   C12 3260   6.639   1.570   3.007
  113CHOL   C13 3261   6.495   1.534   3.046
  113CHOL   C14 3262   6.450   1.423   2.949
  113CHOL   C15 3263   6.317   1.373   3.006
  113CHOL   C16 3264   6.335   1.392   3.159
  113CHOL   C17 3265   6.474   1.457   3.180
  113CHOL   C18 3266   6.407   1.660   3.040
  113CHOL   C19 3267   6.509   1.699   2.611
  113CHOL   C20 3268   6.481   1.540   3.310
  113CHOL   C21 3269   6.627   1.565   3.350
  113CHOL   C22 3270   6.412   1.471   3.429
  113CHOL   C23 3271   6.398   1.563   3.551
  113CHOL   C24 3272   6.330   1.491   3.668
  113CHOL   C25 3273   6.319   1.580   3.792
  113CHOL   C26 3274   6.270   1.496   3.910
  113CHOL   C27 3275   6.220   1.694   3.768
  113CHOL   O28 3276   6.665   1.559   2.192
  113CHOL   H29 3277   6.604   1.495   2.138
  114CHOL    C1 3278   4.835   1.758   2.897
  114CHOL    C2 3279   4.862   1.775   2.746
  114CHOL    C3 3280   4.779   1.891   2.689
  114CHOL    C4 3281   4.810   2.022   2.764
  114CHOL    C5 3282   4.798   2.008   2.916
  114CHOL    C6 3283   4.744   2.105   2.991
  114CHOL    C7 3284   4.737   2.103   3.142
  114CHOL    C8 3285   4.832   1.998   3.200
  114CHOL    C9 3286   4.818   1.868   3.120
  114CHOL   C10 3287   4.868   1.886   2.975
  114CHOL   C11 3288   4.890   1.751   3.191
  114CHOL   C12 3289   4.857   1.735   3.340
  114CHOL   C13 3290   4.879   1.866   3.418
  114CHOL   C14 3291   4.794   1.973   3.347
  114CHOL   C15 3292   4.799   2.094   3.441
  114CHOL   C16 3293   4.809   2.029   3.581
  114CHOL   C17 3294   4.816   1.876   3.559
  114CHOL   C18 3295   5.030   1.899   3.421
  114CHOL   C19 3296   5.021   1.910   2.974
  114CHOL   C20 3297   4.888   1.804   3.676
  114CHOL   C21 3298   4.876   1.651   3.667
  114CHOL   C22 3299   4.830   1.847   3.813
  114CHOL   C23 3300   4.910   1.793   3.932
  114CHOL   C24 3301   4.850   1.834   4.067
  114CHOL   C25 3302   4.863   1.984   4.097
  114CHOL   C26 3303   5.009   2.022   4.123
  114CHOL   C27 3304   4.778   2.020   4.218
  114CHOL   O28 3305   4.813   1.906   2.551
  114CHOL   H29 3306   4.753   1.979   2.509
  115CHOL    C1 3307   7.865   0.587   3.138
  115CHOL    C2 3308   7.818   0.581   2.992
  115CHOL    C3 3309   7.797   0.435   2.950
  115CHOL    C4 3310   7.695   0.366   3.041
  115CHOL    C5 3311   7.725   0.382   3.189
  115CHOL    C6 3312   7.701   0.282   3.276
  115CHOL    C7 3313   7.720   0.290   3.426
  115CHOL    C8 3314   7.735   0.435   3.471
  115CHOL    C9 3315   7.828   0.511   3.374
  115CHOL   C10 3316   7.764   0.522   3.234
  115CHOL   C11 3317   7.864   0.649   3.432
  115CHOL   C12 3318   7.917   0.648   3.577
  115CHOL   C13 3319   7.821   0.573   3.671
  115CHOL   C14 3320   7.801   0.434   3.610
  115CHOL   C15 3321   7.729   0.354   3.719
  115CHOL   C16 3322   7.782   0.416   3.850
  115CHOL   C17 3323   7.878   0.531   3.809
  115CHOL   C18 3324   7.690   0.654   3.687
  115CHOL   C19 3325   7.637   0.610   3.240
  115CHOL   C20 3326   7.889   0.641   3.917
  115CHOL   C21 3327   8.013   0.730   3.894
  115CHOL   C22 3328   7.898   0.583   4.059
  115CHOL   C23 3329   7.885   0.689   4.169
  115CHOL   C24 3330   7.888   0.625   4.308
  115CHOL   C25 3331   7.877   0.724   4.425
  115CHOL   C26 3332   7.995   0.822   4.428
  115CHOL   C27 3333   7.744   0.801   4.422
  115CHOL   O28 3334   7.752   0.430   2.814
  115CHOL   H29 3335   7.649   0.445   2.813
  116CHOL    C1 3336   7.277   1.742   2.831
  116CHOL    C2 3337   7.263   1.787   2.684
  116CHOL    C3 3338   7.236   1.666   2.594
  116CHOL    C4 3339   7.106   1.597   2.638
  116CHOL    C5 3340   7.108   1.558   2.785
  116CHOL    C6 3341   7.060   1.440   2.827
  116CHOL    C7 3342   7.050   1.396   2.971
  116CHOL    C8 3343   7.063   1.517   3.064
  116CHOL    C9 3344   7.182   1.603   3.017
  116CHOL   C10 3345   7.151   1.669   2.881
  116CHOL   C11 3346   7.220   1.707   3.125
  116CHOL   C12 3347   7.229   1.657   3.270
  116CHOL   C13 3348   7.102   1.581   3.311
  116CHOL   C14 3349   7.084   1.468   3.208
  116CHOL   C15 3350   6.972   1.380   3.266
  116CHOL   C16 3351   6.991   1.395   3.419
  116CHOL   C17 3352   7.107   1.496   3.441
  116CHOL   C18 3353   6.983   1.680   3.315
  116CHOL   C19 3354   7.036   1.770   2.896
  116CHOL   C20 3355   7.094   1.577   3.572
  116CHOL   C21 3356   7.231   1.631   3.615
  116CHOL   C22 3357   7.036   1.495   3.689
  116CHOL   C23 3358   6.991   1.586   3.804
  116CHOL   C24 3359   6.924   1.506   3.916
  116CHOL   C25 3360   6.872   1.595   4.029
  116CHOL   C26 3361   6.987   1.662   4.105
  116CHOL   C27 3362   6.789   1.512   4.127
  116CHOL   O28 3363   7.227   1.708   2.457
  116CHOL   H29 3364   7.229   1.624   2.396
  117CHOL    C1 3365   6.336   2.321   2.833
  117CHOL    C2 3366   6.342   2.347   2.682
  117CHOL    C3 3367   6.247   2.461   2.644
  117CHOL    C4 3368   6.294   2.588   2.717
  117CHOL    C5 3369   6.286   2.567   2.867
  117CHOL    C6 3370   6.219   2.652   2.946
  117CHOL    C7 3371   6.209   2.639   3.096
  117CHOL    C8 3372   6.314   2.542   3.150
  117CHOL    C9 3373   6.318   2.415   3.062
  117CHOL   C10 3374   6.364   2.446   2.918
  117CHOL   C11 3375   6.406   2.307   3.130
  117CHOL   C12 3376   6.369   2.275   3.276
  117CHOL   C13 3377   6.361   2.402   3.363
  117CHOL   C14 3378   6.267   2.498   3.290
  117CHOL   C15 3379   6.240   2.611   3.390
  117CHOL   C16 3380   6.244   2.539   3.527
  117CHOL   C17 3381   6.283   2.391   3.497
  117CHOL   C18 3382   6.503   2.459   3.385
  117CHOL   C19 3383   6.515   2.478   2.914
  117CHOL   C20 3384   6.349   2.325   3.621
  117CHOL   C21 3385   6.377   2.176   3.600
  117CHOL   C22 3386   6.258   2.340   3.744
  117CHOL   C23 3387   6.321   2.290   3.874
  117CHOL   C24 3388   6.221   2.302   3.990
  117CHOL   C25 3389   6.273   2.242   4.121
  117CHOL   C26 3390   6.288   2.090   4.110
  117CHOL   C27 3391   6.175   2.275   4.234
  117CHOL   O28 3392   6.249   2.483   2.502
  117CHOL   H29 3393   6.184   2.414   2.460
  118CHOL    C1 3394   4.612   2.656   2.670
  118CHOL    C2 3395   4.603   2.646   2.517
  118CHOL    C3 3396   4.720   2.723   2.455
  118CHOL    C4 3397   4.852   2.659   2.499
  118CHOL    C5 3398   4.866   2.661   2.651
  118CHOL    C6 3399   4.980   2.698   2.710
  118CHOL    C7 3400   5.005   2.699   2.859
  118CHOL    C8 3401   4.894   2.625   2.935
  118CHOL    C9 3402   4.757   2.658   2.873
  118CHOL   C10 3403   4.746   2.607   2.728
  118CHOL   C11 3404   4.643   2.604   2.962
  118CHOL   C12 3405   4.651   2.655   3.108
  118CHOL   C13 3406   4.787   2.624   3.172
  118CHOL   C14 3407   4.894   2.682   3.078
  118CHOL   C15 3408   5.026   2.669   3.156
  118CHOL   C16 3409   4.980   2.690   3.303
  118CHOL   C17 3410   4.825   2.705   3.299
  118CHOL   C18 3411   4.800   2.472   3.196
  118CHOL   C19 3412   4.749   2.453   2.724
  118CHOL   C20 3413   4.761   2.669   3.435
  118CHOL   C21 3414   4.611   2.701   3.439
  118CHOL   C22 3415   4.829   2.747   3.549
  118CHOL   C23 3416   4.781   2.706   3.688
  118CHOL   C24 3417   4.853   2.788   3.796
  118CHOL   C25 3418   4.805   2.760   3.939
  118CHOL   C26 3419   4.656   2.794   3.956
  118CHOL   C27 3420   4.831   2.615   3.981
  118CHOL   O28 3421   4.712   2.726   2.312
  118CHOL   H29 3422   4.786   2.792   2.278
  119CHOL    C1 3423   7.146   2.590   2.799
  119CHOL    C2 3424   7.104   2.634   2.658
  119CHOL    C3 3425   7.144   2.531   2.552
  119CHOL    C4 3426   7.087   2.392   2.587
  119CHOL    C5 3427   7.116   2.348   2.730
  119CHOL    C6 3428   7.149   2.222   2.760
  119CHOL    C7 3429   7.168   2.168   2.900
  119CHOL    C8 3430   7.105   2.262   3.002
  119CHOL    C9 3431   7.148   2.407   2.969
  119CHOL   C10 3432   7.085   2.453   2.836
  119CHOL   C11 3433   7.113   2.502   3.086
  119CHOL   C12 3434   7.153   2.454   3.227
  119CHOL   C13 3435   7.098   2.313   3.255
  119CHOL   C14 3436   7.152   2.223   3.144
  119CHOL   C15 3437   7.116   2.080   3.189
  119CHOL   C16 3438   7.124   2.090   3.344
  119CHOL   C17 3439   7.157   2.238   3.378
  119CHOL   C18 3440   6.944   2.319   3.263
  119CHOL   C19 3441   6.932   2.466   2.852
  119CHOL   C20 3442   7.104   2.280   3.517
  119CHOL   C21 3443   7.168   2.411   3.563
  119CHOL   C22 3444   7.129   2.174   3.626
  119CHOL   C23 3445   7.061   2.210   3.758
  119CHOL   C24 3446   7.090   2.107   3.868
  119CHOL   C25 3447   7.033   2.150   4.004
  119CHOL   C26 3448   7.106   2.272   4.059
  119CHOL   C27 3449   7.045   2.035   4.104
  119CHOL   O28 3450   7.092   2.573   2.425
  119CHOL   H29 3451   6.989   2.580   2.432
  120CHOL    C1 3452   6.560   3.762   3.035
  120CHOL    C2 3453   6.508   3.762   2.891
  120CHOL    C3 3454   6.500   3.619   2.837
  120CHOL    C4 3455   6.408   3.533   2.926
  120CHOL    C5 3456   6.446   3.540   3.074
  120CHOL    C6 3457   6.440   3.431   3.152
  120CHOL    C7 3458   6.465   3.429   3.301
  120CHOL    C8 3459   6.460   3.571   3.358
  120CHOL    C9 3460   6.540   3.665   3.265
  120CHOL   C10 3461   6.470   3.680   3.129
  120CHOL   C11 3462   6.562   3.802   3.333
  120CHOL   C12 3463   6.615   3.798   3.478
  120CHOL   C13 3464   6.527   3.708   3.567
  120CHOL   C14 3465   6.523   3.570   3.499
  120CHOL   C15 3466   6.456   3.479   3.604
  120CHOL   C16 3467   6.500   3.541   3.738
  120CHOL   C17 3468   6.588   3.664   3.703
  120CHOL   C18 3469   6.389   3.774   3.585
  120CHOL   C19 3470   6.334   3.751   3.146
  120CHOL   C20 3471   6.591   3.774   3.812
  120CHOL   C21 3472   6.720   3.856   3.800
  120CHOL   C22 3473   6.583   3.719   3.955
  120CHOL   C23 3474   6.563   3.830   4.059
  120CHOL   C24 3475   6.561   3.776   4.202
  120CHOL   C25 3476   6.540   3.887   4.305
  120CHOL   C26 3477   6.561   3.831   4.446
  120CHOL   C27 3478   6.398   3.943   4.296
  120CHOL   O28 3479   6.448   3.621   2.703
  120CHOL   H29 3480   6.456   3.526   2.664
  121CHOL    C1 3481   8.531   0.997   2.932
  121CHOL    C2 3482   8.500   1.023   2.784
  121CHOL    C3 3483   8.426   0.904   2.722
  121CHOL    C4 3484   8.297   0.874   2.800
  121CHOL    C5 3485   8.316   0.865   2.951
  121CHOL    C6 3486   8.244   0.778   3.025
  121CHOL    C7 3487   8.248   0.769   3.176
  121CHOL    C8 3488   8.314   0.893   3.237
  121CHOL    C9 3489   8.441   0.928   3.155
  121CHOL   C10 3490   8.402   0.974   3.013
  121CHOL   C11 3491   8.526   1.033   3.229
  121CHOL   C12 3492   8.556   1.003   3.377
  121CHOL   C13 3493   8.426   0.975   3.456
  121CHOL   C14 3494   8.354   0.861   3.382
  121CHOL   C15 3495   8.239   0.821   3.475
  121CHOL   C16 3496   8.298   0.846   3.615
  121CHOL   C17 3497   8.440   0.905   3.594
  121CHOL   C18 3498   8.344   1.105   3.467
  121CHOL   C19 3499   8.322   1.105   3.019
  121CHOL   C20 3500   8.485   0.989   3.716
  121CHOL   C21 3501   8.634   1.025   3.709
  121CHOL   C22 3502   8.460   0.914   3.848
  121CHOL   C23 3503   8.474   1.001   3.973
  121CHOL   C24 3504   8.432   0.923   4.098
  121CHOL   C25 3505   8.439   1.008   4.226
  121CHOL   C26 3506   8.371   0.932   4.340
  121CHOL   C27 3507   8.585   1.033   4.265
  121CHOL   O28 3508   8.392   0.936   2.586
  121CHOL   H29 3509   8.466   0.995   2.544
  122CHOL    C1 3510   7.993   1.667   3.006
  122CHOL    C2 3511   7.994   1.633   2.856
  122CHOL    C3 3512   8.114   1.700   2.788
  122CHOL    C4 3513   8.246   1.656   2.853
  122CHOL    C5 3514   8.247   1.669   3.004
  122CHOL    C6 3515   8.359   1.704   3.069
  122CHOL    C7 3516   8.375   1.709   3.219
  122CHOL    C8 3517   8.258   1.637   3.288
  122CHOL    C9 3518   8.126   1.676   3.219
  122CHOL   C10 3519   8.122   1.619   3.075
  122CHOL   C11 3520   8.005   1.631   3.303
  122CHOL   C12 3521   8.010   1.671   3.452
  122CHOL   C13 3522   8.140   1.622   3.518
  122CHOL   C14 3523   8.256   1.680   3.436
  122CHOL   C15 3524   8.382   1.647   3.517
  122CHOL   C16 3525   8.331   1.654   3.663
  122CHOL   C17 3526   8.179   1.684   3.655
  122CHOL   C18 3527   8.140   1.467   3.525
  122CHOL   C19 3528   8.123   1.465   3.079
  122CHOL   C20 3529   8.103   1.632   3.780
  122CHOL   C21 3530   7.965   1.698   3.792
  122CHOL   C22 3531   8.180   1.659   3.910
  122CHOL   C23 3532   8.129   1.575   4.027
  122CHOL   C24 3533   8.224   1.582   4.148
  122CHOL   C25 3534   8.363   1.523   4.121
  122CHOL   C26 3535   8.356   1.372   4.097
  122CHOL   C27 3536   8.455   1.551   4.240
  122CHOL   O28 3537   8.116   1.666   2.648
  122CHOL   H29 3538   8.162   1.575   2.635
  123CHOL    C1 3539   9.576   1.340   2.712
  123CHOL    C2 3540   9.591   1.319   2.561
  123CHOL    C3 3541   9.519   1.429   2.482
  123CHOL    C4 3542   9.570   1.568   2.525
  123CHOL    C5 3543   9.564   1.589   2.676
  123CHOL    C6 3544   9.522   1.705   2.729
  123CHOL    C7 3545   9.524   1.738   2.876
  123CHOL    C8 3546   9.617   1.642   2.951
  123CHOL    C9 3547   9.589   1.497   2.906
  123CHOL   C10 3548   9.628   1.477   2.758
  123CHOL   C11 3549   9.663   1.397   2.998
  123CHOL   C12 3550   9.645   1.419   3.150
  123CHOL   C13 3551   9.676   1.564   3.190
  123CHOL   C14 3552   9.587   1.653   3.101
  123CHOL   C15 3553   9.601   1.794   3.162
  123CHOL   C16 3554   9.619   1.765   3.313
  123CHOL   C17 3555   9.624   1.611   3.329
  123CHOL   C18 3556   9.827   1.592   3.174
  123CHOL   C19 3557   9.781   1.484   2.741
  123CHOL   C20 3558   9.704   1.570   3.455
  123CHOL   C21 3559   9.696   1.420   3.485
  123CHOL   C22 3560   9.653   1.647   3.577
  123CHOL   C23 3561   9.742   1.632   3.701
  123CHOL   C24 3562   9.694   1.727   3.811
  123CHOL   C25 3563   9.780   1.717   3.937
  123CHOL   C26 3564   9.745   1.834   4.029
  123CHOL   C27 3565   9.750   1.586   4.011
  123CHOL   O28 3566   9.549   1.412   2.343
  123CHOL   H29 3567   9.638   1.362   2.334
  124CHOL    C1 3568   8.600   2.149   2.948
  124CHOL    C2 3569   8.614   2.155   2.796
  124CHOL    C3 3570   8.745   2.224   2.758
  124CHOL    C4 3571   8.863   2.143   2.814
  124CHOL    C5 3572   8.853   2.129   2.965
  124CHOL    C6 3573   8.957   2.149   3.046
  124CHOL    C7 3574   8.956   2.132   3.197
  124CHOL    C8 3575   8.831   2.057   3.243
  124CHOL    C9 3576   8.707   2.108   3.166
  124CHOL   C10 3577   8.718   2.078   3.015
  124CHOL   C11 3578   8.578   2.049   3.225
  124CHOL   C12 3579   8.562   2.068   3.377
  124CHOL   C13 3580   8.686   2.018   3.453
  124CHOL   C14 3581   8.807   2.089   3.391
  124CHOL   C15 3582   8.923   2.058   3.488
  124CHOL   C16 3583   8.853   2.048   3.626
  124CHOL   C17 3584   8.701   2.066   3.600
  124CHOL   C18 3585   8.694   1.864   3.444
  124CHOL   C19 3586   8.708   1.926   2.988
  124CHOL   C20 3587   8.616   1.998   3.709
  124CHOL   C21 3588   8.465   2.027   3.694
  124CHOL   C22 3589   8.658   2.047   3.849
  124CHOL   C23 3590   8.591   1.970   3.963
  124CHOL   C24 3591   8.618   2.039   4.096
  124CHOL   C25 3592   8.550   1.969   4.215
  124CHOL   C26 3593   8.398   1.973   4.202
  124CHOL   C27 3594   8.591   2.042   4.343
  124CHOL   O28 3595   8.753   2.236   2.616
  124CHOL   H29 3596   8.734   2.143   2.573
  125CHOL    C1 3597   7.808   2.890   2.867
  125CHOL    C2 3598   7.788   2.960   2.732
  125CHOL    C3 3599   7.662   3.046   2.735
  125CHOL    C4 3600   7.673   3.152   2.846
  125CHOL    C5 3601   7.706   3.092   2.982
  125CHOL    C6 3602   7.649   3.139   3.094
  125CHOL    C7 3603   7.681   3.091   3.234
  125CHOL    C8 3604   7.810   3.009   3.237
  125CHOL    C9 3605   7.812   2.912   3.116
  125CHOL   C10 3606   7.819   2.990   2.983
  125CHOL   C11 3607   7.928   2.812   3.132
  125CHOL   C12 3608   7.937   2.739   3.267
  125CHOL   C13 3609   7.935   2.837   3.385
  125CHOL   C14 3610   7.810   2.925   3.366
  125CHOL   C15 3611   7.798   3.003   3.498
  125CHOL   C16 3612   7.854   2.904   3.603
  125CHOL   C17 3613   7.903   2.779   3.525
  125CHOL   C18 3614   8.067   2.918   3.387
  125CHOL   C19 3615   7.954   3.064   2.972
  125CHOL   C20 3616   8.016   2.705   3.601
  125CHOL   C21 3617   8.047   2.568   3.539
  125CHOL   C22 3618   7.981   2.684   3.749
  125CHOL   C23 3619   8.100   2.639   3.834
  125CHOL   C24 3620   8.059   2.622   3.981
  125CHOL   C25 3621   8.176   2.583   4.071
  125CHOL   C26 3622   8.131   2.589   4.217
  125CHOL   C27 3623   8.222   2.440   4.041
  125CHOL   O28 3624   7.642   3.109   2.608
  125CHOL   H29 3625   7.539   3.122   2.592
  126CHOL    C1 3626   8.082   3.417   2.939
  126CHOL    C2 3627   8.093   3.472   2.796
  126CHOL    C3 3628   7.955   3.510   2.742
  126CHOL    C4 3629   7.890   3.615   2.834
  126CHOL    C5 3630   7.883   3.570   2.979
  126CHOL    C6 3631   7.774   3.591   3.055
  126CHOL    C7 3632   7.764   3.558   3.203
  126CHOL    C8 3633   7.902   3.533   3.263
  126CHOL    C9 3634   7.984   3.444   3.168
  126CHOL   C10 3635   8.014   3.517   3.035
  126CHOL   C11 3636   8.114   3.396   3.237
  126CHOL   C12 3637   8.094   3.333   3.376
  126CHOL   C13 3638   8.016   3.426   3.470
  126CHOL   C14 3639   7.885   3.461   3.398
  126CHOL   C15 3640   7.800   3.533   3.505
  126CHOL   C16 3641   7.843   3.462   3.636
  126CHOL   C17 3642   7.955   3.361   3.597
  126CHOL   C18 3643   8.102   3.549   3.506
  126CHOL   C19 3644   8.110   3.635   3.061
  126CHOL   C20 3645   8.044   3.325   3.719
  126CHOL   C21 3646   8.150   3.219   3.685
  126CHOL   C22 3647   7.957   3.269   3.833
  126CHOL   C23 3648   8.031   3.233   3.962
  126CHOL   C24 3649   8.081   3.356   4.040
  126CHOL   C25 3650   8.154   3.316   4.169
  126CHOL   C26 3651   8.288   3.248   4.137
  126CHOL   C27 3652   8.177   3.439   4.256
  126CHOL   O28 3653   7.968   3.563   2.610
  126CHOL   H29 3654   8.051   3.624   2.603
  127CHOL    C1 3655   9.175   2.735   2.723
  127CHOL    C2 3656   9.145   2.806   2.590
  127CHOL    C3 3657   9.021   2.744   2.524
  127CHOL    C4 3658   8.900   2.761   2.618
  127CHOL    C5 3659   8.926   2.696   2.753
  127CHOL    C6 3660   8.836   2.615   2.811
  127CHOL    C7 3661   8.852   2.554   2.949
  127CHOL    C8 3662   8.959   2.630   3.027
  127CHOL    C9 3663   9.084   2.645   2.938
  127CHOL   C10 3664   9.056   2.740   2.820
  127CHOL   C11 3665   9.204   2.692   3.024
  127CHOL   C12 3666   9.225   2.626   3.162
  127CHOL   C13 3667   9.095   2.628   3.245
  127CHOL   C14 3668   8.991   2.556   3.158
  127CHOL   C15 3669   8.872   2.533   3.252
  127CHOL   C16 3670   8.939   2.514   3.391
  127CHOL   C17 3671   9.091   2.540   3.372
  127CHOL   C18 3672   9.057   2.774   3.278
  127CHOL   C19 3673   9.039   2.884   2.872
  127CHOL   C20 3674   9.154   2.605   3.498
  127CHOL   C21 3675   9.307   2.593   3.496
  127CHOL   C22 3676   9.102   2.545   3.630
  127CHOL   C23 3677   9.145   2.628   3.752
  127CHOL   C24 3678   9.083   2.574   3.881
  127CHOL   C25 3679   9.128   2.653   4.005
  127CHOL   C26 3680   9.075   2.584   4.130
  127CHOL   C27 3681   9.073   2.796   4.000
  127CHOL   O28 3682   8.996   2.806   2.397
  127CHOL   H29 3683   9.066   2.768   2.331
  128CHOL    C1 3684   8.416   3.175   3.025
  128CHOL    C2 3685   8.371   3.166   2.878
  128CHOL    C3 3686   8.476   3.100   2.788
  128CHOL    C4 3687   8.510   2.961   2.844
  128CHOL    C5 3688   8.553   2.967   2.990
  128CHOL    C6 3689   8.663   2.904   3.033
  128CHOL    C7 3690   8.708   2.897   3.177
  128CHOL    C8 3691   8.591   2.931   3.269
  128CHOL    C9 3692   8.523   3.060   3.220
  128CHOL   C10 3693   8.455   3.038   3.083
  128CHOL   C11 3694   8.426   3.111   3.329
  128CHOL   C12 3695   8.478   3.117   3.474
  128CHOL   C13 3696   8.540   2.982   3.517
  128CHOL   C14 3697   8.646   2.950   3.411
  128CHOL   C15 3698   8.723   2.830   3.468
  128CHOL   C16 3699   8.719   2.856   3.621
  128CHOL   C17 3700   8.630   2.981   3.643
  128CHOL   C18 3701   8.428   2.876   3.528
  128CHOL   C19 3702   8.329   2.951   3.099
  128CHOL   C20 3703   8.560   2.974   3.781
  128CHOL   C21 3704   8.500   3.110   3.821
  128CHOL   C22 3705   8.658   2.932   3.892
  128CHOL   C23 3706   8.587   2.874   4.016
  128CHOL   C24 3707   8.690   2.826   4.118
  128CHOL   C25 3708   8.627   2.756   4.239
  128CHOL   C26 3709   8.567   2.620   4.198
  128CHOL   C27 3710   8.733   2.734   4.347
  128CHOL   O28 3711   8.422   3.085   2.656
  128CHOL   H29 3712   8.488   3.028   2.600
  129CHOL    C1 3713   0.126   3.784   5.292
  129CHOL    C2 3714   0.146   3.730   5.435
  129CHOL    C3 3715   0.041   3.787   5.531
  129CHOL    C4 3716  10.059   3.752   5.480
  129CHOL    C5 3717  10.036   3.800   5.337
  129CHOL    C6 3718   9.926   3.868   5.303
  129CHOL    C7 3719   9.893   3.912   5.163
  129CHOL    C8 3720   9.975   3.833   5.062
  129CHOL    C9 3721  10.123   3.832   5.105
  129CHOL   C10 3722  10.143   3.755   5.238
  129CHOL   C11 3723   0.053   3.779   4.989
  129CHOL   C12 3724   0.030   3.841   4.850
  129CHOL   C13 3725  10.038   3.838   4.811
  129CHOL   C14 3726   9.962   3.904   4.927
  129CHOL   C15 3727   9.819   3.922   4.875
  129CHOL   C16 3728   9.840   3.948   4.724
  129CHOL   C17 3729   9.992   3.932   4.696
  129CHOL   C18 3730   9.995   3.692   4.783
  129CHOL   C19 3731  10.128   3.603   5.213
  129CHOL   C20 3732  10.016   3.893   4.548
  129CHOL   C21 3733   0.007   3.890   4.512
  129CHOL   C22 3734   9.946   3.993   4.455
  129CHOL   C23 3735   9.929   3.942   4.311
  129CHOL   C24 3736   9.855   4.046   4.227
  129CHOL   C25 3737   9.824   3.998   4.084
  129CHOL   C26 3738   9.718   3.888   4.085
  129CHOL   C27 3739   9.773   4.117   4.001
  129CHOL   O28 3740   0.059   3.730   5.662
  129CHOL   H29 3741  10.139   3.765   5.721
  130CHOL    C1 3742   1.686   7.508   5.458
  130CHOL    C2 3743   1.700   7.489   5.609
  130CHOL    C3 3744   1.793   7.370   5.635
  130CHOL    C4 3745   1.933   7.398   5.579
  130CHOL    C5 3746   1.927   7.429   5.430
  130CHOL    C6 3747   2.019   7.379   5.345
  130CHOL    C7 3748   2.025   7.408   5.197
  130CHOL    C8 3749   1.936   7.526   5.160
  130CHOL    C9 3750   1.801   7.514   5.235
  130CHOL   C10 3751   1.821   7.530   5.387
  130CHOL   C11 3752   1.698   7.614   5.178
  130CHOL   C12 3753   1.683   7.613   5.025
  130CHOL   C13 3754   1.819   7.632   4.955
  130CHOL   C14 3755   1.911   7.521   5.008
  130CHOL   C15 3756   2.036   7.530   4.919
  130CHOL   C16 3757   1.979   7.575   4.782
  130CHOL   C17 3758   1.826   7.596   4.803
  130CHOL   C18 3759   1.870   7.775   4.981
  130CHOL   C19 3760   1.870   7.672   5.420
  130CHOL   C20 3761   1.767   7.699   4.704
  130CHOL   C21 3762   1.614   7.692   4.701
  130CHOL   C22 3763   1.818   7.679   4.560
  130CHOL   C23 3764   1.778   7.795   4.468
  130CHOL   C24 3765   1.824   7.773   4.324
  130CHOL   C25 3766   1.782   7.888   4.232
  130CHOL   C26 3767   1.813   7.852   4.087
  130CHOL   C27 3768   1.860   8.016   4.267
  130CHOL   O28 3769   1.798   7.336   5.775
  130CHOL   H29 3770   1.865   7.399   5.824
  131CHOL    C1 3771   1.868   6.624   5.445
  131CHOL    C2 3772   1.888   6.608   5.596
  131CHOL    C3 3773   1.754   6.568   5.660
  131CHOL    C4 3774   1.707   6.434   5.603
  131CHOL    C5 3775   1.694   6.438   5.452
  131CHOL    C6 3776   1.591   6.380   5.389
  131CHOL    C7 3777   1.573   6.372   5.239
  131CHOL    C8 3778   1.703   6.409   5.166
  131CHOL    C9 3779   1.768   6.531   5.234
  131CHOL   C10 3780   1.814   6.496   5.378
  131CHOL   C11 3781   1.883   6.586   5.148
  131CHOL   C12 3782   1.845   6.615   5.002
  131CHOL   C13 3783   1.784   6.491   4.933
  131CHOL   C14 3784   1.666   6.446   5.021
  131CHOL   C15 3785   1.594   6.338   4.939
  131CHOL   C16 3786   1.615   6.387   4.793
  131CHOL   C17 3787   1.703   6.515   4.803
  131CHOL   C18 3788   1.893   6.383   4.913
  131CHOL   C19 3789   1.925   6.390   5.373
  131CHOL   C20 3790   1.775   6.544   4.668
  131CHOL   C21 3791   1.854   6.675   4.671
  131CHOL   C22 3792   1.671   6.552   4.555
  131CHOL   C23 3793   1.730   6.568   4.415
  131CHOL   C24 3794   1.617   6.584   4.312
  131CHOL   C25 3795   1.669   6.602   4.169
  131CHOL   C26 3796   1.552   6.640   4.078
  131CHOL   C27 3797   1.729   6.472   4.117
  131CHOL   O28 3798   1.763   6.562   5.804
  131CHOL   H29 3799   1.814   6.478   5.833
  132CHOL    C1 3800   2.818   3.786   5.784
  132CHOL    C2 3801   2.806   3.826   5.931
  132CHOL    C3 3802   2.918   3.763   6.014
  132CHOL    C4 3803   3.056   3.804   5.958
  132CHOL    C5 3804   3.069   3.773   5.810
  132CHOL    C6 3805   3.181   3.719   5.759
  132CHOL    C7 3806   3.206   3.693   5.612
  132CHOL    C8 3807   3.106   3.772   5.526
  132CHOL    C9 3808   2.964   3.756   5.585
  132CHOL   C10 3809   2.954   3.823   5.724
  132CHOL   C11 3810   2.858   3.810   5.487
  132CHOL   C12 3811   2.867   3.759   5.342
  132CHOL   C13 3812   3.010   3.780   5.288
  132CHOL   C14 3813   3.108   3.713   5.385
  132CHOL   C15 3814   3.242   3.713   5.309
  132CHOL   C16 3815   3.200   3.694   5.161
  132CHOL   C17 3816   3.044   3.695   5.164
  132CHOL   C18 3817   3.037   3.931   5.267
  132CHOL   C19 3818   2.965   3.977   5.710
  132CHOL   C20 3819   2.971   3.717   5.030
  132CHOL   C21 3820   2.968   3.582   4.958
  132CHOL   C22 3821   3.038   3.818   4.936
  132CHOL   C23 3822   2.950   3.847   4.814
  132CHOL   C24 3823   3.023   3.933   4.709
  132CHOL   C25 3824   2.938   3.953   4.583
  132CHOL   C26 3825   2.916   3.820   4.509
  132CHOL   C27 3826   3.008   4.051   4.490
  132CHOL   O28 3827   2.906   3.809   6.150
  132CHOL   H29 3828   2.912   3.913   6.145
  133CHOL    C1 3829   0.047   4.120   5.796
  133CHOL    C2 3830   0.020   4.125   5.947
  133CHOL    C3 3831   0.150   4.150   6.024
  133CHOL    C4 3832   0.210   4.284   5.980
  133CHOL    C5 3833   0.235   4.287   5.830
  133CHOL    C6 3834   0.352   4.328   5.780
  133CHOL    C7 3835   0.383   4.341   5.633
  133CHOL    C8 3836   0.253   4.340   5.552
  133CHOL    C9 3837   0.163   4.224   5.600
  133CHOL   C10 3838   0.114   4.249   5.744
  133CHOL   C11 3839   0.046   4.204   5.501
  133CHOL   C12 3840   0.083   4.196   5.351
  133CHOL   C13 3841   0.170   4.316   5.309
  133CHOL   C14 3842   0.290   4.317   5.404
  133CHOL   C15 3843   0.388   4.419   5.344
  133CHOL   C16 3844   0.361   4.408   5.192
  133CHOL   C17 3845   0.246   4.305   5.174
  133CHOL   C18 3846   0.085   4.445   5.314
  133CHOL   C19 3847   0.012   4.364   5.748
  133CHOL   C20 3848   0.164   4.331   5.046
  133CHOL   C21 3849   0.083   4.207   5.008
  133CHOL   C22 3850   0.252   4.369   4.926
  133CHOL   C23 3851   0.169   4.422   4.809
  133CHOL   C24 3852   0.256   4.454   4.686
  133CHOL   C25 3853   0.172   4.497   4.566
  133CHOL   C26 3854   0.085   4.381   4.516
  133CHOL   C27 3855   0.265   4.542   4.453
  133CHOL   O28 3856   0.123   4.152   6.165
  133CHOL   H29 3857   0.096   4.056   6.193
  134CHOL    C1 3858   3.046   4.496   5.527
  134CHOL    C2 3859   3.013   4.476   5.675
  134CHOL    C3 3860   2.864   4.500   5.703
  134CHOL    C4 3861   2.779   4.406   5.616
  134CHOL    C5 3862   2.814   4.414   5.468
  134CHOL    C6 3863   2.718   4.415   5.374
  134CHOL    C7 3864   2.742   4.415   5.225
  134CHOL    C8 3865   2.887   4.375   5.193
  134CHOL    C9 3866   2.983   4.449   5.289
  134CHOL   C10 3867   2.962   4.404   5.435
  134CHOL   C11 3868   3.129   4.428   5.242
  134CHOL   C12 3869   3.156   4.459   5.094
  134CHOL   C13 3870   3.059   4.384   5.001
  134CHOL   C14 3871   2.917   4.418   5.049
  134CHOL   C15 3872   2.824   4.362   4.940
  134CHOL   C16 3873   2.909   4.378   4.811
  134CHOL   C17 3874   3.047   4.434   4.855
  134CHOL   C18 3875   3.089   4.233   5.005
  134CHOL   C19 3876   3.008   4.258   5.454
  134CHOL   C20 3877   3.159   4.397   4.754
  134CHOL   C21 3878   3.291   4.468   4.784
  134CHOL   C22 3879   3.118   4.432   4.610
  134CHOL   C23 3880   3.217   4.383   4.504
  134CHOL   C24 3881   3.171   4.422   4.363
  134CHOL   C25 3882   3.268   4.375   4.254
  134CHOL   C26 3883   3.226   4.437   4.121
  134CHOL   C27 3884   3.261   4.222   4.240
  134CHOL   O28 3885   2.835   4.475   5.841
  134CHOL   H29 3886   2.861   4.378   5.863
  135CHOL    C1 3887   2.034   3.678   5.403
  135CHOL    C2 3888   2.054   3.638   5.550
  135CHOL    C3 3889   1.918   3.611   5.617
  135CHOL    C4 3890   1.845   3.499   5.543
  135CHOL    C5 3891   1.831   3.527   5.394
  135CHOL    C6 3892   1.717   3.500   5.328
  135CHOL    C7 3893   1.697   3.514   5.179
  135CHOL    C8 3894   1.831   3.528   5.107
  135CHOL    C9 3895   1.921   3.627   5.185
  135CHOL   C10 3896   1.959   3.569   5.323
  135CHOL   C11 3897   2.044   3.664   5.100
  135CHOL   C12 3898   2.014   3.708   4.955
  135CHOL   C13 3899   1.928   3.605   4.880
  135CHOL   C14 3900   1.803   3.582   4.966
  135CHOL   C15 3901   1.709   3.498   4.879
  135CHOL   C16 3902   1.741   3.549   4.736
  135CHOL   C17 3903   1.857   3.652   4.750
  135CHOL   C18 3904   2.012   3.477   4.855
  135CHOL   C19 3905   2.050   3.446   5.306
  135CHOL   C20 3906   1.937   3.665   4.618
  135CHOL   C21 3907   2.043   3.776   4.625
  135CHOL   C22 3908   1.842   3.696   4.502
  135CHOL   C23 3909   1.908   3.694   4.364
  135CHOL   C24 3910   1.807   3.731   4.255
  135CHOL   C25 3911   1.870   3.736   4.115
  135CHOL   C26 3912   1.769   3.797   4.018
  135CHOL   C27 3913   1.905   3.595   4.066
  135CHOL   O28 3914   1.938   3.573   5.754
  135CHOL   H29 3915   1.983   3.654   5.803
  136CHOL    C1 3916   2.568   4.106   5.709
  136CHOL    C2 3917   2.571   4.117   5.862
  136CHOL    C3 3918   2.504   4.248   5.905
  136CHOL    C4 3919   2.357   4.247   5.861
  136CHOL    C5 3920   2.345   4.229   5.711
  136CHOL    C6 3921   2.258   4.303   5.640
  136CHOL    C7 3922   2.235   4.290   5.491
  136CHOL    C8 3923   2.299   4.164   5.435
  136CHOL    C9 3924   2.437   4.140   5.499
  136CHOL   C10 3925   2.425   4.115   5.651
  136CHOL   C11 3926   2.512   4.026   5.425
  136CHOL   C12 3927   2.526   4.049   5.274
  136CHOL   C13 3928   2.390   4.076   5.207
  136CHOL   C14 3929   2.326   4.192   5.286
  136CHOL   C15 3930   2.202   4.232   5.203
  136CHOL   C16 3931   2.248   4.203   5.058
  136CHOL   C17 3932   2.391   4.144   5.067
  136CHOL   C18 3933   2.306   3.947   5.207
  136CHOL   C19 3934   2.352   3.982   5.678
  136CHOL   C20 3935   2.426   4.058   4.944
  136CHOL   C21 3936   2.577   4.032   4.935
  136CHOL   C22 3937   2.381   4.126   4.813
  136CHOL   C23 3938   2.388   4.035   4.690
  136CHOL   C24 3939   2.325   4.104   4.569
  136CHOL   C25 3940   2.331   4.018   4.443
  136CHOL   C26 3941   2.475   4.010   4.389
  136CHOL   C27 3942   2.238   4.076   4.336
  136CHOL   O28 3943   2.513   4.265   6.047
  136CHOL   H29 3944   2.454   4.195   6.092
  137CHOL    C1 3945   2.461   7.304   5.597
  137CHOL    C2 3946   2.464   7.310   5.750
  137CHOL    C3 3947   2.609   7.298   5.798
  137CHOL    C4 3948   2.694   7.412   5.743
  137CHOL    C5 3949   2.685   7.424   5.591
  137CHOL    C6 3950   2.792   7.456   5.516
  137CHOL    C7 3951   2.791   7.478   5.367
  137CHOL    C8 3952   2.648   7.488   5.312
  137CHOL    C9 3953   2.559   7.384   5.383
  137CHOL   C10 3954   2.545   7.416   5.533
  137CHOL   C11 3955   2.421   7.373   5.315
  137CHOL   C12 3956   2.429   7.350   5.163
  137CHOL   C13 3957   2.514   7.459   5.094
  137CHOL   C14 3958   2.651   7.456   5.162
  137CHOL   C15 3959   2.740   7.545   5.074
  137CHOL   C16 3960   2.682   7.524   4.932
  137CHOL   C17 3961   2.559   7.430   4.948
  137CHOL   C18 3962   2.442   7.595   5.104
  137CHOL   C19 3963   2.473   7.551   5.553
  137CHOL   C20 3964   2.455   7.451   4.835
  137CHOL   C21 3965   2.347   7.342   4.837
  137CHOL   C22 3966   2.520   7.447   4.695
  137CHOL   C23 3967   2.422   7.486   4.584
  137CHOL   C24 3968   2.477   7.456   4.444
  137CHOL   C25 3969   2.596   7.543   4.402
  137CHOL   C26 3970   2.552   7.688   4.381
  137CHOL   C27 3971   2.654   7.488   4.272
  137CHOL   O28 3972   2.612   7.297   5.942
  137CHOL   H29 3973   2.684   7.230   5.973
  138CHOL    C1 3974   4.559   4.189   5.670
  138CHOL    C2 3975   4.547   4.191   5.823
  138CHOL    C3 3976   4.680   4.229   5.890
  138CHOL    C4 3977   4.729   4.364   5.836
  138CHOL    C5 3978   4.735   4.369   5.684
  138CHOL    C6 3979   4.840   4.421   5.620
  138CHOL    C7 3980   4.850   4.438   5.470
  138CHOL    C8 3981   4.712   4.429   5.406
  138CHOL    C9 3982   4.638   4.306   5.463
  138CHOL   C10 3983   4.608   4.324   5.613
  138CHOL   C11 3984   4.510   4.280   5.380
  138CHOL   C12 3985   4.532   4.272   5.228
  138CHOL   C13 3986   4.603   4.397   5.173
  138CHOL   C14 3987   4.732   4.411   5.254
  138CHOL   C15 3988   4.811   4.521   5.181
  138CHOL   C16 3989   4.772   4.499   5.033
  138CHOL   C17 3990   4.667   4.385   5.032
  138CHOL   C18 3991   4.510   4.519   5.183
  138CHOL   C19 3992   4.498   4.431   5.633
  138CHOL   C20 3993   4.579   4.391   4.904
  138CHOL   C21 3994   4.475   4.278   4.897
  138CHOL   C22 3995   4.669   4.381   4.779
  138CHOL   C23 3996   4.593   4.405   4.648
  138CHOL   C24 3997   4.683   4.386   4.525
  138CHOL   C25 3998   4.792   4.492   4.511
  138CHOL   C26 3999   4.888   4.450   4.399
  138CHOL   C27 4000   4.730   4.627   4.472
  138CHOL   O28 4001   4.657   4.244   6.032
  138CHOL   H29 4002   4.745   4.275   6.077
  139CHOL    C1 4003   0.795   7.264   5.727
  139CHOL    C2 4004   0.793   7.267   5.880
  139CHOL    C3 4005   0.843   7.402   5.934
  139CHOL    C4 4006   0.757   7.515   5.876
  139CHOL    C5 4007   0.749   7.513   5.725
  139CHOL    C6 4008   0.759   7.625   5.652
  139CHOL    C7 4009   0.744   7.633   5.502
  139CHOL    C8 4010   0.679   7.506   5.447
  139CHOL    C9 4011   0.742   7.382   5.513
  139CHOL   C10 4012   0.712   7.378   5.664
  139CHOL   C11 4013   0.694   7.255   5.440
  139CHOL   C12 4014   0.708   7.255   5.287
  139CHOL   C13 4015   0.644   7.380   5.224
  139CHOL   C14 4016   0.707   7.500   5.295
  139CHOL   C15 4017   0.661   7.622   5.213
  139CHOL   C16 4018   0.657   7.567   5.069
  139CHOL   C17 4019   0.685   7.414   5.078
  139CHOL   C18 4020   0.490   7.373   5.239
  139CHOL   C19 4021   0.563   7.350   5.689
  139CHOL   C20 4022   0.617   7.341   4.960
  139CHOL   C21 4023   0.643   7.189   4.960
  139CHOL   C22 4024   0.670   7.396   4.826
  139CHOL   C23 4025   0.586   7.353   4.706
  139CHOL   C24 4026   0.652   7.400   4.576
  139CHOL   C25 4027   0.567   7.373   4.451
  139CHOL   C26 4028   0.653   7.397   4.328
  139CHOL   C27 4029   0.449   7.471   4.446
  139CHOL   O28 4030   0.833   7.402   6.078
  139CHOL   H29 4031   0.740   7.364   6.104
  140CHOL    C1 4032   9.750   3.528   5.422
  140CHOL    C2 4033   9.714   3.530   5.571
  140CHOL    C3 4034   9.574   3.589   5.594
  140CHOL    C4 4035   9.469   3.511   5.512
  140CHOL    C5 4036   9.507   3.495   5.365
  140CHOL    C6 4037   9.415   3.507   5.267
  140CHOL    C7 4038   9.441   3.482   5.120
  140CHOL    C8 4039   9.570   3.401   5.103
  140CHOL    C9 4040   9.680   3.465   5.189
  140CHOL   C10 4041   9.649   3.447   5.340
  140CHOL   C11 4042   9.818   3.406   5.152
  140CHOL   C12 4043   9.852   3.390   5.002
  140CHOL   C13 4044   9.739   3.314   4.930
  140CHOL   C14 4045   9.610   3.394   4.954
  140CHOL   C15 4046   9.508   3.331   4.857
  140CHOL   C16 4047   9.595   3.280   4.740
  140CHOL   C17 4048   9.742   3.317   4.775
  140CHOL   C18 4049   9.733   3.169   4.983
  140CHOL   C19 4050   9.662   3.298   5.379
  140CHOL   C20 4051   9.850   3.224   4.714
  140CHOL   C21 4052   9.973   3.306   4.677
  140CHOL   C22 4053   9.806   3.142   4.591
  140CHOL   C23 4054   9.901   3.023   4.569
  140CHOL   C24 4055   9.862   2.934   4.450
  140CHOL   C25 4056   9.890   2.997   4.313
  140CHOL   C26 4057   9.835   2.905   4.205
  140CHOL   C27 4058  10.041   3.013   4.291
  140CHOL   O28 4059   9.542   3.583   5.734
  140CHOL   H29 4060   9.529   3.484   5.762
  141CHOL    C1 4061   4.787   3.575   5.467
  141CHOL    C2 4062   4.739   3.544   5.610
  141CHOL    C3 4063   4.695   3.671   5.683
  141CHOL    C4 4064   4.586   3.744   5.603
  141CHOL    C5 4065   4.620   3.764   5.456
  141CHOL    C6 4066   4.586   3.876   5.391
  141CHOL    C7 4067   4.606   3.901   5.243
  141CHOL    C8 4068   4.633   3.769   5.170
  141CHOL    C9 4069   4.736   3.688   5.250
  141CHOL   C10 4070   4.676   3.641   5.384
  141CHOL   C11 4071   4.788   3.569   5.165
  141CHOL   C12 4072   4.832   3.602   5.021
  141CHOL   C13 4073   4.721   3.677   4.945
  141CHOL   C14 4074   4.687   3.801   5.029
  141CHOL   C15 4075   4.596   3.886   4.939
  141CHOL   C16 4076   4.649   3.855   4.797
  141CHOL   C17 4077   4.762   3.748   4.813
  141CHOL   C18 4078   4.600   3.583   4.922
  141CHOL   C19 4079   4.562   3.540   5.359
  141CHOL   C20 4080   4.776   3.659   4.688
  141CHOL   C21 4081   4.910   3.584   4.687
  141CHOL   C22 4082   4.764   3.739   4.557
  141CHOL   C23 4083   4.744   3.649   4.434
  141CHOL   C24 4084   4.723   3.733   4.308
  141CHOL   C25 4085   4.695   3.647   4.184
  141CHOL   C26 4086   4.690   3.737   4.060
  141CHOL   C27 4087   4.561   3.575   4.196
  141CHOL   O28 4088   4.643   3.636   5.812
  141CHOL   H29 4089   4.702   3.562   5.855
  142CHOL    C1 4090   3.503   5.216   5.624
  142CHOL    C2 4091   3.519   5.204   5.776
  142CHOL    C3 4092   3.605   5.082   5.813
  142CHOL    C4 4093   3.743   5.099   5.749
  142CHOL    C5 4094   3.733   5.112   5.598
  142CHOL    C6 4095   3.811   5.040   5.516
  142CHOL    C7 4096   3.812   5.052   5.365
  142CHOL    C8 4097   3.742   5.180   5.321
  142CHOL    C9 4098   3.611   5.198   5.399
  142CHOL   C10 4099   3.638   5.221   5.550
  142CHOL   C11 4100   3.526   5.310   5.336
  142CHOL   C12 4101   3.503   5.297   5.185
  142CHOL   C13 4102   3.636   5.283   5.108
  142CHOL   C14 4103   3.710   5.164   5.172
  142CHOL   C15 4104   3.830   5.138   5.079
  142CHOL   C16 4105   3.775   5.178   4.940
  142CHOL   C17 4106   3.629   5.228   4.963
  142CHOL   C18 4107   3.713   5.416   5.115
  142CHOL   C19 4108   3.704   5.358   5.572
  142CHOL   C20 4109   3.582   5.324   4.851
  142CHOL   C21 4110   3.430   5.344   4.856
  142CHOL   C22 4111   3.619   5.270   4.712
  142CHOL   C23 4112   3.605   5.373   4.599
  142CHOL   C24 4113   3.705   5.488   4.612
  142CHOL   C25 4114   3.692   5.590   4.498
  142CHOL   C26 4115   3.779   5.712   4.530
  142CHOL   C27 4116   3.740   5.529   4.365
  142CHOL   O28 4117   3.621   5.074   5.955
  142CHOL   H29 4118   3.701   5.010   5.972
  143CHOL    C1 4119   3.837   4.201   5.685
  143CHOL    C2 4120   3.829   4.244   5.832
  143CHOL    C3 4121   3.839   4.122   5.925
  143CHOL    C4 4122   3.971   4.047   5.898
  143CHOL    C5 4123   3.993   4.012   5.752
  143CHOL    C6 4124   4.050   3.896   5.716
  143CHOL    C7 4125   4.085   3.855   5.575
  143CHOL    C8 4126   4.081   3.976   5.481
  143CHOL    C9 4127   3.957   4.063   5.513
  143CHOL   C10 4128   3.968   4.125   5.653
  143CHOL   C11 4129   3.936   4.169   5.403
  143CHOL   C12 4130   3.936   4.115   5.258
  143CHOL   C13 4131   4.064   4.034   5.230
  143CHOL   C14 4132   4.072   3.924   5.337
  143CHOL   C15 4133   4.186   3.832   5.291
  143CHOL   C16 4134   4.178   3.842   5.137
  143CHOL   C17 4135   4.065   3.943   5.104
  143CHOL   C18 4136   4.185   4.129   5.229
  143CHOL   C19 4137   4.086   4.224   5.658
  143CHOL   C20 4138   4.086   4.013   4.967
  143CHOL   C21 4139   3.956   4.079   4.918
  143CHOL   C22 4140   4.136   3.916   4.859
  143CHOL   C23 4141   4.185   3.987   4.733
  143CHOL   C24 4142   4.247   3.887   4.634
  143CHOL   C25 4143   4.299   3.954   4.507
  143CHOL   C26 4144   4.345   3.846   4.410
  143CHOL   C27 4145   4.417   4.046   4.537
  143CHOL   O28 4146   3.839   4.164   6.062
  143CHOL   H29 4147   3.749   4.211   6.086
  144CHOL    C1 4148   9.764   4.468   5.618
  144CHOL    C2 4149   9.711   4.503   5.757
  144CHOL    C3 4150   9.784   4.627   5.812
  144CHOL    C4 4151   9.770   4.747   5.717
  144CHOL    C5 4152   9.805   4.714   5.573
  144CHOL    C6 4153   9.868   4.803   5.494
  144CHOL    C7 4154   9.896   4.783   5.346
  144CHOL    C8 4155   9.811   4.669   5.290
  144CHOL    C9 4156   9.816   4.549   5.387
  144CHOL   C10 4157   9.745   4.585   5.519
  144CHOL   C11 4158   9.756   4.423   5.322
  144CHOL   C12 4159   9.804   4.388   5.180
  144CHOL   C13 4160   9.790   4.511   5.088
  144CHOL   C14 4161   9.866   4.627   5.153
  144CHOL   C15 4162   9.873   4.734   5.042
  144CHOL   C16 4163   9.885   4.650   4.912
  144CHOL   C17 4164   9.872   4.502   4.958
  144CHOL   C18 4165   9.641   4.540   5.063
  144CHOL   C19 4166   9.595   4.607   5.493
  144CHOL   C20 4167   9.833   4.398   4.851
  144CHOL   C21 4168   9.963   4.343   4.791
  144CHOL   C22 4169   9.749   4.454   4.735
  144CHOL   C23 4170   9.698   4.343   4.643
  144CHOL   C24 4171   9.626   4.398   4.520
  144CHOL   C25 4172   9.573   4.286   4.430
  144CHOL   C26 4173   9.519   4.346   4.300
  144CHOL   C27 4174   9.459   4.212   4.500
  144CHOL   O28 4175   9.729   4.658   5.941
  144CHOL   H29 4176   9.638   4.705   5.926
  145CHOL    C1 4177   0.273   4.917   5.976
  145CHOL    C2 4178   0.231   4.863   6.113
  145CHOL    C3 4179   0.087   4.810   6.111
  145CHOL    C4 4180   0.071   4.704   6.000
  145CHOL    C5 4181   0.118   4.753   5.864
  145CHOL    C6 4182   0.047   4.734   5.752
  145CHOL    C7 4183   0.093   4.770   5.613
  145CHOL    C8 4184   0.244   4.792   5.612
  145CHOL    C9 4185   0.283   4.883   5.730
  145CHOL   C10 4186   0.259   4.812   5.865
  145CHOL   C11 4187   0.430   4.929   5.714
  145CHOL   C12 4188   0.470   4.985   5.577
  145CHOL   C13 4189   0.434   4.887   5.464
  145CHOL   C14 4190   0.284   4.860   5.479
  145CHOL   C15 4191   0.245   4.785   5.351
  145CHOL   C16 4192   0.342   4.842   5.245
  145CHOL   C17 4193   0.433   4.944   5.320
  145CHOL   C18 4194   0.523   4.761   5.474
  145CHOL   C19 4195   0.362   4.699   5.886
  145CHOL   C20 4196   0.566   4.964   5.244
  145CHOL   C21 4197   0.655   5.071   5.309
  145CHOL   C22 4198   0.539   5.007   5.099
  145CHOL   C23 4199   0.664   5.009   5.011
  145CHOL   C24 4200   0.631   5.064   4.872
  145CHOL   C25 4201   0.753   5.068   4.779
  145CHOL   C26 4202   0.715   5.145   4.652
  145CHOL   C27 4203   0.792   4.926   4.737
  145CHOL   O28 4204   0.059   4.749   6.238
  145CHOL   H29 4205   0.136   4.685   6.262
  146CHOL    C1 4206   0.926   5.340   5.515
  146CHOL    C2 4207   0.871   5.336   5.658
  146CHOL    C3 4208   0.900   5.468   5.729
  146CHOL    C4 4209   0.832   5.584   5.654
  146CHOL    C5 4210   0.873   5.589   5.507
  146CHOL    C6 4211   0.898   5.705   5.444
  146CHOL    C7 4212   0.929   5.719   5.296
  146CHOL    C8 4213   0.895   5.591   5.220
  146CHOL    C9 4214   0.945   5.470   5.302
  146CHOL   C10 4215   0.865   5.456   5.434
  146CHOL   C11 4216   0.939   5.340   5.218
  146CHOL   C12 4217   1.008   5.351   5.081
  146CHOL   C13 4218   0.951   5.468   4.998
  146CHOL   C14 4219   0.967   5.595   5.084
  146CHOL   C15 4220   0.929   5.709   4.989
  146CHOL   C16 4221   0.978   5.658   4.851
  146CHOL   C17 4222   1.034   5.515   4.876
  146CHOL   C18 4223   0.805   5.437   4.959
  146CHOL   C19 4224   0.717   5.426   5.403
  146CHOL   C20 4225   1.035   5.428   4.748
  146CHOL   C21 4226   1.116   5.299   4.767
  146CHOL   C22 4227   1.094   5.504   4.628
  146CHOL   C23 4228   1.082   5.430   4.494
  146CHOL   C24 4229   0.938   5.421   4.444
  146CHOL   C25 4230   0.923   5.330   4.321
  146CHOL   C26 4231   0.998   5.385   4.200
  146CHOL   C27 4232   0.775   5.316   4.286
  146CHOL   O28 4233   0.854   5.462   5.864
  146CHOL   H29 4234   0.756   5.427   5.867
  147CHOL    C1 4235   1.553   5.273   5.623
  147CHOL    C2 4236   1.490   5.255   5.761
  147CHOL    C3 4237   1.415   5.381   5.807
  147CHOL    C4 4238   1.309   5.419   5.703
  147CHOL    C5 4239   1.367   5.433   5.563
  147CHOL    C6 4240   1.335   5.536   5.483
  147CHOL    C7 4241   1.380   5.551   5.339
  147CHOL    C8 4242   1.429   5.416   5.285
  147CHOL    C9 4243   1.524   5.351   5.388
  147CHOL   C10 4244   1.449   5.313   5.517
  147CHOL   C11 4245   1.596   5.230   5.324
  147CHOL   C12 4246   1.658   5.251   5.185
  147CHOL   C13 4247   1.555   5.311   5.087
  147CHOL   C14 4248   1.503   5.439   5.153
  147CHOL   C15 4249   1.423   5.510   5.042
  147CHOL   C16 4250   1.499   5.471   4.914
  147CHOL   C17 4251   1.612   5.373   4.956
  147CHOL   C18 4252   1.445   5.207   5.057
  147CHOL   C19 4253   1.354   5.194   5.490
  147CHOL   C20 4254   1.648   5.277   4.840
  147CHOL   C21 4255   1.770   5.190   4.872
  147CHOL   C22 4256   1.679   5.355   4.711
  147CHOL   C23 4257   1.677   5.266   4.587
  147CHOL   C24 4258   1.716   5.346   4.462
  147CHOL   C25 4259   1.698   5.265   4.333
  147CHOL   C26 4260   1.763   5.341   4.218
  147CHOL   C27 4261   1.548   5.249   4.302
  147CHOL   O28 4262   1.349   5.351   5.931
  147CHOL   H29 4263   1.304   5.258   5.920
  148CHOL    C1 4264   2.967   5.926   5.589
  148CHOL    C2 4265   2.955   5.947   5.740
  148CHOL    C3 4266   3.086   6.000   5.800
  148CHOL    C4 4267   3.134   6.126   5.726
  148CHOL    C5 4268   3.129   6.119   5.574
  148CHOL    C6 4269   3.220   6.182   5.498
  148CHOL    C7 4270   3.216   6.192   5.348
  148CHOL    C8 4271   3.077   6.156   5.296
  148CHOL    C9 4272   3.029   6.028   5.367
  148CHOL   C10 4273   3.002   6.057   5.517
  148CHOL   C11 4274   2.905   5.971   5.296
  148CHOL   C12 4275   2.912   5.961   5.142
  148CHOL   C13 4276   2.949   6.097   5.080
  148CHOL   C14 4277   3.083   6.138   5.143
  148CHOL   C15 4278   3.127   6.261   5.062
  148CHOL   C16 4279   3.071   6.231   4.920
  148CHOL   C17 4280   2.993   6.097   4.931
  148CHOL   C18 4281   2.835   6.197   5.104
  148CHOL   C19 4282   2.885   6.156   5.531
  148CHOL   C20 4283   2.879   6.087   4.828
  148CHOL   C21 4284   2.833   5.941   4.811
  148CHOL   C22 4285   2.917   6.139   4.688
  148CHOL   C23 4286   2.792   6.161   4.602
  148CHOL   C24 4287   2.826   6.196   4.457
  148CHOL   C25 4288   2.699   6.227   4.377
  148CHOL   C26 4289   2.730   6.224   4.228
  148CHOL   C27 4290   2.649   6.368   4.413
  148CHOL   O28 4291   3.064   6.035   5.937
  148CHOL   H29 4292   3.030   6.133   5.940
  149CHOL    C1 4293  10.033   6.371   5.563
  149CHOL    C2 4294  10.075   6.371   5.711
  149CHOL    C3 4295   9.969   6.300   5.797
  149CHOL    C4 4296   9.949   6.156   5.748
  149CHOL    C5 4297   9.922   6.146   5.599
  149CHOL    C6 4298   9.835   6.056   5.550
  149CHOL    C7 4299   9.808   6.031   5.403
  149CHOL    C8 4300   9.918   6.094   5.316
  149CHOL    C9 4301   9.949   6.235   5.369
  149CHOL   C10 4302  10.014   6.228   5.509
  149CHOL   C11 4303  10.036   6.312   5.267
  149CHOL   C12 4304   9.985   6.311   5.122
  149CHOL   C13 4305   9.962   6.166   5.072
  149CHOL   C14 4306   9.865   6.101   5.172
  149CHOL   C15 4307   9.826   5.967   5.108
  149CHOL   C16 4308   9.829   6.000   4.956
  149CHOL   C17 4309   9.878   6.147   4.943
  149CHOL   C18 4310  10.099   6.095   5.060
  149CHOL   C19 4311  10.151   6.158   5.500
  149CHOL   C20 4312   9.947   6.170   4.806
  149CHOL   C21 4313   9.974   6.319   4.780
  149CHOL   C22 4314   9.861   6.117   4.690
  149CHOL   C23 4315   9.936   6.114   4.556
  149CHOL   C24 4316   9.847   6.055   4.446
  149CHOL   C25 4317   9.919   6.047   4.311
  149CHOL   C26 4318   9.945   6.186   4.253
  149CHOL   C27 4319   9.835   5.965   4.213
  149CHOL   O28 4320  10.012   6.300   5.934
  149CHOL   H29 4321  10.092   6.234   5.943
  150CHOL    C1 4322   1.530   7.177   5.257
  150CHOL    C2 4323   1.574   7.152   5.401
  150CHOL    C3 4324   1.523   7.017   5.453
  150CHOL    C4 4325   1.570   6.903   5.361
  150CHOL    C5 4326   1.540   6.928   5.213
  150CHOL    C6 4327   1.498   6.830   5.132
  150CHOL    C7 4328   1.476   6.844   4.983
  150CHOL    C8 4329   1.548   6.969   4.930
  150CHOL    C9 4330   1.517   7.088   5.023
  150CHOL   C10 4331   1.580   7.066   5.163
  150CHOL   C11 4332   1.564   7.220   4.959
  150CHOL   C12 4333   1.523   7.242   4.812
  150CHOL   C13 4334   1.563   7.123   4.723
  150CHOL   C14 4335   1.498   6.999   4.788
  150CHOL   C15 4336   1.517   6.888   4.683
  150CHOL   C16 4337   1.513   6.964   4.549
  150CHOL   C17 4338   1.496   7.115   4.583
  150CHOL   C18 4339   1.717   7.115   4.713
  150CHOL   C19 4340   1.734   7.073   5.152
  150CHOL   C20 4341   1.551   7.207   4.471
  150CHOL   C21 4342   1.522   7.357   4.493
  150CHOL   C22 4343   1.501   7.171   4.330
  150CHOL   C23 4344   1.349   7.181   4.309
  150CHOL   C24 4345   1.308   7.157   4.162
  150CHOL   C25 4346   1.347   7.019   4.106
  150CHOL   C26 4347   1.311   7.015   3.958
  150CHOL   C27 4348   1.271   6.907   4.177
  150CHOL   O28 4349   1.572   6.996   5.586
  150CHOL   H29 4350   1.521   6.914   5.625
  151CHOL    C1 4351   1.693   5.785   5.602
  151CHOL    C2 4352   1.667   5.819   5.749
  151CHOL    C3 4353   1.795   5.805   5.833
  151CHOL    C4 4354   1.907   5.893   5.775
  151CHOL    C5 4355   1.930   5.871   5.626
  151CHOL    C6 4356   2.054   5.866   5.573
  151CHOL    C7 4357   2.085   5.856   5.426
  151CHOL    C8 4358   1.961   5.894   5.344
  151CHOL    C9 4359   1.838   5.819   5.401
  151CHOL   C10 4360   1.804   5.874   5.541
  151CHOL   C11 4361   1.719   5.829   5.304
  151CHOL   C12 4362   1.747   5.802   5.155
  151CHOL   C13 4363   1.863   5.890   5.106
  151CHOL   C14 4364   1.984   5.858   5.196
  151CHOL   C15 4365   2.103   5.927   5.127
  151CHOL   C16 4366   2.065   5.921   4.977
  151CHOL   C17 4367   1.926   5.853   4.969
  151CHOL   C18 4368   1.821   6.038   5.108
  151CHOL   C19 4369   1.754   6.019   5.531
  151CHOL   C20 4370   1.842   5.897   4.846
  151CHOL   C21 4371   1.743   5.787   4.807
  151CHOL   C22 4372   1.927   5.932   4.723
  151CHOL   C23 4373   1.850   6.024   4.627
  151CHOL   C24 4374   1.938   6.067   4.510
  151CHOL   C25 4375   1.870   6.172   4.421
  151CHOL   C26 4376   1.750   6.113   4.346
  151CHOL   C27 4377   1.971   6.229   4.322
  151CHOL   O28 4378   1.767   5.847   5.967
  151CHOL   H29 4379   1.856   5.841   6.020
  152CHOL    C1 4380   2.443   6.879   5.496
  152CHOL    C2 4381   2.440   6.854   5.648
  152CHOL    C3 4382   2.332   6.941   5.713
  152CHOL    C4 4383   2.194   6.908   5.654
  152CHOL    C5 4384   2.193   6.924   5.503
  152CHOL    C6 4385   2.090   6.984   5.440
  152CHOL    C7 4386   2.077   6.998   5.291
  152CHOL    C8 4387   2.174   6.904   5.218
  152CHOL    C9 4388   2.313   6.910   5.285
  152CHOL   C10 4389   2.306   6.854   5.429
  152CHOL   C11 4390   2.417   6.837   5.198
  152CHOL   C12 4391   2.423   6.882   5.051
  152CHOL   C13 4392   2.284   6.876   4.985
  152CHOL   C14 4393   2.190   6.958   5.075
  152CHOL   C15 4394   2.060   6.972   4.994
  152CHOL   C16 4395   2.112   6.983   4.849
  152CHOL   C17 4396   2.265   6.959   4.855
  152CHOL   C18 4397   2.240   6.729   4.965
  152CHOL   C19 4398   2.278   6.702   5.426
  152CHOL   C20 4399   2.316   6.911   4.717
  152CHOL   C21 4400   2.466   6.879   4.714
  152CHOL   C22 4401   2.291   7.022   4.615
  152CHOL   C23 4402   2.281   6.974   4.470
  152CHOL   C24 4403   2.252   7.092   4.376
  152CHOL   C25 4404   2.121   7.166   4.408
  152CHOL   C26 4405   2.116   7.296   4.329
  152CHOL   C27 4406   1.999   7.081   4.371
  152CHOL   O28 4407   2.329   6.919   5.855
  152CHOL   H29 4408   2.424   6.935   5.893
  153CHOL    C1 4409   2.940   4.890   5.517
  153CHOL    C2 4410   2.934   4.923   5.667
  153CHOL    C3 4411   3.067   4.885   5.734
  153CHOL    C4 4412   3.180   4.967   5.672
  153CHOL    C5 4413   3.190   4.941   5.522
  153CHOL    C6 4414   3.307   4.916   5.463
  153CHOL    C7 4415   3.328   4.896   5.315
  153CHOL    C8 4416   3.205   4.945   5.238
  153CHOL    C9 4417   3.077   4.893   5.306
  153CHOL   C10 4418   3.059   4.957   5.445
  153CHOL   C11 4419   2.955   4.914   5.214
  153CHOL   C12 4420   2.971   4.870   5.067
  153CHOL   C13 4421   3.098   4.931   5.003
  153CHOL   C14 4422   3.215   4.891   5.094
  153CHOL   C15 4423   3.341   4.931   5.016
  153CHOL   C16 4424   3.298   4.909   4.869
  153CHOL   C17 4425   3.149   4.866   4.872
  153CHOL   C18 4426   3.080   5.083   4.986
  153CHOL   C19 4427   3.028   5.108   5.429
  153CHOL   C20 4428   3.079   4.898   4.737
  153CHOL   C21 4429   2.937   4.841   4.730
  153CHOL   C22 4430   3.161   4.841   4.620
  153CHOL   C23 4431   3.111   4.885   4.482
  153CHOL   C24 4432   3.203   4.827   4.373
  153CHOL   C25 4433   3.162   4.868   4.231
  153CHOL   C26 4434   3.270   4.822   4.134
  153CHOL   C27 4435   3.030   4.801   4.192
  153CHOL   O28 4436   3.064   4.905   5.876
  153CHOL   H29 4437   3.043   5.004   5.897
  154CHOL    C1 4438   8.348   5.127   5.589
  154CHOL    C2 4439   8.338   5.130   5.742
  154CHOL    C3 4440   8.447   5.222   5.798
  154CHOL    C4 4441   8.430   5.365   5.743
  154CHOL    C5 4442   8.422   5.371   5.592
  154CHOL    C6 4443   8.475   5.473   5.522
  154CHOL    C7 4444   8.465   5.492   5.373
  154CHOL    C8 4445   8.365   5.395   5.310
  154CHOL    C9 4446   8.375   5.257   5.378
  154CHOL   C10 4447   8.333   5.266   5.526
  154CHOL   C11 4448   8.293   5.151   5.302
  154CHOL   C12 4449   8.331   5.140   5.153
  154CHOL   C13 4450   8.321   5.277   5.082
  154CHOL   C14 4451   8.408   5.374   5.163
  154CHOL   C15 4452   8.416   5.500   5.076
  154CHOL   C16 4453   8.417   5.443   4.933
  154CHOL   C17 4454   8.398   5.289   4.948
  154CHOL   C18 4455   8.174   5.320   5.069
  154CHOL   C19 4456   8.187   5.311   5.538
  154CHOL   C20 4457   8.344   5.229   4.816
  154CHOL   C21 4458   8.320   5.078   4.823
  154CHOL   C22 4459   8.448   5.254   4.705
  154CHOL   C23 4460   8.395   5.226   4.564
  154CHOL   C24 4461   8.508   5.245   4.462
  154CHOL   C25 4462   8.461   5.234   4.317
  154CHOL   C26 4463   8.404   5.094   4.288
  154CHOL   C27 4464   8.579   5.262   4.225
  154CHOL   O28 4465   8.437   5.224   5.941
  154CHOL   H29 4466   8.513   5.286   5.977
  155CHOL    C1 4467   9.513   5.211   5.492
  155CHOL    C2 4468   9.529   5.229   5.644
  155CHOL    C3 4469   9.392   5.259   5.707
  155CHOL    C4 4470   9.296   5.144   5.679
  155CHOL    C5 4471   9.283   5.112   5.531
  155CHOL    C6 4472   9.164   5.080   5.477
  155CHOL    C7 4473   9.142   5.039   5.334
  155CHOL    C8 4474   9.274   5.006   5.263
  155CHOL    C9 4475   9.385   5.106   5.304
  155CHOL   C10 4476   9.415   5.099   5.456
  155CHOL   C11 4477   9.511   5.084   5.218
  155CHOL   C12 4478   9.487   5.088   5.065
  155CHOL   C13 4479   9.372   4.995   5.025
  155CHOL   C14 4480   9.251   5.029   5.113
  155CHOL   C15 4481   9.133   4.956   5.047
  155CHOL   C16 4482   9.166   4.964   4.896
  155CHOL   C17 4483   9.307   5.030   4.889
  155CHOL   C18 4484   9.416   4.848   5.035
  155CHOL   C19 4485   9.479   4.963   5.491
  155CHOL   C20 4486   9.386   5.012   4.758
  155CHOL   C21 4487   9.349   5.127   4.665
  155CHOL   C22 4488   9.354   4.880   4.686
  155CHOL   C23 4489   9.446   4.853   4.565
  155CHOL   C24 4490   9.405   4.725   4.490
  155CHOL   C25 4491   9.271   4.738   4.417
  155CHOL   C26 4492   9.284   4.831   4.295
  155CHOL   C27 4493   9.223   4.600   4.372
  155CHOL   O28 4494   9.406   5.276   5.849
  155CHOL   H29 4495   9.447   5.188   5.888
  156CHOL    C1 4496   9.136   5.909   5.423
  156CHOL    C2 4497   9.158   5.955   5.568
  156CHOL    C3 4498   9.159   5.836   5.664
  156CHOL    C4 4499   9.267   5.735   5.622
  156CHOL    C5 4500   9.257   5.693   5.476
  156CHOL    C6 4501   9.275   5.566   5.438
  156CHOL    C7 4502   9.276   5.517   5.294
  156CHOL    C8 4503   9.293   5.635   5.198
  156CHOL    C9 4504   9.199   5.750   5.240
  156CHOL   C10 4505   9.243   5.808   5.377
  156CHOL   C11 4506   9.193   5.858   5.130
  156CHOL   C12 4507   9.170   5.808   4.986
  156CHOL   C13 4508   9.271   5.698   4.949
  156CHOL   C14 4509   9.258   5.588   5.056
  156CHOL   C15 4510   9.341   5.471   5.002
  156CHOL   C16 4511   9.327   5.486   4.849
  156CHOL   C17 4512   9.239   5.612   4.824
  156CHOL   C18 4513   9.413   5.759   4.939
  156CHOL   C19 4514   9.379   5.878   5.363
  156CHOL   C20 4515   9.262   5.680   4.688
  156CHOL   C21 4516   9.133   5.748   4.640
  156CHOL   C22 4517   9.312   5.583   4.579
  156CHOL   C23 4518   9.347   5.649   4.446
  156CHOL   C24 4519   9.430   5.554   4.359
  156CHOL   C25 4520   9.449   5.606   4.216
  156CHOL   C26 4521   9.322   5.580   4.135
  156CHOL   C27 4522   9.568   5.537   4.150
  156CHOL   O28 4523   9.188   5.883   5.796
  156CHOL   H29 4524   9.274   5.940   5.791
  157CHOL    C1 4525   3.356   6.470   5.735
  157CHOL    C2 4526   3.328   6.422   5.878
  157CHOL    C3 4527   3.363   6.532   5.979
  157CHOL    C4 4528   3.279   6.657   5.951
  157CHOL    C5 4529   3.300   6.706   5.809
  157CHOL    C6 4530   3.323   6.836   5.782
  157CHOL    C7 4531   3.337   6.894   5.644
  157CHOL    C8 4532   3.284   6.796   5.539
  157CHOL    C9 4533   3.338   6.655   5.568
  157CHOL   C10 4534   3.281   6.600   5.701
  157CHOL   C11 4535   3.311   6.562   5.449
  157CHOL   C12 4536   3.351   6.615   5.310
  157CHOL   C13 4537   3.289   6.754   5.284
  157CHOL   C14 4538   3.334   6.843   5.401
  157CHOL   C15 4539   3.292   6.985   5.360
  157CHOL   C16 4540   3.307   6.982   5.206
  157CHOL   C17 4541   3.348   6.838   5.167
  157CHOL   C18 4542   3.136   6.740   5.271
  157CHOL   C19 4543   3.130   6.570   5.686
  157CHOL   C20 4544   3.303   6.802   5.024
  157CHOL   C21 4545   3.372   6.674   4.973
  157CHOL   C22 4546   3.333   6.915   4.925
  157CHOL   C23 4547   3.261   6.900   4.791
  157CHOL   C24 4548   3.292   7.019   4.700
  157CHOL   C25 4549   3.224   7.008   4.563
  157CHOL   C26 4550   3.248   7.138   4.486
  157CHOL   C27 4551   3.284   6.892   4.482
  157CHOL   O28 4552   3.338   6.487   6.113
  157CHOL   H29 4553   3.401   6.405   6.133
  158CHOL    C1 4554   4.807   7.878   5.940
  158CHOL    C2 4555   4.790   7.850   6.090
  158CHOL    C3 4556   4.641   7.833   6.125
  158CHOL    C4 4557   4.580   7.718   6.044
  158CHOL    C5 4558   4.603   7.734   5.894
  158CHOL    C6 4559   4.505   7.705   5.807
  158CHOL    C7 4560   4.519   7.709   5.657
  158CHOL    C8 4561   4.667   7.716   5.616
  158CHOL    C9 4562   4.742   7.816   5.707
  158CHOL   C10 4563   4.746   7.766   5.853
  158CHOL   C11 4564   4.884   7.842   5.651
  158CHOL   C12 4565   4.886   7.886   5.503
  158CHOL   C13 4566   4.811   7.786   5.413
  158CHOL   C14 4567   4.670   7.771   5.472
  158CHOL   C15 4568   4.592   7.691   5.367
  158CHOL   C16 4569   4.654   7.738   5.234
  158CHOL   C17 4570   4.769   7.836   5.272
  158CHOL   C18 4571   4.890   7.654   5.404
  158CHOL   C19 4572   4.832   7.639   5.865
  158CHOL   C20 4573   4.874   7.847   5.158
  158CHOL   C21 4574   4.981   7.953   5.186
  158CHOL   C22 4575   4.803   7.882   5.027
  158CHOL   C23 4576   4.894   7.885   4.904
  158CHOL   C24 4577   4.811   7.910   4.778
  158CHOL   C25 4578   4.895   7.919   4.650
  158CHOL   C26 4579   4.971   7.789   4.624
  158CHOL   C27 4580   4.803   7.947   4.531
  158CHOL   O28 4581   4.628   7.802   6.265
  158CHOL   H29 4582   4.676   7.711   6.282
  159CHOL    C1 4583   9.259   6.663   5.750
  159CHOL    C2 4584   9.240   6.652   5.902
  159CHOL    C3 4585   9.225   6.791   5.966
  159CHOL    C4 4586   9.106   6.865   5.902
  159CHOL    C5 4587   9.118   6.873   5.750
  159CHOL    C6 4588   9.092   6.986   5.683
  159CHOL    C7 4589   9.094   7.000   5.532
  159CHOL    C8 4590   9.089   6.862   5.464
  159CHOL    C9 4591   9.187   6.766   5.536
  159CHOL   C10 4592   9.145   6.739   5.682
  159CHOL   C11 4593   9.201   6.635   5.455
  159CHOL   C12 4594   9.237   6.654   5.307
  159CHOL   C13 4595   9.139   6.750   5.236
  159CHOL   C14 4596   9.137   6.879   5.319
  159CHOL   C15 4597   9.061   6.980   5.232
  159CHOL   C16 4598   9.098   6.938   5.088
  159CHOL   C17 4599   9.186   6.811   5.101
  159CHOL   C18 4600   9.000   6.683   5.222
  159CHOL   C19 4601   9.016   6.654   5.685
  159CHOL   C20 4602   9.185   6.727   4.970
  159CHOL   C21 4603   9.274   6.602   4.978
  159CHOL   C22 4604   9.234   6.814   4.853
  159CHOL   C23 4605   9.230   6.748   4.715
  159CHOL   C24 4606   9.088   6.724   4.663
  159CHOL   C25 4607   9.088   6.656   4.525
  159CHOL   C26 4608   8.946   6.654   4.470
  159CHOL   C27 4609   9.138   6.511   4.536
  159CHOL   O28 4610   9.200   6.775   6.107
  159CHOL   H29 4611   9.291   6.755   6.154
  160CHOL    C1 4612   9.745   6.637   5.689
  160CHOL    C2 4613   9.720   6.670   5.837
  160CHOL    C3 4614   9.829   6.765   5.889
  160CHOL    C4 4615   9.832   6.894   5.807
  160CHOL    C5 4616   9.841   6.870   5.657
  160CHOL    C6 4617   9.917   6.948   5.578
  160CHOL    C7 4618   9.926   6.937   5.428
  160CHOL    C8 4619   9.810   6.854   5.373
  160CHOL    C9 4620   9.792   6.727   5.459
  160CHOL   C10 4621   9.746   6.764   5.602
  160CHOL   C11 4622   9.694   6.630   5.390
  160CHOL   C12 4623   9.721   6.601   5.241
  160CHOL   C13 4624   9.733   6.731   5.159
  160CHOL   C14 4625   9.842   6.815   5.228
  160CHOL   C15 4626   9.870   6.930   5.131
  160CHOL   C16 4627   9.846   6.866   4.992
  160CHOL   C17 4628   9.797   6.721   5.018
  160CHOL   C18 4629   9.596   6.802   5.153
  160CHOL   C19 4630   9.603   6.821   5.597
  160CHOL   C20 4631   9.710   6.669   4.901
  160CHOL   C21 4632   9.671   6.521   4.916
  160CHOL   C22 4633   9.785   6.685   4.767
  160CHOL   C23 4634   9.701   6.649   4.644
  160CHOL   C24 4635   9.783   6.666   4.516
  160CHOL   C25 4636   9.707   6.620   4.391
  160CHOL   C26 4637   9.686   6.468   4.393
  160CHOL   C27 4638   9.787   6.658   4.266
  160CHOL   O28 4639   9.806   6.795   6.027
  160CHOL   H29 4640   9.730   6.863   6.035
  161CHOL    C1 4641   0.515   6.840   5.629
  161CHOL    C2 4642   0.550   6.873   5.775
  161CHOL    C3 4643   0.602   6.750   5.850
  161CHOL    C4 4644   0.722   6.689   5.776
  161CHOL    C5 4645   0.697   6.665   5.628
  161CHOL    C6 4646   0.744   6.555   5.565
  161CHOL    C7 4647   0.734   6.530   5.416
  161CHOL    C8 4648   0.702   6.660   5.342
  161CHOL    C9 4649   0.588   6.734   5.415
  161CHOL   C10 4650   0.636   6.783   5.553
  161CHOL   C11 4651   0.536   6.850   5.327
  161CHOL   C12 4652   0.503   6.817   5.181
  161CHOL   C13 4653   0.621   6.746   5.112
  161CHOL   C14 4654   0.656   6.624   5.199
  161CHOL   C15 4655   0.756   6.544   5.115
  161CHOL   C16 4656   0.709   6.571   4.970
  161CHOL   C17 4657   0.592   6.673   4.978
  161CHOL   C18 4658   0.739   6.845   5.096
  161CHOL   C19 4659   0.743   6.892   5.537
  161CHOL   C20 4660   0.582   6.758   4.850
  161CHOL   C21 4661   0.449   6.835   4.842
  161CHOL   C22 4662   0.595   6.673   4.723
  161CHOL   C23 4663   0.617   6.756   4.596
  161CHOL   C24 4664   0.647   6.668   4.474
  161CHOL   C25 4665   0.528   6.583   4.427
  161CHOL   C26 4666   0.578   6.482   4.323
  161CHOL   C27 4667   0.424   6.673   4.360
  161CHOL   O28 4668   0.644   6.795   5.980
  161CHOL   H29 4669   0.697   6.721   6.029
  162CHOL    C1 4670   2.989   2.857   5.594
  162CHOL    C2 4671   3.065   2.845   5.727
  162CHOL    C3 4672   2.976   2.783   5.835
  162CHOL    C4 4673   2.925   2.645   5.790
  162CHOL    C5 4674   2.859   2.648   5.654
  162CHOL    C6 4675   2.748   2.576   5.629
  162CHOL    C7 4676   2.680   2.565   5.495
  162CHOL    C8 4677   2.773   2.614   5.383
  162CHOL    C9 4678   2.842   2.745   5.425
  162CHOL   C10 4679   2.936   2.722   5.545
  162CHOL   C11 4680   2.915   2.808   5.305
  162CHOL   C12 4681   2.831   2.824   5.178
  162CHOL   C13 4682   2.765   2.691   5.136
  162CHOL   C14 4683   2.687   2.642   5.259
  162CHOL   C15 4684   2.604   2.524   5.207
  162CHOL   C16 4685   2.570   2.567   5.063
  162CHOL   C17 4686   2.645   2.700   5.037
  162CHOL   C18 4687   2.873   2.593   5.086
  162CHOL   C19 4688   3.056   2.635   5.501
  162CHOL   C20 4689   2.671   2.718   4.886
  162CHOL   C21 4690   2.743   2.850   4.852
  162CHOL   C22 4691   2.538   2.717   4.809
  162CHOL   C23 4692   2.555   2.693   4.659
  162CHOL   C24 4693   2.601   2.550   4.630
  162CHOL   C25 4694   2.627   2.524   4.482
  162CHOL   C26 4695   2.683   2.383   4.466
  162CHOL   C27 4696   2.498   2.536   4.401
  162CHOL   O28 4697   3.051   2.767   5.955
  162CHOL   H29 4698   2.987   2.768   6.035
  163CHOL    C1 4699   2.064   2.296   5.681
  163CHOL    C2 4700   2.039   2.289   5.832
  163CHOL    C3 4701   2.153   2.356   5.910
  163CHOL    C4 4702   2.170   2.502   5.863
  163CHOL    C5 4703   2.183   2.517   5.712
  163CHOL    C6 4704   2.269   2.604   5.658
  163CHOL    C7 4705   2.281   2.633   5.510
  163CHOL    C8 4706   2.156   2.584   5.437
  163CHOL    C9 4707   2.123   2.440   5.484
  163CHOL   C10 4708   2.078   2.441   5.632
  163CHOL   C11 4709   2.017   2.376   5.392
  163CHOL   C12 4710   2.040   2.390   5.240
  163CHOL   C13 4711   2.063   2.537   5.200
  163CHOL   C14 4712   2.182   2.586   5.285
  163CHOL   C15 4713   2.218   2.722   5.225
  163CHOL   C16 4714   2.187   2.704   5.075
  163CHOL   C17 4715   2.122   2.564   5.059
  163CHOL   C18 4716   1.934   2.618   5.223
  163CHOL   C19 4717   1.942   2.513   5.645
  163CHOL   C20 4718   2.027   2.561   4.937
  163CHOL   C21 4719   1.966   2.423   4.911
  163CHOL   C22 4720   2.102   2.604   4.810
  163CHOL   C23 4721   2.010   2.622   4.689
  163CHOL   C24 4722   2.089   2.659   4.563
  163CHOL   C25 4723   2.000   2.667   4.439
  163CHOL   C26 4724   1.947   2.528   4.402
  163CHOL   C27 4725   2.081   2.723   4.322
  163CHOL   O28 4726   2.121   2.355   6.050
  163CHOL   H29 4727   2.149   2.447   6.088
  164CHOL    C1 4728   3.377   9.201   5.717
  164CHOL    C2 4729   3.333   9.243   5.858
  164CHOL    C3 4730   3.452   9.290   5.943
  164CHOL    C4 4731   3.532   9.399   5.872
  164CHOL    C5 4732   3.564   9.370   5.726
  164CHOL    C6 4733   3.680   9.409   5.669
  164CHOL    C7 4734   3.714   9.398   5.522
  164CHOL    C8 4735   3.585   9.381   5.441
  164CHOL    C9 4736   3.501   9.269   5.507
  164CHOL   C10 4737   3.447   9.317   5.644
  164CHOL   C11 4738   3.387   9.225   5.412
  164CHOL   C12 4739   3.423   9.204   5.264
  164CHOL   C13 4740   3.494   9.328   5.206
  164CHOL   C14 4741   3.618   9.351   5.294
  164CHOL   C15 4742   3.699   9.458   5.219
  164CHOL   C16 4743   3.668   9.428   5.070
  164CHOL   C17 4744   3.566   9.310   5.069
  164CHOL   C18 4745   3.397   9.448   5.202
  164CHOL   C19 4746   3.347   9.431   5.621
  164CHOL   C20 4747   3.477   9.311   4.942
  164CHOL   C21 4748   3.401   9.179   4.926
  164CHOL   C22 4749   3.558   9.336   4.814
  164CHOL   C23 4750   3.469   9.366   4.693
  164CHOL   C24 4751   3.552   9.385   4.566
  164CHOL   C25 4752   3.464   9.417   4.444
  164CHOL   C26 4753   3.550   9.408   4.318
  164CHOL   C27 4754   3.406   9.558   4.455
  164CHOL   O28 4755   3.400   9.344   6.066
  164CHOL   H29 4756   3.480   9.372   6.125
  165CHOL    C1 4757   1.667   7.968   5.633
  165CHOL    C2 4758   1.672   7.933   5.783
  165CHOL    C3 4759   1.605   8.045   5.864
  165CHOL    C4 4760   1.458   8.059   5.822
  165CHOL    C5 4761   1.443   8.083   5.672
  165CHOL    C6 4762   1.354   8.171   5.624
  165CHOL    C7 4763   1.326   8.197   5.477
  165CHOL    C8 4764   1.389   8.088   5.390
  165CHOL    C9 4765   1.530   8.054   5.442
  165CHOL   C10 4766   1.523   7.989   5.583
  165CHOL   C11 4767   1.606   7.965   5.341
  165CHOL   C12 4768   1.608   8.019   5.197
  165CHOL   C13 4769   1.465   8.047   5.145
  165CHOL   C14 4770   1.400   8.143   5.246
  165CHOL   C15 4771   1.269   8.187   5.179
  165CHOL   C16 4772   1.305   8.186   5.029
  165CHOL   C17 4773   1.452   8.136   5.019
  165CHOL   C18 4774   1.390   7.913   5.128
  165CHOL   C19 4775   1.452   7.853   5.576
  165CHOL   C20 4776   1.482   8.075   4.879
  165CHOL   C21 4777   1.631   8.044   4.862
  165CHOL   C22 4778   1.441   8.172   4.767
  165CHOL   C23 4779   1.455   8.118   4.624
  165CHOL   C24 4780   1.354   8.008   4.590
  165CHOL   C25 4781   1.370   7.958   4.446
  165CHOL   C26 4782   1.335   8.066   4.344
  165CHOL   C27 4783   1.280   7.836   4.424
  165CHOL   O28 4784   1.615   8.018   6.004
  165CHOL   H29 4785   1.714   8.006   6.029
  166CHOL    C1 4786   3.443  10.279   5.566
  166CHOL    C2 4787   3.483  10.230   5.706
  166CHOL    C3 4788   3.393  10.294   5.812
  166CHOL    C4 4789   3.248  10.253   5.788
  166CHOL    C5 4790   3.202  10.294   5.648
  166CHOL    C6 4791   3.084  10.354   5.626
  166CHOL    C7 4792   3.031  10.391   5.489
  166CHOL    C8 4793   3.109  10.321   5.378
  166CHOL    C9 4794   3.260  10.330   5.409
  166CHOL   C10 4795   3.295  10.250   5.536
  166CHOL   C11 4796   3.344  10.284   5.288
  166CHOL   C12 4797   3.307  10.351   5.154
  166CHOL   C13 4798   3.157  10.335   5.124
  166CHOL   C14 4799   3.082  10.393   5.245
  166CHOL   C15 4800   2.935  10.400   5.200
  166CHOL   C16 4801   2.947  10.429   5.049
  166CHOL   C17 4802   3.098  10.427   5.013
  166CHOL   C18 4803   3.126  10.187   5.096
  166CHOL   C19 4804   3.276  10.099   5.511
  166CHOL   C20 4805   3.122  10.385   4.866
  166CHOL   C21 4806   3.268  10.404   4.823
  166CHOL   C22 4807   3.032  10.465   4.770
  166CHOL   C23 4808   3.041  10.417   4.625
  166CHOL   C24 4809   2.948  10.497   4.534
  166CHOL   C25 4810   2.963  10.457   4.387
  166CHOL   C26 4811   3.098   0.000   4.331
  166CHOL   C27 4812   2.850   0.015   4.305
  166CHOL   O28 4813   3.441  10.253   5.941
  166CHOL   H29 4814   3.530  10.302   5.955
  167CHOL    C1 4815   2.145   8.710   5.541
  167CHOL    C2 4816   2.115   8.715   5.691
  167CHOL    C3 4817   2.178   8.840   5.754
  167CHOL    C4 4818   2.120   8.966   5.687
  167CHOL    C5 4819   2.140   8.964   5.536
  167CHOL    C6 4820   2.181   9.074   5.470
  167CHOL    C7 4821   2.197   9.084   5.320
  167CHOL    C8 4822   2.129   8.966   5.250
  167CHOL    C9 4823   2.158   8.835   5.325
  167CHOL   C10 4824   2.096   8.836   5.467
  167CHOL   C11 4825   2.112   8.713   5.242
  167CHOL   C12 4826   2.164   8.710   5.097
  167CHOL   C13 4827   2.133   8.842   5.023
  167CHOL   C14 4828   2.191   8.954   5.110
  167CHOL   C15 4829   2.184   9.080   5.023
  167CHOL   C16 4830   2.207   9.025   4.880
  167CHOL   C17 4831   2.213   8.870   4.893
  167CHOL   C18 4832   1.981   8.853   4.999
  167CHOL   C19 4833   1.943   8.834   5.458
  167CHOL   C20 4834   2.168   8.803   4.760
  167CHOL   C21 4835   2.186   8.651   4.763
  167CHOL   C22 4836   2.249   8.858   4.641
  167CHOL   C23 4837   2.185   8.825   4.506
  167CHOL   C24 4838   2.273   8.874   4.390
  167CHOL   C25 4839   2.209   8.852   4.253
  167CHOL   C26 4840   2.189   8.703   4.222
  167CHOL   C27 4841   2.298   8.915   4.145
  167CHOL   O28 4842   2.152   8.843   5.894
  167CHOL   H29 4843   2.180   8.936   5.933
  168CHOL    C1 4844   3.224   0.261   5.501
  168CHOL    C2 4845   3.240   0.268   5.653
  168CHOL    C3 4846   3.352   0.175   5.699
  168CHOL    C4 4847   3.485   0.211   5.630
  168CHOL    C5 4848   3.472   0.219   5.479
  168CHOL    C6 4849   3.569   0.172   5.398
  168CHOL    C7 4850   3.570   0.184   5.248
  168CHOL    C8 4851   3.467   0.286   5.200
  168CHOL    C9 4852   3.335   0.266   5.277
  168CHOL   C10 4853   3.353   0.299   5.427
  168CHOL   C11 4854   3.222   0.349   5.214
  168CHOL   C12 4855   3.205   0.331   5.062
  168CHOL   C13 4856   3.337   0.355   4.987
  168CHOL   C14 4857   3.441   0.261   5.050
  168CHOL   C15 4858   3.563   0.270   4.957
  168CHOL   C16 4859   3.499   0.294   4.818
  168CHOL   C17 4860   3.346   0.302   4.841
  168CHOL   C18 4861   3.374   0.505   4.995
  168CHOL   C19 4862   3.379   0.449   5.445
  168CHOL   C20 4863   3.273   0.381   4.729
  168CHOL   C21 4864   3.121   0.365   4.739
  168CHOL   C22 4865   3.317   0.335   4.589
  168CHOL   C23 4866   3.256   0.418   4.476
  168CHOL   C24 4867   3.299   0.364   4.339
  168CHOL   C25 4868   3.230   0.437   4.223
  168CHOL   C26 4869   3.080   0.404   4.219
  168CHOL   C27 4870   3.295   0.394   4.091
  168CHOL   O28 4871   3.365   0.181   5.842
  168CHOL   H29 4872   3.437   0.251   5.867
  169CHOL    C1 4873   3.420   2.783   5.454
  169CHOL    C2 4874   3.487   2.748   5.588
  169CHOL    C3 4875   3.464   2.601   5.623
  169CHOL    C4 4876   3.525   2.515   5.512
  169CHOL    C5 4877   3.460   2.544   5.379
  169CHOL    C6 4878   3.410   2.445   5.303
  169CHOL    C7 4879   3.349   2.465   5.167
  169CHOL    C8 4880   3.384   2.604   5.112
  169CHOL    C9 4881   3.363   2.710   5.222
  169CHOL   C10 4882   3.463   2.691   5.338
  169CHOL   C11 4883   3.370   2.852   5.160
  169CHOL   C12 4884   3.278   2.874   5.038
  169CHOL   C13 4885   3.301   2.768   4.929
  169CHOL   C14 4886   3.285   2.632   4.998
  169CHOL   C15 4887   3.285   2.529   4.883
  169CHOL   C16 4888   3.216   2.607   4.769
  169CHOL   C17 4889   3.189   2.750   4.823
  169CHOL   C18 4890   3.439   2.789   4.864
  169CHOL   C19 4891   3.606   2.728   5.294
  169CHOL   C20 4892   3.177   2.852   4.706
  169CHOL   C21 4893   3.132   2.990   4.754
  169CHOL   C22 4894   3.075   2.801   4.602
  169CHOL   C23 4895   3.075   2.882   4.472
  169CHOL   C24 4896   2.979   2.824   4.368
  169CHOL   C25 4897   3.022   2.687   4.313
  169CHOL   C26 4898   3.151   2.700   4.231
  169CHOL   C27 4899   2.911   2.631   4.224
  169CHOL   O28 4900   3.526   2.567   5.748
  169CHOL   H29 4901   3.536   2.464   5.751
  170CHOL    C1 4902   3.706   7.946   5.617
  170CHOL    C2 4903   3.702   7.915   5.768
  170CHOL    C3 4904   3.568   7.850   5.806
  170CHOL    C4 4905   3.548   7.722   5.725
  170CHOL    C5 4906   3.558   7.745   5.575
  170CHOL    C6 4907   3.470   7.692   5.489
  170CHOL    C7 4908   3.478   7.703   5.339
  170CHOL    C8 4909   3.618   7.746   5.296
  170CHOL    C9 4910   3.664   7.865   5.384
  170CHOL   C10 4911   3.683   7.821   5.531
  170CHOL   C11 4912   3.792   7.928   5.324
  170CHOL   C12 4913   3.788   7.959   5.174
  170CHOL   C13 4914   3.747   7.836   5.091
  170CHOL   C14 4915   3.612   7.790   5.149
  170CHOL   C15 4916   3.561   7.684   5.049
  170CHOL   C16 4917   3.616   7.735   4.914
  170CHOL   C17 4918   3.702   7.861   4.944
  170CHOL   C18 4919   3.858   7.728   5.099
  170CHOL   C19 4920   3.805   7.727   5.543
  170CHOL   C20 4921   3.811   7.882   4.836
  170CHOL   C21 4922   3.886   8.015   4.853
  170CHOL   C22 4923   3.750   7.879   4.695
  170CHOL   C23 4924   3.856   7.876   4.583
  170CHOL   C24 4925   3.793   7.867   4.444
  170CHOL   C25 4926   3.717   7.994   4.401
  170CHOL   C26 4927   3.641   7.965   4.271
  170CHOL   C27 4928   3.814   8.109   4.375
  170CHOL   O28 4929   3.571   7.816   5.946
  170CHOL   H29 4930   3.488   7.758   5.968
  171CHOL    C1 4931   9.792   2.236   5.702
  171CHOL    C2 4932   9.813   2.204   5.851
  171CHOL    C3 4933   9.694   2.123   5.905
  171CHOL    C4 4934   9.679   1.993   5.825
  171CHOL    C5 4935   9.673   2.014   5.675
  171CHOL    C6 4936   9.591   1.940   5.599
  171CHOL    C7 4937   9.584   1.946   5.448
  171CHOL    C8 4938   9.705   2.019   5.391
  171CHOL    C9 4939   9.732   2.146   5.475
  171CHOL   C10 4940   9.778   2.108   5.618
  171CHOL   C11 4941   9.834   2.237   5.403
  171CHOL   C12 4942   9.802   2.266   5.254
  171CHOL   C13 4943   9.784   2.135   5.175
  171CHOL   C14 4944   9.673   2.056   5.246
  171CHOL   C15 4945   9.642   1.939   5.152
  171CHOL   C16 4946   9.666   1.999   5.012
  171CHOL   C17 4947   9.717   2.144   5.035
  171CHOL   C18 4948   9.918   2.060   5.168
  171CHOL   C19 4949   9.913   2.035   5.612
  171CHOL   C20 4950   9.802   2.195   4.916
  171CHOL   C21 4951   9.824   2.347   4.924
  171CHOL   C22 4952   9.736   2.162   4.782
  171CHOL   C23 4953   9.824   2.195   4.660
  171CHOL   C24 4954   9.756   2.148   4.531
  171CHOL   C25 4955   9.834   2.189   4.406
  171CHOL   C26 4956   9.825   2.340   4.383
  171CHOL   C27 4957   9.777   2.115   4.285
  171CHOL   O28 4958   9.714   2.091   6.043
  171CHOL   H29 4959   9.621   2.067   6.083
  172CHOL    C1 4960   0.466   8.851   5.665
  172CHOL    C2 4961   0.490   8.834   5.815
  172CHOL    C3 4962   0.391   8.732   5.873
  172CHOL    C4 4963   0.410   8.596   5.804
  172CHOL    C5 4964   0.398   8.606   5.653
  172CHOL    C6 4965   0.333   8.513   5.582
  172CHOL    C7 4966   0.321   8.510   5.431
  172CHOL    C8 4967   0.421   8.606   5.366
  172CHOL    C9 4968   0.424   8.739   5.444
  172CHOL   C10 4969   0.479   8.718   5.588
  172CHOL   C11 4970   0.505   8.844   5.366
  172CHOL   C12 4971   0.464   8.863   5.219
  172CHOL   C13 4972   0.463   8.729   5.143
  172CHOL   C14 4973   0.372   8.635   5.223
  172CHOL   C15 4974   0.353   8.512   5.133
  172CHOL   C16 4975   0.354   8.574   4.991
  172CHOL   C17 4976   0.386   8.725   5.008
  172CHOL   C18 4977   0.607   8.677   5.126
  172CHOL   C19 4978   0.627   8.677   5.582
  172CHOL   C20 4979   0.452   8.782   4.880
  172CHOL   C21 4980   0.477   8.933   4.887
  172CHOL   C22 4981   0.361   8.756   4.758
  172CHOL   C23 4982   0.430   8.782   4.623
  172CHOL   C24 4983   0.329   8.767   4.509
  172CHOL   C25 4984   0.391   8.792   4.371
  172CHOL   C26 4985   0.278   8.808   4.269
  172CHOL   C27 4986   0.476   8.672   4.330
  172CHOL   O28 4987   0.411   8.719   6.015
  172CHOL   H29 4988   0.388   8.811   6.057
  173CHOL    C1 4989   3.820   9.018   5.754
  173CHOL    C2 4990   3.829   8.998   5.906
  173CHOL    C3 4991   3.692   8.965   5.965
  173CHOL    C4 4992   3.633   8.840   5.899
  173CHOL    C5 4993   3.633   8.846   5.747
  173CHOL    C6 4994   3.533   8.795   5.673
  173CHOL    C7 4995   3.529   8.788   5.522
  173CHOL    C8 4996   3.668   8.812   5.463
  173CHOL    C9 4997   3.736   8.930   5.537
  173CHOL   C10 4998   3.764   8.893   5.684
  173CHOL   C11 4999   3.864   8.974   5.463
  173CHOL   C12 5000   3.846   9.001   5.313
  173CHOL   C13 5001   3.783   8.880   5.241
  173CHOL   C14 5002   3.652   8.850   5.315
  173CHOL   C15 5003   3.581   8.746   5.227
  173CHOL   C16 5004   3.624   8.787   5.084
  173CHOL   C17 5005   3.725   8.904   5.100
  173CHOL   C18 5006   3.884   8.763   5.242
  173CHOL   C19 5007   3.866   8.779   5.690
  173CHOL   C20 5008   3.820   8.913   4.978
  173CHOL   C21 5009   3.911   9.037   4.982
  173CHOL   C22 5010   3.740   8.917   4.847
  173CHOL   C23 5011   3.826   8.897   4.722
  173CHOL   C24 5012   3.739   8.906   4.596
  173CHOL   C25 5013   3.818   8.882   4.467
  173CHOL   C26 5014   3.720   8.877   4.349
  173CHOL   C27 5015   3.918   8.996   4.442
  173CHOL   O28 5016   3.706   8.946   6.106
  173CHOL   H29 5017   3.613   8.931   6.148
  174CHOL    C1 5018   4.403  10.183   5.362
  174CHOL    C2 5019   4.421  10.206   5.513
  174CHOL    C3 5020   4.535  10.306   5.536
  174CHOL    C4 5021   4.501  10.440   5.470
  174CHOL    C5 5022   4.473  10.424   5.321
  174CHOL    C6 5023   4.520   0.009   5.231
  174CHOL    C7 5024   4.492   0.006   5.083
  174CHOL    C8 5025   4.376  10.414   5.051
  174CHOL    C9 5026   4.389  10.284   5.134
  174CHOL   C10 5027   4.374  10.313   5.285
  174CHOL   C11 5028   4.289  10.179   5.084
  174CHOL   C12 5029   4.291  10.151   4.932
  174CHOL   C13 5030   4.277  10.282   4.851
  174CHOL   C14 5031   4.388  10.376   4.902
  174CHOL   C15 5032   4.388  10.493   4.802
  174CHOL   C16 5033   4.348  10.425   4.669
  174CHOL   C17 5034   4.318  10.276   4.701
  174CHOL   C18 5035   4.135  10.339   4.868
  174CHOL   C19 5036   4.231  10.360   5.317
  174CHOL   C20 5037   4.218  10.215   4.600
  174CHOL   C21 5038   4.206  10.063   4.615
  174CHOL   C22 5039   4.261  10.246   4.456
  174CHOL   C23 5040   4.156  10.211   4.349
  174CHOL   C24 5041   4.209  10.248   4.211
  174CHOL   C25 5042   4.113  10.215   4.096
  174CHOL   C26 5043   3.987  10.302   4.103
  174CHOL   C27 5044   4.184  10.241   3.963
  174CHOL   O28 5045   4.559  10.324   5.676
  174CHOL   H29 5046   4.477  10.372   5.718
  175CHOL    C1 5047   4.478   9.665   5.681
  175CHOL    C2 5048   4.480   9.674   5.834
  175CHOL    C3 5049   4.595   9.590   5.893
  175CHOL    C4 5050   4.730   9.633   5.833
  175CHOL    C5 5051   4.730   9.641   5.681
  175CHOL    C6 5052   4.837   9.602   5.609
  175CHOL    C7 5053   4.851   9.616   5.460
  175CHOL    C8 5054   4.747   9.714   5.405
  175CHOL    C9 5055   4.610   9.682   5.468
  175CHOL   C10 5056   4.611   9.713   5.619
  175CHOL   C11 5057   4.497   9.758   5.394
  175CHOL   C12 5058   4.499   9.747   5.240
  175CHOL   C13 5059   4.636   9.787   5.183
  175CHOL   C14 5060   4.740   9.698   5.252
  175CHOL   C15 5061   4.871   9.724   5.176
  175CHOL   C16 5062   4.822   9.753   5.032
  175CHOL   C17 5063   4.666   9.747   5.036
  175CHOL   C18 5064   4.659   9.938   5.205
  175CHOL   C19 5065   4.626   9.865   5.642
  175CHOL   C20 5066   4.600   9.833   4.926
  175CHOL   C21 5067   4.454   9.790   4.903
  175CHOL   C22 5068   4.674   9.822   4.792
  175CHOL   C23 5069   4.628   9.926   4.689
  175CHOL   C24 5070   4.707   9.915   4.557
  175CHOL   C25 5071   4.681   9.785   4.481
  175CHOL   C26 5072   4.781   9.773   4.366
  175CHOL   C27 5073   4.539   9.785   4.422
  175CHOL   O28 5074   4.599   9.611   6.035
  175CHOL   H29 5075   4.667   9.543   6.075
  176CHOL    C1 5076   1.241   9.241   5.620
  176CHOL    C2 5077   1.192   9.243   5.766
  176CHOL    C3 5078   1.208   9.384   5.826
  176CHOL    C4 5079   1.129   9.485   5.742
  176CHOL    C5 5080   1.165   9.481   5.594
  176CHOL    C6 5081   1.180   9.593   5.521
  176CHOL    C7 5082   1.205   9.597   5.372
  176CHOL    C8 5083   1.170   9.461   5.310
  176CHOL    C9 5084   1.233   9.349   5.395
  176CHOL   C10 5085   1.165   9.341   5.533
  176CHOL   C11 5086   1.228   9.215   5.319
  176CHOL   C12 5087   1.272   9.217   5.172
  176CHOL   C13 5088   1.195   9.324   5.092
  176CHOL   C14 5089   1.221   9.457   5.165
  176CHOL   C15 5090   1.164   9.564   5.070
  176CHOL   C16 5091   1.189   9.504   4.930
  176CHOL   C17 5092   1.250   9.362   4.952
  176CHOL   C18 5093   1.046   9.286   5.084
  176CHOL   C19 5094   1.019   9.295   5.516
  176CHOL   C20 5095   1.219   9.267   4.834
  176CHOL   C21 5096   1.299   9.136   4.842
  176CHOL   C22 5097   1.251   9.334   4.699
  176CHOL   C23 5098   1.199   9.254   4.579
  176CHOL   C24 5099   1.235   9.322   4.446
  176CHOL   C25 5100   1.163   9.456   4.423
  176CHOL   C26 5101   1.227   9.526   4.304
  176CHOL   C27 5102   1.015   9.432   4.392
  176CHOL   O28 5103   1.160   9.384   5.961
  176CHOL   H29 5104   1.204   9.305   6.011
  177CHOL    C1 5105   1.004  10.413   5.606
  177CHOL    C2 5106   0.983  10.470   5.747
  177CHOL    C3 5107   1.109   0.042   5.792
  177CHOL    C4 5108   1.144   0.155   5.694
  177CHOL    C5 5109   1.148   0.111   5.548
  177CHOL    C6 5110   1.236   0.164   5.462
  177CHOL    C7 5111   1.242   0.134   5.314
  177CHOL    C8 5112   1.115   0.063   5.266
  177CHOL    C9 5113   1.074  10.459   5.369
  177CHOL   C10 5114   1.033   0.021   5.503
  177CHOL   C11 5115   0.962  10.369   5.312
  177CHOL   C12 5116   0.991  10.309   5.173
  177CHOL   C13 5117   1.029  10.418   5.071
  177CHOL   C14 5118   1.147  10.496   5.133
  177CHOL   C15 5119   1.197   0.084   5.019
  177CHOL   C16 5120   1.170  10.502   4.892
  177CHOL   C17 5121   1.099  10.372   4.940
  177CHOL   C18 5122   0.906   0.002   5.040
  177CHOL   C19 5123   0.906   0.106   5.484
  177CHOL   C20 5124   1.014  10.308   4.828
  177CHOL   C21 5125   0.963  10.168   4.866
  177CHOL   C22 5126   1.097  10.295   4.698
  177CHOL   C23 5127   1.017  10.245   4.577
  177CHOL   C24 5128   1.107  10.244   4.452
  177CHOL   C25 5129   1.043  10.190   4.324
  177CHOL   C26 5130   0.916  10.267   4.286
  177CHOL   C27 5131   1.016  10.040   4.333
  177CHOL   O28 5132   1.087   0.100   5.921
  177CHOL   H29 5133   1.017   0.044   5.974
  178CHOL    C1 5134   2.100  10.223   5.427
  178CHOL    C2 5135   2.123  10.216   5.578
  178CHOL    C3 5136   1.990  10.226   5.653
  178CHOL    C4 5137   1.894  10.115   5.608
  178CHOL    C5 5138   1.876  10.109   5.457
  178CHOL    C6 5139   1.757  10.084   5.401
  178CHOL    C7 5140   1.733  10.066   5.252
  178CHOL    C8 5141   1.864  10.043   5.178
  178CHOL    C9 5142   1.971  10.141   5.229
  178CHOL   C10 5143   2.006  10.113   5.377
  178CHOL   C11 5144   2.096  10.137   5.139
  178CHOL   C12 5145   2.070  10.151   4.988
  178CHOL   C13 5146   1.964  10.050   4.940
  178CHOL   C14 5147   1.841  10.071   5.028
  178CHOL   C15 5148   1.730   9.988   4.961
  178CHOL   C16 5149   1.767   9.995   4.811
  178CHOL   C17 5150   1.899  10.077   4.802
  178CHOL   C18 5151   2.022   9.907   4.947
  178CHOL   C19 5152   2.076   9.976   5.389
  178CHOL   C20 5153   1.982  10.042   4.675
  178CHOL   C21 5154   2.090  10.147   4.648
  178CHOL   C22 5155   1.893  10.031   4.551
  178CHOL   C23 5156   1.966   9.977   4.427
  178CHOL   C24 5157   1.872   9.972   4.307
  178CHOL   C25 5158   1.942   9.927   4.179
  178CHOL   C26 5159   2.044  10.032   4.133
  178CHOL   C27 5160   1.838   9.905   4.068
  178CHOL   O28 5161   2.013  10.212   5.793
  178CHOL   H29 5162   2.068  10.126   5.810
  179CHOL    C1 5163   3.118   9.707   5.511
  179CHOL    C2 5164   3.106   9.685   5.662
  179CHOL    C3 5165   3.058   9.811   5.734
  179CHOL    C4 5166   2.924   9.858   5.674
  179CHOL    C5 5167   2.925   9.870   5.522
  179CHOL    C6 5168   2.863   9.970   5.457
  179CHOL    C7 5169   2.851   9.982   5.307
  179CHOL    C8 5170   2.883   9.848   5.239
  179CHOL    C9 5171   3.011   9.789   5.303
  179CHOL   C10 5172   2.984   9.749   5.450
  179CHOL   C11 5173   3.062   9.669   5.220
  179CHOL   C12 5174   3.075   9.691   5.068
  179CHOL   C13 5175   2.944   9.746   5.010
  179CHOL   C14 5176   2.910   9.873   5.090
  179CHOL   C15 5177   2.796   9.939   5.011
  179CHOL   C16 5178   2.826   9.899   4.864
  179CHOL   C17 5179   2.952   9.809   4.868
  179CHOL   C18 5180   2.834   9.637   5.016
  179CHOL   C19 5181   2.884   9.632   5.457
  179CHOL   C20 5182   2.957   9.707   4.751
  179CHOL   C21 5183   3.101   9.661   4.725
  179CHOL   C22 5184   2.899   9.764   4.620
  179CHOL   C23 5185   2.876   9.657   4.513
  179CHOL   C24 5186   2.805   9.714   4.390
  179CHOL   C25 5187   2.888   9.817   4.314
  179CHOL   C26 5188   2.798   9.888   4.213
  179CHOL   C27 5189   3.001   9.748   4.237
  179CHOL   O28 5190   3.039   9.776   5.871
  179CHOL   H29 5191   2.980   9.690   5.875
  180CHOL    C1 5192   2.825   1.125   5.530
  180CHOL    C2 5193   2.800   1.115   5.681
  180CHOL    C3 5194   2.846   1.241   5.754
  180CHOL    C4 5195   2.780   1.367   5.693
  180CHOL    C5 5196   2.795   1.375   5.542
  180CHOL    C6 5197   2.822   1.491   5.479
  180CHOL    C7 5198   2.827   1.509   5.329
  180CHOL    C8 5199   2.758   1.392   5.259
  180CHOL    C9 5200   2.806   1.260   5.322
  180CHOL   C10 5201   2.757   1.248   5.468
  180CHOL   C11 5202   2.761   1.139   5.237
  180CHOL   C12 5203   2.785   1.149   5.085
  180CHOL   C13 5204   2.729   1.281   5.028
  180CHOL   C14 5205   2.794   1.393   5.109
  180CHOL   C15 5206   2.758   1.522   5.033
  180CHOL   C16 5207   2.755   1.475   4.885
  180CHOL   C17 5208   2.777   1.321   4.886
  180CHOL   C18 5209   2.575   1.279   5.036
  180CHOL   C19 5210   2.604   1.231   5.472
  180CHOL   C20 5211   2.706   1.252   4.767
  180CHOL   C21 5212   2.758   1.109   4.747
  180CHOL   C22 5213   2.726   1.328   4.634
  180CHOL   C23 5214   2.630   1.278   4.525
  180CHOL   C24 5215   2.657   1.348   4.392
  180CHOL   C25 5216   2.562   1.302   4.281
  180CHOL   C26 5217   2.587   1.386   4.155
  180CHOL   C27 5218   2.584   1.155   4.246
  180CHOL   O28 5219   2.806   1.229   5.891
  180CHOL   H29 5220   2.703   1.222   5.895
  181CHOL    C1 5221   1.557   1.444   5.549
  181CHOL    C2 5222   1.549   1.458   5.701
  181CHOL    C3 5223   1.683   1.422   5.766
  181CHOL    C4 5224   1.793   1.513   5.711
  181CHOL    C5 5225   1.801   1.510   5.559
  181CHOL    C6 5226   1.918   1.505   5.493
  181CHOL    C7 5227   1.934   1.510   5.343
  181CHOL    C8 5228   1.805   1.555   5.274
  181CHOL    C9 5229   1.685   1.485   5.341
  181CHOL   C10 5230   1.668   1.530   5.487
  181CHOL   C11 5231   1.556   1.508   5.258
  181CHOL   C12 5232   1.568   1.470   5.110
  181CHOL   C13 5233   1.686   1.543   5.043
  181CHOL   C14 5234   1.811   1.510   5.127
  181CHOL   C15 5235   1.928   1.565   5.044
  181CHOL   C16 5236   1.880   1.545   4.898
  181CHOL   C17 5237   1.736   1.487   4.907
  181CHOL   C18 5238   1.654   1.694   5.033
  181CHOL   C19 5239   1.628   1.679   5.494
  181CHOL   C20 5240   1.655   1.517   4.778
  181CHOL   C21 5241   1.522   1.439   4.775
  181CHOL   C22 5242   1.737   1.479   4.654
  181CHOL   C23 5243   1.674   1.516   4.518
  181CHOL   C24 5244   1.669   1.667   4.493
  181CHOL   C25 5245   1.619   1.697   4.351
  181CHOL   C26 5246   1.589   1.847   4.340
  181CHOL   C27 5247   1.726   1.662   4.248
  181CHOL   O28 5248   1.670   1.438   5.908
  181CHOL   H29 5249   1.615   1.362   5.944
  182CHOL    C1 5250   1.352   3.341   5.330
  182CHOL    C2 5251   1.413   3.337   5.471
  182CHOL    C3 5252   1.344   3.233   5.559
  182CHOL    C4 5253   1.345   3.095   5.492
  182CHOL    C5 5254   1.300   3.095   5.347
  182CHOL    C6 5255   1.227   2.993   5.297
  182CHOL    C7 5256   1.188   2.979   5.151
  182CHOL    C8 5257   1.274   3.071   5.064
  182CHOL    C9 5258   1.281   3.211   5.128
  182CHOL   C10 5259   1.360   3.205   5.261
  182CHOL   C11 5260   1.342   3.312   5.028
  182CHOL   C12 5261   1.282   3.311   4.886
  182CHOL   C13 5262   1.283   3.170   4.825
  182CHOL   C14 5263   1.208   3.080   4.925
  182CHOL   C15 5264   1.189   2.946   4.851
  182CHOL   C16 5265   1.170   2.991   4.705
  182CHOL   C17 5266   1.192   3.145   4.702
  182CHOL   C18 5267   1.428   3.126   4.797
  182CHOL   C19 5268   1.508   3.170   5.232
  182CHOL   C20 5269   1.239   3.190   4.561
  182CHOL   C21 5270   1.252   3.343   4.549
  182CHOL   C22 5271   1.138   3.144   4.455
  182CHOL   C23 5272   1.192   3.142   4.311
  182CHOL   C24 5273   1.298   3.033   4.292
  182CHOL   C25 5274   1.339   3.015   4.146
  182CHOL   C26 5275   1.458   2.920   4.138
  182CHOL   C27 5276   1.223   2.953   4.067
  182CHOL   O28 5277   1.414   3.222   5.683
  182CHOL   H29 5278   1.428   3.316   5.723
  183CHOL    C1 5279   1.392   2.040   5.475
  183CHOL    C2 5280   1.395   2.066   5.626
  183CHOL    C3 5281   1.535   2.111   5.668
  183CHOL    C4 5282   1.574   2.240   5.595
  183CHOL    C5 5283   1.556   2.232   5.444
  183CHOL    C6 5284   1.640   2.296   5.360
  183CHOL    C7 5285   1.629   2.301   5.210
  183CHOL    C8 5286   1.493   2.248   5.162
  183CHOL    C9 5287   1.449   2.127   5.248
  183CHOL   C10 5288   1.428   2.167   5.395
  183CHOL   C11 5289   1.324   2.060   5.187
  183CHOL   C12 5290   1.337   2.023   5.038
  183CHOL   C13 5291   1.380   2.144   4.954
  183CHOL   C14 5292   1.509   2.198   5.018
  183CHOL   C15 5293   1.562   2.301   4.916
  183CHOL   C16 5294   1.514   2.244   4.780
  183CHOL   C17 5295   1.434   2.115   4.811
  183CHOL   C18 5296   1.266   2.248   4.950
  183CHOL   C19 5297   1.312   2.268   5.407
  183CHOL   C20 5298   1.327   2.082   4.704
  183CHOL   C21 5299   1.285   1.935   4.712
  183CHOL   C22 5300   1.376   2.110   4.561
  183CHOL   C23 5301   1.262   2.106   4.458
  183CHOL   C24 5302   1.315   2.131   4.317
  183CHOL   C25 5303   1.203   2.130   4.212
  183CHOL   C26 5304   1.266   2.130   4.072
  183CHOL   C27 5305   1.115   2.255   4.225
  183CHOL   O28 5306   1.539   2.132   5.810
  183CHOL   H29 5307   1.479   2.213   5.835
  184CHOL    C1 5308   3.083   2.283   5.594
  184CHOL    C2 5309   3.154   2.284   5.730
  184CHOL    C3 5310   3.070   2.206   5.832
  184CHOL    C4 5311   3.053   2.060   5.786
  184CHOL    C5 5312   2.992   2.052   5.647
  184CHOL    C6 5313   2.896   1.962   5.618
  184CHOL    C7 5314   2.836   1.941   5.481
  184CHOL    C8 5315   2.922   2.008   5.374
  184CHOL    C9 5316   2.963   2.149   5.421
  184CHOL   C10 5317   3.058   2.140   5.542
  184CHOL   C11 5318   3.025   2.229   5.304
  184CHOL   C12 5319   2.947   2.228   5.171
  184CHOL   C13 5320   2.916   2.084   5.127
  184CHOL   C14 5321   2.841   2.018   5.244
  184CHOL   C15 5322   2.789   1.885   5.188
  184CHOL   C16 5323   2.763   1.918   5.039
  184CHOL   C17 5324   2.809   2.065   5.016
  184CHOL   C18 5325   3.048   2.013   5.090
  184CHOL   C19 5326   3.192   2.077   5.501
  184CHOL   C20 5327   2.856   2.087   4.869
  184CHOL   C21 5328   2.867   2.236   4.835
  184CHOL   C22 5329   2.759   2.021   4.769
  184CHOL   C23 5330   2.822   1.995   4.632
  184CHOL   C24 5331   2.725   1.913   4.547
  184CHOL   C25 5332   2.786   1.870   4.412
  184CHOL   C26 5333   2.691   1.771   4.345
  184CHOL   C27 5334   2.801   1.992   4.320
  184CHOL   O28 5335   3.133   2.210   5.960
  184CHOL   H29 5336   3.231   2.175   5.953
  185CHOL    C1 5337   2.832   0.360   5.459
  185CHOL    C2 5338   2.848   0.320   5.607
  185CHOL    C3 5339   2.735   0.378   5.693
  185CHOL    C4 5340   2.599   0.331   5.639
  185CHOL    C5 5341   2.581   0.357   5.490
  185CHOL    C6 5342   2.464   0.400   5.440
  185CHOL    C7 5343   2.433   0.416   5.293
  185CHOL    C8 5344   2.535   0.340   5.208
  185CHOL    C9 5345   2.677   0.372   5.261
  185CHOL   C10 5346   2.697   0.312   5.402
  185CHOL   C11 5347   2.783   0.324   5.160
  185CHOL   C12 5348   2.760   0.363   5.013
  185CHOL   C13 5349   2.620   0.320   4.965
  185CHOL   C14 5350   2.520   0.384   5.062
  185CHOL   C15 5351   2.382   0.359   4.998
  185CHOL   C16 5352   2.413   0.364   4.846
  185CHOL   C17 5353   2.566   0.383   4.833
  185CHOL   C18 5354   2.612   0.166   4.960
  185CHOL   C19 5355   2.698   0.158   5.393
  185CHOL   C20 5356   2.619   0.327   4.698
  185CHOL   C21 5357   2.764   0.368   4.672
  185CHOL   C22 5358   2.535   0.376   4.579
  185CHOL   C23 5359   2.569   0.303   4.448
  185CHOL   C24 5360   2.494   0.364   4.330
  185CHOL   C25 5361   2.528   0.297   4.196
  185CHOL   C26 5362   2.440   0.358   4.087
  185CHOL   C27 5363   2.674   0.322   4.158
  185CHOL   O28 5364   2.750   0.332   5.828
  185CHOL   H29 5365   2.666   0.363   5.880
  186CHOL    C1 5366   0.918   1.073   5.719
  186CHOL    C2 5367   0.900   1.105   5.868
  186CHOL    C3 5368   1.035   1.114   5.939
  186CHOL    C4 5369   1.120   1.223   5.874
  186CHOL    C5 5370   1.137   1.199   5.725
  186CHOL    C6 5371   1.258   1.210   5.666
  186CHOL    C7 5372   1.283   1.196   5.518
  186CHOL    C8 5373   1.152   1.208   5.440
  186CHOL    C9 5374   1.046   1.120   5.508
  186CHOL   C10 5375   1.008   1.175   5.647
  186CHOL   C11 5376   0.924   1.103   5.414
  186CHOL   C12 5377   0.956   1.062   5.269
  186CHOL   C13 5378   1.058   1.157   5.205
  186CHOL   C14 5379   1.180   1.158   5.298
  186CHOL   C15 5380   1.288   1.236   5.221
  186CHOL   C16 5381   1.256   1.201   5.073
  186CHOL   C17 5382   1.131   1.109   5.076
  186CHOL   C18 5383   0.992   1.295   5.184
  186CHOL   C19 5384   0.932   1.309   5.633
  186CHOL   C20 5385   1.054   1.112   4.941
  186CHOL   C21 5386   0.956   0.994   4.932
  186CHOL   C22 5387   1.151   1.104   4.822
  186CHOL   C23 5388   1.084   1.121   4.686
  186CHOL   C24 5389   1.188   1.118   4.574
  186CHOL   C25 5390   1.125   1.127   4.434
  186CHOL   C26 5391   1.050   0.998   4.401
  186CHOL   C27 5392   1.234   1.152   4.330
  186CHOL   O28 5393   1.015   1.147   6.077
  186CHOL   H29 5394   1.108   1.148   6.124
  187CHOL    C1 5395   0.652  10.120   5.851
  187CHOL    C2 5396   0.686  10.163   5.994
  187CHOL    C3 5397   0.684  10.042   6.088
  187CHOL    C4 5398   0.782   9.934   6.040
  187CHOL    C5 5399   0.763   9.896   5.894
  187CHOL    C6 5400   0.774   9.769   5.852
  187CHOL    C7 5401   0.767   9.723   5.708
  187CHOL    C8 5402   0.783   9.842   5.614
  187CHOL    C9 5403   0.697   9.961   5.663
  187CHOL   C10 5404   0.750  10.014   5.798
  187CHOL   C11 5405   0.692  10.072   5.556
  187CHOL   C12 5406   0.655  10.025   5.414
  187CHOL   C13 5407   0.746   9.910   5.367
  187CHOL   C14 5408   0.735   9.800   5.474
  187CHOL   C15 5409   0.805   9.678   5.412
  187CHOL   C16 5410   0.777   9.695   5.261
  187CHOL   C17 5411   0.698   9.828   5.244
  187CHOL   C18 5412   0.890   9.962   5.347
  187CHOL   C19 5413   0.888  10.079   5.779
  187CHOL   C20 5414   0.719   9.890   5.104
  187CHOL   C21 5415   0.621  10.005   5.077
  187CHOL   C22 5416   0.700   9.785   4.993
  187CHOL   C23 5417   0.750   9.836   4.857
  187CHOL   C24 5418   0.726   9.732   4.747
  187CHOL   C25 5419   0.780   9.772   4.609
  187CHOL   C26 5420   0.718   9.902   4.558
  187CHOL   C27 5421   0.933   9.781   4.610
  187CHOL   O28 5422   0.721  10.080   6.222
  187CHOL   H29 5423   0.714  10.182   6.230
  188CHOL    C1 5424   0.510   1.022   5.843
  188CHOL    C2 5425   0.468   1.009   5.990
  188CHOL    C3 5426   0.446   1.147   6.053
  188CHOL    C4 5427   0.341   1.226   5.974
  188CHOL    C5 5428   0.365   1.229   5.824
  188CHOL    C6 5429   0.334   1.336   5.750
  188CHOL    C7 5430   0.343   1.345   5.599
  188CHOL    C8 5431   0.363   1.206   5.536
  188CHOL    C9 5432   0.462   1.125   5.621
  188CHOL   C10 5433   0.403   1.095   5.761
  188CHOL   C11 5434   0.502   0.995   5.549
  188CHOL   C12 5435   0.552   1.016   5.405
  188CHOL   C13 5436   0.451   1.095   5.320
  188CHOL   C14 5437   0.423   1.225   5.396
  188CHOL   C15 5438   0.341   1.310   5.297
  188CHOL   C16 5439   0.399   1.269   5.159
  188CHOL   C17 5440   0.502   1.155   5.187
  188CHOL   C18 5441   0.325   1.008   5.297
  188CHOL   C19 5442   0.278   1.006   5.749
  188CHOL   C20 5443   0.517   1.064   5.063
  188CHOL   C21 5444   0.622   0.954   5.083
  188CHOL   C22 5445   0.557   1.145   4.939
  188CHOL   C23 5446   0.558   1.061   4.810
  188CHOL   C24 5447   0.611   1.140   4.689
  188CHOL   C25 5448   0.515   1.250   4.642
  188CHOL   C26 5449   0.587   1.335   4.537
  188CHOL   C27 5450   0.391   1.189   4.577
  188CHOL   O28 5451   0.402   1.129   6.188
  188CHOL   H29 5452   0.420   1.032   6.218
  189CHOL    C1 5453   3.214   1.116   5.514
  189CHOL    C2 5454   3.249   1.127   5.663
  189CHOL    C3 5455   3.321   1.001   5.714
  189CHOL    C4 5456   3.447   0.977   5.629
  189CHOL    C5 5457   3.417   0.970   5.480
  189CHOL    C6 5458   3.467   0.874   5.402
  189CHOL    C7 5459   3.450   0.866   5.252
  189CHOL    C8 5460   3.408   1.003   5.198
  189CHOL    C9 5461   3.291   1.057   5.283
  189CHOL   C10 5462   3.338   1.089   5.427
  189CHOL   C11 5463   3.226   1.178   5.214
  189CHOL   C12 5464   3.194   1.163   5.064
  189CHOL   C13 5465   3.317   1.117   4.984
  189CHOL   C14 5466   3.365   0.987   5.051
  189CHOL   C15 5467   3.470   0.930   4.955
  189CHOL   C16 5468   3.418   0.974   4.816
  189CHOL   C17 5469   3.293   1.063   4.841
  189CHOL   C18 5470   3.424   1.228   4.984
  189CHOL   C19 5471   3.429   1.213   5.426
  189CHOL   C20 5472   3.272   1.165   4.727
  189CHOL   C21 5473   3.139   1.241   4.740
  189CHOL   C22 5474   3.273   1.097   4.589
  189CHOL   C23 5475   3.279   1.199   4.475
  189CHOL   C24 5476   3.261   1.133   4.338
  189CHOL   C25 5477   3.263   1.236   4.224
  189CHOL   C26 5478   3.213   1.169   4.096
  189CHOL   C27 5479   3.406   1.285   4.200
  189CHOL   O28 5480   3.359   1.020   5.851
  189CHOL   H29 5481   3.405   1.112   5.860
  190CHOL    C1 5482   4.361   2.336   5.648
  190CHOL    C2 5483   4.423   2.343   5.788
  190CHOL    C3 5484   4.431   2.203   5.851
  190CHOL    C4 5485   4.509   2.106   5.760
  190CHOL    C5 5486   4.462   2.107   5.615
  190CHOL    C6 5487   4.459   1.995   5.541
  190CHOL    C7 5488   4.426   1.988   5.393
  190CHOL    C8 5489   4.435   2.127   5.330
  190CHOL    C9 5490   4.363   2.228   5.423
  190CHOL   C10 5491   4.441   2.245   5.555
  190CHOL   C11 5492   4.342   2.363   5.351
  190CHOL   C12 5493   4.285   2.356   5.208
  190CHOL   C13 5494   4.369   2.261   5.120
  190CHOL   C14 5495   4.369   2.125   5.191
  190CHOL   C15 5496   4.431   2.028   5.088
  190CHOL   C16 5497   4.386   2.088   4.952
  190CHOL   C17 5498   4.306   2.218   4.985
  190CHOL   C18 5499   4.509   2.321   5.099
  190CHOL   C19 5500   4.579   2.310   5.526
  190CHOL   C20 5501   4.314   2.323   4.871
  190CHOL   C21 5502   4.203   2.429   4.885
  190CHOL   C22 5503   4.301   2.260   4.731
  190CHOL   C23 5504   4.339   2.359   4.620
  190CHOL   C24 5505   4.326   2.297   4.480
  190CHOL   C25 5506   4.181   2.266   4.441
  190CHOL   C26 5507   4.101   2.395   4.418
  190CHOL   C27 5508   4.181   2.182   4.313
  190CHOL   O28 5509   4.500   2.214   5.976
  190CHOL   H29 5510   4.451   2.286   6.034
  191CHOL    C1 5511   0.096   2.250   5.629
  191CHOL    C2 5512   0.106   2.288   5.777
  191CHOL    C3 5513   0.200   2.192   5.850
  191CHOL    C4 5514   0.340   2.197   5.787
  191CHOL    C5 5515   0.338   2.172   5.637
  191CHOL    C6 5516   0.431   2.096   5.578
  191CHOL    C7 5517   0.442   2.072   5.429
  191CHOL    C8 5518   0.356   2.171   5.351
  191CHOL    C9 5519   0.219   2.186   5.421
  191CHOL   C10 5520   0.233   2.251   5.560
  191CHOL   C11 5521   0.121   2.264   5.330
  191CHOL   C12 5522   0.109   2.209   5.187
  191CHOL   C13 5523   0.247   2.199   5.118
  191CHOL   C14 5524   0.335   2.113   5.211
  191CHOL   C15 5525   0.462   2.087   5.128
  191CHOL   C16 5526   0.408   2.078   4.984
  191CHOL   C17 5527   0.256   2.110   4.991
  191CHOL   C18 5528   0.302   2.341   5.092
  191CHOL   C19 5529   0.281   2.397   5.545
  191CHOL   C20 5530   0.203   2.166   4.857
  191CHOL   C21 5531   0.050   2.177   4.855
  191CHOL   C22 5532   0.245   2.078   4.739
  191CHOL   C23 5533   0.223   2.146   4.603
  191CHOL   C24 5534   0.271   2.059   4.486
  191CHOL   C25 5535   0.181   1.938   4.459
  191CHOL   C26 5536   0.252   1.846   4.359
  191CHOL   C27 5537   0.050   1.985   4.395
  191CHOL   O28 5538   0.211   2.228   5.988
  191CHOL   H29 5539   0.118   2.250   6.026
  192CHOL    C1 5540   0.647   2.485   5.656
  192CHOL    C2 5541   0.611   2.523   5.801
  192CHOL    C3 5542   0.735   2.521   5.891
  192CHOL    C4 5543   0.843   2.616   5.835
  192CHOL    C5 5544   0.874   2.592   5.688
  192CHOL    C6 5545   0.999   2.600   5.642
  192CHOL    C7 5546   1.040   2.587   5.497
  192CHOL    C8 5547   0.919   2.605   5.405
  192CHOL    C9 5548   0.799   2.524   5.461
  192CHOL   C10 5549   0.752   2.580   5.597
  192CHOL   C11 5550   0.685   2.520   5.357
  192CHOL   C12 5551   0.726   2.477   5.215
  192CHOL   C13 5552   0.845   2.560   5.161
  192CHOL   C14 5553   0.956   2.549   5.267
  192CHOL   C15 5554   1.080   2.610   5.201
  192CHOL   C16 5555   1.061   2.574   5.051
  192CHOL   C17 5556   0.923   2.502   5.041
  192CHOL   C18 5557   0.799   2.705   5.135
  192CHOL   C19 5558   0.690   2.719   5.577
  192CHOL   C20 5559   0.867   2.512   4.897
  192CHOL   C21 5560   0.735   2.435   4.879
  192CHOL   C22 5561   0.969   2.452   4.798
  192CHOL   C23 5562   0.939   2.472   4.649
  192CHOL   C24 5563   0.962   2.617   4.603
  192CHOL   C25 5564   0.953   2.630   4.451
  192CHOL   C26 5565   0.809   2.611   4.401
  192CHOL   C27 5566   1.005   2.767   4.408
  192CHOL   O28 5567   0.699   2.565   6.023
  192CHOL   H29 5568   0.612   2.515   6.050
  193CHOL    C1 5569   5.917   3.468   5.807
  193CHOL    C2 5570   5.897   3.408   5.947
  193CHOL    C3 5571   5.987   3.481   6.046
  193CHOL    C4 5572   5.949   3.630   6.052
  193CHOL    C5 5573   5.956   3.695   5.914
  193CHOL    C6 5574   6.010   3.817   5.896
  193CHOL    C7 5575   6.016   3.892   5.765
  193CHOL    C8 5576   5.928   3.826   5.658
  193CHOL    C9 5577   5.940   3.672   5.668
  193CHOL   C10 5578   5.887   3.619   5.802
  193CHOL   C11 5579   5.871   3.605   5.548
  193CHOL   C12 5580   5.919   3.656   5.411
  193CHOL   C13 5581   5.906   3.809   5.400
  193CHOL   C14 5582   5.982   3.867   5.520
  193CHOL   C15 5583   5.988   4.018   5.492
  193CHOL   C16 5584   6.000   4.024   5.338
  193CHOL   C17 5585   5.989   3.877   5.287
  193CHOL   C18 5586   5.757   3.848   5.393
  193CHOL   C19 5587   5.735   3.641   5.813
  193CHOL   C20 5588   5.941   3.873   5.140
  193CHOL   C21 5589   5.932   3.731   5.083
  193CHOL   C22 5590   6.038   3.954   5.051
  193CHOL   C23 5591   5.990   3.972   4.907
  193CHOL   C24 5592   6.095   4.046   4.824
  193CHOL   C25 5593   6.055   4.062   4.677
  193CHOL   C26 5594   6.174   4.117   4.598
  193CHOL   C27 5595   5.938   4.160   4.663
  193CHOL   O28 5596   5.979   3.420   6.175
  193CHOL   H29 5597   5.980   3.318   6.163
  194CHOL    C1 5598   6.843   8.577   5.899
  194CHOL    C2 5599   6.832   8.538   6.047
  194CHOL    C3 5600   6.746   8.642   6.119
  194CHOL    C4 5601   6.605   8.639   6.060
  194CHOL    C5 5602   6.610   8.679   5.914
  194CHOL    C6 5603   6.531   8.775   5.863
  194CHOL    C7 5604   6.528   8.816   5.718
  194CHOL    C8 5605   6.595   8.709   5.631
  194CHOL    C9 5606   6.729   8.669   5.695
  194CHOL   C10 5607   6.707   8.596   5.830
  194CHOL   C11 5608   6.812   8.585   5.596
  194CHOL   C12 5609   6.822   8.637   5.451
  194CHOL   C13 5610   6.683   8.667   5.393
  194CHOL   C14 5611   6.617   8.766   5.490
  194CHOL   C15 5612   6.491   8.815   5.417
  194CHOL   C16 5613   6.534   8.813   5.268
  194CHOL   C17 5614   6.677   8.754   5.264
  194CHOL   C18 5615   6.603   8.536   5.375
  194CHOL   C19 5616   6.643   8.458   5.805
  194CHOL   C20 5617   6.703   8.684   5.128
  194CHOL   C21 5618   6.845   8.628   5.110
  194CHOL   C22 5619   6.672   8.773   5.006
  194CHOL   C23 5620   6.763   8.896   4.988
  194CHOL   C24 5621   6.722   8.979   4.865
  194CHOL   C25 5622   6.741   8.905   4.732
  194CHOL   C26 5623   6.890   8.891   4.698
  194CHOL   C27 5624   6.670   8.981   4.620
  194CHOL   O28 5625   6.742   8.623   6.262
  194CHOL   H29 5626   6.726   8.523   6.285
  195CHOL    C1 5627   7.297   7.749   5.878
  195CHOL    C2 5628   7.317   7.808   6.018
  195CHOL    C3 5629   7.463   7.792   6.064
  195CHOL    C4 5630   7.559   7.855   5.963
  195CHOL    C5 5631   7.535   7.810   5.820
  195CHOL    C6 5632   7.637   7.785   5.736
  195CHOL    C7 5633   7.624   7.752   5.589
  195CHOL    C8 5634   7.484   7.791   5.540
  195CHOL    C9 5635   7.378   7.740   5.639
  195CHOL   C10 5636   7.390   7.815   5.774
  195CHOL   C11 5637   7.237   7.754   5.578
  195CHOL   C12 5638   7.220   7.698   5.435
  195CHOL   C13 5639   7.326   7.753   5.339
  195CHOL   C14 5640   7.462   7.724   5.403
  195CHOL   C15 5641   7.565   7.759   5.293
  195CHOL   C16 5642   7.491   7.719   5.163
  195CHOL   C17 5643   7.347   7.676   5.206
  195CHOL   C18 5644   7.299   7.903   5.313
  195CHOL   C19 5645   7.348   7.962   5.756
  195CHOL   C20 5646   7.249   7.691   5.087
  195CHOL   C21 5647   7.105   7.651   5.122
  195CHOL   C22 5648   7.297   7.604   4.971
  195CHOL   C23 5649   7.215   7.616   4.842
  195CHOL   C24 5650   7.274   7.523   4.735
  195CHOL   C25 5651   7.193   7.520   4.605
  195CHOL   C26 5652   7.255   7.417   4.512
  195CHOL   C27 5653   7.197   7.657   4.535
  195CHOL   O28 5654   7.479   7.860   6.190
  195CHOL   H29 5655   7.458   7.961   6.176
  196CHOL    C1 5656   7.820   3.893   5.635
  196CHOL    C2 5657   7.890   3.878   5.771
  196CHOL    C3 5658   7.828   3.764   5.854
  196CHOL    C4 5659   7.832   3.632   5.775
  196CHOL    C5 5660   7.779   3.643   5.633
  196CHOL    C6 5661   7.708   3.544   5.576
  196CHOL    C7 5662   7.663   3.541   5.431
  196CHOL    C8 5663   7.747   3.640   5.350
  196CHOL    C9 5664   7.749   3.775   5.424
  196CHOL   C10 5665   7.831   3.763   5.554
  196CHOL   C11 5666   7.804   3.886   5.331
  196CHOL   C12 5667   7.755   3.888   5.185
  196CHOL   C13 5668   7.772   3.750   5.119
  196CHOL   C14 5669   7.693   3.651   5.206
  196CHOL   C15 5670   7.691   3.521   5.125
  196CHOL   C16 5671   7.689   3.571   4.979
  196CHOL   C17 5672   7.699   3.726   4.984
  196CHOL   C18 5673   7.922   3.717   5.107
  196CHOL   C19 5674   7.979   3.738   5.518
  196CHOL   C20 5675   7.770   3.783   4.858
  196CHOL   C21 5676   7.746   3.934   4.844
  196CHOL   C22 5677   7.722   3.716   4.728
  196CHOL   C23 5678   7.814   3.745   4.609
  196CHOL   C24 5679   7.764   3.675   4.483
  196CHOL   C25 5680   7.853   3.701   4.361
  196CHOL   C26 5681   7.804   3.615   4.244
  196CHOL   C27 5682   7.846   3.848   4.320
  196CHOL   O28 5683   7.901   3.748   5.976
  196CHOL   H29 5684   7.924   3.843   6.013
  197CHOL    C1 5685   6.048   4.404   5.893
  197CHOL    C2 5686   6.018   4.408   6.044
  197CHOL    C3 5687   6.069   4.540   6.104
  197CHOL    C4 5688   5.997   4.657   6.036
  197CHOL    C5 5689   6.018   4.656   5.886
  197CHOL    C6 5690   6.052   4.768   5.821
  197CHOL    C7 5691   6.070   4.780   5.672
  197CHOL    C8 5692   6.010   4.658   5.601
  197CHOL    C9 5693   6.051   4.529   5.675
  197CHOL   C10 5694   5.988   4.524   5.817
  197CHOL   C11 5695   6.014   4.406   5.590
  197CHOL   C12 5696   6.063   4.409   5.444
  197CHOL   C13 5697   6.019   4.538   5.372
  197CHOL   C14 5698   6.069   4.655   5.459
  197CHOL   C15 5699   6.046   4.780   5.373
  197CHOL   C16 5700   6.068   4.728   5.229
  197CHOL   C17 5701   6.093   4.575   5.241
  197CHOL   C18 5702   5.866   4.539   5.353
  197CHOL   C19 5703   5.836   4.505   5.807
  197CHOL   C20 5704   6.055   4.502   5.110
  197CHOL   C21 5705   6.095   4.353   5.111
  197CHOL   C22 5706   6.123   4.569   4.989
  197CHOL   C23 5707   6.077   4.514   4.853
  197CHOL   C24 5708   6.148   4.588   4.740
  197CHOL   C25 5709   6.113   4.533   4.601
  197CHOL   C26 5710   5.966   4.558   4.567
  197CHOL   C27 5711   6.202   4.601   4.496
  197CHOL   O28 5712   6.046   4.545   6.245
  197CHOL   H29 5713   5.945   4.539   6.265
  198CHOL    C1 5714   7.373   5.139   5.477
  198CHOL    C2 5715   7.425   5.080   5.608
  198CHOL    C3 5716   7.350   4.950   5.641
  198CHOL    C4 5717   7.360   4.848   5.527
  198CHOL    C5 5718   7.327   4.906   5.391
  198CHOL    C6 5719   7.262   4.833   5.298
  198CHOL    C7 5720   7.235   4.877   5.156
  198CHOL    C8 5721   7.325   4.996   5.119
  198CHOL    C9 5722   7.323   5.099   5.234
  198CHOL   C10 5723   7.390   5.041   5.360
  198CHOL   C11 5724   7.392   5.229   5.189
  198CHOL   C12 5725   7.345   5.287   5.054
  198CHOL   C13 5726   7.351   5.182   4.942
  198CHOL   C14 5727   7.270   5.061   4.991
  198CHOL   C15 5728   7.259   4.970   4.867
  198CHOL   C16 5729   7.256   5.071   4.750
  198CHOL   C17 5730   7.268   5.212   4.814
  198CHOL   C18 5731   7.498   5.152   4.909
  198CHOL   C19 5732   7.540   5.020   5.333
  198CHOL   C20 5733   7.324   5.318   4.716
  198CHOL   C21 5734   7.301   5.460   4.767
  198CHOL   C22 5735   7.259   5.308   4.577
  198CHOL   C23 5736   7.337   5.386   4.470
  198CHOL   C24 5737   7.470   5.317   4.438
  198CHOL   C25 5738   7.561   5.401   4.347
  198CHOL   C26 5739   7.495   5.428   4.211
  198CHOL   C27 5740   7.692   5.326   4.326
  198CHOL   O28 5741   7.405   4.893   5.760
  198CHOL   H29 5742   7.338   4.825   5.799
  199CHOL    C1 5743   6.925   4.545   5.727
  199CHOL    C2 5744   6.960   4.517   5.874
  199CHOL    C3 5745   6.886   4.393   5.926
  199CHOL    C4 5746   6.915   4.271   5.837
  199CHOL    C5 5747   6.896   4.298   5.689
  199CHOL    C6 5748   6.841   4.205   5.609
  199CHOL    C7 5749   6.827   4.216   5.459
  199CHOL    C8 5750   6.921   4.325   5.407
  199CHOL    C9 5751   6.906   4.451   5.494
  199CHOL   C10 5752   6.960   4.426   5.636
  199CHOL   C11 5753   6.974   4.571   5.424
  199CHOL   C12 5754   6.944   4.591   5.273
  199CHOL   C13 5755   6.971   4.461   5.194
  199CHOL   C14 5756   6.884   4.353   5.260
  199CHOL   C15 5757   6.893   4.232   5.166
  199CHOL   C16 5758   6.906   4.298   5.027
  199CHOL   C17 5759   6.912   4.452   5.050
  199CHOL   C18 5760   7.122   4.430   5.194
  199CHOL   C19 5761   7.113   4.408   5.632
  199CHOL   C20 5762   6.990   4.523   4.937
  199CHOL   C21 5763   6.965   4.675   4.940
  199CHOL   C22 5764   6.952   4.469   4.798
  199CHOL   C23 5765   7.039   4.524   4.685
  199CHOL   C24 5766   7.009   4.452   4.553
  199CHOL   C25 5767   7.090   4.509   4.437
  199CHOL   C26 5768   7.078   4.415   4.317
  199CHOL   C27 5769   7.033   4.646   4.396
  199CHOL   O28 5770   6.930   4.363   6.060
  199CHOL   H29 5771   7.024   4.318   6.055
  200CHOL    C1 5772   7.881   5.571   5.530
  200CHOL    C2 5773   7.876   5.495   5.663
  200CHOL    C3 5774   7.739   5.507   5.730
  200CHOL    C4 5775   7.628   5.460   5.634
  200CHOL    C5 5776   7.636   5.522   5.495
  200CHOL    C6 5777   7.525   5.557   5.427
  200CHOL    C7 5778   7.524   5.608   5.285
  200CHOL    C8 5779   7.656   5.575   5.215
  200CHOL    C9 5780   7.774   5.613   5.309
  200CHOL   C10 5781   7.774   5.520   5.432
  200CHOL   C11 5782   7.908   5.607   5.232
  200CHOL   C12 5783   7.914   5.677   5.095
  200CHOL   C13 5784   7.797   5.631   5.007
  200CHOL   C14 5785   7.667   5.656   5.085
  200CHOL   C15 5786   7.555   5.636   4.981
  200CHOL   C16 5787   7.620   5.686   4.850
  200CHOL   C17 5788   7.766   5.723   4.887
  200CHOL   C18 5789   7.817   5.483   4.966
  200CHOL   C19 5790   7.808   5.377   5.388
  200CHOL   C20 5791   7.866   5.737   4.771
  200CHOL   C21 5792   7.857   5.882   4.720
  200CHOL   C22 5793   7.836   5.643   4.653
  200CHOL   C23 5794   7.942   5.643   4.542
  200CHOL   C24 5795   8.076   5.584   4.588
  200CHOL   C25 5796   8.183   5.577   4.477
  200CHOL   C26 5797   8.138   5.488   4.361
  200CHOL   C27 5798   8.221   5.717   4.426
  200CHOL   O28 5799   7.739   5.425   5.847
  200CHOL   H29 5800   7.819   5.452   5.906
  201CHOL    C1 5801   8.178   8.320   5.771
  201CHOL    C2 5802   8.187   8.331   5.924
  201CHOL    C3 5803   8.058   8.283   5.991
  201CHOL    C4 5804   8.037   8.136   5.954
  201CHOL    C5 5805   8.024   8.120   5.804
  201CHOL    C6 5806   7.920   8.056   5.748
  201CHOL    C7 5807   7.902   8.034   5.600
  201CHOL    C8 5808   8.033   8.058   5.525
  201CHOL    C9 5809   8.101   8.187   5.575
  201CHOL   C10 5810   8.141   8.178   5.724
  201CHOL   C11 5811   8.220   8.222   5.483
  201CHOL   C12 5812   8.189   8.226   5.332
  201CHOL   C13 5813   8.118   8.097   5.284
  201CHOL   C14 5814   7.997   8.080   5.378
  201CHOL   C15 5815   7.912   7.970   5.312
  201CHOL   C16 5816   7.936   7.993   5.161
  201CHOL   C17 5817   8.043   8.105   5.149
  201CHOL   C18 5818   8.216   7.978   5.288
  201CHOL   C19 5819   8.263   8.085   5.741
  201CHOL   C20 5820   8.121   8.090   5.016
  201CHOL   C21 5821   8.224   8.202   4.994
  201CHOL   C22 5822   8.023   8.089   4.897
  201CHOL   C23 5823   8.088   8.052   4.763
  201CHOL   C24 5824   7.984   8.050   4.651
  201CHOL   C25 5825   8.039   8.013   4.512
  201CHOL   C26 5826   8.102   7.873   4.510
  201CHOL   C27 5827   8.138   8.118   4.461
  201CHOL   O28 5828   8.064   8.299   6.133
  201CHOL   H29 5829   8.161   8.283   6.166
  202CHOL    C1 5830   9.139   3.226   5.461
  202CHOL    C2 5831   9.160   3.261   5.609
  202CHOL    C3 5832   9.100   3.149   5.695
  202CHOL    C4 5833   9.173   3.017   5.666
  202CHOL    C5 5834   9.168   2.980   5.518
  202CHOL    C6 5835   9.149   2.853   5.477
  202CHOL    C7 5836   9.152   2.807   5.333
  202CHOL    C8 5837   9.211   2.915   5.241
  202CHOL    C9 5838   9.156   3.054   5.282
  202CHOL   C10 5839   9.205   3.093   5.423
  202CHOL   C11 5840   9.194   3.161   5.177
  202CHOL   C12 5841   9.153   3.127   5.033
  202CHOL   C13 5842   9.209   2.990   4.992
  202CHOL   C14 5843   9.163   2.887   5.097
  202CHOL   C15 5844   9.200   2.752   5.034
  202CHOL   C16 5845   9.175   2.775   4.883
  202CHOL   C17 5846   9.137   2.925   4.872
  202CHOL   C18 5847   9.362   2.998   4.975
  202CHOL   C19 5848   9.358   3.109   5.424
  202CHOL   C20 5849   9.143   2.991   4.733
  202CHOL   C21 5850   9.007   2.970   4.666
  202CHOL   C22 5851   9.251   2.929   4.641
  202CHOL   C23 5852   9.267   3.004   4.508
  202CHOL   C24 5853   9.361   2.928   4.415
  202CHOL   C25 5854   9.375   2.996   4.278
  202CHOL   C26 5855   9.446   2.899   4.183
  202CHOL   C27 5856   9.460   3.123   4.290
  202CHOL   O28 5857   9.109   3.184   5.834
  202CHOL   H29 5858   9.206   3.178   5.865
  203CHOL    C1 5859   4.209   8.810   5.856
  203CHOL    C2 5860   4.187   8.783   6.006
  203CHOL    C3 5861   4.092   8.664   6.022
  203CHOL    C4 5862   4.155   8.539   5.959
  203CHOL    C5 5863   4.191   8.560   5.813
  203CHOL    C6 5864   4.169   8.464   5.722
  203CHOL    C7 5865   4.204   8.472   5.576
  203CHOL    C8 5866   4.296   8.591   5.547
  203CHOL    C9 5867   4.252   8.714   5.629
  203CHOL   C10 5868   4.266   8.688   5.781
  203CHOL   C11 5869   4.329   8.840   5.584
  203CHOL   C12 5870   4.319   8.868   5.433
  203CHOL   C13 5871   4.362   8.746   5.350
  203CHOL   C14 5872   4.277   8.627   5.399
  203CHOL   C15 5873   4.306   8.515   5.298
  203CHOL   C16 5874   4.330   8.593   5.166
  203CHOL   C17 5875   4.320   8.744   5.200
  203CHOL   C18 5876   4.514   8.724   5.366
  203CHOL   C19 5877   4.415   8.671   5.818
  203CHOL   C20 5878   4.401   8.832   5.102
  203CHOL   C21 5879   4.360   8.979   5.112
  203CHOL   C22 5880   4.385   8.787   4.956
  203CHOL   C23 5881   4.483   8.856   4.860
  203CHOL   C24 5882   4.471   8.804   4.716
  203CHOL   C25 5883   4.339   8.839   4.647
  203CHOL   C26 5884   4.328   8.989   4.621
  203CHOL   C27 5885   4.330   8.764   4.514
  203CHOL   O28 5886   4.063   8.640   6.161
  203CHOL   H29 5887   4.137   8.580   6.200
  204CHOL    C1 5888   4.972   3.921   5.866
  204CHOL    C2 5889   4.979   3.924   6.019
  204CHOL    C3 5890   5.083   3.823   6.069
  204CHOL    C4 5891   5.221   3.852   6.008
  204CHOL    C5 5892   5.219   3.866   5.856
  204CHOL    C6 5893   5.318   3.819   5.779
  204CHOL    C7 5894   5.329   3.837   5.629
  204CHOL    C8 5895   5.235   3.947   5.581
  204CHOL    C9 5896   5.097   3.930   5.649
  204CHOL   C10 5897   5.107   3.954   5.801
  204CHOL   C11 5898   4.992   4.022   5.583
  204CHOL   C12 5899   4.987   4.022   5.429
  204CHOL   C13 5900   5.127   4.048   5.370
  204CHOL   C14 5901   5.219   3.939   5.428
  204CHOL   C15 5902   5.349   3.951   5.345
  204CHOL   C16 5903   5.299   4.001   5.207
  204CHOL   C17 5904   5.145   4.018   5.218
  204CHOL   C18 5905   5.172   4.192   5.404
  204CHOL   C19 5906   5.142   4.102   5.829
  204CHOL   C20 5907   5.089   4.129   5.125
  204CHOL   C21 5908   4.938   4.115   5.104
  204CHOL   C22 5909   5.158   4.145   4.988
  204CHOL   C23 5910   5.117   4.045   4.878
  204CHOL   C24 5911   5.171   4.093   4.743
  204CHOL   C25 5912   5.113   4.017   4.623
  204CHOL   C26 5913   5.161   3.872   4.620
  204CHOL   C27 5914   5.153   4.088   4.494
  204CHOL   O28 5915   5.091   3.832   6.212
  204CHOL   H29 5916   4.998   3.813   6.252
  205CHOL    C1 5917   7.763   4.267   5.808
  205CHOL    C2 5918   7.762   4.262   5.961
  205CHOL    C3 5919   7.846   4.375   6.021
  205CHOL    C4 5920   7.792   4.511   5.973
  205CHOL    C5 5921   7.785   4.519   5.821
  205CHOL    C6 5922   7.826   4.628   5.755
  205CHOL    C7 5923   7.814   4.648   5.606
  205CHOL    C8 5924   7.713   4.549   5.548
  205CHOL    C9 5925   7.742   4.407   5.603
  205CHOL   C10 5926   7.713   4.402   5.754
  205CHOL   C11 5927   7.663   4.302   5.522
  205CHOL   C12 5928   7.670   4.312   5.369
  205CHOL   C13 5929   7.634   4.454   5.322
  205CHOL   C14 5930   7.729   4.549   5.396
  205CHOL   C15 5931   7.707   4.686   5.329
  205CHOL   C16 5932   7.674   4.648   5.183
  205CHOL   C17 5933   7.672   4.493   5.176
  205CHOL   C18 5934   7.484   4.481   5.349
  205CHOL   C19 5935   7.561   4.415   5.780
  205CHOL   C20 5936   7.579   4.438   5.066
  205CHOL   C21 5937   7.631   4.302   5.017
  205CHOL   C22 5938   7.567   4.533   4.946
  205CHOL   C23 5939   7.445   4.505   4.857
  205CHOL   C24 5940   7.419   4.624   4.763
  205CHOL   C25 5941   7.529   4.646   4.659
  205CHOL   C26 5942   7.513   4.550   4.541
  205CHOL   C27 5943   7.526   4.792   4.611
  205CHOL   O28 5944   7.838   4.370   6.164
  205CHOL   H29 5945   7.737   4.378   6.191
  206CHOL    C1 5946   9.343   4.364   5.663
  206CHOL    C2 5947   9.333   4.349   5.816
  206CHOL    C3 5948   9.293   4.482   5.880
  206CHOL    C4 5949   9.160   4.532   5.823
  206CHOL    C5 5950   9.156   4.536   5.671
  206CHOL    C6 5951   9.095   4.635   5.603
  206CHOL    C7 5952   9.078   4.641   5.453
  206CHOL    C8 5953   9.110   4.506   5.389
  206CHOL    C9 5954   9.237   4.447   5.454
  206CHOL   C10 5955   9.211   4.411   5.601
  206CHOL   C11 5956   9.290   4.327   5.374
  206CHOL   C12 5957   9.305   4.347   5.222
  206CHOL   C13 5958   9.172   4.398   5.163
  206CHOL   C14 5959   9.134   4.526   5.238
  206CHOL   C15 5960   9.019   4.585   5.156
  206CHOL   C16 5961   9.056   4.549   5.010
  206CHOL   C17 5962   9.184   4.461   5.022
  206CHOL   C18 5963   9.065   4.287   5.172
  206CHOL   C19 5964   9.107   4.298   5.611
  206CHOL   C20 5965   9.220   4.374   4.900
  206CHOL   C21 5966   9.296   4.463   4.800
  206CHOL   C22 5967   9.097   4.316   4.828
  206CHOL   C23 5968   9.132   4.213   4.720
  206CHOL   C24 5969   9.005   4.153   4.660
  206CHOL   C25 5970   9.033   4.054   4.546
  206CHOL   C26 5971   8.903   3.982   4.510
  206CHOL   C27 5972   9.082   4.129   4.422
  206CHOL   O28 5973   9.282   4.463   6.021
  206CHOL   H29 5974   9.209   4.392   6.040
  207CHOL    C1 5975   8.697   3.937   5.592
  207CHOL    C2 5976   8.708   3.938   5.745
  207CHOL    C3 5977   8.573   3.973   5.809
  207CHOL    C4 5978   8.467   3.871   5.764
  207CHOL    C5 5979   8.458   3.858   5.613
  207CHOL    C6 5980   8.339   3.848   5.550
  207CHOL    C7 5981   8.320   3.826   5.402
  207CHOL    C8 5982   8.450   3.780   5.336
  207CHOL    C9 5983   8.568   3.865   5.390
  207CHOL   C10 5984   8.591   3.839   5.541
  207CHOL   C11 5985   8.695   3.838   5.306
  207CHOL   C12 5986   8.676   3.852   5.154
  207CHOL   C13 5987   8.560   3.766   5.102
  207CHOL   C14 5988   8.436   3.804   5.185
  207CHOL   C15 5989   8.319   3.733   5.115
  207CHOL   C16 5990   8.362   3.735   4.966
  207CHOL   C17 5991   8.503   3.800   4.961
  207CHOL   C18 5992   8.598   3.616   5.112
  207CHOL   C19 5993   8.638   3.694   5.563
  207CHOL   C20 5994   8.582   3.756   4.836
  207CHOL   C21 5995   8.711   3.838   4.817
  207CHOL   C22 5996   8.497   3.772   4.709
  207CHOL   C23 5997   8.561   3.718   4.581
  207CHOL   C24 5998   8.465   3.733   4.462
  207CHOL   C25 5999   8.523   3.690   4.327
  207CHOL   C26 6000   8.570   3.544   4.326
  207CHOL   C27 6001   8.635   3.783   4.280
  207CHOL   O28 6002   8.586   3.969   5.952
  207CHOL   H29 6003   8.496   3.989   5.996
  208CHOL    C1 6004   5.190   5.033   5.743
  208CHOL    C2 6005   5.161   5.020   5.893
  208CHOL    C3 6006   5.259   5.106   5.972
  208CHOL    C4 6007   5.246   5.254   5.931
  208CHOL    C5 6008   5.260   5.274   5.781
  208CHOL    C6 6009   5.325   5.380   5.730
  208CHOL    C7 6010   5.337   5.413   5.582
  208CHOL    C8 6011   5.238   5.331   5.500
  208CHOL    C9 6012   5.234   5.185   5.551
  208CHOL   C10 6013   5.179   5.178   5.695
  208CHOL   C11 6014   5.154   5.095   5.456
  208CHOL   C12 6015   5.194   5.102   5.307
  208CHOL   C13 6016   5.196   5.248   5.259
  208CHOL   C14 6017   5.286   5.328   5.354
  208CHOL   C15 6018   5.306   5.463   5.282
  208CHOL   C16 6019   5.306   5.423   5.132
  208CHOL   C17 6020   5.277   5.271   5.131
  208CHOL   C18 6021   5.052   5.302   5.251
  208CHOL   C19 6022   5.031   5.223   5.697
  208CHOL   C20 6023   5.230   5.208   4.998
  208CHOL   C21 6024   5.354   5.168   4.918
  208CHOL   C22 6025   5.146   5.303   4.911
  208CHOL   C23 6026   5.080   5.231   4.793
  208CHOL   C24 6027   5.008   5.331   4.702
  208CHOL   C25 6028   4.942   5.264   4.581
  208CHOL   C26 6029   5.045   5.199   4.489
  208CHOL   C27 6030   4.864   5.370   4.502
  208CHOL   O28 6031   5.234   5.092   6.113
  208CHOL   H29 6032   5.235   4.991   6.135
  209CHOL    C1 6033   5.781   5.838   5.603
  209CHOL    C2 6034   5.775   5.827   5.757
  209CHOL    C3 6035   5.737   5.963   5.818
  209CHOL    C4 6036   5.601   6.008   5.764
  209CHOL    C5 6037   5.595   6.009   5.611
  209CHOL    C6 6038   5.534   6.109   5.545
  209CHOL    C7 6039   5.515   6.116   5.395
  209CHOL    C8 6040   5.543   5.980   5.330
  209CHOL    C9 6041   5.670   5.918   5.393
  209CHOL   C10 6042   5.648   5.884   5.542
  209CHOL   C11 6043   5.716   5.797   5.310
  209CHOL   C12 6044   5.729   5.821   5.158
  209CHOL   C13 6045   5.599   5.879   5.099
  209CHOL   C14 6046   5.567   6.005   5.180
  209CHOL   C15 6047   5.452   6.072   5.104
  209CHOL   C16 6048   5.483   6.037   4.956
  209CHOL   C17 6049   5.608   5.944   4.958
  209CHOL   C18 6050   5.489   5.771   5.103
  209CHOL   C19 6051   5.544   5.771   5.556
  209CHOL   C20 6052   5.611   5.850   4.834
  209CHOL   C21 6053   5.748   5.783   4.818
  209CHOL   C22 6054   5.580   5.926   4.704
  209CHOL   C23 6055   5.556   5.833   4.585
  209CHOL   C24 6056   5.515   5.913   4.460
  209CHOL   C25 6057   5.485   5.823   4.340
  209CHOL   C26 6058   5.422   5.908   4.229
  209CHOL   C27 6059   5.613   5.761   4.285
  209CHOL   O28 6060   5.733   5.953   5.961
  209CHOL   H29 6061   5.647   5.899   5.989
  210CHOL    C1 6062   7.198   6.484   5.882
  210CHOL    C2 6063   7.216   6.483   6.034
  210CHOL    C3 6064   7.079   6.470   6.104
  210CHOL    C4 6065   7.018   6.336   6.063
  210CHOL    C5 6066   6.994   6.335   5.913
  210CHOL    C6 6067   6.873   6.308   5.862
  210CHOL    C7 6068   6.841   6.302   5.715
  210CHOL    C8 6069   6.969   6.295   5.632
  210CHOL    C9 6070   7.070   6.399   5.685
  210CHOL   C10 6071   7.118   6.364   5.828
  210CHOL   C11 6072   7.186   6.416   5.585
  210CHOL   C12 6073   7.143   6.442   5.439
  210CHOL   C13 6074   7.046   6.334   5.388
  210CHOL   C14 6075   6.930   6.332   5.489
  210CHOL   C15 6076   6.824   6.241   5.425
  210CHOL   C16 6077   6.842   6.269   5.274
  210CHOL   C17 6078   6.963   6.365   5.260
  210CHOL   C18 6079   7.121   6.199   5.376
  210CHOL   C19 6080   7.208   6.239   5.826
  210CHOL   C20 6081   7.030   6.348   5.121
  210CHOL   C21 6082   7.138   6.455   5.096
  210CHOL   C22 6083   6.926   6.357   5.009
  210CHOL   C23 6084   6.979   6.317   4.871
  210CHOL   C24 6085   6.866   6.321   4.768
  210CHOL   C25 6086   6.913   6.287   4.626
  210CHOL   C26 6087   6.959   6.141   4.616
  210CHOL   C27 6088   6.798   6.311   4.527
  210CHOL   O28 6089   7.094   6.479   6.247
  210CHOL   H29 6090   7.109   6.580   6.269
  211CHOL    C1 6091   7.007   5.848   5.660
  211CHOL    C2 6092   7.046   5.859   5.808
  211CHOL    C3 6093   7.035   5.722   5.877
  211CHOL    C4 6094   7.129   5.623   5.807
  211CHOL    C5 6095   7.096   5.610   5.659
  211CHOL    C6 6096   7.082   5.490   5.600
  211CHOL    C7 6097   7.055   5.469   5.453
  211CHOL    C8 6098   7.082   5.597   5.374
  211CHOL    C9 6099   7.022   5.719   5.447
  211CHOL   C10 6100   7.090   5.743   5.584
  211CHOL   C11 6101   7.028   5.843   5.356
  211CHOL   C12 6102   6.972   5.827   5.214
  211CHOL   C13 6103   7.030   5.703   5.144
  211CHOL   C14 6104   7.007   5.585   5.240
  211CHOL   C15 6105   7.037   5.460   5.157
  211CHOL   C16 6106   6.995   5.501   5.014
  211CHOL   C17 6107   6.952   5.650   5.020
  211CHOL   C18 6108   7.179   5.726   5.110
  211CHOL   C19 6109   7.234   5.795   5.564
  211CHOL   C20 6110   6.974   5.721   4.884
  211CHOL   C21 6111   6.909   5.860   4.880
  211CHOL   C22 6112   6.918   5.637   4.768
  211CHOL   C23 6113   6.952   5.689   4.629
  211CHOL   C24 6114   6.896   5.594   4.522
  211CHOL   C25 6115   6.917   5.645   4.379
  211CHOL   C26 6116   7.066   5.648   4.341
  211CHOL   C27 6117   6.841   5.555   4.282
  211CHOL   O28 6118   7.069   5.735   6.016
  211CHOL   H29 6119   6.991   5.784   6.064
  212CHOL    C1 6120   7.684   6.850   5.790
  212CHOL    C2 6121   7.688   6.845   5.943
  212CHOL    C3 6122   7.573   6.927   6.002
  212CHOL    C4 6123   7.439   6.871   5.953
  212CHOL    C5 6124   7.432   6.865   5.802
  212CHOL    C6 6125   7.322   6.904   5.736
  212CHOL    C7 6126   7.302   6.895   5.586
  212CHOL    C8 6127   7.406   6.802   5.524
  212CHOL    C9 6128   7.545   6.834   5.583
  212CHOL   C10 6129   7.551   6.799   5.733
  212CHOL   C11 6130   7.656   6.765   5.501
  212CHOL   C12 6131   7.648   6.785   5.349
  212CHOL   C13 6132   7.509   6.746   5.294
  212CHOL   C14 6133   7.406   6.827   5.373
  212CHOL   C15 6134   7.273   6.802   5.299
  212CHOL   C16 6135   7.318   6.786   5.152
  212CHOL   C17 6136   7.473   6.796   5.152
  212CHOL   C18 6137   7.492   6.593   5.306
  212CHOL   C19 6138   7.543   6.646   5.752
  212CHOL   C20 6139   7.540   6.721   5.034
  212CHOL   C21 6140   7.679   6.780   5.007
  212CHOL   C22 6141   7.457   6.726   4.904
  212CHOL   C23 6142   7.519   6.642   4.793
  212CHOL   C24 6143   7.431   6.633   4.668
  212CHOL   C25 6144   7.308   6.543   4.686
  212CHOL   C26 6145   7.221   6.555   4.561
  212CHOL   C27 6146   7.351   6.397   4.700
  212CHOL   O28 6147   7.577   6.930   6.145
  212CHOL   H29 6148   7.516   7.009   6.173
  213CHOL    C1 6149   5.123   7.224   5.677
  213CHOL    C2 6150   5.128   7.246   5.829
  213CHOL    C3 6151   5.273   7.239   5.880
  213CHOL    C4 6152   5.360   7.343   5.808
  213CHOL    C5 6153   5.350   7.334   5.657
  213CHOL    C6 6154   5.459   7.348   5.581
  213CHOL    C7 6155   5.460   7.352   5.430
  213CHOL    C8 6156   5.319   7.374   5.376
  213CHOL    C9 6157   5.219   7.284   5.453
  213CHOL   C10 6158   5.209   7.326   5.601
  213CHOL   C11 6159   5.082   7.286   5.381
  213CHOL   C12 6160   5.087   7.253   5.231
  213CHOL   C13 6161   5.186   7.344   5.155
  213CHOL   C14 6162   5.320   7.331   5.229
  213CHOL   C15 6163   5.421   7.405   5.139
  213CHOL   C16 6164   5.367   7.375   4.997
  213CHOL   C17 6165   5.235   7.295   5.016
  213CHOL   C18 6166   5.130   7.487   5.149
  213CHOL   C19 6167   5.142   7.465   5.612
  213CHOL   C20 6168   5.146   7.305   4.890
  213CHOL   C21 6169   5.017   7.223   4.902
  213CHOL   C22 6170   5.224   7.250   4.770
  213CHOL   C23 6171   5.162   7.276   4.632
  213CHOL   C24 6172   5.180   7.421   4.586
  213CHOL   C25 6173   5.132   7.440   4.441
  213CHOL   C26 6174   5.178   7.577   4.391
  213CHOL   C27 6175   4.979   7.433   4.433
  213CHOL   O28 6176   5.277   7.267   6.020
  213CHOL   H29 6177   5.374   7.251   6.053
  214CHOL    C1 6178   6.867   7.929   6.048
  214CHOL    C2 6179   6.848   7.934   6.200
  214CHOL    C3 6180   6.970   7.998   6.266
  214CHOL    C4 6181   6.988   8.141   6.213
  214CHOL    C5 6182   6.999   8.145   6.062
  214CHOL    C6 6183   7.089   8.224   6.000
  214CHOL    C7 6184   7.101   8.241   5.851
  214CHOL    C8 6185   6.977   8.186   5.779
  214CHOL    C9 6186   6.936   8.051   5.841
  214CHOL   C10 6187   6.891   8.068   5.987
  214CHOL   C11 6188   6.828   7.983   5.753
  214CHOL   C12 6189   6.862   7.972   5.604
  214CHOL   C13 6190   6.900   8.109   5.544
  214CHOL   C14 6191   7.014   8.164   5.632
  214CHOL   C15 6192   7.067   8.286   5.556
  214CHOL   C16 6193   7.044   8.248   5.408
  214CHOL   C17 6194   6.974   8.109   5.408
  214CHOL   C18 6195   6.776   8.200   5.540
  214CHOL   C19 6196   6.759   8.148   5.994
  214CHOL   C20 6197   6.890   8.088   5.279
  214CHOL   C21 6198   6.845   7.942   5.263
  214CHOL   C22 6199   6.969   8.129   5.154
  214CHOL   C23 6200   6.883   8.137   5.027
  214CHOL   C24 6201   6.965   8.191   4.910
  214CHOL   C25 6202   6.884   8.197   4.780
  214CHOL   C26 6203   6.855   8.056   4.728
  214CHOL   C27 6204   6.961   8.277   4.675
  214CHOL   O28 6205   6.954   8.001   6.408
  214CHOL   H29 6206   6.871   8.058   6.431
  215CHOL    C1 6207   6.962   6.805   5.769
  215CHOL    C2 6208   6.997   6.797   5.918
  215CHOL    C3 6209   7.008   6.937   5.978
  215CHOL    C4 6210   6.873   7.009   5.964
  215CHOL    C5 6211   6.823   7.011   5.820
  215CHOL    C6 6212   6.762   7.119   5.767
  215CHOL    C7 6213   6.702   7.127   5.628
  215CHOL    C8 6214   6.691   6.988   5.563
  215CHOL    C9 6215   6.818   6.906   5.595
  215CHOL   C10 6216   6.829   6.878   5.746
  215CHOL   C11 6217   6.822   6.776   5.512
  215CHOL   C12 6218   6.808   6.799   5.361
  215CHOL   C13 6219   6.680   6.878   5.328
  215CHOL   C14 6220   6.686   7.008   5.410
  215CHOL   C15 6221   6.570   7.094   5.356
  215CHOL   C16 6222   6.565   7.054   5.207
  215CHOL   C17 6223   6.671   6.942   5.187
  215CHOL   C18 6224   6.556   6.791   5.358
  215CHOL   C19 6225   6.713   6.788   5.793
  215CHOL   C20 6226   6.636   6.851   5.066
  215CHOL   C21 6227   6.748   6.751   5.033
  215CHOL   C22 6228   6.608   6.936   4.940
  215CHOL   C23 6229   6.558   6.855   4.820
  215CHOL   C24 6230   6.534   6.945   4.699
  215CHOL   C25 6231   6.492   6.868   4.574
  215CHOL   C26 6232   6.482   6.967   4.457
  215CHOL   C27 6233   6.355   6.803   4.593
  215CHOL   O28 6234   7.045   6.921   6.116
  215CHOL   H29 6235   7.051   7.013   6.162
  216CHOL    C1 6236   9.069   8.211   5.924
  216CHOL    C2 6237   9.150   8.250   6.049
  216CHOL    C3 6238   9.235   8.132   6.098
  216CHOL    C4 6239   9.330   8.089   5.986
  216CHOL    C5 6240   9.256   8.054   5.858
  216CHOL    C6 6241   9.288   7.945   5.787
  216CHOL    C7 6242   9.228   7.908   5.654
  216CHOL    C8 6243   9.154   8.028   5.593
  216CHOL    C9 6244   9.069   8.096   5.701
  216CHOL   C10 6245   9.158   8.160   5.810
  216CHOL   C11 6246   8.972   8.197   5.637
  216CHOL   C12 6247   8.888   8.142   5.520
  216CHOL   C13 6248   8.977   8.079   5.411
  216CHOL   C14 6249   9.064   7.973   5.481
  216CHOL   C15 6250   9.135   7.899   5.367
  216CHOL   C16 6251   9.030   7.905   5.253
  216CHOL   C17 6252   8.909   7.985   5.308
  216CHOL   C18 6253   9.058   8.191   5.341
  216CHOL   C19 6254   9.239   8.277   5.750
  216CHOL   C20 6255   8.824   8.047   5.194
  216CHOL   C21 6256   8.689   8.100   5.246
  216CHOL   C22 6257   8.797   7.943   5.084
  216CHOL   C23 6258   8.718   7.994   4.963
  216CHOL   C24 6259   8.704   7.883   4.859
  216CHOL   C25 6260   8.605   7.918   4.747
  216CHOL   C26 6261   8.462   7.923   4.800
  216CHOL   C27 6262   8.614   7.813   4.636
  216CHOL   O28 6263   9.312   8.170   6.214
  216CHOL   H29 6264   9.378   8.091   6.231
  217CHOL    C1 6265   8.217   5.789   5.609
  217CHOL    C2 6266   8.157   5.783   5.750
  217CHOL    C3 6267   8.223   5.885   5.843
  217CHOL    C4 6268   8.209   6.027   5.784
  217CHOL    C5 6269   8.261   6.036   5.642
  217CHOL    C6 6270   8.339   6.137   5.600
  217CHOL    C7 6271   8.386   6.158   5.458
  217CHOL    C8 6272   8.302   6.074   5.362
  217CHOL    C9 6273   8.289   5.930   5.418
  217CHOL   C10 6274   8.206   5.929   5.548
  217CHOL   C11 6275   8.229   5.836   5.311
  217CHOL   C12 6276   8.291   5.843   5.171
  217CHOL   C13 6277   8.296   5.987   5.118
  217CHOL   C14 6278   8.371   6.069   5.224
  217CHOL   C15 6279   8.399   6.204   5.157
  217CHOL   C16 6280   8.419   6.165   5.008
  217CHOL   C17 6281   8.388   6.013   4.996
  217CHOL   C18 6282   8.152   6.038   5.091
  217CHOL   C19 6283   8.059   5.962   5.517
  217CHOL   C20 6284   8.337   5.979   4.854
  217CHOL   C21 6285   8.313   5.829   4.833
  217CHOL   C22 6286   8.438   6.024   4.748
  217CHOL   C23 6287   8.381   6.032   4.606
  217CHOL   C24 6288   8.283   6.149   4.591
  217CHOL   C25 6289   8.229   6.165   4.448
  217CHOL   C26 6290   8.341   6.198   4.349
  217CHOL   C27 6291   8.128   6.279   4.447
  217CHOL   O28 6292   8.158   5.880   5.971
  217CHOL   H29 6293   8.192   5.959   6.028
  218CHOL    C1 6294   4.829   4.793   5.842
  218CHOL    C2 6295   4.804   4.745   5.985
  218CHOL    C3 6296   4.777   4.863   6.080
  218CHOL    C4 6297   4.657   4.944   6.030
  218CHOL    C5 6298   4.668   4.985   5.884
  218CHOL    C6 6299   4.628   5.106   5.840
  218CHOL    C7 6300   4.625   5.150   5.696
  218CHOL    C8 6301   4.639   5.030   5.602
  218CHOL    C9 6302   4.751   4.938   5.655
  218CHOL   C10 6303   4.709   4.873   5.789
  218CHOL   C11 6304   4.789   4.831   5.550
  218CHOL   C12 6305   4.816   4.885   5.408
  218CHOL   C13 6306   4.697   4.968   5.358
  218CHOL   C14 6307   4.674   5.080   5.461
  218CHOL   C15 6308   4.571   5.173   5.395
  218CHOL   C16 6309   4.605   5.160   5.245
  218CHOL   C17 6310   4.721   5.057   5.233
  218CHOL   C18 6311   4.575   4.876   5.337
  218CHOL   C19 6312   4.589   4.779   5.768
  218CHOL   C20 6313   4.723   4.984   5.097
  218CHOL   C21 6314   4.861   4.922   5.070
  218CHOL   C22 6315   4.688   5.076   4.979
  218CHOL   C23 6316   4.655   4.998   4.852
  218CHOL   C24 6317   4.608   5.093   4.741
  218CHOL   C25 6318   4.570   5.020   4.612
  218CHOL   C26 6319   4.446   4.933   4.633
  218CHOL   C27 6320   4.543   5.122   4.502
  218CHOL   O28 6321   4.748   4.809   6.209
  218CHOL   H29 6322   4.674   4.739   6.198
  219CHOL    C1 6323   4.160   4.599   5.774
  219CHOL    C2 6324   4.139   4.619   5.925
  219CHOL    C3 6325   4.208   4.746   5.973
  219CHOL    C4 6326   4.155   4.867   5.895
  219CHOL    C5 6327   4.168   4.850   5.745
  219CHOL    C6 6328   4.213   4.948   5.666
  219CHOL    C7 6329   4.221   4.942   5.515
  219CHOL    C8 6330   4.137   4.826   5.461
  219CHOL    C9 6331   4.161   4.700   5.546
  219CHOL   C10 6332   4.111   4.719   5.691
  219CHOL   C11 6333   4.096   4.577   5.479
  219CHOL   C12 6334   4.133   4.557   5.331
  219CHOL   C13 6335   4.107   4.683   5.247
  219CHOL   C14 6336   4.182   4.798   5.317
  219CHOL   C15 6337   4.175   4.915   5.217
  219CHOL   C16 6338   4.178   4.844   5.080
  219CHOL   C17 6339   4.177   4.692   5.108
  219CHOL   C18 6340   3.955   4.708   5.235
  219CHOL   C19 6341   3.957   4.725   5.695
  219CHOL   C20 6342   4.121   4.612   4.988
  219CHOL   C21 6343   4.125   4.460   5.009
  219CHOL   C22 6344   4.203   4.643   4.861
  219CHOL   C23 6345   4.144   4.582   4.733
  219CHOL   C24 6346   4.236   4.607   4.614
  219CHOL   C25 6347   4.185   4.544   4.484
  219CHOL   C26 6348   4.294   4.554   4.378
  219CHOL   C27 6349   4.062   4.621   4.433
  219CHOL   O28 6350   4.181   4.764   6.113
  219CHOL   H29 6351   4.079   4.765   6.128
  220CHOL    C1 6352   4.037   6.284   5.791
  220CHOL    C2 6353   4.026   6.307   5.942
  220CHOL    C3 6354   4.157   6.266   6.010
  220CHOL    C4 6355   4.274   6.349   5.955
  220CHOL    C5 6356   4.284   6.341   5.803
  220CHOL    C6 6357   4.403   6.332   5.741
  220CHOL    C7 6358   4.423   6.333   5.591
  220CHOL    C8 6359   4.297   6.381   5.520
  220CHOL    C9 6360   4.174   6.313   5.583
  220CHOL   C10 6361   4.153   6.362   5.728
  220CHOL   C11 6362   4.048   6.337   5.497
  220CHOL   C12 6363   4.064   6.304   5.347
  220CHOL   C13 6364   4.184   6.379   5.287
  220CHOL   C14 6365   4.307   6.341   5.371
  220CHOL   C15 6366   4.426   6.398   5.293
  220CHOL   C16 6367   4.380   6.387   5.145
  220CHOL   C17 6368   4.236   6.329   5.149
  220CHOL   C18 6369   4.154   6.530   5.284
  220CHOL   C19 6370   4.119   6.513   5.729
  220CHOL   C20 6371   4.151   6.367   5.025
  220CHOL   C21 6372   4.031   6.273   5.009
  220CHOL   C22 6373   4.233   6.364   4.895
  220CHOL   C23 6374   4.157   6.423   4.776
  220CHOL   C24 6375   4.246   6.430   4.652
  220CHOL   C25 6376   4.172   6.483   4.529
  220CHOL   C26 6377   4.071   6.381   4.476
  220CHOL   C27 6378   4.274   6.518   4.419
  220CHOL   O28 6379   4.147   6.283   6.152
  220CHOL   H29 6380   4.234   6.248   6.194
  221CHOL    C1 6381   8.116   6.898   5.705
  221CHOL    C2 6382   8.099   6.930   5.854
  221CHOL    C3 6383   8.208   7.028   5.899
  221CHOL    C4 6384   8.199   7.158   5.817
  221CHOL    C5 6385   8.201   7.134   5.667
  221CHOL    C6 6386   8.266   7.216   5.583
  221CHOL    C7 6387   8.266   7.205   5.432
  221CHOL    C8 6388   8.154   7.112   5.384
  221CHOL    C9 6389   8.152   6.987   5.474
  221CHOL   C10 6390   8.108   7.024   5.617
  221CHOL   C11 6391   8.062   6.877   5.412
  221CHOL   C12 6392   8.086   6.847   5.263
  221CHOL   C13 6393   8.078   6.976   5.179
  221CHOL   C14 6394   8.181   7.074   5.238
  221CHOL   C15 6395   8.185   7.189   5.136
  221CHOL   C16 6396   8.156   7.119   5.002
  221CHOL   C17 6397   8.134   6.968   5.034
  221CHOL   C18 6398   7.933   7.029   5.181
  221CHOL   C19 6399   7.963   7.076   5.617
  221CHOL   C20 6400   8.042   6.895   4.934
  221CHOL   C21 6401   8.074   6.744   4.932
  221CHOL   C22 6402   8.052   6.949   4.790
  221CHOL   C23 6403   7.943   6.892   4.698
  221CHOL   C24 6404   7.936   6.966   4.564
  221CHOL   C25 6405   8.061   6.951   4.477
  221CHOL   C26 6406   8.051   7.048   4.359
  221CHOL   C27 6407   8.073   6.809   4.422
  221CHOL   O28 6408   8.192   7.056   6.038
  221CHOL   H29 6409   8.275   7.106   6.072
  222CHOL    C1 6410   0.053   8.238   5.627
  222CHOL    C2 6411   0.138   8.227   5.754
  222CHOL    C3 6412   0.068   8.139   5.857
  222CHOL    C4 6413   0.042   7.999   5.799
  222CHOL    C5 6414  10.126   8.002   5.666
  222CHOL    C6 6415  10.030   7.913   5.636
  222CHOL    C7 6416   9.960   7.903   5.502
  222CHOL    C8 6417  10.037   7.980   5.395
  222CHOL    C9 6418  10.078   8.118   5.452
  222CHOL   C10 6419   0.025   8.101   5.564
  222CHOL   C11 6420  10.129   8.210   5.339
  222CHOL   C12 6421  10.040   8.217   5.213
  222CHOL   C13 6422  10.013   8.077   5.157
  222CHOL   C14 6423   9.948   7.996   5.271
  222CHOL   C15 6424   9.902   7.865   5.203
  222CHOL   C16 6425   9.865   7.912   5.060
  222CHOL   C17 6426   9.899   8.063   5.052
  222CHOL   C18 6427  10.144   8.015   5.103
  222CHOL   C19 6428   0.156   8.044   5.506
  222CHOL   C20 6429   9.930   8.109   4.908
  222CHOL   C21 6430   9.929   8.262   4.896
  222CHOL   C22 6431   9.829   8.053   4.806
  222CHOL   C23 6432   9.876   8.073   4.661
  222CHOL   C24 6433   9.774   8.018   4.561
  222CHOL   C25 6434   9.820   8.036   4.416
  222CHOL   C26 6435   9.943   7.950   4.385
  222CHOL   C27 6436   9.706   7.999   4.321
  222CHOL   O28 6437   0.147   8.126   5.975
  222CHOL   H29 6438   0.232   8.186   5.968
  223CHOL    C1 6439   4.759   6.531   5.774
  223CHOL    C2 6440   4.723   6.533   5.923
  223CHOL    C3 6441   4.820   6.625   5.999
  223CHOL    C4 6442   4.814   6.767   5.942
  223CHOL    C5 6443   4.839   6.771   5.792
  223CHOL    C6 6444   4.918   6.864   5.736
  223CHOL    C7 6445   4.940   6.881   5.588
  223CHOL    C8 6446   4.832   6.805   5.510
  223CHOL    C9 6447   4.816   6.664   5.569
  223CHOL   C10 6448   4.756   6.672   5.712
  223CHOL   C11 6449   4.731   6.575   5.476
  223CHOL   C12 6450   4.769   6.578   5.327
  223CHOL   C13 6451   4.773   6.722   5.273
  223CHOL   C14 6452   4.873   6.797   5.362
  223CHOL   C15 6453   4.895   6.932   5.291
  223CHOL   C16 6454   4.882   6.895   5.141
  223CHOL   C17 6455   4.842   6.745   5.135
  223CHOL   C18 6456   4.631   6.783   5.274
  223CHOL   C19 6457   4.610   6.722   5.705
  223CHOL   C20 6458   4.762   6.714   5.007
  223CHOL   C21 6459   4.730   6.565   4.991
  223CHOL   C22 6460   4.839   6.760   4.882
  223CHOL   C23 6461   4.753   6.761   4.756
  223CHOL   C24 6462   4.834   6.794   4.630
  223CHOL   C25 6463   4.891   6.936   4.626
  223CHOL   C26 6464   4.984   6.948   4.505
  223CHOL   C27 6465   4.778   7.039   4.610
  223CHOL   O28 6466   4.784   6.630   6.138
  223CHOL   H29 6467   4.794   6.535   6.178
  224CHOL    C1 6468   6.337   7.807   5.908
  224CHOL    C2 6469   6.325   7.823   6.060
  224CHOL    C3 6470   6.413   7.940   6.106
  224CHOL    C4 6471   6.368   8.070   6.039
  224CHOL    C5 6472   6.367   8.058   5.888
  224CHOL    C6 6473   6.413   8.158   5.810
  224CHOL    C7 6474   6.412   8.159   5.659
  224CHOL    C8 6475   6.322   8.048   5.604
  224CHOL    C9 6476   6.342   7.918   5.684
  224CHOL   C10 6477   6.298   7.934   5.832
  224CHOL   C11 6478   6.269   7.801   5.615
  224CHOL   C12 6479   6.305   7.782   5.466
  224CHOL   C13 6480   6.286   7.913   5.386
  224CHOL   C14 6481   6.368   8.020   5.460
  224CHOL   C15 6482   6.370   8.141   5.366
  224CHOL   C16 6483   6.369   8.075   5.226
  224CHOL   C17 6484   6.355   7.922   5.248
  224CHOL   C18 6485   6.136   7.947   5.376
  224CHOL   C19 6486   6.146   7.954   5.840
  224CHOL   C20 6487   6.288   7.855   5.125
  224CHOL   C21 6488   6.283   7.702   5.137
  224CHOL   C22 6489   6.363   7.891   4.996
  224CHOL   C23 6490   6.287   7.849   4.869
  224CHOL   C24 6491   6.364   7.882   4.741
  224CHOL   C25 6492   6.381   8.032   4.714
  224CHOL   C26 6493   6.475   8.050   4.595
  224CHOL   C27 6494   6.246   8.096   4.678
  224CHOL   O28 6495   6.409   7.954   6.249
  224CHOL   H29 6496   6.330   8.013   6.277
  225CHOL    C1 6497   6.340   9.497   5.903
  225CHOL    C2 6498   6.334   9.496   6.056
  225CHOL    C3 6499   6.344   9.353   6.111
  225CHOL    C4 6500   6.475   9.289   6.063
  225CHOL    C5 6501   6.492   9.295   5.912
  225CHOL    C6 6502   6.539   9.190   5.842
  225CHOL    C7 6503   6.568   9.190   5.694
  225CHOL    C8 6504   6.573   9.332   5.639
  225CHOL    C9 6505   6.455   9.414   5.696
  225CHOL   C10 6506   6.469   9.432   5.849
  225CHOL   C11 6507   6.444   9.549   5.622
  225CHOL   C12 6508   6.437   9.538   5.469
  225CHOL   C13 6509   6.555   9.457   5.412
  225CHOL   C14 6510   6.554   9.322   5.486
  225CHOL   C15 6511   6.656   9.235   5.411
  225CHOL   C16 6512   6.640   9.283   5.264
  225CHOL   C17 6513   6.539   9.402   5.268
  225CHOL   C18 6514   6.686   9.536   5.428
  225CHOL   C19 6515   6.589   9.523   5.882
  225CHOL   C20 6516   6.557   9.492   5.143
  225CHOL   C21 6517   6.463   9.614   5.140
  225CHOL   C22 6518   6.533   9.408   5.017
  225CHOL   C23 6519   6.550   9.482   4.883
  225CHOL   C24 6520   6.529   9.384   4.767
  225CHOL   C25 6521   6.525   9.452   4.630
  225CHOL   C26 6522   6.534   9.344   4.522
  225CHOL   C27 6523   6.393   9.526   4.613
  225CHOL   O28 6524   6.343   9.356   6.254
  225CHOL   H29 6525   6.251   9.391   6.285
  226CHOL    C1 6526   6.597   2.888   5.625
  226CHOL    C2 6527   6.621   2.850   5.772
  226CHOL    C3 6528   6.548   2.720   5.806
  226CHOL    C4 6529   6.597   2.607   5.715
  226CHOL    C5 6530   6.583   2.641   5.568
  226CHOL    C6 6531   6.537   2.552   5.479
  226CHOL    C7 6532   6.528   2.573   5.330
  226CHOL    C8 6533   6.614   2.693   5.289
  226CHOL    C9 6534   6.587   2.810   5.385
  226CHOL   C10 6535   6.640   2.777   5.527
  226CHOL   C11 6536   6.646   2.940   5.327
  226CHOL   C12 6537   6.611   2.971   5.180
  226CHOL   C13 6538   6.647   2.853   5.088
  226CHOL   C14 6539   6.574   2.730   5.145
  226CHOL   C15 6540   6.594   2.620   5.039
  226CHOL   C16 6541   6.599   2.701   4.907
  226CHOL   C17 6542   6.585   2.851   4.946
  226CHOL   C18 6543   6.801   2.839   5.081
  226CHOL   C19 6544   6.793   2.769   5.525
  226CHOL   C20 6545   6.647   2.947   4.842
  226CHOL   C21 6546   6.582   3.085   4.852
  226CHOL   C22 6547   6.632   2.896   4.697
  226CHOL   C23 6548   6.712   2.977   4.594
  226CHOL   C24 6549   6.714   2.905   4.459
  226CHOL   C25 6550   6.790   2.984   4.352
  226CHOL   C26 6551   6.705   3.101   4.302
  226CHOL   C27 6552   6.825   2.892   4.235
  226CHOL   O28 6553   6.567   2.683   5.943
  226CHOL   H29 6554   6.666   2.655   5.956
  227CHOL    C1 6555   6.702   1.594   5.561
  227CHOL    C2 6556   6.751   1.628   5.702
  227CHOL    C3 6557   6.759   1.503   5.790
  227CHOL    C4 6558   6.851   1.398   5.725
  227CHOL    C5 6559   6.813   1.367   5.581
  227CHOL    C6 6560   6.814   1.241   5.533
  227CHOL    C7 6561   6.786   1.203   5.390
  227CHOL    C8 6562   6.795   1.325   5.298
  227CHOL    C9 6563   6.722   1.444   5.362
  227CHOL   C10 6564   6.791   1.489   5.493
  227CHOL   C11 6565   6.711   1.561   5.262
  227CHOL   C12 6566   6.655   1.525   5.123
  227CHOL   C13 6567   6.729   1.405   5.061
  227CHOL   C14 6568   6.723   1.292   5.166
  227CHOL   C15 6569   6.770   1.167   5.090
  227CHOL   C16 6570   6.718   1.190   4.947
  227CHOL   C17 6571   6.658   1.334   4.943
  227CHOL   C18 6572   6.873   1.445   5.022
  227CHOL   C19 6573   6.928   1.552   5.461
  227CHOL   C20 6574   6.664   1.392   4.800
  227CHOL   C21 6575   6.614   1.537   4.788
  227CHOL   C22 6576   6.581   1.304   4.705
  227CHOL   C23 6577   6.588   1.346   4.558
  227CHOL   C24 6578   6.497   1.258   4.472
  227CHOL   C25 6579   6.488   1.306   4.327
  227CHOL   C26 6580   6.415   1.440   4.317
  227CHOL   C27 6581   6.414   1.202   4.243
  227CHOL   O28 6582   6.810   1.539   5.919
  227CHOL   H29 6583   6.815   1.455   5.977
  228CHOL    C1 6584   8.847   9.182   6.052
  228CHOL    C2 6585   8.817   9.211   6.200
  228CHOL    C3 6586   8.801   9.362   6.224
  228CHOL    C4 6587   8.687   9.415   6.136
  228CHOL    C5 6588   8.712   9.385   5.989
  228CHOL    C6 6589   8.699   9.480   5.896
  228CHOL    C7 6590   8.712   9.457   5.747
  228CHOL    C8 6591   8.700   9.308   5.717
  228CHOL    C9 6592   8.792   9.229   5.813
  228CHOL   C10 6593   8.740   9.239   5.958
  228CHOL   C11 6594   8.808   9.083   5.763
  228CHOL   C12 6595   8.841   9.065   5.614
  228CHOL   C13 6596   8.741   9.141   5.524
  228CHOL   C14 6597   8.744   9.287   5.571
  228CHOL   C15 6598   8.662   9.363   5.466
  228CHOL   C16 6599   8.691   9.285   5.336
  228CHOL   C17 6600   8.781   9.164   5.376
  228CHOL   C18 6601   8.602   9.074   5.535
  228CHOL   C19 6602   8.609   9.158   5.973
  228CHOL   C20 6603   8.765   9.047   5.276
  228CHOL   C21 6604   8.875   8.941   5.295
  228CHOL   C22 6605   8.771   9.097   5.131
  228CHOL   C23 6606   8.730   8.992   5.026
  228CHOL   C24 6607   8.726   9.055   4.887
  228CHOL   C25 6608   8.688   8.955   4.777
  228CHOL   C26 6609   8.660   9.032   4.648
  228CHOL   C27 6610   8.804   8.859   4.752
  228CHOL   O28 6611   8.767   9.385   6.362
  228CHOL   H29 6612   8.852   9.369   6.419
  229CHOL    C1 6613   7.641   9.311   6.032
  229CHOL    C2 6614   7.585   9.275   6.170
  229CHOL    C3 6615   7.543   9.404   6.243
  229CHOL    C4 6616   7.435   9.478   6.164
  229CHOL    C5 6617   7.478   9.507   6.021
  229CHOL    C6 6618   7.451   9.624   5.961
  229CHOL    C7 6619   7.484   9.659   5.818
  229CHOL    C8 6620   7.518   9.533   5.738
  229CHOL    C9 6621   7.612   9.443   5.822
  229CHOL   C10 6622   7.539   9.388   5.946
  229CHOL   C11 6623   7.670   9.330   5.735
  229CHOL   C12 6624   7.728   9.370   5.599
  229CHOL   C13 6625   7.627   9.454   5.518
  229CHOL   C14 6626   7.589   9.573   5.608
  229CHOL   C15 6627   7.512   9.668   5.515
  229CHOL   C16 6628   7.576   9.643   5.376
  229CHOL   C17 6629   7.683   9.532   5.396
  229CHOL   C18 6630   7.507   9.366   5.478
  229CHOL   C19 6631   7.426   9.293   5.904
  229CHOL   C20 6632   7.705   9.446   5.269
  229CHOL   C21 6633   7.840   9.374   5.274
  229CHOL   C22 6634   7.700   9.528   5.139
  229CHOL   C23 6635   7.681   9.438   5.016
  229CHOL   C24 6636   7.672   9.520   4.887
  229CHOL   C25 6637   7.637   9.434   4.765
  229CHOL   C26 6638   7.496   9.376   4.778
  229CHOL   C27 6639   7.645   9.520   4.639
  229CHOL   O28 6640   7.500   9.372   6.376
  229CHOL   H29 6641   7.396   9.378   6.383
  230CHOL    C1 6642   8.597   1.153   6.009
  230CHOL    C2 6643   8.578   1.155   6.161
  230CHOL    C3 6644   8.433   1.121   6.197
  230CHOL    C4 6645   8.401   0.979   6.148
  230CHOL    C5 6646   8.422   0.967   5.997
  230CHOL    C6 6647   8.332   0.907   5.918
  230CHOL    C7 6648   8.346   0.888   5.768
  230CHOL    C8 6649   8.487   0.921   5.720
  230CHOL    C9 6650   8.543   1.043   5.794
  230CHOL   C10 6651   8.556   1.018   5.946
  230CHOL   C11 6652   8.677   1.089   5.731
  230CHOL   C12 6653   8.671   1.115   5.580
  230CHOL   C13 6654   8.612   0.994   5.505
  230CHOL   C14 6655   8.477   0.963   5.572
  230CHOL   C15 6656   8.407   0.864   5.478
  230CHOL   C16 6657   8.459   0.906   5.338
  230CHOL   C17 6658   8.563   1.020   5.359
  230CHOL   C18 6659   8.712   0.877   5.510
  230CHOL   C19 6660   8.665   0.913   5.975
  230CHOL   C20 6661   8.671   1.019   5.248
  230CHOL   C21 6662   8.756   1.146   5.251
  230CHOL   C22 6663   8.609   1.006   5.108
  230CHOL   C23 6664   8.715   0.972   5.001
  230CHOL   C24 6665   8.650   0.949   4.864
  230CHOL   C25 6666   8.752   0.905   4.758
  230CHOL   C26 6667   8.850   1.018   4.724
  230CHOL   C27 6668   8.678   0.863   4.631
  230CHOL   O28 6669   8.416   1.135   6.338
  230CHOL   H29 6670   8.474   1.061   6.384
  231CHOL    C1 6671   7.655   8.852   6.002
  231CHOL    C2 6672   7.689   8.836   6.151
  231CHOL    C3 6673   7.725   8.690   6.184
  231CHOL    C4 6674   7.843   8.645   6.097
  231CHOL    C5 6675   7.815   8.664   5.949
  231CHOL    C6 6676   7.843   8.568   5.859
  231CHOL    C7 6677   7.827   8.581   5.710
  231CHOL    C8 6678   7.816   8.729   5.671
  231CHOL    C9 6679   7.715   8.799   5.765
  231CHOL   C10 6680   7.768   8.803   5.910
  231CHOL   C11 6681   7.681   8.939   5.710
  231CHOL   C12 6682   7.646   8.951   5.561
  231CHOL   C13 6683   7.753   8.882   5.474
  231CHOL   C14 6684   7.766   8.738   5.526
  231CHOL   C15 6685   7.851   8.665   5.421
  231CHOL   C16 6686   7.813   8.737   5.290
  231CHOL   C17 6687   7.714   8.852   5.327
  231CHOL   C18 6688   7.886   8.962   5.481
  231CHOL   C19 6689   7.887   8.901   5.919
  231CHOL   C20 6690   7.721   8.974   5.232
  231CHOL   C21 6691   7.586   9.046   5.228
  231CHOL   C22 6692   7.763   8.939   5.088
  231CHOL   C23 6693   7.798   9.064   5.006
  231CHOL   C24 6694   7.854   9.032   4.867
  231CHOL   C25 6695   7.994   8.970   4.870
  231CHOL   C26 6696   8.098   9.069   4.925
  231CHOL   C27 6697   8.034   8.929   4.728
  231CHOL   O28 6698   7.760   8.680   6.323
  231CHOL   H29 6699   7.820   8.760   6.347
  232CHOL    C1 6700   8.841  10.011   5.860
  232CHOL    C2 6701   8.833   9.957   6.003
  232CHOL    C3 6702   8.713  10.018   6.077
  232CHOL    C4 6703   8.583   9.988   6.002
  232CHOL    C5 6704   8.588  10.028   5.855
  232CHOL    C6 6705   8.482  10.083   5.794
  232CHOL    C7 6706   8.474  10.117   5.647
  232CHOL    C8 6707   8.584  10.045   5.569
  232CHOL    C9 6708   8.718  10.058   5.645
  232CHOL   C10 6709   8.713   9.982   5.780
  232CHOL   C11 6710   8.834  10.008   5.555
  232CHOL   C12 6711   8.838  10.064   5.412
  232CHOL   C13 6712   8.703  10.047   5.340
  232CHOL   C14 6713   8.599  10.113   5.432
  232CHOL   C15 6714   8.471  10.121   5.348
  232CHOL   C16 6715   8.524  10.141   5.204
  232CHOL   C17 6716   8.679  10.132   5.212
  232CHOL   C18 6717   8.676   9.898   5.313
  232CHOL   C19 6718   8.702   9.831   5.753
  232CHOL   C20 6719   8.738  10.082   5.078
  232CHOL   C21 6720   8.891  10.088   5.076
  232CHOL   C22 6721   8.686  10.166   4.961
  232CHOL   C23 6722   8.708  10.102   4.823
  232CHOL   C24 6723   8.617   9.980   4.801
  232CHOL   C25 6724   8.635   9.919   4.662
  232CHOL   C26 6725   8.528   9.811   4.641
  232CHOL   C27 6726   8.773   9.854   4.648
  232CHOL   O28 6727   8.703   9.966   6.210
  232CHOL   H29 6728   8.633  10.023   6.260
  233CHOL    C1 6729   8.134   2.594   6.080
  233CHOL    C2 6730   8.097   2.600   6.229
  233CHOL    C3 6731   8.194   2.690   6.305
  233CHOL    C4 6732   8.192   2.832   6.245
  233CHOL    C5 6733   8.216   2.834   6.095
  233CHOL    C6 6734   8.292   2.929   6.037
  233CHOL    C7 6735   8.313   2.945   5.888
  233CHOL    C8 6736   8.208   2.864   5.811
  233CHOL    C9 6737   8.195   2.724   5.874
  233CHOL   C10 6738   8.133   2.734   6.015
  233CHOL   C11 6739   8.114   2.630   5.782
  233CHOL   C12 6740   8.159   2.627   5.635
  233CHOL   C13 6741   8.162   2.769   5.575
  233CHOL   C14 6742   8.255   2.852   5.665
  233CHOL   C15 6743   8.273   2.985   5.588
  233CHOL   C16 6744   8.266   2.940   5.440
  233CHOL   C17 6745   8.239   2.787   5.441
  233CHOL   C18 6746   8.018   2.824   5.564
  233CHOL   C19 6747   7.987   2.784   6.005
  233CHOL   C20 6748   8.173   2.739   5.310
  233CHOL   C21 6749   8.173   2.586   5.300
  233CHOL   C22 6750   8.247   2.793   5.187
  233CHOL   C23 6751   8.170   2.771   5.057
  233CHOL   C24 6752   8.253   2.811   4.935
  233CHOL   C25 6753   8.179   2.787   4.803
  233CHOL   C26 6754   8.264   2.839   4.687
  233CHOL   C27 6755   8.153   2.638   4.782
  233CHOL   O28 6756   8.156   2.698   6.443
  233CHOL   H29 6757   8.153   2.602   6.481
  234CHOL    C1 6758   1.356   8.600   5.498
  234CHOL    C2 6759   1.380   8.620   5.648
  234CHOL    C3 6760   1.506   8.546   5.694
  234CHOL    C4 6761   1.627   8.596   5.615
  234CHOL    C5 6762   1.607   8.588   5.465
  234CHOL    C6 6763   1.704   8.544   5.383
  234CHOL    C7 6764   1.696   8.541   5.232
  234CHOL    C8 6765   1.579   8.625   5.181
  234CHOL    C9 6766   1.454   8.598   5.269
  234CHOL   C10 6767   1.476   8.647   5.414
  234CHOL   C11 6768   1.329   8.661   5.205
  234CHOL   C12 6769   1.305   8.630   5.056
  234CHOL   C13 6770   1.431   8.660   4.973
  234CHOL   C14 6771   1.548   8.583   5.037
  234CHOL   C15 6772   1.661   8.593   4.933
  234CHOL   C16 6773   1.585   8.590   4.797
  234CHOL   C17 6774   1.434   8.592   4.835
  234CHOL   C18 6775   1.454   8.812   4.966
  234CHOL   C19 6776   1.485   8.801   5.418
  234CHOL   C20 6777   1.334   8.638   4.727
  234CHOL   C21 6778   1.283   8.513   4.654
  234CHOL   C22 6779   1.395   8.732   4.622
  234CHOL   C23 6780   1.288   8.798   4.534
  234CHOL   C24 6781   1.348   8.882   4.420
  234CHOL   C25 6782   1.413   8.798   4.309
  234CHOL   C26 6783   1.308   8.718   4.232
  234CHOL   C27 6784   1.487   8.890   4.213
  234CHOL   O28 6785   1.527   8.567   5.835
  234CHOL   H29 6786   1.614   8.517   5.862
  235CHOL    C1 6787   4.932   2.442   5.551
  235CHOL    C2 6788   4.958   2.477   5.698
  235CHOL    C3 6789   5.099   2.435   5.741
  235CHOL    C4 6790   5.207   2.494   5.648
  235CHOL    C5 6791   5.176   2.486   5.499
  235CHOL    C6 6792   5.276   2.474   5.410
  235CHOL    C7 6793   5.259   2.476   5.260
  235CHOL    C8 6794   5.120   2.528   5.222
  235CHOL    C9 6795   5.014   2.464   5.314
  235CHOL   C10 6796   5.032   2.514   5.459
  235CHOL   C11 6797   4.872   2.492   5.260
  235CHOL   C12 6798   4.852   2.459   5.111
  235CHOL   C13 6799   4.956   2.530   5.022
  235CHOL   C14 6800   5.094   2.488   5.076
  235CHOL   C15 6801   5.194   2.542   4.972
  235CHOL   C16 6802   5.114   2.532   4.840
  235CHOL   C17 6803   4.974   2.476   4.878
  235CHOL   C18 6804   4.930   2.682   5.024
  235CHOL   C19 6805   5.003   2.666   5.465
  235CHOL   C20 6806   4.864   2.511   4.774
  235CHOL   C21 6807   4.741   2.421   4.789
  235CHOL   C22 6808   4.917   2.500   4.630
  235CHOL   C23 6809   4.819   2.552   4.524
  235CHOL   C24 6810   4.890   2.573   4.389
  235CHOL   C25 6811   4.989   2.690   4.393
  235CHOL   C26 6812   4.916   2.824   4.409
  235CHOL   C27 6813   5.073   2.693   4.265
  235CHOL   O28 6814   5.124   2.483   5.874
  235CHOL   H29 6815   5.154   2.583   5.868
  236CHOL    C1 6816   5.126   8.203   5.771
  236CHOL    C2 6817   5.089   8.217   5.920
  236CHOL    C3 6818   5.216   8.239   6.004
  236CHOL    C4 6819   5.290   8.365   5.956
  236CHOL    C5 6820   5.318   8.363   5.806
  236CHOL    C6 6821   5.435   8.410   5.758
  236CHOL    C7 6822   5.469   8.423   5.612
  236CHOL    C8 6823   5.343   8.412   5.525
  236CHOL    C9 6824   5.255   8.296   5.575
  236CHOL   C10 6825   5.201   8.326   5.717
  236CHOL   C11 6826   5.143   8.268   5.473
  236CHOL   C12 6827   5.189   8.250   5.327
  236CHOL   C13 6828   5.276   8.367   5.279
  236CHOL   C14 6829   5.389   8.381   5.382
  236CHOL   C15 6830   5.487   8.481   5.321
  236CHOL   C16 6831   5.476   8.452   5.170
  236CHOL   C17 6832   5.366   8.344   5.154
  236CHOL   C18 6833   5.190   8.494   5.264
  236CHOL   C19 6834   5.103   8.445   5.711
  236CHOL   C20 6835   5.305   8.349   5.012
  236CHOL   C21 6836   5.206   8.235   4.985
  236CHOL   C22 6837   5.418   8.340   4.907
  236CHOL   C23 6838   5.376   8.387   4.768
  236CHOL   C24 6839   5.497   8.385   4.673
  236CHOL   C25 6840   5.464   8.439   4.533
  236CHOL   C26 6841   5.583   8.416   4.441
  236CHOL   C27 6842   5.435   8.590   4.539
  236CHOL   O28 6843   5.182   8.255   6.142
  236CHOL   H29 6844   5.125   8.340   6.154
  237CHOL    C1 6845   8.893   0.033   6.077
  237CHOL    C2 6846   8.859   0.083   6.219
  237CHOL    C3 6847   8.987   0.095   6.303
  237CHOL    C4 6848   9.091   0.184   6.233
  237CHOL    C5 6849   9.113   0.157   6.085
  237CHOL    C6 6850   9.232   0.178   6.027
  237CHOL    C7 6851   9.260   0.167   5.878
  237CHOL    C8 6852   9.130   0.162   5.798
  237CHOL    C9 6853   9.029   0.069   5.870
  237CHOL   C10 6854   8.986   0.130   6.004
  237CHOL   C11 6855   8.909   0.037   5.779
  237CHOL   C12 6856   8.946  10.486   5.640
  237CHOL   C13 6857   9.042   0.080   5.568
  237CHOL   C14 6858   9.163   0.104   5.660
  237CHOL   C15 6859   9.262   0.181   5.570
  237CHOL   C16 6860   9.238   0.118   5.431
  237CHOL   C17 6861   9.123   0.017   5.453
  237CHOL   C18 6862   8.966   0.207   5.526
  237CHOL   C19 6863   8.912   0.263   5.981
  237CHOL   C20 6864   9.050  10.464   5.329
  237CHOL   C21 6865   9.108  10.325   5.304
  237CHOL   C22 6866   9.070   0.045   5.201
  237CHOL   C23 6867   8.993  10.492   5.081
  237CHOL   C24 6868   9.037   0.057   4.951
  237CHOL   C25 6869   8.969  10.501   4.828
  237CHOL   C26 6870   9.014  10.357   4.803
  237CHOL   C27 6871   9.003   0.083   4.705
  237CHOL   O28 6872   8.955   0.155   6.429
  237CHOL   H29 6873   8.870   0.111   6.469
  238CHOL    C1 6874   0.874   0.470   5.712
  238CHOL    C2 6875   0.839   0.501   5.858
  238CHOL    C3 6876   0.959   0.560   5.933
  238CHOL    C4 6877   1.006   0.688   5.862
  238CHOL    C5 6878   1.035   0.666   5.715
  238CHOL    C6 6879   1.144   0.718   5.656
  238CHOL    C7 6880   1.176   0.709   5.508
  238CHOL    C8 6881   1.053   0.665   5.428
  238CHOL    C9 6882   0.982   0.549   5.501
  238CHOL   C10 6883   0.925   0.595   5.637
  238CHOL   C11 6884   0.872   0.488   5.411
  238CHOL   C12 6885   0.916   0.451   5.268
  238CHOL   C13 6886   0.984   0.570   5.198
  238CHOL   C14 6887   1.099   0.615   5.290
  238CHOL   C15 6888   1.180   0.715   5.205
  238CHOL   C16 6889   1.161   0.662   5.061
  238CHOL   C17 6890   1.066   0.539   5.070
  238CHOL   C18 6891   0.879   0.681   5.171
  238CHOL   C19 6892   0.808   0.693   5.616
  238CHOL   C20 6893   0.984   0.516   4.941
  238CHOL   C21 6894   0.928   0.373   4.936
  238CHOL   C22 6895   1.066   0.541   4.813
  238CHOL   C23 6896   0.983   0.537   4.684
  238CHOL   C24 6897   0.883   0.653   4.675
  238CHOL   C25 6898   0.790   0.641   4.553
  238CHOL   C26 6899   0.682   0.749   4.561
  238CHOL   C27 6900   0.868   0.657   4.423
  238CHOL   O28 6901   0.921   0.591   6.068
  238CHOL   H29 6902   0.997   0.646   6.111
  239CHOL    C1 6903   0.128  10.266   5.811
  239CHOL    C2 6904   0.153  10.259   5.963
  239CHOL    C3 6905   0.061  10.156   6.027
  239CHOL    C4 6906   0.090  10.018   5.965
  239CHOL    C5 6907   0.067  10.020   5.815
  239CHOL    C6 6908  10.151   9.926   5.755
  239CHOL    C7 6909  10.129   9.917   5.606
  239CHOL    C8 6910   0.073  10.003   5.531
  239CHOL    C9 6911   0.085  10.141   5.598
  239CHOL   C10 6912   0.143  10.130   5.741
  239CHOL   C11 6913   0.164  10.237   5.506
  239CHOL   C12 6914   0.115  10.245   5.360
  239CHOL   C13 6915   0.106  10.106   5.295
  239CHOL   C14 6916   0.019  10.021   5.389
  239CHOL   C15 6917  10.150   9.891   5.311
  239CHOL   C16 6918  10.146   9.939   5.165
  239CHOL   C17 6919   0.019  10.091   5.167
  239CHOL   C18 6920   0.248  10.050   5.273
  239CHOL   C19 6921   0.292  10.092   5.734
  239CHOL   C20 6922   0.075  10.138   5.031
  239CHOL   C21 6923   0.082  10.291   5.022
  239CHOL   C22 6924  10.143  10.089   4.915
  239CHOL   C23 6925   0.053  10.095   4.778
  239CHOL   C24 6926  10.117  10.039   4.671
  239CHOL   C25 6927   0.024  10.028   4.532
  239CHOL   C26 6928  10.085   9.956   4.439
  239CHOL   C27 6929   0.053  10.167   4.475
  239CHOL   O28 6930   0.080  10.148   6.169
  239CHOL   H29 6931   0.181  10.148   6.192
  240CHOL    C1 6932   5.241   9.725   5.515
  240CHOL    C2 6933   5.247   9.723   5.668
  240CHOL    C3 6934   5.349   9.619   5.714
  240CHOL    C4 6935   5.489   9.651   5.659
  240CHOL    C5 6936   5.490   9.670   5.508
  240CHOL    C6 6937   5.592   9.626   5.433
  240CHOL    C7 6938   5.606   9.649   5.284
  240CHOL    C8 6939   5.510   9.757   5.236
  240CHOL    C9 6940   5.371   9.734   5.300
  240CHOL   C10 6941   5.378   9.758   5.453
  240CHOL   C11 6942   5.264   9.821   5.233
  240CHOL   C12 6943   5.262   9.815   5.079
  240CHOL   C13 6944   5.400   9.849   5.020
  240CHOL   C14 6945   5.500   9.750   5.083
  240CHOL   C15 6946   5.631   9.774   5.006
  240CHOL   C16 6947   5.581   9.812   4.865
  240CHOL   C17 6948   5.426   9.812   4.871
  240CHOL   C18 6949   5.432   9.997   5.048
  240CHOL   C19 6950   5.411   9.905   5.481
  240CHOL   C20 6951   5.362   9.905   4.765
  240CHOL   C21 6952   5.213   9.873   4.746
  240CHOL   C22 6953   5.432   9.891   4.628
  240CHOL   C23 6954   5.397  10.006   4.533
  240CHOL   C24 6955   5.475   9.997   4.401
  240CHOL   C25 6956   5.626  10.016   4.415
  240CHOL   C26 6957   5.661  10.159   4.458
  240CHOL   C27 6958   5.694   9.986   4.281
  240CHOL   O28 6959   5.356   9.612   5.857
  240CHOL   H29 6960   5.401   9.522   5.878
  241CHOL    C1 6961   6.097  10.211   6.002
  241CHOL    C2 6962   6.080  10.188   6.153
  241CHOL    C3 6963   6.062  10.039   6.181
  241CHOL    C4 6964   6.187   9.962   6.135
  241CHOL    C5 6965   6.215   9.986   5.987
  241CHOL    C6 6966   6.248   9.885   5.905
  241CHOL    C7 6967   6.281   9.898   5.758
  241CHOL    C8 6968   6.309  10.044   5.721
  241CHOL    C9 6969   6.206  10.136   5.789
  241CHOL   C10 6970   6.216  10.132   5.944
  241CHOL   C11 6971   6.221  10.280   5.736
  241CHOL   C12 6972   6.218  10.293   5.583
  241CHOL   C13 6973   6.319  10.199   5.515
  241CHOL   C14 6974   6.290  10.058   5.569
  241CHOL   C15 6975   6.374   9.965   5.479
  241CHOL   C16 6976   6.375  10.038   5.343
  241CHOL   C17 6977   6.299  10.172   5.364
  241CHOL   C18 6978   6.463  10.247   5.545
  241CHOL   C19 6979   6.348  10.197   5.990
  241CHOL   C20 6980   6.346  10.283   5.266
  241CHOL   C21 6981   6.251  10.403   5.265
  241CHOL   C22 6982   6.358  10.233   5.121
  241CHOL   C23 6983   6.436  10.331   5.033
  241CHOL   C24 6984   6.429  10.294   4.885
  241CHOL   C25 6985   6.509  10.393   4.799
  241CHOL   C26 6986   6.659  10.367   4.811
  241CHOL   C27 6987   6.465  10.382   4.653
  241CHOL   O28 6988   6.038  10.017   6.321
  241CHOL   H29 6989   5.958  10.077   6.351
  242CHOL    C1 6990   6.992   0.172   5.839
  242CHOL    C2 6991   7.045   0.130   5.977
  242CHOL    C3 6992   6.969   0.008   6.028
  242CHOL    C4 6993   6.983  10.394   5.929
  242CHOL    C5 6994   6.942  10.432   5.788
  242CHOL    C6 6995   6.870  10.349   5.711
  242CHOL    C7 6996   6.834  10.374   5.566
  242CHOL    C8 6997   6.919  10.488   5.508
  242CHOL    C9 6998   6.925   0.101   5.610
  242CHOL   C10 6999   7.003   0.059   5.736
  242CHOL   C11 7000   6.984   0.227   5.544
  242CHOL   C12 7001   6.920   0.267   5.410
  242CHOL   C13 7002   6.922   0.150   5.310
  242CHOL   C14 7003   6.851   0.033   5.379
  242CHOL   C15 7004   6.832  10.431   5.268
  242CHOL   C16 7005   6.813   0.016   5.141
  242CHOL   C17 7006   6.829   0.164   5.186
  242CHOL   C18 7007   7.068   0.120   5.269
  242CHOL   C19 7008   7.151   0.035   5.702
  242CHOL   C20 7009   6.880   0.256   5.072
  242CHOL   C21 7010   6.851   0.403   5.106
  242CHOL   C22 7011   6.814   0.225   4.937
  242CHOL   C23 7012   6.887   0.295   4.821
  242CHOL   C24 7013   6.819   0.267   4.687
  242CHOL   C25 7014   6.893   0.332   4.570
  242CHOL   C26 7015   6.806   0.323   4.444
  242CHOL   C27 7016   7.024   0.258   4.542
  242CHOL   O28 7017   7.020  10.471   6.156
  242CHOL   H29 7018   7.121  10.448   6.146
  243CHOL    C1 7019   8.022   9.673   5.947
  243CHOL    C2 7020   8.051   9.659   6.097
  243CHOL    C3 7021   8.181   9.580   6.120
  243CHOL    C4 7022   8.297   9.656   6.054
  243CHOL    C5 7023   8.272   9.669   5.905
  243CHOL    C6 7024   8.363   9.628   5.815
  243CHOL    C7 7025   8.348   9.641   5.666
  243CHOL    C8 7026   8.239   9.743   5.633
  243CHOL    C9 7027   8.113   9.713   5.717
  243CHOL   C10 7028   8.139   9.735   5.868
  243CHOL   C11 7029   7.994   9.796   5.663
  243CHOL   C12 7030   7.970   9.792   5.511
  243CHOL   C13 7031   8.098   9.825   5.433
  243CHOL   C14 7032   8.205   9.727   5.484
  243CHOL   C15 7033   8.323   9.743   5.388
  243CHOL   C16 7034   8.254   9.777   5.254
  243CHOL   C17 7035   8.102   9.787   5.282
  243CHOL   C18 7036   8.134   9.973   5.453
  243CHOL   C19 7037   8.148   9.885   5.900
  243CHOL   C20 7038   8.033   9.883   5.181
  243CHOL   C21 7039   7.880   9.873   5.188
  243CHOL   C22 7040   8.077   9.853   5.037
  243CHOL   C23 7041   8.042   9.965   4.938
  243CHOL   C24 7042   8.100   9.933   4.800
  243CHOL   C25 7043   8.075  10.045   4.698
  243CHOL   C26 7044   8.155  10.015   4.571
  243CHOL   C27 7045   7.927  10.053   4.662
  243CHOL   O28 7046   8.207   9.561   6.259
  243CHOL   H29 7047   8.197   9.653   6.308
  244CHOL    C1 7048   7.643   0.634   5.961
  244CHOL    C2 7049   7.650   0.617   6.113
  244CHOL    C3 7050   7.774   0.534   6.149
  244CHOL    C4 7051   7.901   0.608   6.104
  244CHOL    C5 7052   7.898   0.642   5.955
  244CHOL    C6 7053   8.008   0.632   5.879
  244CHOL    C7 7054   8.017   0.668   5.732
  244CHOL    C8 7055   7.892   0.744   5.686
  244CHOL    C9 7056   7.766   0.684   5.751
  244CHOL   C10 7057   7.768   0.703   5.904
  244CHOL   C11 7058   7.637   0.742   5.689
  244CHOL   C12 7059   7.632   0.729   5.536
  244CHOL   C13 7060   7.757   0.791   5.471
  244CHOL   C14 7061   7.879   0.723   5.534
  244CHOL   C15 7062   7.997   0.770   5.447
  244CHOL   C16 7063   7.933   0.786   5.307
  244CHOL   C17 7064   7.782   0.753   5.322
  244CHOL   C18 7065   7.754   0.944   5.490
  244CHOL   C19 7066   7.763   0.852   5.940
  244CHOL   C20 7067   7.690   0.825   5.221
  244CHOL   C21 7068   7.563   0.742   5.197
  244CHOL   C22 7069   7.757   0.854   5.086
  244CHOL   C23 7070   7.673   0.948   4.999
  244CHOL   C24 7071   7.747   0.984   4.870
  244CHOL   C25 7072   7.663   1.073   4.779
  244CHOL   C26 7073   7.546   0.994   4.720
  244CHOL   C27 7074   7.751   1.126   4.665
  244CHOL   O28 7075   7.777   0.509   6.290
  244CHOL   H29 7076   7.690   0.460   6.317
  245CHOL    C1 7077   6.022   1.087   5.625
  245CHOL    C2 7078   6.038   1.062   5.775
  245CHOL    C3 7079   6.042   1.195   5.851
  245CHOL    C4 7080   5.913   1.274   5.825
  245CHOL    C5 7081   5.882   1.292   5.677
  245CHOL    C6 7082   5.832   1.406   5.628
  245CHOL    C7 7083   5.788   1.429   5.485
  245CHOL    C8 7084   5.775   1.296   5.411
  245CHOL    C9 7085   5.897   1.208   5.445
  245CHOL   C10 7086   5.893   1.165   5.593
  245CHOL   C11 7087   5.907   1.087   5.351
  245CHOL   C12 7088   5.896   1.121   5.201
  245CHOL   C13 7089   5.766   1.198   5.171
  245CHOL   C14 7090   5.769   1.324   5.260
  245CHOL   C15 7091   5.651   1.409   5.210
  245CHOL   C16 7092   5.645   1.375   5.059
  245CHOL   C17 7093   5.754   1.268   5.033
  245CHOL   C18 7094   5.644   1.106   5.197
  245CHOL   C19 7095   5.771   1.075   5.619
  245CHOL   C20 7096   5.721   1.181   4.909
  245CHOL   C21 7097   5.838   1.090   4.869
  245CHOL   C22 7098   5.685   1.268   4.788
  245CHOL   C23 7099   5.633   1.187   4.668
  245CHOL   C24 7100   5.610   1.277   4.547
  245CHOL   C25 7101   5.571   1.200   4.420
  245CHOL   C26 7102   5.539   1.300   4.309
  245CHOL   C27 7103   5.687   1.112   4.373
  245CHOL   O28 7104   6.054   1.166   5.991
  245CHOL   H29 7105   6.061   1.256   6.043
  246CHOL    C1 7106   6.559   2.215   5.650
  246CHOL    C2 7107   6.583   2.205   5.801
  246CHOL    C3 7108   6.467   2.133   5.870
  246CHOL    C4 7109   6.448   1.993   5.810
  246CHOL    C5 7110   6.433   1.996   5.658
  246CHOL    C6 7111   6.342   1.920   5.595
  246CHOL    C7 7112   6.326   1.911   5.445
  246CHOL    C8 7113   6.450   1.966   5.374
  246CHOL    C9 7114   6.491   2.099   5.439
  246CHOL   C10 7115   6.539   2.077   5.585
  246CHOL   C11 7116   6.598   2.170   5.353
  246CHOL   C12 7117   6.566   2.184   5.203
  246CHOL   C13 7118   6.531   2.047   5.142
  246CHOL   C14 7119   6.416   1.989   5.225
  246CHOL   C15 7120   6.369   1.866   5.146
  246CHOL   C16 7121   6.396   1.906   4.999
  246CHOL   C17 7122   6.461   2.048   5.003
  246CHOL   C18 7123   6.657   1.958   5.140
  246CHOL   C19 7124   6.673   2.000   5.586
  246CHOL   C20 7125   6.552   2.078   4.882
  246CHOL   C21 7126   6.567   2.229   4.862
  246CHOL   C22 7127   6.502   2.016   4.751
  246CHOL   C23 7128   6.607   2.022   4.639
  246CHOL   C24 7129   6.558   1.954   4.511
  246CHOL   C25 7130   6.663   1.956   4.399
  246CHOL   C26 7131   6.600   1.903   4.270
  246CHOL   C27 7132   6.782   1.867   4.435
  246CHOL   O28 7133   6.496   2.123   6.010
  246CHOL   H29 7134   6.413   2.084   6.059
  247CHOL    C1 7135   7.345   1.350   5.842
  247CHOL    C2 7136   7.374   1.320   5.990
  247CHOL    C3 7137   7.483   1.213   6.002
  247CHOL    C4 7138   7.612   1.266   5.937
  247CHOL    C5 7139   7.589   1.303   5.791
  247CHOL    C6 7140   7.675   1.264   5.696
  247CHOL    C7 7141   7.665   1.301   5.550
  247CHOL    C8 7142   7.564   1.414   5.528
  247CHOL    C9 7143   7.438   1.391   5.614
  247CHOL   C10 7144   7.471   1.395   5.766
  247CHOL   C11 7145   7.328   1.492   5.576
  247CHOL   C12 7146   7.295   1.495   5.425
  247CHOL   C13 7147   7.421   1.516   5.339
  247CHOL   C14 7148   7.520   1.406   5.381
  247CHOL   C15 7149   7.632   1.411   5.276
  247CHOL   C16 7150   7.557   1.454   5.147
  247CHOL   C17 7151   7.409   1.479   5.188
  247CHOL   C18 7152   7.475   1.659   5.359
  247CHOL   C19 7153   7.507   1.538   5.809
  247CHOL   C20 7154   7.340   1.579   5.092
  247CHOL   C21 7155   7.190   1.593   5.121
  247CHOL   C22 7156   7.357   1.535   4.946
  247CHOL   C23 7157   7.301   1.636   4.845
  247CHOL   C24 7158   7.325   1.589   4.701
  247CHOL   C25 7159   7.262   1.683   4.598
  247CHOL   C26 7160   7.312   1.647   4.459
  247CHOL   C27 7161   7.109   1.668   4.600
  247CHOL   O28 7162   7.508   1.181   6.139
  247CHOL   H29 7163   7.419   1.155   6.184
  248CHOL    C1 7164   6.972   2.285   5.744
  248CHOL    C2 7165   6.970   2.288   5.897
  248CHOL    C3 7166   7.109   2.262   5.956
  248CHOL    C4 7167   7.211   2.362   5.900
  248CHOL    C5 7168   7.210   2.369   5.748
  248CHOL    C6 7169   7.323   2.376   5.677
  248CHOL    C7 7170   7.332   2.393   5.527
  248CHOL    C8 7171   7.198   2.442   5.471
  248CHOL    C9 7172   7.084   2.359   5.534
  248CHOL   C10 7173   7.072   2.386   5.685
  248CHOL   C11 7174   6.951   2.386   5.459
  248CHOL   C12 7175   6.958   2.374   5.306
  248CHOL   C13 7176   7.071   2.461   5.247
  248CHOL   C14 7177   7.200   2.419   5.319
  248CHOL   C15 7178   7.312   2.490   5.241
  248CHOL   C16 7179   7.257   2.494   5.096
  248CHOL   C17 7180   7.115   2.430   5.101
  248CHOL   C18 7181   7.036   2.610   5.265
  248CHOL   C19 7182   7.023   2.530   5.711
  248CHOL   C20 7183   7.024   2.479   4.987
  248CHOL   C21 7184   6.899   2.391   4.973
  248CHOL   C22 7185   7.096   2.479   4.851
  248CHOL   C23 7186   7.015   2.546   4.739
  248CHOL   C24 7187   7.090   2.538   4.606
  248CHOL   C25 7188   7.010   2.600   4.490
  248CHOL   C26 7189   7.099   2.605   4.366
  248CHOL   C27 7190   6.886   2.515   4.459
  248CHOL   O28 7191   7.102   2.278   6.098
  248CHOL   H29 7192   7.066   2.374   6.116
  249CHOL    C1 7193   9.594  10.361   5.790
  249CHOL    C2 7194   9.621  10.420   5.929
  249CHOL    C3 7195   9.765  10.392   5.974
  249CHOL    C4 7196   9.865  10.449   5.871
  249CHOL    C5 7197   9.834  10.408   5.727
  249CHOL    C6 7198   9.932  10.380   5.639
  249CHOL    C7 7199   9.912  10.352   5.492
  249CHOL    C8 7200   9.773  10.397   5.448
  249CHOL    C9 7201   9.671  10.346   5.552
  249CHOL   C10 7202   9.688  10.421   5.685
  249CHOL   C11 7203   9.527  10.358   5.498
  249CHOL   C12 7204   9.504  10.308   5.354
  249CHOL   C13 7205   9.601  10.376   5.257
  249CHOL   C14 7206   9.743  10.345   5.306
  249CHOL   C15 7207   9.834  10.394   5.192
  249CHOL   C16 7208   9.747  10.372   5.065
  249CHOL   C17 7209   9.613  10.314   5.115
  249CHOL   C18 7210   9.569   0.024   5.248
  249CHOL   C19 7211   9.655   0.068   5.666
  249CHOL   C20 7212   9.490  10.340   5.024
  249CHOL   C21 7213   9.392  10.222   5.035
  249CHOL   C22 7214   9.525  10.364   4.876
  249CHOL   C23 7215   9.399  10.401   4.795
  249CHOL   C24 7216   9.429  10.451   4.654
  249CHOL   C25 7217   9.490   0.089   4.651
  249CHOL   C26 7218   9.523   0.125   4.506
  249CHOL   C27 7219   9.391   0.193   4.704
  249CHOL   O28 7220   9.787  10.453   6.102
  249CHOL   H29 7221   9.777   0.053   6.093
  250CHOL    C1 7222   5.136  10.184   5.427
  250CHOL    C2 7223   5.136  10.159   5.579
  250CHOL    C3 7224   5.142  10.292   5.656
  250CHOL    C4 7225   5.025  10.383   5.615
  250CHOL    C5 7226   5.009  10.399   5.464
  250CHOL    C6 7227   4.972   0.013   5.410
  250CHOL    C7 7228   4.945   0.037   5.263
  250CHOL    C8 7229   4.927  10.407   5.188
  250CHOL    C9 7230   5.035  10.307   5.234
  250CHOL   C10 7231   5.017  10.270   5.383
  250CHOL   C11 7232   5.034  10.182   5.143
  250CHOL   C12 7233   5.041  10.211   4.992
  250CHOL   C13 7234   4.932  10.310   4.948
  250CHOL   C14 7235   4.947  10.434   5.038
  250CHOL   C15 7236   4.855   0.036   4.975
  250CHOL   C16 7237   4.861   0.003   4.824
  250CHOL   C17 7238   4.951  10.380   4.810
  250CHOL   C18 7239   4.793  10.242   4.957
  250CHOL   C19 7240   4.887  10.190   5.402
  250CHOL   C20 7241   4.923  10.305   4.678
  250CHOL   C21 7242   5.016  10.185   4.656
  250CHOL   C22 7243   4.942  10.402   4.559
  250CHOL   C23 7244   4.912  10.346   4.419
  250CHOL   C24 7245   4.763  10.321   4.395
  250CHOL   C25 7246   4.737  10.277   4.250
  250CHOL   C26 7247   4.794  10.138   4.222
  250CHOL   C27 7248   4.586  10.278   4.221
  250CHOL   O28 7249   5.133  10.262   5.796
  250CHOL   H29 7250   5.144  10.350   5.849
  251CHOL    C1 7251   5.493  10.273   5.874
  251CHOL    C2 7252   5.471  10.286   6.025
  251CHOL    C3 7253   5.502  10.152   6.093
  251CHOL    C4 7254   5.648  10.114   6.069
  251CHOL    C5 7255   5.676  10.103   5.920
  251CHOL    C6 7256   5.740   9.997   5.868
  251CHOL    C7 7257   5.776   9.981   5.722
  251CHOL    C8 7258   5.765  10.115   5.649
  251CHOL    C9 7259   5.634  10.186   5.689
  251CHOL   C10 7260   5.635  10.225   5.839
  251CHOL   C11 7261   5.608  10.307   5.598
  251CHOL   C12 7262   5.617  10.279   5.446
  251CHOL   C13 7263   5.750  10.212   5.410
  251CHOL   C14 7264   5.761  10.086   5.498
  251CHOL   C15 7265   5.880  10.008   5.440
  251CHOL   C16 7266   5.875  10.043   5.289
  251CHOL   C17 7267   5.759  10.145   5.270
  251CHOL   C18 7268   5.866  10.311   5.432
  251CHOL   C19 7269   5.736  10.339   5.864
  251CHOL   C20 7270   5.786  10.241   5.152
  251CHOL   C21 7271   5.659  10.317   5.110
  251CHOL   C22 7272   5.840  10.169   5.028
  251CHOL   C23 7273   5.910  10.267   4.933
  251CHOL   C24 7274   5.958  10.197   4.805
  251CHOL   C25 7275   6.040  10.290   4.715
  251CHOL   C26 7276   5.956  10.407   4.665
  251CHOL   C27 7277   6.093  10.211   4.595
  251CHOL   O28 7278   5.473  10.159   6.234
  251CHOL   H29 7279   5.532  10.235   6.273
  252CHOL    C1 7280   4.758   0.790   5.633
  252CHOL    C2 7281   4.760   0.739   5.778
  252CHOL    C3 7282   4.813   0.847   5.874
  252CHOL    C4 7283   4.731   0.975   5.861
  252CHOL    C5 7284   4.714   1.024   5.718
  252CHOL    C6 7285   4.720   1.154   5.687
  252CHOL    C7 7286   4.695   1.212   5.550
  252CHOL    C8 7287   4.622   1.111   5.461
  252CHOL    C9 7288   4.688   0.972   5.475
  252CHOL   C10 7289   4.672   0.916   5.619
  252CHOL   C11 7290   4.631   0.876   5.369
  252CHOL   C12 7291   4.631   0.927   5.224
  252CHOL   C13 7292   4.564   1.066   5.213
  252CHOL   C14 7293   4.634   1.157   5.315
  252CHOL   C15 7294   4.582   1.298   5.282
  252CHOL   C16 7295   4.558   1.292   5.129
  252CHOL   C17 7296   4.593   1.147   5.084
  252CHOL   C18 7297   4.412   1.052   5.238
  252CHOL   C19 7298   4.524   0.880   5.644
  252CHOL   C20 7299   4.517   1.105   4.956
  252CHOL   C21 7300   4.583   0.982   4.892
  252CHOL   C22 7301   4.512   1.216   4.850
  252CHOL   C23 7302   4.413   1.184   4.737
  252CHOL   C24 7303   4.411   1.293   4.630
  252CHOL   C25 7304   4.311   1.262   4.518
  252CHOL   C26 7305   4.302   1.381   4.422
  252CHOL   C27 7306   4.355   1.139   4.438
  252CHOL   O28 7307   4.802   0.799   6.008
  252CHOL   H29 7308   4.841   0.870   6.071
  253CHOL    C1 7309   8.260   1.739   5.923
  253CHOL    C2 7310   8.276   1.736   6.075
  253CHOL    C3 7311   8.295   1.593   6.128
  253CHOL    C4 7312   8.416   1.529   6.058
  253CHOL    C5 7313   8.403   1.533   5.906
  253CHOL    C6 7314   8.426   1.425   5.830
  253CHOL    C7 7315   8.425   1.424   5.680
  253CHOL    C8 7316   8.437   1.566   5.625
  253CHOL    C9 7317   8.339   1.659   5.700
  253CHOL   C10 7318   8.377   1.672   5.849
  253CHOL   C11 7319   8.333   1.796   5.629
  253CHOL   C12 7320   8.309   1.792   5.477
  253CHOL   C13 7321   8.409   1.698   5.406
  253CHOL   C14 7322   8.397   1.563   5.477
  253CHOL   C15 7323   8.474   1.464   5.388
  253CHOL   C16 7324   8.450   1.519   5.246
  253CHOL   C17 7325   8.372   1.653   5.262
  253CHOL   C18 7326   8.551   1.758   5.411
  253CHOL   C19 7327   8.505   1.757   5.865
  253CHOL   C20 7328   8.400   1.747   5.143
  253CHOL   C21 7329   8.321   1.878   5.152
  253CHOL   C22 7330   8.362   1.678   5.011
  253CHOL   C23 7331   8.396   1.761   4.887
  253CHOL   C24 7332   8.335   1.696   4.762
  253CHOL   C25 7333   8.352   1.783   4.637
  253CHOL   C26 7334   8.499   1.786   4.594
  253CHOL   C27 7335   8.265   1.727   4.525
  253CHOL   O28 7336   8.323   1.602   6.268
  253CHOL   H29 7337   8.367   1.515   6.302
  254CHOL    C1 7338   9.336   2.371   5.850
  254CHOL    C2 7339   9.325   2.324   5.995
  254CHOL    C3 7340   9.191   2.365   6.058
  254CHOL    C4 7341   9.074   2.313   5.972
  254CHOL    C5 7342   9.086   2.349   5.825
  254CHOL    C6 7343   8.979   2.391   5.755
  254CHOL    C7 7344   8.979   2.417   5.606
  254CHOL    C8 7345   9.101   2.349   5.542
  254CHOL    C9 7346   9.227   2.385   5.624
  254CHOL   C10 7347   9.221   2.317   5.763
  254CHOL   C11 7348   9.354   2.345   5.546
  254CHOL   C12 7349   9.360   2.383   5.397
  254CHOL   C13 7350   9.234   2.334   5.323
  254CHOL   C14 7351   9.114   2.396   5.396
  254CHOL   C15 7352   8.994   2.368   5.305
  254CHOL   C16 7353   9.056   2.367   5.163
  254CHOL   C17 7354   9.208   2.392   5.181
  254CHOL   C18 7355   9.233   2.179   5.319
  254CHOL   C19 7356   9.235   2.164   5.748
  254CHOL   C20 7357   9.294   2.335   5.067
  254CHOL   C21 7358   9.430   2.405   5.062
  254CHOL   C22 7359   9.228   2.349   4.928
  254CHOL   C23 7360   9.305   2.275   4.818
  254CHOL   C24 7361   9.238   2.292   4.682
  254CHOL   C25 7362   9.318   2.227   4.569
  254CHOL   C26 7363   9.253   2.263   4.435
  254CHOL   C27 7364   9.319   2.074   4.583
  254CHOL   O28 7365   9.181   2.305   6.188
  254CHOL   H29 7366   9.084   2.313   6.221
  255CHOL    C1 7367   5.384   1.065   5.731
  255CHOL    C2 7368   5.390   1.023   5.879
  255CHOL    C3 7369   5.352   1.140   5.971
  255CHOL    C4 7370   5.213   1.195   5.934
  255CHOL    C5 7371   5.195   1.224   5.786
  255CHOL    C6 7372   5.123   1.330   5.744
  255CHOL    C7 7373   5.090   1.360   5.599
  255CHOL    C8 7374   5.115   1.238   5.511
  255CHOL    C9 7375   5.250   1.172   5.549
  255CHOL   C10 7376   5.244   1.115   5.692
  255CHOL   C11 7377   5.288   1.065   5.445
  255CHOL   C12 7378   5.279   1.107   5.296
  255CHOL   C13 7379   5.142   1.168   5.264
  255CHOL   C14 7380   5.121   1.283   5.364
  255CHOL   C15 7381   4.997   1.357   5.313
  255CHOL   C16 7382   5.006   1.339   5.160
  255CHOL   C17 7383   5.129   1.249   5.132
  255CHOL   C18 7384   5.034   1.058   5.272
  255CHOL   C19 7385   5.143   0.998   5.697
  255CHOL   C20 7386   5.113   1.167   5.001
  255CHOL   C21 7387   5.249   1.114   4.952
  255CHOL   C22 7388   5.050   1.251   4.889
  255CHOL   C23 7389   5.006   1.170   4.767
  255CHOL   C24 7390   4.932   1.260   4.668
  255CHOL   C25 7391   4.887   1.187   4.542
  255CHOL   C26 7392   5.006   1.146   4.455
  255CHOL   C27 7393   4.793   1.277   4.461
  255CHOL   O28 7394   5.347   1.092   6.106
  255CHOL   H29 7395   5.276   1.018   6.110
  256CHOL    C1 7396   6.190   2.869   5.826
  256CHOL    C2 7397   6.171   2.912   5.973
  256CHOL    C3 7398   6.249   3.041   6.002
  256CHOL    C4 7399   6.203   3.153   5.907
  256CHOL    C5 7400   6.206   3.113   5.761
  256CHOL    C6 7401   6.247   3.199   5.666
  256CHOL    C7 7402   6.245   3.172   5.517
  256CHOL    C8 7403   6.155   3.053   5.485
  256CHOL    C9 7404   6.185   2.938   5.585
  256CHOL   C10 7405   6.143   2.978   5.728
  256CHOL   C11 7406   6.118   2.808   5.537
  256CHOL   C12 7407   6.145   2.769   5.390
  256CHOL   C13 7408   6.109   2.884   5.294
  256CHOL   C14 7409   6.187   3.008   5.342
  256CHOL   C15 7410   6.166   3.113   5.232
  256CHOL   C16 7411   6.157   3.026   5.104
  256CHOL   C17 7412   6.167   2.878   5.150
  256CHOL   C18 7413   5.956   2.904   5.292
  256CHOL   C19 7414   5.990   2.990   5.736
  256CHOL   C20 7415   6.103   2.781   5.047
  256CHOL   C21 7416   6.136   2.634   5.077
  256CHOL   C22 7417   6.151   2.813   4.904
  256CHOL   C23 7418   6.079   2.735   4.794
  256CHOL   C24 7419   6.121   2.788   4.656
  256CHOL   C25 7420   6.050   2.716   4.540
  256CHOL   C26 7421   6.072   2.796   4.412
  256CHOL   C27 7422   6.111   2.577   4.520
  256CHOL   O28 7423   6.222   3.081   6.137
  256CHOL   H29 7424   6.123   3.107   6.145
  257DPPC    C1 7425   9.619   9.174   1.783
  257DPPC    C2 7426   9.505   9.249   1.980
  257DPPC    C3 7427   9.738   9.279   1.958
  257DPPC    N4 7428   9.628   9.187   1.929
  257DPPC    C5 7429   9.657   9.058   1.997
  257DPPC    C6 7430   9.556   8.942   1.989
  257DPPC   OS7 7431   9.602   8.819   2.047
  257DPPC    P8 7432   9.498   8.705   2.020
  257DPPC   OM9 7433   9.366   8.751   2.063
  257DPPC  OM10 7434   9.523   8.664   1.882
  257DPPC  OS11 7435   9.552   8.592   2.114
  257DPPC   C12 7436   9.529   8.623   2.251
  257DPPC   C13 7437   9.546   8.504   2.347
  257DPPC  OS14 7438   9.487   8.530   2.477
  257DPPC   C15 7439   9.360   8.489   2.501
  257DPPC   O16 7440   9.287   8.437   2.415
  257DPPC   C17 7441   9.316   8.533   2.640
  257DPPC   C18 7442   9.236   8.425   2.713
  257DPPC   C19 7443   9.189   8.478   2.849
  257DPPC   C20 7444   9.120   8.369   2.930
  257DPPC   C21 7445   9.081   8.422   3.068
  257DPPC   C22 7446   9.206   8.470   3.142
  257DPPC   C23 7447   9.175   8.509   3.287
  257DPPC   C24 7448   9.140   8.386   3.370
  257DPPC   C25 7449   9.136   8.419   3.519
  257DPPC   C26 7450   9.019   8.511   3.554
  257DPPC   C27 7451   9.022   8.543   3.704
  257DPPC   C28 7452   9.003   8.416   3.785
  257DPPC   C29 7453   9.015   8.443   3.935
  257DPPC   C30 7454   9.001   8.314   4.015
  257DPPC   C31 7455   9.016   8.340   4.165
  257DPPC   C32 7456   9.694   8.462   2.343
  257DPPC  OS33 7457   9.790   8.559   2.390
  257DPPC   C34 7458   9.922   8.540   2.359
  257DPPC   O35 7459   9.963   8.476   2.261
  257DPPC   C36 7460  10.006   8.638   2.438
  257DPPC   C37 7461  10.039   8.579   2.575
  257DPPC   C38 7462  10.075   8.687   2.677
  257DPPC   C39 7463  10.097   8.623   2.814
  257DPPC   C40 7464  10.098   8.727   2.926
  257DPPC   C41 7465  10.113   8.659   3.062
  257DPPC   C42 7466  10.098   8.760   3.176
  257DPPC   C43 7467  10.116   8.691   3.312
  257DPPC   C44 7468  10.088   8.789   3.426
  257DPPC   C45 7469  10.108   8.723   3.562
  257DPPC   C46 7470  10.077   8.821   3.675
  257DPPC   C47 7471  10.093   8.754   3.811
  257DPPC   C48 7472  10.059   8.851   3.924
  257DPPC   C49 7473  10.075   8.784   4.060
  257DPPC   C50 7474  10.042   8.881   4.173
  258DPPC    C1 7475   0.972   3.598   2.105
  258DPPC    C2 7476   1.106   3.649   1.914
  258DPPC    C3 7477   1.201   3.539   2.102
  258DPPC    N4 7478   1.106   3.642   2.061
  258DPPC    C5 7479   1.143   3.771   2.124
  258DPPC    C6 7480   1.062   3.898   2.088
  258DPPC   OS7 7481   1.091   4.013   2.169
  258DPPC    P8 7482   1.008   4.140   2.124
  258DPPC   OM9 7483   1.024   4.147   1.978
  258DPPC  OM10 7484   1.059   4.244   2.214
  258DPPC  OS11 7485   0.865   4.089   2.165
  258DPPC   C12 7486   0.833   4.110   2.302
  258DPPC   C13 7487   0.697   4.048   2.339
  258DPPC  OS14 7488   0.638   4.100   2.461
  258DPPC   C15 7489   0.507   4.136   2.455
  258DPPC   O16 7490   0.447   4.157   2.349
  258DPPC   C17 7491   0.450   4.158   2.594
  258DPPC   C18 7492   0.382   4.294   2.610
  258DPPC   C19 7493   0.314   4.299   2.747
  258DPPC   C20 7494   0.415   4.263   2.855
  258DPPC   C21 7495   0.353   4.251   2.994
  258DPPC   C22 7496   0.452   4.180   3.086
  258DPPC   C23 7497   0.399   4.160   3.228
  258DPPC   C24 7498   0.495   4.068   3.304
  258DPPC   C25 7499   0.452   4.041   3.448
  258DPPC   C26 7500   0.481   4.159   3.540
  258DPPC   C27 7501   0.450   4.122   3.685
  258DPPC   C28 7502   0.485   4.236   3.780
  258DPPC   C29 7503   0.636   4.253   3.792
  258DPPC   C30 7504   0.698   4.139   3.873
  258DPPC   C31 7505   0.849   4.154   3.884
  258DPPC   C32 7506   0.720   3.895   2.337
  258DPPC  OS33 7507   0.817   3.845   2.430
  258DPPC   C34 7508   0.764   3.793   2.544
  258DPPC   O35 7509   0.649   3.750   2.552
  258DPPC   C36 7510   0.874   3.763   2.645
  258DPPC   C37 7511   0.816   3.734   2.783
  258DPPC   C38 7512   0.762   3.861   2.848
  258DPPC   C39 7513   0.693   3.831   2.981
  258DPPC   C40 7514   0.791   3.796   3.092
  258DPPC   C41 7515   0.712   3.762   3.218
  258DPPC   C42 7516   0.800   3.754   3.343
  258DPPC   C43 7517   0.710   3.730   3.465
  258DPPC   C44 7518   0.786   3.740   3.597
  258DPPC   C45 7519   0.687   3.721   3.712
  258DPPC   C46 7520   0.752   3.738   3.850
  258DPPC   C47 7521   0.643   3.726   3.957
  258DPPC   C48 7522   0.695   3.756   4.097
  258DPPC   C49 7523   0.579   3.749   4.197
  258DPPC   C50 7524   0.624   3.787   4.338
  259DPPC    C1 7525   9.889   8.699   1.835
  259DPPC    C2 7526   9.830   8.512   1.967
  259DPPC    C3 7527   9.760   8.523   1.739
  259DPPC    N4 7528   9.870   8.554   1.832
  259DPPC    C5 7529   9.997   8.491   1.789
  259DPPC    C6 7530  10.011   8.336   1.787
  259DPPC   OS7 7531  10.027   8.278   1.917
  259DPPC    P8 7532  10.037   8.122   1.909
  259DPPC   OM9 7533   9.897   8.080   1.905
  259DPPC  OM10 7534  10.129   8.092   1.799
  259DPPC  OS11 7535  10.107   8.107   2.049
  259DPPC   C12 7536  10.017   8.069   2.152
  259DPPC   C13 7537  10.083   8.057   2.291
  259DPPC  OS14 7538   9.995   7.996   2.390
  259DPPC   C15 7539  10.043   7.877   2.438
  259DPPC   O16 7540  10.150   7.828   2.401
  259DPPC   C17 7541   9.949   7.815   2.540
  259DPPC   C18 7542  10.017   7.705   2.621
  259DPPC   C19 7543  10.105   7.760   2.734
  259DPPC   C20 7544  10.020   7.818   2.847
  259DPPC   C21 7545  10.102   7.828   2.976
  259DPPC   C22 7546  10.019   7.887   3.090
  259DPPC   C23 7547  10.090   7.869   3.225
  259DPPC   C24 7548  10.010   7.931   3.339
  259DPPC   C25 7549  10.067   7.892   3.475
  259DPPC   C26 7550   9.987   7.953   3.589
  259DPPC   C27 7551  10.021   7.888   3.723
  259DPPC   C28 7552   9.941   7.951   3.837
  259DPPC   C29 7553   9.953   7.870   3.966
  259DPPC   C30 7554   9.881   7.736   3.951
  259DPPC   C31 7555   9.886   7.655   4.081
  259DPPC   C32 7556  10.140   8.196   2.324
  259DPPC  OS33 7557   0.003   8.232   2.462
  259DPPC   C34 7558   0.117   8.193   2.526
  259DPPC   O35 7559   0.220   8.158   2.469
  259DPPC   C36 7560   0.110   8.236   2.671
  259DPPC   C37 7561   0.177   8.135   2.765
  259DPPC   C38 7562   0.183   8.193   2.907
  259DPPC   C39 7563   0.246   8.095   3.006
  259DPPC   C40 7564   0.272   8.164   3.140
  259DPPC   C41 7565   0.144   8.204   3.213
  259DPPC   C42 7566   0.177   8.286   3.337
  259DPPC   C43 7567   0.261   8.205   3.436
  259DPPC   C44 7568   0.317   8.292   3.548
  259DPPC   C45 7569   0.211   8.333   3.650
  259DPPC   C46 7570   0.164   8.210   3.729
  259DPPC   C47 7571   0.065   8.251   3.839
  259DPPC   C48 7572   0.135   8.325   3.952
  259DPPC   C49 7573   0.033   8.368   4.058
  259DPPC   C50 7574  10.123   8.246   4.121
  260DPPC    C1 7575   1.896   5.453   2.053
  260DPPC    C2 7576   1.899   5.532   2.277
  260DPPC    C3 7577   1.973   5.311   2.230
  260DPPC    N4 7578   1.875   5.414   2.193
  260DPPC    C5 7579   1.736   5.369   2.215
  260DPPC    C6 7580   1.684   5.242   2.142
  260DPPC   OS7 7581   1.544   5.221   2.157
  260DPPC    P8 7582   1.487   5.112   2.060
  260DPPC   OM9 7583   1.565   5.119   1.936
  260DPPC  OM10 7584   1.343   5.141   2.061
  260DPPC  OS11 7585   1.517   4.985   2.147
  260DPPC   C12 7586   1.425   4.973   2.256
  260DPPC   C13 7587   1.453   4.855   2.350
  260DPPC  OS14 7588   1.341   4.828   2.438
  260DPPC   C15 7589   1.294   4.701   2.442
  260DPPC   O16 7590   1.334   4.611   2.366
  260DPPC   C17 7591   1.183   4.685   2.543
  260DPPC   C18 7592   1.231   4.615   2.671
  260DPPC   C19 7593   1.317   4.707   2.757
  260DPPC   C20 7594   1.347   4.640   2.891
  260DPPC   C21 7595   1.435   4.730   2.979
  260DPPC   C22 7596   1.453   4.669   3.118
  260DPPC   C23 7597   1.318   4.663   3.189
  260DPPC   C24 7598   1.332   4.609   3.332
  260DPPC   C25 7599   1.400   4.711   3.423
  260DPPC   C26 7600   1.403   4.658   3.567
  260DPPC   C27 7601   1.452   4.765   3.665
  260DPPC   C28 7602   1.444   4.712   3.808
  260DPPC   C29 7603   1.298   4.681   3.845
  260DPPC   C30 7604   1.288   4.627   3.988
  260DPPC   C31 7605   1.144   4.591   4.023
  260DPPC   C32 7606   1.586   4.888   2.421
  260DPPC  OS33 7607   1.640   4.782   2.504
  260DPPC   C34 7608   1.709   4.825   2.614
  260DPPC   O35 7609   1.729   4.943   2.643
  260DPPC   C36 7610   1.760   4.705   2.692
  260DPPC   C37 7611   1.808   4.743   2.832
  260DPPC   C38 7612   1.851   4.616   2.907
  260DPPC   C39 7613   1.890   4.647   3.052
  260DPPC   C40 7614   1.927   4.517   3.125
  260DPPC   C41 7615   1.961   4.544   3.272
  260DPPC   C42 7616   1.838   4.592   3.349
  260DPPC   C43 7617   1.870   4.610   3.497
  260DPPC   C44 7618   1.974   4.720   3.517
  260DPPC   C45 7619   2.006   4.740   3.666
  260DPPC   C46 7620   1.885   4.796   3.741
  260DPPC   C47 7621   1.920   4.827   3.886
  260DPPC   C48 7622   1.796   4.875   3.962
  260DPPC   C49 7623   1.747   5.009   3.908
  260DPPC   C50 7624   1.617   5.052   3.976
  261DPPC    C1 7625   1.031   5.520   1.855
  261DPPC    C2 7626   1.201   5.373   1.928
  261DPPC    C3 7627   0.973   5.312   1.953
  261DPPC    N4 7628   1.069   5.378   1.865
  261DPPC    C5 7629   1.070   5.319   1.729
  261DPPC    C6 7630   1.119   5.174   1.702
  261DPPC   OS7 7631   1.041   5.068   1.758
  261DPPC    P8 7632   1.090   4.928   1.704
  261DPPC   OM9 7633   1.010   4.897   1.584
  261DPPC  OM10 7634   1.236   4.920   1.702
  261DPPC  OS11 7635   1.036   4.837   1.819
  261DPPC   C12 7636   1.100   4.861   1.944
  261DPPC   C13 7637   1.004   4.838   2.062
  261DPPC  OS14 7638   1.051   4.903   2.183
  261DPPC   C15 7639   0.984   5.017   2.216
  261DPPC   O16 7640   0.895   5.064   2.145
  261DPPC   C17 7641   1.044   5.084   2.339
  261DPPC   C18 7642   1.010   5.010   2.468
  261DPPC   C19 7643   0.863   5.028   2.507
  261DPPC   C20 7644   0.833   4.950   2.635
  261DPPC   C21 7645   0.909   5.008   2.755
  261DPPC   C22 7646   0.878   4.930   2.882
  261DPPC   C23 7647   0.953   4.986   3.003
  261DPPC   C24 7648   0.920   4.907   3.130
  261DPPC   C25 7649   1.001   4.958   3.249
  261DPPC   C26 7650   0.969   4.881   3.377
  261DPPC   C27 7651   1.061   4.924   3.490
  261DPPC   C28 7652   1.034   5.069   3.531
  261DPPC   C29 7653   1.139   5.120   3.630
  261DPPC   C30 7654   1.130   5.047   3.765
  261DPPC   C31 7655   1.234   5.102   3.863
  261DPPC   C32 7656   0.971   4.688   2.066
  261DPPC  OS33 7657   0.872   4.649   2.163
  261DPPC   C34 7658   0.852   4.514   2.174
  261DPPC   O35 7659   0.872   4.435   2.081
  261DPPC   C36 7660   0.768   4.483   2.296
  261DPPC   C37 7661   0.851   4.497   2.424
  261DPPC   C38 7662   0.764   4.471   2.547
  261DPPC   C39 7663   0.843   4.485   2.677
  261DPPC   C40 7664   0.937   4.366   2.698
  261DPPC   C41 7665   0.859   4.241   2.741
  261DPPC   C42 7666   0.808   4.255   2.885
  261DPPC   C43 7667   0.923   4.248   2.985
  261DPPC   C44 7668   0.871   4.247   3.129
  261DPPC   C45 7669   0.815   4.383   3.169
  261DPPC   C46 7670   0.751   4.377   3.308
  261DPPC   C47 7671   0.853   4.362   3.420
  261DPPC   C48 7672   0.936   4.490   3.437
  261DPPC   C49 7673   1.026   4.483   3.560
  261DPPC   C50 7674   0.943   4.490   3.688
  262DPPC    C1 7675   1.136   6.805   1.958
  262DPPC    C2 7676   1.178   6.780   2.192
  262DPPC    C3 7677   0.999   6.915   2.119
  262DPPC    N4 7678   1.136   6.874   2.087
  262DPPC    C5 7679   1.221   6.995   2.086
  262DPPC    C6 7680   1.371   6.984   2.047
  262DPPC   OS7 7681   1.452   6.907   2.136
  262DPPC    P8 7682   1.587   6.873   2.063
  262DPPC   OM9 7683   1.637   7.001   2.011
  262DPPC  OM10 7684   1.547   6.761   1.975
  262DPPC  OS11 7685   1.664   6.826   2.190
  262DPPC   C12 7686   1.694   6.687   2.192
  262DPPC   C13 7687   1.754   6.637   2.324
  262DPPC  OS14 7688   1.771   6.493   2.322
  262DPPC   C15 7689   1.897   6.445   2.304
  262DPPC   O16 7690   1.994   6.520   2.290
  262DPPC   C17 7691   1.899   6.294   2.293
  262DPPC   C18 7692   1.853   6.226   2.423
  262DPPC   C19 7693   1.964   6.227   2.528
  262DPPC   C20 7694   1.916   6.165   2.659
  262DPPC   C21 7695   2.026   6.162   2.764
  262DPPC   C22 7696   1.972   6.111   2.898
  262DPPC   C23 7697   1.866   6.208   2.950
  262DPPC   C24 7698   1.801   6.158   3.079
  262DPPC   C25 7699   1.891   6.174   3.202
  262DPPC   C26 7700   1.813   6.128   3.325
  262DPPC   C27 7701   1.886   6.159   3.456
  262DPPC   C28 7702   1.801   6.114   3.574
  262DPPC   C29 7703   1.868   6.145   3.707
  262DPPC   C30 7704   1.780   6.100   3.824
  262DPPC   C31 7705   1.847   6.132   3.958
  262DPPC   C32 7706   1.655   6.687   2.431
  262DPPC  OS33 7707   1.696   6.691   2.569
  262DPPC   C34 7708   1.607   6.756   2.650
  262DPPC   O35 7709   1.509   6.817   2.607
  262DPPC   C36 7710   1.655   6.754   2.794
  262DPPC   C37 7711   1.547   6.799   2.893
  262DPPC   C38 7712   1.602   6.792   3.035
  262DPPC   C39 7713   1.495   6.829   3.138
  262DPPC   C40 7714   1.549   6.817   3.280
  262DPPC   C41 7715   1.437   6.846   3.381
  262DPPC   C42 7716   1.483   6.828   3.525
  262DPPC   C43 7717   1.586   6.933   3.566
  262DPPC   C44 7718   1.624   6.915   3.713
  262DPPC   C45 7719   1.725   7.020   3.758
  262DPPC   C46 7720   1.666   7.161   3.754
  262DPPC   C47 7721   1.766   7.261   3.812
  262DPPC   C48 7722   1.781   7.240   3.963
  262DPPC   C49 7723   1.888   7.332   4.020
  262DPPC   C50 7724   1.848   7.479   4.008
  263DPPC    C1 7725   2.427   4.675   1.895
  263DPPC    C2 7726   2.204   4.731   1.834
  263DPPC    C3 7727   2.273   4.733   2.064
  263DPPC    N4 7728   2.314   4.763   1.926
  263DPPC    C5 7729   2.360   4.903   1.910
  263DPPC    C6 7730   2.267   5.023   1.940
  263DPPC   OS7 7731   2.333   5.148   1.920
  263DPPC    P8 7732   2.238   5.273   1.933
  263DPPC   OM9 7733   2.292   5.373   1.841
  263DPPC  OM10 7734   2.096   5.235   1.930
  263DPPC  OS11 7735   2.273   5.310   2.081
  263DPPC   C12 7736   2.400   5.372   2.094
  263DPPC   C13 7737   2.449   5.388   2.239
  263DPPC  OS14 7738   2.569   5.469   2.252
  263DPPC   C15 7739   2.544   5.599   2.284
  263DPPC   O16 7740   2.429   5.645   2.286
  263DPPC   C17 7741   2.672   5.676   2.311
  263DPPC   C18 7742   2.741   5.621   2.436
  263DPPC   C19 7743   2.665   5.663   2.561
  263DPPC   C20 7744   2.724   5.600   2.687
  263DPPC   C21 7745   2.651   5.653   2.810
  263DPPC   C22 7746   2.702   5.589   2.939
  263DPPC   C23 7747   2.632   5.655   3.059
  263DPPC   C24 7748   2.676   5.593   3.192
  263DPPC   C25 7749   2.608   5.668   3.306
  263DPPC   C26 7750   2.647   5.610   3.443
  263DPPC   C27 7751   2.583   5.694   3.554
  263DPPC   C28 7752   2.615   5.637   3.692
  263DPPC   C29 7753   2.555   5.726   3.801
  263DPPC   C30 7754   2.583   5.668   3.940
  263DPPC   C31 7755   2.528   5.761   4.049
  263DPPC   C32 7756   2.460   5.247   2.300
  263DPPC  OS33 7757   2.340   5.203   2.367
  263DPPC   C34 7758   2.306   5.072   2.356
  263DPPC   O35 7759   2.363   4.991   2.282
  263DPPC   C36 7760   2.186   5.041   2.443
  263DPPC   C37 7761   2.219   5.074   2.589
  263DPPC   C38 7762   2.097   5.059   2.681
  263DPPC   C39 7763   2.138   5.087   2.825
  263DPPC   C40 7764   2.018   5.086   2.920
  263DPPC   C41 7765   2.065   5.110   3.064
  263DPPC   C42 7766   2.135   4.985   3.119
  263DPPC   C43 7767   2.210   5.016   3.248
  263DPPC   C44 7768   2.116   5.057   3.362
  263DPPC   C45 7769   2.198   5.089   3.487
  263DPPC   C46 7770   2.109   5.134   3.603
  263DPPC   C47 7771   2.195   5.170   3.725
  263DPPC   C48 7772   2.107   5.210   3.844
  263DPPC   C49 7773   2.194   5.251   3.963
  263DPPC   C50 7774   2.276   5.133   4.014
  264DPPC    C1 7775   2.264   5.703   1.866
  264DPPC    C2 7776   2.134   5.899   1.889
  264DPPC    C3 7777   2.291   5.887   1.714
  264DPPC    N4 7778   2.268   5.849   1.854
  264DPPC    C5 7779   2.367   5.912   1.945
  264DPPC    C6 7780   2.518   5.884   1.922
  264DPPC   OS7 7781   2.606   5.973   1.990
  264DPPC    P8 7782   2.755   5.940   1.954
  264DPPC   OM9 7783   2.777   5.986   1.816
  264DPPC  OM10 7784   2.782   5.801   1.990
  264DPPC  OS11 7785   2.825   6.039   2.053
  264DPPC   C12 7786   2.836   5.979   2.182
  264DPPC   C13 7787   2.885   6.067   2.299
  264DPPC  OS14 7788   2.941   5.984   2.405
  264DPPC   C15 7789   2.989   6.044   2.518
  264DPPC   O16 7790   3.025   6.162   2.520
  264DPPC   C17 7791   3.032   5.938   2.618
  264DPPC   C18 7792   3.025   5.988   2.763
  264DPPC   C19 7793   2.882   5.984   2.816
  264DPPC   C20 7794   2.876   6.035   2.960
  264DPPC   C21 7795   2.948   5.944   3.059
  264DPPC   C22 7796   2.943   6.004   3.199
  264DPPC   C23 7797   2.799   6.010   3.250
  264DPPC   C24 7798   2.788   6.088   3.381
  264DPPC   C25 7799   2.857   6.016   3.498
  264DPPC   C26 7800   2.845   6.100   3.625
  264DPPC   C27 7801   2.918   6.034   3.743
  264DPPC   C28 7802   2.913   6.123   3.867
  264DPPC   C29 7803   2.985   6.255   3.840
  264DPPC   C30 7804   2.990   6.344   3.964
  264DPPC   C31 7805   3.086   6.287   4.069
  264DPPC   C32 7806   2.768   6.162   2.332
  264DPPC  OS33 7807   2.645   6.095   2.366
  264DPPC   C34 7808   2.538   6.171   2.402
  264DPPC   O35 7809   2.534   6.295   2.398
  264DPPC   C36 7810   2.419   6.081   2.431
  264DPPC   C37 7811   2.443   5.998   2.558
  264DPPC   C38 7812   2.419   6.082   2.683
  264DPPC   C39 7813   2.438   5.998   2.810
  264DPPC   C40 7814   2.391   6.078   2.932
  264DPPC   C41 7815   2.409   6.000   3.062
  264DPPC   C42 7816   2.349   6.080   3.178
  264DPPC   C43 7817   2.375   6.014   3.313
  264DPPC   C44 7818   2.309   6.097   3.424
  264DPPC   C45 7819   2.346   6.046   3.563
  264DPPC   C46 7820   2.276   6.131   3.670
  264DPPC   C47 7821   2.322   6.093   3.811
  264DPPC   C48 7822   2.466   6.140   3.837
  264DPPC   C49 7823   2.475   6.293   3.845
  264DPPC   C50 7824   2.406   6.347   3.970
  265DPPC    C1 7825   1.536   4.612   2.081
  265DPPC    C2 7826   1.677   4.471   1.950
  265DPPC    C3 7827   1.491   4.585   1.851
  265DPPC    N4 7828   1.599   4.595   1.950
  265DPPC    C5 7829   1.682   4.712   1.915
  265DPPC    C6 7830   1.812   4.742   1.993
  265DPPC   OS7 7831   1.795   4.779   2.130
  265DPPC    P8 7832   1.927   4.838   2.192
  265DPPC   OM9 7833   2.006   4.898   2.085
  265DPPC  OM10 7834   1.894   4.915   2.313
  265DPPC  OS11 7835   1.996   4.702   2.230
  265DPPC   C12 7836   1.946   4.646   2.350
  265DPPC   C13 7837   2.004   4.508   2.382
  265DPPC  OS14 7838   1.938   4.444   2.496
  265DPPC   C15 7839   1.956   4.310   2.515
  265DPPC   O16 7840   2.028   4.240   2.443
  265DPPC   C17 7841   1.879   4.260   2.636
  265DPPC   C18 7842   1.911   4.113   2.661
  265DPPC   C19 7843   1.837   4.056   2.781
  265DPPC   C20 7844   1.883   4.119   2.913
  265DPPC   C21 7845   1.827   4.039   3.031
  265DPPC   C22 7846   1.866   4.099   3.167
  265DPPC   C23 7847   1.826   4.002   3.278
  265DPPC   C24 7848   1.852   4.058   3.418
  265DPPC   C25 7849   1.753   4.170   3.450
  265DPPC   C26 7850   1.749   4.203   3.599
  265DPPC   C27 7851   1.638   4.305   3.626
  265DPPC   C28 7852   1.614   4.326   3.776
  265DPPC   C29 7853   1.731   4.399   3.843
  265DPPC   C30 7854   1.698   4.422   3.990
  265DPPC   C31 7855   1.811   4.497   4.062
  265DPPC   C32 7856   2.156   4.527   2.392
  265DPPC  OS33 7857   2.203   4.610   2.500
  265DPPC   C34 7858   2.337   4.634   2.502
  265DPPC   O35 7859   2.407   4.640   2.401
  265DPPC   C36 7860   2.374   4.697   2.636
  265DPPC   C37 7861   2.272   4.656   2.742
  265DPPC   C38 7862   2.304   4.719   2.878
  265DPPC   C39 7863   2.431   4.660   2.939
  265DPPC   C40 7864   2.459   4.724   3.075
  265DPPC   C41 7865   2.584   4.664   3.139
  265DPPC   C42 7866   2.612   4.728   3.275
  265DPPC   C43 7867   2.504   4.693   3.377
  265DPPC   C44 7868   2.538   4.752   3.514
  265DPPC   C45 7869   2.432   4.714   3.618
  265DPPC   C46 7870   2.471   4.763   3.757
  265DPPC   C47 7871   2.366   4.722   3.860
  265DPPC   C48 7872   2.405   4.765   4.002
  265DPPC   C49 7873   2.298   4.724   4.102
  265DPPC   C50 7874   2.334   4.770   4.244
  266DPPC    C1 7875   4.971   9.279   1.820
  266DPPC    C2 7876   4.868   9.323   1.610
  266DPPC    C3 7877   4.844   9.480   1.789
  266DPPC    N4 7878   4.853   9.337   1.755
  266DPPC    C5 7879   4.729   9.265   1.792
  266DPPC    C6 7880   4.687   9.252   1.940
  266DPPC   OS7 7881   4.575   9.165   1.954
  266DPPC    P8 7882   4.563   9.109   2.100
  266DPPC   OM9 7883   4.696   9.066   2.143
  266DPPC  OM10 7884   4.452   9.014   2.092
  266DPPC  OS11 7885   4.516   9.241   2.170
  266DPPC   C12 7886   4.541   9.235   2.310
  266DPPC   C13 7887   4.568   9.375   2.368
  266DPPC  OS14 7888   4.629   9.374   2.500
  266DPPC   C15 7889   4.765   9.383   2.496
  266DPPC   O16 7890   4.828   9.371   2.391
  266DPPC   C17 7891   4.823   9.401   2.634
  266DPPC   C18 7892   4.886   9.272   2.687
  266DPPC   C19 7893   4.932   9.291   2.832
  266DPPC   C20 7894   4.984   9.161   2.892
  266DPPC   C21 7895   5.023   9.182   3.038
  266DPPC   C22 7896   5.078   9.051   3.096
  266DPPC   C23 7897   5.125   9.068   3.241
  266DPPC   C24 7898   5.009   9.081   3.339
  266DPPC   C25 7899   5.065   9.078   3.482
  266DPPC   C26 7900   4.956   9.083   3.589
  266DPPC   C27 7901   5.021   9.071   3.727
  266DPPC   C28 7902   4.918   9.078   3.840
  266DPPC   C29 7903   4.988   9.063   3.976
  266DPPC   C30 7904   4.888   9.067   4.091
  266DPPC   C31 7905   4.959   9.049   4.225
  266DPPC   C32 7906   4.438   9.455   2.351
  266DPPC  OS33 7907   4.328   9.412   2.433
  266DPPC   C34 7908   4.203   9.449   2.395
  266DPPC   O35 7909   4.176   9.504   2.288
  266DPPC   C36 7910   4.102   9.413   2.503
  266DPPC   C37 7911   4.021   9.538   2.539
  266DPPC   C38 7912   3.939   9.515   2.666
  266DPPC   C39 7913   3.861   9.641   2.703
  266DPPC   C40 7914   3.782   9.622   2.833
  266DPPC   C41 7915   3.875   9.614   2.954
  266DPPC   C42 7916   3.791   9.603   3.082
  266DPPC   C43 7917   3.880   9.598   3.207
  266DPPC   C44 7918   3.793   9.589   3.332
  266DPPC   C45 7919   3.878   9.584   3.459
  266DPPC   C46 7920   3.790   9.579   3.584
  266DPPC   C47 7921   3.874   9.580   3.711
  266DPPC   C48 7922   3.786   9.585   3.836
  266DPPC   C49 7923   3.872   9.596   3.962
  266DPPC   C50 7924   3.784   9.610   4.086
  267DPPC    C1 7925   4.134   7.121   2.125
  267DPPC    C2 7926   4.280   7.303   2.165
  267DPPC    C3 7927   4.246   7.224   1.941
  267DPPC    N4 7928   4.181   7.249   2.071
  267DPPC    C5 7929   4.064   7.339   2.058
  267DPPC    C6 7930   4.080   7.480   1.994
  267DPPC   OS7 7931   4.166   7.570   2.063
  267DPPC    P8 7932   4.166   7.716   2.005
  267DPPC   OM9 7933   4.302   7.766   1.985
  267DPPC  OM10 7934   4.067   7.726   1.897
  267DPPC  OS11 7935   4.100   7.786   2.129
  267DPPC   C12 7936   4.196   7.814   2.232
  267DPPC   C13 7937   4.140   7.902   2.345
  267DPPC  OS14 7938   4.244   7.949   2.436
  267DPPC   C15 7939   4.240   8.077   2.482
  267DPPC   O16 7940   4.172   8.165   2.429
  267DPPC   C17 7941   4.351   8.102   2.583
  267DPPC   C18 7942   4.310   8.071   2.727
  267DPPC   C19 7943   4.431   8.093   2.818
  267DPPC   C20 7944   4.401   8.067   2.966
  267DPPC   C21 7945   4.304   8.171   3.023
  267DPPC   C22 7946   4.308   8.170   3.176
  267DPPC   C23 7947   4.266   8.034   3.233
  267DPPC   C24 7948   4.288   8.027   3.384
  267DPPC   C25 7949   4.189   8.115   3.460
  267DPPC   C26 7950   4.216   8.109   3.611
  267DPPC   C27 7951   4.117   8.198   3.687
  267DPPC   C28 7952   4.152   8.208   3.836
  267DPPC   C29 7953   4.127   8.077   3.910
  267DPPC   C30 7954   4.158   8.092   4.059
  267DPPC   C31 7955   4.130   7.963   4.135
  267DPPC   C32 7956   4.028   7.819   2.411
  267DPPC  OS33 7957   4.070   7.720   2.508
  267DPPC   C34 7958   4.052   7.758   2.638
  267DPPC   O35 7959   3.985   7.856   2.673
  267DPPC   C36 7960   4.112   7.657   2.733
  267DPPC   C37 7961   4.112   7.707   2.878
  267DPPC   C38 7962   4.196   7.613   2.965
  267DPPC   C39 7963   4.206   7.660   3.110
  267DPPC   C40 7964   4.079   7.632   3.191
  267DPPC   C41 7965   4.096   7.685   3.333
  267DPPC   C42 7966   3.979   7.652   3.425
  267DPPC   C43 7967   3.997   7.724   3.558
  267DPPC   C44 7968   3.891   7.688   3.662
  267DPPC   C45 7969   3.907   7.777   3.785
  267DPPC   C46 7970   3.809   7.743   3.897
  267DPPC   C47 7971   3.848   7.613   3.967
  267DPPC   C48 7972   3.758   7.588   4.088
  267DPPC   C49 7973   3.800   7.462   4.164
  267DPPC   C50 7974   3.710   7.439   4.286
  268DPPC    C1 7975   4.091   9.224   2.020
  268DPPC    C2 7976   4.261   9.185   1.860
  268DPPC    C3 7977   4.273   9.376   2.000
  268DPPC    N4 7978   4.181   9.290   1.925
  268DPPC    C5 7979   4.111   9.365   1.818
  268DPPC    C6 7980   4.013   9.481   1.851
  268DPPC   OS7 7981   3.889   9.440   1.910
  268DPPC    P8 7982   3.800   9.565   1.940
  268DPPC   OM9 7983   3.755   9.616   1.810
  268DPPC  OM10 7984   3.875   9.647   2.036
  268DPPC  OS11 7985   3.679   9.490   2.006
  268DPPC   C12 7986   3.699   9.469   2.145
  268DPPC   C13 7987   3.582   9.395   2.214
  268DPPC  OS14 7988   3.581   9.417   2.357
  268DPPC   C15 7989   3.459   9.423   2.418
  268DPPC   O16 7990   3.353   9.421   2.355
  268DPPC   C17 7991   3.473   9.453   2.566
  268DPPC   C18 7992   3.462   9.326   2.651
  268DPPC   C19 7993   3.484   9.359   2.798
  268DPPC   C20 7994   3.478   9.234   2.886
  268DPPC   C21 7995   3.511   9.268   3.031
  268DPPC   C22 7996   3.401   9.351   3.097
  268DPPC   C23 7997   3.437   9.378   3.244
  268DPPC   C24 7998   3.454   9.246   3.319
  268DPPC   C25 7999   3.485   9.268   3.467
  268DPPC   C26 8000   3.514   9.134   3.534
  268DPPC   C27 8001   3.539   9.151   3.684
  268DPPC   C28 8002   3.584   9.018   3.746
  268DPPC   C29 8003   3.474   8.913   3.743
  268DPPC   C30 8004   3.525   8.779   3.797
  268DPPC   C31 8005   3.629   8.718   3.704
  268DPPC   C32 8006   3.586   9.249   2.165
  268DPPC  OS33 8007   3.705   9.172   2.198
  268DPPC   C34 8008   3.703   9.108   2.319
  268DPPC   O35 8009   3.599   9.071   2.374
  268DPPC   C36 8010   3.840   9.050   2.347
  268DPPC   C37 8011   3.850   8.995   2.490
  268DPPC   C38 8012   3.861   9.107   2.593
  268DPPC   C39 8013   3.870   9.046   2.733
  268DPPC   C40 8014   3.883   9.152   2.843
  268DPPC   C41 8015   3.886   9.082   2.979
  268DPPC   C42 8016   3.901   9.178   3.097
  268DPPC   C43 8017   3.902   9.095   3.225
  268DPPC   C44 8018   3.925   9.177   3.352
  268DPPC   C45 8019   3.941   9.079   3.469
  268DPPC   C46 8020   3.974   9.147   3.601
  268DPPC   C47 8021   4.003   9.039   3.706
  268DPPC   C48 8022   4.035   9.099   3.843
  268DPPC   C49 8023   3.911   9.163   3.905
  268DPPC   C50 8024   3.940   9.215   4.046
  269DPPC    C1 8025   3.650   4.635   1.773
  269DPPC    C2 8026   3.701   4.719   1.989
  269DPPC    C3 8027   3.485   4.758   1.892
  269DPPC    N4 8028   3.594   4.660   1.907
  269DPPC    C5 8029   3.550   4.530   1.961
  269DPPC    C6 8030   3.485   4.519   2.101
  269DPPC   OS7 8031   3.352   4.570   2.114
  269DPPC    P8 8032   3.286   4.505   2.241
  269DPPC   OM9 8033   3.277   4.365   2.199
  269DPPC  OM10 8034   3.369   4.548   2.354
  269DPPC  OS11 8035   3.145   4.574   2.234
  269DPPC   C12 8036   3.133   4.682   2.325
  269DPPC   C13 8037   2.997   4.755   2.316
  269DPPC  OS14 8038   2.995   4.881   2.387
  269DPPC   C15 8039   2.940   4.987   2.322
  269DPPC   O16 8040   2.920   4.984   2.200
  269DPPC   C17 8041   2.929   5.110   2.410
  269DPPC   C18 8042   2.866   5.078   2.546
  269DPPC   C19 8043   2.721   5.031   2.533
  269DPPC   C20 8044   2.652   5.026   2.669
  269DPPC   C21 8045   2.619   5.168   2.715
  269DPPC   C22 8046   2.546   5.170   2.849
  269DPPC   C23 8047   2.641   5.147   2.967
  269DPPC   C24 8048   2.565   5.164   3.099
  269DPPC   C25 8049   2.658   5.156   3.220
  269DPPC   C26 8050   2.582   5.180   3.350
  269DPPC   C27 8051   2.676   5.180   3.471
  269DPPC   C28 8052   2.598   5.210   3.599
  269DPPC   C29 8053   2.690   5.216   3.720
  269DPPC   C30 8054   2.748   5.078   3.753
  269DPPC   C31 8055   2.840   5.084   3.875
  269DPPC   C32 8056   2.889   4.653   2.359
  269DPPC  OS33 8057   2.891   4.616   2.499
  269DPPC   C34 8058   2.777   4.561   2.549
  269DPPC   O35 8059   2.683   4.521   2.480
  269DPPC   C36 8060   2.786   4.546   2.700
  269DPPC   C37 8061   2.929   4.515   2.743
  269DPPC   C38 8062   2.951   4.530   2.894
  269DPPC   C39 8063   2.891   4.417   2.978
  269DPPC   C40 8064   2.925   4.443   3.124
  269DPPC   C41 8065   2.875   4.334   3.219
  269DPPC   C42 8066   2.910   4.371   3.363
  269DPPC   C43 8067   2.864   4.265   3.463
  269DPPC   C44 8068   2.898   4.307   3.606
  269DPPC   C45 8069   2.818   4.430   3.647
  269DPPC   C46 8070   2.851   4.474   3.790
  269DPPC   C47 8071   2.801   4.372   3.892
  269DPPC   C48 8072   2.829   4.420   4.035
  269DPPC   C49 8073   2.780   4.318   4.138
  269DPPC   C50 8074   2.863   4.190   4.133
  270DPPC    C1 8075   3.107   6.094   1.879
  270DPPC    C2 8076   3.278   6.062   1.714
  270DPPC    C3 8077   3.065   5.964   1.684
  270DPPC    N4 8078   3.167   5.997   1.785
  270DPPC    C5 8079   3.212   5.871   1.849
  270DPPC    C6 8080   3.307   5.881   1.970
  270DPPC   OS7 8081   3.383   5.765   2.003
  270DPPC    P8 8082   3.441   5.779   2.149
  270DPPC   OM9 8083   3.333   5.736   2.239
  270DPPC  OM10 8084   3.496   5.916   2.156
  270DPPC  OS11 8085   3.552   5.670   2.132
  270DPPC   C12 8086   3.499   5.539   2.157
  270DPPC   C13 8087   3.601   5.424   2.153
  270DPPC  OS14 8088   3.540   5.292   2.173
  270DPPC   C15 8089   3.615   5.181   2.147
  270DPPC   O16 8090   3.733   5.186   2.112
  270DPPC   C17 8091   3.542   5.054   2.187
  270DPPC   C18 8092   3.507   5.061   2.336
  270DPPC   C19 8093   3.454   4.927   2.387
  270DPPC   C20 8094   3.414   4.939   2.535
  270DPPC   C21 8095   3.374   4.802   2.589
  270DPPC   C22 8096   3.328   4.810   2.735
  270DPPC   C23 8097   3.193   4.880   2.748
  270DPPC   C24 8098   3.146   4.871   2.893
  270DPPC   C25 8099   3.008   4.936   2.911
  270DPPC   C26 8100   2.957   4.910   3.053
  270DPPC   C27 8101   3.050   4.976   3.155
  270DPPC   C28 8102   2.998   4.956   3.298
  270DPPC   C29 8103   3.009   4.809   3.341
  270DPPC   C30 8104   2.956   4.791   3.483
  270DPPC   C31 8105   3.043   4.867   3.583
  270DPPC   C32 8106   3.714   5.463   2.250
  270DPPC  OS33 8107   3.678   5.497   2.385
  270DPPC   C34 8108   3.722   5.412   2.482
  270DPPC   O35 8109   3.792   5.312   2.462
  270DPPC   C36 8110   3.682   5.463   2.619
  270DPPC   C37 8111   3.791   5.557   2.673
  270DPPC   C38 8112   3.746   5.625   2.802
  270DPPC   C39 8113   3.745   5.532   2.923
  270DPPC   C40 8114   3.690   5.608   3.044
  270DPPC   C41 8115   3.706   5.530   3.174
  270DPPC   C42 8116   3.642   5.606   3.290
  270DPPC   C43 8117   3.665   5.535   3.423
  270DPPC   C44 8118   3.597   5.613   3.536
  270DPPC   C45 8119   3.625   5.552   3.673
  270DPPC   C46 8120   3.553   5.633   3.781
  270DPPC   C47 8121   3.586   5.582   3.922
  270DPPC   C48 8122   3.509   5.663   4.027
  270DPPC   C49 8123   3.556   5.809   4.028
  270DPPC   C50 8124   3.481   5.891   4.133
  271DPPC    C1 8125   5.192   5.696   2.166
  271DPPC    C2 8126   5.397   5.587   2.119
  271DPPC    C3 8127   5.201   5.513   2.011
  271DPPC    N4 8128   5.253   5.565   2.137
  271DPPC    C5 8129   5.236   5.470   2.249
  271DPPC    C6 8130   5.095   5.417   2.287
  271DPPC   OS7 8131   5.034   5.320   2.200
  271DPPC    P8 8132   5.086   5.172   2.220
  271DPPC   OM9 8133   5.146   5.135   2.091
  271DPPC  OM10 8134   5.161   5.162   2.345
  271DPPC  OS11 8135   4.950   5.096   2.235
  271DPPC   C12 8136   4.896   5.105   2.367
  271DPPC   C13 8137   4.764   5.028   2.381
  271DPPC  OS14 8138   4.678   5.082   2.485
  271DPPC   C15 8139   4.544   5.060   2.471
  271DPPC   O16 8140   4.496   5.005   2.371
  271DPPC   C17 8141   4.467   5.113   2.590
  271DPPC   C18 8142   4.506   5.036   2.717
  271DPPC   C19 8143   4.439   5.096   2.840
  271DPPC   C20 8144   4.475   5.018   2.967
  271DPPC   C21 8145   4.414   5.086   3.090
  271DPPC   C22 8146   4.454   5.014   3.219
  271DPPC   C23 8147   4.406   5.096   3.339
  271DPPC   C24 8148   4.455   5.036   3.472
  271DPPC   C25 8149   4.370   4.917   3.516
  271DPPC   C26 8150   4.231   4.962   3.559
  271DPPC   C27 8151   4.153   4.845   3.619
  271DPPC   C28 8152   4.219   4.800   3.750
  271DPPC   C29 8153   4.147   4.680   3.811
  271DPPC   C30 8154   4.214   4.636   3.941
  271DPPC   C31 8155   4.142   4.516   4.002
  271DPPC   C32 8156   4.803   4.879   2.387
  271DPPC  OS33 8157   4.876   4.839   2.504
  271DPPC   C34 8158   4.816   4.746   2.583
  271DPPC   O35 8159   4.719   4.677   2.549
  271DPPC   C36 8160   4.897   4.726   2.710
  271DPPC   C37 8161   4.810   4.730   2.836
  271DPPC   C38 8162   4.899   4.752   2.959
  271DPPC   C39 8163   4.819   4.756   3.089
  271DPPC   C40 8164   4.908   4.805   3.204
  271DPPC   C41 8165   4.833   4.807   3.337
  271DPPC   C42 8166   4.820   4.665   3.393
  271DPPC   C43 8167   4.723   4.660   3.511
  271DPPC   C44 8168   4.773   4.735   3.634
  271DPPC   C45 8169   4.669   4.725   3.745
  271DPPC   C46 8170   4.710   4.800   3.872
  271DPPC   C47 8171   4.600   4.788   3.977
  271DPPC   C48 8172   4.636   4.864   4.105
  271DPPC   C49 8173   4.525   4.852   4.208
  271DPPC   C50 8174   4.398   4.924   4.162
  272DPPC    C1 8175   4.679   5.252   2.076
  272DPPC    C2 8176   4.493   5.395   2.027
  272DPPC    C3 8177   4.620   5.298   1.851
  272DPPC    N4 8178   4.629   5.356   1.986
  272DPPC    C5 8179   4.722   5.470   1.980
  272DPPC    C6 8180   4.746   5.558   2.105
  272DPPC   OS7 8181   4.841   5.662   2.084
  272DPPC    P8 8182   4.830   5.772   2.196
  272DPPC   OM9 8183   4.689   5.806   2.211
  272DPPC  OM10 8184   4.926   5.875   2.158
  272DPPC  OS11 8185   4.887   5.693   2.318
  272DPPC   C12 8186   4.850   5.758   2.439
  272DPPC   C13 8187   4.834   5.662   2.558
  272DPPC  OS14 8188   4.741   5.711   2.658
  272DPPC   C15 8189   4.629   5.635   2.672
  272DPPC   O16 8190   4.616   5.528   2.612
  272DPPC   C17 8191   4.528   5.696   2.767
  272DPPC   C18 8192   4.590   5.732   2.902
  272DPPC   C19 8193   4.482   5.770   3.003
  272DPPC   C20 8194   4.545   5.797   3.139
  272DPPC   C21 8195   4.440   5.807   3.250
  272DPPC   C22 8196   4.511   5.815   3.385
  272DPPC   C23 8197   4.413   5.813   3.503
  272DPPC   C24 8198   4.490   5.808   3.635
  272DPPC   C25 8199   4.393   5.799   3.753
  272DPPC   C26 8200   4.468   5.784   3.886
  272DPPC   C27 8201   4.368   5.779   4.001
  272DPPC   C28 8202   4.437   5.756   4.136
  272DPPC   C29 8203   4.335   5.756   4.249
  272DPPC   C30 8204   4.239   5.638   4.236
  272DPPC   C31 8205   4.134   5.640   4.348
  272DPPC   C32 8206   4.973   5.611   2.602
  272DPPC  OS33 8207   5.078   5.709   2.614
  272DPPC   C34 8208   5.205   5.659   2.610
  272DPPC   O35 8209   5.231   5.548   2.563
  272DPPC   C36 8210   5.307   5.770   2.629
  272DPPC   C37 8211   5.420   5.729   2.724
  272DPPC   C38 8212   5.370   5.729   2.869
  272DPPC   C39 8213   5.481   5.690   2.967
  272DPPC   C40 8214   5.425   5.677   3.109
  272DPPC   C41 8215   5.378   5.813   3.161
  272DPPC   C42 8216   5.301   5.799   3.292
  272DPPC   C43 8217   5.389   5.757   3.410
  272DPPC   C44 8218   5.304   5.748   3.536
  272DPPC   C45 8219   5.385   5.708   3.659
  272DPPC   C46 8220   5.294   5.697   3.781
  272DPPC   C47 8221   5.196   5.581   3.765
  272DPPC   C48 8222   5.102   5.568   3.885
  272DPPC   C49 8223   5.005   5.685   3.893
  272DPPC   C50 8224   4.912   5.672   4.014
  273DPPC    C1 8225   1.261   5.977   1.464
  273DPPC    C2 8226   1.213   5.760   1.537
  273DPPC    C3 8227   1.427   5.810   1.439
  273DPPC    N4 8228   1.321   5.859   1.528
  273DPPC    C5 8229   1.372   5.896   1.663
  273DPPC    C6 8230   1.438   5.783   1.746
  273DPPC   OS7 8231   1.470   5.810   1.883
  273DPPC    P8 8232   1.450   5.683   1.974
  273DPPC   OM9 8233   1.465   5.561   1.892
  273DPPC  OM10 8234   1.526   5.702   2.098
  273DPPC  OS11 8235   1.297   5.699   2.009
  273DPPC   C12 8236   1.275   5.806   2.101
  273DPPC   C13 8237   1.153   5.788   2.194
  273DPPC  OS14 8238   1.131   5.906   2.275
  273DPPC   C15 8239   1.004   5.935   2.317
  273DPPC   O16 8240   0.903   5.902   2.254
  273DPPC   C17 8241   1.010   6.044   2.422
  273DPPC   C18 8242   0.986   5.989   2.563
  273DPPC   C19 8243   1.021   6.094   2.668
  273DPPC   C20 8244   0.992   6.045   2.810
  273DPPC   C21 8245   1.042   6.149   2.911
  273DPPC   C22 8246   1.017   6.106   3.056
  273DPPC   C23 8247   1.084   6.205   3.151
  273DPPC   C24 8248   1.068   6.166   3.298
  273DPPC   C25 8249   0.925   6.187   3.346
  273DPPC   C26 8250   0.915   6.162   3.497
  273DPPC   C27 8251   0.933   6.014   3.530
  273DPPC   C28 8252   0.935   5.993   3.681
  273DPPC   C29 8253   0.800   6.031   3.744
  273DPPC   C30 8254   0.809   6.024   3.897
  273DPPC   C31 8255   0.900   6.134   3.951
  273DPPC   C32 8256   1.184   5.661   2.275
  273DPPC  OS33 8257   1.084   5.613   2.366
  273DPPC   C34 8258   1.020   5.498   2.332
  273DPPC   O35 8259   1.055   5.426   2.239
  273DPPC   C36 8260   0.925   5.456   2.443
  273DPPC   C37 8261   0.982   5.500   2.579
  273DPPC   C38 8262   0.913   5.432   2.697
  273DPPC   C39 8263   0.962   5.493   2.828
  273DPPC   C40 8264   0.909   5.419   2.950
  273DPPC   C41 8265   0.945   5.496   3.078
  273DPPC   C42 8266   0.908   5.418   3.204
  273DPPC   C43 8267   0.926   5.506   3.328
  273DPPC   C44 8268   0.900   5.425   3.455
  273DPPC   C45 8269   0.898   5.514   3.580
  273DPPC   C46 8270   0.887   5.427   3.706
  273DPPC   C47 8271   0.859   5.512   3.831
  273DPPC   C48 8272   0.715   5.563   3.827
  273DPPC   C49 8273   0.679   5.641   3.953
  273DPPC   C50 8274   0.533   5.688   3.948
  274DPPC    C1 8275   0.527   5.693   1.557
  274DPPC    C2 8276   0.319   5.782   1.620
  274DPPC    C3 8277   0.484   5.924   1.523
  274DPPC    N4 8278   0.463   5.811   1.615
  274DPPC    C5 8279   0.512   5.840   1.751
  274DPPC    C6 8280   0.664   5.844   1.784
  274DPPC   OS7 8281   0.745   5.940   1.715
  274DPPC    P8 8282   0.895   5.932   1.765
  274DPPC   OM9 8283   0.977   5.943   1.643
  274DPPC  OM10 8284   0.917   5.820   1.858
  274DPPC  OS11 8285   0.909   6.071   1.835
  274DPPC   C12 8286   1.012   6.065   1.934
  274DPPC   C13 8287   1.111   6.182   1.927
  274DPPC  OS14 8288   1.239   6.150   1.990
  274DPPC   C15 8289   1.344   6.235   1.974
  274DPPC   O16 8290   1.344   6.330   1.894
  274DPPC   C17 8291   1.466   6.188   2.052
  274DPPC   C18 8292   1.502   6.294   2.156
  274DPPC   C19 8293   1.408   6.287   2.277
  274DPPC   C20 8294   1.399   6.425   2.343
  274DPPC   C21 8295   1.329   6.421   2.479
  274DPPC   C22 8296   1.425   6.377   2.590
  274DPPC   C23 8297   1.358   6.392   2.726
  274DPPC   C24 8298   1.457   6.372   2.840
  274DPPC   C25 8299   1.389   6.395   2.975
  274DPPC   C26 8300   1.490   6.387   3.090
  274DPPC   C27 8301   1.421   6.408   3.225
  274DPPC   C28 8302   1.522   6.404   3.339
  274DPPC   C29 8303   1.454   6.427   3.474
  274DPPC   C30 8304   1.558   6.432   3.586
  274DPPC   C31 8305   1.493   6.462   3.722
  274DPPC   C32 8306   1.036   6.308   1.975
  274DPPC  OS33 8307   0.973   6.302   2.104
  274DPPC   C34 8308   0.972   6.418   2.176
  274DPPC   O35 8309   1.013   6.526   2.133
  274DPPC   C36 8310   0.905   6.398   2.311
  274DPPC   C37 8311   0.955   6.503   2.410
  274DPPC   C38 8312   0.915   6.469   2.553
  274DPPC   C39 8313   0.982   6.566   2.651
  274DPPC   C40 8314   0.953   6.529   2.796
  274DPPC   C41 8315   1.029   6.624   2.889
  274DPPC   C42 8316   1.011   6.585   3.036
  274DPPC   C43 8317   1.090   6.681   3.126
  274DPPC   C44 8318   1.083   6.637   3.273
  274DPPC   C45 8319   0.940   6.650   3.327
  274DPPC   C46 8320   0.936   6.614   3.476
  274DPPC   C47 8321   1.013   6.718   3.558
  274DPPC   C48 8322   1.008   6.683   3.707
  274DPPC   C49 8323   1.082   6.553   3.736
  274DPPC   C50 8324   1.077   6.519   3.885
  275DPPC    C1 8325   2.303   7.319   1.835
  275DPPC    C2 8326   2.378   7.474   2.002
  275DPPC    C3 8327   2.532   7.371   1.854
  275DPPC    N4 8328   2.397   7.428   1.864
  275DPPC    C5 8329   2.384   7.538   1.765
  275DPPC    C6 8330   2.255   7.624   1.763
  275DPPC   OS7 8331   2.137   7.553   1.727
  275DPPC    P8 8332   2.016   7.590   1.820
  275DPPC   OM9 8333   2.035   7.721   1.882
  275DPPC  OM10 8334   1.890   7.556   1.752
  275DPPC  OS11 8335   2.046   7.487   1.935
  275DPPC   C12 8336   1.927   7.438   1.997
  275DPPC   C13 8337   1.954   7.374   2.135
  275DPPC  OS14 8338   1.838   7.305   2.189
  275DPPC   C15 8339   1.868   7.196   2.267
  275DPPC   O16 8340   1.980   7.146   2.267
  275DPPC   C17 8341   1.744   7.138   2.333
  275DPPC   C18 8342   1.778   7.072   2.468
  275DPPC   C19 8343   1.801   7.176   2.578
  275DPPC   C20 8344   1.822   7.107   2.713
  275DPPC   C21 8345   1.832   7.208   2.827
  275DPPC   C22 8346   1.835   7.137   2.963
  275DPPC   C23 8347   1.835   7.236   3.079
  275DPPC   C24 8348   1.822   7.162   3.213
  275DPPC   C25 8349   1.821   7.258   3.332
  275DPPC   C26 8350   1.958   7.323   3.351
  275DPPC   C27 8351   1.962   7.408   3.479
  275DPPC   C28 8352   1.875   7.533   3.466
  275DPPC   C29 8353   1.876   7.614   3.596
  275DPPC   C30 8354   2.015   7.671   3.624
  275DPPC   C31 8355   2.017   7.753   3.753
  275DPPC   C32 8356   2.013   7.489   2.220
  275DPPC  OS33 8357   2.045   7.464   2.358
  275DPPC   C34 8358   2.163   7.402   2.387
  275DPPC   O35 8359   2.260   7.392   2.311
  275DPPC   C36 8360   2.166   7.369   2.536
  275DPPC   C37 8361   2.183   7.494   2.622
  275DPPC   C38 8362   2.124   7.469   2.761
  275DPPC   C39 8363   2.150   7.584   2.859
  275DPPC   C40 8364   2.059   7.569   2.981
  275DPPC   C41 8365   2.097   7.665   3.093
  275DPPC   C42 8366   2.218   7.613   3.170
  275DPPC   C43 8367   2.253   7.705   3.286
  275DPPC   C44 8368   2.362   7.645   3.376
  275DPPC   C45 8369   2.397   7.742   3.489
  275DPPC   C46 8370   2.502   7.684   3.584
  275DPPC   C47 8371   2.544   7.788   3.687
  275DPPC   C48 8372   2.437   7.814   3.793
  275DPPC   C49 8373   2.428   7.698   3.892
  275DPPC   C50 8374   2.324   7.726   4.001
  276DPPC    C1 8375   2.940   8.204   2.056
  276DPPC    C2 8376   2.994   7.972   2.049
  276DPPC    C3 8377   3.107   8.127   1.908
  276DPPC    N4 8378   2.977   8.093   1.967
  276DPPC    C5 8379   2.871   8.078   1.864
  276DPPC    C6 8380   2.875   7.963   1.759
  276DPPC   OS7 8381   2.854   7.830   1.808
  276DPPC    P8 8382   2.706   7.777   1.792
  276DPPC   OM9 8383   2.708   7.633   1.817
  276DPPC  OM10 8384   2.652   7.826   1.665
  276DPPC  OS11 8385   2.642   7.853   1.914
  276DPPC   C12 8386   2.650   7.782   2.038
  276DPPC   C13 8387   2.632   7.875   2.159
  276DPPC  OS14 8388   2.667   7.811   2.285
  276DPPC   C15 8389   2.677   7.892   2.394
  276DPPC   O16 8390   2.684   8.015   2.386
  276DPPC   C17 8391   2.691   7.814   2.524
  276DPPC   C18 8392   2.742   7.905   2.635
  276DPPC   C19 8393   2.742   7.835   2.772
  276DPPC   C20 8394   2.600   7.818   2.827
  276DPPC   C21 8395   2.606   7.773   2.973
  276DPPC   C22 8396   2.678   7.881   3.054
  276DPPC   C23 8397   2.696   7.844   3.202
  276DPPC   C24 8398   2.793   7.943   3.266
  276DPPC   C25 8399   2.823   7.912   3.412
  276DPPC   C26 8400   2.937   8.000   3.461
  276DPPC   C27 8401   2.973   7.973   3.608
  276DPPC   C28 8402   2.863   8.023   3.701
  276DPPC   C29 8403   2.906   8.015   3.847
  276DPPC   C30 8404   2.798   8.071   3.939
  276DPPC   C31 8405   2.845   8.072   4.085
  276DPPC   C32 8406   2.490   7.935   2.145
  276DPPC  OS33 8407   2.381   7.849   2.185
  276DPPC   C34 8408   2.259   7.893   2.145
  276DPPC   O35 8409   2.239   7.929   2.029
  276DPPC   C36 8410   2.153   7.837   2.238
  276DPPC   C37 8411   2.046   7.943   2.266
  276DPPC   C38 8412   1.954   7.905   2.382
  276DPPC   C39 8413   1.849   8.014   2.402
  276DPPC   C40 8414   1.766   7.990   2.528
  276DPPC   C41 8415   1.848   8.016   2.655
  276DPPC   C42 8416   1.762   7.999   2.780
  276DPPC   C43 8417   1.841   8.026   2.908
  276DPPC   C44 8418   1.751   8.006   3.030
  276DPPC   C45 8419   1.823   8.036   3.162
  276DPPC   C46 8420   1.728   8.012   3.279
  276DPPC   C47 8421   1.793   8.043   3.413
  276DPPC   C48 8422   1.696   8.015   3.528
  276DPPC   C49 8423   1.759   8.046   3.664
  276DPPC   C50 8424   1.782   8.196   3.681
  277DPPC    C1 8425   9.692   7.863   1.660
  277DPPC    C2 8426   9.710   7.695   1.489
  277DPPC    C3 8427   9.891   7.842   1.524
  277DPPC    N4 8428   9.783   7.769   1.593
  277DPPC    C5 8429   9.837   7.668   1.686
  277DPPC    C6 8430   9.935   7.711   1.797
  277DPPC   OS7 8431   9.975   7.601   1.879
  277DPPC    P8 8432  10.054   7.655   2.002
  277DPPC   OM9 8433   0.030   7.681   1.948
  277DPPC  OM10 8434   9.971   7.758   2.065
  277DPPC  OS11 8435  10.060   7.521   2.085
  277DPPC   C12 8436   9.939   7.505   2.160
  277DPPC   C13 8437   9.939   7.390   2.262
  277DPPC  OS14 8438   9.820   7.392   2.345
  277DPPC   C15 8439   9.754   7.275   2.366
  277DPPC   O16 8440   9.761   7.178   2.290
  277DPPC   C17 8441   9.649   7.292   2.475
  277DPPC   C18 8442   9.715   7.297   2.612
  277DPPC   C19 8443   9.610   7.304   2.723
  277DPPC   C20 8444   9.676   7.308   2.860
  277DPPC   C21 8445   9.571   7.316   2.971
  277DPPC   C22 8446   9.638   7.326   3.108
  277DPPC   C23 8447   9.535   7.333   3.220
  277DPPC   C24 8448   9.605   7.348   3.355
  277DPPC   C25 8449   9.506   7.356   3.471
  277DPPC   C26 8450   9.581   7.373   3.603
  277DPPC   C27 8451   9.484   7.385   3.721
  277DPPC   C28 8452   9.561   7.400   3.852
  277DPPC   C29 8453   9.466   7.412   3.971
  277DPPC   C30 8454   9.385   7.541   3.964
  277DPPC   C31 8455   9.295   7.557   4.086
  277DPPC   C32 8456  10.071   7.407   2.340
  277DPPC  OS33 8457  10.090   7.325   2.457
  277DPPC   C34 8458   0.039   7.361   2.534
  277DPPC   O35 8459   0.123   7.445   2.502
  277DPPC   C36 8460   0.036   7.285   2.666
  277DPPC   C37 8461  10.138   7.375   2.776
  277DPPC   C38 8462  10.136   7.309   2.914
  277DPPC   C39 8463  10.086   7.411   3.016
  277DPPC   C40 8464  10.085   7.354   3.158
  277DPPC   C41 8465  10.040   7.459   3.259
  277DPPC   C42 8466  10.034   7.402   3.400
  277DPPC   C43 8467   9.995   7.510   3.501
  277DPPC   C44 8468   9.981   7.454   3.642
  277DPPC   C45 8469  10.114   7.400   3.695
  277DPPC   C46 8470  10.098   7.351   3.839
  277DPPC   C47 8471  10.000   7.234   3.845
  277DPPC   C48 8472   9.981   7.186   3.989
  277DPPC   C49 8473  10.108   7.120   4.043
  277DPPC   C50 8474  10.087   7.070   4.187
  278DPPC    C1 8475   0.133   6.594   1.478
  278DPPC    C2 8476   0.054   6.738   1.649
  278DPPC    C3 8477   0.287   6.688   1.632
  278DPPC    N4 8478   0.151   6.633   1.618
  278DPPC    C5 8479   0.129   6.514   1.703
  278DPPC    C6 8480   0.143   6.525   1.857
  278DPPC   OS7 8481   0.276   6.547   1.903
  278DPPC    P8 8482   0.283   6.554   2.059
  278DPPC   OM9 8483   0.322   6.422   2.107
  278DPPC  OM10 8484   0.169   6.632   2.108
  278DPPC  OS11 8485   0.407   6.649   2.071
  278DPPC   C12 8486   0.449   6.659   2.207
  278DPPC   C13 8487   0.522   6.790   2.239
  278DPPC  OS14 8488   0.611   6.780   2.354
  278DPPC   C15 8489   0.700   6.880   2.373
  278DPPC   O16 8490   0.727   6.964   2.286
  278DPPC   C17 8491   0.775   6.866   2.505
  278DPPC   C18 8492   0.687   6.909   2.622
  278DPPC   C19 8493   0.763   6.902   2.755
  278DPPC   C20 8494   0.673   6.945   2.871
  278DPPC   C21 8495   0.744   6.936   3.006
  278DPPC   C22 8496   0.647   6.976   3.117
  278DPPC   C23 8497   0.708   6.961   3.257
  278DPPC   C24 8498   0.603   6.992   3.363
  278DPPC   C25 8499   0.657   6.972   3.505
  278DPPC   C26 8500   0.548   7.001   3.608
  278DPPC   C27 8501   0.508   7.148   3.604
  278DPPC   C28 8502   0.397   7.181   3.705
  278DPPC   C29 8503   0.448   7.170   3.848
  278DPPC   C30 8504   0.338   7.206   3.949
  278DPPC   C31 8505   0.389   7.193   4.092
  278DPPC   C32 8506   0.411   6.897   2.248
  278DPPC  OS33 8507   0.320   6.877   2.357
  278DPPC   C34 8508   0.254   6.987   2.402
  278DPPC   O35 8509   0.258   7.098   2.348
  278DPPC   C36 8510   0.176   6.956   2.528
  278DPPC   C37 8511   0.268   6.905   2.639
  278DPPC   C38 8512   0.202   6.916   2.777
  278DPPC   C39 8513   0.289   6.852   2.885
  278DPPC   C40 8514   0.229   6.872   3.024
  278DPPC   C41 8515   0.258   7.013   3.077
  278DPPC   C42 8516   0.178   7.042   3.204
  278DPPC   C43 8517   0.206   6.941   3.316
  278DPPC   C44 8518   0.120   6.972   3.438
  278DPPC   C45 8519   0.134   6.866   3.547
  278DPPC   C46 8520   0.043   6.899   3.666
  278DPPC   C47 8521   0.049   6.791   3.773
  278DPPC   C48 8522   0.187   6.785   3.840
  278DPPC   C49 8523   0.189   6.681   3.952
  278DPPC   C50 8524   0.172   6.539   3.896
  279DPPC    C1 8525   1.513   8.208   1.758
  279DPPC    C2 8526   1.617   7.996   1.794
  279DPPC    C3 8527   1.747   8.195   1.789
  279DPPC    N4 8528   1.619   8.138   1.832
  279DPPC    C5 8529   1.608   8.161   1.978
  279DPPC    C6 8530   1.489   8.103   2.058
  279DPPC   OS7 8531   1.497   7.962   2.081
  279DPPC    P8 8532   1.354   7.900   2.074
  279DPPC   OM9 8533   1.266   7.977   2.163
  279DPPC  OM10 8534   1.324   7.887   1.931
  279DPPC  OS11 8535   1.389   7.758   2.131
  279DPPC   C12 8536   1.340   7.738   2.263
  279DPPC   C13 8537   1.301   7.591   2.290
  279DPPC  OS14 8538   1.213   7.574   2.404
  279DPPC   C15 8539   1.080   7.604   2.389
  279DPPC   O16 8540   1.033   7.654   2.287
  279DPPC   C17 8541   1.002   7.574   2.516
  279DPPC   C18 8542   1.079   7.618   2.641
  279DPPC   C19 8543   0.994   7.598   2.767
  279DPPC   C20 8544   1.071   7.638   2.892
  279DPPC   C21 8545   0.982   7.629   3.016
  279DPPC   C22 8546   1.054   7.678   3.142
  279DPPC   C23 8547   0.960   7.673   3.262
  279DPPC   C24 8548   1.027   7.729   3.388
  279DPPC   C25 8549   0.930   7.725   3.506
  279DPPC   C26 8550   0.995   7.785   3.631
  279DPPC   C27 8551   0.897   7.785   3.749
  279DPPC   C28 8552   0.963   7.841   3.875
  279DPPC   C29 8553   0.865   7.839   3.993
  279DPPC   C30 8554   0.932   7.888   4.121
  279DPPC   C31 8555   0.967   8.037   4.113
  279DPPC   C32 8556   1.432   7.510   2.292
  279DPPC  OS33 8557   1.518   7.535   2.405
  279DPPC   C34 8558   1.650   7.561   2.385
  279DPPC   O35 8559   1.696   7.609   2.281
  279DPPC   C36 8560   1.719   7.565   2.520
  279DPPC   C37 8561   1.618   7.608   2.626
  279DPPC   C38 8562   1.673   7.593   2.768
  279DPPC   C39 8563   1.566   7.636   2.869
  279DPPC   C40 8564   1.612   7.615   3.013
  279DPPC   C41 8565   1.504   7.662   3.110
  279DPPC   C42 8566   1.546   7.637   3.255
  279DPPC   C43 8567   1.442   7.693   3.353
  279DPPC   C44 8568   1.485   7.668   3.497
  279DPPC   C45 8569   1.390   7.734   3.596
  279DPPC   C46 8570   1.437   7.711   3.740
  279DPPC   C47 8571   1.423   7.564   3.778
  279DPPC   C48 8572   1.475   7.538   3.920
  279DPPC   C49 8573   1.391   7.610   4.025
  279DPPC   C50 8574   1.446   7.582   4.165
  280DPPC    C1 8575   0.906   8.116   1.706
  280DPPC    C2 8576   0.966   7.923   1.833
  280DPPC    C3 8577   0.872   8.111   1.944
  280DPPC    N4 8578   0.961   8.070   1.834
  280DPPC    C5 8579   1.100   8.117   1.856
  280DPPC    C6 8580   1.129   8.268   1.868
  280DPPC   OS7 8581   1.258   8.295   1.920
  280DPPC    P8 8582   1.276   8.444   1.966
  280DPPC   OM9 8583   1.409   8.447   2.030
  280DPPC  OM10 8584   1.242   8.533   1.854
  280DPPC  OS11 8585   1.163   8.449   2.075
  280DPPC   C12 8586   1.206   8.503   2.200
  280DPPC   C13 8587   1.104   8.481   2.312
  280DPPC  OS14 8588   1.125   8.567   2.427
  280DPPC   C15 8589   1.018   8.590   2.507
  280DPPC   O16 8590   0.903   8.575   2.465
  280DPPC   C17 8591   1.056   8.669   2.631
  280DPPC   C18 8592   0.961   8.638   2.746
  280DPPC   C19 8593   1.002   8.711   2.874
  280DPPC   C20 8594   0.909   8.671   2.990
  280DPPC   C21 8595   0.945   8.745   3.119
  280DPPC   C22 8596   1.082   8.700   3.171
  280DPPC   C23 8597   1.119   8.777   3.298
  280DPPC   C24 8598   1.035   8.733   3.418
  280DPPC   C25 8599   1.062   8.825   3.537
  280DPPC   C26 8600   1.207   8.815   3.584
  280DPPC   C27 8601   1.236   8.921   3.691
  280DPPC   C28 8602   1.159   8.892   3.820
  280DPPC   C29 8603   1.183   9.002   3.924
  280DPPC   C30 8604   1.118   9.134   3.880
  280DPPC   C31 8605   1.140   9.244   3.984
  280DPPC   C32 8606   1.102   8.329   2.338
  280DPPC  OS33 8607   1.227   8.271   2.381
  280DPPC   C34 8608   1.215   8.150   2.442
  280DPPC   O35 8609   1.107   8.097   2.467
  280DPPC   C36 8610   1.351   8.098   2.485
  280DPPC   C37 8611   1.340   7.995   2.597
  280DPPC   C38 8612   1.306   8.059   2.732
  280DPPC   C39 8613   1.287   7.948   2.837
  280DPPC   C40 8614   1.249   8.000   2.975
  280DPPC   C41 8615   1.365   8.074   3.043
  280DPPC   C42 8616   1.349   8.073   3.195
  280DPPC   C43 8617   1.230   8.157   3.242
  280DPPC   C44 8618   1.214   8.144   3.394
  280DPPC   C45 8619   1.336   8.202   3.466
  280DPPC   C46 8620   1.325   8.185   3.618
  280DPPC   C47 8621   1.214   8.273   3.676
  280DPPC   C48 8622   1.206   8.259   3.828
  280DPPC   C49 8623   1.094   8.345   3.886
  280DPPC   C50 8624   1.123   8.494   3.867
  281DPPC    C1 8625   3.892   6.352   1.923
  281DPPC    C2 8626   4.112   6.340   2.012
  281DPPC    C3 8627   4.082   6.335   1.779
  281DPPC    N4 8628   4.031   6.395   1.903
  281DPPC    C5 8629   4.047   6.542   1.894
  281DPPC    C6 8630   3.980   6.633   1.999
  281DPPC   OS7 8631   4.018   6.603   2.133
  281DPPC    P8 8632   3.929   6.676   2.239
  281DPPC   OM9 8633   3.970   6.624   2.369
  281DPPC  OM10 8634   3.929   6.820   2.210
  281DPPC  OS11 8635   3.787   6.621   2.205
  281DPPC   C12 8636   3.692   6.671   2.299
  281DPPC   C13 8637   3.547   6.639   2.261
  281DPPC  OS14 8638   3.453   6.692   2.357
  281DPPC   C15 8639   3.330   6.731   2.312
  281DPPC   O16 8640   3.301   6.736   2.192
  281DPPC   C17 8641   3.241   6.776   2.427
  281DPPC   C18 8642   3.164   6.904   2.391
  281DPPC   C19 8643   3.076   6.947   2.508
  281DPPC   C20 8644   3.161   6.980   2.631
  281DPPC   C21 8645   3.074   7.013   2.753
  281DPPC   C22 8646   3.161   7.042   2.876
  281DPPC   C23 8647   3.074   7.059   3.000
  281DPPC   C24 8648   3.160   7.079   3.125
  281DPPC   C25 8649   3.072   7.091   3.249
  281DPPC   C26 8650   3.157   7.109   3.375
  281DPPC   C27 8651   3.067   7.121   3.499
  281DPPC   C28 8652   3.149   7.139   3.627
  281DPPC   C29 8653   3.056   7.152   3.747
  281DPPC   C30 8654   3.135   7.171   3.876
  281DPPC   C31 8655   3.211   7.304   3.875
  281DPPC   C32 8656   3.541   6.486   2.241
  281DPPC  OS33 8657   3.562   6.405   2.359
  281DPPC   C34 8658   3.642   6.295   2.341
  281DPPC   O35 8659   3.725   6.283   2.251
  281DPPC   C36 8660   3.635   6.204   2.462
  281DPPC   C37 8661   3.658   6.059   2.419
  281DPPC   C38 8662   3.614   5.960   2.528
  281DPPC   C39 8663   3.465   5.976   2.555
  281DPPC   C40 8664   3.410   5.865   2.645
  281DPPC   C41 8665   3.467   5.869   2.787
  281DPPC   C42 8666   3.427   5.994   2.865
  281DPPC   C43 8667   3.473   5.982   3.011
  281DPPC   C44 8668   3.453   6.114   3.085
  281DPPC   C45 8669   3.487   6.100   3.234
  281DPPC   C46 8670   3.377   6.025   3.309
  281DPPC   C47 8671   3.409   6.018   3.459
  281DPPC   C48 8672   3.294   5.954   3.536
  281DPPC   C49 8673   3.328   5.943   3.685
  281DPPC   C50 8674   3.341   6.081   3.750
  282DPPC    C1 8675   4.151   5.767   1.535
  282DPPC    C2 8676   4.177   5.588   1.379
  282DPPC    C3 8677   3.962   5.679   1.415
  282DPPC    N4 8678   4.088   5.645   1.481
  282DPPC    C5 8679   4.070   5.543   1.586
  282DPPC    C6 8680   3.967   5.567   1.700
  282DPPC   OS7 8681   4.004   5.669   1.793
  282DPPC    P8 8682   3.885   5.707   1.887
  282DPPC   OM9 8683   3.818   5.820   1.823
  282DPPC  OM10 8684   3.811   5.584   1.922
  282DPPC  OS11 8685   3.968   5.757   2.012
  282DPPC   C12 8686   4.019   5.645   2.085
  282DPPC   C13 8687   4.074   5.676   2.225
  282DPPC  OS14 8688   4.103   5.554   2.298
  282DPPC   C15 8689   4.214   5.559   2.377
  282DPPC   O16 8690   4.318   5.612   2.337
  282DPPC   C17 8691   4.207   5.454   2.487
  282DPPC   C18 8692   4.196   5.525   2.622
  282DPPC   C19 8693   4.187   5.429   2.740
  282DPPC   C20 8694   4.173   5.508   2.870
  282DPPC   C21 8695   4.165   5.417   2.992
  282DPPC   C22 8696   4.150   5.501   3.120
  282DPPC   C23 8697   4.141   5.411   3.243
  282DPPC   C24 8698   4.123   5.494   3.371
  282DPPC   C25 8699   4.110   5.402   3.492
  282DPPC   C26 8700   4.084   5.482   3.620
  282DPPC   C27 8701   4.062   5.387   3.738
  282DPPC   C28 8702   4.027   5.464   3.866
  282DPPC   C29 8703   3.995   5.368   3.980
  282DPPC   C30 8704   3.869   5.288   3.950
  282DPPC   C31 8705   3.835   5.192   4.064
  282DPPC   C32 8706   3.966   5.763   2.294
  282DPPC  OS33 8707   4.002   5.815   2.424
  282DPPC   C34 8708   4.059   5.938   2.429
  282DPPC   O35 8709   4.054   6.022   2.338
  282DPPC   C36 8710   4.110   5.966   2.569
  282DPPC   C37 8711   4.006   5.933   2.676
  282DPPC   C38 8712   4.065   5.954   2.816
  282DPPC   C39 8713   3.960   5.928   2.924
  282DPPC   C40 8714   4.016   5.954   3.064
  282DPPC   C41 8715   3.905   5.935   3.168
  282DPPC   C42 8716   3.954   5.968   3.310
  282DPPC   C43 8717   3.840   5.951   3.410
  282DPPC   C44 8718   3.884   5.984   3.552
  282DPPC   C45 8719   3.989   5.884   3.601
  282DPPC   C46 8720   4.027   5.910   3.747
  282DPPC   C47 8721   3.912   5.874   3.840
  282DPPC   C48 8722   3.951   5.895   3.987
  282DPPC   C49 8723   3.965   6.043   4.021
  282DPPC   C50 8724   3.830   6.115   4.017
  283DPPC    C1 8725   4.830   6.060   1.911
  283DPPC    C2 8726   4.685   6.120   2.093
  283DPPC    C3 8727   4.607   5.981   1.923
  283DPPC    N4 8728   4.693   6.096   1.948
  283DPPC    C5 8729   4.642   6.212   1.870
  283DPPC    C6 8730   4.722   6.344   1.870
  283DPPC   OS7 8731   4.733   6.403   1.999
  283DPPC    P8 8732   4.837   6.521   2.004
  283DPPC   OM9 8733   4.959   6.466   1.944
  283DPPC  OM10 8734   4.766   6.637   1.947
  283DPPC  OS11 8735   4.842   6.528   2.160
  283DPPC   C12 8736   4.930   6.431   2.217
  283DPPC   C13 8737   4.900   6.395   2.364
  283DPPC  OS14 8738   4.781   6.314   2.386
  283DPPC   C15 8739   4.805   6.193   2.444
  283DPPC   O16 8740   4.918   6.143   2.442
  283DPPC   C17 8741   4.677   6.121   2.478
  283DPPC   C18 8742   4.604   6.191   2.593
  283DPPC   C19 8743   4.465   6.129   2.612
  283DPPC   C20 8744   4.386   6.202   2.721
  283DPPC   C21 8745   4.440   6.170   2.861
  283DPPC   C22 8746   4.351   6.233   2.968
  283DPPC   C23 8747   4.400   6.195   3.108
  283DPPC   C24 8748   4.308   6.250   3.216
  283DPPC   C25 8749   4.358   6.208   3.354
  283DPPC   C26 8750   4.269   6.262   3.466
  283DPPC   C27 8751   4.328   6.224   3.602
  283DPPC   C28 8752   4.250   6.291   3.716
  283DPPC   C29 8753   4.313   6.257   3.851
  283DPPC   C30 8754   4.242   6.330   3.964
  283DPPC   C31 8755   4.303   6.294   4.100
  283DPPC   C32 8756   4.906   6.526   2.445
  283DPPC  OS33 8757   5.039   6.559   2.487
  283DPPC   C34 8758   5.054   6.678   2.551
  283DPPC   O35 8759   4.966   6.764   2.558
  283DPPC   C36 8760   5.197   6.695   2.601
  283DPPC   C37 8761   5.221   6.613   2.728
  283DPPC   C38 8762   5.149   6.674   2.849
  283DPPC   C39 8763   5.189   6.603   2.978
  283DPPC   C40 8764   5.111   6.656   3.098
  283DPPC   C41 8765   5.153   6.584   3.226
  283DPPC   C42 8766   5.066   6.624   3.346
  283DPPC   C43 8767   5.092   6.769   3.389
  283DPPC   C44 8768   5.006   6.806   3.510
  283DPPC   C45 8769   5.037   6.715   3.628
  283DPPC   C46 8770   4.963   6.756   3.755
  283DPPC   C47 8771   5.021   6.884   3.815
  283DPPC   C48 8772   4.947   6.920   3.944
  283DPPC   C49 8773   5.010   7.041   4.013
  283DPPC   C50 8774   5.148   7.007   4.069
  284DPPC    C1 8775   4.468   6.457   2.162
  284DPPC    C2 8776   4.560   6.668   2.217
  284DPPC    C3 8777   4.494   6.517   2.390
  284DPPC    N4 8778   4.460   6.568   2.257
  284DPPC    C5 8779   4.322   6.623   2.252
  284DPPC    C6 8780   4.281   6.742   2.342
  284DPPC   OS7 8781   4.335   6.869   2.305
  284DPPC    P8 8782   4.329   6.966   2.428
  284DPPC   OM9 8783   4.398   6.895   2.536
  284DPPC  OM10 8784   4.192   7.017   2.441
  284DPPC  OS11 8785   4.415   7.081   2.368
  284DPPC   C12 8786   4.553   7.048   2.377
  284DPPC   C13 8787   4.649   7.164   2.349
  284DPPC  OS14 8788   4.785   7.117   2.325
  284DPPC   C15 8789   4.854   7.180   2.226
  284DPPC   O16 8790   4.793   7.236   2.134
  284DPPC   C17 8791   4.998   7.130   2.217
  284DPPC   C18 8792   5.088   7.178   2.331
  284DPPC   C19 8793   5.071   7.097   2.460
  284DPPC   C20 8794   5.154   7.156   2.573
  284DPPC   C21 8795   5.139   7.074   2.702
  284DPPC   C22 8796   5.223   7.135   2.814
  284DPPC   C23 8797   5.205   7.060   2.946
  284DPPC   C24 8798   5.284   7.129   3.057
  284DPPC   C25 8799   5.269   7.059   3.192
  284DPPC   C26 8800   5.348   7.134   3.300
  284DPPC   C27 8801   5.337   7.066   3.436
  284DPPC   C28 8802   5.415   7.144   3.542
  284DPPC   C29 8803   5.413   7.072   3.677
  284DPPC   C30 8804   5.497   7.148   3.780
  284DPPC   C31 8805   5.502   7.075   3.914
  284DPPC   C32 8806   4.629   7.266   2.462
  284DPPC  OS33 8807   4.641   7.212   2.595
  284DPPC   C34 8808   4.751   7.246   2.667
  284DPPC   O35 8809   4.826   7.340   2.639
  284DPPC   C36 8810   4.756   7.162   2.794
  284DPPC   C37 8811   4.811   7.237   2.915
  284DPPC   C38 8812   4.795   7.150   3.039
  284DPPC   C39 8813   4.836   7.224   3.166
  284DPPC   C40 8814   4.794   7.146   3.291
  284DPPC   C41 8815   4.814   7.231   3.416
  284DPPC   C42 8816   4.753   7.164   3.540
  284DPPC   C43 8817   4.759   7.259   3.660
  284DPPC   C44 8818   4.686   7.200   3.781
  284DPPC   C45 8819   4.691   7.297   3.899
  284DPPC   C46 8820   4.618   7.239   4.021
  284DPPC   C47 8821   4.629   7.334   4.140
  284DPPC   C48 8822   4.558   7.276   4.263
  284DPPC   C49 8823   4.570   7.370   4.383
  284DPPC   C50 8824   4.502   7.311   4.507
  285DPPC    C1 8825   2.900   9.375   2.036
  285DPPC    C2 8826   2.704   9.366   2.171
  285DPPC    C3 8827   2.744   9.197   2.006
  285DPPC    N4 8828   2.757   9.341   2.036
  285DPPC    C5 8829   2.689   9.425   1.935
  285DPPC    C6 8830   2.534   9.425   1.924
  285DPPC   OS7 8831   2.477   9.304   1.873
  285DPPC    P8 8832   2.338   9.275   1.940
  285DPPC   OM9 8833   2.273   9.399   1.985
  285DPPC  OM10 8834   2.270   9.177   1.853
  285DPPC  OS11 8835   2.395   9.195   2.062
  285DPPC   C12 8836   2.292   9.117   2.124
  285DPPC   C13 8837   2.342   8.989   2.194
  285DPPC  OS14 8838   2.232   8.900   2.232
  285DPPC   C15 8839   2.263   8.775   2.277
  285DPPC   O16 8840   2.372   8.720   2.257
  285DPPC   C17 8841   2.139   8.701   2.324
  285DPPC   C18 8842   2.064   8.779   2.432
  285DPPC   C19 8843   2.143   8.782   2.563
  285DPPC   C20 8844   2.055   8.840   2.674
  285DPPC   C21 8845   2.128   8.846   2.808
  285DPPC   C22 8846   2.027   8.878   2.918
  285DPPC   C23 8847   2.091   8.888   3.057
  285DPPC   C24 8848   1.981   8.903   3.161
  285DPPC   C25 8849   2.035   8.922   3.303
  285DPPC   C26 8850   1.918   8.926   3.401
  285DPPC   C27 8851   1.963   8.957   3.544
  285DPPC   C28 8852   1.843   8.951   3.638
  285DPPC   C29 8853   1.739   9.056   3.601
  285DPPC   C30 8854   1.615   9.046   3.690
  285DPPC   C31 8855   1.647   9.082   3.835
  285DPPC   C32 8856   2.438   9.035   2.305
  285DPPC  OS33 8857   2.381   9.118   2.408
  285DPPC   C34 8858   2.468   9.169   2.500
  285DPPC   O35 8859   2.591   9.169   2.485
  285DPPC   C36 8860   2.392   9.239   2.611
  285DPPC   C37 8861   2.458   9.216   2.747
  285DPPC   C38 8862   2.364   9.261   2.859
  285DPPC   C39 8863   2.425   9.239   2.998
  285DPPC   C40 8864   2.321   9.273   3.106
  285DPPC   C41 8865   2.376   9.260   3.248
  285DPPC   C42 8866   2.479   9.370   3.277
  285DPPC   C43 8867   2.520   9.372   3.424
  285DPPC   C44 8868   2.405   9.419   3.513
  285DPPC   C45 8869   2.449   9.428   3.659
  285DPPC   C46 8870   2.334   9.469   3.751
  285DPPC   C47 8871   2.292   9.614   3.730
  285DPPC   C48 8872   2.182   9.655   3.827
  285DPPC   C49 8873   2.141   9.801   3.807
  285DPPC   C50 8874   2.067   9.820   3.674
  286DPPC    C1 8875   3.690   8.144   2.081
  286DPPC    C2 8876   3.584   8.295   1.932
  286DPPC    C3 8877   3.711   8.378   2.116
  286DPPC    N4 8878   3.618   8.272   2.073
  286DPPC    C5 8879   3.497   8.266   2.158
  286DPPC    C6 8880   3.401   8.387   2.164
  286DPPC   OS7 8881   3.280   8.363   2.235
  286DPPC    P8 8882   3.182   8.484   2.218
  286DPPC   OM9 8883   3.167   8.505   2.073
  286DPPC  OM10 8884   3.223   8.595   2.306
  286DPPC  OS11 8885   3.050   8.417   2.269
  286DPPC   C12 8886   3.022   8.450   2.405
  286DPPC   C13 8887   2.900   8.378   2.463
  286DPPC  OS14 8888   2.848   8.441   2.583
  286DPPC   C15 8889   2.717   8.480   2.577
  286DPPC   O16 8890   2.643   8.448   2.484
  286DPPC   C17 8891   2.678   8.563   2.698
  286DPPC   C18 8892   2.583   8.676   2.661
  286DPPC   C19 8893   2.575   8.779   2.774
  286DPPC   C20 8894   2.517   8.716   2.901
  286DPPC   C21 8895   2.526   8.811   3.021
  286DPPC   C22 8896   2.472   8.740   3.145
  286DPPC   C23 8897   2.498   8.819   3.274
  286DPPC   C24 8898   2.452   8.735   3.394
  286DPPC   C25 8899   2.503   8.791   3.527
  286DPPC   C26 8900   2.463   8.697   3.641
  286DPPC   C27 8901   2.537   8.734   3.770
  286DPPC   C28 8902   2.509   8.634   3.883
  286DPPC   C29 8903   2.589   8.672   4.008
  286DPPC   C30 8904   2.567   8.571   4.120
  286DPPC   C31 8905   2.630   8.436   4.085
  286DPPC   C32 8906   2.932   8.227   2.468
  286DPPC  OS33 8907   3.065   8.190   2.510
  286DPPC   C34 8908   3.123   8.090   2.437
  286DPPC   O35 8909   3.067   8.036   2.341
  286DPPC   C36 8910   3.264   8.060   2.483
  286DPPC   C37 8911   3.285   8.086   2.632
  286DPPC   C38 8912   3.215   7.982   2.719
  286DPPC   C39 8913   3.243   8.009   2.867
  286DPPC   C40 8914   3.179   8.141   2.912
  286DPPC   C41 8915   3.027   8.127   2.929
  286DPPC   C42 8916   2.964   8.261   2.965
  286DPPC   C43 8917   2.816   8.242   3.001
  286DPPC   C44 8918   2.748   8.376   3.033
  286DPPC   C45 8919   2.805   8.441   3.158
  286DPPC   C46 8920   2.767   8.367   3.286
  286DPPC   C47 8921   2.814   8.446   3.409
  286DPPC   C48 8922   2.778   8.373   3.539
  286DPPC   C49 8923   2.626   8.360   3.553
  286DPPC   C50 8924   2.588   8.293   3.685
  287DPPC    C1 8925   2.572   6.951   1.852
  287DPPC    C2 8926   2.676   6.739   1.872
  287DPPC    C3 8927   2.793   6.920   1.769
  287DPPC    N4 8928   2.700   6.884   1.877
  287DPPC    C5 8929   2.753   6.916   2.011
  287DPPC    C6 8930   2.788   7.062   2.050
  287DPPC   OS7 8931   2.910   7.111   1.995
  287DPPC    P8 8932   2.903   7.264   1.961
  287DPPC   OM9 8933   2.824   7.332   2.064
  287DPPC  OM10 8934   2.858   7.257   1.821
  287DPPC  OS11 8935   3.055   7.299   1.969
  287DPPC   C12 8936   3.103   7.296   2.103
  287DPPC   C13 8937   3.241   7.360   2.124
  287DPPC  OS14 8938   3.290   7.341   2.260
  287DPPC   C15 8939   3.381   7.242   2.282
  287DPPC   O16 8940   3.417   7.161   2.195
  287DPPC   C17 8941   3.417   7.235   2.430
  287DPPC   C18 8942   3.528   7.134   2.459
  287DPPC   C19 8943   3.528   7.099   2.607
  287DPPC   C20 8944   3.638   6.998   2.642
  287DPPC   C21 8945   3.613   6.936   2.780
  287DPPC   C22 8946   3.620   7.039   2.894
  287DPPC   C23 8947   3.593   6.969   3.027
  287DPPC   C24 8948   3.598   7.065   3.146
  287DPPC   C25 8949   3.573   6.988   3.276
  287DPPC   C26 8950   3.580   7.078   3.399
  287DPPC   C27 8951   3.563   6.994   3.526
  287DPPC   C28 8952   3.566   7.082   3.652
  287DPPC   C29 8953   3.553   6.996   3.778
  287DPPC   C30 8954   3.550   7.082   3.904
  287DPPC   C31 8955   3.684   7.153   3.926
  287DPPC   C32 8956   3.227   7.508   2.082
  287DPPC  OS33 8957   3.123   7.581   2.153
  287DPPC   C34 8958   3.164   7.661   2.255
  287DPPC   O35 8959   3.266   7.730   2.249
  287DPPC   C36 8960   3.046   7.694   2.344
  287DPPC   C37 8961   2.993   7.568   2.414
  287DPPC   C38 8962   3.095   7.516   2.516
  287DPPC   C39 8963   3.047   7.385   2.578
  287DPPC   C40 8964   2.943   7.407   2.688
  287DPPC   C41 8965   3.010   7.460   2.815
  287DPPC   C42 8966   2.912   7.460   2.933
  287DPPC   C43 8967   2.983   7.501   3.062
  287DPPC   C44 8968   2.890   7.485   3.183
  287DPPC   C45 8969   2.963   7.523   3.312
  287DPPC   C46 8970   2.873   7.505   3.434
  287DPPC   C47 8971   2.946   7.545   3.562
  287DPPC   C48 8972   2.856   7.528   3.684
  287DPPC   C49 8973   2.925   7.578   3.811
  287DPPC   C50 8974   2.834   7.564   3.933
  288DPPC    C1 8975   4.512   8.777   2.293
  288DPPC    C2 8976   4.649   8.736   2.104
  288DPPC    C3 8977   4.450   8.608   2.142
  288DPPC    N4 8978   4.566   8.671   2.207
  288DPPC    C5 8979   4.646   8.579   2.290
  288DPPC    C6 8980   4.696   8.443   2.234
  288DPPC   OS7 8981   4.597   8.340   2.234
  288DPPC    P8 8982   4.650   8.204   2.175
  288DPPC   OM9 8983   4.530   8.125   2.149
  288DPPC  OM10 8984   4.749   8.229   2.069
  288DPPC  OS11 8985   4.732   8.147   2.294
  288DPPC   C12 8986   4.660   8.054   2.375
  288DPPC   C13 8987   4.747   7.980   2.477
  288DPPC  OS14 8988   4.674   7.884   2.559
  288DPPC   C15 8989   4.683   7.751   2.531
  288DPPC   O16 8990   4.724   7.704   2.424
  288DPPC   C17 8991   4.616   7.670   2.640
  288DPPC   C18 8992   4.666   7.716   2.777
  288DPPC   C19 8993   4.622   7.619   2.886
  288DPPC   C20 8994   4.670   7.667   3.023
  288DPPC   C21 8995   4.638   7.561   3.129
  288DPPC   C22 8996   4.675   7.608   3.269
  288DPPC   C23 8997   4.581   7.720   3.314
  288DPPC   C24 8998   4.591   7.743   3.465
  288DPPC   C25 8999   4.554   7.613   3.537
  288DPPC   C26 9000   4.519   7.638   3.683
  288DPPC   C27 9001   4.385   7.710   3.692
  288DPPC   C28 9002   4.339   7.726   3.837
  288DPPC   C29 9003   4.307   7.589   3.899
  288DPPC   C30 9004   4.264   7.605   4.045
  288DPPC   C31 9005   4.229   7.470   4.107
  288DPPC   C32 9006   4.824   8.086   2.558
  288DPPC  OS33 9007   4.744   8.194   2.611
  288DPPC   C34 9008   4.809   8.285   2.688
  288DPPC   O35 9009   4.927   8.277   2.722
  288DPPC   C36 9010   4.714   8.397   2.728
  288DPPC   C37 9011   4.747   8.450   2.868
  288DPPC   C38 9012   4.703   8.351   2.976
  288DPPC   C39 9013   4.728   8.410   3.115
  288DPPC   C40 9014   4.677   8.316   3.224
  288DPPC   C41 9015   4.687   8.383   3.361
  288DPPC   C42 9016   4.625   8.296   3.470
  288DPPC   C43 9017   4.626   8.371   3.603
  288DPPC   C44 9018   4.561   8.290   3.715
  288DPPC   C45 9019   4.644   8.168   3.753
  288DPPC   C46 9020   4.586   8.099   3.876
  288DPPC   C47 9021   4.671   7.979   3.918
  288DPPC   C48 9022   4.616   7.917   4.046
  288DPPC   C49 9023   4.698   7.794   4.087
  288DPPC   C50 9024   4.644   7.733   4.216
  289DPPC    C1 9025   0.422   3.085   1.759
  289DPPC    C2 9026   0.541   2.908   1.861
  289DPPC    C3 9027   0.593   2.977   1.637
  289DPPC    N4 9028   0.484   2.955   1.733
  289DPPC    C5 9029   0.381   2.863   1.680
  289DPPC    C6 9030   0.416   2.717   1.639
  289DPPC   OS7 9031   0.453   2.630   1.746
  289DPPC    P8 9032   0.355   2.508   1.764
  289DPPC   OM9 9033   0.319   2.457   1.631
  289DPPC  OM10 9034   0.415   2.420   1.865
  289DPPC  OS11 9035   0.228   2.581   1.821
  289DPPC   C12 9036   0.227   2.594   1.963
  289DPPC   C13 9037   0.103   2.668   2.016
  289DPPC  OS14 9038   0.106   2.700   2.158
  289DPPC   C15 9039   0.111   2.832   2.192
  289DPPC   O16 9040   0.159   2.917   2.116
  289DPPC   C17 9041   0.078   2.854   2.339
  289DPPC   C18 9042  10.112   2.775   2.380
  289DPPC   C19 9043  10.041   2.839   2.500
  289DPPC   C20 9044  10.119   2.827   2.631
  289DPPC   C21 9045  10.035   2.887   2.744
  289DPPC   C22 9046  10.101   2.874   2.881
  289DPPC   C23 9047  10.006   2.927   2.989
  289DPPC   C24 9048  10.064   2.913   3.130
  289DPPC   C25 9049   9.961   2.958   3.234
  289DPPC   C26 9050  10.014   2.945   3.376
  289DPPC   C27 9051   9.907   2.989   3.476
  289DPPC   C28 9052   9.959   2.990   3.620
  289DPPC   C29 9053   9.987   2.848   3.670
  289DPPC   C30 9054  10.028   2.849   3.818
  289DPPC   C31 9055  10.048   2.706   3.869
  289DPPC   C32 9056  10.136   2.588   1.971
  289DPPC  OS33 9057  10.133   2.449   2.011
  289DPPC   C34 9058  10.060   2.423   2.124
  289DPPC   O35 9059   9.971   2.497   2.167
  289DPPC   C36 9060  10.078   2.278   2.166
  289DPPC   C37 9061  10.102   2.271   2.317
  289DPPC   C38 9062   0.081   2.332   2.351
  289DPPC   C39 9063   0.109   2.324   2.500
  289DPPC   C40 9064   0.244   2.388   2.534
  289DPPC   C41 9065   0.273   2.375   2.683
  289DPPC   C42 9066   0.177   2.460   2.766
  289DPPC   C43 9067   0.197   2.433   2.915
  289DPPC   C44 9068   0.096   2.512   2.998
  289DPPC   C45 9069   0.099   2.466   3.144
  289DPPC   C46 9070  10.153   2.543   3.227
  289DPPC   C47 9071  10.140   2.485   3.367
  289DPPC   C48 9072   0.111   2.502   3.449
  289DPPC   C49 9073   0.091   2.445   3.589
  289DPPC   C50 9074   0.221   2.449   3.669
  290DPPC    C1 9075   0.558   9.831   1.544
  290DPPC    C2 9076   0.483   9.888   1.761
  290DPPC    C3 9077   0.432   9.674   1.670
  290DPPC    N4 9078   0.447   9.817   1.638
  290DPPC    C5 9079   0.322   9.869   1.578
  290DPPC    C6 9080   0.199   9.897   1.668
  290DPPC   OS7 9081   0.161   9.791   1.755
  290DPPC    P8 9082   0.016   9.811   1.810
  290DPPC   OM9 9083  10.099   9.759   1.694
  290DPPC  OM10 9084   0.005   9.950   1.855
  290DPPC  OS11 9085   0.024   9.709   1.929
  290DPPC   C12 9086   0.086   9.765   2.045
  290DPPC   C13 9087   0.057   9.684   2.172
  290DPPC  OS14 9088   0.074   9.759   2.296
  290DPPC   C15 9089  10.132   9.742   2.388
  290DPPC   O16 9090  10.017   9.712   2.353
  290DPPC   C17 9091   0.013   9.805   2.521
  290DPPC   C18 9092  10.079   9.756   2.633
  290DPPC   C19 9093  10.137   9.796   2.769
  290DPPC   C20 9094   0.109   9.719   2.797
  290DPPC   C21 9095   0.172   9.761   2.930
  290DPPC   C22 9096   0.081   9.727   3.048
  290DPPC   C23 9097   0.151   9.760   3.179
  290DPPC   C24 9098   0.059   9.737   3.299
  290DPPC   C25 9099   0.134   9.763   3.430
  290DPPC   C26 9100   0.040   9.759   3.550
  290DPPC   C27 9101   0.117   9.785   3.679
  290DPPC   C28 9102   0.022   9.808   3.796
  290DPPC   C29 9103   0.100   9.839   3.924
  290DPPC   C30 9104   0.005   9.878   4.038
  290DPPC   C31 9105  10.072   9.760   4.075
  290DPPC   C32 9106   0.140   9.554   2.162
  290DPPC  OS33 9107   0.282   9.568   2.184
  290DPPC   C34 9108   0.330   9.493   2.288
  290DPPC   O35 9109   0.258   9.448   2.378
  290DPPC   C36 9110   0.481   9.495   2.292
  290DPPC   C37 9111   0.536   9.423   2.415
  290DPPC   C38 9112   0.689   9.414   2.406
  290DPPC   C39 9113   0.750   9.355   2.534
  290DPPC   C40 9114   0.711   9.209   2.556
  290DPPC   C41 9115   0.779   9.156   2.682
  290DPPC   C42 9116   0.728   9.228   2.806
  290DPPC   C43 9117   0.804   9.185   2.932
  290DPPC   C44 9118   0.756   9.264   3.053
  290DPPC   C45 9119   0.844   9.238   3.176
  290DPPC   C46 9120   0.802   9.328   3.292
  290DPPC   C47 9121   0.899   9.318   3.409
  290DPPC   C48 9122   0.888   9.185   3.484
  290DPPC   C49 9123   0.758   9.178   3.563
  290DPPC   C50 9124   0.750   9.048   3.644
  291DPPC    C1 9125   0.628   4.246   1.987
  291DPPC    C2 9126   0.448   4.148   1.865
  291DPPC    C3 9127   0.541   4.353   1.793
  291DPPC    N4 9128   0.574   4.223   1.853
  291DPPC    C5 9129   0.672   4.154   1.765
  291DPPC    C6 9130   0.730   4.017   1.806
  291DPPC   OS7 9131   0.636   3.909   1.811
  291DPPC    P8 9132   0.666   3.821   1.937
  291DPPC   OM9 9133   0.808   3.784   1.928
  291DPPC  OM10 9134   0.611   3.901   2.047
  291DPPC  OS11 9135   0.580   3.695   1.905
  291DPPC   C12 9136   0.470   3.681   1.994
  291DPPC   C13 9137   0.399   3.544   1.989
  291DPPC  OS14 9138   0.276   3.546   2.066
  291DPPC   C15 9139   0.159   3.514   2.004
  291DPPC   O16 9140   0.153   3.477   1.886
  291DPPC   C17 9141   0.041   3.528   2.099
  291DPPC   C18 9142   0.075   3.468   2.236
  291DPPC   C19 9143   0.063   3.315   2.235
  291DPPC   C20 9144   0.126   3.256   2.362
  291DPPC   C21 9145   0.059   3.307   2.489
  291DPPC   C22 9146   0.127   3.249   2.613
  291DPPC   C23 9147   0.069   3.308   2.741
  291DPPC   C24 9148   0.138   3.249   2.865
  291DPPC   C25 9149   0.082   3.311   2.993
  291DPPC   C26 9150   0.146   3.246   3.117
  291DPPC   C27 9151   0.089   3.306   3.245
  291DPPC   C28 9152   0.146   3.234   3.368
  291DPPC   C29 9153   0.090   3.293   3.497
  291DPPC   C30 9154   0.142   3.218   3.620
  291DPPC   C31 9155   0.086   3.278   3.749
  291DPPC   C32 9156   0.503   3.439   2.033
  291DPPC  OS33 9157   0.561   3.460   2.163
  291DPPC   C34 9158   0.513   3.383   2.264
  291DPPC   O35 9159   0.456   3.274   2.248
  291DPPC   C36 9160   0.564   3.435   2.397
  291DPPC   C37 9161   0.530   3.342   2.513
  291DPPC   C38 9162   0.561   3.411   2.646
  291DPPC   C39 9163   0.540   3.318   2.766
  291DPPC   C40 9164   0.563   3.394   2.896
  291DPPC   C41 9165   0.550   3.303   3.018
  291DPPC   C42 9166   0.558   3.383   3.148
  291DPPC   C43 9167   0.550   3.290   3.269
  291DPPC   C44 9168   0.547   3.371   3.399
  291DPPC   C45 9169   0.542   3.278   3.520
  291DPPC   C46 9170   0.534   3.358   3.650
  291DPPC   C47 9171   0.526   3.265   3.772
  291DPPC   C48 9172   0.511   3.346   3.901
  291DPPC   C49 9173   0.497   3.254   4.022
  291DPPC   C50 9174   0.368   3.173   4.014
  292DPPC    C1 9175   1.336   9.757   2.033
  292DPPC    C2 9176   1.241   9.578   1.911
  292DPPC    C3 9177   1.333   9.763   1.793
  292DPPC    N4 9178   1.258   9.724   1.912
  292DPPC    C5 9179   1.125   9.787   1.918
  292DPPC    C6 9180   1.113   9.941   1.919
  292DPPC   OS7 9181   0.983   9.985   1.959
  292DPPC    P8 9182   0.976  10.138   1.995
  292DPPC   OM9 9183   0.837  10.164   2.035
  292DPPC  OM10 9184   1.039  10.212   1.886
  292DPPC  OS11 9185   1.073  10.141   2.118
  292DPPC   C12 9186   1.020  10.088   2.240
  292DPPC   C13 9187   1.134  10.038   2.330
  292DPPC  OS14 9188   1.088   9.980   2.455
  292DPPC   C15 9189   1.067   9.845   2.456
  292DPPC   O16 9190   1.063   9.776   2.353
  292DPPC   C17 9191   1.028   9.797   2.595
  292DPPC   C18 9192   1.028   9.645   2.601
  292DPPC   C19 9193   0.978   9.594   2.736
  292DPPC   C20 9194   1.076   9.624   2.849
  292DPPC   C21 9195   1.025   9.564   2.980
  292DPPC   C22 9196   1.123   9.587   3.095
  292DPPC   C23 9197   1.125   9.734   3.139
  292DPPC   C24 9198   0.995   9.774   3.210
  292DPPC   C25 9199   0.984   9.710   3.349
  292DPPC   C26 9200   1.083   9.772   3.448
  292DPPC   C27 9201   1.069   9.704   3.585
  292DPPC   C28 9202   1.167   9.764   3.687
  292DPPC   C29 9203   1.151   9.694   3.822
  292DPPC   C30 9204   1.013   9.722   3.881
  292DPPC   C31 9205   0.994   9.653   4.016
  292DPPC   C32 9206   1.227  10.160   2.351
  292DPPC  OS33 9207   1.369  10.136   2.343
  292DPPC   C34 9208   1.444  10.244   2.378
  292DPPC   O35 9209   1.396  10.356   2.397
  292DPPC   C36 9210   1.593  10.214   2.376
  292DPPC   C37 9211   1.669  10.312   2.465
  292DPPC   C38 9212   1.644  10.278   2.612
  292DPPC   C39 9213   1.700  10.385   2.706
  292DPPC   C40 9214   1.665  10.348   2.850
  292DPPC   C41 9215   1.707  10.457   2.949
  292DPPC   C42 9216   1.670  10.411   3.090
  292DPPC   C43 9217   1.707   0.011   3.197
  292DPPC   C44 9218   1.671  10.457   3.334
  292DPPC   C45 9219   1.698   0.052   3.448
  292DPPC   C46 9220   1.654  10.493   3.580
  292DPPC   C47 9221   1.668   0.087   3.697
  292DPPC   C48 9222   1.612   0.024   3.824
  292DPPC   C49 9223   1.624   0.119   3.944
  292DPPC   C50 9224   1.566   0.055   4.069
  293DPPC    C1 9225  10.060  10.277   2.283
  293DPPC    C2 9226   0.018  10.127   2.135
  293DPPC    C3 9227   9.958  10.203   2.081
  293DPPC    N4 9228  10.085  10.242   2.143
  293DPPC    C5 9229  10.137  10.358   2.066
  293DPPC    C6 9230   0.111  10.429   2.108
  293DPPC   OS7 9231   0.231  10.352   2.099
  293DPPC    P8 9232   0.347  10.433   2.168
  293DPPC   OM9 9233   0.387   0.033   2.072
  293DPPC  OM10 9234   0.301  10.467   2.303
  293DPPC  OS11 9235   0.459  10.323   2.179
  293DPPC   C12 9236   0.427  10.229   2.281
  293DPPC   C13 9237   0.548  10.155   2.343
  293DPPC  OS14 9238   0.509  10.034   2.415
  293DPPC   C15 9239   0.598   9.930   2.412
  293DPPC   O16 9240   0.665   9.904   2.311
  293DPPC   C17 9241   0.560   9.826   2.516
  293DPPC   C18 9242   0.600   9.872   2.656
  293DPPC   C19 9243   0.570   9.765   2.761
  293DPPC   C20 9244   0.601   9.817   2.901
  293DPPC   C21 9245   0.573   9.713   3.009
  293DPPC   C22 9246   0.593   9.774   3.147
  293DPPC   C23 9247   0.564   9.672   3.258
  293DPPC   C24 9248   0.577   9.740   3.395
  293DPPC   C25 9249   0.546   9.643   3.510
  293DPPC   C26 9250   0.547   9.718   3.643
  293DPPC   C27 9251   0.516   9.624   3.760
  293DPPC   C28 9252   0.630   9.527   3.785
  293DPPC   C29 9253   0.598   9.435   3.903
  293DPPC   C30 9254   0.714   9.339   3.931
  293DPPC   C31 9255   0.679   9.244   4.046
  293DPPC   C32 9256   0.618  10.264   2.427
  293DPPC  OS33 9257   0.745  10.228   2.484
  293DPPC   C34 9258   0.793  10.312   2.579
  293DPPC   O35 9259   0.727  10.400   2.637
  293DPPC   C36 9260   0.934  10.270   2.618
  293DPPC   C37 9261   0.952  10.251   2.769
  293DPPC   C38 9262   0.876  10.129   2.820
  293DPPC   C39 9263   0.921  10.091   2.961
  293DPPC   C40 9264   0.898  10.206   3.060
  293DPPC   C41 9265   0.939  10.166   3.202
  293DPPC   C42 9266   0.933  10.286   3.296
  293DPPC   C43 9267   0.965  10.247   3.441
  293DPPC   C44 9268   0.851  10.167   3.504
  293DPPC   C45 9269   0.879  10.141   3.652
  293DPPC   C46 9270   0.760  10.073   3.720
  293DPPC   C47 9271   0.785  10.054   3.869
  293DPPC   C48 9272   0.665   9.989   3.938
  293DPPC   C49 9273   0.691   9.967   4.087
  293DPPC   C50 9274   0.571   9.901   4.155
  294DPPC    C1 9275   0.567  10.435   1.698
  294DPPC    C2 9276   0.785  10.360   1.754
  294DPPC    C3 9277   0.593  10.285   1.879
  294DPPC    N4 9278   0.655  10.399   1.810
  294DPPC    C5 9279   0.669   0.014   1.899
  294DPPC    C6 9280   0.746  10.501   2.032
  294DPPC   OS7 9281   0.774   0.123   2.095
  294DPPC    P8 9282   0.824   0.096   2.241
  294DPPC   OM9 9283   0.952   0.026   2.226
  294DPPC  OM10 9284   0.710   0.039   2.313
  294DPPC  OS11 9285   0.839   0.248   2.274
  294DPPC   C12 9286   0.970   0.280   2.319
  294DPPC   C13 9287   1.012   0.426   2.292
  294DPPC  OS14 9288   1.154   0.449   2.317
  294DPPC   C15 9289   1.209   0.559   2.256
  294DPPC   O16 9290   1.157   0.611   2.157
  294DPPC   C17 9291   1.355   0.576   2.295
  294DPPC   C18 9292   1.381   0.545   2.443
  294DPPC   C19 9293   1.332   0.657   2.535
  294DPPC   C20 9294   1.378   0.628   2.678
  294DPPC   C21 9295   1.328   0.732   2.778
  294DPPC   C22 9296   1.386   0.702   2.917
  294DPPC   C23 9297   1.341   0.804   3.021
  294DPPC   C24 9298   1.412   0.775   3.154
  294DPPC   C25 9299   1.371   0.874   3.263
  294DPPC   C26 9300   1.448   0.843   3.392
  294DPPC   C27 9301   1.400   0.929   3.509
  294DPPC   C28 9302   1.467   0.882   3.639
  294DPPC   C29 9303   1.409   0.955   3.760
  294DPPC   C30 9304   1.461   0.893   3.890
  294DPPC   C31 9305   1.395   0.957   4.012
  294DPPC   C32 9306   0.908   0.519   2.361
  294DPPC  OS33 9307   0.873   0.488   2.497
  294DPPC   C34 9308   0.925   0.569   2.594
  294DPPC   O35 9309   0.992   0.670   2.573
  294DPPC   C36 9310   0.876   0.525   2.731
  294DPPC   C37 9311   0.952   0.597   2.842
  294DPPC   C38 9312   0.889   0.572   2.979
  294DPPC   C39 9313   0.967   0.646   3.087
  294DPPC   C40 9314   0.902   0.633   3.225
  294DPPC   C41 9315   0.985   0.709   3.329
  294DPPC   C42 9316   0.920   0.705   3.467
  294DPPC   C43 9317   1.005   0.784   3.567
  294DPPC   C44 9318   0.944   0.783   3.708
  294DPPC   C45 9319   1.032   0.864   3.803
  294DPPC   C46 9320   0.979   0.863   3.946
  294DPPC   C47 9321   0.850   0.945   3.960
  294DPPC   C48 9322   0.804   0.946   4.105
  294DPPC   C49 9323   0.678   1.031   4.124
  294DPPC   C50 9324   0.631   1.028   4.269
  295DPPC    C1 9325   1.194  10.438   2.064
  295DPPC    C2 9326   1.256   0.139   1.963
  295DPPC    C3 9327   1.425  10.496   2.046
  295DPPC    N4 9328   1.295  10.501   1.978
  295DPPC    C5 9329   1.298  10.439   1.843
  295DPPC    C6 9330   1.336  10.290   1.825
  295DPPC   OS7 9331   1.473  10.259   1.850
  295DPPC    P8 9332   1.499  10.104   1.843
  295DPPC   OM9 9333   1.427  10.047   1.958
  295DPPC  OM10 9334   1.465  10.056   1.708
  295DPPC  OS11 9335   1.654  10.100   1.864
  295DPPC   C12 9336   1.686  10.131   2.000
  295DPPC   C13 9337   1.836  10.146   2.030
  295DPPC  OS14 9338   1.865  10.135   2.172
  295DPPC   C15 9339   1.986  10.083   2.207
  295DPPC   O16 9340   2.074  10.061   2.123
  295DPPC   C17 9341   2.001  10.068   2.357
  295DPPC   C18 9342   2.146  10.098   2.398
  295DPPC   C19 9343   2.177  10.067   2.545
  295DPPC   C20 9344   2.101  10.158   2.641
  295DPPC   C21 9345   2.146  10.130   2.784
  295DPPC   C22 9346   2.062  10.206   2.885
  295DPPC   C23 9347   2.107  10.176   3.028
  295DPPC   C24 9348   2.007  10.234   3.128
  295DPPC   C25 9349   2.046  10.202   3.272
  295DPPC   C26 9350   2.163  10.289   3.319
  295DPPC   C27 9351   2.204  10.250   3.461
  295DPPC   C28 9352   2.089  10.275   3.559
  295DPPC   C29 9353   2.127  10.224   3.699
  295DPPC   C30 9354   2.011  10.243   3.797
  295DPPC   C31 9355   1.988  10.391   3.825
  295DPPC   C32 9356   1.886  10.272   1.956
  295DPPC  OS33 9357   1.806  10.392   1.968
  295DPPC   C34 9358   1.860   0.001   1.912
  295DPPC   O35 9359   1.973   0.008   1.864
  295DPPC   C36 9360   1.761   0.117   1.917
  295DPPC   C37 9361   1.794   0.219   2.026
  295DPPC   C38 9362   1.752   0.170   2.165
  295DPPC   C39 9363   1.775   0.279   2.269
  295DPPC   C40 9364   1.727   0.236   2.408
  295DPPC   C41 9365   1.755   0.347   2.510
  295DPPC   C42 9366   1.711   0.306   2.651
  295DPPC   C43 9367   1.748   0.414   2.752
  295DPPC   C44 9368   1.707   0.374   2.894
  295DPPC   C45 9369   1.752   0.479   2.995
  295DPPC   C46 9370   1.712   0.438   3.137
  295DPPC   C47 9371   1.762   0.541   3.240
  295DPPC   C48 9372   1.721   0.499   3.382
  295DPPC   C49 9373   1.773   0.600   3.485
  295DPPC   C50 9374   1.731   0.560   3.626
  296DPPC    C1 9375   3.079   1.144   1.695
  296DPPC    C2 9376   2.876   1.237   1.781
  296DPPC    C3 9377   3.085   1.285   1.885
  296DPPC    N4 9378   3.007   1.181   1.818
  296DPPC    C5 9379   2.999   1.065   1.911
  296DPPC    C6 9380   2.905   0.945   1.884
  296DPPC   OS7 9381   2.769   0.966   1.920
  296DPPC    P8 9382   2.684   0.839   1.881
  296DPPC   OM9 9383   2.739   0.723   1.951
  296DPPC  OM10 9384   2.677   0.841   1.735
  296DPPC  OS11 9385   2.548   0.883   1.946
  296DPPC   C12 9386   2.544   0.862   2.087
  296DPPC   C13 9387   2.421   0.928   2.151
  296DPPC  OS14 9388   2.424   0.928   2.296
  296DPPC   C15 9389   2.347   1.021   2.359
  296DPPC   O16 9390   2.286   1.110   2.299
  296DPPC   C17 9391   2.337   0.991   2.508
  296DPPC   C18 9392   2.302   1.117   2.586
  296DPPC   C19 9393   2.427   1.190   2.636
  296DPPC   C20 9394   2.475   1.126   2.767
  296DPPC   C21 9395   2.363   1.141   2.871
  296DPPC   C22 9396   2.401   1.088   3.009
  296DPPC   C23 9397   2.509   1.175   3.073
  296DPPC   C24 9398   2.515   1.150   3.224
  296DPPC   C25 9399   2.624   1.234   3.289
  296DPPC   C26 9400   2.610   1.233   3.441
  296DPPC   C27 9401   2.486   1.314   3.482
  296DPPC   C28 9402   2.467   1.314   3.633
  296DPPC   C29 9403   2.425   1.177   3.684
  296DPPC   C30 9404   2.405   1.180   3.835
  296DPPC   C31 9405   2.290   1.275   3.872
  296DPPC   C32 9406   2.298   0.858   2.088
  296DPPC  OS33 9407   2.283   0.719   2.121
  296DPPC   C34 9408   2.156   0.671   2.121
  296DPPC   O35 9409   2.065   0.717   2.051
  296DPPC   C36 9410   2.155   0.531   2.180
  296DPPC   C37 9411   2.088   0.523   2.317
  296DPPC   C38 9412   2.175   0.587   2.426
  296DPPC   C39 9413   2.117   0.562   2.566
  296DPPC   C40 9414   2.204   0.631   2.672
  296DPPC   C41 9415   2.157   0.599   2.814
  296DPPC   C42 9416   2.251   0.667   2.914
  296DPPC   C43 9417   2.215   0.634   3.060
  296DPPC   C44 9418   2.314   0.705   3.153
  296DPPC   C45 9419   2.285   0.677   3.301
  296DPPC   C46 9420   2.384   0.754   3.388
  296DPPC   C47 9421   2.359   0.732   3.537
  296DPPC   C48 9422   2.391   0.588   3.578
  296DPPC   C49 9423   2.381   0.569   3.729
  296DPPC   C50 9424   2.494   0.645   3.800
  297DPPC    C1 9425   1.838   9.996   1.610
  297DPPC    C2 9426   1.873   9.839   1.436
  297DPPC    C3 9427   2.025   9.844   1.619
  297DPPC    N4 9428   1.883   9.859   1.581
  297DPPC    C5 9429   1.798   9.758   1.649
  297DPPC    C6 9430   1.788   9.756   1.803
  297DPPC   OS7 9431   1.697   9.658   1.854
  297DPPC    P8 9432   1.694   9.660   2.011
  297DPPC   OM9 9433   1.674   9.800   2.050
  297DPPC  OM10 9434   1.595   9.558   2.046
  297DPPC  OS11 9435   1.838   9.608   2.046
  297DPPC   C12 9436   1.842   9.546   2.174
  297DPPC   C13 9437   1.972   9.466   2.199
  297DPPC  OS14 9438   1.962   9.380   2.316
  297DPPC   C15 9439   1.962   9.245   2.302
  297DPPC   O16 9440   1.957   9.186   2.193
  297DPPC   C17 9441   1.961   9.179   2.439
  297DPPC   C18 9442   1.915   9.280   2.544
  297DPPC   C19 9443   1.937   9.227   2.686
  297DPPC   C20 9444   1.892   9.330   2.790
  297DPPC   C21 9445   1.927   9.280   2.930
  297DPPC   C22 9446   1.886   9.379   3.039
  297DPPC   C23 9447   1.940   9.331   3.174
  297DPPC   C24 9448   1.908   9.427   3.288
  297DPPC   C25 9449   1.984   9.385   3.413
  297DPPC   C26 9450   1.950   9.475   3.532
  297DPPC   C27 9451   1.811   9.444   3.585
  297DPPC   C28 9452   1.774   9.535   3.702
  297DPPC   C29 9453   1.637   9.497   3.760
  297DPPC   C30 9454   1.596   9.592   3.872
  297DPPC   C31 9455   1.572   9.732   3.816
  297DPPC   C32 9456   2.086   9.570   2.205
  297DPPC  OS33 9457   2.084   9.654   2.322
  297DPPC   C34 9458   2.169   9.616   2.421
  297DPPC   O35 9459   2.281   9.569   2.401
  297DPPC   C36 9460   2.129   9.685   2.550
  297DPPC   C37 9461   2.215   9.640   2.668
  297DPPC   C38 9462   2.172   9.712   2.796
  297DPPC   C39 9463   2.261   9.676   2.915
  297DPPC   C40 9464   2.221   9.756   3.038
  297DPPC   C41 9465   2.320   9.731   3.152
  297DPPC   C42 9466   2.293   9.823   3.271
  297DPPC   C43 9467   2.408   9.812   3.371
  297DPPC   C44 9468   2.398   9.916   3.483
  297DPPC   C45 9469   2.527   9.915   3.565
  297DPPC   C46 9470   2.529  10.023   3.673
  297DPPC   C47 9471   2.670  10.031   3.733
  297DPPC   C48 9472   2.681  10.135   3.844
  297DPPC   C49 9473   2.825  10.143   3.896
  297DPPC   C50 9474   2.838  10.246   4.008
  298DPPC    C1 9475   3.383   3.708   1.649
  298DPPC    C2 9476   3.504   3.815   1.476
  298DPPC    C3 9477   3.514   3.579   1.498
  298DPPC    N4 9478   3.509   3.705   1.573
  298DPPC    C5 9479   3.626   3.724   1.662
  298DPPC    C6 9480   3.664   3.616   1.766
  298DPPC   OS7 9481   3.568   3.595   1.870
  298DPPC    P8 9482   3.559   3.444   1.914
  298DPPC   OM9 9483   3.554   3.365   1.791
  298DPPC  OM10 9484   3.453   3.435   2.014
  298DPPC  OS11 9485   3.701   3.427   1.978
  298DPPC   C12 9486   3.697   3.383   2.113
  298DPPC   C13 9487   3.836   3.351   2.169
  298DPPC  OS14 9488   3.831   3.273   2.291
  298DPPC   C15 9489   3.938   3.194   2.320
  298DPPC   O16 9490   4.041   3.193   2.253
  298DPPC   C17 9491   3.917   3.117   2.450
  298DPPC   C18 9492   3.936   3.207   2.572
  298DPPC   C19 9493   3.914   3.128   2.701
  298DPPC   C20 9494   3.936   3.216   2.824
  298DPPC   C21 9495   3.914   3.137   2.953
  298DPPC   C22 9496   3.938   3.226   3.075
  298DPPC   C23 9497   3.913   3.149   3.205
  298DPPC   C24 9498   3.934   3.241   3.326
  298DPPC   C25 9499   3.907   3.167   3.457
  298DPPC   C26 9500   3.929   3.260   3.576
  298DPPC   C27 9501   3.904   3.188   3.708
  298DPPC   C28 9502   3.925   3.282   3.827
  298DPPC   C29 9503   3.901   3.210   3.959
  298DPPC   C30 9504   3.923   3.305   4.077
  298DPPC   C31 9505   3.817   3.415   4.079
  298DPPC   C32 9506   3.910   3.487   2.174
  298DPPC  OS33 9507   3.862   3.580   2.274
  298DPPC   C34 9508   3.943   3.594   2.383
  298DPPC   O35 9509   4.057   3.548   2.390
  298DPPC   C36 9510   3.877   3.679   2.490
  298DPPC   C37 9511   3.908   3.620   2.628
  298DPPC   C38 9512   3.844   3.700   2.741
  298DPPC   C39 9513   3.873   3.632   2.875
  298DPPC   C40 9514   3.810   3.710   2.991
  298DPPC   C41 9515   3.826   3.634   3.123
  298DPPC   C42 9516   3.751   3.704   3.235
  298DPPC   C43 9517   3.746   3.620   3.363
  298DPPC   C44 9518   3.663   3.691   3.470
  298DPPC   C45 9519   3.653   3.606   3.597
  298DPPC   C46 9520   3.572   3.679   3.704
  298DPPC   C47 9521   3.561   3.594   3.831
  298DPPC   C48 9522   3.483   3.667   3.941
  298DPPC   C49 9523   3.561   3.787   3.994
  298DPPC   C50 9524   3.484   3.857   4.107
  299DPPC    C1 9525   2.544   3.362   1.943
  299DPPC    C2 9526   2.590   3.130   1.918
  299DPPC    C3 9527   2.568   3.266   1.724
  299DPPC    N4 9528   2.617   3.263   1.863
  299DPPC    C5 9529   2.763   3.284   1.867
  299DPPC    C6 9530   2.829   3.411   1.807
  299DPPC   OS7 9531   2.971   3.408   1.821
  299DPPC    P8 9532   3.046   3.522   1.742
  299DPPC   OM9 9533   3.181   3.473   1.713
  299DPPC  OM10 9534   2.958   3.577   1.637
  299DPPC  OS11 9535   3.053   3.632   1.854
  299DPPC   C12 9536   3.143   3.599   1.960
  299DPPC   C13 9537   3.128   3.695   2.080
  299DPPC  OS14 9538   3.244   3.701   2.168
  299DPPC   C15 9539   3.254   3.806   2.253
  299DPPC   O16 9540   3.224   3.920   2.216
  299DPPC   C17 9541   3.357   3.777   2.360
  299DPPC   C18 9542   3.342   3.875   2.476
  299DPPC   C19 9543   3.416   3.827   2.601
  299DPPC   C20 9544   3.393   3.925   2.716
  299DPPC   C21 9545   3.444   3.868   2.848
  299DPPC   C22 9546   3.421   3.968   2.961
  299DPPC   C23 9547   3.457   3.905   3.096
  299DPPC   C24 9548   3.441   4.004   3.211
  299DPPC   C25 9549   3.296   4.049   3.225
  299DPPC   C26 9550   3.278   4.133   3.351
  299DPPC   C27 9551   3.298   4.048   3.476
  299DPPC   C28 9552   3.288   4.133   3.603
  299DPPC   C29 9553   3.303   4.046   3.727
  299DPPC   C30 9554   3.305   4.132   3.853
  299DPPC   C31 9555   3.433   4.216   3.858
  299DPPC   C32 9556   2.991   3.662   2.144
  299DPPC  OS33 9557   2.978   3.526   2.191
  299DPPC   C34 9558   2.852   3.477   2.206
  299DPPC   O35 9559   2.756   3.513   2.137
  299DPPC   C36 9560   2.862   3.340   2.270
  299DPPC   C37 9561   2.725   3.287   2.314
  299DPPC   C38 9562   2.685   3.342   2.451
  299DPPC   C39 9563   2.780   3.289   2.558
  299DPPC   C40 9564   2.733   3.323   2.700
  299DPPC   C41 9565   2.835   3.272   2.801
  299DPPC   C42 9566   2.788   3.286   2.945
  299DPPC   C43 9567   2.901   3.241   3.039
  299DPPC   C44 9568   2.861   3.245   3.186
  299DPPC   C45 9569   2.986   3.218   3.271
  299DPPC   C46 9570   2.959   3.221   3.421
  299DPPC   C47 9571   2.897   3.091   3.472
  299DPPC   C48 9572   2.887   3.095   3.624
  299DPPC   C49 9573   2.836   2.962   3.680
  299DPPC   C50 9574   2.826   2.967   3.833
  300DPPC    C1 9575   4.320   3.515   1.960
  300DPPC    C2 9576   4.488   3.385   1.853
  300DPPC    C3 9577   4.512   3.450   2.083
  300DPPC    N4 9578   4.465   3.493   1.950
  300DPPC    C5 9579   4.529   3.621   1.908
  300DPPC    C6 9580   4.684   3.632   1.903
  300DPPC   OS7 9581   4.750   3.557   1.800
  300DPPC    P8 9582   4.879   3.484   1.854
  300DPPC   OM9 9583   4.949   3.426   1.738
  300DPPC  OM10 9584   4.828   3.403   1.965
  300DPPC  OS11 9585   4.963   3.604   1.909
  300DPPC   C12 9586   5.056   3.559   2.007
  300DPPC   C13 9587   5.135   3.674   2.072
  300DPPC  OS14 9588   5.251   3.630   2.148
  300DPPC   C15 9589   5.353   3.719   2.161
  300DPPC   O16 9590   5.363   3.821   2.091
  300DPPC   C17 9591   5.461   3.666   2.255
  300DPPC   C18 9592   5.480   3.757   2.377
  300DPPC   C19 9593   5.356   3.751   2.465
  300DPPC   C20 9594   5.364   3.840   2.590
  300DPPC   C21 9595   5.445   3.774   2.702
  300DPPC   C22 9596   5.445   3.862   2.827
  300DPPC   C23 9597   5.516   3.793   2.942
  300DPPC   C24 9598   5.539   3.891   3.057
  300DPPC   C25 9599   5.411   3.920   3.136
  300DPPC   C26 9600   5.406   3.837   3.264
  300DPPC   C27 9601   5.523   3.877   3.355
  300DPPC   C28 9602   5.517   3.807   3.491
  300DPPC   C29 9603   5.403   3.862   3.577
  300DPPC   C30 9604   5.406   3.801   3.717
  300DPPC   C31 9605   5.529   3.848   3.794
  300DPPC   C32 9606   5.030   3.757   2.149
  300DPPC  OS33 9607   4.967   3.690   2.260
  300DPPC   C34 9608   4.987   3.748   2.382
  300DPPC   O35 9609   5.045   3.855   2.399
  300DPPC   C36 9610   4.930   3.661   2.493
  300DPPC   C37 9611   4.979   3.713   2.629
  300DPPC   C38 9612   4.931   3.627   2.746
  300DPPC   C39 9613   4.974   3.691   2.878
  300DPPC   C40 9614   4.926   3.611   2.999
  300DPPC   C41 9615   4.972   3.681   3.128
  300DPPC   C42 9616   4.934   3.602   3.253
  300DPPC   C43 9617   4.987   3.674   3.378
  300DPPC   C44 9618   4.961   3.593   3.505
  300DPPC   C45 9619   5.022   3.664   3.626
  300DPPC   C46 9620   5.006   3.582   3.754
  300DPPC   C47 9621   5.073   3.653   3.872
  300DPPC   C48 9622   5.062   3.572   4.001
  300DPPC   C49 9623   5.131   3.644   4.117
  300DPPC   C50 9624   5.118   3.566   4.247
  301DPPC    C1 9625   3.127  10.350   1.369
  301DPPC    C2 9626   3.225  10.140   1.418
  301DPPC    C3 9627   3.334  10.293   1.270
  301DPPC    N4 9628   3.255  10.281   1.393
  301DPPC    C5 9629   3.323  10.345   1.508
  301DPPC    C6 9630   3.460  10.293   1.557
  301DPPC   OS7 9631   3.457  10.166   1.622
  301DPPC    P8 9632   3.597  10.118   1.670
  301DPPC   OM9 9633   3.649  10.040   1.556
  301DPPC  OM10 9634   3.671  10.235   1.720
  301DPPC  OS11 9635   3.548  10.022   1.785
  301DPPC   C12 9636   3.517  10.097   1.902
  301DPPC   C13 9637   3.449  10.016   2.015
  301DPPC  OS14 9638   3.408  10.099   2.126
  301DPPC   C15 9639   3.278  10.088   2.166
  301DPPC   O16 9640   3.194  10.030   2.097
  301DPPC   C17 9641   3.249  10.179   2.284
  301DPPC   C18 9642   3.102  10.171   2.326
  301DPPC   C19 9643   3.072  10.276   2.434
  301DPPC   C20 9644   3.144  10.245   2.566
  301DPPC   C21 9645   3.114  10.352   2.670
  301DPPC   C22 9646   3.173  10.316   2.807
  301DPPC   C23 9647   3.138  10.422   2.911
  301DPPC   C24 9648   3.181  10.378   3.051
  301DPPC   C25 9649   3.138  10.481   3.156
  301DPPC   C26 9650   3.167  10.429   3.297
  301DPPC   C27 9651   3.120   0.025   3.404
  301DPPC   C28 9652   3.143  10.470   3.544
  301DPPC   C29 9653   3.091   0.061   3.653
  301DPPC   C30 9654   3.112   0.001   3.792
  301DPPC   C31 9655   3.061   0.094   3.902
  301DPPC   C32 9656   3.542   9.898   2.050
  301DPPC  OS33 9657   3.680   9.928   2.083
  301DPPC   C34 9658   3.712   9.919   2.215
  301DPPC   O35 9659   3.631   9.894   2.305
  301DPPC   C36 9660   3.860   9.946   2.236
  301DPPC   C37 9661   3.884  10.008   2.374
  301DPPC   C38 9662   4.034  10.027   2.397
  301DPPC   C39 9663   4.060  10.104   2.527
  301DPPC   C40 9664   4.012  10.026   2.650
  301DPPC   C41 9665   4.049  10.102   2.777
  301DPPC   C42 9666   3.996  10.033   2.903
  301DPPC   C43 9667   4.040  10.111   3.026
  301DPPC   C44 9668   3.980  10.055   3.155
  301DPPC   C45 9669   4.032  10.134   3.275
  301DPPC   C46 9670   3.962  10.091   3.405
  301DPPC   C47 9671   4.020  10.168   3.524
  301DPPC   C48 9672   3.940  10.142   3.651
  301DPPC   C49 9673   3.953   9.997   3.697
  301DPPC   C50 9674   3.873   9.975   3.826
  302DPPC    C1 9675   2.660   0.251   1.774
  302DPPC    C2 9676   2.748   0.442   1.661
  302DPPC    C3 9677   2.569   0.470   1.815
  302DPPC    N4 9678   2.625   0.380   1.712
  302DPPC    C5 9679   2.532   0.362   1.598
  302DPPC    C6 9680   2.392   0.298   1.620
  302DPPC   OS7 9681   2.305   0.376   1.702
  302DPPC    P8 9682   2.179   0.296   1.750
  302DPPC   OM9 9683   2.124   0.219   1.637
  302DPPC  OM10 9684   2.095   0.396   1.817
  302DPPC  OS11 9685   2.251   0.202   1.853
  302DPPC   C12 9686   2.201   0.220   1.985
  302DPPC   C13 9687   2.259   0.123   2.089
  302DPPC  OS14 9688   2.181   0.122   2.211
  302DPPC   C15 9689   2.180   0.005   2.282
  302DPPC   O16 9690   2.248  10.410   2.249
  302DPPC   C17 9691   2.091   0.015   2.404
  302DPPC   C18 9692   2.164   0.083   2.520
  302DPPC   C19 9693   2.077   0.087   2.645
  302DPPC   C20 9694   2.158   0.139   2.764
  302DPPC   C21 9695   2.073   0.144   2.891
  302DPPC   C22 9696   2.157   0.182   3.013
  302DPPC   C23 9697   2.068   0.192   3.137
  302DPPC   C24 9698   2.149   0.220   3.264
  302DPPC   C25 9699   2.054   0.234   3.382
  302DPPC   C26 9700   2.127   0.254   3.515
  302DPPC   C27 9701   2.024   0.275   3.626
  302DPPC   C28 9702   2.091   0.289   3.763
  302DPPC   C29 9703   1.986   0.314   3.871
  302DPPC   C30 9704   2.050   0.318   4.010
  302DPPC   C31 9705   2.103   0.180   4.049
  302DPPC   C32 9706   2.409   0.158   2.102
  302DPPC  OS33 9707   2.442   0.294   2.136
  302DPPC   C34 9708   2.565   0.312   2.190
  302DPPC   O35 9709   2.656   0.229   2.178
  302DPPC   C36 9710   2.585   0.455   2.240
  302DPPC   C37 9711   2.648   0.456   2.379
  302DPPC   C38 9712   2.544   0.421   2.485
  302DPPC   C39 9713   2.604   0.399   2.625
  302DPPC   C40 9714   2.491   0.368   2.723
  302DPPC   C41 9715   2.537   0.304   2.854
  302DPPC   C42 9716   2.597   0.400   2.956
  302DPPC   C43 9717   2.622   0.321   3.085
  302DPPC   C44 9718   2.669   0.407   3.203
  302DPPC   C45 9719   2.678   0.318   3.327
  302DPPC   C46 9720   2.714   0.397   3.454
  302DPPC   C47 9721   2.860   0.442   3.455
  302DPPC   C48 9722   2.891   0.517   3.584
  302DPPC   C49 9723   2.878   0.426   3.706
  302DPPC   C50 9724   2.908   0.502   3.836
  303DPPC    C1 9725   3.996  10.263   1.297
  303DPPC    C2 9726   3.954  10.055   1.407
  303DPPC    C3 9727   3.924  10.261   1.522
  303DPPC    N4 9728   4.008  10.191   1.424
  303DPPC    C5 9729   4.151  10.190   1.463
  303DPPC    C6 9730   4.198  10.119   1.593
  303DPPC   OS7 9731   4.147  10.174   1.714
  303DPPC    P8 9732   4.212  10.108   1.841
  303DPPC   OM9 9733   4.232   9.966   1.810
  303DPPC  OM10 9734   4.324  10.200   1.867
  303DPPC  OS11 9735   4.088  10.135   1.936
  303DPPC   C12 9736   4.094  10.264   1.998
  303DPPC   C13 9737   4.011  10.373   1.927
  303DPPC  OS14 9738   4.053   0.006   1.957
  303DPPC   C15 9739   4.018   0.101   1.865
  303DPPC   O16 9740   3.984   0.073   1.750
  303DPPC   C17 9741   4.056   0.241   1.911
  303DPPC   C18 9742   3.944   0.341   1.883
  303DPPC   C19 9743   3.829   0.323   1.982
  303DPPC   C20 9744   3.871   0.363   2.123
  303DPPC   C21 9745   3.756   0.345   2.222
  303DPPC   C22 9746   3.797   0.383   2.364
  303DPPC   C23 9747   3.677   0.370   2.458
  303DPPC   C24 9748   3.709   0.417   2.600
  303DPPC   C25 9749   3.797   0.318   2.676
  303DPPC   C26 9750   3.813   0.366   2.820
  303DPPC   C27 9751   3.678   0.366   2.892
  303DPPC   C28 9752   3.687   0.432   3.030
  303DPPC   C29 9753   3.771   0.349   3.127
  303DPPC   C30 9754   3.774   0.416   3.264
  303DPPC   C31 9755   3.853   0.332   3.365
  303DPPC   C32 9756   3.863  10.336   1.952
  303DPPC  OS33 9757   3.817  10.353   2.087
  303DPPC   C34 9758   3.706  10.431   2.100
  303DPPC   O35 9759   3.649  10.487   2.006
  303DPPC   C36 9760   3.666  10.446   2.246
  303DPPC   C37 9761   3.623  10.311   2.304
  303DPPC   C38 9762   3.592  10.320   2.453
  303DPPC   C39 9763   3.720  10.347   2.533
  303DPPC   C40 9764   3.695  10.333   2.683
  303DPPC   C41 9765   3.605  10.443   2.737
  303DPPC   C42 9766   3.578  10.420   2.886
  303DPPC   C43 9767   3.708  10.432   2.967
  303DPPC   C44 9768   3.684  10.395   3.113
  303DPPC   C45 9769   3.592  10.495   3.182
  303DPPC   C46 9770   3.562  10.452   3.325
  303DPPC   C47 9771   3.687  10.456   3.413
  303DPPC   C48 9772   3.655  10.409   3.554
  303DPPC   C49 9773   3.560   0.003   3.625
  303DPPC   C50 9774   3.526  10.456   3.765
  304DPPC    C1 9775   5.045   1.140   2.071
  304DPPC    C2 9776   5.210   1.269   2.188
  304DPPC    C3 9777   5.251   1.197   1.966
  304DPPC    N4 9778   5.189   1.159   2.093
  304DPPC    C5 9779   5.252   1.038   2.151
  304DPPC    C6 9780   5.266   0.913   2.061
  304DPPC   OS7 9781   5.142   0.855   2.022
  304DPPC    P8 9782   5.155   0.767   1.892
  304DPPC   OM9 9783   5.224   0.858   1.798
  304DPPC  OM10 9784   5.022   0.711   1.864
  304DPPC  OS11 9785   5.249   0.654   1.948
  304DPPC   C12 9786   5.184   0.573   2.046
  304DPPC   C13 9787   5.276   0.471   2.115
  304DPPC  OS14 9788   5.209   0.403   2.225
  304DPPC   C15 9789   5.259   0.284   2.267
  304DPPC   O16 9790   5.344   0.221   2.203
  304DPPC   C17 9791   5.187   0.231   2.390
  304DPPC   C18 9792   5.035   0.226   2.371
  304DPPC   C19 9793   4.974   0.145   2.485
  304DPPC   C20 9794   4.821   0.136   2.477
  304DPPC   C21 9795   4.770   0.041   2.585
  304DPPC   C22 9796   4.803   0.094   2.725
  304DPPC   C23 9797   4.766  10.495   2.833
  304DPPC   C24 9798   4.793   0.048   2.972
  304DPPC   C25 9799   4.755  10.448   3.079
  304DPPC   C26 9800   4.761   0.004   3.219
  304DPPC   C27 9801   4.708  10.406   3.321
  304DPPC   C28 9802   4.689  10.469   3.459
  304DPPC   C29 9803   4.624  10.370   3.555
  304DPPC   C30 9804   4.591  10.435   3.689
  304DPPC   C31 9805   4.528  10.334   3.785
  304DPPC   C32 9806   5.405   0.547   2.156
  304DPPC  OS33 9807   5.393   0.649   2.256
  304DPPC   C34 9808   5.510   0.683   2.317
  304DPPC   O35 9809   5.620   0.635   2.287
  304DPPC   C36 9810   5.486   0.783   2.429
  304DPPC   C37 9811   5.573   0.751   2.551
  304DPPC   C38 9812   5.714   0.807   2.538
  304DPPC   C39 9813   5.719   0.954   2.580
  304DPPC   C40 9814   5.722   0.966   2.732
  304DPPC   C41 9815   5.720   1.114   2.772
  304DPPC   C42 9816   5.759   1.136   2.918
  304DPPC   C43 9817   5.656   1.087   3.020
  304DPPC   C44 9818   5.705   1.125   3.160
  304DPPC   C45 9819   5.610   1.078   3.271
  304DPPC   C46 9820   5.666   1.120   3.407
  304DPPC   C47 9821   5.576   1.074   3.521
  304DPPC   C48 9822   5.633   1.117   3.656
  304DPPC   C49 9823   5.542   1.072   3.771
  304DPPC   C50 9824   5.600   1.114   3.906
  305DPPC    C1 9825   9.646  10.394   1.452
  305DPPC    C2 9826   9.604  10.173   1.524
  305DPPC    C3 9827   9.822  10.230   1.455
  305DPPC    N4 9828   9.704  10.280   1.526
  305DPPC    C5 9829   9.734  10.316   1.667
  305DPPC    C6 9830   9.829  10.434   1.700
  305DPPC   OS7 9831   9.840  10.465   1.839
  305DPPC    P8 9832   9.892   0.108   1.862
  305DPPC   OM9 9833  10.016   0.119   1.940
  305DPPC  OM10 9834   9.867   0.195   1.746
  305DPPC  OS11 9835   9.776   0.141   1.962
  305DPPC   C12 9836   9.801   0.269   2.020
  305DPPC   C13 9837   9.713   0.305   2.141
  305DPPC  OS14 9838   9.719   0.447   2.170
  305DPPC   C15 9839   9.605   0.504   2.218
  305DPPC   O16 9840   9.492   0.460   2.188
  305DPPC   C17 9841   9.634   0.648   2.254
  305DPPC   C18 9842   9.585   0.688   2.393
  305DPPC   C19 9843   9.433   0.706   2.396
  305DPPC   C20 9844   9.388   0.770   2.527
  305DPPC   C21 9845   9.435   0.916   2.534
  305DPPC   C22 9846   9.400   0.978   2.669
  305DPPC   C23 9847   9.481   0.913   2.780
  305DPPC   C24 9848   9.453   0.981   2.914
  305DPPC   C25 9849   9.527   0.910   3.028
  305DPPC   C26 9850   9.497   0.978   3.161
  305DPPC   C27 9851   9.559   0.900   3.277
  305DPPC   C28 9852   9.527   0.966   3.411
  305DPPC   C29 9853   9.584   0.885   3.527
  305DPPC   C30 9854   9.551   0.952   3.660
  305DPPC   C31 9855   9.625   1.085   3.673
  305DPPC   C32 9856   9.753   0.208   2.254
  305DPPC  OS33 9857   9.694   0.236   2.382
  305DPPC   C34 9858   9.750   0.174   2.489
  305DPPC   O35 9859   9.797   0.060   2.485
  305DPPC   C36 9860   9.698   0.241   2.615
  305DPPC   C37 9861   9.710   0.151   2.739
  305DPPC   C38 9862   9.853   0.146   2.792
  305DPPC   C39 9863   9.860   0.063   2.920
  305DPPC   C40 9864   9.789   0.137   3.033
  305DPPC   C41 9865   9.798   0.058   3.164
  305DPPC   C42 9866   9.739   0.140   3.278
  305DPPC   C43 9867   9.759   0.069   3.412
  305DPPC   C44 9868   9.709   0.156   3.527
  305DPPC   C45 9869   9.742   0.090   3.661
  305DPPC   C46 9870   9.700   0.179   3.778
  305DPPC   C47 9871   9.740   0.115   3.910
  305DPPC   C48 9872   9.696   0.200   4.029
  305DPPC   C49 9873   9.735   0.130   4.159
  305DPPC   C50 9874   9.661  10.500   4.173
  306DPPC    C1 9875   0.678   2.089   1.690
  306DPPC    C2 9876   0.443   2.097   1.744
  306DPPC    C3 9877   0.606   2.158   1.904
  306DPPC    N4 9878   0.578   2.065   1.794
  306DPPC    C5 9879   0.587   1.928   1.848
  306DPPC    C6 9880   0.560   1.804   1.758
  306DPPC   OS7 9881   0.589   1.681   1.825
  306DPPC    P8 9882   0.515   1.558   1.759
  306DPPC   OM9 9883   0.589   1.433   1.783
  306DPPC  OM10 9884   0.465   1.589   1.625
  306DPPC  OS11 9885   0.391   1.555   1.856
  306DPPC   C12 9886   0.417   1.493   1.982
  306DPPC   C13 9887   0.435   1.592   2.098
  306DPPC  OS14 9888   0.507   1.536   2.212
  306DPPC   C15 9889   0.581   1.626   2.283
  306DPPC   O16 9890   0.625   1.728   2.229
  306DPPC   C17 9891   0.629   1.570   2.415
  306DPPC   C18 9892   0.738   1.660   2.473
  306DPPC   C19 9893   0.779   1.617   2.614
  306DPPC   C20 9894   0.898   1.702   2.660
  306DPPC   C21 9895   0.943   1.670   2.802
  306DPPC   C22 9896   0.845   1.724   2.906
  306DPPC   C23 9897   0.908   1.721   3.045
  306DPPC   C24 9898   0.814   1.778   3.152
  306DPPC   C25 9899   0.888   1.795   3.285
  306DPPC   C26 9900   0.931   1.660   3.343
  306DPPC   C27 9901   1.016   1.679   3.468
  306DPPC   C28 9902   0.934   1.739   3.582
  306DPPC   C29 9903   1.021   1.760   3.707
  306DPPC   C30 9904   0.939   1.820   3.821
  306DPPC   C31 9905   0.896   1.963   3.788
  306DPPC   C32 9906   0.295   1.651   2.125
  306DPPC  OS33 9907   0.198   1.556   2.175
  306DPPC   C34 9908   0.186   1.544   2.310
  306DPPC   O35 9909   0.241   1.618   2.391
  306DPPC   C36 9910   0.086   1.435   2.345
  306DPPC   C37 9911   0.010   1.465   2.475
  306DPPC   C38 9912   0.090   1.426   2.600
  306DPPC   C39 9913   0.014   1.465   2.727
  306DPPC   C40 9914   0.092   1.425   2.852
  306DPPC   C41 9915   0.020   1.467   2.979
  306DPPC   C42 9916   0.101   1.427   3.102
  306DPPC   C43 9917   0.033   1.470   3.232
  306DPPC   C44 9918   0.117   1.431   3.354
  306DPPC   C45 9919   0.049   1.473   3.484
  306DPPC   C46 9920   0.038   1.625   3.493
  306DPPC   C47 9921  10.134   1.669   3.626
  306DPPC   C48 9922   0.072   1.638   3.742
  306DPPC   C49 9923   0.013   1.687   3.875
  306DPPC   C50 9924   0.109   1.662   3.991
  307DPPC    C1 9925   0.763   0.878   1.822
  307DPPC    C2 9926   0.770   0.934   2.053
  307DPPC    C3 9927   0.919   0.769   1.971
  307DPPC    N4 9928   0.853   0.896   1.938
  307DPPC    C5 9929   0.949   1.006   1.912
  307DPPC    C6 9930   1.053   1.000   1.798
  307DPPC   OS7 9931   1.103   1.131   1.766
  307DPPC    P8 9932   1.241   1.130   1.689
  307DPPC   OM9 9933   1.327   1.024   1.742
  307DPPC  OM10 9934   1.222   1.150   1.545
  307DPPC  OS11 9935   1.289   1.268   1.751
  307DPPC   C12 9936   1.334   1.251   1.886
  307DPPC   C13 9937   1.340   1.377   1.973
  307DPPC  OS14 9938   1.384   1.344   2.108
  307DPPC   C15 9939   1.512   1.381   2.139
  307DPPC   O16 9940   1.594   1.418   2.054
  307DPPC   C17 9941   1.544   1.354   2.285
  307DPPC   C18 9942   1.446   1.427   2.377
  307DPPC   C19 9943   1.490   1.415   2.523
  307DPPC   C20 9944   1.390   1.484   2.617
  307DPPC   C21 9945   1.439   1.472   2.762
  307DPPC   C22 9946   1.339   1.532   2.861
  307DPPC   C23 9947   1.390   1.514   3.004
  307DPPC   C24 9948   1.511   1.603   3.030
  307DPPC   C25 9949   1.582   1.563   3.159
  307DPPC   C26 9950   1.494   1.582   3.284
  307DPPC   C27 9951   1.570   1.530   3.406
  307DPPC   C28 9952   1.488   1.544   3.535
  307DPPC   C29 9953   1.567   1.486   3.653
  307DPPC   C30 9954   1.489   1.499   3.784
  307DPPC   C31 9955   1.569   1.440   3.901
  307DPPC   C32 9956   1.201   1.443   1.965
  307DPPC  OS33 9957   1.176   1.562   2.042
  307DPPC   C34 9958   1.090   1.543   2.148
  307DPPC   O35 9959   1.036   1.435   2.174
  307DPPC   C36 9960   1.071   1.670   2.229
  307DPPC   C37 9961   1.203   1.723   2.283
  307DPPC   C38 9962   1.180   1.827   2.393
  307DPPC   C39 9963   1.314   1.882   2.443
  307DPPC   C40 9964   1.297   1.979   2.560
  307DPPC   C41 9965   1.266   1.904   2.689
  307DPPC   C42 9966   1.264   2.000   2.809
  307DPPC   C43 9967   1.251   1.922   2.940
  307DPPC   C44 9968   1.264   2.014   3.061
  307DPPC   C45 9969   1.263   1.933   3.190
  307DPPC   C46 9970   1.288   2.022   3.312
  307DPPC   C47 9971   1.169   2.114   3.340
  307DPPC   C48 9972   1.202   2.208   3.455
  307DPPC   C49 9973   1.228   2.130   3.584
  307DPPC   C50 9974   1.273   2.224   3.696
  308DPPC    C1 9975   3.166   2.263   1.487
  308DPPC    C2 9976   3.305   2.331   1.668
  308DPPC    C3 9977   3.230   2.104   1.649
  308DPPC    N4 9978   3.192   2.244   1.630
  308DPPC    C5 9979   3.068   2.280   1.704
  308DPPC    C6 9980   3.062   2.265   1.858
  308DPPC   OS7 9981   2.939   2.309   1.914
  308DPPC    P8 9982   2.938   2.282   2.069
  308DPPC   OM9 9983   3.039   2.376   2.121
  308DPPC  OM10 9984   2.950   2.137   2.087
  308DPPC  OS11 9985   2.794   2.333   2.097
  308DPPC   C12 9986   2.783   2.398   2.224
  308DPPC   C13 9987   2.646   2.463   2.247
  308DPPC  OS14 9988   2.647   2.544   2.368
  308DPPC   C15 9989   2.549   2.636   2.388
  308DPPC   O16 9990   2.469   2.671   2.300
  308DPPC   C17 9991   2.562   2.700   2.525
  308DPPC   C18 9992   2.558   2.593   2.634
  308DPPC   C19 9993   2.581   2.656   2.771
  308DPPC   C20 9994   2.573   2.552   2.883
  308DPPC   C21 9995   2.601   2.620   3.017
  308DPPC   C22 9996   2.590   2.524   3.135
  308DPPC   C23 9997   2.625   2.599   3.263
  308DPPC   C24 9998   2.598   2.517   3.390
  308DPPC   C25 9999   2.626   2.604   3.512
  308DPPC   C2610000   2.583   2.536   3.642
  308DPPC   C2710001   2.602   2.633   3.759
  308DPPC   C2810002   2.558   2.569   3.891
  308DPPC   C2910003   2.650   2.453   3.927
  308DPPC   C3010004   2.606   2.387   4.057
  308DPPC   C3110005   2.698   2.270   4.093
  308DPPC   C3210006   2.542   2.349   2.241
  308DPPC  OS3310007   2.548   2.254   2.350
  308DPPC   C3410008   2.484   2.135   2.334
  308DPPC   O3510009   2.466   2.081   2.224
  308DPPC   C3610010   2.480   2.060   2.466
  308DPPC   C3710011   2.454   2.154   2.584
  308DPPC   C3810012   2.446   2.075   2.715
  308DPPC   C3910013   2.433   2.166   2.837
  308DPPC   C4010014   2.423   2.082   2.965
  308DPPC   C4110015   2.413   2.171   3.089
  308DPPC   C4210016   2.393   2.089   3.216
  308DPPC   C4310017   2.382   2.181   3.338
  308DPPC   C4410018   2.349   2.105   3.466
  308DPPC   C4510019   2.342   2.203   3.583
  308DPPC   C4610020   2.298   2.136   3.714
  308DPPC   C4710021   2.298   2.238   3.827
  308DPPC   C4810022   2.253   2.177   3.960
  308DPPC   C4910023   2.103   2.152   3.962
  308DPPC   C5010024   2.024   2.283   3.964
  309DPPC    C110025   9.469   2.722   1.558
  309DPPC    C210026   9.295   2.561   1.581
  309DPPC    C310027   9.515   2.520   1.671
  309DPPC    N410028   9.411   2.622   1.648
  309DPPC    C510029   9.371   2.690   1.774
  309DPPC    C610030   9.319   2.608   1.894
  309DPPC   OS710031   9.280   2.689   2.006
  309DPPC    P810032   9.238   2.601   2.130
  309DPPC   OM910033   9.152   2.678   2.221
  309DPPC  OM1010034   9.190   2.470   2.086
  309DPPC  OS1110035   9.381   2.586   2.191
  309DPPC   C1210036   9.384   2.587   2.334
  309DPPC   C1310037   9.396   2.447   2.396
  309DPPC  OS1410038   9.363   2.443   2.537
  309DPPC   C1510039   9.271   2.350   2.572
  309DPPC   O1610040   9.188   2.311   2.490
  309DPPC   C1710041   9.252   2.345   2.723
  309DPPC   C1810042   9.257   2.201   2.776
  309DPPC   C1910043   9.401   2.155   2.799
  309DPPC   C2010044   9.456   2.213   2.929
  309DPPC   C2110045   9.385   2.151   3.049
  309DPPC   C2210046   9.434   2.212   3.181
  309DPPC   C2310047   9.359   2.149   3.298
  309DPPC   C2410048   9.400   2.212   3.431
  309DPPC   C2510049   9.320   2.151   3.546
  309DPPC   C2610050   9.353   2.218   3.679
  309DPPC   C2710051   9.273   2.155   3.793
  309DPPC   C2810052   9.301   2.225   3.926
  309DPPC   C2910053   9.229   2.156   4.042
  309DPPC   C3010054   9.077   2.167   4.027
  309DPPC   C3110055   9.007   2.096   4.144
  309DPPC   C3210056   9.536   2.395   2.357
  309DPPC  OS3310057   9.647   2.469   2.412
  309DPPC   C3410058   9.708   2.407   2.518
  309DPPC   O3510059   9.692   2.288   2.545
  309DPPC   C3610060   9.815   2.497   2.579
  309DPPC   C3710061   9.899   2.425   2.684
  309DPPC   C3810062   9.824   2.405   2.815
  309DPPC   C3910063   9.815   2.533   2.899
  309DPPC   C4010064   9.729   2.509   3.022
  309DPPC   C4110065   9.724   2.634   3.111
  309DPPC   C4210066   9.616   2.623   3.219
  309DPPC   C4310067   9.655   2.533   3.336
  309DPPC   C4410068   9.768   2.597   3.417
  309DPPC   C4510069   9.780   2.536   3.557
  309DPPC   C4610070   9.663   2.582   3.644
  309DPPC   C4710071   9.687   2.552   3.792
  309DPPC   C4810072   9.686   2.401   3.820
  309DPPC   C4910073   9.715   2.376   3.968
  309DPPC   C5010074   9.605   2.435   4.057
  310DPPC    C110075  10.123   1.184   1.636
  310DPPC    C210076   0.089   1.163   1.436
  310DPPC    C310077   0.203   1.148   1.645
  310DPPC    N410078   0.094   1.216   1.573
  310DPPC    C510079   0.116   1.362   1.565
  310DPPC    C610080   0.132   1.446   1.695
  310DPPC   OS710081   0.020   1.444   1.783
  310DPPC    P810082  10.094   1.576   1.767
  310DPPC   OM910083  10.029   1.567   1.635
  310DPPC  OM1010084   0.030   1.684   1.800
  310DPPC  OS1110085   9.991   1.552   1.882
  310DPPC   C1210086  10.045   1.589   2.008
  310DPPC   C1310087   9.937   1.618   2.113
  310DPPC  OS1410088   9.985   1.699   2.225
  310DPPC   C1510089   9.892   1.757   2.307
  310DPPC   O1610090   9.772   1.765   2.278
  310DPPC   C1710091   9.962   1.833   2.418
  310DPPC   C1810092   9.878   1.841   2.546
  310DPPC   C1910093   9.951   1.926   2.651
  310DPPC   C2010094   9.873   1.932   2.783
  310DPPC   C2110095   9.942   2.028   2.881
  310DPPC   C2210096   9.868   2.038   3.014
  310DPPC   C2310097   9.926   2.153   3.097
  310DPPC   C2410098   9.849   2.175   3.227
  310DPPC   C2510099   9.897   2.084   3.341
  310DPPC   C2610100   9.819   2.114   3.469
  310DPPC   C2710101   9.885   2.051   3.591
  310DPPC   C2810102  10.021   2.117   3.616
  310DPPC   C2910103  10.087   2.065   3.744
  310DPPC   C3010104  10.014   2.116   3.869
  310DPPC   C3110105  10.085   2.069   3.996
  310DPPC   C3210106   9.866   1.484   2.141
  310DPPC  OS3310107   9.947   1.372   2.184
  310DPPC   C3410108   9.879   1.266   2.236
  310DPPC   O3510109   9.763   1.273   2.278
  310DPPC   C3610110   9.972   1.147   2.256
  310DPPC   C3710111   9.926   1.057   2.372
  310DPPC   C3810112   9.959   1.122   2.506
  310DPPC   C3910113   9.920   1.034   2.625
  310DPPC   C4010114   9.957   1.105   2.755
  310DPPC   C4110115   9.928   1.020   2.879
  310DPPC   C4210116   9.968   1.099   3.004
  310DPPC   C4310117   9.950   1.017   3.132
  310DPPC   C4410118   9.992   1.100   3.253
  310DPPC   C4510119   9.982   1.021   3.383
  310DPPC   C4610120  10.028   1.106   3.501
  310DPPC   C4710121  10.024   1.028   3.632
  310DPPC   C4810122  10.071   1.114   3.750
  310DPPC   C4910123   9.973   1.229   3.775
  310DPPC   C5010124  10.017   1.313   3.895
  311DPPC    C110125   1.392   2.329   1.802
  311DPPC    C210126   1.277   2.122   1.800
  311DPPC    C310127   1.242   2.270   1.979
  311DPPC    N410128   1.264   2.264   1.834
  311DPPC    C510129   1.151   2.322   1.757
  311DPPC    C610130   1.103   2.467   1.786
  311DPPC   OS710131   1.200   2.568   1.758
  311DPPC    P810132   1.193   2.689   1.859
  311DPPC   OM910133   1.304   2.780   1.833
  311DPPC  OM1010134   1.055   2.738   1.868
  311DPPC  OS1110135   1.229   2.612   1.992
  311DPPC   C1210136   1.180   2.683   2.105
  311DPPC   C1310137   1.191   2.602   2.236
  311DPPC  OS1410138   1.126   2.668   2.347
  311DPPC   C1510139   1.010   2.611   2.390
  311DPPC   O1610140   0.950   2.526   2.323
  311DPPC   C1710141   0.957   2.677   2.516
  311DPPC   C1810142   0.981   2.828   2.517
  311DPPC   C1910143   0.915   2.892   2.638
  311DPPC   C2010144   0.980   2.845   2.769
  311DPPC   C2110145   0.910   2.910   2.889
  311DPPC   C2210146   0.974   2.866   3.021
  311DPPC   C2310147   0.901   2.931   3.139
  311DPPC   C2410148   0.960   2.886   3.273
  311DPPC   C2510149   0.883   2.952   3.388
  311DPPC   C2610150   0.934   2.905   3.524
  311DPPC   C2710151   0.855   2.971   3.636
  311DPPC   C2810152   0.895   2.915   3.773
  311DPPC   C2910153   0.808   2.973   3.884
  311DPPC   C3010154   0.840   2.908   4.019
  311DPPC   C3110155   0.751   2.966   4.129
  311DPPC   C3210156   1.341   2.571   2.255
  311DPPC  OS3310157   1.371   2.495   2.374
  311DPPC   C3410158   1.490   2.524   2.434
  311DPPC   O3510159   1.592   2.554   2.371
  311DPPC   C3610160   1.487   2.481   2.579
  311DPPC   C3710161   1.372   2.384   2.608
  311DPPC   C3810162   1.336   2.384   2.756
  311DPPC   C3910163   1.257   2.510   2.791
  311DPPC   C4010164   1.219   2.514   2.939
  311DPPC   C4110165   1.341   2.539   3.027
  311DPPC   C4210166   1.302   2.545   3.174
  311DPPC   C4310167   1.424   2.575   3.261
  311DPPC   C4410168   1.390   2.571   3.410
  311DPPC   C4510169   1.516   2.595   3.493
  311DPPC   C4610170   1.490   2.574   3.642
  311DPPC   C4710171   1.619   2.595   3.722
  311DPPC   C4810172   1.597   2.572   3.871
  311DPPC   C4910173   1.726   2.593   3.949
  311DPPC   C5010174   1.704   2.570   4.099
  312DPPC    C110175   0.930   3.032   1.453
  312DPPC    C210176   1.153   3.051   1.373
  312DPPC    C310177   1.117   2.978   1.595
  312DPPC    N410178   1.068   3.069   1.491
  312DPPC    C510179   1.075   3.211   1.531
  312DPPC    C610180   1.017   3.257   1.668
  312DPPC   OS710181   0.879   3.232   1.687
  312DPPC    P810182   0.828   3.279   1.827
  312DPPC   OM910183   0.902   3.400   1.867
  312DPPC  OM1010184   0.681   3.275   1.822
  312DPPC  OS1110185   0.881   3.157   1.912
  312DPPC   C1210186   0.910   3.199   2.046
  312DPPC   C1310187   0.975   3.093   2.137
  312DPPC  OS1410188   1.115   3.061   2.109
  312DPPC   C1510189   1.201   3.113   2.201
  312DPPC   O1610190   1.172   3.213   2.267
  312DPPC   C1710191   1.341   3.056   2.187
  312DPPC   C1810192   1.414   3.067   2.321
  312DPPC   C1910193   1.360   2.966   2.422
  312DPPC   C2010194   1.438   2.973   2.554
  312DPPC   C2110195   1.391   2.862   2.648
  312DPPC   C2210196   1.479   2.851   2.773
  312DPPC   C2310197   1.444   2.954   2.881
  312DPPC   C2410198   1.536   2.934   3.001
  312DPPC   C2510199   1.496   3.022   3.120
  312DPPC   C2610200   1.599   3.007   3.232
  312DPPC   C2710201   1.564   3.095   3.353
  312DPPC   C2810202   1.446   3.037   3.432
  312DPPC   C2910203   1.415   3.125   3.553
  312DPPC   C3010204   1.303   3.064   3.637
  312DPPC   C3110205   1.349   2.933   3.703
  312DPPC   C3210206   0.878   2.975   2.143
  312DPPC  OS3310207   0.766   3.000   2.231
  312DPPC   C3410208   0.675   2.900   2.241
  312DPPC   O3510209   0.681   2.795   2.177
  312DPPC   C3610210   0.571   2.930   2.348
  312DPPC   C3710211   0.516   2.798   2.402
  312DPPC   C3810212   0.414   2.817   2.514
  312DPPC   C3910213   0.478   2.872   2.641
  312DPPC   C4010214   0.378   2.866   2.757
  312DPPC   C4110215   0.443   2.913   2.887
  312DPPC   C4210216   0.353   2.883   3.008
  312DPPC   C4310217   0.424   2.923   3.137
  312DPPC   C4410218   0.353   2.870   3.261
  312DPPC   C4510219   0.436   2.902   3.385
  312DPPC   C4610220   0.384   2.830   3.510
  312DPPC   C4710221   0.476   2.859   3.628
  312DPPC   C4810222   0.438   2.776   3.751
  312DPPC   C4910223   0.303   2.820   3.807
  312DPPC   C5010224   0.265   2.734   3.928
  313DPPC    C110225   3.996   1.619   2.089
  313DPPC    C210226   3.887   1.775   1.946
  313DPPC    C310227   3.924   1.549   1.873
  313DPPC    N410228   3.889   1.634   1.988
  313DPPC    C510229   3.762   1.595   2.052
  313DPPC    C610230   3.632   1.595   1.967
  313DPPC   OS710231   3.513   1.575   2.043
  313DPPC    P810232   3.403   1.519   1.945
  313DPPC   OM910233   3.361   1.633   1.863
  313DPPC  OM1010234   3.457   1.397   1.882
  313DPPC  OS1110235   3.291   1.481   2.048
  313DPPC   C1210236   3.232   1.598   2.104
  313DPPC   C1310237   3.159   1.583   2.238
  313DPPC  OS1410238   3.159   1.712   2.305
  313DPPC   C1510239   3.043   1.780   2.324
  313DPPC   O1610240   2.933   1.741   2.283
  313DPPC   C1710241   3.071   1.916   2.386
  313DPPC   C1810242   2.950   1.980   2.453
  313DPPC   C1910243   2.989   2.119   2.504
  313DPPC   C2010244   2.873   2.190   2.575
  313DPPC   C2110245   2.846   2.130   2.713
  313DPPC   C2210246   2.961   2.160   2.811
  313DPPC   C2310247   2.920   2.122   2.953
  313DPPC   C2410248   3.032   2.152   3.053
  313DPPC   C2510249   2.982   2.134   3.196
  313DPPC   C2610250   3.093   2.163   3.298
  313DPPC   C2710251   3.040   2.148   3.441
  313DPPC   C2810252   2.941   2.260   3.474
  313DPPC   C2910253   2.878   2.239   3.612
  313DPPC   C3010254   2.786   2.117   3.611
  313DPPC   C3110255   2.722   2.095   3.748
  313DPPC   C3210256   3.234   1.474   2.317
  313DPPC  OS3310257   3.195   1.450   2.454
  313DPPC   C3410258   3.287   1.384   2.529
  313DPPC   O3510259   3.396   1.343   2.486
  313DPPC   C3610260   3.241   1.371   2.672
  313DPPC   C3710261   3.351   1.315   2.762
  313DPPC   C3810262   3.309   1.324   2.908
  313DPPC   C3910263   3.416   1.264   3.000
  313DPPC   C4010264   3.378   1.283   3.146
  313DPPC   C4110265   3.482   1.219   3.239
  313DPPC   C4210266   3.449   1.249   3.385
  313DPPC   C4310267   3.547   1.181   3.480
  313DPPC   C4410268   3.519   1.225   3.623
  313DPPC   C4510269   3.384   1.172   3.673
  313DPPC   C4610270   3.396   1.028   3.724
  313DPPC   C4710271   3.476   1.025   3.854
  313DPPC   C4810272   3.477   0.885   3.916
  313DPPC   C4910273   3.553   0.885   4.048
  313DPPC   C5010274   3.702   0.916   4.026
  314DPPC    C110275   3.614   0.510   1.159
  314DPPC    C210276   3.842   0.471   1.212
  314DPPC    C310277   3.677   0.329   1.303
  314DPPC    N410278   3.706   0.468   1.266
  314DPPC    C510279   3.698   0.560   1.382
  314DPPC    C610280   3.564   0.574   1.457
  314DPPC   OS710281   3.563   0.677   1.556
  314DPPC    P810282   3.464   0.640   1.673
  314DPPC   OM910283   3.337   0.712   1.651
  314DPPC  OM1010284   3.473   0.496   1.698
  314DPPC  OS1110285   3.535   0.717   1.789
  314DPPC   C1210286   3.664   0.664   1.817
  314DPPC   C1310287   3.741   0.749   1.919
  314DPPC  OS1410288   3.881   0.712   1.928
  314DPPC   C1510289   3.966   0.814   1.960
  314DPPC   O1610290   3.947   0.927   1.914
  314DPPC   C1710291   4.102   0.757   1.996
  314DPPC   C1810292   4.150   0.801   2.134
  314DPPC   C1910293   4.077   0.726   2.246
  314DPPC   C2010294   4.141   0.760   2.381
  314DPPC   C2110295   4.078   0.685   2.498
  314DPPC   C2210296   4.156   0.716   2.627
  314DPPC   C2310297   4.097   0.647   2.750
  314DPPC   C2410298   4.186   0.675   2.871
  314DPPC   C2510299   4.133   0.610   3.000
  314DPPC   C2610300   4.233   0.635   3.113
  314DPPC   C2710301   4.189   0.573   3.246
  314DPPC   C2810302   4.299   0.593   3.350
  314DPPC   C2910303   4.263   0.532   3.486
  314DPPC   C3010304   4.152   0.612   3.556
  314DPPC   C3110305   4.122   0.554   3.694
  314DPPC   C3210306   3.657   0.739   2.049
  314DPPC  OS3310307   3.713   0.804   2.164
  314DPPC   C3410308   3.629   0.826   2.269
  314DPPC   O3510309   3.507   0.808   2.264
  314DPPC   C3610310   3.709   0.883   2.385
  314DPPC   C3710311   3.653   0.848   2.523
  314DPPC   C3810312   3.547   0.948   2.570
  314DPPC   C3910313   3.495   0.908   2.708
  314DPPC   C4010314   3.605   0.913   2.814
  314DPPC   C4110315   3.551   0.867   2.949
  314DPPC   C4210316   3.661   0.870   3.055
  314DPPC   C4310317   3.608   0.822   3.191
  314DPPC   C4410318   3.720   0.825   3.295
  314DPPC   C4510319   3.670   0.776   3.431
  314DPPC   C4610320   3.784   0.779   3.533
  314DPPC   C4710321   3.739   0.725   3.669
  314DPPC   C4810322   3.708   0.575   3.662
  314DPPC   C4910323   3.665   0.521   3.798
  314DPPC   C5010324   3.634   0.372   3.791
  315DPPC    C110325   4.825   0.793   1.407
  315DPPC    C210326   4.979   0.677   1.548
  315DPPC    C310327   4.758   0.719   1.624
  315DPPC    N410328   4.869   0.775   1.546
  315DPPC    C510329   4.920   0.901   1.606
  315DPPC    C610330   4.832   1.029   1.609
  315DPPC   OS710331   4.714   1.024   1.690
  315DPPC    P810332   4.723   1.105   1.824
  315DPPC   OM910333   4.817   1.217   1.804
  315DPPC  OM1010334   4.582   1.130   1.856
  315DPPC  OS1110335   4.785   0.990   1.912
  315DPPC   C1210336   4.683   0.900   1.954
  315DPPC   C1310337   4.724   0.771   2.028
  315DPPC  OS1410338   4.606   0.690   2.057
  315DPPC   C1510339   4.621   0.557   2.084
  315DPPC   O1610340   4.711   0.486   2.036
  315DPPC   C1710341   4.490   0.501   2.136
  315DPPC   C1810342   4.460   0.554   2.276
  315DPPC   C1910343   4.551   0.489   2.380
  315DPPC   C2010344   4.523   0.546   2.519
  315DPPC   C2110345   4.610   0.478   2.625
  315DPPC   C2210346   4.584   0.538   2.763
  315DPPC   C2310347   4.666   0.466   2.870
  315DPPC   C2410348   4.640   0.525   3.009
  315DPPC   C2510349   4.713   0.446   3.117
  315DPPC   C2610350   4.682   0.502   3.255
  315DPPC   C2710351   4.741   0.412   3.365
  315DPPC   C2810352   4.701   0.463   3.503
  315DPPC   C2910353   4.751   0.369   3.613
  315DPPC   C3010354   4.708   0.419   3.751
  315DPPC   C3110355   4.555   0.415   3.765
  315DPPC   C3210356   4.808   0.821   2.147
  315DPPC  OS3310357   4.845   0.724   2.247
  315DPPC   C3410358   4.929   0.766   2.345
  315DPPC   O3510359   4.965   0.883   2.361
  315DPPC   C3610360   4.952   0.654   2.445
  315DPPC   C3710361   5.089   0.668   2.511
  315DPPC   C3810362   5.100   0.577   2.634
  315DPPC   C3910363   5.240   0.589   2.696
  315DPPC   C4010364   5.250   0.517   2.830
  315DPPC   C4110365   5.164   0.587   2.935
  315DPPC   C4210366   5.195   0.535   3.075
  315DPPC   C4310367   5.111   0.608   3.180
  315DPPC   C4410368   5.160   0.576   3.321
  315DPPC   C4510369   5.074   0.647   3.426
  315DPPC   C4610370   5.132   0.629   3.567
  315DPPC   C4710371   5.046   0.702   3.670
  315DPPC   C4810372   5.107   0.690   3.810
  315DPPC   C4910373   5.240   0.765   3.817
  315DPPC   C5010374   5.298   0.760   3.959
  316DPPC    C110375   4.410   1.183   1.518
  316DPPC    C210376   4.231   1.309   1.611
  316DPPC    C310377   4.369   1.403   1.439
  316DPPC    N410378   4.368   1.318   1.558
  316DPPC    C510379   4.464   1.369   1.659
  316DPPC    C610380   4.446   1.509   1.723
  316DPPC   OS710381   4.351   1.516   1.830
  316DPPC    P810382   4.357   1.652   1.912
  316DPPC   OM910383   4.225   1.714   1.901
  316DPPC  OM1010384   4.477   1.730   1.875
  316DPPC  OS1110385   4.379   1.588   2.054
  316DPPC   C1210386   4.510   1.536   2.074
  316DPPC   C1310387   4.539   1.461   2.205
  316DPPC  OS1410388   4.465   1.336   2.218
  316DPPC   C1510389   4.540   1.222   2.219
  316DPPC   O1610390   4.663   1.221   2.211
  316DPPC   C1710391   4.452   1.098   2.231
  316DPPC   C1810392   4.498   1.007   2.345
  316DPPC   C1910393   4.466   1.068   2.481
  316DPPC   C2010394   4.507   0.975   2.596
  316DPPC   C2110395   4.476   1.040   2.731
  316DPPC   C2210396   4.515   0.949   2.847
  316DPPC   C2310397   4.490   1.019   2.981
  316DPPC   C2410398   4.530   0.929   3.098
  316DPPC   C2510399   4.507   0.999   3.232
  316DPPC   C2610400   4.544   0.907   3.349
  316DPPC   C2710401   4.523   0.976   3.483
  316DPPC   C2810402   4.556   0.881   3.598
  316DPPC   C2910403   4.531   0.947   3.734
  316DPPC   C3010404   4.558   0.849   3.848
  316DPPC   C3110405   4.706   0.815   3.859
  316DPPC   C3210406   4.518   1.563   2.318
  316DPPC  OS3310407   4.583   1.533   2.444
  316DPPC   C3410408   4.507   1.485   2.545
  316DPPC   O3510409   4.384   1.476   2.543
  316DPPC   C3610410   4.592   1.462   2.669
  316DPPC   C3710411   4.505   1.447   2.793
  316DPPC   C3810412   4.589   1.446   2.921
  316DPPC   C3910413   4.498   1.432   3.044
  316DPPC   C4010414   4.576   1.445   3.175
  316DPPC   C4110415   4.481   1.430   3.294
  316DPPC   C4210416   4.552   1.459   3.426
  316DPPC   C4310417   4.456   1.446   3.544
  316DPPC   C4410418   4.523   1.491   3.674
  316DPPC   C4510419   4.427   1.483   3.793
  316DPPC   C4610420   4.491   1.539   3.920
  316DPPC   C4710421   4.604   1.450   3.971
  316DPPC   C4810422   4.550   1.320   4.032
  316DPPC   C4910423   4.664   1.233   4.084
  316DPPC   C5010424   4.611   1.104   4.147
  317DPPC    C110425   2.195   3.735   1.480
  317DPPC    C210426   1.993   3.643   1.569
  317DPPC    C310427   1.992   3.859   1.471
  317DPPC    N410428   2.071   3.766   1.553
  317DPPC    C510429   2.098   3.834   1.681
  317DPPC    C610430   2.178   3.762   1.794
  317DPPC   OS710431   2.113   3.652   1.856
  317DPPC    P810432   2.201   3.599   1.976
  317DPPC   OM910433   2.343   3.619   1.946
  317DPPC  OM1010434   2.136   3.658   2.093
  317DPPC  OS1110435   2.168   3.447   1.959
  317DPPC   C1210436   2.093   3.397   2.070
  317DPPC   C1310437   2.055   3.249   2.055
  317DPPC  OS1410438   1.953   3.207   2.150
  317DPPC   C1510439   1.881   3.098   2.114
  317DPPC   O1610440   1.897   3.044   2.003
  317DPPC   C1710441   1.773   3.061   2.214
  317DPPC   C1810442   1.826   2.996   2.343
  317DPPC   C1910443   1.862   3.098   2.451
  317DPPC   C2010444   1.892   3.026   2.582
  317DPPC   C2110445   1.912   3.124   2.699
  317DPPC   C2210446   1.935   3.046   2.829
  317DPPC   C2310447   1.950   3.138   2.950
  317DPPC   C2410448   1.979   3.055   3.075
  317DPPC   C2510449   1.995   3.141   3.201
  317DPPC   C2610450   2.040   3.052   3.317
  317DPPC   C2710451   2.063   3.130   3.447
  317DPPC   C2810452   1.933   3.158   3.521
  317DPPC   C2910453   1.960   3.229   3.653
  317DPPC   C3010454   1.832   3.246   3.735
  317DPPC   C3110455   1.778   3.111   3.782
  317DPPC   C3210456   2.187   3.169   2.051
  317DPPC  OS3310457   2.276   3.179   2.164
  317DPPC   C3410458   2.267   3.079   2.256
  317DPPC   O3510459   2.203   2.974   2.241
  317DPPC   C3610460   2.365   3.102   2.370
  317DPPC   C3710461   2.304   3.062   2.504
  317DPPC   C3810462   2.408   3.068   2.615
  317DPPC   C3910463   2.344   3.046   2.752
  317DPPC   C4010464   2.449   3.040   2.862
  317DPPC   C4110465   2.384   3.036   3.000
  317DPPC   C4210466   2.487   3.011   3.109
  317DPPC   C4310467   2.423   3.016   3.248
  317DPPC   C4410468   2.518   2.959   3.353
  317DPPC   C4510469   2.457   2.963   3.494
  317DPPC   C4610470   2.472   3.102   3.556
  317DPPC   C4710471   2.424   3.103   3.701
  317DPPC   C4810472   2.463   3.233   3.771
  317DPPC   C4910473   2.414   3.237   3.915
  317DPPC   C5010474   2.262   3.253   3.921
  318DPPC    C110475   2.965   4.164   1.695
  318DPPC    C210476   2.917   4.394   1.725
  318DPPC    C310477   2.822   4.239   1.874
  318DPPC    N410478   2.860   4.259   1.733
  318DPPC    C510479   2.745   4.251   1.641
  318DPPC    C610480   2.648   4.130   1.644
  318DPPC   OS710481   2.551   4.135   1.749
  318DPPC    P810482   2.460   4.007   1.757
  318DPPC   OM910483   2.474   3.922   1.638
  318DPPC  OM1010484   2.328   4.056   1.797
  318DPPC  OS1110485   2.527   3.937   1.880
  318DPPC   C1210486   2.496   4.003   2.003
  318DPPC   C1310487   2.577   3.958   2.126
  318DPPC  OS1410488   2.716   3.999   2.128
  318DPPC   C1510489   2.746   4.086   2.229
  318DPPC   O1610490   2.660   4.161   2.276
  318DPPC   C1710491   2.895   4.102   2.248
  318DPPC   C1810492   2.926   4.189   2.370
  318DPPC   C1910493   3.076   4.185   2.401
  318DPPC   C2010494   3.108   4.275   2.520
  318DPPC   C2110495   3.256   4.269   2.558
  318DPPC   C2210496   3.284   4.365   2.673
  318DPPC   C2310497   3.429   4.355   2.721
  318DPPC   C2410498   3.456   4.453   2.835
  318DPPC   C2510499   3.373   4.419   2.958
  318DPPC   C2610500   3.404   4.516   3.073
  318DPPC   C2710501   3.324   4.480   3.198
  318DPPC   C2810502   3.365   4.567   3.317
  318DPPC   C2910503   3.293   4.524   3.445
  318DPPC   C3010504   3.342   4.605   3.565
  318DPPC   C3110505   3.272   4.560   3.694
  318DPPC   C3210506   2.552   3.807   2.145
  318DPPC  OS3310507   2.431   3.780   2.218
  318DPPC   C3410508   2.447   3.684   2.315
  318DPPC   O3510509   2.556   3.653   2.361
  318DPPC   C3610510   2.313   3.647   2.377
  318DPPC   C3710511   2.332   3.562   2.503
  318DPPC   C3810512   2.196   3.511   2.552
  318DPPC   C3910513   2.211   3.428   2.680
  318DPPC   C4010514   2.247   3.516   2.800
  318DPPC   C4110515   2.261   3.433   2.927
  318DPPC   C4210516   2.284   3.523   3.048
  318DPPC   C4310517   2.305   3.442   3.176
  318DPPC   C4410518   2.322   3.536   3.296
  318DPPC   C4510519   2.357   3.457   3.422
  318DPPC   C4610520   2.379   3.549   3.542
  318DPPC   C4710521   2.248   3.604   3.596
  318DPPC   C4810522   2.274   3.695   3.717
  318DPPC   C4910523   2.143   3.742   3.781
  318DPPC   C5010524   2.065   3.834   3.688
  319DPPC    C110525   3.842   2.510   1.400
  319DPPC    C210526   3.640   2.382   1.370
  319DPPC    C310527   3.836   2.327   1.249
  319DPPC    N410528   3.787   2.376   1.378
  319DPPC    C510529   3.830   2.280   1.482
  319DPPC    C610530   3.786   2.304   1.629
  319DPPC   OS710531   3.789   2.189   1.713
  319DPPC    P810532   3.650   2.114   1.726
  319DPPC   OM910533   3.684   1.979   1.771
  319DPPC  OM1010534   3.570   2.140   1.605
  319DPPC  OS1110535   3.593   2.203   1.842
  319DPPC   C1210536   3.643   2.158   1.967
  319DPPC   C1310537   3.612   2.248   2.087
  319DPPC  OS1410538   3.671   2.198   2.210
  319DPPC   C1510539   3.781   2.268   2.250
  319DPPC   O1610540   3.848   2.333   2.170
  319DPPC   C1710541   3.828   2.225   2.388
  319DPPC   C1810542   3.813   2.339   2.488
  319DPPC   C1910543   3.873   2.301   2.623
  319DPPC   C2010544   3.850   2.411   2.725
  319DPPC   C2110545   3.918   2.376   2.858
  319DPPC   C2210546   3.858   2.250   2.918
  319DPPC   C2310547   3.926   2.216   3.051
  319DPPC   C2410548   3.895   2.322   3.156
  319DPPC   C2510549   3.961   2.287   3.289
  319DPPC   C2610550   3.923   2.389   3.397
  319DPPC   C2710551   3.991   2.354   3.529
  319DPPC   C2810552   3.949   2.452   3.639
  319DPPC   C2910553   4.021   2.423   3.770
  319DPPC   C3010554   3.981   2.287   3.826
  319DPPC   C3110555   4.053   2.258   3.957
  319DPPC   C3210556   3.459   2.268   2.088
  319DPPC  OS3310557   3.404   2.342   2.199
  319DPPC   C3410558   3.343   2.265   2.294
  319DPPC   O3510559   3.313   2.147   2.277
  319DPPC   C3610560   3.309   2.347   2.417
  319DPPC   C3710561   3.385   2.291   2.537
  319DPPC   C3810562   3.351   2.365   2.666
  319DPPC   C3910563   3.429   2.304   2.782
  319DPPC   C4010564   3.391   2.367   2.916
  319DPPC   C4110565   3.471   2.300   3.028
  319DPPC   C4210566   3.431   2.350   3.166
  319DPPC   C4310567   3.512   2.274   3.271
  319DPPC   C4410568   3.471   2.310   3.414
  319DPPC   C4510569   3.553   2.226   3.512
  319DPPC   C4610570   3.509   2.249   3.657
  319DPPC   C4710571   3.595   2.164   3.751
  319DPPC   C4810572   3.548   2.179   3.896
  319DPPC   C4910573   3.638   2.098   3.990
  319DPPC   C5010574   3.587   2.106   4.134
  320DPPC    C110575   3.323   2.991   1.955
  320DPPC    C210576   3.520   3.055   1.832
  320DPPC    C310577   3.310   3.137   1.768
  320DPPC    N410578   3.379   3.018   1.821
  320DPPC    C510579   3.359   2.905   1.728
  320DPPC    C610580   3.413   2.763   1.762
  320DPPC   OS710581   3.555   2.749   1.764
  320DPPC    P810582   3.596   2.599   1.784
  320DPPC   OM910583   3.535   2.560   1.911
  320DPPC  OM1010584   3.558   2.537   1.657
  320DPPC  OS1110585   3.750   2.625   1.793
  320DPPC   C1210586   3.809   2.605   1.922
  320DPPC   C1310587   3.897   2.723   1.967
  320DPPC  OS1410588   4.000   2.688   2.064
  320DPPC   C1510589   4.099   2.781   2.084
  320DPPC   O1610590   4.130   2.861   1.995
  320DPPC   C1710591   4.182   2.748   2.207
  320DPPC   C1810592   4.098   2.767   2.333
  320DPPC   C1910593   4.174   2.725   2.459
  320DPPC   C2010594   4.091   2.755   2.584
  320DPPC   C2110595   4.163   2.711   2.711
  320DPPC   C2210596   4.086   2.754   2.835
  320DPPC   C2310597   4.158   2.709   2.963
  320DPPC   C2410598   4.087   2.761   3.087
  320DPPC   C2510599   4.163   2.720   3.213
  320DPPC   C2610600   4.104   2.787   3.338
  320DPPC   C2710601   4.191   2.756   3.460
  320DPPC   C2810602   4.140   2.831   3.584
  320DPPC   C2910603   4.229   2.802   3.704
  320DPPC   C3010604   4.180   2.878   3.828
  320DPPC   C3110605   4.267   2.846   3.949
  320DPPC   C3210606   3.797   2.831   2.015
  320DPPC  OS3310607   3.718   2.791   2.128
  320DPPC   C3410608   3.634   2.883   2.181
  320DPPC   O3510609   3.604   2.988   2.123
  320DPPC   C3610610   3.564   2.830   2.305
  320DPPC   C3710611   3.658   2.822   2.426
  320DPPC   C3810612   3.581   2.780   2.551
  320DPPC   C3910613   3.671   2.782   2.675
  320DPPC   C4010614   3.592   2.746   2.800
  320DPPC   C4110615   3.681   2.754   2.925
  320DPPC   C4210616   3.600   2.724   3.051
  320DPPC   C4310617   3.685   2.742   3.177
  320DPPC   C4410618   3.597   2.729   3.302
  320DPPC   C4510619   3.672   2.772   3.428
  320DPPC   C4610620   3.573   2.787   3.543
  320DPPC   C4710621   3.638   2.849   3.667
  320DPPC   C4810622   3.722   2.747   3.744
  320DPPC   C4910623   3.787   2.814   3.866
  320DPPC   C5010624   3.680   2.865   3.963
  321DPPC    C110625   5.441   8.696   2.000
  321DPPC    C210626   5.501   8.866   1.848
  321DPPC    C310627   5.360   8.918   2.031
  321DPPC    N410628   5.391   8.816   1.930
  321DPPC    C510629   5.274   8.785   1.844
  321DPPC    C610630   5.150   8.715   1.907
  321DPPC   OS710631   5.082   8.788   2.009
  321DPPC    P810632   5.040   8.691   2.125
  321DPPC   OM910633   4.943   8.601   2.061
  321DPPC  OM1010634   5.168   8.649   2.181
  321DPPC  OS1110635   4.969   8.806   2.205
  321DPPC   C1210636   5.058   8.875   2.292
  321DPPC   C1310637   5.010   9.016   2.332
  321DPPC  OS1410638   5.106   9.092   2.409
  321DPPC   C1510639   5.170   9.194   2.345
  321DPPC   O1610640   5.164   9.210   2.222
  321DPPC   C1710641   5.243   9.285   2.443
  321DPPC   C1810642   5.368   9.219   2.502
  321DPPC   C1910643   5.420   9.299   2.622
  321DPPC   C2010644   5.324   9.284   2.740
  321DPPC   C2110645   5.366   9.363   2.864
  321DPPC   C2210646   5.494   9.306   2.927
  321DPPC   C2310647   5.528   9.375   3.059
  321DPPC   C2410648   5.428   9.338   3.169
  321DPPC   C2510649   5.467   9.396   3.305
  321DPPC   C2610650   5.365   9.354   3.410
  321DPPC   C2710651   5.397   9.408   3.550
  321DPPC   C2810652   5.285   9.367   3.647
  321DPPC   C2910653   5.307   9.420   3.788
  321DPPC   C3010654   5.427   9.353   3.856
  321DPPC   C3110655   5.442   9.403   4.000
  321DPPC   C3210656   4.872   8.999   2.398
  321DPPC  OS3310657   4.867   8.912   2.513
  321DPPC   C3410658   4.751   8.910   2.584
  321DPPC   O3510659   4.641   8.945   2.539
  321DPPC   C3610660   4.770   8.828   2.710
  321DPPC   C3710661   4.699   8.891   2.829
  321DPPC   C3810662   4.740   8.820   2.958
  321DPPC   C3910663   4.669   8.880   3.079
  321DPPC   C4010664   4.710   8.808   3.208
  321DPPC   C4110665   4.634   8.866   3.327
  321DPPC   C4210666   4.672   8.796   3.458
  321DPPC   C4310667   4.591   8.857   3.572
  321DPPC   C4410668   4.625   8.793   3.707
  321DPPC   C4510669   4.542   8.860   3.817
  321DPPC   C4610670   4.573   8.800   3.954
  321DPPC   C4710671   4.526   8.655   3.962
  321DPPC   C4810672   4.549   8.599   4.103
  321DPPC   C4910673   4.511   8.451   4.108
  321DPPC   C5010674   4.361   8.432   4.086
  322DPPC    C110675   5.793   3.945   2.148
  322DPPC    C210676   5.725   3.781   1.990
  322DPPC    C310677   5.849   3.713   2.183
  322DPPC    N410678   5.833   3.819   2.083
  322DPPC    C510679   5.956   3.838   2.003
  322DPPC    C610680   6.092   3.861   2.075
  322DPPC   OS710681   6.098   3.969   2.168
  322DPPC    P810682   6.147   4.106   2.109
  322DPPC   OM910683   6.107   4.106   1.967
  322DPPC  OM1010684   6.289   4.115   2.146
  322DPPC  OS1110685   6.052   4.197   2.194
  322DPPC   C1210686   6.108   4.230   2.320
  322DPPC   C1310687   6.019   4.319   2.409
  322DPPC  OS1410688   6.090   4.375   2.522
  322DPPC   C1510689   6.108   4.510   2.524
  322DPPC   O1610690   6.044   4.585   2.451
  322DPPC   C1710691   6.194   4.552   2.642
  322DPPC   C1810692   6.220   4.703   2.641
  322DPPC   C1910693   6.298   4.744   2.766
  322DPPC   C2010694   6.212   4.721   2.891
  322DPPC   C2110695   6.286   4.757   3.020
  322DPPC   C2210696   6.198   4.722   3.140
  322DPPC   C2310697   6.267   4.748   3.274
  322DPPC   C2410698   6.174   4.706   3.388
  322DPPC   C2510699   6.239   4.727   3.525
  322DPPC   C2610700   6.144   4.682   3.636
  322DPPC   C2710701   6.206   4.706   3.774
  322DPPC   C2810702   6.114   4.658   3.886
  322DPPC   C2910703   6.103   4.505   3.886
  322DPPC   C3010704   6.009   4.457   3.997
  322DPPC   C3110705   6.068   4.485   4.135
  322DPPC   C3210706   5.893   4.237   2.444
  322DPPC  OS3310707   5.917   4.115   2.518
  322DPPC   C3410708   5.808   4.034   2.535
  322DPPC   O3510709   5.697   4.050   2.484
  322DPPC   C3610710   5.848   3.911   2.615
  322DPPC   C3710711   5.858   3.940   2.764
  322DPPC   C3810712   5.910   3.818   2.839
  322DPPC   C3910713   5.907   3.840   2.990
  322DPPC   C4010714   5.945   3.711   3.063
  322DPPC   C4110715   5.899   3.714   3.209
  322DPPC   C4210716   5.978   3.812   3.295
  322DPPC   C4310717   5.924   3.807   3.438
  322DPPC   C4410718   6.005   3.895   3.534
  322DPPC   C4510719   5.945   3.889   3.675
  322DPPC   C4610720   6.030   3.970   3.773
  322DPPC   C4710721   5.968   3.970   3.913
  322DPPC   C4810722   6.056   4.048   4.011
  322DPPC   C4910723   5.992   4.052   4.150
  322DPPC   C5010724   5.987   3.912   4.212
  323DPPC    C110725   6.587   8.169   1.988
  323DPPC    C210726   6.456   7.984   2.054
  323DPPC    C310727   6.466   8.176   2.196
  323DPPC    N410728   6.463   8.130   2.056
  323DPPC    C510729   6.344   8.183   1.985
  323DPPC    C610730   6.322   8.334   1.963
  323DPPC   OS710731   6.201   8.362   1.890
  323DPPC    P810732   6.151   8.510   1.913
  323DPPC   OM910733   6.264   8.596   1.880
  323DPPC  OM1010734   6.028   8.512   1.833
  323DPPC  OS1110735   6.121   8.503   2.067
  323DPPC   C1210736   5.987   8.466   2.100
  323DPPC   C1310737   5.965   8.455   2.252
  323DPPC  OS1410738   5.830   8.411   2.287
  323DPPC   C1510739   5.823   8.331   2.398
  323DPPC   O1610740   5.908   8.245   2.421
  323DPPC   C1710741   5.679   8.330   2.448
  323DPPC   C1810742   5.667   8.323   2.600
  323DPPC   C1910743   5.523   8.357   2.640
  323DPPC   C2010744   5.493   8.331   2.787
  323DPPC   C2110745   5.574   8.420   2.881
  323DPPC   C2210746   5.532   8.394   3.026
  323DPPC   C2310747   5.617   8.470   3.127
  323DPPC   C2410748   5.569   8.441   3.269
  323DPPC   C2510749   5.659   8.507   3.374
  323DPPC   C2610750   5.607   8.476   3.515
  323DPPC   C2710751   5.700   8.536   3.621
  323DPPC   C2810752   5.650   8.505   3.763
  323DPPC   C2910753   5.747   8.560   3.867
  323DPPC   C3010754   5.699   8.531   4.009
  323DPPC   C3110755   5.797   8.585   4.113
  323DPPC   C3210756   6.001   8.595   2.308
  323DPPC  OS3310757   5.990   8.611   2.450
  323DPPC   C3410758   6.012   8.738   2.495
  323DPPC   O3510759   6.037   8.834   2.421
  323DPPC   C3610760   6.004   8.745   2.646
  323DPPC   C3710761   6.014   8.891   2.691
  323DPPC   C3810762   6.062   8.902   2.836
  323DPPC   C3910763   5.956   8.859   2.938
  323DPPC   C4010764   6.016   8.869   3.078
  323DPPC   C4110765   5.914   8.854   3.191
  323DPPC   C4210766   5.984   8.874   3.325
  323DPPC   C4310767   5.885   8.881   3.441
  323DPPC   C4410768   5.960   8.906   3.573
  323DPPC   C4510769   5.862   8.927   3.688
  323DPPC   C4610770   5.936   8.956   3.819
  323DPPC   C4710771   5.837   8.980   3.933
  323DPPC   C4810772   5.911   9.006   4.064
  323DPPC   C4910773   5.812   9.031   4.178
  323DPPC   C5010774   5.735   9.161   4.157
  324DPPC    C110775   6.618   4.142   1.728
  324DPPC    C210776   6.424   4.087   1.854
  324DPPC    C310777   6.428   4.287   1.724
  324DPPC    N410778   6.509   4.198   1.808
  324DPPC    C510779   6.571   4.271   1.922
  324DPPC    C610780   6.481   4.338   2.027
  324DPPC   OS710781   6.548   4.396   2.139
  324DPPC    P810782   6.443   4.467   2.234
  324DPPC   OM910783   6.470   4.411   2.367
  324DPPC  OM1010784   6.310   4.473   2.173
  324DPPC  OS1110785   6.507   4.608   2.220
  324DPPC   C1210786   6.486   4.687   2.336
  324DPPC   C1310787   6.510   4.838   2.313
  324DPPC  OS1410788   6.538   4.912   2.435
  324DPPC   C1510789   6.667   4.954   2.452
  324DPPC   O1610790   6.760   4.911   2.383
  324DPPC   C1710791   6.681   5.043   2.575
  324DPPC   C1810792   6.635   4.972   2.702
  324DPPC   C1910793   6.659   5.061   2.824
  324DPPC   C2010794   6.616   4.990   2.953
  324DPPC   C2110795   6.645   5.076   3.076
  324DPPC   C2210796   6.605   5.003   3.204
  324DPPC   C2310797   6.645   5.084   3.328
  324DPPC   C2410798   6.611   5.007   3.456
  324DPPC   C2510799   6.667   5.079   3.580
  324DPPC   C2610800   6.588   5.205   3.614
  324DPPC   C2710801   6.655   5.281   3.729
  324DPPC   C2810802   6.657   5.197   3.857
  324DPPC   C2910803   6.733   5.270   3.968
  324DPPC   C3010804   6.738   5.188   4.097
  324DPPC   C3110805   6.823   5.062   4.081
  324DPPC   C3210806   6.393   4.890   2.227
  324DPPC  OS3310807   6.261   4.857   2.277
  324DPPC   C3410808   6.168   4.957   2.275
  324DPPC   O3510809   6.190   5.073   2.240
  324DPPC   C3610810   6.033   4.904   2.319
  324DPPC   C3710811   5.938   5.016   2.363
  324DPPC   C3810812   5.964   5.059   2.507
  324DPPC   C3910813   5.904   4.960   2.607
  324DPPC   C4010814   5.927   5.010   2.750
  324DPPC   C4110815   5.859   4.922   2.855
  324DPPC   C4210816   5.884   4.981   2.993
  324DPPC   C4310817   5.816   4.901   3.104
  324DPPC   C4410818   5.839   4.969   3.239
  324DPPC   C4510819   5.776   4.890   3.355
  324DPPC   C4610820   5.789   4.968   3.486
  324DPPC   C4710821   5.722   4.894   3.601
  324DPPC   C4810822   5.727   4.978   3.729
  324DPPC   C4910823   5.657   4.906   3.845
  324DPPC   C5010824   5.734   4.780   3.885
  325DPPC    C110825   5.263   4.818   2.131
  325DPPC    C210826   5.345   4.680   1.957
  325DPPC    C310827   5.204   4.865   1.906
  325DPPC    N410828   5.313   4.819   1.993
  325DPPC    C510829   5.436   4.899   1.977
  325DPPC    C610830   5.433   5.052   2.000
  325DPPC   OS710831   5.559   5.118   1.986
  325DPPC    P810832   5.551   5.272   2.018
  325DPPC   OM910833   5.688   5.322   2.008
  325DPPC  OM1010834   5.444   5.321   1.931
  325DPPC  OS1110835   5.502   5.275   2.167
  325DPPC   C1210836   5.610   5.264   2.260
  325DPPC   C1310837   5.567   5.256   2.407
  325DPPC  OS1410838   5.676   5.272   2.501
  325DPPC   C1510839   5.697   5.397   2.552
  325DPPC   O1610840   5.653   5.499   2.499
  325DPPC   C1710841   5.803   5.391   2.660
  325DPPC   C1810842   5.741   5.407   2.798
  325DPPC   C1910843   5.845   5.379   2.907
  325DPPC   C2010844   5.789   5.407   3.046
  325DPPC   C2110845   5.671   5.315   3.077
  325DPPC   C2210846   5.622   5.338   3.220
  325DPPC   C2310847   5.500   5.253   3.252
  325DPPC   C2410848   5.457   5.274   3.397
  325DPPC   C2510849   5.333   5.192   3.432
  325DPPC   C2610850   5.296   5.211   3.579
  325DPPC   C2710851   5.169   5.134   3.614
  325DPPC   C2810852   5.132   5.156   3.761
  325DPPC   C2910853   4.999   5.087   3.795
  325DPPC   C3010854   4.961   5.112   3.941
  325DPPC   C3110855   5.057   5.040   4.036
  325DPPC   C3210856   5.486   5.126   2.426
  325DPPC  OS3310857   5.536   5.011   2.356
  325DPPC   C3410858   5.502   4.890   2.407
  325DPPC   O3510859   5.507   4.789   2.336
  325DPPC   C3610860   5.440   4.897   2.546
  325DPPC   C3710861   5.366   4.766   2.577
  325DPPC   C3810862   5.291   4.775   2.710
  325DPPC   C3910863   5.386   4.779   2.829
  325DPPC   C4010864   5.307   4.783   2.960
  325DPPC   C4110865   5.400   4.776   3.081
  325DPPC   C4210866   5.321   4.782   3.212
  325DPPC   C4310867   5.416   4.771   3.332
  325DPPC   C4410868   5.344   4.791   3.465
  325DPPC   C4510869   5.252   4.674   3.500
  325DPPC   C4610870   5.189   4.694   3.637
  325DPPC   C4710871   5.296   4.691   3.747
  325DPPC   C4810872   5.235   4.709   3.886
  325DPPC   C4910873   5.147   4.590   3.924
  325DPPC   C5010874   5.087   4.610   4.064
  326DPPC    C110875   5.963   5.458   1.976
  326DPPC    C210876   6.067   5.251   2.016
  326DPPC    C310877   6.007   5.387   2.201
  326DPPC    N410878   6.059   5.390   2.063
  326DPPC    C510879   6.194   5.451   2.056
  326DPPC    C610880   6.210   5.600   2.097
  326DPPC   OS710881   6.338   5.658   2.070
  326DPPC    P810882   6.324   5.815   2.074
  326DPPC   OM910883   6.267   5.849   2.205
  326DPPC  OM1010884   6.253   5.842   1.949
  326DPPC  OS1110885   6.475   5.853   2.063
  326DPPC   C1210886   6.544   5.838   2.187
  326DPPC   C1310887   6.686   5.895   2.187
  326DPPC  OS1410888   6.773   5.842   2.292
  326DPPC   C1510889   6.907   5.849   2.267
  326DPPC   O1610890   6.952   5.884   2.158
  326DPPC   C1710891   6.990   5.792   2.381
  326DPPC   C1810892   7.133   5.847   2.378
  326DPPC   C1910893   7.223   5.776   2.479
  326DPPC   C2010894   7.178   5.801   2.623
  326DPPC   C2110895   7.274   5.736   2.723
  326DPPC   C2210896   7.227   5.756   2.867
  326DPPC   C2310897   7.326   5.699   2.968
  326DPPC   C2410898   7.278   5.717   3.112
  326DPPC   C2510899   7.379   5.653   3.208
  326DPPC   C2610900   7.335   5.656   3.354
  326DPPC   C2710901   7.342   5.796   3.415
  326DPPC   C2810902   7.314   5.790   3.565
  326DPPC   C2910903   7.433   5.726   3.638
  326DPPC   C3010904   7.405   5.706   3.787
  326DPPC   C3110905   7.385   5.840   3.860
  326DPPC   C3210906   6.670   6.049   2.179
  326DPPC  OS3310907   6.592   6.109   2.285
  326DPPC   C3410908   6.657   6.189   2.373
  326DPPC   O3510909   6.780   6.206   2.377
  326DPPC   C3610910   6.562   6.242   2.478
  326DPPC   C3710911   6.496   6.126   2.554
  326DPPC   C3810912   6.432   6.177   2.683
  326DPPC   C3910913   6.353   6.066   2.752
  326DPPC   C4010914   6.291   6.113   2.883
  326DPPC   C4110915   6.387   6.100   3.001
  326DPPC   C4210916   6.316   6.139   3.131
  326DPPC   C4310917   6.405   6.112   3.252
  326DPPC   C4410918   6.337   6.153   3.382
  326DPPC   C4510919   6.428   6.126   3.502
  326DPPC   C4610920   6.367   6.173   3.633
  326DPPC   C4710921   6.461   6.142   3.750
  326DPPC   C4810922   6.403   6.188   3.884
  326DPPC   C4910923   6.411   6.340   3.899
  326DPPC   C5010924   6.556   6.386   3.914
  327DPPC    C110925   6.978   5.203   1.584
  327DPPC    C210926   6.883   4.999   1.659
  327DPPC    C310927   6.917   5.182   1.812
  327DPPC    N410928   6.879   5.145   1.675
  327DPPC    C510929   6.746   5.198   1.637
  327DPPC    C610930   6.620   5.171   1.723
  327DPPC   OS710931   6.614   5.247   1.843
  327DPPC    P810932   6.489   5.208   1.927
  327DPPC   OM910933   6.374   5.256   1.847
  327DPPC  OM1010934   6.509   5.069   1.966
  327DPPC  OS1110935   6.517   5.310   2.042
  327DPPC   C1210936   6.614   5.262   2.136
  327DPPC   C1310937   6.658   5.372   2.234
  327DPPC  OS1410938   6.779   5.343   2.309
  327DPPC   C1510939   6.900   5.381   2.259
  327DPPC   O1610940   6.919   5.411   2.141
  327DPPC   C1710941   7.009   5.361   2.363
  327DPPC   C1810942   6.948   5.345   2.502
  327DPPC   C1910943   7.051   5.355   2.614
  327DPPC   C2010944   6.982   5.331   2.748
  327DPPC   C2110945   7.074   5.355   2.868
  327DPPC   C2210946   6.999   5.322   2.996
  327DPPC   C2310947   7.080   5.352   3.122
  327DPPC   C2410948   7.005   5.299   3.244
  327DPPC   C2510949   7.080   5.326   3.375
  327DPPC   C2610950   7.010   5.252   3.489
  327DPPC   C2710951   7.074   5.279   3.625
  327DPPC   C2810952   7.043   5.421   3.674
  327DPPC   C2910953   7.088   5.439   3.819
  327DPPC   C3010954   7.057   5.580   3.870
  327DPPC   C3110955   6.906   5.604   3.878
  327DPPC   C3210956   6.533   5.410   2.317
  327DPPC  OS3310957   6.478   5.305   2.399
  327DPPC   C3410958   6.352   5.327   2.445
  327DPPC   O3510959   6.270   5.401   2.389
  327DPPC   C3610960   6.319   5.230   2.557
  327DPPC   C3710961   6.279   5.308   2.683
  327DPPC   C3810962   6.275   5.221   2.808
  327DPPC   C3910963   6.248   5.310   2.930
  327DPPC   C4010964   6.257   5.236   3.064
  327DPPC   C4110965   6.238   5.336   3.178
  327DPPC   C4210966   6.261   5.273   3.315
  327DPPC   C4310967   6.149   5.175   3.351
  327DPPC   C4410968   6.178   5.105   3.484
  327DPPC   C4510969   6.160   5.197   3.605
  327DPPC   C4610970   6.196   5.122   3.733
  327DPPC   C4710971   6.176   5.207   3.859
  327DPPC   C4810972   6.027   5.228   3.888
  327DPPC   C4910973   6.007   5.310   4.016
  327DPPC   C5010974   5.858   5.328   4.047
  328DPPC    C110975   7.960   5.056   1.899
  328DPPC    C210976   7.935   5.004   1.668
  328DPPC    C310977   8.131   5.116   1.740
  328DPPC    N410978   7.986   5.105   1.762
  328DPPC    C510979   7.913   5.232   1.739
  328DPPC    C610980   7.953   5.356   1.822
  328DPPC   OS710981   7.851   5.456   1.830
  328DPPC    P810982   7.901   5.577   1.917
  328DPPC   OM910983   7.975   5.662   1.823
  328DPPC  OM1010984   7.964   5.521   2.038
  328DPPC  OS1110985   7.767   5.649   1.953
  328DPPC   C1210986   7.776   5.708   2.082
  328DPPC   C1310987   7.652   5.783   2.133
  328DPPC  OS1410988   7.681   5.845   2.261
  328DPPC   C1510989   7.598   5.937   2.317
  328DPPC   O1610990   7.501   5.988   2.260
  328DPPC   C1710991   7.648   5.977   2.455
  328DPPC   C1810992   7.650   5.858   2.551
  328DPPC   C1910993   7.697   5.906   2.688
  328DPPC   C2010994   7.696   5.797   2.795
  328DPPC   C2110995   7.735   5.858   2.929
  328DPPC   C2210996   7.737   5.755   3.041
  328DPPC   C2310997   7.772   5.821   3.174
  328DPPC   C2410998   7.780   5.717   3.285
  328DPPC   C2510999   7.809   5.784   3.420
  328DPPC   C2611000   7.822   5.677   3.529
  328DPPC   C2711001   7.839   5.741   3.667
  328DPPC   C2811002   7.842   5.632   3.775
  328DPPC   C2911003   7.844   5.694   3.914
  328DPPC   C3011004   7.841   5.584   4.021
  328DPPC   C3111005   7.836   5.645   4.161
  328DPPC   C3211006   7.536   5.681   2.133
  328DPPC  OS3311007   7.554   5.571   2.224
  328DPPC   C3411008   7.454   5.479   2.235
  328DPPC   O3511009   7.352   5.476   2.165
  328DPPC   C3611010   7.487   5.381   2.346
  328DPPC   C3711011   7.477   5.449   2.482
  328DPPC   C3811012   7.531   5.357   2.591
  328DPPC   C3911013   7.512   5.417   2.731
  328DPPC   C4011014   7.573   5.322   2.835
  328DPPC   C4111015   7.556   5.372   2.978
  328DPPC   C4211016   7.633   5.277   3.070
  328DPPC   C4311017   7.629   5.312   3.218
  328DPPC   C4411018   7.494   5.281   3.281
  328DPPC   C4511019   7.513   5.247   3.429
  328DPPC   C4611020   7.572   5.365   3.506
  328DPPC   C4711021   7.606   5.323   3.649
  328DPPC   C4811022   7.479   5.282   3.723
  328DPPC   C4911023   7.512   5.233   3.864
  328DPPC   C5011024   7.384   5.191   3.937
  329DPPC    C111025   7.269   3.966   2.422
  329DPPC    C211026   7.151   3.761   2.382
  329DPPC    C311027   7.035   3.966   2.366
  329DPPC    N411028   7.165   3.901   2.341
  329DPPC    C511029   7.200   3.901   2.197
  329DPPC    C611030   7.207   4.032   2.116
  329DPPC   OS711031   7.079   4.092   2.088
  329DPPC    P811032   7.092   4.232   2.019
  329DPPC   OM911033   7.215   4.236   1.939
  329DPPC  OM1011034   6.959   4.260   1.962
  329DPPC  OS1111035   7.118   4.311   2.152
  329DPPC   C1211036   7.002   4.369   2.213
  329DPPC   C1311037   7.015   4.386   2.365
  329DPPC  OS1411038   6.908   4.465   2.426
  329DPPC   C1511039   6.821   4.394   2.504
  329DPPC   O1611040   6.806   4.272   2.491
  329DPPC   C1711041   6.739   4.483   2.596
  329DPPC   C1811042   6.816   4.498   2.727
  329DPPC   C1911043   6.730   4.543   2.845
  329DPPC   C2011044   6.817   4.542   2.971
  329DPPC   C2111045   6.739   4.566   3.101
  329DPPC   C2211046   6.837   4.557   3.218
  329DPPC   C2311047   6.768   4.570   3.354
  329DPPC   C2411048   6.872   4.559   3.466
  329DPPC   C2511049   6.809   4.547   3.605
  329DPPC   C2611050   6.737   4.674   3.648
  329DPPC   C2711051   6.680   4.657   3.790
  329DPPC   C2811052   6.604   4.781   3.835
  329DPPC   C2911053   6.546   4.762   3.976
  329DPPC   C3011054   6.462   4.883   4.018
  329DPPC   C3111055   6.398   4.860   4.155
  329DPPC   C3211056   7.158   4.439   2.392
  329DPPC  OS3311057   7.199   4.465   2.528
  329DPPC   C3411058   7.228   4.360   2.610
  329DPPC   O3511059   7.205   4.241   2.585
  329DPPC   C3611060   7.281   4.413   2.741
  329DPPC   C3711061   7.226   4.342   2.865
  329DPPC   C3811062   7.285   4.406   2.991
  329DPPC   C3911063   7.236   4.340   3.120
  329DPPC   C4011064   7.308   4.402   3.240
  329DPPC   C4111065   7.269   4.333   3.371
  329DPPC   C4211066   7.355   4.383   3.488
  329DPPC   C4311067   7.324   4.306   3.616
  329DPPC   C4411068   7.190   4.346   3.676
  329DPPC   C4511069   7.150   4.250   3.788
  329DPPC   C4611070   7.016   4.288   3.850
  329DPPC   C4711071   6.955   4.171   3.928
  329DPPC   C4811072   7.042   4.129   4.046
  329DPPC   C4911073   6.979   4.012   4.121
  329DPPC   C5011074   7.065   3.968   4.240
  330DPPC    C111075   8.927   9.248   2.273
  330DPPC    C211076   8.698   9.244   2.212
  330DPPC    C311077   8.823   9.449   2.199
  330DPPC    N411078   8.802   9.325   2.276
  330DPPC    C511079   8.769   9.354   2.418
  330DPPC    C611080   8.653   9.452   2.452
  330DPPC   OS711081   8.525   9.414   2.402
  330DPPC    P811082   8.417   9.526   2.425
  330DPPC   OM911083   8.306   9.490   2.336
  330DPPC  OM1011084   8.484   9.657   2.414
  330DPPC  OS1111085   8.385   9.493   2.575
  330DPPC   C1211086   8.250   9.452   2.601
  330DPPC   C1311087   8.226   9.300   2.610
  330DPPC  OS1411088   8.087   9.267   2.643
  330DPPC   C1511089   8.044   9.140   2.616
  330DPPC   O1611090   8.107   9.061   2.544
  330DPPC   C1711091   7.903   9.115   2.665
  330DPPC   C1811092   7.897   8.996   2.761
  330DPPC   C1911093   7.956   9.035   2.897
  330DPPC   C2011094   7.933   8.926   3.002
  330DPPC   C2111095   7.967   8.981   3.141
  330DPPC   C2211096   7.927   8.881   3.251
  330DPPC   C2311097   7.943   8.943   3.390
  330DPPC   C2411098   7.896   8.845   3.497
  330DPPC   C2511099   7.895   8.907   3.637
  330DPPC   C2611100   7.838   8.807   3.738
  330DPPC   C2711101   7.820   8.871   3.876
  330DPPC   C2811102   7.954   8.891   3.946
  330DPPC   C2911103   7.935   8.963   4.079
  330DPPC   C3011104   7.854   8.878   4.177
  330DPPC   C3111105   7.835   8.951   4.310
  330DPPC   C3211106   8.331   9.247   2.710
  330DPPC  OS3311107   8.326   9.303   2.842
  330DPPC   C3411108   8.437   9.291   2.919
  330DPPC   O3511109   8.541   9.233   2.884
  330DPPC   C3611110   8.417   9.363   3.051
  330DPPC   C3711111   8.390   9.266   3.166
  330DPPC   C3811112   8.362   9.343   3.295
  330DPPC   C3911113   8.338   9.248   3.412
  330DPPC   C4011114   8.303   9.326   3.539
  330DPPC   C4111115   8.278   9.231   3.656
  330DPPC   C4211116   8.229   9.305   3.780
  330DPPC   C4311117   8.197   9.205   3.891
  330DPPC   C4411118   8.323   9.153   3.961
  330DPPC   C4511119   8.362   9.244   4.077
  330DPPC   C4611120   8.258   9.235   4.188
  330DPPC   C4711121   8.293   9.321   4.309
  330DPPC   C4811122   8.186   9.306   4.418
  330DPPC   C4911123   8.218   9.392   4.540
  330DPPC   C5011124   8.109   9.378   4.647
  331DPPC    C111125   6.868   8.419   1.801
  331DPPC    C211126   7.049   8.553   1.726
  331DPPC    C311127   7.041   8.474   1.952
  331DPPC    N411128   7.013   8.440   1.812
  331DPPC    C511129   7.080   8.315   1.768
  331DPPC    C611130   7.235   8.301   1.775
  331DPPC   OS711131   7.287   8.294   1.908
  331DPPC    P811132   7.441   8.315   1.912
  331DPPC   OM911133   7.507   8.196   1.859
  331DPPC  OM1011134   7.470   8.448   1.857
  331DPPC  OS1111135   7.459   8.318   2.068
  331DPPC   C1211136   7.418   8.443   2.123
  331DPPC   C1311137   7.415   8.452   2.277
  331DPPC  OS1411138   7.546   8.464   2.339
  331DPPC   C1511139   7.563   8.575   2.417
  331DPPC   O1611140   7.490   8.674   2.411
  331DPPC   C1711141   7.697   8.567   2.489
  331DPPC   C1811142   7.692   8.632   2.628
  331DPPC   C1911143   7.821   8.606   2.704
  331DPPC   C2011144   7.836   8.457   2.738
  331DPPC   C2111145   7.964   8.428   2.817
  331DPPC   C2211146   7.956   8.482   2.960
  331DPPC   C2311147   7.848   8.408   3.040
  331DPPC   C2411148   7.839   8.459   3.184
  331DPPC   C2511149   7.955   8.408   3.270
  331DPPC   C2611150   7.941   8.457   3.414
  331DPPC   C2711151   8.048   8.399   3.505
  331DPPC   C2811152   8.035   8.454   3.647
  331DPPC   C2911153   8.137   8.389   3.740
  331DPPC   C3011154   8.133   8.453   3.879
  331DPPC   C3111155   8.000   8.426   3.949
  331DPPC   C3211156   7.331   8.332   2.324
  331DPPC  OS3311157   7.247   8.361   2.437
  331DPPC   C3411158   7.222   8.255   2.518
  331DPPC   O3511159   7.256   8.139   2.493
  331DPPC   C3611160   7.141   8.297   2.640
  331DPPC   C3711161   7.231   8.304   2.764
  331DPPC   C3811162   7.318   8.429   2.762
  331DPPC   C3911163   7.416   8.429   2.880
  331DPPC   C4011164   7.342   8.435   3.013
  331DPPC   C4111165   7.442   8.434   3.129
  331DPPC   C4211166   7.373   8.434   3.265
  331DPPC   C4311167   7.479   8.436   3.375
  331DPPC   C4411168   7.417   8.437   3.515
  331DPPC   C4511169   7.529   8.448   3.619
  331DPPC   C4611170   7.473   8.462   3.761
  331DPPC   C4711171   7.587   8.490   3.859
  331DPPC   C4811172   7.534   8.504   4.002
  331DPPC   C4911173   7.649   8.532   4.099
  331DPPC   C5011174   7.600   8.535   4.243
  332DPPC    C111175   8.884   8.762   2.155
  332DPPC    C211176   9.070   8.632   2.076
  332DPPC    C311177   8.942   8.557   2.260
  332DPPC    N411178   8.997   8.677   2.196
  332DPPC    C511179   9.086   8.744   2.293
  332DPPC    C611180   9.153   8.879   2.257
  332DPPC   OS711181   9.243   8.928   2.356
  332DPPC    P811182   9.335   9.044   2.301
  332DPPC   OM911183   9.309   9.071   2.159
  332DPPC  OM1011184   9.471   9.016   2.349
  332DPPC  OS1111185   9.269   9.163   2.380
  332DPPC   C1211186   9.351   9.211   2.487
  332DPPC   C1311187   9.317   9.354   2.530
  332DPPC  OS1411188   9.423   9.417   2.607
  332DPPC   C1511189   9.508   9.500   2.541
  332DPPC   O1611190   9.506   9.514   2.418
  332DPPC   C1711191   9.610   9.560   2.636
  332DPPC   C1811192   9.726   9.463   2.658
  332DPPC   C1911193   9.809   9.507   2.779
  332DPPC   C2011194   9.735   9.480   2.910
  332DPPC   C2111195   9.820   9.521   3.030
  332DPPC   C2211196   9.751   9.482   3.161
  332DPPC   C2311197   9.834   9.526   3.281
  332DPPC   C2411198   9.768   9.483   3.412
  332DPPC   C2511199   9.848   9.534   3.532
  332DPPC   C2611200   9.782   9.494   3.664
  332DPPC   C2711201   9.854   9.561   3.781
  332DPPC   C2811202   9.791   9.522   3.915
  332DPPC   C2911203   9.825   9.377   3.952
  332DPPC   C3011204   9.765   9.342   4.089
  332DPPC   C3111205   9.807   9.201   4.132
  332DPPC   C3211206   9.178   9.350   2.596
  332DPPC  OS3311207   9.168   9.274   2.717
  332DPPC   C3411208   9.042   9.250   2.761
  332DPPC   O3511209   8.941   9.254   2.689
  332DPPC   C3611210   9.044   9.189   2.900
  332DPPC   C3711211   9.018   9.039   2.896
  332DPPC   C3811212   9.012   8.982   3.038
  332DPPC   C3911213   9.146   9.001   3.109
  332DPPC   C4011214   9.144   8.941   3.250
  332DPPC   C4111215   9.047   9.014   3.342
  332DPPC   C4211216   9.067   8.967   3.487
  332DPPC   C4311217   8.966   9.032   3.582
  332DPPC   C4411218   9.001   8.998   3.727
  332DPPC   C4511219   8.895   9.049   3.824
  332DPPC   C4611220   8.942   9.029   3.969
  332DPPC   C4711221   8.832   9.064   4.070
  332DPPC   C4811222   8.888   9.066   4.212
  332DPPC   C4911223   8.937   8.928   4.257
  332DPPC   C5011224   8.821   8.833   4.287
  333DPPC    C111225   7.368   4.486   1.838
  333DPPC    C211226   7.594   4.541   1.897
  333DPPC    C311227   7.415   4.689   1.951
  333DPPC    N411228   7.454   4.547   1.941
  333DPPC    C511229   7.436   4.486   2.074
  333DPPC    C611230   7.488   4.342   2.099
  333DPPC   OS711231   7.498   4.312   2.238
  333DPPC    P811232   7.590   4.187   2.262
  333DPPC   OM911233   7.510   4.067   2.231
  333DPPC  OM1011234   7.715   4.215   2.189
  333DPPC  OS1111235   7.610   4.208   2.417
  333DPPC   C1211236   7.735   4.266   2.457
  333DPPC   C1311237   7.755   4.419   2.449
  333DPPC  OS1411238   7.894   4.454   2.475
  333DPPC   C1511239   7.942   4.575   2.432
  333DPPC   O1611240   7.882   4.646   2.351
  333DPPC   C1711241   8.090   4.588   2.462
  333DPPC   C1811242   8.126   4.538   2.602
  333DPPC   C1911243   8.106   4.645   2.710
  333DPPC   C2011244   8.132   4.581   2.847
  333DPPC   C2111245   8.145   4.683   2.960
  333DPPC   C2211246   8.165   4.609   3.092
  333DPPC   C2311247   8.191   4.706   3.207
  333DPPC   C2411248   8.201   4.632   3.340
  333DPPC   C2511249   8.237   4.727   3.454
  333DPPC   C2611250   8.238   4.653   3.589
  333DPPC   C2711251   8.277   4.748   3.702
  333DPPC   C2811252   8.272   4.678   3.838
  333DPPC   C2911253   8.128   4.651   3.881
  333DPPC   C3011254   8.124   4.583   4.018
  333DPPC   C3111255   7.980   4.561   4.065
  333DPPC   C3211256   7.646   4.485   2.536
  333DPPC  OS3311257   7.637   4.442   2.674
  333DPPC   C3411258   7.694   4.522   2.768
  333DPPC   O3511259   7.744   4.632   2.747
  333DPPC   C3611260   7.672   4.463   2.907
  333DPPC   C3711261   7.743   4.544   3.015
  333DPPC   C3811262   7.707   4.490   3.154
  333DPPC   C3911263   7.785   4.561   3.265
  333DPPC   C4011264   7.745   4.508   3.403
  333DPPC   C4111265   7.836   4.566   3.512
  333DPPC   C4211266   7.799   4.510   3.649
  333DPPC   C4311267   7.677   4.581   3.709
  333DPPC   C4411268   7.630   4.506   3.835
  333DPPC   C4511269   7.522   4.584   3.911
  333DPPC   C4611270   7.585   4.694   3.997
  333DPPC   C4711271   7.477   4.772   4.071
  333DPPC   C4811272   7.537   4.872   4.170
  333DPPC   C4911273   7.427   4.959   4.232
  333DPPC   C5011274   7.326   4.876   4.310
  334DPPC    C111275   8.878   5.065   1.901
  334DPPC    C211276   8.842   5.261   2.028
  334DPPC    C311277   8.703   5.069   2.062
  334DPPC    N411278   8.774   5.149   1.962
  334DPPC    C511279   8.683   5.195   1.854
  334DPPC    C611280   8.558   5.280   1.887
  334DPPC   OS711281   8.452   5.212   1.954
  334DPPC    P811282   8.338   5.312   1.990
  334DPPC   OM911283   8.288   5.363   1.861
  334DPPC  OM1011284   8.393   5.402   2.092
  334DPPC  OS1111285   8.239   5.204   2.046
  334DPPC   C1211286   8.253   5.185   2.186
  334DPPC   C1311287   8.165   5.069   2.239
  334DPPC  OS1411288   8.107   5.091   2.370
  334DPPC   C1511289   7.972   5.080   2.373
  334DPPC   O1611290   7.904   5.090   2.270
  334DPPC   C1711291   7.916   5.085   2.514
  334DPPC   C1811292   7.816   4.971   2.535
  334DPPC   C1911293   7.751   4.979   2.672
  334DPPC   C2011294   7.854   4.965   2.784
  334DPPC   C2111295   7.785   4.957   2.920
  334DPPC   C2211296   7.887   4.962   3.033
  334DPPC   C2311297   7.818   4.957   3.170
  334DPPC   C2411298   7.920   4.981   3.281
  334DPPC   C2511299   7.853   4.986   3.419
  334DPPC   C2611300   7.959   5.017   3.525
  334DPPC   C2711301   7.896   5.033   3.664
  334DPPC   C2811302   8.005   5.067   3.766
  334DPPC   C2911303   7.946   5.096   3.904
  334DPPC   C3011304   8.057   5.132   4.003
  334DPPC   C3111305   8.000   5.172   4.138
  334DPPC   C3211306   8.244   4.938   2.219
  334DPPC  OS3311307   8.378   4.937   2.271
  334DPPC   C3411308   8.435   4.814   2.287
  334DPPC   O3511309   8.381   4.707   2.256
  334DPPC   C3611310   8.576   4.829   2.342
  334DPPC   C3711311   8.582   4.930   2.456
  334DPPC   C3811312   8.524   4.871   2.585
  334DPPC   C3911313   8.541   4.967   2.702
  334DPPC   C4011314   8.507   4.896   2.833
  334DPPC   C4111315   8.530   4.987   2.954
  334DPPC   C4211316   8.506   4.908   3.083
  334DPPC   C4311317   8.515   4.996   3.207
  334DPPC   C4411318   8.657   5.048   3.230
  334DPPC   C4511319   8.664   5.123   3.363
  334DPPC   C4611320   8.633   5.027   3.478
  334DPPC   C4711321   8.632   5.096   3.613
  334DPPC   C4811322   8.592   4.996   3.722
  334DPPC   C4911323   8.580   5.063   3.859
  334DPPC   C5011324   8.530   4.962   3.962
  335DPPC    C111325   9.421   5.420   1.581
  335DPPC    C211326   9.404   5.258   1.755
  335DPPC    C311327   9.559   5.439   1.772
  335DPPC    N411328   9.498   5.343   1.680
  335DPPC    C511329   9.600   5.262   1.607
  335DPPC    C611330   9.695   5.167   1.684
  335DPPC   OS711331   9.783   5.233   1.775
  335DPPC    P811332   9.887   5.140   1.847
  335DPPC   OM911333   9.901   5.013   1.775
  335DPPC  OM1011334  10.005   5.224   1.870
  335DPPC  OS1111335   9.803   5.110   1.976
  335DPPC   C1211336   9.791   5.224   2.061
  335DPPC   C1311337   9.647   5.243   2.111
  335DPPC  OS1411338   9.622   5.379   2.156
  335DPPC   C1511339   9.494   5.427   2.160
  335DPPC   O1611340   9.398   5.373   2.105
  335DPPC   C1711341   9.496   5.566   2.221
  335DPPC   C1811342   9.588   5.566   2.344
  335DPPC   C1911343   9.605   5.707   2.400
  335DPPC   C2011344   9.696   5.708   2.523
  335DPPC   C2111345   9.629   5.640   2.643
  335DPPC   C2211346   9.716   5.654   2.768
  335DPPC   C2311347   9.734   5.802   2.802
  335DPPC   C2411348   9.822   5.825   2.925
  335DPPC   C2511349   9.749   5.791   3.054
  335DPPC   C2611350   9.835   5.832   3.174
  335DPPC   C2711351   9.759   5.814   3.306
  335DPPC   C2811352   9.843   5.864   3.424
  335DPPC   C2911353   9.767   5.851   3.555
  335DPPC   C3011354   9.850   5.903   3.673
  335DPPC   C3111355   9.772   5.893   3.804
  335DPPC   C3211356   9.620   5.130   2.213
  335DPPC  OS3311357   9.709   5.124   2.326
  335DPPC   C3411358   9.677   5.035   2.423
  335DPPC   O3511359   9.596   4.943   2.409
  335DPPC   C3611360   9.772   5.048   2.541
  335DPPC   C3711361   9.700   5.015   2.672
  335DPPC   C3811362   9.790   5.043   2.792
  335DPPC   C3911363   9.716   5.017   2.923
  335DPPC   C4011364   9.802   5.054   3.044
  335DPPC   C4111365   9.726   5.028   3.173
  335DPPC   C4211366   9.806   5.070   3.297
  335DPPC   C4311367   9.726   5.037   3.423
  335DPPC   C4411368   9.797   5.083   3.551
  335DPPC   C4511369   9.713   5.045   3.672
  335DPPC   C4611370   9.772   5.100   3.802
  335DPPC   C4711371   9.680   5.067   3.920
  335DPPC   C4811372   9.732   5.126   4.051
  335DPPC   C4911373   9.640   5.089   4.167
  335DPPC   C5011374   9.502   5.152   4.150
  336DPPC    C111375   0.261   4.982   1.740
  336DPPC    C211376   0.122   4.835   1.616
  336DPPC    C311377   0.043   5.052   1.668
  336DPPC    N411378   0.122   4.939   1.720
  336DPPC    C511379   0.063   4.881   1.843
  336DPPC    C611380   0.047   4.965   1.972
  336DPPC   OS711381  10.153   4.890   2.083
  336DPPC    P811382  10.138   4.978   2.214
  336DPPC   OM911383  10.072   4.894   2.316
  336DPPC  OM1011384  10.093   5.113   2.180
  336DPPC  OS1111385   0.134   4.997   2.244
  336DPPC   C1211386   0.173   4.937   2.367
  336DPPC   C1311387   0.321   4.899   2.380
  336DPPC  OS1411388   0.343   4.824   2.502
  336DPPC   C1511389   0.460   4.756   2.518
  336DPPC   O1611390   0.546   4.750   2.430
  336DPPC   C1711391   0.462   4.682   2.650
  336DPPC   C1811392   0.504   4.770   2.768
  336DPPC   C1911393   0.497   4.689   2.898
  336DPPC   C2011394   0.540   4.770   3.020
  336DPPC   C2111395   0.517   4.687   3.147
  336DPPC   C2211396   0.560   4.758   3.275
  336DPPC   C2311397   0.514   4.675   3.395
  336DPPC   C2411398   0.550   4.735   3.531
  336DPPC   C2511399   0.473   4.658   3.638
  336DPPC   C2611400   0.509   4.698   3.781
  336DPPC   C2711401   0.416   4.625   3.879
  336DPPC   C2811402   0.460   4.638   4.025
  336DPPC   C2911403   0.590   4.563   4.049
  336DPPC   C3011404   0.618   4.544   4.199
  336DPPC   C3111405   0.641   4.678   4.270
  336DPPC   C3211406   0.402   5.030   2.364
  336DPPC  OS3311407   0.383   5.128   2.468
  336DPPC   C3411408   0.481   5.221   2.479
  336DPPC   O3511409   0.574   5.235   2.399
  336DPPC   C3611410   0.462   5.305   2.603
  336DPPC   C3711411   0.501   5.222   2.725
  336DPPC   C3811412   0.483   5.301   2.855
  336DPPC   C3911413   0.525   5.214   2.973
  336DPPC   C4011414   0.503   5.288   3.105
  336DPPC   C4111415   0.544   5.198   3.222
  336DPPC   C4211416   0.515   5.265   3.356
  336DPPC   C4311417   0.551   5.169   3.469
  336DPPC   C4411418   0.518   5.231   3.605
  336DPPC   C4511419   0.552   5.132   3.716
  336DPPC   C4611420   0.525   5.193   3.854
  336DPPC   C4711421   0.566   5.093   3.963
  336DPPC   C4811422   0.716   5.064   3.953
  336DPPC   C4911423   0.758   4.964   4.060
  336DPPC   C5011424   0.905   4.926   4.044
  337DPPC    C111425   6.556   5.942   1.542
  337DPPC    C211426   6.412   5.809   1.682
  337DPPC    C311427   6.647   5.795   1.705
  337DPPC    N411428   6.537   5.886   1.677
  337DPPC    C511429   6.543   5.992   1.780
  337DPPC    C611430   6.431   6.097   1.794
  337DPPC   OS711431   6.458   6.190   1.898
  337DPPC    P811432   6.333   6.280   1.931
  337DPPC   OM911433   6.385   6.387   2.016
  337DPPC  OM1011434   6.259   6.308   1.807
  337DPPC  OS1111435   6.251   6.175   2.014
  337DPPC   C1211436   6.265   6.188   2.155
  337DPPC   C1311437   6.129   6.205   2.226
  337DPPC  OS1411438   6.142   6.228   2.369
  337DPPC   C1511439   6.124   6.356   2.410
  337DPPC   O1611440   6.151   6.453   2.338
  337DPPC   C1711441   6.104   6.362   2.561
  337DPPC   C1811442   5.997   6.466   2.596
  337DPPC   C1911443   5.941   6.442   2.737
  337DPPC   C2011444   6.043   6.472   2.847
  337DPPC   C2111445   5.981   6.446   2.984
  337DPPC   C2211446   6.078   6.482   3.097
  337DPPC   C2311447   6.014   6.457   3.234
  337DPPC   C2411448   6.106   6.502   3.346
  337DPPC   C2511449   6.046   6.474   3.484
  337DPPC   C2611450   6.141   6.520   3.595
  337DPPC   C2711451   6.092   6.479   3.733
  337DPPC   C2811452   5.966   6.554   3.776
  337DPPC   C2911453   5.926   6.514   3.918
  337DPPC   C3011454   5.802   6.591   3.965
  337DPPC   C3111455   5.831   6.740   3.981
  337DPPC   C3211456   6.042   6.084   2.187
  337DPPC  OS3311457   5.907   6.086   2.238
  337DPPC   C3411458   5.814   6.153   2.166
  337DPPC   O3511459   5.827   6.185   2.048
  337DPPC   C3611460   5.683   6.161   2.244
  337DPPC   C3711461   5.713   6.176   2.393
  337DPPC   C3811462   5.587   6.189   2.478
  337DPPC   C3911463   5.628   6.193   2.626
  337DPPC   C4011464   5.509   6.210   2.720
  337DPPC   C4111465   5.559   6.206   2.864
  337DPPC   C4211466   5.448   6.223   2.967
  337DPPC   C4311467   5.506   6.206   3.107
  337DPPC   C4411468   5.402   6.221   3.218
  337DPPC   C4511469   5.469   6.190   3.352
  337DPPC   C4611470   5.375   6.207   3.471
  337DPPC   C4711471   5.452   6.175   3.600
  337DPPC   C4811472   5.365   6.195   3.724
  337DPPC   C4911473   5.445   6.168   3.852
  337DPPC   C5011474   5.360   6.196   3.976
  338DPPC    C111475   5.407   7.570   1.931
  338DPPC    C211476   5.385   7.438   1.732
  338DPPC    C311477   5.197   7.552   1.822
  338DPPC    N411478   5.319   7.478   1.858
  338DPPC    C511479   5.280   7.361   1.939
  338DPPC    C611480   5.392   7.267   1.988
  338DPPC   OS711481   5.352   7.131   2.005
  338DPPC    P811482   5.475   7.035   2.000
  338DPPC   OM911483   5.573   7.088   1.902
  338DPPC  OM1011484   5.416   6.901   1.984
  338DPPC  OS1111485   5.533   7.058   2.144
  338DPPC   C1211486   5.486   6.966   2.242
  338DPPC   C1311487   5.557   6.986   2.377
  338DPPC  OS1411488   5.548   6.870   2.464
  338DPPC   C1511489   5.667   6.834   2.519
  338DPPC   O1611490   5.774   6.880   2.477
  338DPPC   C1711491   5.656   6.714   2.611
  338DPPC   C1811492   5.576   6.744   2.738
  338DPPC   C1911493   5.647   6.847   2.827
  338DPPC   C2011494   5.587   6.847   2.968
  338DPPC   C2111495   5.632   6.722   3.043
  338DPPC   C2211496   5.576   6.717   3.186
  338DPPC   C2311497   5.636   6.596   3.258
  338DPPC   C2411498   5.579   6.578   3.399
  338DPPC   C2511499   5.617   6.693   3.492
  338DPPC   C2611500   5.575   6.658   3.635
  338DPPC   C2711501   5.423   6.642   3.645
  338DPPC   C2811502   5.382   6.585   3.781
  338DPPC   C2911503   5.406   6.684   3.895
  338DPPC   C3011504   5.370   6.621   4.029
  338DPPC   C3111505   5.220   6.591   4.038
  338DPPC   C3211506   5.509   7.122   2.432
  338DPPC  OS3311507   5.566   7.163   2.558
  338DPPC   C3411508   5.536   7.288   2.601
  338DPPC   O3511509   5.462   7.367   2.541
  338DPPC   C3611510   5.601   7.317   2.735
  338DPPC   C3711511   5.556   7.454   2.786
  338DPPC   C3811512   5.615   7.487   2.923
  338DPPC   C3911513   5.557   7.398   3.033
  338DPPC   C4011514   5.610   7.438   3.171
  338DPPC   C4111515   5.553   7.573   3.212
  338DPPC   C4211516   5.613   7.624   3.343
  338DPPC   C4311517   5.567   7.544   3.465
  338DPPC   C4411518   5.618   7.614   3.591
  338DPPC   C4511519   5.572   7.544   3.719
  338DPPC   C4611520   5.613   7.628   3.841
  338DPPC   C4711521   5.572   7.560   3.972
  338DPPC   C4811522   5.608   7.649   4.091
  338DPPC   C4911523   5.577   7.579   4.223
  338DPPC   C5011524   5.671   7.460   4.244
  339DPPC    C111525   7.258   6.577   2.439
  339DPPC    C211526   7.468   6.687   2.473
  339DPPC    C311527   7.447   6.524   2.305
  339DPPC    N411528   7.376   6.633   2.373
  339DPPC    C511529   7.340   6.732   2.269
  339DPPC    C611530   7.272   6.864   2.312
  339DPPC   OS711531   7.266   6.961   2.208
  339DPPC    P811532   7.234   7.105   2.265
  339DPPC   OM911533   7.282   7.110   2.403
  339DPPC  OM1011534   7.281   7.200   2.164
  339DPPC  OS1111535   7.077   7.100   2.265
  339DPPC   C1211536   7.025   7.189   2.365
  339DPPC   C1311537   6.876   7.163   2.398
  339DPPC  OS1411538   6.817   7.259   2.491
  339DPPC   C1511539   6.725   7.343   2.436
  339DPPC   O1611540   6.739   7.390   2.322
  339DPPC   C1711541   6.639   7.405   2.545
  339DPPC   C1811542   6.595   7.298   2.645
  339DPPC   C1911543   6.522   7.360   2.764
  339DPPC   C2011544   6.506   7.260   2.879
  339DPPC   C2111545   6.452   7.331   3.003
  339DPPC   C2211546   6.461   7.243   3.129
  339DPPC   C2311547   6.423   7.325   3.252
  339DPPC   C2411548   6.441   7.244   3.381
  339DPPC   C2511549   6.408   7.330   3.504
  339DPPC   C2611550   6.431   7.253   3.633
  339DPPC   C2711551   6.400   7.339   3.756
  339DPPC   C2811552   6.426   7.261   3.885
  339DPPC   C2911553   6.393   7.345   4.008
  339DPPC   C3011554   6.422   7.267   4.137
  339DPPC   C3111555   6.386   7.351   4.260
  339DPPC   C3211556   6.866   7.016   2.443
  339DPPC  OS3311557   6.947   6.982   2.557
  339DPPC   C3411558   6.991   6.854   2.569
  339DPPC   O3511559   6.984   6.769   2.479
  339DPPC   C3611560   7.078   6.841   2.693
  339DPPC   C3711561   6.994   6.821   2.819
  339DPPC   C3811562   7.082   6.831   2.944
  339DPPC   C3911563   7.001   6.807   3.071
  339DPPC   C4011564   7.088   6.831   3.195
  339DPPC   C4111565   7.012   6.799   3.323
  339DPPC   C4211566   7.098   6.829   3.446
  339DPPC   C4311567   7.029   6.780   3.573
  339DPPC   C4411568   7.117   6.803   3.696
  339DPPC   C4511569   7.052   6.741   3.820
  339DPPC   C4611570   7.136   6.761   3.945
  339DPPC   C4711571   7.068   6.695   4.065
  339DPPC   C4811572   6.934   6.763   4.095
  339DPPC   C4911573   6.861   6.691   4.209
  339DPPC   C5011574   6.937   6.706   4.341
  340DPPC    C111575   7.334   7.009   1.900
  340DPPC    C211576   7.453   7.164   1.768
  340DPPC    C311577   7.522   6.936   1.770
  340DPPC    N411578   7.468   7.045   1.853
  340DPPC    C511579   7.560   7.079   1.965
  340DPPC    C611580   7.592   6.970   2.070
  340DPPC   OS711581   7.703   6.997   2.156
  340DPPC    P811582   7.719   6.889   2.270
  340DPPC   OM911583   7.855   6.899   2.325
  340DPPC  OM1011584   7.663   6.762   2.221
  340DPPC  OS1111585   7.616   6.954   2.371
  340DPPC   C1211586   7.673   7.062   2.444
  340DPPC   C1311587   7.573   7.154   2.516
  340DPPC  OS1411588   7.631   7.279   2.564
  340DPPC   C1511589   7.543   7.379   2.596
  340DPPC   O1611590   7.432   7.385   2.544
  340DPPC   C1711591   7.615   7.495   2.664
  340DPPC   C1811592   7.516   7.598   2.717
  340DPPC   C1911593   7.443   7.548   2.841
  340DPPC   C2011594   7.532   7.548   2.966
  340DPPC   C2111595   7.457   7.483   3.082
  340DPPC   C2211596   7.532   7.492   3.215
  340DPPC   C2311597   7.452   7.417   3.322
  340DPPC   C2411598   7.513   7.429   3.461
  340DPPC   C2511599   7.499   7.570   3.517
  340DPPC   C2611600   7.533   7.572   3.666
  340DPPC   C2711601   7.516   7.713   3.724
  340DPPC   C2811602   7.529   7.711   3.876
  340DPPC   C2911603   7.409   7.640   3.939
  340DPPC   C3011604   7.417   7.640   4.092
  340DPPC   C3111605   7.295   7.571   4.152
  340DPPC   C3211606   7.498   7.067   2.619
  340DPPC  OS3311607   7.581   7.000   2.716
  340DPPC   C3411608   7.522   6.904   2.793
  340DPPC   O3511609   7.420   6.843   2.759
  340DPPC   C3611610   7.624   6.854   2.893
  340DPPC   C3711611   7.565   6.808   3.026
  340DPPC   C3811612   7.523   6.925   3.114
  340DPPC   C3911613   7.519   6.879   3.260
  340DPPC   C4011614   7.476   6.991   3.354
  340DPPC   C4111615   7.510   6.956   3.498
  340DPPC   C4211616   7.458   7.062   3.595
  340DPPC   C4311617   7.517   7.043   3.735
  340DPPC   C4411618   7.450   7.137   3.836
  340DPPC   C4511619   7.522   7.130   3.971
  340DPPC   C4611620   7.441   7.199   4.080
  340DPPC   C4711621   7.517   7.200   4.213
  340DPPC   C4811622   7.543   7.058   4.264
  340DPPC   C4911623   7.414   6.988   4.308
  340DPPC   C5011624   7.443   6.844   4.349
  341DPPC    C111625   5.541   7.987   1.968
  341DPPC    C211626   5.529   8.148   2.141
  341DPPC    C311627   5.739   8.088   2.043
  341DPPC    N411628   5.597   8.113   2.016
  341DPPC    C511629   5.586   8.218   1.912
  341DPPC    C611630   5.452   8.293   1.889
  341DPPC   OS711631   5.340   8.212   1.855
  341DPPC    P811632   5.204   8.294   1.854
  341DPPC   OM911633   5.236   8.428   1.804
  341DPPC  OM1011634   5.112   8.202   1.788
  341DPPC  OS1111635   5.185   8.298   2.009
  341DPPC   C1211636   5.106   8.191   2.060
  341DPPC   C1311637   5.125   8.180   2.212
  341DPPC  OS1411638   5.074   8.057   2.271
  341DPPC   C1511639   5.154   7.946   2.266
  341DPPC   O1611640   5.248   7.933   2.186
  341DPPC   C1711641   5.094   7.833   2.348
  341DPPC   C1811642   5.143   7.835   2.493
  341DPPC   C1911643   5.090   7.711   2.565
  341DPPC   C2011644   5.144   7.692   2.707
  341DPPC   C2111645   5.101   7.553   2.756
  341DPPC   C2211646   5.165   7.513   2.889
  341DPPC   C2311647   5.091   7.567   3.011
  341DPPC   C2411648   5.158   7.511   3.137
  341DPPC   C2511649   5.083   7.549   3.265
  341DPPC   C2611650   5.155   7.489   3.386
  341DPPC   C2711651   5.081   7.521   3.517
  341DPPC   C2811652   5.155   7.458   3.636
  341DPPC   C2911653   5.081   7.486   3.767
  341DPPC   C3011654   5.154   7.422   3.885
  341DPPC   C3111655   5.079   7.447   4.016
  341DPPC   C3211656   5.064   8.308   2.270
  341DPPC  OS3311657   5.134   8.361   2.385
  341DPPC   C3411658   5.068   8.460   2.451
  341DPPC   O3511659   4.960   8.508   2.415
  341DPPC   C3611660   5.147   8.507   2.571
  341DPPC   C3711661   5.107   8.650   2.607
  341DPPC   C3811662   5.171   8.695   2.738
  341DPPC   C3911663   5.117   8.613   2.855
  341DPPC   C4011664   5.163   8.674   2.987
  341DPPC   C4111665   5.111   8.597   3.108
  341DPPC   C4211666   5.148   8.673   3.235
  341DPPC   C4311667   5.115   8.599   3.364
  341DPPC   C4411668   5.157   8.685   3.482
  341DPPC   C4511669   5.164   8.608   3.614
  341DPPC   C4611670   5.025   8.566   3.663
  341DPPC   C4711671   5.038   8.510   3.804
  341DPPC   C4811672   4.902   8.466   3.859
  341DPPC   C4911673   4.914   8.428   4.006
  341DPPC   C5011674   4.943   8.553   4.090
  342DPPC    C111675   6.048   7.080   2.224
  342DPPC    C211676   5.852   7.038   2.093
  342DPPC    C311677   6.064   6.976   2.011
  342DPPC    N411678   5.993   7.079   2.088
  342DPPC    C511679   6.011   7.211   2.022
  342DPPC    C611680   5.953   7.338   2.088
  342DPPC   OS711681   5.810   7.353   2.082
  342DPPC    P811682   5.743   7.384   2.221
  342DPPC   OM911683   5.797   7.286   2.317
  342DPPC  OM1011684   5.600   7.403   2.198
  342DPPC  OS1111685   5.804   7.527   2.248
  342DPPC   C1211686   5.843   7.546   2.384
  342DPPC   C1311687   5.927   7.674   2.405
  342DPPC  OS1411688   6.006   7.676   2.527
  342DPPC   C1511689   6.130   7.621   2.522
  342DPPC   O1611690   6.166   7.550   2.427
  342DPPC   C1711691   6.210   7.641   2.650
  342DPPC   C1811692   6.132   7.712   2.761
  342DPPC   C1911693   6.036   7.618   2.835
  342DPPC   C2011694   5.954   7.692   2.941
  342DPPC   C2111695   6.038   7.729   3.064
  342DPPC   C2211696   6.087   7.602   3.134
  342DPPC   C2311697   6.161   7.634   3.264
  342DPPC   C2411698   6.065   7.671   3.376
  342DPPC   C2511699   6.143   7.688   3.506
  342DPPC   C2611700   6.052   7.706   3.627
  342DPPC   C2711701   6.137   7.712   3.754
  342DPPC   C2811702   6.052   7.720   3.881
  342DPPC   C2911703   6.143   7.725   4.003
  342DPPC   C3011704   6.063   7.728   4.133
  342DPPC   C3111705   6.157   7.736   4.254
  342DPPC   C3211706   5.833   7.794   2.387
  342DPPC  OS3311707   5.713   7.792   2.467
  342DPPC   C3411708   5.638   7.904   2.459
  342DPPC   O3511709   5.658   7.995   2.379
  342DPPC   C3611710   5.515   7.894   2.548
  342DPPC   C3711711   5.548   7.845   2.689
  342DPPC   C3811712   5.612   7.954   2.775
  342DPPC   C3911713   5.625   7.906   2.920
  342DPPC   C4011714   5.678   8.014   3.014
  342DPPC   C4111715   5.684   7.958   3.156
  342DPPC   C4211716   5.725   8.061   3.262
  342DPPC   C4311717   5.723   7.994   3.399
  342DPPC   C4411718   5.754   8.091   3.513
  342DPPC   C4511719   5.750   8.018   3.647
  342DPPC   C4611720   5.780   8.112   3.764
  342DPPC   C4711721   5.777   8.037   3.897
  342DPPC   C4811722   5.809   8.131   4.013
  342DPPC   C4911723   5.807   8.056   4.147
  342DPPC   C5011724   5.841   8.150   4.263
  343DPPC    C111725   7.484   7.997   2.116
  343DPPC    C211726   7.398   7.898   1.914
  343DPPC    C311727   7.456   7.762   2.099
  343DPPC    N411728   7.398   7.892   2.061
  343DPPC    C511729   7.260   7.898   2.115
  343DPPC    C611730   7.171   8.022   2.089
  343DPPC   OS711731   7.042   8.012   2.149
  343DPPC    P811732   6.963   8.146   2.131
  343DPPC   OM911733   7.053   8.252   2.178
  343DPPC  OM1011734   6.911   8.143   1.993
  343DPPC  OS1111735   6.848   8.113   2.231
  343DPPC   C1211736   6.876   8.162   2.362
  343DPPC   C1311737   6.770   8.121   2.465
  343DPPC  OS1411738   6.762   8.213   2.577
  343DPPC   C1511739   6.641   8.227   2.638
  343DPPC   O1611740   6.537   8.181   2.591
  343DPPC   C1711741   6.653   8.316   2.761
  343DPPC   C1811742   6.779   8.281   2.839
  343DPPC   C1911743   6.798   8.370   2.963
  343DPPC   C2011744   6.929   8.331   3.031
  343DPPC   C2111745   6.964   8.420   3.151
  343DPPC   C2211746   6.878   8.391   3.274
  343DPPC   C2311747   6.925   8.478   3.391
  343DPPC   C2411748   6.846   8.450   3.519
  343DPPC   C2511749   6.894   8.543   3.630
  343DPPC   C2611750   6.816   8.521   3.760
  343DPPC   C2711751   6.856   8.391   3.829
  343DPPC   C2811752   6.773   8.368   3.955
  343DPPC   C2911753   6.799   8.478   4.058
  343DPPC   C3011754   6.715   8.455   4.184
  343DPPC   C3111755   6.741   8.566   4.287
  343DPPC   C3211756   6.795   7.973   2.499
  343DPPC  OS3311757   6.922   7.941   2.560
  343DPPC   C3411758   6.919   7.840   2.652
  343DPPC   O3511759   6.815   7.794   2.699
  343DPPC   C3611760   7.059   7.805   2.700
  343DPPC   C3711761   7.119   7.908   2.795
  343DPPC   C3811762   7.054   7.903   2.933
  343DPPC   C3911763   7.135   7.984   3.035
  343DPPC   C4011764   7.069   7.979   3.173
  343DPPC   C4111765   7.158   8.043   3.279
  343DPPC   C4211766   7.092   8.039   3.417
  343DPPC   C4311767   7.191   8.086   3.524
  343DPPC   C4411768   7.130   8.089   3.664
  343DPPC   C4511769   7.238   8.121   3.767
  343DPPC   C4611770   7.181   8.139   3.907
  343DPPC   C4711771   7.295   8.163   4.007
  343DPPC   C4811772   7.242   8.195   4.147
  343DPPC   C4911773   7.177   8.333   4.152
  343DPPC   C5011774   7.128   8.366   4.293
  344DPPC    C111775   6.280   8.830   2.183
  344DPPC    C211776   6.358   9.048   2.127
  344DPPC    C311777   6.322   8.890   1.955
  344DPPC    N411778   6.369   8.905   2.093
  344DPPC    C511779   6.510   8.863   2.109
  344DPPC    C611780   6.549   8.714   2.089
  344DPPC   OS711781   6.684   8.685   2.124
  344DPPC    P811782   6.698   8.540   2.184
  344DPPC   OM911783   6.604   8.451   2.115
  344DPPC  OM1011784   6.841   8.510   2.191
  344DPPC  OS1111785   6.640   8.574   2.327
  344DPPC   C1211786   6.740   8.593   2.428
  344DPPC   C1311787   6.752   8.736   2.485
  344DPPC  OS1411788   6.855   8.744   2.588
  344DPPC   C1511789   6.896   8.866   2.631
  344DPPC   O1611790   6.868   8.973   2.576
  344DPPC   C1711791   6.990   8.853   2.750
  344DPPC   C1811792   6.954   8.954   2.859
  344DPPC   C1911793   6.824   8.914   2.928
  344DPPC   C2011794   6.842   8.788   3.012
  344DPPC   C2111795   6.916   8.817   3.143
  344DPPC   C2211796   6.824   8.882   3.246
  344DPPC   C2311797   6.898   8.897   3.380
  344DPPC   C2411798   6.805   8.945   3.491
  344DPPC   C2511799   6.882   8.954   3.623
  344DPPC   C2611800   6.792   8.995   3.739
  344DPPC   C2711801   6.873   9.010   3.868
  344DPPC   C2811802   6.785   9.059   3.982
  344DPPC   C2911803   6.868   9.090   4.107
  344DPPC   C3011804   6.779   9.148   4.218
  344DPPC   C3111805   6.862   9.185   4.341
  344DPPC   C3211806   6.611   8.777   2.532
  344DPPC  OS3311807   6.548   8.689   2.627
  344DPPC   C3411808   6.426   8.726   2.674
  344DPPC   O3511809   6.373   8.835   2.653
  344DPPC   C3611810   6.370   8.617   2.763
  344DPPC   C3711811   6.445   8.608   2.896
  344DPPC   C3811812   6.390   8.701   3.004
  344DPPC   C3911813   6.464   8.675   3.135
  344DPPC   C4011814   6.394   8.737   3.256
  344DPPC   C4111815   6.473   8.703   3.382
  344DPPC   C4211816   6.397   8.737   3.511
  344DPPC   C4311817   6.483   8.699   3.631
  344DPPC   C4411818   6.409   8.711   3.765
  344DPPC   C4511819   6.366   8.855   3.792
  344DPPC   C4611820   6.323   8.873   3.937
  344DPPC   C4711821   6.445   8.869   4.029
  344DPPC   C4811822   6.409   8.894   4.175
  344DPPC   C4911823   6.331   8.777   4.235
  344DPPC   C5011824   6.301   8.800   4.383
  345DPPC    C111825   7.454   6.435   1.725
  345DPPC    C211826   7.264   6.293   1.709
  345DPPC    C311827   7.481   6.198   1.698
  345DPPC    N411828   7.400   6.303   1.763
  345DPPC    C511829   7.392   6.286   1.910
  345DPPC    C611830   7.520   6.258   1.993
  345DPPC   OS711831   7.622   6.357   1.984
  345DPPC    P811832   7.766   6.291   1.995
  345DPPC   OM911833   7.757   6.163   1.922
  345DPPC  OM1011834   7.848   6.403   1.947
  345DPPC  OS1111835   7.767   6.276   2.151
  345DPPC   C1211836   7.831   6.385   2.215
  345DPPC   C1311837   7.849   6.366   2.366
  345DPPC  OS1411838   7.903   6.486   2.428
  345DPPC   C1511839   7.842   6.534   2.539
  345DPPC   O1611840   7.724   6.509   2.567
  345DPPC   C1711841   7.925   6.649   2.593
  345DPPC   C1811842   7.923   6.662   2.745
  345DPPC   C1911843   8.038   6.752   2.790
  345DPPC   C2011844   8.016   6.811   2.929
  345DPPC   C2111845   8.020   6.708   3.042
  345DPPC   C2211846   7.977   6.775   3.173
  345DPPC   C2311847   7.976   6.677   3.290
  345DPPC   C2411848   7.907   6.740   3.412
  345DPPC   C2511849   7.902   6.641   3.528
  345DPPC   C2611850   7.806   6.689   3.637
  345DPPC   C2711851   7.791   6.583   3.746
  345DPPC   C2811852   7.671   6.613   3.837
  345DPPC   C2911853   7.697   6.732   3.929
  345DPPC   C3011854   7.799   6.697   4.037
  345DPPC   C3111855   7.822   6.815   4.130
  345DPPC   C3211856   7.937   6.241   2.382
  345DPPC  OS3311857   7.957   6.195   2.517
  345DPPC   C3411858   8.052   6.100   2.536
  345DPPC   O3511859   8.108   6.038   2.445
  345DPPC   C3611860   8.068   6.070   2.685
  345DPPC   C3711861   8.011   6.185   2.768
  345DPPC   C3811862   8.040   6.171   2.917
  345DPPC   C3911863   7.984   6.294   2.989
  345DPPC   C4011864   8.026   6.307   3.135
  345DPPC   C4111865   7.956   6.210   3.231
  345DPPC   C4211866   7.989   6.255   3.374
  345DPPC   C4311867   7.925   6.166   3.481
  345DPPC   C4411868   7.956   6.224   3.620
  345DPPC   C4511869   7.901   6.136   3.732
  345DPPC   C4611870   7.918   6.205   3.868
  345DPPC   C4711871   7.862   6.119   3.981
  345DPPC   C4811872   7.869   6.194   4.114
  345DPPC   C4911873   7.817   6.108   4.230
  345DPPC   C5011874   7.914   5.994   4.261
  346DPPC    C111875   8.338   5.917   1.961
  346DPPC    C211876   8.270   5.699   1.897
  346DPPC    C311877   8.460   5.726   2.036
  346DPPC    N411878   8.386   5.784   1.923
  346DPPC    C511879   8.472   5.799   1.803
  346DPPC    C611880   8.521   5.672   1.728
  346DPPC   OS711881   8.605   5.583   1.802
  346DPPC    P811882   8.758   5.602   1.773
  346DPPC   OM911883   8.830   5.482   1.814
  346DPPC  OM1011884   8.773   5.657   1.637
  346DPPC  OS1111885   8.786   5.720   1.871
  346DPPC   C1211886   8.858   5.683   1.988
  346DPPC   C1311887   8.961   5.788   2.033
  346DPPC  OS1411888   9.038   5.741   2.149
  346DPPC   C1511889   9.138   5.818   2.202
  346DPPC   O1611890   9.202   5.902   2.138
  346DPPC   C1711891   9.182   5.753   2.332
  346DPPC   C1811892   9.235   5.852   2.436
  346DPPC   C1911893   9.248   5.779   2.570
  346DPPC   C2011894   9.300   5.867   2.683
  346DPPC   C2111895   9.285   5.792   2.816
  346DPPC   C2211896   9.342   5.871   2.933
  346DPPC   C2311897   9.306   5.805   3.066
  346DPPC   C2411898   9.366   5.883   3.183
  346DPPC   C2511899   9.308   5.840   3.317
  346DPPC   C2611900   9.371   5.926   3.427
  346DPPC   C2711901   9.299   5.917   3.561
  346DPPC   C2811902   9.363   6.014   3.660
  346DPPC   C2911903   9.284   6.027   3.790
  346DPPC   C3011904   9.293   5.899   3.873
  346DPPC   C3111905   9.213   5.914   4.003
  346DPPC   C3211906   8.886   5.922   2.045
  346DPPC  OS3311907   8.770   5.923   2.131
  346DPPC   C3411908   8.708   6.044   2.142
  346DPPC   O3511909   8.747   6.148   2.090
  346DPPC   C3611910   8.588   6.032   2.236
  346DPPC   C3711911   8.633   5.988   2.375
  346DPPC   C3811912   8.515   5.978   2.471
  346DPPC   C3911913   8.565   5.963   2.614
  346DPPC   C4011914   8.450   5.956   2.714
  346DPPC   C4111915   8.504   5.969   2.856
  346DPPC   C4211916   8.391   5.961   2.959
  346DPPC   C4311917   8.445   5.991   3.099
  346DPPC   C4411918   8.335   5.976   3.204
  346DPPC   C4511919   8.388   6.015   3.342
  346DPPC   C4611920   8.281   5.992   3.450
  346DPPC   C4711921   8.328   6.043   3.586
  346DPPC   C4811922   8.444   5.960   3.640
  346DPPC   C4911923   8.487   6.013   3.777
  346DPPC   C5011924   8.376   5.993   3.880
  347DPPC    C111925   0.670   6.328   1.964
  347DPPC    C211926   0.675   6.261   1.735
  347DPPC    C311927   0.550   6.452   1.802
  347DPPC    N411928   0.591   6.317   1.841
  347DPPC    C511929   0.478   6.227   1.874
  347DPPC    C611930   0.363   6.204   1.773
  347DPPC   OS711931   0.284   6.090   1.802
  347DPPC    P811932   0.150   6.096   1.721
  347DPPC   OM911933   0.073   6.211   1.769
  347DPPC  OM1011934   0.188   6.079   1.580
  347DPPC  OS1111935   0.081   5.963   1.765
  347DPPC   C1211936   0.049   5.968   1.904
  347DPPC   C1311937  10.132   5.845   1.958
  347DPPC  OS1411938  10.089   5.863   2.095
  347DPPC   C1511939   9.955   5.865   2.119
  347DPPC   O1611940   9.869   5.862   2.031
  347DPPC   C1711941   9.930   5.887   2.268
  347DPPC   C1811942  10.062   5.887   2.345
  347DPPC   C1911943  10.038   5.928   2.490
  347DPPC   C2011944   0.009   5.928   2.573
  347DPPC   C2111945  10.131   5.971   2.716
  347DPPC   C2211946   0.090   5.962   2.814
  347DPPC   C2311947   0.037   5.998   2.953
  347DPPC   C2411948   0.139   5.976   3.064
  347DPPC   C2511949   0.072   6.001   3.199
  347DPPC   C2611950   0.166   5.974   3.316
  347DPPC   C2711951   0.090   5.991   3.448
  347DPPC   C2811952   0.179   5.963   3.569
  347DPPC   C2911953   0.097   5.972   3.698
  347DPPC   C3011954   0.182   5.937   3.820
  347DPPC   C3111955   0.097   5.941   3.947
  347DPPC   C3211956   0.065   5.722   1.934
  347DPPC  OS3311957   0.200   5.729   1.984
  347DPPC   C3411958   0.251   5.612   2.030
  347DPPC   O3511959   0.199   5.501   2.009
  347DPPC   C3611960   0.390   5.634   2.085
  347DPPC   C3711961   0.395   5.619   2.237
  347DPPC   C3811962   0.520   5.686   2.293
  347DPPC   C3911963   0.527   5.670   2.445
  347DPPC   C4011964   0.636   5.758   2.507
  347DPPC   C4111965   0.645   5.732   2.657
  347DPPC   C4211966   0.511   5.761   2.724
  347DPPC   C4311967   0.511   5.715   2.870
  347DPPC   C4411968   0.591   5.810   2.960
  347DPPC   C4511969   0.591   5.755   3.103
  347DPPC   C4611970   0.644   5.857   3.204
  347DPPC   C4711971   0.645   5.794   3.343
  347DPPC   C4811972   0.505   5.747   3.383
  347DPPC   C4911973   0.507   5.676   3.518
  347DPPC   C5011974   0.370   5.621   3.554
  348DPPC    C111975   8.933   6.332   1.902
  348DPPC    C211976   8.881   6.565   1.896
  348DPPC    C311977   8.889   6.438   1.696
  348DPPC    N411978   8.952   6.457   1.828
  348DPPC    C511979   9.095   6.486   1.805
  348DPPC    C611980   9.192   6.509   1.924
  348DPPC   OS711981   9.186   6.636   1.990
  348DPPC    P811982   9.267   6.635   2.126
  348DPPC   OM911983   9.243   6.504   2.189
  348DPPC  OM1011984   9.241   6.761   2.196
  348DPPC  OS1111985   9.411   6.642   2.065
  348DPPC   C1211986   9.501   6.549   2.125
  348DPPC   C1311987   9.644   6.555   2.068
  348DPPC  OS1411988   9.719   6.433   2.093
  348DPPC   C1511989   9.808   6.394   1.996
  348DPPC   O1611990   9.840   6.465   1.899
  348DPPC   C1711991   9.867   6.257   2.024
  348DPPC   C1811992   9.954   6.256   2.150
  348DPPC   C1911993  10.089   6.326   2.127
  348DPPC   C2011994   0.025   6.291   2.242
  348DPPC   C2111995  10.139   6.355   2.374
  348DPPC   C2211996   0.021   6.502   2.382
  348DPPC   C2311997  10.138   6.561   2.517
  348DPPC   C2411998   0.050   6.485   2.631
  348DPPC   C2511999   0.012   6.543   2.767
  348DPPC   C2612000   0.067   6.457   2.880
  348DPPC   C2712001   0.033   6.519   3.016
  348DPPC   C2812002   0.078   6.429   3.131
  348DPPC   C2912003   0.045   6.492   3.266
  348DPPC   C3012004   0.086   6.400   3.381
  348DPPC   C3112005   0.053   6.463   3.516
  348DPPC   C3212006   9.706   6.688   2.115
  348DPPC  OS3312007   9.697   6.714   2.257
  348DPPC   C3412008   9.787   6.802   2.309
  348DPPC   O3512009   9.898   6.824   2.261
  348DPPC   C3612010   9.746   6.838   2.451
  348DPPC   C3712011   9.867   6.876   2.536
  348DPPC   C3812012   9.821   6.902   2.680
  348DPPC   C3912013   9.938   6.912   2.778
  348DPPC   C4012014   9.886   6.913   2.921
  348DPPC   C4112015  10.003   6.906   3.020
  348DPPC   C4212016   9.956   6.899   3.166
  348DPPC   C4312017   9.883   7.028   3.204
  348DPPC   C4412018   9.861   7.038   3.355
  348DPPC   C4512019   9.765   6.931   3.407
  348DPPC   C4612020   9.732   6.958   3.554
  348DPPC   C4712021   9.637   6.853   3.611
  348DPPC   C4812022   9.591   6.892   3.752
  348DPPC   C4912023   9.708   6.891   3.851
  348DPPC   C5012024   9.661   6.932   3.990
  349DPPC    C112025   7.808   8.344   1.994
  349DPPC    C212026   8.029   8.402   1.931
  349DPPC    C312027   7.874   8.334   1.763
  349DPPC    N412028   7.918   8.311   1.902
  349DPPC    C512029   7.966   8.172   1.922
  349DPPC    C612030   7.867   8.056   1.898
  349DPPC   OS712031   7.924   7.927   1.919
  349DPPC    P812032   7.813   7.816   1.928
  349DPPC   OM912033   7.696   7.857   1.850
  349DPPC  OM1012034   7.875   7.684   1.908
  349DPPC  OS1112035   7.777   7.833   2.080
  349DPPC   C1212036   7.880   7.780   2.164
  349DPPC   C1312037   7.909   7.868   2.286
  349DPPC  OS1412038   8.036   7.836   2.346
  349DPPC   C1512039   8.122   7.940   2.356
  349DPPC   O1612040   8.096   8.053   2.312
  349DPPC   C1712041   8.253   7.899   2.422
  349DPPC   C1812042   8.227   7.830   2.556
  349DPPC   C1912043   8.171   7.930   2.658
  349DPPC   C2012044   8.173   7.871   2.799
  349DPPC   C2112045   8.117   7.970   2.901
  349DPPC   C2212046   8.150   7.925   3.043
  349DPPC   C2312047   8.094   8.021   3.148
  349DPPC   C2412048   8.151   7.989   3.286
  349DPPC   C2512049   8.112   7.848   3.330
  349DPPC   C2612050   8.180   7.809   3.461
  349DPPC   C2712051   8.126   7.891   3.579
  349DPPC   C2812052   8.189   7.843   3.710
  349DPPC   C2912053   8.130   7.919   3.829
  349DPPC   C3012054   8.189   7.868   3.961
  349DPPC   C3112055   8.130   7.943   4.080
  349DPPC   C3212056   7.786   7.859   2.378
  349DPPC  OS3312057   7.791   7.945   2.493
  349DPPC   C3412058   7.678   7.952   2.568
  349DPPC   O3512059   7.571   7.899   2.537
  349DPPC   C3612060   7.701   8.038   2.691
  349DPPC   C3712061   7.619   7.985   2.809
  349DPPC   C3812062   7.659   8.054   2.939
  349DPPC   C3912063   7.583   7.993   3.057
  349DPPC   C4012064   7.628   8.056   3.189
  349DPPC   C4112065   7.554   7.995   3.308
  349DPPC   C4212066   7.599   8.060   3.439
  349DPPC   C4312067   7.743   8.022   3.471
  349DPPC   C4412068   7.793   8.096   3.596
  349DPPC   C4512069   7.713   8.057   3.720
  349DPPC   C4612070   7.775   8.117   3.846
  349DPPC   C4712071   7.690   8.087   3.969
  349DPPC   C4812072   7.758   8.138   4.096
  349DPPC   C4912073   7.666   8.122   4.217
  349DPPC   C5012074   7.636   7.974   4.243
  350DPPC    C112075   8.216   7.110   2.127
  350DPPC    C212076   7.993   7.149   2.205
  350DPPC    C312077   8.032   7.030   2.003
  350DPPC    N412078   8.078   7.143   2.085
  350DPPC    C512079   8.073   7.268   2.006
  350DPPC    C612080   8.098   7.404   2.076
  350DPPC   OS712081   8.228   7.417   2.132
  350DPPC    P812082   8.236   7.544   2.225
  350DPPC   OM912083   8.151   7.507   2.338
  350DPPC  OM1012084   8.214   7.658   2.135
  350DPPC  OS1112085   8.389   7.525   2.260
  350DPPC   C1212086   8.405   7.415   2.350
  350DPPC   C1312087   8.550   7.374   2.384
  350DPPC  OS1412088   8.557   7.248   2.458
  350DPPC   C1512089   8.554   7.130   2.390
  350DPPC   O1612090   8.562   7.122   2.266
  350DPPC   C1712091   8.551   7.012   2.485
  350DPPC   C1812092   8.473   7.045   2.612
  350DPPC   C1912093   8.469   6.926   2.708
  350DPPC   C2012094   8.406   6.967   2.841
  350DPPC   C2112095   8.494   7.071   2.911
  350DPPC   C2212096   8.441   7.111   3.049
  350DPPC   C2312097   8.450   6.994   3.147
  350DPPC   C2412098   8.431   7.043   3.291
  350DPPC   C2512099   8.447   6.926   3.389
  350DPPC   C2612100   8.467   6.976   3.533
  350DPPC   C2712101   8.339   7.031   3.596
  350DPPC   C2812102   8.240   6.918   3.624
  350DPPC   C2912103   8.125   6.966   3.714
  350DPPC   C3012104   8.178   6.998   3.854
  350DPPC   C3112105   8.065   7.045   3.946
  350DPPC   C3212106   8.613   7.494   2.456
  350DPPC  OS3312107   8.542   7.539   2.573
  350DPPC   C3412108   8.604   7.627   2.655
  350DPPC   O3512109   8.707   7.689   2.626
  350DPPC   C3612110   8.518   7.653   2.778
  350DPPC   C3712111   8.602   7.652   2.906
  350DPPC   C3812112   8.516   7.663   3.032
  350DPPC   C3912113   8.606   7.654   3.156
  350DPPC   C4012114   8.526   7.661   3.287
  350DPPC   C4112115   8.621   7.651   3.406
  350DPPC   C4212116   8.548   7.665   3.540
  350DPPC   C4312117   8.648   7.664   3.656
  350DPPC   C4412118   8.578   7.686   3.790
  350DPPC   C4512119   8.499   7.562   3.834
  350DPPC   C4612120   8.593   7.449   3.879
  350DPPC   C4712121   8.514   7.326   3.924
  350DPPC   C4812122   8.607   7.216   3.974
  350DPPC   C4912123   8.677   7.260   4.103
  350DPPC   C5012124   8.770   7.150   4.156
  351DPPC    C112125   8.139   6.667   1.549
  351DPPC    C212126   8.129   6.441   1.621
  351DPPC    C312127   8.320   6.523   1.500
  351DPPC    N412128   8.219   6.555   1.601
  351DPPC    C512129   8.279   6.601   1.729
  351DPPC    C612130   8.389   6.520   1.802
  351DPPC   OS712131   8.354   6.394   1.858
  351DPPC    P812132   8.471   6.341   1.951
  351DPPC   OM912133   8.599   6.367   1.883
  351DPPC  OM1012134   8.433   6.207   1.995
  351DPPC  OS1112135   8.452   6.440   2.070
  351DPPC   C1212136   8.568   6.442   2.154
  351DPPC   C1312137   8.599   6.581   2.212
  351DPPC  OS1412138   8.730   6.590   2.274
  351DPPC   C1512139   8.800   6.704   2.249
  351DPPC   O1612140   8.770   6.781   2.158
  351DPPC   C1712141   8.932   6.708   2.325
  351DPPC   C1812142   8.921   6.783   2.457
  351DPPC   C1912143   8.861   6.697   2.569
  351DPPC   C2012144   8.864   6.773   2.701
  351DPPC   C2112145   8.823   6.685   2.820
  351DPPC   C2212146   8.833   6.765   2.950
  351DPPC   C2312147   8.807   6.677   3.072
  351DPPC   C2412148   8.819   6.759   3.201
  351DPPC   C2512149   8.801   6.670   3.324
  351DPPC   C2612150   8.811   6.753   3.452
  351DPPC   C2712151   8.789   6.665   3.576
  351DPPC   C2812152   8.790   6.750   3.703
  351DPPC   C2912153   8.765   6.664   3.827
  351DPPC   C3012154   8.758   6.749   3.953
  351DPPC   C3112155   8.894   6.813   3.984
  351DPPC   C3212156   8.478   6.624   2.298
  351DPPC  OS3312157   8.433   6.527   2.395
  351DPPC   C3412158   8.325   6.562   2.471
  351DPPC   O3512159   8.275   6.674   2.475
  351DPPC   C3612160   8.284   6.444   2.558
  351DPPC   C3712161   8.405   6.363   2.604
  351DPPC   C3812162   8.477   6.428   2.722
  351DPPC   C3912163   8.389   6.420   2.847
  351DPPC   C4012164   8.462   6.473   2.971
  351DPPC   C4112165   8.371   6.458   3.093
  351DPPC   C4212166   8.440   6.499   3.223
  351DPPC   C4312167   8.344   6.481   3.340
  351DPPC   C4412168   8.410   6.513   3.474
  351DPPC   C4512169   8.307   6.504   3.588
  351DPPC   C4612170   8.371   6.541   3.722
  351DPPC   C4712171   8.265   6.550   3.832
  351DPPC   C4812172   8.327   6.592   3.965
  351DPPC   C4912173   8.220   6.613   4.072
  351DPPC   C5012174   8.149   6.481   4.105
  352DPPC    C112175   9.181   7.041   2.075
  352DPPC    C212176   8.998   7.175   1.992
  352DPPC    C312177   8.992   6.939   1.974
  352DPPC    N412178   9.081   7.056   1.968
  352DPPC    C512179   9.144   7.060   1.834
  352DPPC    C612180   9.258   7.161   1.804
  352DPPC   OS712181   9.222   7.299   1.808
  352DPPC    P812182   9.350   7.391   1.826
  352DPPC   OM912183   9.465   7.325   1.762
  352DPPC  OM1012184   9.305   7.525   1.788
  352DPPC  OS1112185   9.359   7.376   1.982
  352DPPC   C1212186   9.288   7.477   2.052
  352DPPC   C1312187   9.320   7.487   2.203
  352DPPC  OS1412188   9.444   7.559   2.229
  352DPPC   C1512189   9.436   7.655   2.324
  352DPPC   O1612190   9.329   7.713   2.346
  352DPPC   C1712191   9.573   7.712   2.355
  352DPPC   C1812192   9.572   7.794   2.483
  352DPPC   C1912193   9.573   7.706   2.608
  352DPPC   C2012194   9.584   7.794   2.733
  352DPPC   C2112195   9.599   7.713   2.862
  352DPPC   C2212196   9.611   7.808   2.981
  352DPPC   C2312197   9.619   7.735   3.115
  352DPPC   C2412198   9.620   7.839   3.228
  352DPPC   C2512199   9.614   7.774   3.366
  352DPPC   C2612200   9.602   7.885   3.471
  352DPPC   C2712201   9.578   7.829   3.612
  352DPPC   C2812202   9.551   7.944   3.709
  352DPPC   C2912203   9.507   7.893   3.846
  352DPPC   C3012204   9.467   8.009   3.937
  352DPPC   C3112205   9.413   7.957   4.070
  352DPPC   C3212206   9.319   7.343   2.257
  352DPPC  OS3312207   9.265   7.324   2.390
  352DPPC   C3412208   9.131   7.305   2.399
  352DPPC   O3512209   9.055   7.305   2.302
  352DPPC   C3612210   9.090   7.274   2.542
  352DPPC   C3712211   8.939   7.248   2.551
  352DPPC   C3812212   8.908   7.153   2.667
  352DPPC   C3912213   8.937   7.216   2.804
  352DPPC   C4012214   8.825   7.311   2.847
  352DPPC   C4112215   8.856   7.370   2.984
  352DPPC   C4212216   8.860   7.262   3.092
  352DPPC   C4312217   8.883   7.325   3.230
  352DPPC   C4412218   8.902   7.221   3.339
  352DPPC   C4512219   8.923   7.290   3.474
  352DPPC   C4612220   8.962   7.191   3.584
  352DPPC   C4712221   8.985   7.265   3.716
  352DPPC   C4812222   9.038   7.171   3.824
  352DPPC   C4912223   9.179   7.123   3.790
  352DPPC   C5012224   9.236   7.036   3.901
  353DPPC    C112225   5.461   2.552   2.153
  353DPPC    C212226   5.652   2.430   2.090
  353DPPC    C312227   5.634   2.658   2.028
  353DPPC    N412228   5.558   2.533   2.045
  353DPPC    C512229   5.491   2.490   1.920
  353DPPC    C612230   5.375   2.575   1.862
  353DPPC   OS712231   5.413   2.706   1.821
  353DPPC    P812232   5.307   2.815   1.863
  353DPPC   OM912233   5.359   2.942   1.809
  353DPPC  OM1012234   5.172   2.764   1.838
  353DPPC  OS1112235   5.337   2.812   2.016
  353DPPC   C1212236   5.276   2.921   2.085
  353DPPC   C1312237   5.149   2.883   2.164
  353DPPC  OS1412238   5.085   3.000   2.221
  353DPPC   C1512239   4.950   2.996   2.241
  353DPPC   O1612240   4.884   2.892   2.231
  353DPPC   C1712241   4.900   3.130   2.291
  353DPPC   C1812242   4.975   3.175   2.417
  353DPPC   C1912243   4.922   3.104   2.542
  353DPPC   C2012244   5.004   3.143   2.665
  353DPPC   C2112245   4.937   3.095   2.794
  353DPPC   C2212246   5.026   3.125   2.915
  353DPPC   C2312247   4.952   3.100   3.046
  353DPPC   C2412248   5.044   3.126   3.166
  353DPPC   C2512249   4.967   3.117   3.298
  353DPPC   C2612250   5.060   3.138   3.417
  353DPPC   C2712251   4.980   3.141   3.548
  353DPPC   C2812252   5.072   3.158   3.669
  353DPPC   C2912253   4.989   3.168   3.798
  353DPPC   C3012254   5.079   3.180   3.921
  353DPPC   C3112255   5.154   3.049   3.947
  353DPPC   C3212256   5.191   2.774   2.265
  353DPPC  OS3312257   5.295   2.811   2.358
  353DPPC   C3412258   5.298   2.736   2.472
  353DPPC   O3512259   5.272   2.615   2.474
  353DPPC   C3612260   5.378   2.808   2.579
  353DPPC   C3712261   5.377   2.729   2.709
  353DPPC   C3812262   5.412   2.820   2.827
  353DPPC   C3912263   5.408   2.742   2.959
  353DPPC   C4012264   5.424   2.837   3.078
  353DPPC   C4112265   5.423   2.758   3.209
  353DPPC   C4212266   5.431   2.853   3.329
  353DPPC   C4312267   5.438   2.774   3.460
  353DPPC   C4412268   5.451   2.868   3.579
  353DPPC   C4512269   5.472   2.789   3.708
  353DPPC   C4612270   5.492   2.884   3.827
  353DPPC   C4712271   5.521   2.805   3.955
  353DPPC   C4812272   5.539   2.898   4.074
  353DPPC   C4912273   5.576   2.819   4.200
  353DPPC   C5012274   5.461   2.728   4.243
  354DPPC    C112275   6.033   8.815   1.396
  354DPPC    C212276   6.183   8.773   1.575
  354DPPC    C312277   5.995   8.628   1.536
  354DPPC    N412278   6.041   8.768   1.534
  354DPPC    C512279   5.956   8.855   1.620
  354DPPC    C612280   5.945   8.820   1.770
  354DPPC   OS712281   5.868   8.909   1.851
  354DPPC    P812282   5.864   8.851   1.997
  354DPPC   OM912283   6.003   8.824   2.038
  354DPPC  OM1012284   5.765   8.743   1.991
  354DPPC  OS1112285   5.804   8.980   2.062
  354DPPC   C1212286   5.894   9.040   2.155
  354DPPC   C1312287   5.838   9.164   2.226
  354DPPC  OS1412288   5.935   9.227   2.316
  354DPPC   C1512289   5.919   9.360   2.343
  354DPPC   O1612290   5.829   9.429   2.294
  354DPPC   C1712291   6.022   9.410   2.443
  354DPPC   C1812292   6.012   9.336   2.576
  354DPPC   C1912293   5.876   9.364   2.642
  354DPPC   C2012294   5.864   9.292   2.777
  354DPPC   C2112295   5.937   9.367   2.888
  354DPPC   C2212296   5.910   9.299   3.022
  354DPPC   C2312297   5.948   9.389   3.140
  354DPPC   C2412298   5.900   9.328   3.271
  354DPPC   C2512299   5.920   9.423   3.389
  354DPPC   C2612300   5.866   9.362   3.518
  354DPPC   C2712301   5.884   9.458   3.636
  354DPPC   C2812302   5.832   9.395   3.765
  354DPPC   C2912303   5.846   9.492   3.883
  354DPPC   C3012304   5.755   9.613   3.864
  354DPPC   C3112305   5.763   9.707   3.985
  354DPPC   C3212306   5.704   9.120   2.289
  354DPPC  OS3312307   5.709   9.015   2.388
  354DPPC   C3412308   5.606   8.925   2.385
  354DPPC   O3512309   5.526   8.915   2.291
  354DPPC   C3612310   5.610   8.833   2.505
  354DPPC   C3712311   5.581   8.914   2.632
  354DPPC   C3812312   5.576   8.830   2.759
  354DPPC   C3912313   5.542   8.920   2.878
  354DPPC   C4012314   5.539   8.843   3.010
  354DPPC   C4112315   5.509   8.938   3.126
  354DPPC   C4212316   5.511   8.863   3.260
  354DPPC   C4312317   5.482   8.956   3.377
  354DPPC   C4412318   5.486   8.878   3.509
  354DPPC   C4512319   5.448   8.964   3.629
  354DPPC   C4612320   5.452   8.880   3.757
  354DPPC   C4712321   5.410   8.962   3.879
  354DPPC   C4812322   5.418   8.879   4.007
  354DPPC   C4912323   5.315   8.766   4.007
  354DPPC   C5012324   5.324   8.683   4.135
  355DPPC    C112325   6.444   4.057   2.415
  355DPPC    C212326   6.532   3.915   2.251
  355DPPC    C312327   6.553   3.855   2.483
  355DPPC    N412328   6.465   3.916   2.382
  355DPPC    C512329   6.334   3.847   2.374
  355DPPC    C612330   6.333   3.697   2.332
  355DPPC   OS712331   6.205   3.647   2.294
  355DPPC    P812332   6.216   3.508   2.223
  355DPPC   OM912333   6.104   3.499   2.128
  355DPPC  OM1012334   6.353   3.473   2.185
  355DPPC  OS1112335   6.183   3.420   2.349
  355DPPC   C1212336   6.068   3.338   2.334
  355DPPC   C1312337   6.056   3.236   2.447
  355DPPC  OS1412338   5.987   3.113   2.407
  355DPPC   C1512339   6.071   3.012   2.371
  355DPPC   O1612340   6.182   3.033   2.322
  355DPPC   C1712341   5.996   2.880   2.364
  355DPPC   C1812342   6.043   2.787   2.476
  355DPPC   C1912343   6.000   2.841   2.613
  355DPPC   C2012344   5.850   2.820   2.636
  355DPPC   C2112345   5.804   2.894   2.762
  355DPPC   C2212346   5.878   2.844   2.886
  355DPPC   C2312347   5.825   2.910   3.013
  355DPPC   C2412348   5.909   2.867   3.134
  355DPPC   C2512349   5.851   2.917   3.266
  355DPPC   C2612350   5.936   2.865   3.382
  355DPPC   C2712351   5.880   2.906   3.518
  355DPPC   C2812352   5.967   2.851   3.631
  355DPPC   C2912353   5.914   2.894   3.768
  355DPPC   C3012354   6.002   2.837   3.879
  355DPPC   C3112355   5.952   2.881   4.017
  355DPPC   C3212356   6.005   3.314   2.569
  355DPPC  OS3312357   6.010   3.245   2.695
  355DPPC   C3412358   6.037   3.323   2.804
  355DPPC   O3512359   6.077   3.439   2.798
  355DPPC   C3612360   6.031   3.242   2.933
  355DPPC   C3712361   6.056   3.334   3.052
  355DPPC   C3812362   6.045   3.263   3.186
  355DPPC   C3912363   6.060   3.366   3.299
  355DPPC   C4012364   6.038   3.307   3.438
  355DPPC   C4112365   6.033   3.423   3.539
  355DPPC   C4212366   5.996   3.378   3.680
  355DPPC   C4312367   6.113   3.312   3.754
  355DPPC   C4412368   6.073   3.288   3.899
  355DPPC   C4512369   6.191   3.242   3.985
  355DPPC   C4612370   6.147   3.231   4.131
  355DPPC   C4712371   6.262   3.191   4.223
  355DPPC   C4812372   6.214   3.184   4.368
  355DPPC   C4912373   6.327   3.146   4.464
  355DPPC   C5012374   6.277   3.146   4.609
  356DPPC    C112375   6.890  10.239   2.128
  356DPPC    C212376   7.041  10.408   2.055
  356DPPC    C312377   7.022  10.361   2.286
  356DPPC    N412378   6.946  10.371   2.161
  356DPPC    C512379   6.842  10.476   2.170
  356DPPC    C612380   6.729  10.463   2.275
  356DPPC   OS712381   6.630  10.363   2.249
  356DPPC    P812382   6.603  10.271   2.375
  356DPPC   OM912383   6.733  10.245   2.437
  356DPPC  OM1012384   6.516  10.164   2.326
  356DPPC  OS1112385   6.521  10.370   2.467
  356DPPC   C1212386   6.384  10.378   2.426
  356DPPC   C1312387   6.294  10.473   2.508
  356DPPC  OS1412388   6.329   0.111   2.503
  356DPPC   C1512389   6.228   0.194   2.466
  356DPPC   O1612390   6.150   0.163   2.375
  356DPPC   C1712391   6.260   0.336   2.509
  356DPPC   C1812392   6.288   0.339   2.660
  356DPPC   C1912393   6.360   0.468   2.700
  356DPPC   C2012394   6.402   0.466   2.847
  356DPPC   C2112395   6.285   0.494   2.943
  356DPPC   C2212396   6.338   0.505   3.086
  356DPPC   C2312397   6.237   0.574   3.179
  356DPPC   C2412398   6.298   0.597   3.317
  356DPPC   C2512399   6.300   0.468   3.400
  356DPPC   C2612400   6.166   0.449   3.471
  356DPPC   C2712401   6.160   0.530   3.601
  356DPPC   C2812402   6.251   0.466   3.706
  356DPPC   C2912403   6.248   0.543   3.838
  356DPPC   C3012404   6.317   0.679   3.824
  356DPPC   C3112405   6.321   0.753   3.958
  356DPPC   C3212406   6.289  10.417   2.651
  356DPPC  OS3312407   6.178  10.328   2.674
  356DPPC   C3412408   6.128  10.329   2.801
  356DPPC   O3512409   6.186  10.379   2.897
  356DPPC   C3612410   6.000  10.249   2.810
  356DPPC   C3712411   5.909  10.306   2.918
  356DPPC   C3812412   5.776  10.231   2.925
  356DPPC   C3912413   5.682  10.294   3.028
  356DPPC   C4012414   5.731  10.272   3.171
  356DPPC   C4112415   5.629  10.327   3.272
  356DPPC   C4212416   5.667  10.293   3.416
  356DPPC   C4312417   5.555  10.335   3.512
  356DPPC   C4412418   5.588  10.299   3.657
  356DPPC   C4512419   5.475  10.343   3.750
  356DPPC   C4612420   5.510  10.318   3.897
  356DPPC   C4712421   5.395  10.362   3.987
  356DPPC   C4812422   5.431  10.351   4.135
  356DPPC   C4912423   5.315  10.401   4.222
  356DPPC   C5012424   5.351  10.398   4.371
  357DPPC    C112425   4.655  10.241   1.927
  357DPPC    C212426   4.766  10.112   2.093
  357DPPC    C312427   4.531  10.154   2.109
  357DPPC    N412428   4.641  10.125   2.016
  357DPPC    C512429   4.612  10.006   1.932
  357DPPC    C612430   4.595   9.866   1.997
  357DPPC   OS712431   4.715   9.811   2.049
  357DPPC    P812432   4.690   9.675   2.123
  357DPPC   OM912433   4.600   9.709   2.235
  357DPPC  OM1012434   4.650   9.581   2.018
  357DPPC  OS1112435   4.839   9.659   2.168
  357DPPC   C1212436   4.863   9.708   2.299
  357DPPC   C1312437   5.010   9.698   2.342
  357DPPC  OS1412438   5.023   9.696   2.487
  357DPPC   C1512439   5.142   9.663   2.545
  357DPPC   O1612440   5.248   9.649   2.484
  357DPPC   C1712441   5.123   9.648   2.695
  357DPPC   C1812442   5.022   9.749   2.750
  357DPPC   C1912443   4.956   9.696   2.877
  357DPPC   C2012444   5.055   9.682   2.993
  357DPPC   C2112445   4.992   9.597   3.104
  357DPPC   C2212446   5.088   9.576   3.221
  357DPPC   C2312447   5.077   9.689   3.323
  357DPPC   C2412448   4.943   9.681   3.395
  357DPPC   C2512449   4.934   9.781   3.511
  357DPPC   C2612450   4.798   9.772   3.580
  357DPPC   C2712451   4.791   9.865   3.701
  357DPPC   C2812452   4.875   9.811   3.817
  357DPPC   C2912453   4.814   9.684   3.875
  357DPPC   C3012454   4.902   9.628   3.988
  357DPPC   C3112455   4.841   9.500   4.046
  357DPPC   C3212456   5.085   9.807   2.264
  357DPPC  OS3312457   5.047   9.943   2.294
  357DPPC   C3412458   5.151  10.030   2.310
  357DPPC   O3512459   5.270  10.001   2.291
  357DPPC   C3612460   5.101  10.168   2.349
  357DPPC   C3712461   5.013  10.164   2.474
  357DPPC   C3812462   5.097  10.136   2.599
  357DPPC   C3912463   5.013  10.146   2.726
  357DPPC   C4012464   5.100  10.124   2.850
  357DPPC   C4112465   5.017  10.138   2.978
  357DPPC   C4212466   5.106  10.123   3.101
  357DPPC   C4312467   5.026  10.148   3.229
  357DPPC   C4412468   5.118  10.143   3.351
  357DPPC   C4512469   5.042  10.172   3.481
  357DPPC   C4612470   5.138  10.163   3.600
  357DPPC   C4712471   5.066  10.181   3.733
  357DPPC   C4812472   5.018  10.325   3.753
  357DPPC   C4912473   4.955  10.341   3.892
  357DPPC   C5012474   4.910  10.485   3.915
  358DPPC    C112475   5.617   0.773   1.463
  358DPPC    C212476   5.472   0.723   1.644
  358DPPC    C312477   5.449   0.929   1.525
  358DPPC    N412478   5.545   0.831   1.577
  358DPPC    C512479   5.646   0.894   1.667
  358DPPC    C612480   5.601   0.959   1.800
  358DPPC   OS712481   5.709   1.006   1.880
  358DPPC    P812482   5.655   1.057   2.019
  358DPPC   OM912483   5.584   0.945   2.080
  358DPPC  OM1012484   5.582   1.180   1.985
  358DPPC  OS1112485   5.799   1.080   2.076
  358DPPC   C1212486   5.836   0.980   2.172
  358DPPC   C1312487   5.987   0.964   2.199
  358DPPC  OS1412488   6.014   0.852   2.290
  358DPPC   C1512489   6.142   0.821   2.328
  358DPPC   O1612490   6.243   0.846   2.261
  358DPPC   C1712491   6.141   0.727   2.447
  358DPPC   C1812492   6.125   0.805   2.579
  358DPPC   C1912493   6.245   0.896   2.604
  358DPPC   C2012494   6.235   0.969   2.738
  358DPPC   C2112495   6.268   0.876   2.854
  358DPPC   C2212496   6.257   0.950   2.988
  358DPPC   C2312497   6.111   0.984   3.016
  358DPPC   C2412498   6.095   1.072   3.141
  358DPPC   C2512499   6.124   0.997   3.271
  358DPPC   C2612500   6.096   1.089   3.389
  358DPPC   C2712501   6.113   1.019   3.524
  358DPPC   C2812502   6.079   1.116   3.637
  358DPPC   C2912503   6.097   1.051   3.775
  358DPPC   C3012504   6.062   1.151   3.885
  358DPPC   C3112505   6.083   1.090   4.024
  358DPPC   C3212506   6.038   1.103   2.242
  358DPPC  OS3312507   5.990   1.153   2.369
  358DPPC   C3412508   6.053   1.265   2.413
  358DPPC   O3512509   6.129   1.333   2.344
  358DPPC   C3612510   6.007   1.304   2.553
  358DPPC   C3712511   6.043   1.450   2.579
  358DPPC   C3812512   6.027   1.489   2.726
  358DPPC   C3912513   5.881   1.483   2.770
  358DPPC   C4012514   5.862   1.548   2.908
  358DPPC   C4112515   5.931   1.471   3.020
  358DPPC   C4212516   5.910   1.543   3.154
  358DPPC   C4312517   5.968   1.462   3.270
  358DPPC   C4412518   5.950   1.536   3.402
  358DPPC   C4512519   5.801   1.553   3.434
  358DPPC   C4612520   5.780   1.622   3.569
  358DPPC   C4712521   5.822   1.531   3.684
  358DPPC   C4812522   5.797   1.599   3.818
  358DPPC   C4912523   5.838   1.508   3.934
  358DPPC   C5012524   5.813   1.577   4.069
  359DPPC    C112525   7.626   0.177   2.154
  359DPPC    C212526   7.609   0.408   2.215
  359DPPC    C312527   7.579   0.341   1.990
  359DPPC    N412528   7.553   0.302   2.129
  359DPPC    C512529   7.407   0.285   2.146
  359DPPC    C612530   7.347   0.242   2.283
  359DPPC   OS712531   7.204   0.238   2.282
  359DPPC    P812532   7.145   0.191   2.420
  359DPPC   OM912533   6.999   0.190   2.402
  359DPPC  OM1012534   7.217   0.072   2.467
  359DPPC  OS1112535   7.182   0.313   2.509
  359DPPC   C1212536   7.123   0.305   2.638
  359DPPC   C1312537   7.163   0.422   2.729
  359DPPC  OS1412538   7.119   0.409   2.867
  359DPPC   C1512539   7.194   0.473   2.961
  359DPPC   O1612540   7.297   0.535   2.933
  359DPPC   C1712541   7.139   0.456   3.102
  359DPPC   C1812542   7.248   0.477   3.207
  359DPPC   C1912543   7.189   0.463   3.348
  359DPPC   C2012544   7.297   0.469   3.456
  359DPPC   C2112545   7.235   0.447   3.595
  359DPPC   C2212546   7.343   0.447   3.703
  359DPPC   C2312547   7.284   0.425   3.843
  359DPPC   C2412548   7.395   0.429   3.948
  359DPPC   C2512549   7.340   0.418   4.091
  359DPPC   C2612550   7.453   0.434   4.193
  359DPPC   C2712551   7.399   0.435   4.336
  359DPPC   C2812552   7.512   0.459   4.437
  359DPPC   C2912553   7.459   0.471   4.580
  359DPPC   C3012554   7.408   0.336   4.632
  359DPPC   C3112555   7.358   0.347   4.776
  359DPPC   C3212556   7.117   0.550   2.654
  359DPPC  OS3312557   6.974   0.563   2.637
  359DPPC   C3412558   6.925   0.683   2.678
  359DPPC   O3512559   6.994   0.784   2.694
  359DPPC   C3612560   6.773   0.678   2.681
  359DPPC   C3712561   6.721   0.730   2.815
  359DPPC   C3812562   6.762   0.638   2.930
  359DPPC   C3912563   6.706   0.690   3.062
  359DPPC   C4012564   6.752   0.606   3.181
  359DPPC   C4112565   6.689   0.660   3.309
  359DPPC   C4212566   6.734   0.585   3.434
  359DPPC   C4312567   6.659   0.637   3.557
  359DPPC   C4412568   6.705   0.569   3.686
  359DPPC   C4512569   6.850   0.607   3.718
  359DPPC   C4612570   6.889   0.560   3.858
  359DPPC   C4712571   6.809   0.637   3.964
  359DPPC   C4812572   6.852   0.598   4.106
  359DPPC   C4912573   6.994   0.647   4.134
  359DPPC   C5012574   7.036   0.612   4.277
  360DPPC    C112575   7.718   9.908   1.920
  360DPPC    C212576   7.503   9.880   2.017
  360DPPC    C312577   7.532  10.022   1.826
  360DPPC    N412578   7.592   9.977   1.952
  360DPPC    C512579   7.623  10.090   2.043
  360DPPC    C612580   7.507  10.175   2.099
  360DPPC   OS712581   7.548  10.294   2.166
  360DPPC    P812582   7.426  10.363   2.238
  360DPPC   OM912583   7.348  10.256   2.301
  360DPPC  OM1012584   7.367  10.446   2.132
  360DPPC  OS1112585   7.507  10.449   2.340
  360DPPC   C1212586   7.557  10.369   2.447
  360DPPC   C1312587   7.653  10.448   2.537
  360DPPC  OS1412588   7.747  10.366   2.610
  360DPPC   C1512589   7.864  10.426   2.645
  360DPPC   O1612590   7.907   0.022   2.584
  360DPPC   C1712591   7.951  10.330   2.724
  360DPPC   C1812592   8.027  10.400   2.837
  360DPPC   C1912593   7.935  10.432   2.956
  360DPPC   C2012594   8.020  10.475   3.075
  360DPPC   C2112595   7.939  10.486   3.204
  360DPPC   C2212596   8.034  10.497   3.323
  360DPPC   C2312597   7.961   0.001   3.457
  360DPPC   C2412598   8.063  10.500   3.570
  360DPPC   C2512599   8.000   0.021   3.707
  360DPPC   C2612600   8.107   0.006   3.816
  360DPPC   C2712601   8.059   0.058   3.952
  360DPPC   C2812602   7.947  10.476   4.012
  360DPPC   C2912603   7.912   0.025   4.151
  360DPPC   C3012604   7.858   0.168   4.144
  360DPPC   C3112605   7.823   0.222   4.283
  360DPPC   C3212606   7.566   0.043   2.618
  360DPPC  OS3312607   7.465  10.486   2.702
  360DPPC   C3412608   7.405   0.066   2.791
  360DPPC   O3512609   7.434   0.185   2.804
  360DPPC   C3612610   7.295  10.497   2.867
  360DPPC   C3712611   7.273   0.056   3.005
  360DPPC   C3812612   7.377   0.008   3.106
  360DPPC   C3912613   7.347   0.062   3.246
  360DPPC   C4012614   7.435  10.496   3.350
  360DPPC   C4112615   7.408   0.045   3.491
  360DPPC   C4212616   7.492  10.470   3.593
  360DPPC   C4312617   7.474   0.021   3.735
  360DPPC   C4412618   7.552  10.436   3.833
  360DPPC   C4512619   7.545  10.489   3.976
  360DPPC   C4612620   7.402  10.491   4.030
  360DPPC   C4712621   7.402   0.014   4.181
  360DPPC   C4812622   7.456  10.395   4.256
  360DPPC   C4912623   7.451  10.415   4.407
  360DPPC   C5012624   7.553   0.017   4.452
  361DPPC    C112625   6.266  10.057   2.193
  361DPPC    C212626   6.233   9.863   2.057
  361DPPC    C312627   6.211  10.081   1.965
  361DPPC    N412628   6.287  10.000   2.060
  361DPPC    C512629   6.430  10.004   2.022
  361DPPC    C612630   6.533   9.922   2.102
  361DPPC   OS712631   6.669   9.939   2.061
  361DPPC    P812632   6.769   9.843   2.132
  361DPPC   OM912633   6.722   9.706   2.103
  361DPPC  OM1012634   6.903   9.887   2.088
  361DPPC  OS1112635   6.747   9.877   2.284
  361DPPC   C1212636   6.736   9.764   2.369
  361DPPC   C1312637   6.724   9.799   2.518
  361DPPC  OS1412638   6.732   9.680   2.602
  361DPPC   C1512639   6.835   9.683   2.691
  361DPPC   O1612640   6.930   9.761   2.679
  361DPPC   C1712641   6.838   9.560   2.780
  361DPPC   C1812642   6.876   9.599   2.922
  361DPPC   C1912643   6.758   9.663   2.994
  361DPPC   C2012644   6.792   9.700   3.138
  361DPPC   C2112645   6.665   9.746   3.210
  361DPPC   C2212646   6.692   9.801   3.349
  361DPPC   C2312647   6.739   9.695   3.448
  361DPPC   C2412648   6.745   9.758   3.588
  361DPPC   C2512649   6.791   9.659   3.694
  361DPPC   C2612650   6.781   9.723   3.833
  361DPPC   C2712651   6.828   9.628   3.943
  361DPPC   C2812652   6.811   9.693   4.080
  361DPPC   C2912653   6.855   9.599   4.192
  361DPPC   C3012654   6.837   9.665   4.328
  361DPPC   C3112655   6.883   9.572   4.441
  361DPPC   C3212656   6.599   9.887   2.533
  361DPPC  OS3312657   6.593   9.957   2.659
  361DPPC   C3412658   6.499  10.054   2.676
  361DPPC   O3512659   6.396  10.067   2.608
  361DPPC   C3612660   6.525  10.127   2.807
  361DPPC   C3712661   6.654  10.075   2.870
  361DPPC   C3812662   6.691  10.153   2.995
  361DPPC   C3912663   6.589  10.132   3.107
  361DPPC   C4012664   6.643  10.193   3.236
  361DPPC   C4112665   6.554  10.162   3.356
  361DPPC   C4212666   6.630  10.199   3.484
  361DPPC   C4312667   6.558  10.153   3.610
  361DPPC   C4412668   6.649  10.175   3.730
  361DPPC   C4512669   6.588  10.120   3.859
  361DPPC   C4612670   6.689  10.134   3.973
  361DPPC   C4712671   6.633  10.078   4.104
  361DPPC   C4812672   6.737  10.090   4.216
  361DPPC   C4912673   6.678  10.041   4.348
  361DPPC   C5012674   6.563  10.131   4.392
  362DPPC    C112675   9.722   4.666   2.271
  362DPPC    C212676   9.911   4.597   2.147
  362DPPC    C312677   9.809   4.802   2.091
  362DPPC    N412678   9.781   4.665   2.136
  362DPPC    C512679   9.695   4.591   2.040
  362DPPC    C612680   9.557   4.649   2.004
  362DPPC   OS712681   9.471   4.562   1.928
  362DPPC    P812682   9.333   4.630   1.892
  362DPPC   OM912683   9.271   4.530   1.805
  362DPPC  OM1012684   9.367   4.767   1.848
  362DPPC  OS1112685   9.272   4.633   2.036
  362DPPC   C1212686   9.193   4.519   2.067
  362DPPC   C1312687   9.179   4.501   2.219
  362DPPC  OS1412688   9.129   4.370   2.258
  362DPPC   C1512689   9.219   4.296   2.328
  362DPPC   O1612690   9.339   4.327   2.334
  362DPPC   C1712691   9.158   4.167   2.380
  362DPPC   C1812692   9.069   4.192   2.502
  362DPPC   C1912693   9.152   4.226   2.625
  362DPPC   C2012694   9.067   4.229   2.752
  362DPPC   C2112695   9.153   4.263   2.874
  362DPPC   C2212696   9.075   4.245   3.005
  362DPPC   C2312697   9.160   4.285   3.126
  362DPPC   C2412698   9.087   4.258   3.257
  362DPPC   C2512699   9.163   4.317   3.376
  362DPPC   C2612700   9.090   4.294   3.508
  362DPPC   C2712701   9.157   4.374   3.619
  362DPPC   C2812702   9.086   4.358   3.754
  362DPPC   C2912703   9.148   4.452   3.858
  362DPPC   C3012704   9.081   4.440   3.994
  362DPPC   C3112705   9.112   4.306   4.060
  362DPPC   C3212706   9.101   4.622   2.273
  362DPPC  OS3312707   9.095   4.630   2.416
  362DPPC   C3412708   8.973   4.626   2.475
  362DPPC   O3512709   8.869   4.586   2.422
  362DPPC   C3612710   8.992   4.648   2.625
  362DPPC   C3712711   8.884   4.739   2.683
  362DPPC   C3812712   8.928   4.799   2.817
  362DPPC   C3912713   8.936   4.695   2.929
  362DPPC   C4012714   8.990   4.761   3.056
  362DPPC   C4112715   8.987   4.664   3.175
  362DPPC   C4212716   9.056   4.725   3.297
  362DPPC   C4312717   8.988   4.854   3.341
  362DPPC   C4412718   9.059   4.916   3.462
  362DPPC   C4512719   9.035   4.834   3.589
  362DPPC   C4612720   9.110   4.895   3.707
  362DPPC   C4712721   9.058   5.036   3.740
  362DPPC   C4812722   9.133   5.096   3.858
  362DPPC   C4912723   9.086   5.239   3.886
  362DPPC   C5012724   8.940   5.242   3.934
  363DPPC    C112725   9.798   3.292   1.950
  363DPPC    C212726   9.716   3.511   1.992
  363DPPC    C312727   9.779   3.446   1.771
  363DPPC    N412728   9.716   3.400   1.896
  363DPPC    C512729   9.580   3.348   1.871
  363DPPC    C612730   9.465   3.440   1.820
  363DPPC   OS712731   9.413   3.528   1.919
  363DPPC    P812732   9.302   3.627   1.867
  363DPPC   OM912733   9.331   3.756   1.930
  363DPPC  OM1012734   9.295   3.619   1.720
  363DPPC  OS1112735   9.169   3.564   1.922
  363DPPC   C1212736   9.148   3.601   2.059
  363DPPC   C1312737   9.001   3.631   2.095
  363DPPC  OS1412738   8.987   3.711   2.216
  363DPPC   C1512739   8.880   3.795   2.222
  363DPPC   O1612740   8.815   3.822   2.120
  363DPPC   C1712741   8.872   3.873   2.352
  363DPPC   C1812742   8.819   3.792   2.470
  363DPPC   C1912743   8.928   3.708   2.537
  363DPPC   C2012744   9.024   3.795   2.619
  363DPPC   C2112745   8.961   3.837   2.753
  363DPPC   C2212746   8.946   3.716   2.845
  363DPPC   C2312747   8.893   3.757   2.983
  363DPPC   C2412748   8.996   3.839   3.061
  363DPPC   C2512749   8.946   3.869   3.202
  363DPPC   C2612750   8.941   3.741   3.286
  363DPPC   C2712751   8.884   3.767   3.426
  363DPPC   C2812752   8.977   3.857   3.508
  363DPPC   C2912753   8.922   3.876   3.649
  363DPPC   C3012754   8.789   3.953   3.647
  363DPPC   C3112755   8.734   3.971   3.788
  363DPPC   C3212756   8.924   3.497   2.089
  363DPPC  OS3312757   8.957   3.398   2.187
  363DPPC   C3412758   8.869   3.386   2.290
  363DPPC   O3512759   8.759   3.443   2.294
  363DPPC   C3612760   8.919   3.290   2.396
  363DPPC   C3712761   8.859   3.328   2.531
  363DPPC   C3812762   8.922   3.251   2.646
  363DPPC   C3912763   8.874   3.311   2.779
  363DPPC   C4012764   8.938   3.240   2.898
  363DPPC   C4112765   8.897   3.308   3.029
  363DPPC   C4212766   8.954   3.232   3.148
  363DPPC   C4312767   8.922   3.305   3.278
  363DPPC   C4412768   8.972   3.225   3.398
  363DPPC   C4512769   8.947   3.301   3.528
  363DPPC   C4612770   8.987   3.217   3.649
  363DPPC   C4712771   8.967   3.297   3.778
  363DPPC   C4812772   8.993   3.210   3.901
  363DPPC   C4912773   8.973   3.293   4.027
  363DPPC   C5012774   8.830   3.348   4.033
  364DPPC    C112775   9.357   4.209   1.846
  364DPPC    C212776   9.383   4.047   2.017
  364DPPC    C312777   9.562   4.198   1.964
  364DPPC    N412778   9.453   4.117   1.909
  364DPPC    C512779   9.501   4.023   1.805
  364DPPC    C612780   9.611   3.917   1.833
  364DPPC   OS712781   9.741   3.971   1.854
  364DPPC    P812782   9.859   3.868   1.843
  364DPPC   OM912783   9.978   3.940   1.795
  364DPPC  OM1012784   9.812   3.750   1.768
  364DPPC  OS1112785   9.879   3.831   1.994
  364DPPC   C1212786   9.924   3.945   2.068
  364DPPC   C1312787   9.960   3.925   2.216
  364DPPC  OS1412788  10.097   3.882   2.243
  364DPPC   C1512789  10.147   3.927   2.362
  364DPPC   O1612790  10.101   4.027   2.419
  364DPPC   C1712791   0.117   3.855   2.404
  364DPPC   C1812792   0.139   3.882   2.553
  364DPPC   C1912793   0.237   3.784   2.618
  364DPPC   C2012794   0.241   3.815   2.768
  364DPPC   C2112795   0.318   3.710   2.848
  364DPPC   C2212796   0.308   3.745   2.997
  364DPPC   C2312797   0.162   3.736   3.041
  364DPPC   C2412798   0.142   3.792   3.182
  364DPPC   C2512799   0.206   3.704   3.289
  364DPPC   C2612800   0.179   3.765   3.427
  364DPPC   C2712801   0.238   3.682   3.540
  364DPPC   C2812802   0.210   3.750   3.674
  364DPPC   C2912803   0.259   3.667   3.792
  364DPPC   C3012804   0.230   3.739   3.924
  364DPPC   C3112805   0.080   3.755   3.946
  364DPPC   C3212806   9.850   3.835   2.277
  364DPPC  OS3312807   9.719   3.893   2.281
  364DPPC   C3412808   9.632   3.835   2.368
  364DPPC   O3512809   9.654   3.729   2.427
  364DPPC   C3612810   9.500   3.910   2.368
  364DPPC   C3712811   9.417   3.878   2.493
  364DPPC   C3812812   9.479   3.940   2.618
  364DPPC   C3912813   9.394   3.911   2.742
  364DPPC   C4012814   9.467   3.959   2.867
  364DPPC   C4112815   9.385   3.934   2.994
  364DPPC   C4212816   9.472   3.961   3.116
  364DPPC   C4312817   9.395   3.953   3.248
  364DPPC   C4412818   9.494   3.966   3.364
  364DPPC   C4512819   9.423   3.983   3.498
  364DPPC   C4612820   9.526   3.986   3.611
  364DPPC   C4712821   9.464   4.033   3.742
  364DPPC   C4812822   9.355   3.936   3.789
  364DPPC   C4912823   9.294   3.985   3.921
  364DPPC   C5012824   9.180   3.893   3.964
  365DPPC    C112825   7.165   9.089   2.476
  365DPPC    C212826   7.034   9.213   2.322
  365DPPC    C312827   7.095   9.315   2.526
  365DPPC    N412828   7.142   9.223   2.421
  365DPPC    C512829   7.263   9.273   2.352
  365DPPC    C612830   7.388   9.301   2.439
  365DPPC   OS712831   7.509   9.330   2.369
  365DPPC    P812832   7.622   9.369   2.471
  365DPPC   OM912833   7.605   9.292   2.595
  365DPPC  OM1012834   7.748   9.375   2.395
  365DPPC  OS1112835   7.572   9.516   2.490
  365DPPC   C1212836   7.633   9.579   2.603
  365DPPC   C1312837   7.574   9.718   2.630
  365DPPC  OS1412838   7.661   9.802   2.710
  365DPPC   C1512839   7.652   9.937   2.696
  365DPPC   O1612840   7.589   9.990   2.603
  365DPPC   C1712841   7.751  10.007   2.787
  365DPPC   C1812842   7.682  10.079   2.903
  365DPPC   C1912843   7.638   9.979   3.011
  365DPPC   C2012844   7.699  10.015   3.146
  365DPPC   C2112845   7.643  10.148   3.198
  365DPPC   C2212846   7.707  10.186   3.331
  365DPPC   C2312847   7.667  10.088   3.442
  365DPPC   C2412848   7.733  10.124   3.574
  365DPPC   C2512849   7.693  10.025   3.684
  365DPPC   C2612850   7.764  10.056   3.816
  365DPPC   C2712851   7.723   9.955   3.922
  365DPPC   C2812852   7.797   9.978   4.054
  365DPPC   C2912853   7.755  10.109   4.121
  365DPPC   C3012854   7.825  10.124   4.256
  365DPPC   C3112855   7.976  10.135   4.237
  365DPPC   C3212856   7.430   9.695   2.681
  365DPPC  OS3312857   7.418   9.627   2.808
  365DPPC   C3412858   7.324   9.529   2.818
  365DPPC   O3512859   7.287   9.458   2.725
  365DPPC   C3612860   7.306   9.494   2.965
  365DPPC   C3712861   7.199   9.386   2.984
  365DPPC   C3812862   7.150   9.388   3.129
  365DPPC   C3912863   7.044   9.281   3.155
  365DPPC   C4012864   6.982   9.305   3.293
  365DPPC   C4112865   7.089   9.299   3.402
  365DPPC   C4212866   7.031   9.325   3.540
  365DPPC   C4312867   7.143   9.325   3.644
  365DPPC   C4412868   7.091   9.345   3.786
  365DPPC   C4512869   7.208   9.350   3.884
  365DPPC   C4612870   7.162   9.370   4.028
  365DPPC   C4712871   7.282   9.381   4.121
  365DPPC   C4812872   7.238   9.398   4.267
  365DPPC   C4912873   7.360   9.412   4.359
  365DPPC   C5012874   7.442   9.283   4.359
  366DPPC    C112875   9.065   0.746   1.957
  366DPPC    C212876   9.125   0.744   2.188
  366DPPC    C312877   8.959   0.595   2.112
  366DPPC    N412878   9.013   0.731   2.094
  366DPPC    C512879   8.914   0.836   2.128
  366DPPC    C612880   8.780   0.839   2.051
  366DPPC   OS712881   8.681   0.920   2.114
  366DPPC    P812882   8.541   0.848   2.120
  366DPPC   OM912883   8.517   0.785   1.989
  366DPPC  OM1012884   8.442   0.940   2.177
  366DPPC  OS1112885   8.580   0.730   2.215
  366DPPC   C1212886   8.493   0.715   2.327
  366DPPC   C1312887   8.520   0.585   2.404
  366DPPC  OS1412888   8.414   0.550   2.496
  366DPPC   C1512889   8.368   0.422   2.504
  366DPPC   O1612890   8.407   0.330   2.430
  366DPPC   C1712891   8.254   0.414   2.604
  366DPPC   C1812892   8.236   0.273   2.658
  366DPPC   C1912893   8.130   0.270   2.769
  366DPPC   C2012894   8.179   0.344   2.894
  366DPPC   C2112895   8.300   0.273   2.956
  366DPPC   C2212896   8.350   0.346   3.080
  366DPPC   C2312897   8.264   0.317   3.203
  366DPPC   C2412898   8.321   0.392   3.324
  366DPPC   C2512899   8.255   0.350   3.455
  366DPPC   C2612900   8.314   0.431   3.570
  366DPPC   C2712901   8.266   0.384   3.707
  366DPPC   C2812902   8.321   0.477   3.816
  366DPPC   C2912903   8.285   0.428   3.956
  366DPPC   C3012904   8.362   0.301   3.991
  366DPPC   C3112905   8.334   0.258   4.135
  366DPPC   C3212906   8.664   0.595   2.461
  366DPPC  OS3312907   8.694   0.715   2.535
  366DPPC   C3412908   8.822   0.760   2.532
  366DPPC   O3512909   8.910   0.716   2.457
  366DPPC   C3612910   8.834   0.887   2.614
  366DPPC   C3712911   8.925   0.870   2.736
  366DPPC   C3812912   8.859   0.782   2.843
  366DPPC   C3912913   8.922   0.808   2.980
  366DPPC   C4012914   9.070   0.767   2.984
  366DPPC   C4112915   9.130   0.805   3.119
  366DPPC   C4212916   9.071   0.721   3.232
  366DPPC   C4312917   9.119   0.770   3.368
  366DPPC   C4412918   9.056   0.905   3.403
  366DPPC   C4512919   9.113   0.960   3.534
  366DPPC   C4612920   9.068   0.880   3.656
  366DPPC   C4712921   9.134   0.936   3.781
  366DPPC   C4812922   9.087   0.865   3.908
  366DPPC   C4912923   8.941   0.898   3.938
  366DPPC   C5012924   8.899   0.841   4.074
  367DPPC    C112925   9.521  10.049   2.254
  367DPPC    C212926   9.532   9.917   2.450
  367DPPC    C312927   9.529   9.813   2.234
  367DPPC    N412928   9.476   9.923   2.315
  367DPPC    C512929   9.327   9.924   2.317
  367DPPC    C612930   9.252   9.800   2.373
  367DPPC   OS712931   9.110   9.811   2.372
  367DPPC    P812932   9.045   9.704   2.469
  367DPPC   OM912933   9.056   9.577   2.396
  367DPPC  OM1012934   9.111   9.725   2.598
  367DPPC  OS1112935   8.898   9.756   2.471
  367DPPC   C1212936   8.883   9.876   2.546
  367DPPC   C1312937   8.736   9.919   2.561
  367DPPC  OS1412938   8.718  10.054   2.611
  367DPPC   C1512939   8.604  10.119   2.573
  367DPPC   O1612940   8.520  10.071   2.496
  367DPPC   C1712941   8.598  10.259   2.631
  367DPPC   C1812942   8.456  10.297   2.674
  367DPPC   C1912943   8.455  10.440   2.728
  367DPPC   C2012944   8.526  10.452   2.863
  367DPPC   C2112945   8.440  10.398   2.976
  367DPPC   C2212946   8.502  10.429   3.113
  367DPPC   C2312947   8.402  10.400   3.224
  367DPPC   C2412948   8.453  10.448   3.360
  367DPPC   C2512949   8.560  10.354   3.417
  367DPPC   C2612950   8.614  10.408   3.549
  367DPPC   C2712951   8.504  10.416   3.656
  367DPPC   C2812952   8.560  10.473   3.787
  367DPPC   C2912953   8.654  10.373   3.854
  367DPPC   C3012954   8.724  10.435   3.976
  367DPPC   C3112955   8.623  10.473   4.085
  367DPPC   C3212956   8.666   9.806   2.640
  367DPPC  OS3312957   8.707   9.788   2.777
  367DPPC   C3412958   8.729   9.659   2.817
  367DPPC   O3512959   8.752   9.565   2.741
  367DPPC   C3612960   8.743   9.654   2.968
  367DPPC   C3712961   8.810   9.525   3.016
  367DPPC   C3812962   8.777   9.501   3.163
  367DPPC   C3912963   8.847   9.377   3.219
  367DPPC   C4012964   8.782   9.336   3.351
  367DPPC   C4112965   8.789   9.448   3.455
  367DPPC   C4212966   8.707   9.413   3.579
  367DPPC   C4312967   8.701   9.534   3.674
  367DPPC   C4412968   8.834   9.555   3.745
  367DPPC   C4512969   8.843   9.474   3.874
  367DPPC   C4612970   8.748   9.533   3.978
  367DPPC   C4712971   8.761   9.462   4.113
  367DPPC   C4812972   8.671   9.527   4.218
  367DPPC   C4912973   8.718   9.668   4.252
  367DPPC   C5012974   8.853   9.666   4.325
  368DPPC    C112975   0.259   0.434   1.866
  368DPPC    C212976   0.027   0.389   1.858
  368DPPC    C312977   0.114   0.563   2.002
  368DPPC    N412978   0.137   0.429   1.947
  368DPPC    C512979   0.158   0.331   2.056
  368DPPC    C612980   0.045   0.307   2.157
  368DPPC   OS712981   0.088   0.243   2.277
  368DPPC    P812982  10.120   0.207   2.365
  368DPPC   OM912983  10.065   0.087   2.301
  368DPPC  OM1012984  10.041   0.330   2.374
  368DPPC  OS1112985   0.035   0.175   2.501
  368DPPC   C1212986   0.075   0.038   2.508
  368DPPC   C1312987   0.150   0.000   2.636
  368DPPC  OS1412988   0.214  10.372   2.632
  368DPPC   C1512989   0.143  10.255   2.633
  368DPPC   O1612990   0.021  10.247   2.614
  368DPPC   C1712991   0.236  10.136   2.647
  368DPPC   C1812992   0.338  10.160   2.758
  368DPPC   C1912993   0.271  10.158   2.896
  368DPPC   C2012994   0.369  10.201   3.005
  368DPPC   C2112995   0.295  10.217   3.139
  368DPPC   C2212996   0.386  10.282   3.244
  368DPPC   C2312997   0.488  10.184   3.300
  368DPPC   C2412998   0.427  10.101   3.412
  368DPPC   C2512999   0.396  10.190   3.534
  368DPPC   C2613000   0.337  10.107   3.648
  368DPPC   C2713001   0.303  10.196   3.768
  368DPPC   C2813002   0.190  10.294   3.733
  368DPPC   C2913003   0.146  10.373   3.856
  368DPPC   C3013004   0.076  10.283   3.957
  368DPPC   C3113005   0.028  10.362   4.079
  368DPPC   C3213006   0.054   0.030   2.754
  368DPPC  OS3313007   0.110   0.021   2.886
  368DPPC   C3413008   0.140   0.139   2.947
  368DPPC   O3513009   0.122   0.249   2.897
  368DPPC   C3613010   0.206   0.115   3.082
  368DPPC   C3713011   0.148   0.209   3.187
  368DPPC   C3813012   0.016   0.156   3.243
  368DPPC   C3913013   0.040   0.055   3.355
  368DPPC   C4013014   0.086   0.127   3.482
  368DPPC   C4113015  10.129   0.213   3.537
  368DPPC   C4213016   0.021   0.316   3.639
  368DPPC   C4313017   0.057   0.256   3.775
  368DPPC   C4413018   0.106   0.369   3.866
  368DPPC   C4513019   0.131   0.324   4.010
  368DPPC   C4613020   0.001   0.284   4.080
  368DPPC   C4713021   0.016   0.291   4.232
  368DPPC   C4813022   0.121   0.192   4.284
  368DPPC   C4913023   0.137   0.207   4.436
  368DPPC   C5013024   0.241   0.110   4.491
  369DPPC    C113025   5.836   0.131   1.968
  369DPPC    C213026   5.724  10.492   1.814
  369DPPC    C313027   5.924  10.417   1.921
  369DPPC    N413028   5.800  10.494   1.940
  369DPPC    C513029   5.714  10.437   2.047
  369DPPC    C613030   5.762  10.432   2.194
  369DPPC   OS713031   5.872  10.345   2.221
  369DPPC    P813032   5.905  10.334   2.375
  369DPPC   OM913033   6.042  10.281   2.374
  369DPPC  OM1013034   5.866  10.460   2.441
  369DPPC  OS1113035   5.802  10.219   2.400
  369DPPC   C1213036   5.729  10.238   2.520
  369DPPC   C1313037   5.581  10.196   2.511
  369DPPC  OS1413038   5.506  10.249   2.622
  369DPPC   C1513039   5.432  10.360   2.600
  369DPPC   O1613040   5.419  10.411   2.488
  369DPPC   C1713041   5.381  10.418   2.731
  369DPPC   C1813042   5.253  10.500   2.715
  369DPPC   C1913043   5.234   0.085   2.839
  369DPPC   C2013044   5.236   0.000   2.966
  369DPPC   C2113045   5.232   0.087   3.091
  369DPPC   C2213046   5.256   0.001   3.215
  369DPPC   C2313047   5.259   0.087   3.342
  369DPPC   C2413048   5.119   0.136   3.379
  369DPPC   C2513049   5.127   0.232   3.498
  369DPPC   C2613050   5.175   0.161   3.624
  369DPPC   C2713051   5.196   0.262   3.737
  369DPPC   C2813052   5.240   0.191   3.865
  369DPPC   C2913053   5.273   0.291   3.976
  369DPPC   C3013054   5.404   0.364   3.946
  369DPPC   C3113055   5.524   0.269   3.955
  369DPPC   C3213056   5.579  10.043   2.491
  369DPPC  OS3313057   5.621   9.967   2.606
  369DPPC   C3413058   5.621   9.831   2.597
  369DPPC   O3513059   5.642   9.767   2.494
  369DPPC   C3613060   5.619   9.773   2.738
  369DPPC   C3713061   5.474   9.773   2.786
  369DPPC   C3813062   5.458   9.740   2.935
  369DPPC   C3913063   5.501   9.856   3.023
  369DPPC   C4013064   5.463   9.830   3.169
  369DPPC   C4113065   5.511   9.945   3.257
  369DPPC   C4213066   5.466   9.931   3.402
  369DPPC   C4313067   5.525   9.807   3.469
  369DPPC   C4413068   5.496   9.808   3.619
  369DPPC   C4513069   5.345   9.812   3.646
  369DPPC   C4613070   5.316   9.807   3.796
  369DPPC   C4713071   5.373   9.929   3.868
  369DPPC   C4813072   5.337   9.927   4.017
  369DPPC   C4913073   5.187   9.949   4.036
  369DPPC   C5013074   5.148   9.948   4.184
  370DPPC    C113075   5.238   1.994   2.043
  370DPPC    C213076   5.158   1.891   1.846
  370DPPC    C313077   5.349   1.801   1.956
  370DPPC    N413078   5.280   1.925   1.920
  370DPPC    C513079   5.364   2.012   1.834
  370DPPC    C613080   5.493   2.076   1.891
  370DPPC   OS713081   5.597   1.987   1.930
  370DPPC    P813082   5.697   2.062   2.025
  370DPPC   OM913083   5.613   2.104   2.138
  370DPPC  OM1013084   5.766   2.159   1.937
  370DPPC  OS1113085   5.789   1.939   2.056
  370DPPC   C1213086   5.733   1.851   2.153
  370DPPC   C1313087   5.806   1.715   2.158
  370DPPC  OS1413088   5.724   1.607   2.213
  370DPPC   C1513089   5.756   1.482   2.170
  370DPPC   O1613090   5.831   1.464   2.073
  370DPPC   C1713091   5.666   1.376   2.229
  370DPPC   C1813092   5.621   1.403   2.373
  370DPPC   C1913093   5.529   1.289   2.415
  370DPPC   C2013094   5.475   1.307   2.557
  370DPPC   C2113095   5.378   1.425   2.567
  370DPPC   C2213096   5.322   1.429   2.709
  370DPPC   C2313097   5.223   1.544   2.729
  370DPPC   C2413098   5.166   1.536   2.871
  370DPPC   C2513099   5.277   1.554   2.975
  370DPPC   C2613100   5.225   1.526   3.116
  370DPPC   C2713101   5.337   1.537   3.219
  370DPPC   C2813102   5.288   1.493   3.356
  370DPPC   C2913103   5.400   1.501   3.460
  370DPPC   C3013104   5.353   1.445   3.594
  370DPPC   C3113105   5.238   1.529   3.650
  370DPPC   C3213106   5.944   1.740   2.222
  370DPPC  OS3313107   5.943   1.804   2.351
  370DPPC   C3413108   6.064   1.817   2.413
  370DPPC   O3513109   6.169   1.769   2.371
  370DPPC   C3613110   6.048   1.887   2.546
  370DPPC   C3713111   6.182   1.912   2.615
  370DPPC   C3813112   6.157   1.973   2.753
  370DPPC   C3913113   6.068   1.878   2.833
  370DPPC   C4013114   6.023   1.935   2.967
  370DPPC   C4113115   6.132   1.929   3.074
  370DPPC   C4213116   6.066   1.948   3.211
  370DPPC   C4313117   6.162   1.932   3.328
  370DPPC   C4413118   6.081   1.930   3.457
  370DPPC   C4513119   6.007   2.062   3.477
  370DPPC   C4613120   5.902   2.051   3.588
  370DPPC   C4713121   5.966   2.028   3.725
  370DPPC   C4813122   5.857   2.019   3.832
  370DPPC   C4913123   5.918   1.997   3.971
  370DPPC   C5013124   5.809   1.993   4.078
  371DPPC    C113125   6.958   1.614   1.771
  371DPPC    C213126   6.902   1.750   1.961
  371DPPC    C313127   6.742   1.602   1.863
  371DPPC    N413128   6.884   1.618   1.897
  371DPPC    C513129   6.921   1.508   1.989
  371DPPC    C613130   7.063   1.499   2.050
  371DPPC   OS713131   7.077   1.393   2.143
  371DPPC    P813132   7.222   1.387   2.202
  371DPPC   OM913133   7.313   1.356   2.091
  371DPPC  OM1013134   7.246   1.505   2.286
  371DPPC  OS1113135   7.202   1.260   2.291
  371DPPC   C1213136   7.122   1.292   2.405
  371DPPC   C1313137   7.109   1.178   2.507
  371DPPC  OS1413138   6.992   1.188   2.593
  371DPPC   C1513139   6.877   1.131   2.548
  371DPPC   O1613140   6.860   1.097   2.430
  371DPPC   C1713141   6.767   1.138   2.652
  371DPPC   C1813142   6.821   1.120   2.794
  371DPPC   C1913143   6.706   1.113   2.895
  371DPPC   C2013144   6.758   1.101   3.038
  371DPPC   C2113145   6.642   1.085   3.136
  371DPPC   C2213146   6.693   1.078   3.280
  371DPPC   C2313147   6.579   1.059   3.379
  371DPPC   C2413148   6.633   1.054   3.522
  371DPPC   C2513149   6.521   1.030   3.624
  371DPPC   C2613150   6.579   1.027   3.766
  371DPPC   C2713151   6.631   1.165   3.805
  371DPPC   C2813152   6.701   1.162   3.941
  371DPPC   C2913153   6.831   1.082   3.933
  371DPPC   C3013154   6.911   1.093   4.063
  371DPPC   C3113155   6.837   1.029   4.180
  371DPPC   C3213156   7.247   1.164   2.576
  371DPPC  OS3313157   7.316   1.286   2.612
  371DPPC   C3413158   7.440   1.267   2.665
  371DPPC   O3513159   7.488   1.156   2.688
  371DPPC   C3613160   7.510   1.400   2.688
  371DPPC   C3713161   7.610   1.394   2.804
  371DPPC   C3813162   7.538   1.403   2.939
  371DPPC   C3913163   7.637   1.401   3.055
  371DPPC   C4013164   7.563   1.423   3.187
  371DPPC   C4113165   7.657   1.414   3.307
  371DPPC   C4213166   7.580   1.441   3.437
  371DPPC   C4313167   7.670   1.423   3.559
  371DPPC   C4413168   7.592   1.455   3.687
  371DPPC   C4513169   7.677   1.427   3.812
  371DPPC   C4613170   7.599   1.463   3.938
  371DPPC   C4713171   7.473   1.378   3.951
  371DPPC   C4813172   7.396   1.413   4.078
  371DPPC   C4913173   7.266   1.332   4.086
  371DPPC   C5013174   7.192   1.359   4.217
  372DPPC    C113175   7.589   1.572   2.356
  372DPPC    C213176   7.472   1.732   2.225
  372DPPC    C313177   7.597   1.554   2.120
  372DPPC    N413178   7.594   1.650   2.232
  372DPPC    C513179   7.716   1.734   2.236
  372DPPC    C613180   7.754   1.822   2.114
  372DPPC   OS713181   7.854   1.921   2.139
  372DPPC    P813182   7.884   2.006   2.010
  372DPPC   OM913183   7.897   1.906   1.903
  372DPPC  OM1013184   7.996   2.096   2.044
  372DPPC  OS1113185   7.750   2.086   2.004
  372DPPC   C1213186   7.741   2.189   2.103
  372DPPC   C1313187   7.610   2.268   2.097
  372DPPC  OS1413188   7.604   2.369   2.202
  372DPPC   C1513189   7.527   2.479   2.181
  372DPPC   O1613190   7.480   2.508   2.070
  372DPPC   C1713191   7.520   2.564   2.307
  372DPPC   C1813192   7.660   2.579   2.367
  372DPPC   C1913193   7.654   2.631   2.511
  372DPPC   C2013194   7.604   2.522   2.606
  372DPPC   C2113195   7.618   2.571   2.751
  372DPPC   C2213196   7.580   2.463   2.853
  372DPPC   C2313197   7.613   2.514   2.993
  372DPPC   C2413198   7.579   2.412   3.102
  372DPPC   C2513199   7.624   2.465   3.238
  372DPPC   C2613200   7.587   2.371   3.352
  372DPPC   C2713201   7.638   2.427   3.484
  372DPPC   C2813202   7.594   2.342   3.604
  372DPPC   C2913203   7.647   2.403   3.734
  372DPPC   C3013204   7.598   2.322   3.855
  372DPPC   C3113205   7.447   2.336   3.872
  372DPPC   C3213206   7.496   2.164   2.103
  372DPPC  OS3313207   7.484   2.091   2.227
  372DPPC   C3413208   7.383   2.132   2.309
  372DPPC   O3513209   7.282   2.191   2.267
  372DPPC   C3613210   7.395   2.067   2.445
  372DPPC   C3713211   7.526   2.108   2.513
  372DPPC   C3813212   7.547   2.031   2.644
  372DPPC   C3913213   7.680   2.069   2.709
  372DPPC   C4013214   7.710   1.981   2.831
  372DPPC   C4113215   7.617   2.012   2.949
  372DPPC   C4213216   7.660   1.929   3.070
  372DPPC   C4313217   7.584   1.966   3.198
  372DPPC   C4413218   7.648   1.893   3.317
  372DPPC   C4513219   7.589   1.937   3.452
  372DPPC   C4613220   7.675   1.879   3.564
  372DPPC   C4713221   7.632   1.928   3.703
  372DPPC   C4813222   7.505   1.858   3.751
  372DPPC   C4913223   7.472   1.898   3.895
  372DPPC   C5013224   7.351   1.820   3.947
  373DPPC    C113225   4.832   2.783   1.930
  373DPPC    C213226   4.654   2.715   1.788
  373DPPC    C313227   4.873   2.740   1.698
  373DPPC    N413228   4.797   2.697   1.816
  373DPPC    C513229   4.820   2.554   1.848
  373DPPC    C613230   4.965   2.508   1.879
  373DPPC   OS713231   4.972   2.375   1.929
  373DPPC    P813232   5.107   2.348   2.006
  373DPPC   OM913233   5.186   2.281   1.901
  373DPPC  OM1013234   5.149   2.475   2.069
  373DPPC  OS1113235   5.044   2.249   2.109
  373DPPC   C1213236   4.959   2.316   2.202
  373DPPC   C1313237   4.878   2.219   2.290
  373DPPC  OS1413238   4.751   2.277   2.335
  373DPPC   C1513239   4.664   2.199   2.404
  373DPPC   O1613240   4.681   2.078   2.423
  373DPPC   C1713241   4.537   2.275   2.441
  373DPPC   C1813242   4.430   2.179   2.491
  373DPPC   C1913243   4.299   2.252   2.521
  373DPPC   C2013244   4.312   2.341   2.645
  373DPPC   C2113245   4.330   2.258   2.772
  373DPPC   C2213246   4.334   2.348   2.895
  373DPPC   C2313247   4.360   2.269   3.023
  373DPPC   C2413248   4.356   2.361   3.145
  373DPPC   C2513249   4.392   2.286   3.274
  373DPPC   C2613250   4.382   2.380   3.393
  373DPPC   C2713251   4.428   2.313   3.523
  373DPPC   C2813252   4.413   2.409   3.641
  373DPPC   C2913253   4.467   2.347   3.770
  373DPPC   C3013254   4.619   2.332   3.762
  373DPPC   C3113255   4.675   2.270   3.890
  373DPPC   C3213256   4.979   2.164   2.392
  373DPPC  OS3313257   5.027   2.260   2.488
  373DPPC   C3413258   5.128   2.218   2.569
  373DPPC   O3513259   5.191   2.113   2.554
  373DPPC   C3613260   5.155   2.324   2.675
  373DPPC   C3713261   5.243   2.270   2.788
  373DPPC   C3813262   5.249   2.371   2.903
  373DPPC   C3913263   5.344   2.324   3.013
  373DPPC   C4013264   5.291   2.199   3.084
  373DPPC   C4113265   5.181   2.232   3.186
  373DPPC   C4213266   5.239   2.312   3.304
  373DPPC   C4313267   5.146   2.307   3.425
  373DPPC   C4413268   5.207   2.387   3.540
  373DPPC   C4513269   5.148   2.345   3.675
  373DPPC   C4613270   5.218   2.421   3.788
  373DPPC   C4713271   5.193   2.357   3.925
  373DPPC   C4813272   5.270   2.432   4.033
  373DPPC   C4913273   5.261   2.362   4.169
  373DPPC   C5013274   5.345   2.234   4.171
  374DPPC    C113275   6.253   1.929   1.809
  374DPPC    C213276   6.018   1.936   1.838
  374DPPC    C313277   6.140   2.135   1.781
  374DPPC    N413278   6.142   2.011   1.860
  374DPPC    C513279   6.165   2.037   2.005
  374DPPC    C613280   6.064   2.129   2.078
  374DPPC   OS713281   6.092   2.155   2.215
  374DPPC    P813282   6.001   2.270   2.272
  374DPPC   OM913283   5.956   2.358   2.163
  374DPPC  OM1013284   6.072   2.325   2.388
  374DPPC  OS1113285   5.874   2.188   2.314
  374DPPC   C1213286   5.855   2.188   2.455
  374DPPC   C1313287   5.710   2.212   2.499
  374DPPC  OS1413288   5.702   2.254   2.638
  374DPPC   C1513289   5.669   2.383   2.664
  374DPPC   O1613290   5.626   2.459   2.577
  374DPPC   C1713291   5.676   2.409   2.813
  374DPPC   C1813292   5.812   2.364   2.869
  374DPPC   C1913293   5.812   2.359   3.022
  374DPPC   C2013294   5.782   2.497   3.079
  374DPPC   C2113295   5.799   2.501   3.231
  374DPPC   C2213296   5.698   2.412   3.303
  374DPPC   C2313297   5.701   2.442   3.453
  374DPPC   C2413298   5.611   2.346   3.532
  374DPPC   C2513299   5.597   2.392   3.677
  374DPPC   C2613300   5.732   2.396   3.749
  374DPPC   C2713301   5.714   2.441   3.894
  374DPPC   C2813302   5.850   2.448   3.965
  374DPPC   C2913303   5.834   2.493   4.110
  374DPPC   C3013304   5.761   2.387   4.193
  374DPPC   C3113305   5.750   2.431   4.339
  374DPPC   C3213306   5.630   2.086   2.463
  374DPPC  OS3313307   5.674   1.966   2.529
  374DPPC   C3413308   5.588   1.860   2.530
  374DPPC   O3513309   5.498   1.844   2.448
  374DPPC   C3613310   5.639   1.753   2.624
  374DPPC   C3713311   5.573   1.759   2.762
  374DPPC   C3813312   5.622   1.879   2.844
  374DPPC   C3913313   5.590   1.863   2.993
  374DPPC   C4013314   5.643   1.984   3.070
  374DPPC   C4113315   5.655   1.959   3.220
  374DPPC   C4213316   5.519   1.945   3.290
  374DPPC   C4313317   5.542   1.936   3.441
  374DPPC   C4413318   5.411   1.929   3.520
  374DPPC   C4513319   5.440   1.934   3.670
  374DPPC   C4613320   5.312   1.928   3.753
  374DPPC   C4713321   5.344   1.946   3.902
  374DPPC   C4813322   5.418   1.825   3.960
  374DPPC   C4913323   5.324   1.706   3.980
  374DPPC   C5013324   5.399   1.586   4.037
  375DPPC    C113325   6.402   3.229   1.893
  375DPPC    C213326   6.397   3.165   2.124
  375DPPC    C313327   6.195   3.197   2.005
  375DPPC    N413328   6.332   3.147   1.993
  375DPPC    C513329   6.324   3.004   1.956
  375DPPC    C613330   6.453   2.925   1.921
  375DPPC   OS713331   6.428   2.790   1.884
  375DPPC    P813332   6.537   2.730   1.788
  375DPPC   OM913333   6.477   2.611   1.726
  375DPPC  OM1013334   6.591   2.837   1.701
  375DPPC  OS1113335   6.648   2.687   1.889
  375DPPC   C1213336   6.611   2.571   1.965
  375DPPC   C1313337   6.727   2.508   2.043
  375DPPC  OS1413338   6.695   2.377   2.098
  375DPPC   C1513339   6.796   2.287   2.115
  375DPPC   O1613340   6.912   2.308   2.077
  375DPPC   C1713341   6.750   2.163   2.190
  375DPPC   C1813342   6.850   2.130   2.301
  375DPPC   C1913343   6.784   2.049   2.412
  375DPPC   C2013344   6.880   2.031   2.529
  375DPPC   C2113345   6.806   1.979   2.653
  375DPPC   C2213346   6.704   2.083   2.700
  375DPPC   C2313347   6.628   2.035   2.823
  375DPPC   C2413348   6.718   2.033   2.947
  375DPPC   C2513349   6.638   1.990   3.070
  375DPPC   C2613350   6.726   1.993   3.196
  375DPPC   C2713351   6.646   1.955   3.320
  375DPPC   C2813352   6.734   1.960   3.445
  375DPPC   C2913353   6.655   1.915   3.569
  375DPPC   C3013354   6.742   1.922   3.695
  375DPPC   C3113355   6.661   1.882   3.818
  375DPPC   C3213356   6.771   2.612   2.148
  375DPPC  OS3313357   6.675   2.636   2.252
  375DPPC   C3413358   6.727   2.646   2.377
  375DPPC   O3513359   6.842   2.610   2.407
  375DPPC   C3613360   6.620   2.679   2.480
  375DPPC   C3713361   6.685   2.719   2.612
  375DPPC   C3813362   6.732   2.865   2.611
  375DPPC   C3913363   6.820   2.891   2.733
  375DPPC   C4013364   6.746   2.856   2.862
  375DPPC   C4113365   6.836   2.867   2.984
  375DPPC   C4213366   6.763   2.816   3.108
  375DPPC   C4313367   6.852   2.816   3.232
  375DPPC   C4413368   6.776   2.759   3.351
  375DPPC   C4513369   6.863   2.751   3.476
  375DPPC   C4613370   6.783   2.689   3.591
  375DPPC   C4713371   6.868   2.678   3.718
  375DPPC   C4813372   6.789   2.610   3.830
  375DPPC   C4913373   6.875   2.596   3.956
  375DPPC   C5013374   6.798   2.525   4.067
  376DPPC    C113375   6.938   2.747   1.734
  376DPPC    C213376   6.955   2.921   1.577
  376DPPC    C313377   7.111   2.913   1.757
  376DPPC    N413378   6.970   2.890   1.720
  376DPPC    C513379   6.877   2.975   1.798
  376DPPC    C613380   6.872   2.960   1.953
  376DPPC   OS713381   6.767   3.032   2.015
  376DPPC    P813382   6.759   3.005   2.170
  376DPPC   OM913383   6.621   2.967   2.200
  376DPPC  OM1013384   6.876   2.930   2.222
  376DPPC  OS1113385   6.772   3.155   2.208
  376DPPC   C1213386   6.800   3.169   2.346
  376DPPC   C1313387   6.767   3.309   2.401
  376DPPC  OS1413388   6.824   3.334   2.532
  376DPPC   C1513389   6.879   3.457   2.551
  376DPPC   O1613390   6.895   3.536   2.458
  376DPPC   C1713391   6.935   3.472   2.692
  376DPPC   C1813392   6.844   3.408   2.797
  376DPPC   C1913393   6.916   3.401   2.932
  376DPPC   C2013394   6.831   3.335   3.040
  376DPPC   C2113395   6.915   3.312   3.166
  376DPPC   C2213396   6.833   3.256   3.282
  376DPPC   C2313397   6.924   3.224   3.400
  376DPPC   C2413398   6.844   3.182   3.524
  376DPPC   C2513399   6.940   3.141   3.637
  376DPPC   C2613400   6.865   3.110   3.767
  376DPPC   C2713401   6.816   3.238   3.835
  376DPPC   C2813402   6.935   3.323   3.882
  376DPPC   C2913403   6.889   3.451   3.951
  376DPPC   C3013404   6.835   3.423   4.092
  376DPPC   C3113405   6.948   3.385   4.187
  376DPPC   C3213406   6.614   3.325   2.388
  376DPPC  OS3313407   6.536   3.225   2.456
  376DPPC   C3413408   6.472   3.268   2.569
  376DPPC   O3513409   6.467   3.386   2.605
  376DPPC   C3613410   6.408   3.152   2.644
  376DPPC   C3713411   6.458   3.158   2.788
  376DPPC   C3813412   6.387   3.061   2.882
  376DPPC   C3913413   6.447   3.080   3.022
  376DPPC   C4013414   6.374   3.004   3.132
  376DPPC   C4113415   6.441   3.035   3.265
  376DPPC   C4213416   6.371   2.968   3.383
  376DPPC   C4313417   6.446   2.999   3.513
  376DPPC   C4413418   6.384   2.927   3.632
  376DPPC   C4513419   6.463   2.956   3.760
  376DPPC   C4613420   6.404   2.880   3.879
  376DPPC   C4713421   6.483   2.911   4.006
  376DPPC   C4813422   6.425   2.839   4.128
  376DPPC   C4913423   6.443   2.688   4.116
  376DPPC   C5013424   6.394   2.618   4.243
  377DPPC    C113425   8.147   0.857   1.886
  377DPPC    C213426   7.937   0.891   1.989
  377DPPC    C313427   8.137   0.885   2.121
  377DPPC    N413428   8.079   0.930   1.994
  377DPPC    C513429   8.097   1.075   1.972
  377DPPC    C613430   8.034   1.173   2.074
  377DPPC   OS713431   8.045   1.312   2.044
  377DPPC    P813432   7.981   1.400   2.157
  377DPPC   OM913433   7.998   1.544   2.131
  377DPPC  OM1013434   7.845   1.348   2.178
  377DPPC  OS1113435   8.067   1.359   2.281
  377DPPC   C1213436   8.021   1.419   2.401
  377DPPC   C1313437   8.087   1.367   2.530
  377DPPC  OS1413438   8.214   1.430   2.568
  377DPPC   C1513439   8.334   1.392   2.513
  377DPPC   O1613440   8.348   1.296   2.437
  377DPPC   C1713441   8.449   1.468   2.578
  377DPPC   C1813442   8.490   1.396   2.706
  377DPPC   C1913443   8.592   1.473   2.790
  377DPPC   C2013444   8.614   1.399   2.922
  377DPPC   C2113445   8.700   1.479   3.021
  377DPPC   C2213446   8.704   1.407   3.156
  377DPPC   C2313447   8.778   1.492   3.260
  377DPPC   C2413448   8.776   1.426   3.399
  377DPPC   C2513449   8.845   1.519   3.498
  377DPPC   C2613450   8.846   1.467   3.642
  377DPPC   C2713451   8.705   1.457   3.700
  377DPPC   C2813452   8.709   1.458   3.853
  377DPPC   C2913453   8.792   1.342   3.908
  377DPPC   C3013454   8.800   1.351   4.061
  377DPPC   C3113455   8.891   1.243   4.119
  377DPPC   C3213456   8.068   1.214   2.536
  377DPPC  OS3313457   7.936   1.177   2.580
  377DPPC   C3413458   7.924   1.053   2.635
  377DPPC   O3513459   8.003   0.960   2.618
  377DPPC   C3613460   7.785   1.034   2.693
  377DPPC   C3713461   7.790   0.964   2.829
  377DPPC   C3813462   7.850   1.056   2.935
  377DPPC   C3913463   7.836   0.995   3.074
  377DPPC   C4013464   7.900   1.084   3.181
  377DPPC   C4113465   7.869   1.029   3.321
  377DPPC   C4213466   7.938   1.112   3.429
  377DPPC   C4313467   7.898   1.062   3.568
  377DPPC   C4413468   7.972   1.138   3.678
  377DPPC   C4513469   7.922   1.095   3.815
  377DPPC   C4613470   7.994   1.169   3.927
  377DPPC   C4713471   7.931   1.135   4.062
  377DPPC   C4813472   7.998   1.213   4.175
  377DPPC   C4913473   7.924   1.191   4.307
  377DPPC   C5013474   7.783   1.250   4.299
  378DPPC    C113475   8.225   1.790   2.096
  378DPPC    C213476   8.188   1.779   2.330
  378DPPC    C313477   8.237   1.989   2.223
  378DPPC    N413478   8.267   1.845   2.225
  378DPPC    C513479   8.412   1.818   2.240
  378DPPC    C613480   8.487   1.863   2.367
  378DPPC   OS713481   8.625   1.827   2.365
  378DPPC    P813482   8.689   1.864   2.503
  378DPPC   OM913483   8.704   2.010   2.496
  378DPPC  OM1013484   8.613   1.796   2.608
  378DPPC  OS1113485   8.828   1.797   2.475
  378DPPC   C1213486   8.829   1.659   2.511
  378DPPC   C1313487   8.966   1.591   2.491
  378DPPC  OS1413488   8.961   1.446   2.512
  378DPPC   C1513489   9.071   1.373   2.476
  378DPPC   O1613490   9.139   1.402   2.378
  378DPPC   C1713491   9.062   1.234   2.536
  378DPPC   C1813492   9.020   1.239   2.683
  378DPPC   C1913493   9.135   1.283   2.775
  378DPPC   C2013494   9.088   1.280   2.920
  378DPPC   C2113495   9.201   1.313   3.018
  378DPPC   C2213496   9.149   1.305   3.162
  378DPPC   C2313497   9.259   1.330   3.265
  378DPPC   C2413498   9.200   1.322   3.406
  378DPPC   C2513499   9.306   1.340   3.514
  378DPPC   C2613500   9.242   1.329   3.653
  378DPPC   C2713501   9.345   1.342   3.764
  378DPPC   C2813502   9.279   1.328   3.902
  378DPPC   C2913503   9.383   1.338   4.013
  378DPPC   C3013504   9.478   1.218   4.011
  378DPPC   C3113505   9.585   1.229   4.119
  378DPPC   C3213506   9.065   1.669   2.579
  378DPPC  OS3313507   9.032   1.671   2.720
  378DPPC   C3413508   9.107   1.749   2.802
  378DPPC   O3513509   9.195   1.828   2.765
  378DPPC   C3613510   9.056   1.734   2.945
  378DPPC   C3713511   9.164   1.764   3.050
  378DPPC   C3813512   9.106   1.741   3.190
  378DPPC   C3913513   9.211   1.764   3.299
  378DPPC   C4013514   9.149   1.742   3.437
  378DPPC   C4113515   9.250   1.759   3.550
  378DPPC   C4213516   9.185   1.739   3.687
  378DPPC   C4313517   9.287   1.756   3.799
  378DPPC   C4413518   9.224   1.739   3.937
  378DPPC   C4513519   9.329   1.762   4.046
  378DPPC   C4613520   9.271   1.754   4.187
  378DPPC   C4713521   9.377   1.792   4.290
  378DPPC   C4813522   9.486   1.684   4.299
  378DPPC   C4913523   9.608   1.735   4.377
  378DPPC   C5013524   9.575   1.763   4.524
  379DPPC    C113525   9.028   0.021   1.708
  379DPPC    C213526   9.023  10.323   1.834
  379DPPC    C313527   8.917   0.019   1.918
  379DPPC    N413528   9.033  10.470   1.844
  379DPPC    C513529   9.161   0.009   1.905
  379DPPC    C613530   9.195  10.465   2.049
  379DPPC   OS713531   9.316   0.015   2.102
  379DPPC    P813532   9.377  10.422   2.210
  379DPPC   OM913533   9.334  10.284   2.181
  379DPPC  OM1013534   9.521  10.453   2.219
  379DPPC  OS1113535   9.303  10.470   2.339
  379DPPC   C1213536   9.355   0.088   2.394
  379DPPC   C1313537   9.308   0.115   2.538
  379DPPC  OS1413538   9.353   0.245   2.587
  379DPPC   C1513539   9.274   0.305   2.681
  379DPPC   O1613540   9.160   0.266   2.707
  379DPPC   C1713541   9.337   0.433   2.734
  379DPPC   C1813542   9.330   0.438   2.886
  379DPPC   C1913543   9.436   0.346   2.948
  379DPPC   C2013544   9.409   0.317   3.096
  379DPPC   C2113545   9.433   0.436   3.190
  379DPPC   C2213546   9.387   0.395   3.330
  379DPPC   C2313547   9.413   0.501   3.438
  379DPPC   C2413548   9.340   0.458   3.565
  379DPPC   C2513549   9.360   0.552   3.684
  379DPPC   C2613550   9.497   0.530   3.747
  379DPPC   C2713551   9.514   0.612   3.876
  379DPPC   C2813552   9.422   0.561   3.987
  379DPPC   C2913553   9.453   0.631   4.120
  379DPPC   C3013554   9.424   0.781   4.111
  379DPPC   C3113555   9.455   0.851   4.244
  379DPPC   C3213556   9.353  10.494   2.618
  379DPPC  OS3313557   9.355   0.002   2.761
  379DPPC   C3413558   9.385  10.394   2.833
  379DPPC   O3513559   9.391  10.279   2.788
  379DPPC   C3613560   9.397  10.431   2.980
  379DPPC   C3713561   9.415  10.308   3.069
  379DPPC   C3813562   9.439  10.351   3.213
  379DPPC   C3913563   9.319  10.425   3.271
  379DPPC   C4013564   9.346  10.464   3.417
  379DPPC   C4113565   9.227   0.033   3.478
  379DPPC   C4213566   9.258   0.073   3.623
  379DPPC   C4313567   9.272  10.452   3.711
  379DPPC   C4413568   9.312  10.491   3.854
  379DPPC   C4513569   9.203   0.072   3.920
  379DPPC   C4613570   9.245   0.114   4.061
  379DPPC   C4713571   9.138   0.202   4.125
  379DPPC   C4813572   9.179   0.243   4.267
  379DPPC   C4913573   9.072   0.332   4.330
  379DPPC   C5013574   9.112   0.372   4.472
  380DPPC    C113575   0.338   0.353   2.442
  380DPPC    C213576   0.463   0.154   2.476
  380DPPC    C313577   0.575   0.360   2.489
  380DPPC    N413578   0.468   0.289   2.418
  380DPPC    C513579   0.495   0.273   2.273
  380DPPC    C613580   0.538   0.395   2.189
  380DPPC   OS713581   0.441   0.499   2.182
  380DPPC    P813582   0.503   0.627   2.117
  380DPPC   OM913583   0.491   0.612   1.971
  380DPPC  OM1013584   0.632   0.659   2.180
  380DPPC  OS1113585   0.393   0.729   2.161
  380DPPC   C1213586   0.415   0.780   2.292
  380DPPC   C1313587   0.322   0.898   2.324
  380DPPC  OS1413588   0.370   0.983   2.431
  380DPPC   C1513589   0.407   1.108   2.392
  380DPPC   O1613590   0.395   1.146   2.275
  380DPPC   C1713591   0.474   1.189   2.502
  380DPPC   C1813592   0.417   1.164   2.642
  380DPPC   C1913593   0.488   1.255   2.742
  380DPPC   C2013594   0.442   1.227   2.885
  380DPPC   C2113595   0.512   1.318   2.986
  380DPPC   C2213596   0.470   1.278   3.128
  380DPPC   C2313597   0.539   1.363   3.234
  380DPPC   C2413598   0.505   1.310   3.373
  380DPPC   C2513599   0.574   1.389   3.484
  380DPPC   C2613600   0.539   1.328   3.620
  380DPPC   C2713601   0.603   1.407   3.734
  380DPPC   C2813602   0.567   1.345   3.869
  380DPPC   C2913603   0.416   1.356   3.895
  380DPPC   C3013604   0.380   1.292   4.030
  380DPPC   C3113605   0.229   1.298   4.055
  380DPPC   C3213606   0.178   0.842   2.332
  380DPPC  OS3313607   0.147   0.745   2.434
  380DPPC   C3413608   0.029   0.679   2.414
  380DPPC   O3513609  10.128   0.676   2.305
  380DPPC   C3613610  10.148   0.596   2.535
  380DPPC   C3713611  10.007   0.632   2.583
  380DPPC   C3813612   9.974   0.567   2.717
  380DPPC   C3913613   9.833   0.607   2.763
  380DPPC   C4013614   9.797   0.544   2.898
  380DPPC   C4113615   9.872   0.608   3.014
  380DPPC   C4213616   9.830   0.545   3.147
  380DPPC   C4313617   9.896   0.616   3.266
  380DPPC   C4413618   9.853   0.554   3.399
  380DPPC   C4513619   9.914   0.632   3.515
  380DPPC   C4613620   9.877   0.571   3.651
  380DPPC   C4713621   9.939   0.652   3.765
  380DPPC   C4813622   9.904   0.592   3.901
  380DPPC   C4913623   9.961   0.677   4.015
  380DPPC   C5013624   9.922   0.619   4.151
  381DPPC    C113625   7.741   3.668   1.885
  381DPPC    C213626   7.600   3.860   1.859
  381DPPC    C313627   7.833   3.885   1.901
  381DPPC    N413628   7.715   3.805   1.933
  381DPPC    C513629   7.693   3.808   2.080
  381DPPC    C613630   7.567   3.742   2.142
  381DPPC   OS713631   7.559   3.601   2.122
  381DPPC    P813632   7.412   3.545   2.123
  381DPPC   OM913633   7.333   3.650   2.058
  381DPPC  OM1013634   7.436   3.416   2.055
  381DPPC  OS1113635   7.392   3.537   2.278
  381DPPC   C1213636   7.441   3.415   2.333
  381DPPC   C1313637   7.421   3.396   2.485
  381DPPC  OS1413638   7.293   3.337   2.522
  381DPPC   C1513639   7.296   3.205   2.556
  381DPPC   O1613640   7.399   3.137   2.548
  381DPPC   C1713641   7.160   3.151   2.597
  381DPPC   C1813642   7.145   3.145   2.749
  381DPPC   C1913643   7.227   3.033   2.814
  381DPPC   C2013644   7.207   3.036   2.966
  381DPPC   C2113645   7.290   2.930   3.037
  381DPPC   C2213646   7.267   2.939   3.188
  381DPPC   C2313647   7.356   2.841   3.266
  381DPPC   C2413648   7.335   2.858   3.416
  381DPPC   C2513649   7.432   2.771   3.496
  381DPPC   C2613650   7.413   2.791   3.647
  381DPPC   C2713651   7.277   2.735   3.692
  381DPPC   C2813652   7.256   2.751   3.843
  381DPPC   C2913653   7.228   2.896   3.880
  381DPPC   C3013654   7.200   2.910   4.030
  381DPPC   C3113655   7.175   3.056   4.068
  381DPPC   C3213656   7.459   3.530   2.551
  381DPPC  OS3313657   7.445   3.542   2.694
  381DPPC   C3413658   7.330   3.602   2.736
  381DPPC   O3513659   7.258   3.671   2.664
  381DPPC   C3613660   7.327   3.609   2.888
  381DPPC   C3713661   7.343   3.474   2.959
  381DPPC   C3813662   7.341   3.499   3.110
  381DPPC   C3913663   7.358   3.370   3.191
  381DPPC   C4013664   7.365   3.403   3.340
  381DPPC   C4113665   7.399   3.279   3.422
  381DPPC   C4213666   7.418   3.312   3.570
  381DPPC   C4313667   7.476   3.192   3.644
  381DPPC   C4413668   7.502   3.222   3.791
  381DPPC   C4513669   7.576   3.105   3.857
  381DPPC   C4613670   7.600   3.129   4.006
  381DPPC   C4713671   7.683   3.016   4.066
  381DPPC   C4813672   7.607   2.883   4.063
  381DPPC   C4913673   7.691   2.771   4.125
  381DPPC   C5013674   7.614   2.638   4.122
  382DPPC    C113675   8.581   4.299   1.999
  382DPPC    C213676   8.555   4.085   2.103
  382DPPC    C313677   8.698   4.111   1.915
  382DPPC    N413678   8.572   4.155   1.975
  382DPPC    C513679   8.463   4.125   1.878
  382DPPC    C613680   8.317   4.164   1.909
  382DPPC   OS713681   8.257   4.094   2.018
  382DPPC    P813682   8.110   4.143   2.039
  382DPPC   OM913683   8.048   4.162   1.907
  382DPPC  OM1013684   8.126   4.256   2.133
  382DPPC  OS1113685   8.049   4.015   2.107
  382DPPC   C1213686   8.049   4.025   2.249
  382DPPC   C1313687   7.983   3.905   2.319
  382DPPC  OS1413688   7.934   3.935   2.453
  382DPPC   C1513689   7.814   3.876   2.481
  382DPPC   O1613690   7.761   3.797   2.402
  382DPPC   C1713691   7.763   3.907   2.620
  382DPPC   C1813692   7.610   3.920   2.620
  382DPPC   C1913693   7.554   3.910   2.761
  382DPPC   C2013694   7.598   4.027   2.850
  382DPPC   C2113695   7.550   4.003   2.993
  382DPPC   C2213696   7.604   4.110   3.088
  382DPPC   C2313697   7.567   4.079   3.233
  382DPPC   C2413698   7.636   3.951   3.280
  382DPPC   C2513699   7.612   3.928   3.430
  382DPPC   C2613700   7.686   4.034   3.511
  382DPPC   C2713701   7.673   4.009   3.662
  382DPPC   C2813702   7.757   4.110   3.739
  382DPPC   C2913703   7.748   4.088   3.890
  382DPPC   C3013704   7.836   4.189   3.964
  382DPPC   C3113705   7.825   4.173   4.115
  382DPPC   C3213706   8.075   3.782   2.300
  382DPPC  OS3313707   8.214   3.797   2.337
  382DPPC   C3413708   8.249   3.765   2.465
  382DPPC   O3513709   8.173   3.716   2.550
  382DPPC   C3613710   8.396   3.800   2.487
  382DPPC   C3713711   8.451   3.750   2.621
  382DPPC   C3813712   8.478   3.600   2.620
  382DPPC   C3913713   8.559   3.558   2.743
  382DPPC   C4013714   8.481   3.583   2.872
  382DPPC   C4113715   8.566   3.545   2.993
  382DPPC   C4213716   8.488   3.566   3.123
  382DPPC   C4313717   8.573   3.529   3.245
  382DPPC   C4413718   8.490   3.545   3.372
  382DPPC   C4513719   8.573   3.517   3.498
  382DPPC   C4613720   8.484   3.533   3.622
  382DPPC   C4713721   8.563   3.517   3.752
  382DPPC   C4813722   8.468   3.534   3.871
  382DPPC   C4913723   8.411   3.676   3.872
  382DPPC   C5013724   8.308   3.693   3.983
  383DPPC    C113725   8.992   2.082   2.398
  383DPPC    C213726   9.140   2.132   2.222
  383DPPC    C313727   8.988   1.951   2.196
  383DPPC    N413728   9.003   2.086   2.252
  383DPPC    C513729   8.910   2.184   2.191
  383DPPC    C613730   8.757   2.157   2.191
  383DPPC   OS713731   8.683   2.266   2.137
  383DPPC    P813732   8.536   2.230   2.097
  383DPPC   OM913733   8.537   2.095   2.038
  383DPPC  OM1013734   8.483   2.346   2.023
  383DPPC  OS1113735   8.469   2.224   2.238
  383DPPC   C1213736   8.458   2.354   2.295
  383DPPC   C1313737   8.352   2.368   2.405
  383DPPC  OS1413738   8.329   2.508   2.438
  383DPPC   C1513739   8.219   2.567   2.383
  383DPPC   O1613740   8.173   2.533   2.273
  383DPPC   C1713741   8.198   2.703   2.448
  383DPPC   C1813742   8.059   2.714   2.510
  383DPPC   C1913743   8.042   2.620   2.629
  383DPPC   C2013744   8.137   2.654   2.744
  383DPPC   C2113745   8.109   2.561   2.863
  383DPPC   C2213746   8.209   2.583   2.977
  383DPPC   C2313747   8.346   2.522   2.946
  383DPPC   C2413748   8.441   2.545   3.063
  383DPPC   C2513749   8.391   2.475   3.189
  383DPPC   C2613750   8.480   2.509   3.308
  383DPPC   C2713751   8.430   2.446   3.438
  383DPPC   C2813752   8.517   2.490   3.555
  383DPPC   C2913753   8.469   2.433   3.688
  383DPPC   C3013754   8.552   2.489   3.804
  383DPPC   C3113755   8.698   2.445   3.793
  383DPPC   C3213756   8.401   2.279   2.521
  383DPPC  OS3313757   8.306   2.252   2.626
  383DPPC   C3413758   8.236   2.136   2.615
  383DPPC   O3513759   8.257   2.051   2.527
  383DPPC   C3613760   8.141   2.118   2.732
  383DPPC   C3713761   8.220   2.092   2.861
  383DPPC   C3813762   8.129   2.075   2.983
  383DPPC   C3913763   8.061   2.207   3.019
  383DPPC   C4013764   7.979   2.194   3.147
  383DPPC   C4113765   8.068   2.167   3.269
  383DPPC   C4213766   7.984   2.167   3.397
  383DPPC   C4313767   8.069   2.138   3.520
  383DPPC   C4413768   7.982   2.149   3.646
  383DPPC   C4513769   8.058   2.112   3.773
  383DPPC   C4613770   7.966   2.130   3.894
  383DPPC   C4713771   8.034   2.087   4.025
  383DPPC   C4813772   7.941   2.114   4.144
  383DPPC   C4913773   8.005   2.070   4.275
  383DPPC   C5013774   8.015   1.917   4.282
  384DPPC    C113775   8.700   2.588   1.957
  384DPPC    C213776   8.783   2.578   2.176
  384DPPC    C313777   8.629   2.750   2.121
  384DPPC    N413778   8.742   2.670   2.070
  384DPPC    C513779   8.859   2.754   2.035
  384DPPC    C613780   8.842   2.864   1.927
  384DPPC   OS713781   8.960   2.941   1.904
  384DPPC    P813782   8.956   3.084   1.969
  384DPPC   OM913783   8.930   3.176   1.858
  384DPPC  OM1013784   8.869   3.076   2.089
  384DPPC  OS1113785   9.108   3.095   2.006
  384DPPC   C1213786   9.136   3.072   2.144
  384DPPC   C1313787   9.286   3.082   2.176
  384DPPC  OS1413788   9.317   3.048   2.314
  384DPPC   C1513789   9.445   3.009   2.341
  384DPPC   O1613790   9.530   2.995   2.253
  384DPPC   C1713791   9.471   3.000   2.490
  384DPPC   C1813792   9.581   2.898   2.521
  384DPPC   C1913793   9.641   2.926   2.658
  384DPPC   C2013794   9.536   2.919   2.769
  384DPPC   C2113795   9.602   2.946   2.904
  384DPPC   C2213796   9.502   2.943   3.020
  384DPPC   C2313797   9.413   3.068   3.025
  384DPPC   C2413798   9.326   3.062   3.150
  384DPPC   C2513799   9.416   3.053   3.274
  384DPPC   C2613800   9.336   3.044   3.404
  384DPPC   C2713801   9.430   3.024   3.522
  384DPPC   C2813802   9.354   3.017   3.655
  384DPPC   C2913803   9.452   2.992   3.770
  384DPPC   C3013804   9.549   3.109   3.785
  384DPPC   C3113805   9.648   3.085   3.899
  384DPPC   C3213806   9.329   3.224   2.134
  384DPPC  OS3313807   9.283   3.331   2.218
  384DPPC   C3413808   9.379   3.388   2.296
  384DPPC   O3513809   9.500   3.382   2.273
  384DPPC   C3613810   9.316   3.476   2.402
  384DPPC   C3713811   9.366   3.430   2.539
  384DPPC   C3813812   9.298   3.505   2.653
  384DPPC   C3913813   9.349   3.453   2.787
  384DPPC   C4013814   9.284   3.526   2.905
  384DPPC   C4113815   9.340   3.471   3.036
  384DPPC   C4213816   9.279   3.539   3.158
  384DPPC   C4313817   9.339   3.479   3.284
  384DPPC   C4413818   9.287   3.545   3.412
  384DPPC   C4513819   9.357   3.481   3.532
  384DPPC   C4613820   9.312   3.541   3.665
  384DPPC   C4713821   9.391   3.475   3.778
  384DPPC   C4813822   9.349   3.528   3.915
  384DPPC   C4913823   9.431   3.459   4.024
  384DPPC   C5013824   9.394   3.511   4.163
  385DPPC    C113825   0.529   2.290   6.900
  385DPPC    C213826   0.665   2.369   7.079
  385DPPC    C313827   0.496   2.509   6.986
  385DPPC    N413828   0.598   2.408   6.954
  385DPPC    C513829   0.700   2.462   6.861
  385DPPC    C613830   0.661   2.490   6.713
  385DPPC   OS713831   0.554   2.583   6.698
  385DPPC    P813832   0.484   2.577   6.558
  385DPPC   OM913833   0.520   2.452   6.490
  385DPPC  OM1013834   0.345   2.621   6.577
  385DPPC  OS1113835   0.560   2.697   6.490
  385DPPC   C1213836   0.544   2.692   6.349
  385DPPC   C1313837   0.437   2.784   6.287
  385DPPC  OS1413838   0.405   2.744   6.150
  385DPPC   C1513839   0.290   2.788   6.090
  385DPPC   O1613840   0.192   2.828   6.153
  385DPPC   C1713841   0.287   2.736   5.947
  385DPPC   C1813842   0.265   2.846   5.843
  385DPPC   C1913843   0.296   2.792   5.704
  385DPPC   C2013844   0.282   2.900   5.597
  385DPPC   C2113845   0.340   2.854   5.463
  385DPPC   C2213846   0.332   2.967   5.360
  385DPPC   C2313847   0.411   2.937   5.233
  385DPPC   C2413848   0.351   2.822   5.152
  385DPPC   C2513849   0.424   2.810   5.018
  385DPPC   C2613850   0.370   2.695   4.934
  385DPPC   C2713851   0.437   2.692   4.797
  385DPPC   C2813852   0.388   2.576   4.711
  385DPPC   C2913853   0.451   2.581   4.572
  385DPPC   C3013854   0.402   2.465   4.485
  385DPPC   C3113855   0.459   2.473   4.343
  385DPPC   C3213856   0.487   2.929   6.308
  385DPPC  OS3313857   0.620   2.957   6.258
  385DPPC   C3413858   0.628   3.011   6.132
  385DPPC   O3513859   0.541   3.084   6.083
  385DPPC   C3613860   0.771   2.999   6.083
  385DPPC   C3713861   0.791   3.050   5.941
  385DPPC   C3813862   0.930   3.009   5.891
  385DPPC   C3913863   0.967   3.081   5.761
  385DPPC   C4013864   0.873   3.042   5.647
  385DPPC   C4113865   0.907   3.122   5.521
  385DPPC   C4213866   0.817   3.084   5.403
  385DPPC   C4313867   0.854   3.169   5.281
  385DPPC   C4413868   0.774   3.125   5.158
  385DPPC   C4513869   0.815   3.207   5.036
  385DPPC   C4613870   0.741   3.158   4.912
  385DPPC   C4713871   0.783   3.014   4.880
  385DPPC   C4813872   0.714   2.964   4.753
  385DPPC   C4913873   0.763   3.042   4.631
  385DPPC   C5013874   0.697   2.990   4.504
  386DPPC    C113875   0.560   3.871   6.846
  386DPPC    C213876   0.492   3.645   6.850
  386DPPC    C313877   0.718   3.704   6.906
  386DPPC    N413878   0.604   3.734   6.818
  386DPPC    C513879   0.641   3.727   6.674
  386DPPC    C613880   0.679   3.591   6.613
  386DPPC   OS713881   0.712   3.597   6.474
  386DPPC    P813882   0.658   3.468   6.402
  386DPPC   OM913883   0.521   3.442   6.447
  386DPPC  OM1013884   0.762   3.365   6.413
  386DPPC  OS1113885   0.647   3.520   6.255
  386DPPC   C1213886   0.774   3.550   6.198
  386DPPC   C1313887   0.806   3.466   6.074
  386DPPC  OS1413888   0.935   3.503   6.017
  386DPPC   C1513889   1.029   3.406   6.005
  386DPPC   O1613890   1.040   3.313   6.086
  386DPPC   C1713891   1.141   3.452   5.912
  386DPPC   C1813892   1.089   3.539   5.797
  386DPPC   C1913893   0.998   3.459   5.704
  386DPPC   C2013894   0.937   3.543   5.592
  386DPPC   C2113895   1.026   3.542   5.468
  386DPPC   C2213896   0.954   3.610   5.352
  386DPPC   C2313897   1.020   3.577   5.219
  386DPPC   C2413898   0.943   3.639   5.102
  386DPPC   C2513899   0.988   3.580   4.969
  386DPPC   C2613900   0.912   3.642   4.852
  386DPPC   C2713901   0.941   3.566   4.723
  386DPPC   C2813902   0.875   3.635   4.604
  386DPPC   C2913903   0.889   3.552   4.476
  386DPPC   C3013904   0.800   3.428   4.482
  386DPPC   C3113905   0.805   3.350   4.351
  386DPPC   C3213906   0.688   3.488   5.978
  386DPPC  OS3313907   0.664   3.383   5.883
  386DPPC   C3413908   0.542   3.380   5.824
  386DPPC   O3513909   0.449   3.457   5.848
  386DPPC   C3613910   0.532   3.259   5.731
  386DPPC   C3713911   0.419   3.275   5.630
  386DPPC   C3813912   0.457   3.372   5.518
  386DPPC   C3913913   0.346   3.377   5.413
  386DPPC   C4013914   0.383   3.469   5.296
  386DPPC   C4113915   0.506   3.418   5.222
  386DPPC   C4213916   0.527   3.496   5.092
  386DPPC   C4313917   0.413   3.467   4.995
  386DPPC   C4413918   0.436   3.533   4.859
  386DPPC   C4513919   0.321   3.499   4.764
  386DPPC   C4613920   0.347   3.552   4.624
  386DPPC   C4713921   0.232   3.512   4.530
  386DPPC   C4813922   0.261   3.557   4.387
  386DPPC   C4913923   0.147   3.515   4.293
  386DPPC   C5013924   0.138   3.363   4.283
  387DPPC    C113925   2.490   8.383   6.772
  387DPPC    C213926   2.561   8.593   6.692
  387DPPC    C313927   2.609   8.529   6.918
  387DPPC    N413928   2.599   8.481   6.780
  387DPPC    C513929   2.724   8.415   6.736
  387DPPC    C613930   2.858   8.494   6.728
  387DPPC   OS713931   2.857   8.595   6.627
  387DPPC    P813932   2.996   8.662   6.605
  387DPPC   OM913933   2.972   8.777   6.518
  387DPPC  OM1013934   3.064   8.679   6.734
  387DPPC  OS1113935   3.066   8.545   6.528
  387DPPC   C1213936   3.067   8.561   6.387
  387DPPC   C1313937   3.116   8.433   6.319
  387DPPC  OS1413938   3.161   8.455   6.182
  387DPPC   C1513939   3.290   8.496   6.164
  387DPPC   O1613940   3.372   8.506   6.256
  387DPPC   C1713941   3.313   8.532   6.018
  387DPPC   C1813942   3.195   8.613   5.967
  387DPPC   C1913943   3.218   8.671   5.828
  387DPPC   C2013944   3.106   8.769   5.793
  387DPPC   C2113945   3.134   8.846   5.664
  387DPPC   C2213946   3.115   8.759   5.540
  387DPPC   C2313947   3.147   8.840   5.414
  387DPPC   C2413948   3.119   8.761   5.287
  387DPPC   C2513949   3.159   8.843   5.164
  387DPPC   C2613950   3.127   8.767   5.035
  387DPPC   C2713951   3.172   8.847   4.913
  387DPPC   C2813952   3.137   8.775   4.783
  387DPPC   C2913953   3.188   8.853   4.661
  387DPPC   C3013954   3.152   8.780   4.532
  387DPPC   C3113955   3.206   8.854   4.409
  387DPPC   C3213956   3.001   8.331   6.337
  387DPPC  OS3313957   2.884   8.360   6.257
  387DPPC   C3413958   2.860   8.262   6.164
  387DPPC   O3513959   2.864   8.143   6.193
  387DPPC   C3613960   2.783   8.318   6.046
  387DPPC   C3713961   2.862   8.291   5.918
  387DPPC   C3813962   2.801   8.360   5.796
  387DPPC   C3913963   2.881   8.323   5.671
  387DPPC   C4013964   2.825   8.391   5.546
  387DPPC   C4113965   2.902   8.346   5.422
  387DPPC   C4213966   2.849   8.413   5.295
  387DPPC   C4313967   2.927   8.363   5.173
  387DPPC   C4413968   2.877   8.427   5.044
  387DPPC   C4513969   2.957   8.374   4.925
  387DPPC   C4613970   2.909   8.431   4.792
  387DPPC   C4713971   2.991   8.374   4.677
  387DPPC   C4813972   2.944   8.429   4.542
  387DPPC   C4913973   3.027   8.372   4.427
  387DPPC   C5013974   2.981   8.429   4.293
  388DPPC    C113975   2.046   3.083   6.244
  388DPPC    C213976   2.068   3.224   6.433
  388DPPC    C313977   2.263   3.165   6.311
  388DPPC    N413978   2.133   3.116   6.358
  388DPPC    C513979   2.146   2.999   6.448
  388DPPC    C613980   2.225   2.873   6.403
  388DPPC   OS713981   2.175   2.804   6.288
  388DPPC    P813982   2.242   2.663   6.273
  388DPPC   OM913983   2.175   2.600   6.158
  388DPPC  OM1013984   2.238   2.598   6.406
  388DPPC  OS1113985   2.388   2.703   6.236
  388DPPC   C1213986   2.410   2.727   6.097
  388DPPC   C1313987   2.553   2.773   6.063
  388DPPC  OS1413988   2.572   2.812   5.924
  388DPPC   C1513989   2.547   2.939   5.883
  388DPPC   O1613990   2.494   3.026   5.954
  388DPPC   C1713991   2.580   2.954   5.736
  388DPPC   C1813992   2.466   3.018   5.656
  388DPPC   C1913993   2.498   3.007   5.506
  388DPPC   C2013994   2.392   3.070   5.416
  388DPPC   C2113995   2.431   3.046   5.270
  388DPPC   C2213996   2.338   3.113   5.169
  388DPPC   C2313997   2.388   3.082   5.028
  388DPPC   C2413998   2.307   3.154   4.920
  388DPPC   C2513999   2.364   3.122   4.782
  388DPPC   C2614000   2.291   3.199   4.671
  388DPPC   C2714001   2.349   3.165   4.534
  388DPPC   C2814002   2.318   3.021   4.495
  388DPPC   C2914003   2.372   2.986   4.356
  388DPPC   C3014004   2.525   2.979   4.356
  388DPPC   C3114005   2.578   2.941   4.217
  388DPPC   C3214006   2.646   2.658   6.109
  388DPPC  OS3314007   2.628   2.532   6.042
  388DPPC   C3414008   2.723   2.437   6.064
  388DPPC   O3514009   2.815   2.448   6.145
  388DPPC   C3614010   2.701   2.317   5.974
  388DPPC   C3714011   2.564   2.252   5.998
  388DPPC   C3814012   2.536   2.148   5.888
  388DPPC   C3914013   2.517   2.220   5.754
  388DPPC   C4014014   2.489   2.122   5.640
  388DPPC   C4114015   2.466   2.200   5.511
  388DPPC   C4214016   2.442   2.109   5.390
  388DPPC   C4314017   2.417   2.194   5.266
  388DPPC   C4414018   2.409   2.111   5.138
  388DPPC   C4514019   2.386   2.202   5.017
  388DPPC   C4614020   2.388   2.123   4.887
  388DPPC   C4714021   2.353   2.212   4.768
  388DPPC   C4814022   2.354   2.132   4.638
  388DPPC   C4914023   2.308   2.218   4.520
  388DPPC   C5014024   2.315   2.139   4.389
  389DPPC    C114025   1.191   3.439   6.456
  389DPPC    C214026   1.333   3.374   6.274
  389DPPC    C314027   1.280   3.219   6.443
  389DPPC    N414028   1.310   3.361   6.418
  389DPPC    C514029   1.430   3.397   6.496
  389DPPC    C614030   1.480   3.544   6.501
  389DPPC   OS714031   1.523   3.595   6.375
  389DPPC    P814032   1.586   3.739   6.381
  389DPPC   OM914033   1.669   3.759   6.262
  389DPPC  OM1014034   1.640   3.763   6.516
  389DPPC  OS1114035   1.455   3.823   6.375
  389DPPC   C1214036   1.394   3.822   6.246
  389DPPC   C1314037   1.274   3.918   6.238
  389DPPC  OS1414038   1.186   3.892   6.126
  389DPPC   C1514039   1.052   3.892   6.151
  389DPPC   O1614040   1.005   3.883   6.265
  389DPPC   C1714041   0.973   3.875   6.023
  389DPPC   C1814042   1.031   3.959   5.909
  389DPPC   C1914043   0.955   3.933   5.779
  389DPPC   C2014044   1.018   4.010   5.663
  389DPPC   C2114045   0.947   3.980   5.531
  389DPPC   C2214046   1.015   4.051   5.414
  389DPPC   C2314047   0.943   4.019   5.283
  389DPPC   C2414048   1.008   4.090   5.164
  389DPPC   C2514049   0.934   4.055   5.035
  389DPPC   C2614050   0.995   4.125   4.914
  389DPPC   C2714051   0.923   4.082   4.786
  389DPPC   C2814052   0.984   4.148   4.662
  389DPPC   C2914053   0.914   4.097   4.536
  389DPPC   C3014054   0.974   4.161   4.410
  389DPPC   C3114055   0.904   4.109   4.285
  389DPPC   C3214056   1.332   4.060   6.249
  389DPPC  OS3314057   1.436   4.094   6.155
  389DPPC   C3414058   1.402   4.180   6.056
  389DPPC   O3514059   1.305   4.256   6.060
  389DPPC   C3614060   1.520   4.195   5.960
  389DPPC   C3714061   1.477   4.263   5.830
  389DPPC   C3814062   1.386   4.171   5.750
  389DPPC   C3914063   1.327   4.241   5.628
  389DPPC   C4014064   1.430   4.265   5.518
  389DPPC   C4114065   1.358   4.314   5.393
  389DPPC   C4214066   1.453   4.326   5.274
  389DPPC   C4314067   1.372   4.352   5.147
  389DPPC   C4414068   1.461   4.359   5.023
  389DPPC   C4514069   1.373   4.367   4.898
  389DPPC   C4614070   1.459   4.375   4.772
  389DPPC   C4714071   1.369   4.376   4.648
  389DPPC   C4814072   1.452   4.392   4.521
  389DPPC   C4914073   1.361   4.394   4.398
  389DPPC   C5014074   1.445   4.411   4.271
  390DPPC    C114075   0.172   3.390   6.052
  390DPPC    C214076   0.345   3.344   6.207
  390DPPC    C314077   0.119   3.373   6.280
  390DPPC    N414078   0.221   3.420   6.186
  390DPPC    C514079   0.239   3.566   6.201
  390DPPC    C614080   0.280   3.621   6.340
  390DPPC   OS714081   0.223   3.748   6.372
  390DPPC    P814082   0.266   3.796   6.516
  390DPPC   OM914083   0.292   3.680   6.602
  390DPPC  OM1014084   0.172   3.902   6.556
  390DPPC  OS1114085   0.403   3.860   6.475
  390DPPC   C1214086   0.387   3.987   6.411
  390DPPC   C1314087   0.520   4.046   6.361
  390DPPC  OS1414088   0.512   4.188   6.330
  390DPPC   C1514089   0.630   4.257   6.330
  390DPPC   O1614090   0.740   4.204   6.351
  390DPPC   C1714091   0.608   4.404   6.300
  390DPPC   C1814092   0.703   4.453   6.191
  390DPPC   C1914093   0.663   4.398   6.054
  390DPPC   C2014094   0.762   4.448   5.949
  390DPPC   C2114095   0.731   4.401   5.807
  390DPPC   C2214096   0.835   4.459   5.712
  390DPPC   C2314097   0.812   4.419   5.566
  390DPPC   C2414098   0.926   4.476   5.482
  390DPPC   C2514099   0.917   4.437   5.334
  390DPPC   C2614100   0.805   4.509   5.260
  390DPPC   C2714101   0.811   4.471   5.112
  390DPPC   C2814102   0.707   4.546   5.028
  390DPPC   C2914103   0.722   4.507   4.881
  390DPPC   C3014104   0.621   4.580   4.793
  390DPPC   C3114105   0.641   4.542   4.646
  390DPPC   C3214106   0.568   3.951   6.249
  390DPPC  OS3314107   0.484   3.944   6.133
  390DPPC   C3414108   0.540   3.879   6.027
  390DPPC   O3514109   0.638   3.805   6.037
  390DPPC   C3614110   0.453   3.888   5.903
  390DPPC   C3714111   0.538   3.931   5.784
  390DPPC   C3814112   0.469   3.899   5.652
  390DPPC   C3914113   0.547   3.955   5.533
  390DPPC   C4014114   0.487   3.906   5.402
  390DPPC   C4114115   0.545   3.977   5.280
  390DPPC   C4214116   0.482   3.921   5.153
  390DPPC   C4314117   0.515   4.005   5.030
  390DPPC   C4414118   0.445   3.947   4.907
  390DPPC   C4514119   0.455   4.041   4.787
  390DPPC   C4614120   0.382   3.982   4.667
  390DPPC   C4714121   0.372   4.083   4.552
  390DPPC   C4814122   0.510   4.118   4.498
  390DPPC   C4914123   0.499   4.217   4.381
  390DPPC   C5014124   0.430   4.152   4.260
  391DPPC    C114125   2.783   4.050   6.648
  391DPPC    C214126   2.973   4.059   6.506
  391DPPC    C314127   2.859   3.852   6.535
  391DPPC    N414128   2.841   3.997   6.524
  391DPPC    C514129   2.760   4.034   6.406
  391DPPC    C614130   2.612   3.992   6.402
  391DPPC   OS714131   2.544   4.049   6.292
  391DPPC    P814132   2.390   4.025   6.297
  391DPPC   OM914133   2.341   4.107   6.185
  391DPPC  OM1014134   2.347   4.054   6.435
  391DPPC  OS1114135   2.382   3.872   6.265
  391DPPC   C1214136   2.403   3.847   6.126
  391DPPC   C1314137   2.347   3.715   6.072
  391DPPC  OS1414138   2.377   3.699   5.931
  391DPPC   C1514139   2.394   3.574   5.880
  391DPPC   O1614140   2.374   3.469   5.944
  391DPPC   C1714141   2.431   3.583   5.733
  391DPPC   C1814142   2.499   3.456   5.683
  391DPPC   C1914143   2.558   3.479   5.544
  391DPPC   C2014144   2.450   3.502   5.439
  391DPPC   C2114145   2.512   3.512   5.299
  391DPPC   C2214146   2.403   3.523   5.193
  391DPPC   C2314147   2.458   3.512   5.051
  391DPPC   C2414148   2.539   3.634   5.010
  391DPPC   C2514149   2.585   3.621   4.865
  391DPPC   C2614150   2.464   3.618   4.771
  391DPPC   C2714151   2.507   3.605   4.625
  391DPPC   C2814152   2.385   3.597   4.534
  391DPPC   C2914153   2.425   3.587   4.387
  391DPPC   C3014154   2.301   3.580   4.297
  391DPPC   C3114155   2.340   3.575   4.149
  391DPPC   C3214156   2.197   3.710   6.110
  391DPPC  OS3314157   2.119   3.831   6.092
  391DPPC   C3414158   2.058   3.853   5.973
  391DPPC   O3514159   2.036   3.765   5.889
  391DPPC   C3614160   1.994   3.991   5.974
  391DPPC   C3714161   1.883   4.007   5.870
  391DPPC   C3814162   1.940   4.032   5.730
  391DPPC   C3914163   1.828   4.042   5.626
  391DPPC   C4014164   1.890   4.056   5.487
  391DPPC   C4114165   1.784   4.058   5.376
  391DPPC   C4214166   1.854   4.064   5.240
  391DPPC   C4314167   1.756   4.067   5.124
  391DPPC   C4414168   1.833   4.074   4.992
  391DPPC   C4514169   1.741   4.079   4.871
  391DPPC   C4614170   1.825   4.091   4.743
  391DPPC   C4714171   1.737   4.101   4.618
  391DPPC   C4814172   1.825   4.115   4.494
  391DPPC   C4914173   1.740   4.130   4.368
  391DPPC   C5014174   1.829   4.141   4.244
  392DPPC    C114175   1.821   4.046   6.304
  392DPPC    C214176   1.995   4.161   6.423
  392DPPC    C314177   2.006   3.926   6.392
  392DPPC    N414178   1.915   4.038   6.417
  392DPPC    C514179   1.844   4.012   6.545
  392DPPC    C614180   1.739   4.112   6.601
  392DPPC   OS714181   1.622   4.126   6.521
  392DPPC    P814182   1.526   4.238   6.575
  392DPPC   OM914183   1.542   4.263   6.718
  392DPPC  OM1014184   1.391   4.234   6.517
  392DPPC  OS1114185   1.597   4.360   6.506
  392DPPC   C1214186   1.570   4.365   6.366
  392DPPC   C1314187   1.612   4.497   6.298
  392DPPC  OS1414188   1.550   4.520   6.169
  392DPPC   C1514189   1.425   4.574   6.170
  392DPPC   O1614190   1.367   4.603   6.275
  392DPPC   C1714191   1.370   4.597   6.030
  392DPPC   C1814192   1.470   4.668   5.938
  392DPPC   C1914193   1.414   4.672   5.795
  392DPPC   C2014194   1.514   4.733   5.697
  392DPPC   C2114195   1.462   4.722   5.554
  392DPPC   C2214196   1.560   4.779   5.451
  392DPPC   C2314197   1.507   4.759   5.309
  392DPPC   C2414198   1.607   4.807   5.204
  392DPPC   C2514199   1.557   4.777   5.063
  392DPPC   C2614200   1.664   4.813   4.959
  392DPPC   C2714201   1.620   4.776   4.818
  392DPPC   C2814202   1.734   4.801   4.718
  392DPPC   C2914203   1.696   4.759   4.576
  392DPPC   C3014204   1.596   4.857   4.513
  392DPPC   C3114205   1.564   4.817   4.369
  392DPPC   C3214206   1.766   4.498   6.297
  392DPPC  OS3314207   1.829   4.384   6.236
  392DPPC   C3414208   1.902   4.411   6.124
  392DPPC   O3514209   1.982   4.328   6.079
  392DPPC   C3614210   1.896   4.557   6.082
  392DPPC   C3714211   1.960   4.580   5.945
  392DPPC   C3814212   1.872   4.527   5.832
  392DPPC   C3914213   1.939   4.556   5.698
  392DPPC   C4014214   1.858   4.504   5.579
  392DPPC   C4114215   1.932   4.543   5.451
  392DPPC   C4214216   1.864   4.492   5.324
  392DPPC   C4314217   1.949   4.534   5.204
  392DPPC   C4414218   1.895   4.482   5.071
  392DPPC   C4514219   1.993   4.521   4.960
  392DPPC   C4614220   1.950   4.470   4.823
  392DPPC   C4714221   2.054   4.508   4.718
  392DPPC   C4814222   2.014   4.461   4.579
  392DPPC   C4914223   2.121   4.501   4.476
  392DPPC   C5014224   2.082   4.453   4.336
  393DPPC    C114225   4.713   8.191   6.625
  393DPPC    C214226   4.563   8.000   6.624
  393DPPC    C314227   4.747   8.011   6.475
  393DPPC    N414228   4.644   8.091   6.542
  393DPPC    C514229   4.566   8.155   6.434
  393DPPC    C614230   4.444   8.242   6.469
  393DPPC   OS714231   4.394   8.310   6.355
  393DPPC    P814232   4.256   8.380   6.379
  393DPPC   OM914233   4.238   8.403   6.524
  393DPPC  OM1014234   4.241   8.490   6.283
  393DPPC  OS1114235   4.163   8.260   6.344
  393DPPC   C1214236   4.167   8.225   6.206
  393DPPC   C1314237   4.074   8.108   6.174
  393DPPC  OS1414238   4.099   8.045   6.045
  393DPPC   C1514239   4.142   7.916   6.046
  393DPPC   O1614240   4.191   7.861   6.145
  393DPPC   C1714241   4.142   7.860   5.904
  393DPPC   C1814242   4.199   7.964   5.807
  393DPPC   C1914243   4.169   7.928   5.662
  393DPPC   C2014244   4.229   8.034   5.569
  393DPPC   C2114245   4.181   8.017   5.425
  393DPPC   C2214246   4.237   8.131   5.340
  393DPPC   C2314247   4.169   8.141   5.203
  393DPPC   C2414248   4.216   8.035   5.104
  393DPPC   C2514249   4.363   8.055   5.069
  393DPPC   C2614250   4.401   7.981   4.941
  393DPPC   C2714251   4.377   7.830   4.953
  393DPPC   C2814252   4.427   7.760   4.827
  393DPPC   C2914253   4.351   7.808   4.703
  393DPPC   C3014254   4.408   7.745   4.576
  393DPPC   C3114255   4.332   7.794   4.452
  393DPPC   C3214256   3.931   8.160   6.196
  393DPPC  OS3314257   3.897   8.281   6.125
  393DPPC   C3414258   3.766   8.297   6.091
  393DPPC   O3514259   3.683   8.205   6.091
  393DPPC   C3614260   3.743   8.434   6.031
  393DPPC   C3714261   3.680   8.426   5.892
  393DPPC   C3814262   3.783   8.385   5.786
  393DPPC   C3914263   3.720   8.392   5.647
  393DPPC   C4014264   3.821   8.364   5.535
  393DPPC   C4114265   3.754   8.380   5.399
  393DPPC   C4214266   3.852   8.361   5.283
  393DPPC   C4314267   3.778   8.376   5.149
  393DPPC   C4414268   3.872   8.356   5.030
  393DPPC   C4514269   3.972   8.471   5.017
  393DPPC   C4614270   4.072   8.444   4.904
  393DPPC   C4714271   4.004   8.447   4.767
  393DPPC   C4814272   4.105   8.417   4.657
  393DPPC   C4914273   4.039   8.419   4.519
  393DPPC   C5014274   4.141   8.385   4.410
  394DPPC    C114275   3.368   6.870   6.548
  394DPPC    C214276   3.192   6.906   6.703
  394DPPC    C314277   3.152   6.934   6.469
  394DPPC    N414278   3.250   6.953   6.577
  394DPPC    C514279   3.293   7.094   6.584
  394DPPC    C614280   3.189   7.205   6.612
  394DPPC   OS714281   3.223   7.327   6.547
  394DPPC    P814282   3.207   7.450   6.643
  394DPPC   OM914283   3.279   7.414   6.765
  394DPPC  OM1014284   3.063   7.481   6.645
  394DPPC  OS1114285   3.288   7.553   6.556
  394DPPC   C1214286   3.208   7.622   6.460
  394DPPC   C1314287   3.287   7.723   6.376
  394DPPC  OS1414288   3.204   7.806   6.290
  394DPPC   C1514289   3.236   7.938   6.285
  394DPPC   O1614290   3.283   7.998   6.383
  394DPPC   C1714291   3.171   8.002   6.164
  394DPPC   C1814292   3.275   8.073   6.077
  394DPPC   C1914293   3.218   8.100   5.938
  394DPPC   C2014294   3.314   8.180   5.852
  394DPPC   C2114295   3.258   8.197   5.710
  394DPPC   C2214296   3.341   8.298   5.631
  394DPPC   C2314297   3.292   8.307   5.486
  394DPPC   C2414298   3.365   8.419   5.412
  394DPPC   C2514299   3.327   8.422   5.264
  394DPPC   C2614300   3.381   8.299   5.192
  394DPPC   C2714301   3.349   8.302   5.042
  394DPPC   C2814302   3.424   8.415   4.971
  394DPPC   C2914303   3.397   8.410   4.820
  394DPPC   C3014304   3.476   8.519   4.747
  394DPPC   C3114305   3.451   8.512   4.596
  394DPPC   C3214306   3.395   7.646   6.298
  394DPPC  OS3314307   3.349   7.539   6.211
  394DPPC   C3414308   3.324   7.570   6.080
  394DPPC   O3514309   3.377   7.663   6.019
  394DPPC   C3614310   3.259   7.450   6.014
  394DPPC   C3714311   3.287   7.441   5.864
  394DPPC   C3814312   3.217   7.318   5.806
  394DPPC   C3914313   3.256   7.291   5.660
  394DPPC   C4014314   3.196   7.394   5.564
  394DPPC   C4114315   3.233   7.356   5.420
  394DPPC   C4214316   3.170   7.449   5.317
  394DPPC   C4314317   3.204   7.404   5.175
  394DPPC   C4414318   3.138   7.494   5.071
  394DPPC   C4514319   3.167   7.446   4.929
  394DPPC   C4614320   3.097   7.535   4.826
  394DPPC   C4714321   3.125   7.486   4.684
  394DPPC   C4814322   3.054   7.573   4.580
  394DPPC   C4914323   3.085   7.523   4.438
  394DPPC   C5014324   3.019   7.612   4.333
  395DPPC    C114325   0.616   7.840   6.822
  395DPPC    C214326   0.476   7.976   6.955
  395DPPC    C314327   0.564   8.063   6.751
  395DPPC    N414328   0.510   7.942   6.816
  395DPPC    C514329   0.388   7.894   6.747
  395DPPC    C614330   0.393   7.845   6.600
  395DPPC   OS714331   0.460   7.720   6.581
  395DPPC    P814332   0.567   7.726   6.465
  395DPPC   OM914333   0.645   7.604   6.492
  395DPPC  OM1014334   0.626   7.860   6.476
  395DPPC  OS1114335   0.468   7.711   6.343
  395DPPC   C1214336   0.446   7.574   6.314
  395DPPC   C1314337   0.370   7.537   6.186
  395DPPC  OS1414338   0.363   7.391   6.174
  395DPPC   C1514339   0.245   7.333   6.209
  395DPPC   O1614340   0.158   7.393   6.273
  395DPPC   C1714341   0.247   7.184   6.183
  395DPPC   C1814342   0.300   7.153   6.042
  395DPPC   C1914343   0.202   7.197   5.934
  395DPPC   C2014344   0.255   7.158   5.796
  395DPPC   C2114345   0.160   7.199   5.684
  395DPPC   C2214346   0.216   7.152   5.550
  395DPPC   C2314347   0.126   7.191   5.433
  395DPPC   C2414348   0.181   7.132   5.303
  395DPPC   C2514349   0.094   7.169   5.183
  395DPPC   C2614350   0.146   7.099   5.057
  395DPPC   C2714351   0.060   7.132   4.936
  395DPPC   C2814352   0.106   7.050   4.815
  395DPPC   C2914353   0.021   7.079   4.691
  395DPPC   C3014354   0.055   7.216   4.633
  395DPPC   C3114355   0.195   7.216   4.572
  395DPPC   C3214356   0.442   7.607   6.068
  395DPPC  OS3314357   0.394   7.573   5.936
  395DPPC   C3414358   0.287   7.641   5.887
  395DPPC   O3514359   0.223   7.724   5.952
  395DPPC   C3614360   0.252   7.595   5.747
  395DPPC   C3714361   0.332   7.672   5.641
  395DPPC   C3814362   0.300   7.622   5.500
  395DPPC   C3914363   0.158   7.661   5.459
  395DPPC   C4014364   0.120   7.607   5.321
  395DPPC   C4114365   0.203   7.670   5.209
  395DPPC   C4214366   0.152   7.622   5.073
  395DPPC   C4314367   0.237   7.674   4.957
  395DPPC   C4414368   0.177   7.629   4.824
  395DPPC   C4514369   0.050   7.708   4.791
  395DPPC   C4614370  10.132   7.645   4.674
  395DPPC   C4714371   0.057   7.646   4.545
  395DPPC   C4814372  10.138   7.576   4.432
  395DPPC   C4914373   0.066   7.564   4.306
  395DPPC   C5014374   0.092   7.701   4.243
  396DPPC    C114375   9.959   4.117   6.317
  396DPPC    C214376   9.864   4.173   6.528
  396DPPC    C314377  10.077   4.071   6.521
  396DPPC    N414378   9.945   4.074   6.456
  396DPPC    C514379   9.875   3.944   6.465
  396DPPC    C614380   9.944   3.815   6.414
  396DPPC   OS714381   9.848   3.715   6.379
  396DPPC    P814382   9.904   3.572   6.350
  396DPPC   OM914383   9.815   3.489   6.433
  396DPPC  OM1014384  10.050   3.567   6.367
  396DPPC  OS1114385   9.861   3.560   6.200
  396DPPC   C1214386   9.961   3.605   6.110
  396DPPC   C1314387   9.918   3.619   5.962
  396DPPC  OS1414388   9.844   3.741   5.932
  396DPPC   C1514389   9.912   3.831   5.856
  396DPPC   O1614390  10.029   3.812   5.821
  396DPPC   C1714391   9.832   3.957   5.828
  396DPPC   C1814392   9.726   3.933   5.720
  396DPPC   C1914393   9.642   4.059   5.696
  396DPPC   C2014394   9.527   4.031   5.600
  396DPPC   C2114395   9.576   3.999   5.459
  396DPPC   C2214396   9.459   3.972   5.364
  396DPPC   C2314397   9.510   3.942   5.224
  396DPPC   C2414398   9.397   3.920   5.123
  396DPPC   C2514399   9.458   3.882   4.988
  396DPPC   C2614400   9.354   3.856   4.879
  396DPPC   C2714401   9.423   3.801   4.754
  396DPPC   C2814402   9.323   3.763   4.645
  396DPPC   C2914403   9.393   3.690   4.531
  396DPPC   C3014404   9.478   3.785   4.446
  396DPPC   C3114405   9.390   3.871   4.356
  396DPPC   C3214406   9.851   3.487   5.922
  396DPPC  OS3314407   9.942   3.375   5.919
  396DPPC   C3414408   9.884   3.254   5.897
  396DPPC   O3514409   9.764   3.238   5.874
  396DPPC   C3614410   9.989   3.145   5.893
  396DPPC   C3714411  10.090   3.172   5.781
  396DPPC   C3814412  10.028   3.141   5.645
  396DPPC   C3914413  10.123   3.183   5.532
  396DPPC   C4014414  10.070   3.137   5.397
  396DPPC   C4114415   0.007   3.182   5.286
  396DPPC   C4214416  10.131   3.115   5.153
  396DPPC   C4314417   0.074   3.157   5.046
  396DPPC   C4414418   0.054   3.074   4.919
  396DPPC   C4514419   0.158   3.111   4.813
  396DPPC   C4614420   0.145   3.017   4.693
  396DPPC   C4714421   0.249   3.050   4.586
  396DPPC   C4814422   0.243   2.945   4.475
  396DPPC   C4914423   0.346   2.976   4.366
  396DPPC   C5014424   0.350   2.863   4.263
  397DPPC    C114425   4.472   3.325   6.530
  397DPPC    C214426   4.451   3.449   6.332
  397DPPC    C314427   4.653   3.464   6.456
  397DPPC    N414428   4.547   3.373   6.413
  397DPPC    C514429   4.599   3.261   6.331
  397DPPC    C614430   4.705   3.166   6.393
  397DPPC   OS714431   4.745   3.056   6.311
  397DPPC    P814432   4.875   2.989   6.370
  397DPPC   OM914433   4.825   2.919   6.490
  397DPPC  OM1014434   4.976   3.095   6.379
  397DPPC  OS1114435   4.909   2.885   6.259
  397DPPC   C1214436   4.956   2.949   6.140
  397DPPC   C1314437   5.009   2.850   6.034
  397DPPC  OS1414438   5.066   2.916   5.918
  397DPPC   C1514439   5.152   2.844   5.841
  397DPPC   O1614440   5.193   2.732   5.874
  397DPPC   C1714441   5.198   2.922   5.718
  397DPPC   C1814442   5.322   2.855   5.658
  397DPPC   C1914443   5.371   2.925   5.531
  397DPPC   C2014444   5.279   2.901   5.412
  397DPPC   C2114445   5.338   2.964   5.286
  397DPPC   C2214446   5.253   2.939   5.161
  397DPPC   C2314447   5.316   3.013   5.043
  397DPPC   C2414448   5.237   3.003   4.913
  397DPPC   C2514449   5.303   3.095   4.810
  397DPPC   C2614450   5.231   3.094   4.675
  397DPPC   C2714451   5.295   3.198   4.583
  397DPPC   C2814452   5.268   3.339   4.635
  397DPPC   C2914453   5.345   3.444   4.554
  397DPPC   C3014454   5.495   3.432   4.581
  397DPPC   C3114455   5.575   3.535   4.501
  397DPPC   C3214456   4.896   2.748   6.008
  397DPPC  OS3314457   4.768   2.803   5.974
  397DPPC   C3414458   4.663   2.716   5.974
  397DPPC   O3514459   4.674   2.596   6.000
  397DPPC   C3614460   4.534   2.787   5.939
  397DPPC   C3714461   4.474   2.734   5.809
  397DPPC   C3814462   4.554   2.779   5.687
  397DPPC   C3914463   4.489   2.728   5.559
  397DPPC   C4014464   4.562   2.777   5.434
  397DPPC   C4114465   4.489   2.728   5.308
  397DPPC   C4214466   4.556   2.781   5.182
  397DPPC   C4314467   4.479   2.736   5.057
  397DPPC   C4414468   4.542   2.796   4.931
  397DPPC   C4514469   4.467   2.754   4.805
  397DPPC   C4614470   4.528   2.819   4.682
  397DPPC   C4714471   4.454   2.776   4.555
  397DPPC   C4814472   4.513   2.843   4.431
  397DPPC   C4914473   4.441   2.796   4.305
  397DPPC   C5014474   4.465   2.647   4.280
  398DPPC    C114475   2.556   4.446   6.305
  398DPPC    C214476   2.661   4.658   6.326
  398DPPC    C314477   2.604   4.576   6.109
  398DPPC    N414478   2.652   4.538   6.242
  398DPPC    C514479   2.789   4.481   6.236
  398DPPC    C614480   2.814   4.348   6.161
  398DPPC   OS714481   2.951   4.310   6.162
  398DPPC    P814482   2.974   4.194   6.059
  398DPPC   OM914483   2.914   4.237   5.932
  398DPPC  OM1014484   2.938   4.072   6.132
  398DPPC  OS1114485   3.131   4.208   6.054
  398DPPC   C1214486   3.169   4.323   5.977
  398DPPC   C1314487   3.318   4.358   5.983
  398DPPC  OS1414488   3.348   4.491   5.930
  398DPPC   C1514489   3.471   4.544   5.958
  398DPPC   O1614490   3.535   4.510   6.058
  398DPPC   C1714491   3.492   4.674   5.882
  398DPPC   C1814492   3.450   4.661   5.736
  398DPPC   C1914493   3.556   4.592   5.650
  398DPPC   C2014494   3.504   4.577   5.508
  398DPPC   C2114495   3.613   4.531   5.410
  398DPPC   C2214496   3.552   4.512   5.272
  398DPPC   C2314497   3.658   4.481   5.166
  398DPPC   C2414498   3.589   4.457   5.031
  398DPPC   C2514499   3.689   4.446   4.915
  398DPPC   C2614500   3.743   4.583   4.875
  398DPPC   C2714501   3.630   4.674   4.825
  398DPPC   C2814502   3.684   4.806   4.768
  398DPPC   C2914503   3.739   4.786   4.627
  398DPPC   C3014504   3.626   4.755   4.529
  398DPPC   C3114505   3.679   4.734   4.387
  398DPPC   C3214506   3.392   4.237   5.922
  398DPPC  OS3314507   3.365   4.207   5.783
  398DPPC   C3414508   3.406   4.084   5.742
  398DPPC   O3514509   3.450   3.998   5.818
  398DPPC   C3614510   3.391   4.066   5.592
  398DPPC   C3714511   3.482   4.164   5.519
  398DPPC   C3814512   3.536   4.106   5.388
  398DPPC   C3914513   3.426   4.086   5.284
  398DPPC   C4014514   3.488   4.036   5.154
  398DPPC   C4114515   3.381   4.016   5.047
  398DPPC   C4214516   3.443   3.979   4.912
  398DPPC   C4314517   3.531   4.095   4.864
  398DPPC   C4414518   3.588   4.070   4.725
  398DPPC   C4514519   3.478   4.076   4.619
  398DPPC   C4614520   3.541   4.073   4.479
  398DPPC   C4714521   3.624   4.199   4.457
  398DPPC   C4814522   3.691   4.198   4.320
  398DPPC   C4914523   3.776   4.324   4.301
  398DPPC   C5014524   3.847   4.321   4.165
  399DPPC    C114525   1.778   2.536   6.026
  399DPPC    C214526   1.747   2.535   6.260
  399DPPC    C314527   1.877   2.705   6.161
  399DPPC    N414528   1.757   2.622   6.143
  399DPPC    C514529   1.636   2.705   6.122
  399DPPC    C614530   1.589   2.807   6.229
  399DPPC   OS714531   1.679   2.915   6.251
  399DPPC    P814532   1.628   3.022   6.355
  399DPPC   OM914533   1.512   2.971   6.430
  399DPPC  OM1014534   1.749   3.064   6.426
  399DPPC  OS1114535   1.581   3.135   6.257
  399DPPC   C1214536   1.690   3.197   6.189
  399DPPC   C1314537   1.686   3.178   6.037
  399DPPC  OS1414538   1.812   3.203   5.969
  399DPPC   C1514539   1.836   3.125   5.859
  399DPPC   O1614540   1.761   3.032   5.827
  399DPPC   C1714541   1.969   3.157   5.792
  399DPPC   C1814542   1.998   3.068   5.671
  399DPPC   C1914543   1.921   3.115   5.548
  399DPPC   C2014544   1.953   3.029   5.425
  399DPPC   C2114545   1.888   3.091   5.301
  399DPPC   C2214546   1.920   3.014   5.173
  399DPPC   C2314547   1.870   3.092   5.052
  399DPPC   C2414548   1.898   3.019   4.921
  399DPPC   C2514549   1.866   3.112   4.804
  399DPPC   C2614550   1.891   3.047   4.668
  399DPPC   C2714551   1.887   3.153   4.558
  399DPPC   C2814552   1.907   3.093   4.419
  399DPPC   C2914553   1.927   3.204   4.315
  399DPPC   C3014554   1.802   3.291   4.301
  399DPPC   C3114555   1.689   3.216   4.229
  399DPPC   C3214556   1.565   3.260   5.987
  399DPPC  OS3314557   1.575   3.402   6.012
  399DPPC   C3414558   1.536   3.481   5.909
  399DPPC   O3514559   1.473   3.438   5.811
  399DPPC   C3614560   1.558   3.628   5.942
  399DPPC   C3714561   1.473   3.720   5.854
  399DPPC   C3814562   1.531   3.733   5.713
  399DPPC   C3914563   1.431   3.798   5.617
  399DPPC   C4014564   1.487   3.793   5.474
  399DPPC   C4114565   1.387   3.843   5.371
  399DPPC   C4214566   1.444   3.821   5.231
  399DPPC   C4314567   1.346   3.860   5.121
  399DPPC   C4414568   1.403   3.822   4.984
  399DPPC   C4514569   1.303   3.852   4.872
  399DPPC   C4614570   1.357   3.802   4.738
  399DPPC   C4714571   1.254   3.825   4.627
  399DPPC   C4814572   1.303   3.768   4.493
  399DPPC   C4914573   1.418   3.851   4.436
  399DPPC   C5014574   1.370   3.989   4.391
  400DPPC    C114575   9.406   3.431   6.353
  400DPPC    C214576   9.370   3.536   6.140
  400DPPC    C314577   9.568   3.412   6.178
  400DPPC    N414578   9.471   3.501   6.242
  400DPPC    C514579   9.545   3.622   6.285
  400DPPC    C614580   9.480   3.729   6.375
  400DPPC   OS714581   9.360   3.782   6.321
  400DPPC    P814582   9.311   3.911   6.394
  400DPPC   OM914583   9.377   4.018   6.318
  400DPPC  OM1014584   9.335   3.893   6.538
  400DPPC  OS1114585   9.157   3.908   6.358
  400DPPC   C1214586   9.131   3.887   6.218
  400DPPC   C1314587   9.134   4.010   6.125
  400DPPC  OS1414588   9.004   4.074   6.108
  400DPPC   C1514589   9.009   4.207   6.079
  400DPPC   O1614590   9.113   4.273   6.086
  400DPPC   C1714591   8.869   4.263   6.057
  400DPPC   C1814592   8.851   4.325   5.919
  400DPPC   C1914593   8.712   4.386   5.904
  400DPPC   C2014594   8.693   4.450   5.766
  400DPPC   C2114595   8.687   4.344   5.656
  400DPPC   C2214596   8.676   4.408   5.518
  400DPPC   C2314597   8.668   4.300   5.410
  400DPPC   C2414598   8.669   4.359   5.269
  400DPPC   C2514599   8.666   4.246   5.166
  400DPPC   C2614600   8.687   4.301   5.024
  400DPPC   C2714601   8.567   4.382   4.978
  400DPPC   C2814602   8.596   4.447   4.842
  400DPPC   C2914603   8.613   4.342   4.732
  400DPPC   C3014604   8.646   4.410   4.599
  400DPPC   C3114605   8.666   4.306   4.488
  400DPPC   C3214606   9.199   3.961   5.994
  400DPPC  OS3314607   9.127   3.855   5.929
  400DPPC   C3414608   9.177   3.818   5.808
  400DPPC   O3514609   9.278   3.867   5.758
  400DPPC   C3614610   9.088   3.714   5.742
  400DPPC   C3714611   9.118   3.708   5.592
  400DPPC   C3814612   9.016   3.619   5.521
  400DPPC   C3914613   9.051   3.607   5.373
  400DPPC   C4014614   8.948   3.520   5.299
  400DPPC   C4114615   8.996   3.492   5.157
  400DPPC   C4214616   9.006   3.621   5.076
  400DPPC   C4314617   9.066   3.594   4.939
  400DPPC   C4414618   8.977   3.502   4.855
  400DPPC   C4514619   9.035   3.488   4.715
  400DPPC   C4614620   8.947   3.402   4.625
  400DPPC   C4714621   8.997   3.413   4.481
  400DPPC   C4814622   8.979   3.556   4.432
  400DPPC   C4914623   9.034   3.575   4.291
  400DPPC   C5014624   9.016   3.719   4.244
  401DPPC    C114625   1.056   4.915   6.411
  401DPPC    C214626   0.903   4.825   6.251
  401DPPC    C314627   1.055   4.683   6.360
  401DPPC    N414628   0.969   4.801   6.380
  401DPPC    C514629   0.871   4.772   6.488
  401DPPC    C614630   0.778   4.886   6.537
  401DPPC   OS714631   0.688   4.937   6.438
  401DPPC    P814632   0.678   5.094   6.440
  401DPPC   OM914633   0.543   5.129   6.483
  401DPPC  OM1014634   0.796   5.150   6.506
  401DPPC  OS1114635   0.702   5.110   6.286
  401DPPC   C1214636   0.582   5.136   6.213
  401DPPC   C1314637   0.613   5.148   6.063
  401DPPC  OS1414638   0.498   5.190   5.984
  401DPPC   C1514639   0.518   5.293   5.898
  401DPPC   O1614640   0.613   5.372   5.908
  401DPPC   C1714641   0.400   5.306   5.804
  401DPPC   C1814642   0.372   5.451   5.764
  401DPPC   C1914643   0.279   5.454   5.643
  401DPPC   C2014644   0.355   5.405   5.519
  401DPPC   C2114645   0.270   5.416   5.392
  401DPPC   C2214646   0.355   5.381   5.270
  401DPPC   C2314647   0.275   5.396   5.140
  401DPPC   C2414648   0.364   5.369   5.019
  401DPPC   C2514649   0.284   5.383   4.889
  401DPPC   C2614650   0.372   5.356   4.767
  401DPPC   C2714651   0.291   5.367   4.639
  401DPPC   C2814652   0.377   5.339   4.516
  401DPPC   C2914653   0.294   5.353   4.388
  401DPPC   C3014654   0.380   5.330   4.264
  401DPPC   C3114655   0.299   5.351   4.136
  401DPPC   C3214656   0.670   5.011   6.023
  401DPPC  OS3314657   0.745   5.008   5.900
  401DPPC   C3414658   0.797   4.887   5.866
  401DPPC   O3514659   0.806   4.791   5.943
  401DPPC   C3614660   0.862   4.894   5.729
  401DPPC   C3714661   1.000   4.961   5.736
  401DPPC   C3814662   1.059   4.969   5.596
  401DPPC   C3914663   1.080   4.829   5.541
  401DPPC   C4014664   1.114   4.833   5.392
  401DPPC   C4114665   0.999   4.897   5.315
  401DPPC   C4214666   1.010   4.868   5.165
  401DPPC   C4314667   1.136   4.929   5.104
  401DPPC   C4414668   1.138   4.897   4.955
  401DPPC   C4514669   1.146   4.745   4.933
  401DPPC   C4614670   1.125   4.711   4.786
  401DPPC   C4714671   1.237   4.770   4.700
  401DPPC   C4814672   1.210   4.743   4.552
  401DPPC   C4914673   1.090   4.824   4.503
  401DPPC   C5014674   1.062   4.796   4.355
  402DPPC    C114675   0.476   6.700   6.712
  402DPPC    C214676   0.676   6.586   6.660
  402DPPC    C314677   0.672   6.825   6.658
  402DPPC    N414678   0.595   6.704   6.626
  402DPPC    C514679   0.550   6.703   6.485
  402DPPC    C614680   0.650   6.684   6.368
  402DPPC   OS714681   0.695   6.550   6.349
  402DPPC    P814682   0.816   6.545   6.251
  402DPPC   OM914683   0.933   6.557   6.339
  402DPPC  OM1014684   0.788   6.634   6.138
  402DPPC  OS1114685   0.806   6.393   6.212
  402DPPC   C1214686   0.749   6.373   6.084
  402DPPC   C1314687   0.748   6.224   6.045
  402DPPC  OS1414688   0.723   6.204   5.903
  402DPPC   C1514689   0.818   6.132   5.838
  402DPPC   O1614690   0.911   6.075   5.895
  402DPPC   C1714691   0.796   6.135   5.687
  402DPPC   C1814692   0.930   6.115   5.616
  402DPPC   C1914693   0.931   6.179   5.477
  402DPPC   C2014694   0.854   6.100   5.372
  402DPPC   C2114695   0.866   6.173   5.238
  402DPPC   C2214696   0.809   6.096   5.119
  402DPPC   C2314697   0.823   6.182   4.994
  402DPPC   C2414698   0.779   6.112   4.865
  402DPPC   C2514699   0.783   6.212   4.749
  402DPPC   C2614700   0.756   6.144   4.614
  402DPPC   C2714701   0.874   6.055   4.575
  402DPPC   C2814702   0.855   5.995   4.436
  402DPPC   C2914703   0.974   5.907   4.400
  402DPPC   C3014704   0.958   5.846   4.261
  402DPPC   C3114705   1.079   5.758   4.226
  402DPPC   C3214706   0.654   6.156   6.146
  402DPPC  OS3314707   0.637   6.014   6.132
  402DPPC   C3414708   0.509   5.975   6.106
  402DPPC   O3514709   0.411   6.039   6.143
  402DPPC   C3614710   0.505   5.827   6.071
  402DPPC   C3714711   0.421   5.806   5.945
  402DPPC   C3814712   0.501   5.848   5.822
  402DPPC   C3914713   0.417   5.835   5.695
  402DPPC   C4014714   0.504   5.852   5.571
  402DPPC   C4114715   0.421   5.834   5.444
  402DPPC   C4214716   0.512   5.834   5.321
  402DPPC   C4314717   0.430   5.818   5.192
  402DPPC   C4414718   0.524   5.806   5.072
  402DPPC   C4514719   0.446   5.796   4.941
  402DPPC   C4614720   0.543   5.774   4.825
  402DPPC   C4714721   0.469   5.767   4.692
  402DPPC   C4814722   0.567   5.734   4.579
  402DPPC   C4914723   0.495   5.727   4.444
  402DPPC   C5014724   0.593   5.687   4.334
  403DPPC    C114725   3.443   5.096   6.323
  403DPPC    C214726   3.423   4.903   6.182
  403DPPC    C314727   3.408   4.880   6.417
  403DPPC    N414728   3.373   4.968   6.304
  403DPPC    C514729   3.225   4.983   6.303
  403DPPC    C614730   3.157   5.067   6.191
  403DPPC   OS714731   3.015   5.078   6.201
  403DPPC    P814732   2.968   5.194   6.106
  403DPPC   OM914733   3.019   5.312   6.176
  403DPPC  OM1014734   3.009   5.149   5.972
  403DPPC  OS1114735   2.815   5.174   6.134
  403DPPC   C1214736   2.749   5.102   6.029
  403DPPC   C1314737   2.601   5.071   6.054
  403DPPC  OS1414738   2.544   4.986   5.950
  403DPPC   C1514739   2.419   4.934   5.962
  403DPPC   O1614740   2.352   4.939   6.066
  403DPPC   C1714741   2.380   4.859   5.836
  403DPPC   C1814742   2.479   4.890   5.724
  403DPPC   C1914743   2.429   4.842   5.587
  403DPPC   C2014744   2.433   4.690   5.573
  403DPPC   C2114745   2.382   4.650   5.434
  403DPPC   C2214746   2.470   4.711   5.325
  403DPPC   C2314747   2.426   4.667   5.186
  403DPPC   C2414748   2.513   4.735   5.080
  403DPPC   C2514749   2.476   4.689   4.938
  403DPPC   C2614750   2.557   4.768   4.835
  403DPPC   C2714751   2.526   4.722   4.692
  403DPPC   C2814752   2.579   4.581   4.668
  403DPPC   C2914753   2.558   4.538   4.522
  403DPPC   C3014754   2.647   4.620   4.428
  403DPPC   C3114755   2.795   4.585   4.447
  403DPPC   C3214756   2.531   5.206   6.078
  403DPPC  OS3314757   2.544   5.304   5.973
  403DPPC   C3414758   2.434   5.378   5.945
  403DPPC   O3514759   2.325   5.365   6.003
  403DPPC   C3614760   2.462   5.477   5.834
  403DPPC   C3714761   2.538   5.411   5.719
  403DPPC   C3814762   2.448   5.326   5.629
  403DPPC   C3914763   2.531   5.261   5.518
  403DPPC   C4014764   2.442   5.196   5.411
  403DPPC   C4114765   2.528   5.135   5.301
  403DPPC   C4214766   2.610   5.243   5.231
  403DPPC   C4314767   2.698   5.186   5.119
  403DPPC   C4414768   2.617   5.150   4.995
  403DPPC   C4514769   2.565   5.276   4.925
  403DPPC   C4614770   2.497   5.241   4.793
  403DPPC   C4714771   2.599   5.188   4.692
  403DPPC   C4814772   2.533   5.156   4.558
  403DPPC   C4914773   2.636   5.105   4.457
  403DPPC   C5014774   2.571   5.076   4.322
  404DPPC    C114775   0.969   5.478   6.331
  404DPPC    C214776   1.167   5.348   6.340
  404DPPC    C314777   1.119   5.480   6.146
  404DPPC    N414778   1.060   5.395   6.251
  404DPPC    C514779   0.980   5.284   6.194
  404DPPC    C614780   1.045   5.182   6.098
  404DPPC   OS714781   1.147   5.102   6.158
  404DPPC    P814782   1.222   5.013   6.052
  404DPPC   OM914783   1.246   5.104   5.939
  404DPPC  OM1014784   1.141   4.892   6.044
  404DPPC  OS1114785   1.353   4.989   6.136
  404DPPC   C1214786   1.439   5.102   6.128
  404DPPC   C1314787   1.573   5.097   6.204
  404DPPC  OS1414788   1.633   5.230   6.212
  404DPPC   C1514789   1.735   5.251   6.300
  404DPPC   O1614790   1.762   5.172   6.391
  404DPPC   C1714791   1.793   5.390   6.284
  404DPPC   C1814792   1.786   5.441   6.140
  404DPPC   C1914793   1.892   5.378   6.049
  404DPPC   C2014794   1.867   5.425   5.905
  404DPPC   C2114795   1.977   5.381   5.808
  404DPPC   C2214796   1.939   5.426   5.667
  404DPPC   C2314797   2.046   5.394   5.563
  404DPPC   C2414798   1.993   5.433   5.425
  404DPPC   C2514799   2.095   5.407   5.314
  404DPPC   C2614800   2.033   5.442   5.179
  404DPPC   C2714801   2.129   5.420   5.062
  404DPPC   C2814802   2.061   5.461   4.932
  404DPPC   C2914803   2.153   5.443   4.811
  404DPPC   C3014804   2.084   5.489   4.683
  404DPPC   C3114805   2.176   5.473   4.562
  404DPPC   C3214806   1.658   4.986   6.138
  404DPPC  OS3314807   1.673   4.998   5.995
  404DPPC   C3414808   1.796   4.975   5.943
  404DPPC   O3514809   1.899   4.957   6.009
  404DPPC   C3614810   1.793   4.990   5.792
  404DPPC   C3714811   1.930   4.965   5.730
  404DPPC   C3814812   1.929   4.993   5.580
  404DPPC   C3914813   2.068   4.971   5.521
  404DPPC   C4014814   2.077   5.017   5.375
  404DPPC   C4114815   1.999   4.927   5.281
  404DPPC   C4214816   2.014   4.974   5.136
  404DPPC   C4314817   2.161   4.968   5.094
  404DPPC   C4414818   2.180   5.006   4.946
  404DPPC   C4514819   2.119   4.899   4.855
  404DPPC   C4614820   2.145   4.929   4.708
  404DPPC   C4714821   2.072   5.056   4.664
  404DPPC   C4814822   2.088   5.080   4.513
  404DPPC   C4914823   2.012   4.974   4.434
  404DPPC   C5014824   2.019   5.001   4.284
  405DPPC    C114825   1.281   6.108   6.287
  405DPPC    C214826   1.144   6.167   6.100
  405DPPC    C314827   1.045   6.093   6.304
  405DPPC    N414828   1.154   6.171   6.247
  405DPPC    C514829   1.142   6.311   6.296
  405DPPC    C614830   1.246   6.417   6.251
  405DPPC   OS714831   1.377   6.395   6.303
  405DPPC    P814832   1.485   6.481   6.228
  405DPPC   OM914833   1.557   6.555   6.332
  405DPPC  OM1014834   1.430   6.541   6.106
  405DPPC  OS1114835   1.577   6.363   6.183
  405DPPC   C1214836   1.675   6.412   6.093
  405DPPC   C1314837   1.772   6.304   6.041
  405DPPC  OS1414838   1.873   6.356   5.950
  405DPPC   C1514839   2.001   6.341   5.994
  405DPPC   O1614840   2.027   6.293   6.105
  405DPPC   C1714841   2.102   6.388   5.891
  405DPPC   C1814842   2.112   6.288   5.776
  405DPPC   C1914843   2.208   6.340   5.669
  405DPPC   C2014844   2.220   6.243   5.552
  405DPPC   C2114845   2.311   6.302   5.444
  405DPPC   C2214846   2.312   6.218   5.317
  405DPPC   C2314847   2.396   6.286   5.209
  405DPPC   C2414848   2.390   6.210   5.077
  405DPPC   C2514849   2.476   6.279   4.971
  405DPPC   C2614850   2.469   6.204   4.838
  405DPPC   C2714851   2.337   6.229   4.766
  405DPPC   C2814852   2.333   6.370   4.708
  405DPPC   C2914853   2.204   6.393   4.629
  405DPPC   C3014854   2.202   6.533   4.567
  405DPPC   C3114855   2.310   6.547   4.459
  405DPPC   C3214856   1.685   6.190   5.984
  405DPPC  OS3314857   1.601   6.224   5.872
  405DPPC   C3414858   1.479   6.164   5.866
  405DPPC   O3514859   1.434   6.089   5.953
  405DPPC   C3614860   1.407   6.202   5.738
  405DPPC   C3714861   1.387   6.079   5.650
  405DPPC   C3814862   1.334   6.118   5.512
  405DPPC   C3914863   1.334   5.997   5.418
  405DPPC   C4014864   1.282   6.036   5.279
  405DPPC   C4114865   1.288   5.917   5.183
  405DPPC   C4214866   1.224   5.953   5.049
  405DPPC   C4314867   1.304   6.058   4.973
  405DPPC   C4414868   1.231   6.099   4.845
  405DPPC   C4514869   1.229   5.986   4.742
  405DPPC   C4614870   1.367   5.968   4.678
  405DPPC   C4714871   1.365   5.856   4.575
  405DPPC   C4814872   1.503   5.843   4.509
  405DPPC   C4914873   1.508   5.729   4.407
  405DPPC   C5014874   1.648   5.719   4.347
  406DPPC    C114875   0.076   5.844   6.510
  406DPPC    C214876   0.077   6.070   6.441
  406DPPC    C314877   0.180   5.902   6.306
  406DPPC    N414878   0.157   5.947   6.444
  406DPPC    C514879   0.283   5.961   6.521
  406DPPC    C614880   0.387   6.069   6.484
  406DPPC   OS714881   0.343   6.203   6.510
  406DPPC    P814882   0.454   6.311   6.483
  406DPPC   OM914883   0.399   6.427   6.554
  406DPPC  OM1014884   0.586   6.256   6.515
  406DPPC  OS1114885   0.433   6.330   6.328
  406DPPC   C1214886   0.318   6.409   6.298
  406DPPC   C1314887   0.314   6.468   6.156
  406DPPC  OS1414888   0.195   6.549   6.132
  406DPPC   C1514889   0.205   6.683   6.156
  406DPPC   O1614890   0.271   6.728   6.249
  406DPPC   C1714891   0.082   6.752   6.099
  406DPPC   C1814892   0.105   6.812   5.960
  406DPPC   C1914893   0.116   6.706   5.850
  406DPPC   C2014894   0.122   6.773   5.712
  406DPPC   C2114895   0.137   6.670   5.600
  406DPPC   C2214896   0.125   6.737   5.464
  406DPPC   C2314897   0.137   6.636   5.350
  406DPPC   C2414898   0.111   6.704   5.215
  406DPPC   C2514899   0.124   6.606   5.099
  406DPPC   C2614900   0.091   6.676   4.966
  406DPPC   C2714901   0.104   6.580   4.848
  406DPPC   C2814902   0.067   6.651   4.717
  406DPPC   C2914903   0.075   6.555   4.598
  406DPPC   C3014904   0.033   6.625   4.468
  406DPPC   C3114905   0.036   6.529   4.350
  406DPPC   C3214906   0.324   6.346   6.063
  406DPPC  OS3314907   0.380   6.373   5.934
  406DPPC   C3414908   0.366   6.274   5.842
  406DPPC   O3514909   0.301   6.171   5.860
  406DPPC   C3614910   0.432   6.314   5.711
  406DPPC   C3714911   0.357   6.253   5.593
  406DPPC   C3814912   0.424   6.292   5.461
  406DPPC   C3914913   0.342   6.237   5.344
  406DPPC   C4014914   0.406   6.272   5.209
  406DPPC   C4114915   0.318   6.220   5.096
  406DPPC   C4214916   0.379   6.250   4.959
  406DPPC   C4314917   0.286   6.199   4.849
  406DPPC   C4414918   0.346   6.224   4.711
  406DPPC   C4514919   0.250   6.176   4.602
  406DPPC   C4614920   0.314   6.194   4.464
  406DPPC   C4714921   0.219   6.148   4.353
  406DPPC   C4814922   0.289   6.159   4.218
  406DPPC   C4914923   0.406   6.060   4.212
  406DPPC   C5014924   0.476   6.066   4.076
  407DPPC    C114925   2.808   6.700   6.276
  407DPPC    C214926   2.622   6.554   6.292
  407DPPC    C314927   2.787   6.549   6.462
  407DPPC    N414928   2.714   6.637   6.370
  407DPPC    C514929   2.634   6.739   6.443
  407DPPC    C614930   2.703   6.836   6.543
  407DPPC   OS714931   2.797   6.925   6.483
  407DPPC    P814932   2.813   7.056   6.568
  407DPPC   OM914933   2.678   7.107   6.593
  407DPPC  OM1014934   2.906   7.022   6.677
  407DPPC  OS1114935   2.889   7.141   6.461
  407DPPC   C1214936   2.804   7.178   6.352
  407DPPC   C1314937   2.876   7.244   6.234
  407DPPC  OS1414938   2.957   7.150   6.156
  407DPPC   C1514939   2.892   7.089   6.052
  407DPPC   O1614940   2.775   7.116   6.021
  407DPPC   C1714941   2.977   6.981   5.989
  407DPPC   C1814942   2.913   6.922   5.863
  407DPPC   C1914943   2.932   7.015   5.743
  407DPPC   C2014944   2.867   6.957   5.617
  407DPPC   C2114945   2.898   7.047   5.497
  407DPPC   C2214946   2.835   6.994   5.368
  407DPPC   C2314947   2.883   7.079   5.250
  407DPPC   C2414948   2.821   7.033   5.118
  407DPPC   C2514949   2.877   7.119   5.004
  407DPPC   C2614950   2.810   7.087   4.870
  407DPPC   C2714951   2.865   7.180   4.762
  407DPPC   C2814952   2.793   7.162   4.628
  407DPPC   C2914953   2.823   7.026   4.566
  407DPPC   C3014954   2.757   7.015   4.428
  407DPPC   C3114955   2.820   7.115   4.331
  407DPPC   C3214956   2.950   7.365   6.295
  407DPPC  OS3314957   2.970   7.479   6.210
  407DPPC   C3414958   2.866   7.567   6.199
  407DPPC   O3514959   2.751   7.542   6.234
  407DPPC   C3614960   2.907   7.688   6.116
  407DPPC   C3714961   2.931   7.649   5.970
  407DPPC   C3814962   2.972   7.769   5.885
  407DPPC   C3914963   3.000   7.726   5.741
  407DPPC   C4014964   3.030   7.845   5.651
  407DPPC   C4114965   3.059   7.796   5.508
  407DPPC   C4214966   3.075   7.912   5.410
  407DPPC   C4314967   3.103   7.857   5.270
  407DPPC   C4414968   3.105   7.968   5.165
  407DPPC   C4514969   3.134   7.911   5.026
  407DPPC   C4614970   3.120   8.019   4.919
  407DPPC   C4714971   3.148   7.966   4.778
  407DPPC   C4814972   3.297   7.938   4.758
  407DPPC   C4914973   3.323   7.888   4.615
  407DPPC   C5014974   3.291   7.996   4.513
  408DPPC    C114975   3.196   6.147   6.208
  408DPPC    C214976   3.220   6.172   6.443
  408DPPC    C314977   3.003   6.139   6.351
  408DPPC    N414978   3.133   6.204   6.329
  408DPPC    C514979   3.117   6.350   6.319
  408DPPC    C614980   3.043   6.411   6.197
  408DPPC   OS714981   2.907   6.374   6.181
  408DPPC    P814982   2.874   6.375   6.028
  408DPPC   OM914983   2.973   6.284   5.967
  408DPPC  OM1014984   2.858   6.517   5.994
  408DPPC  OS1114985   2.734   6.306   6.036
  408DPPC   C1214986   2.713   6.220   5.923
  408DPPC   C1314987   2.575   6.233   5.858
  408DPPC  OS1414988   2.539   6.123   5.770
  408DPPC   C1514989   2.470   6.018   5.823
  408DPPC   O1614990   2.451   6.005   5.944
  408DPPC   C1714991   2.432   5.916   5.717
  408DPPC   C1814992   2.547   5.891   5.620
  408DPPC   C1914993   2.514   5.774   5.527
  408DPPC   C2014994   2.632   5.744   5.434
  408DPPC   C2114995   2.609   5.613   5.358
  408DPPC   C2214996   2.499   5.626   5.253
  408DPPC   C2314997   2.551   5.699   5.129
  408DPPC   C2414998   2.445   5.701   5.019
  408DPPC   C2514999   2.499   5.768   4.893
  408DPPC   C2615000   2.394   5.773   4.783
  408DPPC   C2715001   2.448   5.844   4.659
  408DPPC   C2815002   2.339   5.858   4.553
  408DPPC   C2915003   2.390   5.942   4.435
  408DPPC   C3015004   2.280   5.961   4.331
  408DPPC   C3115005   2.327   6.052   4.217
  408DPPC   C3215006   2.570   6.373   5.794
  408DPPC  OS3315007   2.677   6.403   5.703
  408DPPC   C3415008   2.640   6.491   5.606
  408DPPC   O3515009   2.526   6.535   5.593
  408DPPC   C3615010   2.752   6.518   5.507
  408DPPC   C3715011   2.690   6.538   5.369
  408DPPC   C3815012   2.794   6.567   5.260
  408DPPC   C3915013   2.722   6.581   5.125
  408DPPC   C4015014   2.817   6.616   5.010
  408DPPC   C4115015   2.736   6.626   4.881
  408DPPC   C4215016   2.821   6.674   4.763
  408DPPC   C4315017   2.922   6.569   4.718
  408DPPC   C4415018   2.997   6.618   4.594
  408DPPC   C4515019   3.098   6.515   4.544
  408DPPC   C4615020   3.214   6.499   4.644
  408DPPC   C4715021   3.317   6.400   4.591
  408DPPC   C4815022   3.388   6.457   4.467
  408DPPC   C4915023   3.489   6.357   4.410
  408DPPC   C5015024   3.417   6.234   4.354
  409DPPC    C115025   2.770   5.520   6.313
  409DPPC    C215026   2.629   5.451   6.491
  409DPPC    C315027   2.823   5.322   6.434
  409DPPC    N415028   2.768   5.458   6.446
  409DPPC    C515029   2.843   5.535   6.548
  409DPPC    C615030   2.987   5.583   6.520
  409DPPC   OS715031   2.990   5.698   6.436
  409DPPC    P815032   3.133   5.729   6.381
  409DPPC   OM915033   3.121   5.860   6.318
  409DPPC  OM1015034   3.235   5.700   6.483
  409DPPC  OS1115035   3.137   5.622   6.268
  409DPPC   C1215036   3.226   5.665   6.165
  409DPPC   C1315037   3.231   5.574   6.042
  409DPPC  OS1415038   3.330   5.623   5.948
  409DPPC   C1515039   3.452   5.564   5.946
  409DPPC   O1615040   3.493   5.489   6.036
  409DPPC   C1715041   3.534   5.621   5.832
  409DPPC   C1815042   3.440   5.667   5.720
  409DPPC   C1915043   3.516   5.709   5.594
  409DPPC   C2015044   3.418   5.742   5.482
  409DPPC   C2115045   3.491   5.759   5.349
  409DPPC   C2215046   3.392   5.772   5.233
  409DPPC   C2315047   3.466   5.767   5.100
  409DPPC   C2415048   3.368   5.764   4.982
  409DPPC   C2515049   3.445   5.746   4.851
  409DPPC   C2615050   3.349   5.734   4.732
  409DPPC   C2715051   3.283   5.868   4.700
  409DPPC   C2815052   3.182   5.852   4.586
  409DPPC   C2915053   3.252   5.809   4.457
  409DPPC   C3015054   3.152   5.793   4.343
  409DPPC   C3115055   3.094   5.929   4.301
  409DPPC   C3215056   3.088   5.568   5.987
  409DPPC  OS3315057   3.068   5.477   5.878
  409DPPC   C3415058   2.944   5.476   5.823
  409DPPC   O3515059   2.849   5.545   5.863
  409DPPC   C3615060   2.937   5.376   5.709
  409DPPC   C3715061   2.928   5.447   5.574
  409DPPC   C3815062   3.064   5.507   5.534
  409DPPC   C3915063   3.052   5.584   5.402
  409DPPC   C4015064   3.029   5.490   5.284
  409DPPC   C4115065   2.998   5.572   5.159
  409DPPC   C4215066   2.978   5.484   5.036
  409DPPC   C4315067   2.926   5.567   4.919
  409DPPC   C4415068   2.913   5.484   4.791
  409DPPC   C4515069   3.051   5.451   4.734
  409DPPC   C4615070   3.039   5.372   4.604
  409DPPC   C4715071   3.177   5.353   4.541
  409DPPC   C4815072   3.167   5.276   4.409
  409DPPC   C4915073   3.303   5.265   4.341
  409DPPC   C5015074   3.352   5.402   4.295
  410DPPC    C115075   8.404   7.564   6.524
  410DPPC    C215076   8.501   7.353   6.465
  410DPPC    C315077   8.381   7.376   6.668
  410DPPC    N415078   8.472   7.445   6.576
  410DPPC    C515079   8.598   7.477   6.648
  410DPPC    C615080   8.698   7.576   6.582
  410DPPC   OS715081   8.746   7.537   6.454
  410DPPC    P815082   8.784   7.660   6.364
  410DPPC   OM915083   8.914   7.634   6.300
  410DPPC  OM1015084   8.764   7.785   6.438
  410DPPC  OS1115085   8.666   7.645   6.260
  410DPPC   C1215086   8.701   7.557   6.154
  410DPPC   C1315087   8.616   7.569   6.026
  410DPPC  OS1415088   8.668   7.486   5.918
  410DPPC   C1515089   8.612   7.364   5.899
  410DPPC   O1615090   8.532   7.313   5.978
  410DPPC   C1715091   8.676   7.294   5.780
  410DPPC   C1815092   8.615   7.157   5.755
  410DPPC   C1915093   8.676   7.091   5.631
  410DPPC   C2015094   8.651   7.177   5.507
  410DPPC   C2115095   8.690   7.105   5.378
  410DPPC   C2215096   8.678   7.199   5.259
  410DPPC   C2315097   8.711   7.129   5.127
  410DPPC   C2415098   8.593   7.045   5.077
  410DPPC   C2515099   8.631   6.970   4.949
  410DPPC   C2615100   8.676   7.068   4.841
  410DPPC   C2715101   8.712   6.996   4.711
  410DPPC   C2815102   8.587   6.958   4.631
  410DPPC   C2915103   8.627   6.890   4.500
  410DPPC   C3015104   8.505   6.863   4.411
  410DPPC   C3115105   8.447   6.994   4.358
  410DPPC   C3215106   8.615   7.719   5.992
  410DPPC  OS3315107   8.547   7.761   5.872
  410DPPC   C3415108   8.628   7.794   5.768
  410DPPC   O3515109   8.749   7.818   5.780
  410DPPC   C3615110   8.543   7.838   5.650
  410DPPC   C3715111   8.586   7.771   5.519
  410DPPC   C3815112   8.530   7.629   5.507
  410DPPC   C3915113   8.561   7.575   5.367
  410DPPC   C4015114   8.497   7.665   5.261
  410DPPC   C4115115   8.545   7.629   5.120
  410DPPC   C4215116   8.466   7.515   5.056
  410DPPC   C4315117   8.527   7.485   4.919
  410DPPC   C4415118   8.441   7.391   4.835
  410DPPC   C4515119   8.314   7.463   4.787
  410DPPC   C4615120   8.240   7.380   4.681
  410DPPC   C4715121   8.319   7.376   4.550
  410DPPC   C4815122   8.322   7.514   4.484
  410DPPC   C4915123   8.405   7.511   4.355
  410DPPC   C5015124   8.410   7.650   4.290
  411DPPC    C115125   0.594   5.377   6.963
  411DPPC    C215126   0.743   5.363   6.780
  411DPPC    C315127   0.563   5.205   6.803
  411DPPC    N415128   0.603   5.346   6.820
  411DPPC    C515129   0.511   5.438   6.750
  411DPPC    C615130   0.497   5.434   6.596
  411DPPC   OS715131   0.397   5.523   6.546
  411DPPC    P815132   0.405   5.545   6.391
  411DPPC   OM915133   0.418   5.690   6.368
  411DPPC  OM1015134   0.497   5.450   6.328
  411DPPC  OS1115135   0.258   5.503   6.357
  411DPPC   C1215136   0.247   5.466   6.220
  411DPPC   C1315137   0.105   5.422   6.181
  411DPPC  OS1415138   0.099   5.357   6.051
  411DPPC   C1515139   0.011   5.254   6.040
  411DPPC   O1615140  10.124   5.196   6.139
  411DPPC   C1715141  10.152   5.210   5.895
  411DPPC   C1815142  10.011   5.156   5.871
  411DPPC   C1915143   9.986   5.135   5.721
  411DPPC   C2015144   9.984   5.270   5.649
  411DPPC   C2115145   9.955   5.253   5.499
  411DPPC   C2215146  10.068   5.178   5.429
  411DPPC   C2315147  10.043   5.168   5.278
  411DPPC   C2415148  10.155   5.088   5.212
  411DPPC   C2515149  10.140   5.082   5.060
  411DPPC   C2615150   0.098   5.003   5.000
  411DPPC   C2715151   0.101   5.007   4.848
  411DPPC   C2815152   0.226   4.936   4.796
  411DPPC   C2915153   0.244   4.954   4.646
  411DPPC   C3015154   0.377   4.895   4.600
  411DPPC   C3115155   0.403   4.925   4.452
  411DPPC   C3215156   0.017   5.549   6.196
  411DPPC  OS3315157   0.045   5.652   6.099
  411DPPC   C3415158  10.122   5.646   5.989
  411DPPC   O3515159  10.012   5.590   5.988
  411DPPC   C3615160   0.014   5.736   5.877
  411DPPC   C3715161  10.116   5.681   5.745
  411DPPC   C3815162   0.008   5.757   5.622
  411DPPC   C3915163  10.119   5.685   5.496
  411DPPC   C4015164   0.014   5.752   5.369
  411DPPC   C4115165  10.132   5.671   5.245
  411DPPC   C4215166   0.025   5.740   5.118
  411DPPC   C4315167  10.147   5.662   4.992
  411DPPC   C4415168   0.028   5.742   4.867
  411DPPC   C4515169   0.007   5.661   4.740
  411DPPC   C4615170   0.037   5.745   4.616
  411DPPC   C4715171   0.035   5.659   4.489
  411DPPC   C4815172  10.054   5.599   4.465
  411DPPC   C4915173  10.056   5.509   4.341
  411DPPC   C5015174   9.920   5.443   4.318
  412DPPC    C115175   9.817   4.766   6.236
  412DPPC    C215176   9.733   4.944   6.373
  412DPPC    C315177   9.783   4.736   6.471
  412DPPC    N415178   9.729   4.799   6.350
  412DPPC    C515179   9.590   4.752   6.333
  412DPPC    C615180   9.520   4.773   6.197
  412DPPC   OS715181   9.522   4.908   6.151
  412DPPC    P815182   9.463   4.921   6.006
  412DPPC   OM915183   9.500   4.802   5.929
  412DPPC  OM1015184   9.497   5.058   5.964
  412DPPC  OS1115185   9.316   4.918   6.057
  412DPPC   C1215186   9.222   4.918   5.951
  412DPPC   C1315187   9.076   4.921   6.001
  412DPPC  OS1415188   8.982   4.895   5.893
  412DPPC   C1515189   8.864   4.837   5.929
  412DPPC   O1615190   8.840   4.802   6.044
  412DPPC   C1715191   8.774   4.818   5.809
  412DPPC   C1815192   8.762   4.950   5.733
  412DPPC   C1915193   8.670   4.939   5.611
  412DPPC   C2015194   8.733   4.861   5.496
  412DPPC   C2115195   8.648   4.879   5.370
  412DPPC   C2215196   8.715   4.815   5.249
  412DPPC   C2315197   8.647   4.858   5.119
  412DPPC   C2415198   8.726   4.806   4.999
  412DPPC   C2515199   8.678   4.867   4.868
  412DPPC   C2615200   8.765   4.816   4.753
  412DPPC   C2715201   8.730   4.883   4.620
  412DPPC   C2815202   8.818   4.828   4.509
  412DPPC   C2915203   8.792   4.898   4.376
  412DPPC   C3015204   8.883   4.842   4.267
  412DPPC   C3115205   8.866   4.918   4.135
  412DPPC   C3215206   9.056   5.054   6.078
  412DPPC  OS3315207   9.082   5.174   6.002
  412DPPC   C3415208   8.986   5.270   5.998
  412DPPC   O3515209   8.873   5.261   6.049
  412DPPC   C3615210   9.033   5.387   5.913
  412DPPC   C3715211   8.934   5.419   5.800
  412DPPC   C3815212   8.926   5.299   5.706
  412DPPC   C3915213   8.843   5.326   5.580
  412DPPC   C4015214   8.923   5.404   5.477
  412DPPC   C4115215   8.854   5.402   5.340
  412DPPC   C4215216   8.840   5.258   5.292
  412DPPC   C4315217   8.785   5.249   5.149
  412DPPC   C4415218   8.887   5.295   5.046
  412DPPC   C4515219   8.836   5.270   4.905
  412DPPC   C4615220   8.942   5.307   4.801
  412DPPC   C4715221   8.895   5.274   4.659
  412DPPC   C4815222   9.004   5.308   4.557
  412DPPC   C4915223   8.959   5.272   4.415
  412DPPC   C5015224   9.070   5.304   4.314
  413DPPC    C115225   9.390   7.496   6.257
  413DPPC    C215226   9.419   7.580   6.481
  413DPPC    C315227   9.302   7.708   6.320
  413DPPC    N415228   9.327   7.571   6.367
  413DPPC    C515229   9.196   7.514   6.407
  413DPPC    C615230   9.184   7.366   6.449
  413DPPC   OS715231   9.053   7.338   6.498
  413DPPC    P815232   9.024   7.186   6.522
  413DPPC   OM915233   9.146   7.128   6.578
  413DPPC  OM1015234   8.896   7.184   6.595
  413DPPC  OS1115235   9.003   7.143   6.372
  413DPPC   C1215236   8.876   7.187   6.321
  413DPPC   C1315237   8.842   7.138   6.179
  413DPPC  OS1415238   8.823   6.994   6.168
  413DPPC   C1515239   8.700   6.939   6.187
  413DPPC   O1615240   8.604   7.001   6.237
  413DPPC   C1715241   8.707   6.788   6.168
  413DPPC   C1815242   8.586   6.733   6.092
  413DPPC   C1915243   8.593   6.768   5.943
  413DPPC   C2015244   8.476   6.707   5.866
  413DPPC   C2115245   8.489   6.737   5.717
  413DPPC   C2215246   8.613   6.667   5.661
  413DPPC   C2315247   8.640   6.700   5.514
  413DPPC   C2415248   8.535   6.639   5.421
  413DPPC   C2515249   8.580   6.659   5.276
  413DPPC   C2615250   8.482   6.598   5.175
  413DPPC   C2715251   8.541   6.609   5.034
  413DPPC   C2815252   8.447   6.555   4.927
  413DPPC   C2915253   8.513   6.567   4.789
  413DPPC   C3015254   8.423   6.510   4.679
  413DPPC   C3115255   8.298   6.595   4.660
  413DPPC   C3215256   8.954   7.190   6.087
  413DPPC  OS3315257   8.949   7.332   6.062
  413DPPC   C3415258   9.068   7.393   6.038
  413DPPC   O3515259   9.177   7.347   6.074
  413DPPC   C3615260   9.049   7.538   5.995
  413DPPC   C3715261   9.012   7.549   5.847
  413DPPC   C3815262   9.131   7.508   5.759
  413DPPC   C3915263   9.103   7.538   5.612
  413DPPC   C4015264   8.993   7.449   5.553
  413DPPC   C4115265   8.973   7.485   5.406
  413DPPC   C4215266   9.102   7.455   5.329
  413DPPC   C4315267   9.098   7.507   5.186
  413DPPC   C4415268   9.002   7.427   5.098
  413DPPC   C4515269   9.011   7.476   4.954
  413DPPC   C4615270   8.919   7.395   4.862
  413DPPC   C4715271   8.934   7.440   4.717
  413DPPC   C4815272   8.841   7.361   4.625
  413DPPC   C4915273   8.861   7.402   4.479
  413DPPC   C5015274   8.821   7.548   4.459
  414DPPC    C115275   3.700   7.739   6.685
  414DPPC    C215276   3.531   7.596   6.765
  414DPPC    C315277   3.649   7.729   6.921
  414DPPC    N415278   3.663   7.651   6.797
  414DPPC    C515279   3.758   7.539   6.812
  414DPPC    C615280   3.907   7.572   6.837
  414DPPC   OS715281   3.991   7.458   6.846
  414DPPC    P815282   4.128   7.484   6.774
  414DPPC   OM915283   4.209   7.365   6.796
  414DPPC  OM1015284   4.178   7.619   6.807
  414DPPC  OS1115285   4.078   7.481   6.627
  414DPPC   C1215286   4.181   7.514   6.535
  414DPPC   C1315287   4.132   7.516   6.389
  414DPPC  OS1415288   4.233   7.491   6.288
  414DPPC   C1515289   4.189   7.404   6.191
  414DPPC   O1615290   4.089   7.335   6.206
  414DPPC   C1715291   4.280   7.402   6.069
  414DPPC   C1815292   4.197   7.365   5.946
  414DPPC   C1915293   4.271   7.394   5.815
  414DPPC   C2015294   4.181   7.363   5.695
  414DPPC   C2115295   4.247   7.405   5.564
  414DPPC   C2215296   4.155   7.373   5.446
  414DPPC   C2315297   4.213   7.421   5.313
  414DPPC   C2415298   4.119   7.386   5.198
  414DPPC   C2515299   4.168   7.441   5.064
  414DPPC   C2615300   4.066   7.411   4.955
  414DPPC   C2715301   4.104   7.475   4.821
  414DPPC   C2815302   3.992   7.453   4.719
  414DPPC   C2915303   4.023   7.519   4.584
  414DPPC   C3015304   4.133   7.444   4.509
  414DPPC   C3115305   4.084   7.308   4.461
  414DPPC   C3215306   4.050   7.645   6.369
  414DPPC  OS3315307   3.917   7.641   6.425
  414DPPC   C3415308   3.814   7.632   6.336
  414DPPC   O3515309   3.700   7.601   6.374
  414DPPC   C3615310   3.857   7.646   6.191
  414DPPC   C3715311   3.761   7.575   6.094
  414DPPC   C3815312   3.770   7.423   6.105
  414DPPC   C3915313   3.686   7.355   5.997
  414DPPC   C4015314   3.752   7.372   5.860
  414DPPC   C4115315   3.665   7.313   5.749
  414DPPC   C4215316   3.733   7.328   5.613
  414DPPC   C4315317   3.640   7.287   5.499
  414DPPC   C4415318   3.711   7.303   5.364
  414DPPC   C4515319   3.617   7.276   5.247
  414DPPC   C4615320   3.693   7.283   5.115
  414DPPC   C4715321   3.600   7.266   4.994
  414DPPC   C4815322   3.682   7.266   4.865
  414DPPC   C4915323   3.594   7.261   4.741
  414DPPC   C5015324   3.518   7.393   4.723
  415DPPC    C115325   9.576   6.185   6.244
  415DPPC    C215326   9.593   6.385   6.370
  415DPPC    C315327   9.651   6.175   6.469
  415DPPC    N415328   9.656   6.255   6.345
  415DPPC    C515329   9.796   6.276   6.301
  415DPPC    C615330   9.878   6.161   6.237
  415DPPC   OS715331   9.896   6.043   6.316
  415DPPC    P815332   9.947   5.921   6.231
  415DPPC   OM915333  10.052   5.971   6.142
  415DPPC  OM1015334   9.976   5.818   6.331
  415DPPC  OS1115335   9.813   5.884   6.156
  415DPPC   C1215336   9.827   5.881   6.014
  415DPPC   C1315337   9.710   5.819   5.936
  415DPPC  OS1415338   9.737   5.809   5.794
  415DPPC   C1515339   9.695   5.696   5.730
  415DPPC   O1615340   9.659   5.594   5.791
  415DPPC   C1715341   9.710   5.711   5.580
  415DPPC   C1815342   9.705   5.580   5.500
  415DPPC   C1915343   9.718   5.615   5.351
  415DPPC   C2015344   9.725   5.493   5.260
  415DPPC   C2115345   9.737   5.539   5.115
  415DPPC   C2215346   9.751   5.421   5.018
  415DPPC   C2315347   9.755   5.472   4.873
  415DPPC   C2415348   9.772   5.356   4.774
  415DPPC   C2515349   9.911   5.295   4.785
  415DPPC   C2615350   9.928   5.177   4.690
  415DPPC   C2715351   9.835   5.062   4.728
  415DPPC   C2815352   9.866   4.935   4.648
  415DPPC   C2915353   9.840   4.953   4.499
  415DPPC   C3015354   9.862   4.821   4.424
  415DPPC   C3115355  10.008   4.777   4.431
  415DPPC   C3215356   9.585   5.903   5.971
  415DPPC  OS3315357   9.591   6.044   5.940
  415DPPC   C3415358   9.500   6.086   5.848
  415DPPC   O3515359   9.412   6.015   5.800
  415DPPC   C3615360   9.514   6.236   5.823
  415DPPC   C3715361   9.433   6.283   5.702
  415DPPC   C3815362   9.504   6.249   5.570
  415DPPC   C3915363   9.417   6.284   5.449
  415DPPC   C4015364   9.490   6.249   5.319
  415DPPC   C4115365   9.399   6.262   5.198
  415DPPC   C4215366   9.470   6.217   5.070
  415DPPC   C4315367   9.374   6.216   4.951
  415DPPC   C4415368   9.442   6.174   4.821
  415DPPC   C4515369   9.338   6.165   4.709
  415DPPC   C4615370   9.402   6.128   4.575
  415DPPC   C4715371   9.296   6.111   4.467
  415DPPC   C4815372   9.358   6.080   4.331
  415DPPC   C4915373   9.431   6.202   4.275
  415DPPC   C5015374   9.495   6.172   4.139
  416DPPC    C115375   5.339   8.122   6.388
  416DPPC    C215376   5.107   8.092   6.403
  416DPPC    C315377   5.208   8.290   6.491
  416DPPC    N415378   5.224   8.145   6.475
  416DPPC    C515379   5.246   8.075   6.603
  416DPPC    C615380   5.144   8.089   6.720
  416DPPC   OS715381   5.011   8.042   6.696
  416DPPC    P815382   4.983   7.892   6.736
  416DPPC   OM915383   4.842   7.877   6.776
  416DPPC  OM1015384   5.095   7.828   6.807
  416DPPC  OS1115385   4.995   7.837   6.590
  416DPPC   C1215386   4.952   7.701   6.583
  416DPPC   C1315387   4.969   7.641   6.443
  416DPPC  OS1415388   4.916   7.506   6.434
  416DPPC   C1515389   4.816   7.488   6.343
  416DPPC   O1615390   4.738   7.579   6.312
  416DPPC   C1715391   4.790   7.340   6.319
  416DPPC   C1815392   4.713   7.319   6.189
  416DPPC   C1915393   4.693   7.170   6.160
  416DPPC   C2015394   4.615   7.149   6.030
  416DPPC   C2115395   4.695   7.197   5.909
  416DPPC   C2215396   4.614   7.178   5.781
  416DPPC   C2315397   4.691   7.230   5.659
  416DPPC   C2415398   4.605   7.214   5.533
  416DPPC   C2515399   4.679   7.263   5.408
  416DPPC   C2615400   4.588   7.251   5.286
  416DPPC   C2715401   4.660   7.293   5.158
  416DPPC   C2815402   4.565   7.285   5.038
  416DPPC   C2915403   4.637   7.319   4.907
  416DPPC   C3015404   4.684   7.464   4.906
  416DPPC   C3115405   4.754   7.497   4.774
  416DPPC   C3215406   5.119   7.652   6.411
  416DPPC  OS3315407   5.159   7.619   6.276
  416DPPC   C3415408   5.206   7.723   6.202
  416DPPC   O3515409   5.221   7.837   6.246
  416DPPC   C3615410   5.240   7.678   6.061
  416DPPC   C3715411   5.276   7.795   5.969
  416DPPC   C3815412   5.304   7.743   5.829
  416DPPC   C3915413   5.341   7.854   5.730
  416DPPC   C4015414   5.362   7.794   5.590
  416DPPC   C4115415   5.400   7.900   5.487
  416DPPC   C4215416   5.416   7.837   5.349
  416DPPC   C4315417   5.456   7.942   5.245
  416DPPC   C4415418   5.473   7.881   5.106
  416DPPC   C4515419   5.340   7.832   5.049
  416DPPC   C4615420   5.358   7.769   4.911
  416DPPC   C4715421   5.398   7.874   4.807
  416DPPC   C4815422   5.419   7.809   4.670
  416DPPC   C4915423   5.454   7.913   4.564
  416DPPC   C5015424   5.590   7.977   4.591
  417DPPC    C115425   1.266   7.095   6.745
  417DPPC    C215426   1.418   7.088   6.558
  417DPPC    C315427   1.349   7.296   6.652
  417DPPC    N415428   1.305   7.160   6.619
  417DPPC    C515429   1.190   7.174   6.527
  417DPPC    C615430   1.121   7.049   6.469
  417DPPC   OS715431   1.004   7.079   6.392
  417DPPC    P815432   0.928   6.947   6.349
  417DPPC   OM915433   0.926   6.863   6.469
  417DPPC  OM1015434   0.802   6.999   6.294
  417DPPC  OS1115435   1.024   6.894   6.236
  417DPPC   C1215436   0.990   6.948   6.108
  417DPPC   C1315437   1.070   6.893   5.989
  417DPPC  OS1415438   1.036   6.965   5.868
  417DPPC   C1515439   1.136   6.980   5.777
  417DPPC   O1615440   1.255   6.967   5.806
  417DPPC   C1715441   1.084   7.051   5.653
  417DPPC   C1815442   1.138   6.994   5.523
  417DPPC   C1915443   1.084   7.073   5.404
  417DPPC   C2015444   1.125   7.009   5.272
  417DPPC   C2115445   1.068   7.089   5.154
  417DPPC   C2215446   1.095   7.016   5.022
  417DPPC   C2315447   1.031   7.090   4.905
  417DPPC   C2415448   1.044   7.008   4.776
  417DPPC   C2515449   0.972   7.076   4.660
  417DPPC   C2615450   0.979   6.988   4.535
  417DPPC   C2715451   0.907   7.053   4.417
  417DPPC   C2815452   0.911   6.960   4.295
  417DPPC   C2915453   0.846   7.025   4.173
  417DPPC   C3015454   0.859   6.933   4.051
  417DPPC   C3115455   0.798   6.998   3.926
  417DPPC   C3215456   1.047   6.740   5.989
  417DPPC  OS3315457   1.093   6.666   5.875
  417DPPC   C3415458   1.094   6.530   5.885
  417DPPC   O3515459   1.058   6.465   5.983
  417DPPC   C3615460   1.139   6.470   5.753
  417DPPC   C3715461   1.143   6.576   5.643
  417DPPC   C3815462   1.190   6.518   5.510
  417DPPC   C3915463   1.194   6.629   5.404
  417DPPC   C4015464   1.237   6.576   5.268
  417DPPC   C4115465   1.132   6.482   5.210
  417DPPC   C4215466   1.171   6.436   5.069
  417DPPC   C4315467   1.165   6.551   4.969
  417DPPC   C4415468   1.203   6.502   4.829
  417DPPC   C4515469   1.197   6.615   4.726
  417DPPC   C4615470   1.236   6.562   4.588
  417DPPC   C4715471   1.134   6.461   4.536
  417DPPC   C4815472   1.177   6.401   4.402
  417DPPC   C4915473   1.300   6.312   4.419
  417DPPC   C5015474   1.343   6.252   4.285
  418DPPC    C115475   0.025   8.113   6.260
  418DPPC    C215476  10.055   8.183   6.444
  418DPPC    C315477   0.002   8.347   6.307
  418DPPC    N415478   0.018   8.213   6.366
  418DPPC    C515479   0.135   8.207   6.457
  418DPPC    C615480   0.274   8.234   6.397
  418DPPC   OS715481   0.380   8.226   6.492
  418DPPC    P815482   0.515   8.272   6.427
  418DPPC   OM915483   0.615   8.286   6.533
  418DPPC  OM1015484   0.490   8.385   6.337
  418DPPC  OS1115485   0.548   8.148   6.341
  418DPPC   C1215486   0.676   8.167   6.282
  418DPPC   C1315487   0.739   8.040   6.223
  418DPPC  OS1415488   0.873   8.067   6.171
  418DPPC   C1515489   0.954   7.959   6.158
  418DPPC   O1615490   0.935   7.853   6.219
  418DPPC   C1715491   1.085   7.999   6.091
  418DPPC   C1815492   1.107   7.923   5.960
  418DPPC   C1915493   1.019   7.977   5.846
  418DPPC   C2015494   1.053   7.904   5.716
  418DPPC   C2115495   0.979   7.964   5.597
  418DPPC   C2215496   1.022   7.894   5.468
  418DPPC   C2315497   0.952   7.952   5.345
  418DPPC   C2415498   1.000   7.879   5.219
  418DPPC   C2515499   0.941   7.939   5.091
  418DPPC   C2615500   1.001   7.868   4.970
  418DPPC   C2715501   0.951   7.927   4.837
  418DPPC   C2815502   0.802   7.899   4.817
  418DPPC   C2915503   0.757   7.944   4.678
  418DPPC   C3015504   0.606   7.926   4.662
  418DPPC   C3115505   0.566   7.779   4.670
  418DPPC   C3215506   0.635   7.984   6.123
  418DPPC  OS3315507   0.605   8.068   6.010
  418DPPC   C3415508   0.590   7.997   5.894
  418DPPC   O3515509   0.591   7.875   5.888
  418DPPC   C3615510   0.569   8.089   5.775
  418DPPC   C3715511   0.566   8.006   5.647
  418DPPC   C3815512   0.546   8.093   5.523
  418DPPC   C3915513   0.539   8.003   5.399
  418DPPC   C4015514   0.516   8.083   5.271
  418DPPC   C4115515   0.512   7.986   5.153
  418DPPC   C4215516   0.495   8.058   5.019
  418DPPC   C4315517   0.354   8.116   5.003
  418DPPC   C4415518   0.338   8.172   4.861
  418DPPC   C4515519   0.198   8.226   4.836
  418DPPC   C4615520   0.184   8.268   4.689
  418DPPC   C4715521   0.195   8.146   4.599
  418DPPC   C4815522   0.192   8.185   4.451
  418DPPC   C4915523   0.203   8.061   4.362
  418DPPC   C5015524   0.340   7.994   4.377
  419DPPC    C115525   3.330   2.746   6.091
  419DPPC    C215526   3.301   2.518   6.029
  419DPPC    C315527   3.411   2.572   6.233
  419DPPC    N415528   3.302   2.611   6.143
  419DPPC    C515529   3.171   2.602   6.212
  419DPPC    C615530   3.140   2.692   6.334
  419DPPC   OS715531   3.126   2.833   6.309
  419DPPC    P815532   2.974   2.872   6.300
  419DPPC   OM915533   2.919   2.795   6.188
  419DPPC  OM1015534   2.926   2.861   6.439
  419DPPC  OS1115535   2.987   3.023   6.266
  419DPPC   C1215536   2.969   3.051   6.127
  419DPPC   C1315537   2.977   3.200   6.094
  419DPPC  OS1415538   2.956   3.230   5.953
  419DPPC   C1515539   2.898   3.350   5.926
  419DPPC   O1615540   2.850   3.423   6.013
  419DPPC   C1715541   2.918   3.389   5.780
  419DPPC   C1815542   2.908   3.275   5.678
  419DPPC   C1915543   2.989   3.312   5.554
  419DPPC   C2015544   2.956   3.227   5.431
  419DPPC   C2115545   2.821   3.271   5.375
  419DPPC   C2215546   2.779   3.199   5.247
  419DPPC   C2315547   2.859   3.245   5.124
  419DPPC   C2415548   2.784   3.206   4.997
  419DPPC   C2515549   2.859   3.247   4.870
  419DPPC   C2615550   2.769   3.236   4.747
  419DPPC   C2715551   2.842   3.280   4.620
  419DPPC   C2815552   2.746   3.284   4.501
  419DPPC   C2915553   2.816   3.324   4.371
  419DPPC   C3015554   2.910   3.213   4.325
  419DPPC   C3115555   2.976   3.247   4.191
  419DPPC   C3215556   3.116   3.244   6.145
  419DPPC  OS3315557   3.228   3.177   6.084
  419DPPC   C3415558   3.345   3.246   6.081
  419DPPC   O3515559   3.365   3.349   6.146
  419DPPC   C3615560   3.446   3.177   5.991
  419DPPC   C3715561   3.381   3.137   5.859
  419DPPC   C3815562   3.336   3.260   5.780
  419DPPC   C3915563   3.454   3.336   5.719
  419DPPC   C4015564   3.494   3.277   5.583
  419DPPC   C4115565   3.389   3.311   5.477
  419DPPC   C4215566   3.434   3.265   5.339
  419DPPC   C4315567   3.334   3.310   5.232
  419DPPC   C4415568   3.387   3.280   5.092
  419DPPC   C4515569   3.293   3.337   4.985
  419DPPC   C4615570   3.352   3.319   4.845
  419DPPC   C4715571   3.263   3.386   4.740
  419DPPC   C4815572   3.324   3.371   4.600
  419DPPC   C4915573   3.239   3.443   4.495
  419DPPC   C5015574   3.302   3.430   4.356
  420DPPC    C115575   1.533   8.345   6.151
  420DPPC    C215576   1.407   8.185   6.274
  420DPPC    C315577   1.448   8.402   6.365
  420DPPC    N415578   1.506   8.293   6.286
  420DPPC    C515579   1.631   8.248   6.352
  420DPPC    C615580   1.701   8.122   6.296
  420DPPC   OS715581   1.839   8.107   6.329
  420DPPC    P815582   1.892   7.976   6.257
  420DPPC   OM915583   1.861   7.997   6.115
  420DPPC  OM1015584   1.833   7.869   6.337
  420DPPC  OS1115585   2.043   7.996   6.295
  420DPPC   C1215586   2.118   8.057   6.191
  420DPPC   C1315587   2.254   8.111   6.239
  420DPPC  OS1415588   2.317   8.200   6.143
  420DPPC   C1515589   2.291   8.333   6.155
  420DPPC   O1615590   2.210   8.379   6.236
  420DPPC   C1715591   2.361   8.412   6.045
  420DPPC   C1815592   2.347   8.340   5.911
  420DPPC   C1915593   2.399   8.424   5.795
  420DPPC   C2015594   2.382   8.348   5.663
  420DPPC   C2115595   2.425   8.433   5.543
  420DPPC   C2215596   2.407   8.354   5.413
  420DPPC   C2315597   2.444   8.438   5.291
  420DPPC   C2415598   2.429   8.355   5.164
  420DPPC   C2515599   2.466   8.434   5.039
  420DPPC   C2615600   2.458   8.344   4.916
  420DPPC   C2715601   2.499   8.417   4.788
  420DPPC   C2815602   2.497   8.321   4.669
  420DPPC   C2915603   2.536   8.391   4.539
  420DPPC   C3015604   2.426   8.485   4.491
  420DPPC   C3115605   2.302   8.407   4.448
  420DPPC   C3215606   2.338   7.990   6.285
  420DPPC  OS3315607   2.364   7.891   6.183
  420DPPC   C3415608   2.489   7.839   6.187
  420DPPC   O3515609   2.573   7.866   6.273
  420DPPC   C3615610   2.515   7.748   6.067
  420DPPC   C3715611   2.503   7.827   5.937
  420DPPC   C3815612   2.613   7.932   5.925
  420DPPC   C3915613   2.597   8.012   5.796
  420DPPC   C4015614   2.623   7.926   5.673
  420DPPC   C4115615   2.618   8.011   5.546
  420DPPC   C4215616   2.647   7.926   5.422
  420DPPC   C4315617   2.648   8.014   5.297
  420DPPC   C4415618   2.676   7.930   5.172
  420DPPC   C4515619   2.678   8.017   5.046
  420DPPC   C4615620   2.708   7.931   4.923
  420DPPC   C4715621   2.718   8.018   4.798
  420DPPC   C4815622   2.761   7.934   4.678
  420DPPC   C4915623   2.781   8.022   4.555
  420DPPC   C5015624   2.838   7.941   4.438
  421DPPC    C115625   1.568   9.238   6.207
  421DPPC    C215626   1.404   9.313   6.359
  421DPPC    C315627   1.631   9.303   6.428
  421DPPC    N415628   1.528   9.235   6.348
  421DPPC    C515629   1.500   9.097   6.395
  421DPPC    C615630   1.614   8.992   6.394
  421DPPC   OS715631   1.573   8.866   6.445
  421DPPC    P815632   1.689   8.760   6.444
  421DPPC   OM915633   1.647   8.636   6.510
  421DPPC  OM1015634   1.815   8.829   6.478
  421DPPC  OS1115635   1.695   8.733   6.291
  421DPPC   C1215636   1.797   8.637   6.263
  421DPPC   C1315637   1.823   8.618   6.113
  421DPPC  OS1415638   1.889   8.493   6.081
  421DPPC   C1515639   1.852   8.434   5.964
  421DPPC   O1615640   1.742   8.455   5.912
  421DPPC   C1715641   1.941   8.313   5.938
  421DPPC   C1815642   1.914   8.248   5.803
  421DPPC   C1915643   1.975   8.326   5.686
  421DPPC   C2015644   1.943   8.251   5.556
  421DPPC   C2115645   2.007   8.318   5.434
  421DPPC   C2215646   1.964   8.245   5.307
  421DPPC   C2315647   2.018   8.314   5.182
  421DPPC   C2415648   1.959   8.250   5.056
  421DPPC   C2515649   2.001   8.326   4.930
  421DPPC   C2615650   1.925   8.274   4.809
  421DPPC   C2715651   1.952   8.360   4.685
  421DPPC   C2815652   1.857   8.323   4.571
  421DPPC   C2915653   1.876   8.419   4.453
  421DPPC   C3015654   1.772   8.392   4.344
  421DPPC   C3115655   1.790   8.490   4.227
  421DPPC   C3215656   1.895   8.745   6.065
  421DPPC  OS3315657   1.808   8.851   6.020
  421DPPC   C3415658   1.859   8.977   6.036
  421DPPC   O3515659   1.916   9.012   6.139
  421DPPC   C3615660   1.776   9.071   5.951
  421DPPC   C3715661   1.857   9.189   5.897
  421DPPC   C3815662   1.762   9.295   5.838
  421DPPC   C3915663   1.687   9.244   5.714
  421DPPC   C4015664   1.775   9.246   5.589
  421DPPC   C4115665   1.698   9.194   5.467
  421DPPC   C4215666   1.779   9.215   5.339
  421DPPC   C4315667   1.706   9.162   5.216
  421DPPC   C4415668   1.783   9.200   5.089
  421DPPC   C4515669   1.718   9.146   4.962
  421DPPC   C4615670   1.795   9.197   4.840
  421DPPC   C4715671   1.742   9.142   4.708
  421DPPC   C4815672   1.782   8.996   4.689
  421DPPC   C4915673   1.743   8.946   4.550
  421DPPC   C5015674   1.787   8.801   4.529
  422DPPC    C115675   1.278   8.755   6.871
  422DPPC    C215676   1.337   8.804   6.649
  422DPPC    C315677   1.321   8.981   6.810
  422DPPC    N415678   1.261   8.855   6.764
  422DPPC    C515679   1.116   8.870   6.737
  422DPPC    C615680   1.065   8.969   6.628
  422DPPC   OS715681   1.092   8.925   6.495
  422DPPC    P815682   1.042   9.025   6.385
  422DPPC   OM915683   1.160   9.091   6.329
  422DPPC  OM1015684   0.926   9.101   6.432
  422DPPC  OS1115685   0.992   8.911   6.290
  422DPPC   C1215686   0.981   8.958   6.156
  422DPPC   C1315687   0.960   8.849   6.050
  422DPPC  OS1415688   0.946   8.907   5.918
  422DPPC   C1515689   1.018   8.851   5.817
  422DPPC   O1615690   1.127   8.797   5.838
  422DPPC   C1715691   0.972   8.913   5.686
  422DPPC   C1815692   1.013   8.832   5.562
  422DPPC   C1915693   0.954   8.899   5.438
  422DPPC   C2015694   0.992   8.827   5.308
  422DPPC   C2115695   0.930   8.900   5.189
  422DPPC   C2215696   0.969   8.836   5.056
  422DPPC   C2315697   0.902   8.911   4.940
  422DPPC   C2415698   0.942   8.855   4.803
  422DPPC   C2515699   0.871   8.935   4.694
  422DPPC   C2615700   0.915   8.895   4.553
  422DPPC   C2715701   0.865   8.755   4.516
  422DPPC   C2815702   0.907   8.719   4.374
  422DPPC   C2915703   0.838   8.810   4.272
  422DPPC   C3015704   0.878   8.773   4.129
  422DPPC   C3115705   0.803   8.859   4.027
  422DPPC   C3215706   0.837   8.767   6.096
  422DPPC  OS3315707   0.800   8.655   6.013
  422DPPC   C3415708   0.775   8.536   6.074
  422DPPC   O3515709   0.807   8.508   6.190
  422DPPC   C3615710   0.724   8.434   5.974
  422DPPC   C3715711   0.795   8.449   5.840
  422DPPC   C3815712   0.936   8.389   5.841
  422DPPC   C3915713   1.004   8.419   5.708
  422DPPC   C4015714   0.919   8.362   5.594
  422DPPC   C4115715   0.972   8.401   5.457
  422DPPC   C4215716   0.875   8.352   5.349
  422DPPC   C4315717   0.920   8.393   5.209
  422DPPC   C4415718   0.816   8.347   5.107
  422DPPC   C4515719   0.853   8.389   4.964
  422DPPC   C4615720   0.740   8.351   4.869
  422DPPC   C4715721   0.773   8.388   4.724
  422DPPC   C4815722   0.658   8.349   4.632
  422DPPC   C4915723   0.693   8.378   4.486
  422DPPC   C5015724   0.808   8.288   4.438
  423DPPC    C115725   3.572   8.619   6.668
  423DPPC    C215726   3.361   8.533   6.734
  423DPPC    C315727   3.432   8.741   6.821
  423DPPC    N415728   3.434   8.656   6.701
  423DPPC    C515729   3.367   8.720   6.586
  423DPPC    C615730   3.424   8.847   6.517
  423DPPC   OS715731   3.328   8.908   6.431
  423DPPC    P815732   3.394   9.003   6.325
  423DPPC   OM915733   3.474   8.918   6.236
  423DPPC  OM1015734   3.447   9.112   6.408
  423DPPC  OS1115735   3.259   9.052   6.261
  423DPPC   C1215736   3.193   8.953   6.181
  423DPPC   C1315737   3.041   8.973   6.176
  423DPPC  OS1415738   2.974   8.854   6.123
  423DPPC   C1515739   2.838   8.845   6.112
  423DPPC   O1615740   2.758   8.937   6.133
  423DPPC   C1715741   2.799   8.708   6.059
  423DPPC   C1815742   2.675   8.716   5.969
  423DPPC   C1915743   2.708   8.778   5.833
  423DPPC   C2015744   2.581   8.795   5.749
  423DPPC   C2115745   2.612   8.859   5.614
  423DPPC   C2215746   2.690   8.764   5.523
  423DPPC   C2315747   2.714   8.826   5.386
  423DPPC   C2415748   2.581   8.850   5.315
  423DPPC   C2515749   2.598   8.919   5.180
  423DPPC   C2615750   2.654   8.825   5.073
  423DPPC   C2715751   2.656   8.897   4.938
  423DPPC   C2815752   2.698   8.805   4.824
  423DPPC   C2915753   2.691   8.879   4.690
  423DPPC   C3015754   2.728   8.787   4.573
  423DPPC   C3115755   2.719   8.862   4.440
  423DPPC   C3215756   3.017   9.110   6.109
  423DPPC  OS3315757   3.004   9.112   5.966
  423DPPC   C3415758   2.907   9.194   5.917
  423DPPC   O3515759   2.870   9.299   5.972
  423DPPC   C3615760   2.871   9.155   5.775
  423DPPC   C3715761   2.948   9.234   5.669
  423DPPC   C3815762   2.910   9.178   5.531
  423DPPC   C3915763   2.978   9.252   5.416
  423DPPC   C4015764   2.935   9.189   5.284
  423DPPC   C4115765   2.995   9.263   5.164
  423DPPC   C4215766   2.949   9.198   5.033
  423DPPC   C4315767   3.005   9.273   4.913
  423DPPC   C4415768   2.964   9.205   4.782
  423DPPC   C4515769   3.024   9.280   4.663
  423DPPC   C4615770   2.996   9.210   4.530
  423DPPC   C4715771   3.066   9.285   4.417
  423DPPC   C4815772   3.058   9.207   4.285
  423DPPC   C4915773   3.140   9.278   4.177
  423DPPC   C5015774   3.146   9.194   4.049
  424DPPC    C115775   2.814   9.908   6.997
  424DPPC    C215776   2.613   9.795   7.046
  424DPPC    C315777   2.817   9.671   7.014
  424DPPC    N415778   2.738   9.786   6.969
  424DPPC    C515779   2.710   9.782   6.823
  424DPPC    C615780   2.621   9.670   6.763
  424DPPC   OS715781   2.587   9.695   6.626
  424DPPC    P815782   2.481   9.590   6.578
  424DPPC   OM915783   2.359   9.621   6.653
  424DPPC  OM1015784   2.544   9.458   6.580
  424DPPC  OS1115785   2.462   9.638   6.431
  424DPPC   C1215786   2.574   9.610   6.347
  424DPPC   C1315787   2.541   9.601   6.197
  424DPPC  OS1415788   2.502   9.727   6.134
  424DPPC   C1515789   2.575   9.747   6.020
  424DPPC   O1615790   2.694   9.716   6.016
  424DPPC   C1715791   2.507   9.840   5.921
  424DPPC   C1815792   2.521   9.777   5.782
  424DPPC   C1915793   2.468   9.863   5.668
  424DPPC   C2015794   2.485   9.787   5.536
  424DPPC   C2115795   2.443   9.870   5.415
  424DPPC   C2215796   2.457   9.787   5.287
  424DPPC   C2315797   2.420   9.868   5.162
  424DPPC   C2415798   2.433   9.781   5.037
  424DPPC   C2515799   2.405   9.862   4.910
  424DPPC   C2615800   2.417   9.773   4.786
  424DPPC   C2715801   2.393   9.853   4.658
  424DPPC   C2815802   2.400   9.761   4.535
  424DPPC   C2915803   2.384   9.841   4.405
  424DPPC   C3015804   2.392   9.749   4.284
  424DPPC   C3115805   2.384   9.829   4.153
  424DPPC   C3215806   2.439   9.485   6.185
  424DPPC  OS3315807   2.384   9.463   6.054
  424DPPC   C3415808   2.427   9.354   5.984
  424DPPC   O3515809   2.516   9.277   6.021
  424DPPC   C3615810   2.343   9.336   5.859
  424DPPC   C3715811   2.415   9.265   5.745
  424DPPC   C3815812   2.475   9.363   5.645
  424DPPC   C3915813   2.511   9.289   5.516
  424DPPC   C4015814   2.532   9.384   5.398
  424DPPC   C4115815   2.541   9.303   5.269
  424DPPC   C4215816   2.547   9.391   5.144
  424DPPC   C4315817   2.547   9.304   5.019
  424DPPC   C4415818   2.551   9.387   4.891
  424DPPC   C4515819   2.550   9.297   4.767
  424DPPC   C4615820   2.554   9.380   4.638
  424DPPC   C4715821   2.551   9.289   4.515
  424DPPC   C4815822   2.550   9.373   4.387
  424DPPC   C4915823   2.545   9.283   4.263
  424DPPC   C5015824   2.541   9.368   4.135
  425DPPC    C115825   4.061   3.011   6.913
  425DPPC    C215826   4.237   3.091   6.774
  425DPPC    C315827   4.017   3.187   6.759
  425DPPC    N415828   4.093   3.062   6.779
  425DPPC    C515829   4.054   2.958   6.682
  425DPPC    C615830   4.060   2.991   6.531
  425DPPC   OS715831   4.190   3.004   6.474
  425DPPC    P815832   4.194   3.117   6.363
  425DPPC   OM915833   4.168   3.238   6.442
  425DPPC  OM1015834   4.327   3.096   6.303
  425DPPC  OS1115835   4.078   3.064   6.271
  425DPPC   C1215836   4.125   2.978   6.166
  425DPPC   C1315837   4.025   2.870   6.122
  425DPPC  OS1415838   4.081   2.786   6.017
  425DPPC   C1515839   4.051   2.654   6.016
  425DPPC   O1615840   3.991   2.597   6.108
  425DPPC   C1715841   4.100   2.591   5.887
  425DPPC   C1815842   4.049   2.677   5.771
  425DPPC   C1915843   4.099   2.632   5.634
  425DPPC   C2015844   4.042   2.725   5.527
  425DPPC   C2115845   4.083   2.682   5.386
  425DPPC   C2215846   4.016   2.773   5.283
  425DPPC   C2315847   4.044   2.727   5.140
  425DPPC   C2415848   3.964   2.814   5.042
  425DPPC   C2515849   3.979   2.766   4.898
  425DPPC   C2615850   3.894   2.853   4.805
  425DPPC   C2715851   3.905   2.807   4.660
  425DPPC   C2815852   4.047   2.823   4.607
  425DPPC   C2915853   4.055   2.790   4.458
  425DPPC   C3015854   3.983   2.897   4.375
  425DPPC   C3115855   3.988   2.863   4.226
  425DPPC   C3215856   3.895   2.943   6.082
  425DPPC  OS3315857   3.909   3.038   5.974
  425DPPC   C3415858   3.842   3.011   5.860
  425DPPC   O3515859   3.755   2.925   5.848
  425DPPC   C3615860   3.881   3.112   5.753
  425DPPC   C3715861   3.828   3.069   5.616
  425DPPC   C3815862   3.881   3.162   5.506
  425DPPC   C3915863   3.816   3.125   5.372
  425DPPC   C4015864   3.871   3.210   5.257
  425DPPC   C4115865   3.791   3.179   5.131
  425DPPC   C4215866   3.848   3.247   5.007
  425DPPC   C4315867   3.756   3.216   4.888
  425DPPC   C4415868   3.815   3.261   4.754
  425DPPC   C4515869   3.716   3.227   4.643
  425DPPC   C4615870   3.773   3.252   4.504
  425DPPC   C4715871   3.666   3.219   4.399
  425DPPC   C4815872   3.626   3.072   4.410
  425DPPC   C4915873   3.516   3.036   4.311
  425DPPC   C5015874   3.476   2.889   4.326
  426DPPC    C115875   3.504   3.250   6.583
  426DPPC    C215876   3.651   3.341   6.750
  426DPPC    C315877   3.429   3.426   6.723
  426DPPC    N415878   3.546   3.373   6.652
  426DPPC    C515879   3.593   3.479   6.559
  426DPPC    C615880   3.716   3.453   6.469
  426DPPC   OS715881   3.691   3.360   6.363
  426DPPC    P815882   3.799   3.245   6.355
  426DPPC   OM915883   3.728   3.142   6.278
  426DPPC  OM1015884   3.839   3.220   6.495
  426DPPC  OS1115885   3.901   3.329   6.272
  426DPPC   C1215886   3.874   3.322   6.132
  426DPPC   C1315887   3.933   3.440   6.052
  426DPPC  OS1415888   3.877   3.454   5.919
  426DPPC   C1515889   3.837   3.578   5.881
  426DPPC   O1615890   3.849   3.678   5.954
  426DPPC   C1715891   3.777   3.576   5.742
  426DPPC   C1815892   3.698   3.704   5.712
  426DPPC   C1915893   3.623   3.693   5.579
  426DPPC   C2015894   3.719   3.682   5.461
  426DPPC   C2115895   3.642   3.668   5.330
  426DPPC   C2215896   3.736   3.662   5.209
  426DPPC   C2315897   3.655   3.654   5.079
  426DPPC   C2415898   3.746   3.658   4.956
  426DPPC   C2515899   3.663   3.656   4.828
  426DPPC   C2615900   3.750   3.662   4.702
  426DPPC   C2715901   3.663   3.666   4.577
  426DPPC   C2815902   3.747   3.665   4.449
  426DPPC   C2915903   3.831   3.792   4.437
  426DPPC   C3015904   3.908   3.794   4.305
  426DPPC   C3115905   4.011   3.681   4.300
  426DPPC   C3215906   4.086   3.433   6.065
  426DPPC  OS3315907   4.154   3.313   6.023
  426DPPC   C3415908   4.286   3.327   5.996
  426DPPC   O3515909   4.351   3.428   6.023
  426DPPC   C3615910   4.348   3.194   5.957
  426DPPC   C3715911   4.288   3.132   5.830
  426DPPC   C3815912   4.335   3.204   5.704
  426DPPC   C3915913   4.291   3.126   5.580
  426DPPC   C4015914   4.331   3.199   5.451
  426DPPC   C4115915   4.290   3.117   5.329
  426DPPC   C4215916   4.314   3.195   5.199
  426DPPC   C4315917   4.272   3.113   5.078
  426DPPC   C4415918   4.279   3.196   4.950
  426DPPC   C4515919   4.234   3.114   4.829
  426DPPC   C4615920   4.221   3.201   4.704
  426DPPC   C4715921   4.358   3.250   4.655
  426DPPC   C4815922   4.340   3.341   4.534
  426DPPC   C4915923   4.281   3.264   4.416
  426DPPC   C5015924   4.255   3.357   4.297
  427DPPC    C115925  10.067   3.338   6.859
  427DPPC    C215926  10.133   3.453   6.663
  427DPPC    C315927   0.067   3.236   6.715
  427DPPC    N415928  10.103   3.320   6.718
  427DPPC    C515929   9.988   3.254   6.651
  427DPPC    C615930   9.999   3.215   6.502
  427DPPC   OS715931   9.879   3.159   6.450
  427DPPC    P815932   9.882   3.133   6.296
  427DPPC   OM915933  10.004   3.185   6.231
  427DPPC  OM1015934   9.747   3.148   6.240
  427DPPC  OS1115935   9.911   2.980   6.309
  427DPPC   C1215936   9.887   2.919   6.182
  427DPPC   C1315937   9.899   2.766   6.181
  427DPPC  OS1415938   9.888   2.713   6.046
  427DPPC   C1515939   9.968   2.607   6.016
  427DPPC   O1615940  10.041   2.552   6.100
  427DPPC   C1715941   9.950   2.561   5.873
  427DPPC   C1815942  10.015   2.657   5.772
  427DPPC   C1915943  10.007   2.594   5.633
  427DPPC   C2015944  10.066   2.683   5.523
  427DPPC   C2115945  10.060   2.607   5.391
  427DPPC   C2215946  10.105   2.689   5.271
  427DPPC   C2315947  10.097   2.602   5.145
  427DPPC   C2415948  10.127   2.679   5.017
  427DPPC   C2515949  10.120   2.584   4.898
  427DPPC   C2615950  10.137   2.655   4.764
  427DPPC   C2715951  10.135   2.553   4.650
  427DPPC   C2815952  10.156   2.620   4.514
  427DPPC   C2915953   0.008   2.515   4.404
  427DPPC   C3015954   0.030   2.578   4.266
  427DPPC   C3115955   0.042   2.471   4.158
  427DPPC   C3215956   9.797   2.713   6.284
  427DPPC  OS3315957   9.662   2.763   6.271
  427DPPC   C3415958   9.577   2.683   6.200
  427DPPC   O3515959   9.577   2.560   6.212
  427DPPC   C3615960   9.457   2.764   6.155
  427DPPC   C3715961   9.430   2.742   6.006
  427DPPC   C3815962   9.540   2.805   5.921
  427DPPC   C3915963   9.515   2.783   5.771
  427DPPC   C4015964   9.629   2.840   5.687
  427DPPC   C4115965   9.600   2.824   5.538
  427DPPC   C4215966   9.715   2.879   5.453
  427DPPC   C4315967   9.680   2.876   5.304
  427DPPC   C4415968   9.662   2.733   5.253
  427DPPC   C4515969   9.622   2.734   5.105
  427DPPC   C4615970   9.738   2.779   5.016
  427DPPC   C4715971   9.692   2.797   4.871
  427DPPC   C4815972   9.648   2.664   4.809
  427DPPC   C4915973   9.604   2.684   4.664
  427DPPC   C5015974   9.560   2.552   4.601
  428DPPC    C115975   0.578   8.680   6.369
  428DPPC    C215976   0.625   8.835   6.541
  428DPPC    C315977   0.785   8.669   6.490
  428DPPC    N415978   0.641   8.695   6.501
  428DPPC    C515979   0.584   8.607   6.606
  428DPPC    C615980   0.433   8.575   6.609
  428DPPC   OS715981   0.344   8.686   6.622
  428DPPC    P815982   0.195   8.641   6.593
  428DPPC   OM915983   0.116   8.747   6.656
  428DPPC  OM1015984   0.177   8.501   6.634
  428DPPC  OS1115985   0.196   8.652   6.437
  428DPPC   C1215986   0.164   8.784   6.394
  428DPPC   C1315987   0.143   8.798   6.243
  428DPPC  OS1415988   0.128   8.937   6.204
  428DPPC   C1515989   0.232   8.995   6.137
  428DPPC   O1615990   0.343   8.941   6.125
  428DPPC   C1715991   0.197   9.138   6.101
  428DPPC   C1815992   0.250   9.178   5.963
  428DPPC   C1915993   0.161   9.124   5.851
  428DPPC   C2015994   0.218   9.164   5.715
  428DPPC   C2115995   0.126   9.124   5.600
  428DPPC   C2215996   0.193   9.157   5.467
  428DPPC   C2315997   0.101   9.133   5.348
  428DPPC   C2415998   0.176   9.160   5.218
  428DPPC   C2515999   0.084   9.156   5.096
  428DPPC   C2616000   0.165   9.177   4.968
  428DPPC   C2716001   0.073   9.196   4.847
  428DPPC   C2816002   0.156   9.212   4.720
  428DPPC   C2916003   0.068   9.253   4.602
  428DPPC   C3016004  10.124   9.144   4.565
  428DPPC   C3116005   0.035   9.022   4.504
  428DPPC   C3216006   0.025   8.707   6.205
  428DPPC  OS3316007  10.145   8.711   6.066
  428DPPC   C3416008  10.052   8.624   6.020
  428DPPC   O3516009  10.011   8.524   6.079
  428DPPC   C3616010  10.016   8.663   5.878
  428DPPC   C3716011  10.017   8.544   5.781
  428DPPC   C3816012   9.999   8.596   5.638
  428DPPC   C3916013  10.118   8.683   5.599
  428DPPC   C4016014  10.098   8.752   5.464
  428DPPC   C4116015  10.097   8.653   5.347
  428DPPC   C4216016  10.087   8.728   5.215
  428DPPC   C4316017  10.090   8.633   5.095
  428DPPC   C4416018  10.088   8.712   4.964
  428DPPC   C4516019  10.092   8.619   4.843
  428DPPC   C4616020  10.088   8.698   4.713
  428DPPC   C4716021  10.085   8.606   4.591
  428DPPC   C4816022   9.957   8.523   4.589
  428DPPC   C4916023   9.950   8.434   4.465
  428DPPC   C5016024   9.928   8.518   4.338
  429DPPC    C116025   3.172   9.769   6.271
  429DPPC    C216026   3.136   9.580   6.130
  429DPPC    C316027   3.327   9.716   6.099
  429DPPC    N416028   3.238   9.659   6.200
  429DPPC    C516029   3.309   9.569   6.294
  429DPPC    C616030   3.424   9.623   6.382
  429DPPC   OS716031   3.547   9.662   6.319
  429DPPC    P816032   3.648   9.542   6.316
  429DPPC   OM916033   3.590   9.443   6.224
  429DPPC  OM1016034   3.670   9.509   6.457
  429DPPC  OS1116035   3.775   9.607   6.252
  429DPPC   C1216036   3.762   9.622   6.111
  429DPPC   C1316037   3.893   9.607   6.033
  429DPPC  OS1416038   3.875   9.634   5.891
  429DPPC   C1516039   3.981   9.688   5.824
  429DPPC   O1616040   4.070   9.752   5.881
  429DPPC   C1716041   3.952   9.694   5.675
  429DPPC   C1816042   4.051   9.785   5.601
  429DPPC   C1916043   4.001   9.813   5.460
  429DPPC   C2016044   4.092   9.912   5.388
  429DPPC   C2116045   4.028   9.963   5.259
  429DPPC   C2216046   4.023   9.856   5.149
  429DPPC   C2316047   3.950   9.910   5.026
  429DPPC   C2416048   3.951   9.806   4.913
  429DPPC   C2516049   3.866   9.851   4.794
  429DPPC   C2616050   3.869   9.744   4.685
  429DPPC   C2716051   3.772   9.775   4.570
  429DPPC   C2816052   3.815   9.898   4.490
  429DPPC   C2916053   3.720   9.919   4.372
  429DPPC   C3016054   3.758  10.042   4.290
  429DPPC   C3116055   3.665  10.059   4.170
  429DPPC   C3216056   3.945   9.466   6.069
  429DPPC  OS3316057   4.054   9.417   5.988
  429DPPC   C3416058   4.093   9.289   6.007
  429DPPC   O3516059   4.042   9.209   6.086
  429DPPC   C3616060   4.190   9.251   5.896
  429DPPC   C3716061   4.130   9.297   5.763
  429DPPC   C3816062   4.207   9.246   5.642
  429DPPC   C3916063   4.141   9.295   5.513
  429DPPC   C4016064   4.211   9.234   5.392
  429DPPC   C4116065   4.143   9.278   5.262
  429DPPC   C4216066   4.170   9.426   5.233
  429DPPC   C4316067   4.100   9.467   5.103
  429DPPC   C4416068   4.157   9.390   4.984
  429DPPC   C4516069   4.086   9.432   4.855
  429DPPC   C4616070   4.143   9.360   4.733
  429DPPC   C4716071   4.076   9.412   4.606
  429DPPC   C4816072   4.136   9.348   4.481
  429DPPC   C4916073   4.073   9.408   4.355
  429DPPC   C5016074   4.113   9.554   4.338
  430DPPC    C116075   3.883   9.794   6.658
  430DPPC    C216076   3.988   9.584   6.633
  430DPPC    C316077   4.122   9.780   6.646
  430DPPC    N416078   3.996   9.725   6.595
  430DPPC    C516079   3.990   9.732   6.447
  430DPPC    C616080   3.994   9.868   6.372
  430DPPC   OS716081   3.878   9.951   6.385
  430DPPC    P816082   3.893  10.083   6.301
  430DPPC   OM916083   4.028  10.138   6.324
  430DPPC  OM1016084   3.774  10.167   6.319
  430DPPC  OS1116085   3.886  10.023   6.157
  430DPPC   C1216086   3.878  10.126   6.060
  430DPPC   C1316087   3.851  10.080   5.916
  430DPPC  OS1416088   3.844  10.192   5.823
  430DPPC   C1516089   3.948  10.195   5.734
  430DPPC   O1616090   4.061  10.158   5.767
  430DPPC   C1716091   3.919  10.294   5.622
  430DPPC   C1816092   3.843  10.227   5.507
  430DPPC   C1916093   3.831  10.323   5.388
  430DPPC   C2016094   3.766  10.256   5.267
  430DPPC   C2116095   3.777  10.346   5.144
  430DPPC   C2216096   3.726  10.276   5.018
  430DPPC   C2316097   3.755  10.360   4.893
  430DPPC   C2416098   3.718  10.285   4.765
  430DPPC   C2516099   3.764  10.362   4.641
  430DPPC   C2616100   3.686  10.492   4.624
  430DPPC   C2716101   3.543  10.467   4.575
  430DPPC   C2816102   3.537  10.444   4.424
  430DPPC   C2916103   3.568   0.072   4.350
  430DPPC   C3016104   3.550   0.056   4.199
  430DPPC   C3116105   3.653  10.463   4.141
  430DPPC   C3216106   3.724   9.993   5.922
  430DPPC  OS3316107   3.678   9.939   5.796
  430DPPC   C3416108   3.589   9.837   5.808
  430DPPC   O3516109   3.558   9.786   5.915
  430DPPC   C3616110   3.532   9.792   5.674
  430DPPC   C3716111   3.602   9.855   5.553
  430DPPC   C3816112   3.524   9.815   5.427
  430DPPC   C3916113   3.579   9.881   5.300
  430DPPC   C4016114   3.480   9.859   5.186
  430DPPC   C4116115   3.527   9.923   5.056
  430DPPC   C4216116   3.416   9.916   4.951
  430DPPC   C4316117   3.460   9.979   4.818
  430DPPC   C4416118   3.342   9.984   4.721
  430DPPC   C4516119   3.385  10.038   4.584
  430DPPC   C4616120   3.265  10.048   4.490
  430DPPC   C4716121   3.309  10.089   4.349
  430DPPC   C4816122   3.188  10.102   4.256
  430DPPC   C4916123   3.231  10.127   4.112
  430DPPC   C5016124   3.299  10.264   4.097
  431DPPC    C116125   2.172   7.651   6.671
  431DPPC    C216126   1.955   7.750   6.658
  431DPPC    C316127   2.087   7.717   6.460
  431DPPC    N416128   2.050   7.660   6.590
  431DPPC    C516129   1.993   7.524   6.572
  431DPPC    C616130   1.857   7.512   6.501
  431DPPC   OS716131   1.823   7.386   6.443
  431DPPC    P816132   1.671   7.383   6.402
  431DPPC   OM916133   1.636   7.252   6.344
  431DPPC  OM1016134   1.591   7.439   6.513
  431DPPC  OS1116135   1.671   7.493   6.291
  431DPPC   C1216136   1.714   7.446   6.164
  431DPPC   C1316137   1.753   7.557   6.064
  431DPPC  OS1416138   1.886   7.612   6.083
  431DPPC   C1516139   1.978   7.570   5.991
  431DPPC   O1616140   1.958   7.470   5.921
  431DPPC   C1716141   2.111   7.639   6.011
  431DPPC   C1816142   2.158   7.707   5.882
  431DPPC   C1916143   2.080   7.835   5.854
  431DPPC   C2016144   2.149   7.920   5.746
  431DPPC   C2116145   2.148   7.849   5.611
  431DPPC   C2216146   2.208   7.938   5.502
  431DPPC   C2316147   2.198   7.870   5.365
  431DPPC   C2416148   2.245   7.961   5.252
  431DPPC   C2516149   2.221   7.893   5.117
  431DPPC   C2616150   2.264   7.979   4.999
  431DPPC   C2716151   2.236   7.906   4.867
  431DPPC   C2816152   2.270   7.992   4.746
  431DPPC   C2916153   2.238   7.917   4.616
  431DPPC   C3016154   2.269   8.003   4.494
  431DPPC   C3116155   2.236   7.928   4.364
  431DPPC   C3216156   1.638   7.658   6.060
  431DPPC  OS3316157   1.521   7.600   6.001
  431DPPC   C3416158   1.401   7.660   6.025
  431DPPC   O3516159   1.385   7.758   6.099
  431DPPC   C3616160   1.290   7.582   5.957
  431DPPC   C3716161   1.349   7.460   5.886
  431DPPC   C3816162   1.238   7.373   5.827
  431DPPC   C3916163   1.170   7.441   5.708
  431DPPC   C4016164   1.261   7.440   5.585
  431DPPC   C4116165   1.183   7.487   5.462
  431DPPC   C4216166   1.271   7.482   5.337
  431DPPC   C4316167   1.189   7.512   5.212
  431DPPC   C4416168   1.279   7.509   5.088
  431DPPC   C4516169   1.198   7.536   4.961
  431DPPC   C4616170   1.292   7.544   4.841
  431DPPC   C4716171   1.217   7.574   4.711
  431DPPC   C4816172   1.126   7.459   4.671
  431DPPC   C4916173   1.062   7.487   4.534
  431DPPC   C5016174   0.972   7.610   4.541
  432DPPC    C116175   0.386   9.415   6.916
  432DPPC    C216176   0.254   9.326   7.092
  432DPPC    C316177   0.396   9.183   6.967
  432DPPC    N416178   0.307   9.298   6.958
  432DPPC    C516179   0.192   9.273   6.867
  432DPPC    C616180   0.216   9.262   6.714
  432DPPC   OS716181   0.307   9.159   6.673
  432DPPC    P816182   0.322   9.158   6.516
  432DPPC   OM916183   0.188   9.166   6.458
  432DPPC  OM1016184   0.418   9.052   6.484
  432DPPC  OS1116185   0.398   9.292   6.489
  432DPPC   C1216186   0.381   9.331   6.352
  432DPPC   C1316187   0.478   9.439   6.302
  432DPPC  OS1416188   0.430   9.505   6.182
  432DPPC   C1516189   0.469   9.634   6.164
  432DPPC   O1616190   0.526   9.698   6.252
  432DPPC   C1716191   0.410   9.697   6.038
  432DPPC   C1816192   0.386   9.598   5.924
  432DPPC   C1916193   0.351   9.676   5.797
  432DPPC   C2016194   0.326   9.583   5.678
  432DPPC   C2116195   0.319   9.663   5.549
  432DPPC   C2216196   0.301   9.573   5.426
  432DPPC   C2316197   0.308   9.658   5.299
  432DPPC   C2416198   0.288   9.577   5.171
  432DPPC   C2516199   0.299   9.670   5.051
  432DPPC   C2616200   0.283   9.596   4.918
  432DPPC   C2716201   0.300   9.694   4.802
  432DPPC   C2816202   0.288   9.623   4.666
  432DPPC   C2916203   0.315   9.721   4.552
  432DPPC   C3016204   0.306   9.652   4.416
  432DPPC   C3116205   0.163   9.608   4.386
  432DPPC   C3216206   0.617   9.371   6.295
  432DPPC  OS3316207   0.634   9.263   6.200
  432DPPC   C3416208   0.696   9.300   6.083
  432DPPC   O3516209   0.754   9.407   6.068
  432DPPC   C3616210   0.707   9.182   5.987
  432DPPC   C3716211   0.728   9.228   5.843
  432DPPC   C3816212   0.596   9.281   5.787
  432DPPC   C3916213   0.611   9.346   5.650
  432DPPC   C4016214   0.629   9.246   5.536
  432DPPC   C4116215   0.617   9.322   5.404
  432DPPC   C4216216   0.645   9.237   5.281
  432DPPC   C4316217   0.622   9.321   5.155
  432DPPC   C4416218   0.670   9.248   5.030
  432DPPC   C4516219   0.651   9.335   4.905
  432DPPC   C4616220   0.722   9.270   4.786
  432DPPC   C4716221   0.700   9.347   4.655
  432DPPC   C4816222   0.558   9.326   4.602
  432DPPC   C4916223   0.538   9.183   4.551
  432DPPC   C5016224   0.621   9.157   4.426
  433DPPC    C116225   2.436   9.167   6.762
  433DPPC    C216226   2.469   9.089   6.542
  433DPPC    C316227   2.278   9.015   6.667
  433DPPC    N416228   2.366   9.129   6.639
  433DPPC    C516229   2.292   9.247   6.589
  433DPPC    C616230   2.216   9.234   6.454
  433DPPC   OS716231   2.163   9.357   6.405
  433DPPC    P816232   2.068   9.327   6.285
  433DPPC   OM916233   2.135   9.236   6.192
  433DPPC  OM1016234   1.937   9.302   6.348
  433DPPC  OS1116235   2.076   9.472   6.230
  433DPPC   C1216236   1.962   9.502   6.150
  433DPPC   C1316237   1.967   9.645   6.094
  433DPPC  OS1416238   1.836   9.692   6.049
  433DPPC   C1516239   1.821   9.824   6.017
  433DPPC   O1616240   1.911   9.909   6.031
  433DPPC   C1716241   1.679   9.855   5.972
  433DPPC   C1816242   1.629   9.753   5.869
  433DPPC   C1916243   1.695   9.773   5.732
  433DPPC   C2016244   1.631   9.682   5.627
  433DPPC   C2116245   1.698   9.703   5.491
  433DPPC   C2216246   1.625   9.626   5.380
  433DPPC   C2316247   1.695   9.649   5.247
  433DPPC   C2416248   1.619   9.586   5.130
  433DPPC   C2516249   1.694   9.611   5.000
  433DPPC   C2616250   1.617   9.560   4.878
  433DPPC   C2716251   1.695   9.590   4.750
  433DPPC   C2816252   1.623   9.537   4.626
  433DPPC   C2916253   1.704   9.568   4.500
  433DPPC   C3016254   1.633   9.516   4.375
  433DPPC   C3116255   1.712   9.551   4.250
  433DPPC   C3216256   2.083   9.645   5.992
  433DPPC  OS3316257   2.063   9.566   5.873
  433DPPC   C3416258   2.095   9.628   5.756
  433DPPC   O3516259   2.128   9.746   5.746
  433DPPC   C3616260   2.078   9.532   5.639
  433DPPC   C3716261   2.099   9.602   5.505
  433DPPC   C3816262   2.095   9.502   5.390
  433DPPC   C3916263   2.105   9.572   5.255
  433DPPC   C4016264   2.109   9.470   5.141
  433DPPC   C4116265   2.109   9.539   5.005
  433DPPC   C4216266   2.119   9.434   4.893
  433DPPC   C4316267   2.109   9.496   4.754
  433DPPC   C4416268   2.121   9.386   4.648
  433DPPC   C4516269   2.103   9.441   4.507
  433DPPC   C4616270   2.116   9.327   4.406
  433DPPC   C4716271   2.091   9.374   4.263
  433DPPC   C4816272   2.108   9.258   4.165
  433DPPC   C4916273   2.075   9.299   4.021
  433DPPC   C5016274   1.926   9.327   4.005
  434DPPC    C116275   0.889  10.377   6.749
  434DPPC    C216276   1.023   0.063   6.805
  434DPPC    C316277   0.796   0.094   6.743
  434DPPC    N416278   0.916   0.015   6.716
  434DPPC    C516279   0.960   0.031   6.576
  434DPPC    C616280   0.873  10.481   6.460
  434DPPC   OS716281   0.927   0.011   6.332
  434DPPC    P816282   0.884  10.413   6.219
  434DPPC   OM916283   0.921  10.476   6.091
  434DPPC  OM1016284   0.752  10.355   6.248
  434DPPC  OS1116285   0.989  10.301   6.255
  434DPPC   C1216286   1.066  10.262   6.142
  434DPPC   C1316287   1.210  10.222   6.175
  434DPPC  OS1416288   1.295  10.238   6.058
  434DPPC   C1516289   1.427  10.264   6.076
  434DPPC   O1616290   1.481  10.274   6.187
  434DPPC   C1716291   1.495  10.289   5.942
  434DPPC   C1816292   1.616  10.380   5.959
  434DPPC   C1916293   1.668  10.424   5.822
  434DPPC   C2016294   1.571   0.021   5.759
  434DPPC   C2116295   1.619   0.066   5.622
  434DPPC   C2216296   1.592  10.464   5.515
  434DPPC   C2316297   1.635   0.013   5.378
  434DPPC   C2416298   1.586  10.426   5.266
  434DPPC   C2516299   1.630  10.482   5.131
  434DPPC   C2616300   1.578  10.395   5.016
  434DPPC   C2716301   1.631  10.448   4.883
  434DPPC   C2816302   1.586  10.360   4.766
  434DPPC   C2916303   1.651  10.409   4.637
  434DPPC   C3016304   1.613  10.318   4.519
  434DPPC   C3116305   1.464  10.330   4.489
  434DPPC   C3216306   1.203  10.082   6.240
  434DPPC  OS3316307   1.147   9.980   6.155
  434DPPC   C3416308   1.237   9.896   6.097
  434DPPC   O3516309   1.348   9.872   6.143
  434DPPC   C3616310   1.170   9.813   5.989
  434DPPC   C3716311   1.250   9.823   5.859
  434DPPC   C3816312   1.238   9.964   5.800
  434DPPC   C3916313   1.309   9.976   5.665
  434DPPC   C4016314   1.286  10.115   5.607
  434DPPC   C4116315   1.352  10.131   5.470
  434DPPC   C4216316   1.290  10.038   5.367
  434DPPC   C4316317   1.344  10.069   5.227
  434DPPC   C4416318   1.292   9.970   5.123
  434DPPC   C4516319   1.341  10.010   4.984
  434DPPC   C4616320   1.303   9.906   4.878
  434DPPC   C4716321   1.349   9.951   4.740
  434DPPC   C4816322   1.319   9.844   4.635
  434DPPC   C4916323   1.357   9.893   4.495
  434DPPC   C5016324   1.508   9.916   4.483
  435DPPC    C116325   3.636   0.909   6.516
  435DPPC    C216326   3.807   0.753   6.573
  435DPPC    C316327   3.641   0.812   6.732
  435DPPC    N416328   3.665   0.786   6.590
  435DPPC    C516329   3.586   0.671   6.542
  435DPPC    C616330   3.432   0.682   6.530
  435DPPC   OS716331   3.367   0.557   6.506
  435DPPC    P816332   3.237   0.574   6.420
  435DPPC   OM916333   3.160   0.450   6.436
  435DPPC  OM1016334   3.175   0.704   6.449
  435DPPC  OS1116335   3.298   0.579   6.276
  435DPPC   C1216336   3.345   0.453   6.229
  435DPPC   C1316337   3.345   0.444   6.075
  435DPPC  OS1416338   3.445   0.529   6.011
  435DPPC   C1516339   3.550   0.467   5.950
  435DPPC   O1616340   3.552   0.346   5.924
  435DPPC   C1716341   3.657   0.568   5.911
  435DPPC   C1816342   3.609   0.668   5.805
  435DPPC   C1916343   3.628   0.612   5.664
  435DPPC   C2016344   3.777   0.604   5.630
  435DPPC   C2116345   3.801   0.543   5.492
  435DPPC   C2216346   3.765   0.636   5.377
  435DPPC   C2316347   3.801   0.570   5.244
  435DPPC   C2416348   3.766   0.658   5.124
  435DPPC   C2516349   3.802   0.586   4.994
  435DPPC   C2616350   3.753   0.662   4.871
  435DPPC   C2716351   3.778   0.581   4.744
  435DPPC   C2816352   3.712   0.645   4.622
  435DPPC   C2916353   3.731   0.557   4.498
  435DPPC   C3016354   3.664   0.619   4.375
  435DPPC   C3116355   3.683   0.530   4.252
  435DPPC   C3216356   3.198   0.467   6.037
  435DPPC  OS3316357   3.164   0.486   5.899
  435DPPC   C3416358   3.142   0.615   5.862
  435DPPC   O3516359   3.148   0.712   5.937
  435DPPC   C3616360   3.096   0.621   5.717
  435DPPC   C3716361   3.017   0.749   5.693
  435DPPC   C3816362   2.940   0.742   5.561
  435DPPC   C3916363   3.034   0.735   5.441
  435DPPC   C4016364   2.950   0.736   5.313
  435DPPC   C4116365   3.037   0.728   5.187
  435DPPC   C4216366   2.948   0.737   5.063
  435DPPC   C4316367   3.030   0.732   4.934
  435DPPC   C4416368   2.936   0.750   4.814
  435DPPC   C4516369   3.013   0.749   4.682
  435DPPC   C4616370   2.917   0.772   4.566
  435DPPC   C4716371   2.989   0.770   4.431
  435DPPC   C4816372   2.891   0.799   4.318
  435DPPC   C4916373   2.786   0.689   4.307
  435DPPC   C5016374   2.687   0.719   4.194
  436DPPC    C116375   2.310  10.113   6.708
  436DPPC    C216376   2.123  10.093   6.557
  436DPPC    C316377   2.303   9.939   6.546
  436DPPC    N416378   2.269  10.080   6.570
  436DPPC    C516379   2.342  10.163   6.471
  436DPPC    C616380   2.328  10.317   6.476
  436DPPC   OS716381   2.404  10.387   6.378
  436DPPC    P816382   2.371   0.039   6.385
  436DPPC   OM916383   2.463   0.087   6.488
  436DPPC  OM1016384   2.225   0.050   6.402
  436DPPC  OS1116385   2.418   0.074   6.240
  436DPPC   C1216386   2.314   0.052   6.145
  436DPPC   C1316387   2.325   0.143   6.021
  436DPPC  OS1416388   2.201   0.147   5.944
  436DPPC   C1516389   2.102   0.234   5.979
  436DPPC   O1616390   2.099   0.294   6.087
  436DPPC   C1716391   1.985   0.226   5.882
  436DPPC   C1816392   2.025   0.170   5.746
  436DPPC   C1916393   2.104   0.272   5.664
  436DPPC   C2016394   2.161   0.208   5.538
  436DPPC   C2116395   2.054   0.185   5.431
  436DPPC   C2216396   2.119   0.123   5.307
  436DPPC   C2316397   2.024   0.124   5.188
  436DPPC   C2416398   2.096   0.071   5.064
  436DPPC   C2516399   2.015   0.101   4.938
  436DPPC   C2616400   2.092   0.062   4.812
  436DPPC   C2716401   2.021   0.117   4.689
  436DPPC   C2816402   2.099   0.089   4.560
  436DPPC   C2916403   2.033   0.164   4.444
  436DPPC   C3016404   1.891   0.113   4.421
  436DPPC   C3116405   1.817   0.196   4.316
  436DPPC   C3216406   2.452   0.099   5.946
  436DPPC  OS3316407   2.451  10.466   5.899
  436DPPC   C3416408   2.566  10.414   5.850
  436DPPC   O3516409   2.678  10.461   5.869
  436DPPC   C3616410   2.539  10.275   5.792
  436DPPC   C3716411   2.655  10.225   5.707
  436DPPC   C3816412   2.661  10.294   5.570
  436DPPC   C3916413   2.541  10.258   5.482
  436DPPC   C4016414   2.560  10.313   5.341
  436DPPC   C4116415   2.438  10.287   5.252
  436DPPC   C4216416   2.465  10.332   5.108
  436DPPC   C4316417   2.571  10.243   5.045
  436DPPC   C4416418   2.611  10.287   4.904
  436DPPC   C4516419   2.500  10.262   4.801
  436DPPC   C4616420   2.551  10.298   4.661
  436DPPC   C4716421   2.446  10.267   4.554
  436DPPC   C4816422   2.500  10.297   4.414
  436DPPC   C4916423   2.396  10.263   4.307
  436DPPC   C5016424   2.451  10.291   4.167
  437DPPC    C116425   2.805   0.506   6.425
  437DPPC    C216426   2.673   0.308   6.393
  437DPPC    C316427   2.689   0.404   6.608
  437DPPC    N416428   2.681   0.436   6.465
  437DPPC    C516429   2.561   0.521   6.442
  437DPPC    C616430   2.534   0.577   6.300
  437DPPC   OS716431   2.501   0.479   6.202
  437DPPC    P816432   2.540   0.531   6.058
  437DPPC   OM916433   2.537   0.415   5.968
  437DPPC  OM1016434   2.659   0.616   6.066
  437DPPC  OS1116435   2.414   0.623   6.039
  437DPPC   C1216436   2.322   0.578   5.940
  437DPPC   C1316437   2.222   0.688   5.900
  437DPPC  OS1416438   2.124   0.644   5.802
  437DPPC   C1516439   2.015   0.722   5.778
  437DPPC   O1616440   1.986   0.820   5.847
  437DPPC   C1716441   1.946   0.677   5.651
  437DPPC   C1816442   2.037   0.710   5.532
  437DPPC   C1916443   1.998   0.642   5.401
  437DPPC   C2016444   2.107   0.672   5.297
  437DPPC   C2116445   2.095   0.587   5.170
  437DPPC   C2216446   1.992   0.638   5.070
  437DPPC   C2316447   1.999   0.551   4.944
  437DPPC   C2416448   1.902   0.594   4.834
  437DPPC   C2516449   1.912   0.498   4.716
  437DPPC   C2616450   1.812   0.529   4.604
  437DPPC   C2716451   1.850   0.656   4.528
  437DPPC   C2816452   1.749   0.686   4.417
  437DPPC   C2916453   1.758   0.583   4.304
  437DPPC   C3016454   1.658   0.615   4.193
  437DPPC   C3116455   1.668   0.513   4.079
  437DPPC   C3216456   2.309   0.807   5.854
  437DPPC  OS3316457   2.394   0.777   5.741
  437DPPC   C3416458   2.473   0.876   5.695
  437DPPC   O3516459   2.483   0.989   5.746
  437DPPC   C3616460   2.551   0.828   5.574
  437DPPC   C3716461   2.471   0.849   5.446
  437DPPC   C3816462   2.550   0.806   5.323
  437DPPC   C3916463   2.471   0.837   5.196
  437DPPC   C4016464   2.546   0.797   5.069
  437DPPC   C4116465   2.463   0.835   4.946
  437DPPC   C4216466   2.532   0.791   4.816
  437DPPC   C4316467   2.450   0.833   4.694
  437DPPC   C4416468   2.315   0.761   4.692
  437DPPC   C4516469   2.233   0.803   4.570
  437DPPC   C4616470   2.298   0.752   4.441
  437DPPC   C4716471   2.216   0.794   4.319
  437DPPC   C4816472   2.280   0.742   4.190
  437DPPC   C4916473   2.199   0.784   4.068
  437DPPC   C5016474   2.062   0.717   4.066
  438DPPC    C116475   0.562   2.014   6.345
  438DPPC    C216476   0.423   2.207   6.332
  438DPPC    C316477   0.456   2.072   6.140
  438DPPC    N416478   0.522   2.126   6.259
  438DPPC    C516479   0.639   2.205   6.214
  438DPPC    C616480   0.730   2.270   6.321
  438DPPC   OS716481   0.858   2.304   6.268
  438DPPC    P816482   0.958   2.350   6.378
  438DPPC   OM916483   0.950   2.497   6.378
  438DPPC  OM1016484   0.936   2.271   6.500
  438DPPC  OS1116485   1.086   2.296   6.305
  438DPPC   C1216486   1.130   2.390   6.207
  438DPPC   C1316487   1.182   2.337   6.073
  438DPPC  OS1416488   1.227   2.446   5.987
  438DPPC   C1516489   1.319   2.420   5.890
  438DPPC   O1616490   1.406   2.333   5.901
  438DPPC   C1716491   1.326   2.537   5.794
  438DPPC   C1816492   1.469   2.568   5.749
  438DPPC   C1916493   1.468   2.663   5.630
  438DPPC   C2016494   1.610   2.697   5.586
  438DPPC   C2116495   1.610   2.782   5.459
  438DPPC   C2216496   1.561   2.700   5.339
  438DPPC   C2316497   1.576   2.780   5.209
  438DPPC   C2416498   1.540   2.694   5.088
  438DPPC   C2516499   1.566   2.770   4.958
  438DPPC   C2616500   1.537   2.681   4.837
  438DPPC   C2716501   1.563   2.754   4.705
  438DPPC   C2816502   1.536   2.661   4.587
  438DPPC   C2916503   1.389   2.621   4.582
  438DPPC   C3016504   1.362   2.522   4.468
  438DPPC   C3116505   1.378   2.589   4.332
  438DPPC   C3216506   1.064   2.253   6.018
  438DPPC  OS3316507   1.074   2.201   5.884
  438DPPC   C3416508   0.955   2.157   5.834
  438DPPC   O3516509   0.847   2.165   5.893
  438DPPC   C3616510   0.971   2.106   5.692
  438DPPC   C3716511   0.832   2.095   5.629
  438DPPC   C3816512   0.835   2.020   5.496
  438DPPC   C3916513   0.893   2.102   5.381
  438DPPC   C4016514   0.872   2.021   5.253
  438DPPC   C4116515   0.915   2.092   5.124
  438DPPC   C4216516   0.877   2.002   5.007
  438DPPC   C4316517   0.918   2.059   4.871
  438DPPC   C4416518   0.875   1.961   4.761
  438DPPC   C4516519   0.723   1.960   4.745
  438DPPC   C4616520   0.682   2.046   4.625
  438DPPC   C4716521   0.716   1.972   4.496
  438DPPC   C4816522   0.682   2.054   4.372
  438DPPC   C4916523   0.706   1.972   4.245
  438DPPC   C5016524   0.854   1.936   4.230
  439DPPC    C116525   3.052   0.998   6.032
  439DPPC    C216526   2.860   0.858   6.062
  439DPPC    C316527   3.009   0.891   6.242
  439DPPC    N416528   2.947   0.957   6.127
  439DPPC    C516529   2.863   1.072   6.168
  439DPPC    C616530   2.931   1.196   6.231
  439DPPC   OS716531   2.847   1.311   6.240
  439DPPC    P816532   2.934   1.439   6.258
  439DPPC   OM916533   2.940   1.471   6.402
  439DPPC  OM1016534   3.054   1.437   6.175
  439DPPC  OS1116535   2.842   1.551   6.199
  439DPPC   C1216536   2.805   1.530   6.063
  439DPPC   C1316537   2.784   1.663   5.989
  439DPPC  OS1416538   2.673   1.662   5.896
  439DPPC   C1516539   2.561   1.725   5.939
  439DPPC   O1616540   2.546   1.766   6.054
  439DPPC   C1716541   2.453   1.714   5.832
  439DPPC   C1816542   2.515   1.710   5.692
  439DPPC   C1916543   2.410   1.677   5.587
  439DPPC   C2016544   2.466   1.690   5.445
  439DPPC   C2116545   2.355   1.666   5.343
  439DPPC   C2216546   2.400   1.698   5.200
  439DPPC   C2316547   2.279   1.691   5.106
  439DPPC   C2416548   2.312   1.735   4.964
  439DPPC   C2516549   2.399   1.633   4.891
  439DPPC   C2616550   2.427   1.678   4.748
  439DPPC   C2716551   2.298   1.678   4.665
  439DPPC   C2816552   2.325   1.720   4.521
  439DPPC   C2916553   2.195   1.719   4.439
  439DPPC   C3016554   2.221   1.761   4.295
  439DPPC   C3116555   2.308   1.657   4.223
  439DPPC   C3216556   2.921   1.708   5.936
  439DPPC  OS3316557   2.995   1.610   5.860
  439DPPC   C3416558   3.129   1.606   5.881
  439DPPC   O3516559   3.189   1.680   5.961
  439DPPC   C3616560   3.193   1.492   5.804
  439DPPC   C3716561   3.194   1.514   5.653
  439DPPC   C3816562   3.298   1.618   5.614
  439DPPC   C3916563   3.313   1.626   5.462
  439DPPC   C4016564   3.182   1.670   5.396
  439DPPC   C4116565   3.202   1.703   5.248
  439DPPC   C4216566   3.244   1.581   5.165
  439DPPC   C4316567   3.262   1.622   5.019
  439DPPC   C4416568   3.127   1.657   4.956
  439DPPC   C4516569   3.143   1.723   4.819
  439DPPC   C4616570   3.202   1.627   4.715
  439DPPC   C4716571   3.215   1.697   4.580
  439DPPC   C4816572   3.276   1.605   4.474
  439DPPC   C4916573   3.291   1.677   4.340
  439DPPC   C5016574   3.154   1.710   4.281
  440DPPC    C116575   2.478   1.516   6.367
  440DPPC    C216576   2.617   1.347   6.456
  440DPPC    C316577   2.517   1.314   6.243
  440DPPC    N416578   2.496   1.371   6.376
  440DPPC    C516579   2.384   1.304   6.448
  440DPPC    C616580   2.239   1.309   6.394
  440DPPC   OS716581   2.181   1.439   6.394
  440DPPC    P816582   2.024   1.435   6.385
  440DPPC   OM916583   1.982   1.575   6.401
  440DPPC  OM1016584   1.971   1.326   6.469
  440DPPC  OS1116585   2.017   1.392   6.234
  440DPPC   C1216586   1.954   1.486   6.146
  440DPPC   C1316587   2.043   1.597   6.087
  440DPPC  OS1416588   1.967   1.701   6.018
  440DPPC   C1516589   2.027   1.821   5.991
  440DPPC   O1616590   2.135   1.856   6.041
  440DPPC   C1716591   1.936   1.911   5.910
  440DPPC   C1816592   1.937   1.871   5.762
  440DPPC   C1916593   2.072   1.903   5.698
  440DPPC   C2016594   2.072   1.866   5.549
  440DPPC   C2116595   1.975   1.954   5.471
  440DPPC   C2216596   1.979   1.923   5.321
  440DPPC   C2316597   1.878   2.012   5.249
  440DPPC   C2416598   1.877   1.991   5.098
  440DPPC   C2516599   2.012   2.029   5.036
  440DPPC   C2616600   2.000   2.049   4.885
  440DPPC   C2716601   1.958   1.922   4.811
  440DPPC   C2816602   1.960   1.948   4.660
  440DPPC   C2916603   1.857   2.055   4.622
  440DPPC   C3016604   1.865   2.088   4.472
  440DPPC   C3116605   1.761   2.193   4.433
  440DPPC   C3216606   2.154   1.524   6.008
  440DPPC  OS3316607   2.110   1.434   5.904
  440DPPC   C3416608   2.190   1.329   5.874
  440DPPC   O3516609   2.287   1.293   5.941
  440DPPC   C3616610   2.126   1.245   5.765
  440DPPC   C3716611   2.203   1.250   5.633
  440DPPC   C3816612   2.128   1.166   5.529
  440DPPC   C3916613   2.192   1.169   5.390
  440DPPC   C4016614   2.109   1.081   5.297
  440DPPC   C4116615   2.171   1.066   5.158
  440DPPC   C4216616   2.150   1.189   5.070
  440DPPC   C4316617   2.200   1.158   4.929
  440DPPC   C4416618   2.161   1.266   4.829
  440DPPC   C4516619   2.193   1.221   4.687
  440DPPC   C4616620   2.130   1.315   4.584
  440DPPC   C4716621   2.146   1.261   4.442
  440DPPC   C4816622   2.068   1.347   4.343
  440DPPC   C4916623   2.073   1.288   4.202
  440DPPC   C5016624   1.989   1.372   4.106
  441DPPC    C116625   4.000  10.395   6.572
  441DPPC    C216626   4.065  10.468   6.358
  441DPPC    C316627   4.070   0.116   6.546
  441DPPC    N416628   4.095  10.481   6.502
  441DPPC    C516629   4.233  10.436   6.531
  441DPPC    C616630   4.353   0.020   6.487
  441DPPC   OS716631   4.354   0.054   6.348
  441DPPC    P816632   4.486   0.124   6.302
  441DPPC   OM916633   4.539   0.202   6.416
  441DPPC  OM1016634   4.559   0.013   6.239
  441DPPC  OS1116635   4.421   0.224   6.200
  441DPPC   C1216636   4.379   0.159   6.079
  441DPPC   C1316637   4.270   0.235   6.002
  441DPPC  OS1416638   4.237   0.172   5.875
  441DPPC   C1516639   4.109   0.190   5.830
  441DPPC   O1616640   4.012   0.199   5.907
  441DPPC   C1716641   4.098   0.152   5.684
  441DPPC   C1816642   3.973   0.218   5.624
  441DPPC   C1916643   3.947   0.173   5.480
  441DPPC   C2016644   4.048   0.230   5.380
  441DPPC   C2116645   4.002   0.193   5.239
  441DPPC   C2216646   4.093   0.252   5.131
  441DPPC   C2316647   4.034   0.221   4.993
  441DPPC   C2416648   4.118   0.283   4.881
  441DPPC   C2516649   4.052   0.258   4.745
  441DPPC   C2616650   4.133   0.323   4.633
  441DPPC   C2716651   4.062   0.308   4.499
  441DPPC   C2816652   4.061   0.163   4.451
  441DPPC   C2916653   3.983   0.149   4.320
  441DPPC   C3016654   4.054   0.220   4.204
  441DPPC   C3116655   4.183   0.148   4.166
  441DPPC   C3216656   4.321   0.380   5.987
  441DPPC  OS3316657   4.226   0.471   5.929
  441DPPC   C3416658   4.262   0.602   5.925
  441DPPC   O3516659   4.373   0.646   5.955
  441DPPC   C3616660   4.144   0.684   5.876
  441DPPC   C3716661   4.173   0.759   5.746
  441DPPC   C3816662   4.175   0.666   5.626
  441DPPC   C3916663   4.185   0.748   5.497
  441DPPC   C4016664   4.189   0.659   5.373
  441DPPC   C4116665   4.193   0.745   5.247
  441DPPC   C4216666   4.210   0.661   5.121
  441DPPC   C4316667   4.224   0.750   4.997
  441DPPC   C4416668   4.259   0.666   4.875
  441DPPC   C4516669   4.285   0.754   4.752
  441DPPC   C4616670   4.334   0.667   4.636
  441DPPC   C4716671   4.368   0.750   4.513
  441DPPC   C4816672   4.419   0.661   4.400
  441DPPC   C4916673   4.453   0.743   4.275
  441DPPC   C5016674   4.327   0.804   4.215
  442DPPC    C116675   9.687   1.375   6.845
  442DPPC    C216676   9.807   1.572   6.897
  442DPPC    C316677   9.570   1.572   6.916
  442DPPC    N416678   9.683   1.521   6.836
  442DPPC    C516679   9.679   1.565   6.695
  442DPPC    C616680   9.550   1.544   6.612
  442DPPC   OS716681   9.510   1.409   6.585
  442DPPC    P816682   9.354   1.399   6.557
  442DPPC   OM916683   9.287   1.500   6.641
  442DPPC  OM1016684   9.325   1.255   6.564
  442DPPC  OS1116685   9.351   1.445   6.407
  442DPPC   C1216686   9.412   1.349   6.320
  442DPPC   C1316687   9.389   1.367   6.169
  442DPPC  OS1416688   9.479   1.283   6.090
  442DPPC   C1516689   9.469   1.147   6.083
  442DPPC   O1616690   9.407   1.077   6.164
  442DPPC   C1716691   9.573   1.095   5.984
  442DPPC   C1816692   9.547   0.951   5.943
  442DPPC   C1916693   9.665   0.896   5.862
  442DPPC   C2016694   9.671   0.956   5.721
  442DPPC   C2116695   9.562   0.895   5.633
  442DPPC   C2216696   9.568   0.950   5.490
  442DPPC   C2316697   9.697   0.908   5.419
  442DPPC   C2416698   9.691   0.950   5.272
  442DPPC   C2516699   9.584   0.869   5.199
  442DPPC   C2616700   9.565   0.915   5.054
  442DPPC   C2716701   9.686   0.882   4.967
  442DPPC   C2816702   9.659   0.920   4.821
  442DPPC   C2916703   9.777   0.885   4.731
  442DPPC   C3016704   9.744   0.915   4.585
  442DPPC   C3116705   9.858   0.872   4.492
  442DPPC   C3216706   9.412   1.517   6.142
  442DPPC  OS3316707   9.352   1.571   6.022
  442DPPC   C3416708   9.387   1.698   5.992
  442DPPC   O3516709   9.482   1.760   6.043
  442DPPC   C3616710   9.305   1.752   5.876
  442DPPC   C3716711   9.330   1.675   5.747
  442DPPC   C3816712   9.264   1.747   5.629
  442DPPC   C3916713   9.298   1.676   5.498
  442DPPC   C4016714   9.252   1.758   5.377
  442DPPC   C4116715   9.297   1.690   5.248
  442DPPC   C4216716   9.255   1.771   5.125
  442DPPC   C4316717   9.296   1.698   4.997
  442DPPC   C4416718   9.242   1.772   4.874
  442DPPC   C4516719   9.284   1.702   4.745
  442DPPC   C4616720   9.219   1.564   4.731
  442DPPC   C4716721   9.258   1.500   4.597
  442DPPC   C4816722   9.195   1.362   4.580
  442DPPC   C4916723   9.233   1.301   4.445
  442DPPC   C5016724   9.170   1.162   4.428
  443DPPC    C116725   1.274   0.306   6.102
  443DPPC    C216726   1.050   0.271   6.178
  443DPPC    C316727   1.222   0.117   6.234
  443DPPC    N416728   1.192   0.259   6.214
  443DPPC    C516729   1.222   0.331   6.340
  443DPPC    C616730   1.191   0.483   6.350
  443DPPC   OS716731   1.268   0.567   6.265
  443DPPC    P816732   1.224   0.716   6.279
  443DPPC   OM916733   1.109   0.732   6.190
  443DPPC  OM1016734   1.213   0.742   6.423
  443DPPC  OS1116735   1.354   0.788   6.229
  443DPPC   C1216736   1.361   0.792   6.087
  443DPPC   C1316737   1.499   0.838   6.039
  443DPPC  OS1416738   1.501   0.887   5.902
  443DPPC   C1516739   1.589   0.986   5.876
  443DPPC   O1616740   1.633   1.060   5.966
  443DPPC   C1716741   1.593   1.017   5.727
  443DPPC   C1816742   1.736   1.029   5.676
  443DPPC   C1916743   1.737   1.067   5.528
  443DPPC   C2016744   1.678   0.957   5.441
  443DPPC   C2116745   1.672   1.002   5.295
  443DPPC   C2216746   1.611   0.895   5.205
  443DPPC   C2316747   1.597   0.949   5.063
  443DPPC   C2416748   1.535   0.845   4.969
  443DPPC   C2516749   1.513   0.908   4.831
  443DPPC   C2616750   1.646   0.945   4.765
  443DPPC   C2716751   1.624   1.025   4.637
  443DPPC   C2816752   1.757   1.054   4.568
  443DPPC   C2916753   1.737   1.145   4.447
  443DPPC   C3016754   1.652   1.079   4.337
  443DPPC   C3116755   1.630   1.178   4.222
  443DPPC   C3216756   1.597   0.723   6.072
  443DPPC  OS3316757   1.562   0.596   6.014
  443DPPC   C3416758   1.666   0.515   5.982
  443DPPC   O3516759   1.785   0.543   6.001
  443DPPC   C3616760   1.615   0.386   5.920
  443DPPC   C3716761   1.516   0.416   5.808
  443DPPC   C3816762   1.587   0.468   5.683
  443DPPC   C3916763   1.486   0.489   5.570
  443DPPC   C4016764   1.554   0.526   5.439
  443DPPC   C4116765   1.645   0.412   5.394
  443DPPC   C4216766   1.684   0.425   5.246
  443DPPC   C4316767   1.561   0.402   5.159
  443DPPC   C4416768   1.598   0.393   5.011
  443DPPC   C4516769   1.473   0.362   4.928
  443DPPC   C4616770   1.508   0.335   4.782
  443DPPC   C4716771   1.382   0.296   4.704
  443DPPC   C4816772   1.415   0.256   4.560
  443DPPC   C4916773   1.288   0.211   4.488
  443DPPC   C5016774   1.320   0.166   4.345
  444DPPC    C116775   0.926   0.942   6.334
  444DPPC    C216776   0.760   0.867   6.177
  444DPPC    C316777   0.710   1.037   6.338
  444DPPC    N416778   0.784   0.912   6.315
  444DPPC    C516779   0.735   0.813   6.414
  444DPPC    C616780   0.787   0.667   6.408
  444DPPC   OS716781   0.723   0.581   6.501
  444DPPC    P816782   0.760   0.429   6.478
  444DPPC   OM916783   0.729   0.356   6.601
  444DPPC  OM1016784   0.890   0.416   6.412
  444DPPC  OS1116785   0.646   0.397   6.375
  444DPPC   C1216786   0.688   0.312   6.269
  444DPPC   C1316787   0.589   0.303   6.153
  444DPPC  OS1416788   0.640   0.217   6.048
  444DPPC   C1516789   0.557   0.120   6.002
  444DPPC   O1616790   0.461   0.079   6.068
  444DPPC   C1716791   0.625   0.044   5.889
  444DPPC   C1816792   0.534   0.022   5.769
  444DPPC   C1916793   0.511   0.152   5.692
  444DPPC   C2016794   0.433   0.126   5.563
  444DPPC   C2116795   0.520   0.056   5.458
  444DPPC   C2216796   0.441   0.027   5.331
  444DPPC   C2316797   0.529  10.469   5.222
  444DPPC   C2416798   0.444  10.433   5.100
  444DPPC   C2516799   0.528  10.379   4.984
  444DPPC   C2616800   0.436  10.332   4.871
  444DPPC   C2716801   0.511  10.288   4.745
  444DPPC   C2816802   0.411  10.235   4.643
  444DPPC   C2916803   0.473  10.207   4.506
  444DPPC   C3016804   0.508  10.338   4.435
  444DPPC   C3116805   0.549  10.313   4.290
  444DPPC   C3216806   0.568   0.450   6.109
  444DPPC  OS3316807   0.452   0.478   6.028
  444DPPC   C3416808   0.446   0.606   5.985
  444DPPC   O3516809   0.538   0.687   5.998
  444DPPC   C3616810   0.315   0.633   5.913
  444DPPC   C3716811   0.302   0.552   5.784
  444DPPC   C3816812   0.390   0.608   5.672
  444DPPC   C3916813   0.361   0.537   5.540
  444DPPC   C4016814   0.441   0.599   5.425
  444DPPC   C4116815   0.400   0.541   5.290
  444DPPC   C4216816   0.469   0.617   5.177
  444DPPC   C4316817   0.414   0.578   5.039
  444DPPC   C4416818   0.465   0.442   4.992
  444DPPC   C4516819   0.399   0.404   4.860
  444DPPC   C4616820   0.452   0.271   4.805
  444DPPC   C4716821   0.590   0.288   4.741
  444DPPC   C4816822   0.642   0.154   4.689
  444DPPC   C4916823   0.774   0.169   4.614
  444DPPC   C5016824   0.753   0.240   4.480
  445DPPC    C116825   0.384   0.209   6.530
  445DPPC    C216826   0.197   0.316   6.630
  445DPPC    C316827   0.421   0.380   6.689
  445DPPC    N416828   0.333   0.337   6.579
  445DPPC    C516829   0.337   0.432   6.465
  445DPPC    C616830   0.311   0.583   6.486
  445DPPC   OS716831   0.349   0.661   6.373
  445DPPC    P816832   0.345   0.816   6.397
  445DPPC   OM916833   0.377   0.841   6.539
  445DPPC  OM1016834   0.424   0.883   6.293
  445DPPC  OS1116835   0.193   0.844   6.372
  445DPPC   C1216836   0.159   0.830   6.234
  445DPPC   C1316837   0.007   0.827   6.208
  445DPPC  OS1416838  10.131   0.777   6.076
  445DPPC   C1516839  10.007   0.723   6.061
  445DPPC   O1616840   9.923   0.720   6.152
  445DPPC   C1716841   9.985   0.671   5.920
  445DPPC   C1816842  10.059   0.757   5.818
  445DPPC   C1916843  10.036   0.703   5.677
  445DPPC   C2016844  10.113   0.788   5.576
  445DPPC   C2116845  10.097   0.732   5.434
  445DPPC   C2216846   0.027   0.811   5.337
  445DPPC   C2316847   0.033   0.746   5.199
  445DPPC   C2416848  10.058   0.761   5.124
  445DPPC   C2516849  10.066   0.687   4.991
  445DPPC   C2616850   0.013   0.748   4.899
  445DPPC   C2716851   0.022   0.669   4.768
  445DPPC   C2816852   0.130   0.726   4.677
  445DPPC   C2916853   0.140   0.646   4.547
  445DPPC   C3016854   0.251   0.702   4.457
  445DPPC   C3116855   0.215   0.842   4.407
  445DPPC   C3216856  10.112   0.967   6.246
  445DPPC  OS3316857  10.151   1.076   6.159
  445DPPC   C3416858  10.055   1.111   6.069
  445DPPC   O3516859   9.934   1.100   6.093
  445DPPC   C3616860  10.112   1.195   5.956
  445DPPC   C3716861  10.040   1.160   5.825
  445DPPC   C3816862  10.102   1.232   5.705
  445DPPC   C3916863  10.034   1.186   5.576
  445DPPC   C4016864  10.101   1.248   5.453
  445DPPC   C4116865  10.037   1.195   5.325
  445DPPC   C4216866  10.111   1.249   5.202
  445DPPC   C4316867  10.053   1.191   5.073
  445DPPC   C4416868  10.128   1.243   4.951
  445DPPC   C4516869  10.071   1.185   4.822
  445DPPC   C4616870  10.147   1.237   4.699
  445DPPC   C4716871  10.089   1.177   4.571
  445DPPC   C4816872   0.008   1.225   4.448
  445DPPC   C4916873  10.109   1.163   4.320
  445DPPC   C5016874   9.968   1.216   4.291
  446DPPC    C116875   4.676   2.497   6.566
  446DPPC    C216876   4.906   2.458   6.521
  446DPPC    C316877   4.782   2.599   6.376
  446DPPC    N416878   4.775   2.477   6.458
  446DPPC    C516879   4.745   2.357   6.377
  446DPPC    C616880   4.613   2.349   6.296
  446DPPC   OS716881   4.494   2.333   6.373
  446DPPC    P816882   4.364   2.369   6.292
  446DPPC   OM916883   4.394   2.383   6.149
  446DPPC  OM1016884   4.287   2.467   6.370
  446DPPC  OS1116885   4.294   2.232   6.312
  446DPPC   C1216886   4.181   2.226   6.224
  446DPPC   C1316887   4.114   2.088   6.205
  446DPPC  OS1416888   4.203   1.986   6.150
  446DPPC   C1516889   4.160   1.856   6.150
  446DPPC   O1616890   4.079   1.812   6.233
  446DPPC   C1716891   4.250   1.773   6.061
  446DPPC   C1816892   4.173   1.659   5.993
  446DPPC   C1916893   4.067   1.712   5.897
  446DPPC   C2016894   4.127   1.781   5.774
  446DPPC   C2116895   4.016   1.813   5.673
  446DPPC   C2216896   4.074   1.869   5.543
  446DPPC   C2316897   3.965   1.878   5.436
  446DPPC   C2416898   4.024   1.922   5.302
  446DPPC   C2516899   3.915   1.922   5.194
  446DPPC   C2616900   3.972   1.965   5.058
  446DPPC   C2716901   3.862   1.962   4.952
  446DPPC   C2816902   3.917   2.006   4.816
  446DPPC   C2916903   3.809   1.999   4.708
  446DPPC   C3016904   3.865   2.041   4.573
  446DPPC   C3116905   3.758   2.034   4.464
  446DPPC   C3216906   3.990   2.119   6.118
  446DPPC  OS3316907   4.022   2.182   5.992
  446DPPC   C3416908   3.931   2.169   5.892
  446DPPC   O3516909   3.830   2.099   5.899
  446DPPC   C3616910   3.984   2.235   5.766
  446DPPC   C3716911   3.879   2.235   5.654
  446DPPC   C3816912   3.938   2.288   5.524
  446DPPC   C3916913   3.831   2.292   5.415
  446DPPC   C4016914   3.889   2.339   5.281
  446DPPC   C4116915   3.778   2.344   5.175
  446DPPC   C4216916   3.833   2.384   5.038
  446DPPC   C4316917   3.719   2.391   4.937
  446DPPC   C4416918   3.770   2.424   4.797
  446DPPC   C4516919   3.654   2.430   4.698
  446DPPC   C4616920   3.704   2.459   4.556
  446DPPC   C4716921   3.587   2.465   4.458
  446DPPC   C4816922   3.636   2.492   4.316
  446DPPC   C4916923   3.519   2.496   4.218
  446DPPC   C5016924   3.568   2.522   4.076
  447DPPC    C116925   1.777   1.813   6.343
  447DPPC    C216926   1.776   1.938   6.547
  447DPPC    C316927   1.691   2.034   6.348
  447DPPC    N416928   1.701   1.909   6.424
  447DPPC    C516929   1.564   1.862   6.453
  447DPPC    C616930   1.543   1.726   6.526
  447DPPC   OS716931   1.406   1.689   6.543
  447DPPC    P816932   1.384   1.534   6.535
  447DPPC   OM916933   1.505   1.461   6.573
  447DPPC  OM1016934   1.255   1.508   6.603
  447DPPC  OS1116935   1.372   1.529   6.378
  447DPPC   C1216936   1.236   1.526   6.334
  447DPPC   C1316937   1.210   1.595   6.200
  447DPPC  OS1416938   1.068   1.604   6.169
  447DPPC   C1516939   1.023   1.732   6.156
  447DPPC   O1616940   1.099   1.828   6.155
  447DPPC   C1716941   0.874   1.737   6.126
  447DPPC   C1816942   0.853   1.751   5.975
  447DPPC   C1916943   0.706   1.734   5.937
  447DPPC   C2016944   0.692   1.739   5.785
  447DPPC   C2116945   0.548   1.709   5.741
  447DPPC   C2216946   0.538   1.709   5.589
  447DPPC   C2316947   0.625   1.599   5.528
  447DPPC   C2416948   0.600   1.590   5.377
  447DPPC   C2516949   0.652   1.714   5.305
  447DPPC   C2616950   0.605   1.717   5.159
  447DPPC   C2716951   0.662   1.602   5.077
  447DPPC   C2816952   0.611   1.611   4.933
  447DPPC   C2916953   0.459   1.596   4.929
  447DPPC   C3016954   0.405   1.614   4.788
  447DPPC   C3116955   0.253   1.592   4.785
  447DPPC   C3216956   1.301   1.528   6.095
  447DPPC  OS3316957   1.288   1.575   5.959
  447DPPC   C3416958   1.333   1.700   5.927
  447DPPC   O3516959   1.411   1.767   5.994
  447DPPC   C3616960   1.290   1.734   5.785
  447DPPC   C3716961   1.161   1.659   5.750
  447DPPC   C3816962   1.101   1.706   5.617
  447DPPC   C3916963   1.186   1.665   5.497
  447DPPC   C4016964   1.111   1.699   5.369
  447DPPC   C4116965   1.187   1.655   5.244
  447DPPC   C4216966   1.097   1.671   5.121
  447DPPC   C4316967   1.162   1.621   4.992
  447DPPC   C4416968   1.057   1.620   4.881
  447DPPC   C4516969   1.112   1.572   4.747
  447DPPC   C4616970   0.999   1.565   4.645
  447DPPC   C4716971   1.047   1.522   4.507
  447DPPC   C4816972   1.126   1.633   4.437
  447DPPC   C4916973   1.167   1.588   4.296
  447DPPC   C5016974   1.237   1.701   4.220
  448DPPC    C116975   5.334   0.921   6.451
  448DPPC    C216976   5.326   1.159   6.477
  448DPPC    C316977   5.325   1.019   6.667
  448DPPC    N416978   5.277   1.031   6.529
  448DPPC    C516979   5.129   1.025   6.533
  448DPPC    C616980   5.047   1.044   6.404
  448DPPC   OS716981   4.906   1.044   6.426
  448DPPC    P816982   4.826   1.066   6.293
  448DPPC   OM916983   4.683   1.060   6.325
  448DPPC  OM1016984   4.884   0.982   6.186
  448DPPC  OS1116985   4.858   1.215   6.261
  448DPPC   C1216986   4.789   1.252   6.142
  448DPPC   C1316987   4.799   1.399   6.101
  448DPPC  OS1416988   4.718   1.421   5.983
  448DPPC   C1516989   4.633   1.527   5.985
  448DPPC   O1616990   4.603   1.588   6.088
  448DPPC   C1716991   4.563   1.539   5.850
  448DPPC   C1816992   4.568   1.682   5.796
  448DPPC   C1916993   4.711   1.720   5.758
  448DPPC   C2016994   4.761   1.650   5.631
  448DPPC   C2116995   4.694   1.706   5.506
  448DPPC   C2216996   4.758   1.650   5.379
  448DPPC   C2316997   4.691   1.706   5.253
  448DPPC   C2416998   4.762   1.653   5.128
  448DPPC   C2516999   4.697   1.704   5.000
  448DPPC   C2617000   4.773   1.652   4.878
  448DPPC   C2717001   4.713   1.705   4.748
  448DPPC   C2817002   4.794   1.656   4.628
  448DPPC   C2917003   4.737   1.710   4.496
  448DPPC   C3017004   4.600   1.650   4.468
  448DPPC   C3117005   4.544   1.701   4.335
  448DPPC   C3217006   4.950   1.430   6.088
  448DPPC  OS3317007   4.988   1.551   6.018
  448DPPC   C3417008   5.000   1.668   6.086
  448DPPC   O3517009   5.011   1.679   6.209
  448DPPC   C3617010   5.026   1.779   5.985
  448DPPC   C3717011   5.004   1.920   6.039
  448DPPC   C3817012   4.940   2.004   5.930
  448DPPC   C3917013   5.025   2.002   5.803
  448DPPC   C4017014   4.942   2.047   5.681
  448DPPC   C4117015   5.022   2.029   5.552
  448DPPC   C4217016   4.934   2.052   5.429
  448DPPC   C4317017   5.015   2.036   5.301
  448DPPC   C4417018   4.928   2.053   5.176
  448DPPC   C4517019   5.014   2.043   5.050
  448DPPC   C4617020   4.931   2.056   4.923
  448DPPC   C4717021   5.022   2.051   4.800
  448DPPC   C4817022   4.942   2.066   4.670
  448DPPC   C4917023   5.036   2.067   4.549
  448DPPC   C5017024   5.106   1.933   4.532
  449DPPC    C117025   6.252   3.058   6.658
  449DPPC    C217026   6.115   3.255   6.650
  449DPPC    C317027   6.080   3.091   6.817
  449DPPC    N417028   6.115   3.111   6.676
  449DPPC    C517029   6.016   3.041   6.591
  449DPPC    C617030   6.033   3.046   6.437
  449DPPC   OS717031   5.925   2.990   6.362
  449DPPC    P817032   5.859   3.103   6.274
  449DPPC   OM917033   5.793   3.194   6.367
  449DPPC  OM1017034   5.964   3.150   6.182
  449DPPC  OS1117035   5.750   3.018   6.201
  449DPPC   C1217036   5.801   2.950   6.086
  449DPPC   C1317037   5.694   2.858   6.024
  449DPPC  OS1417038   5.745   2.768   5.922
  449DPPC   C1517039   5.681   2.649   5.912
  449DPPC   O1617040   5.614   2.605   6.006
  449DPPC   C1717041   5.722   2.573   5.787
  449DPPC   C1817042   5.680   2.651   5.662
  449DPPC   C1917043   5.705   2.570   5.535
  449DPPC   C2017044   5.658   2.649   5.412
  449DPPC   C2117045   5.676   2.568   5.284
  449DPPC   C2217046   5.626   2.647   5.163
  449DPPC   C2317047   5.640   2.565   5.035
  449DPPC   C2417048   5.591   2.644   4.913
  449DPPC   C2517049   5.681   2.765   4.888
  449DPPC   C2617050   5.642   2.838   4.760
  449DPPC   C2717051   5.738   2.954   4.734
  449DPPC   C2817052   5.710   3.020   4.599
  449DPPC   C2917053   5.813   3.130   4.571
  449DPPC   C3017054   5.791   3.194   4.434
  449DPPC   C3117055   5.821   3.094   4.323
  449DPPC   C3217056   5.578   2.950   5.982
  449DPPC  OS3317057   5.605   3.038   5.871
  449DPPC   C3417058   5.524   3.146   5.859
  449DPPC   O3517059   5.465   3.199   5.954
  449DPPC   C3617060   5.547   3.212   5.724
  449DPPC   C3717061   5.692   3.192   5.679
  449DPPC   C3817062   5.720   3.258   5.544
  449DPPC   C3917063   5.670   3.174   5.426
  449DPPC   C4017064   5.694   3.250   5.295
  449DPPC   C4117065   5.656   3.163   5.175
  449DPPC   C4217066   5.657   3.246   5.046
  449DPPC   C4317067   5.798   3.290   5.008
  449DPPC   C4417068   5.791   3.383   4.887
  449DPPC   C4517069   5.930   3.422   4.837
  449DPPC   C4617070   5.917   3.520   4.720
  449DPPC   C4717071   6.054   3.556   4.662
  449DPPC   C4817072   6.039   3.658   4.550
  449DPPC   C4917073   6.176   3.692   4.490
  449DPPC   C5017074   6.232   3.573   4.412
  450DPPC    C117075   5.306   4.213   6.708
  450DPPC    C217076   5.450   4.214   6.521
  450DPPC    C317077   5.534   4.156   6.739
  450DPPC    N417078   5.443   4.244   6.665
  450DPPC    C517079   5.470   4.387   6.693
  450DPPC    C617080   5.609   4.447   6.662
  450DPPC   OS717081   5.642   4.455   6.523
  450DPPC    P817082   5.790   4.503   6.499
  450DPPC   OM917083   5.833   4.596   6.604
  450DPPC  OM1017084   5.805   4.538   6.357
  450DPPC  OS1117085   5.859   4.366   6.530
  450DPPC   C1217086   5.889   4.289   6.414
  450DPPC   C1317087   5.955   4.155   6.449
  450DPPC  OS1417088   6.022   4.093   6.337
  450DPPC   C1517089   6.125   4.008   6.365
  450DPPC   O1617090   6.193   4.019   6.468
  450DPPC   C1717091   6.166   3.936   6.238
  450DPPC   C1817092   6.226   3.797   6.263
  450DPPC   C1917093   6.376   3.797   6.236
  450DPPC   C2017094   6.432   3.655   6.227
  450DPPC   C2117095   6.376   3.582   6.105
  450DPPC   C2217096   6.419   3.648   5.974
  450DPPC   C2317097   6.360   3.575   5.853
  450DPPC   C2417098   6.398   3.644   5.722
  450DPPC   C2517099   6.343   3.564   5.603
  450DPPC   C2617100   6.381   3.627   5.469
  450DPPC   C2717101   6.337   3.537   5.354
  450DPPC   C2817102   6.378   3.595   5.219
  450DPPC   C2917103   6.347   3.497   5.106
  450DPPC   C3017104   6.394   3.551   4.971
  450DPPC   C3117105   6.373   3.448   4.860
  450DPPC   C3217106   5.847   4.072   6.520
  450DPPC  OS3317107   5.724   4.044   6.449
  450DPPC   C3417108   5.722   3.926   6.380
  450DPPC   O3517109   5.811   3.842   6.386
  450DPPC   C3617110   5.586   3.903   6.315
  450DPPC   C3717111   5.547   4.015   6.219
  450DPPC   C3817112   5.623   4.007   6.087
  450DPPC   C3917113   5.571   4.112   5.990
  450DPPC   C4017114   5.636   4.098   5.853
  450DPPC   C4117115   5.573   4.194   5.752
  450DPPC   C4217116   5.634   4.173   5.614
  450DPPC   C4317117   5.569   4.262   5.508
  450DPPC   C4417118   5.631   4.233   5.371
  450DPPC   C4517119   5.568   4.316   5.260
  450DPPC   C4617120   5.642   4.290   5.128
  450DPPC   C4717121   5.587   4.377   5.015
  450DPPC   C4817122   5.671   4.356   4.888
  450DPPC   C4917123   5.618   4.441   4.772
  450DPPC   C5017124   5.482   4.391   4.724
  451DPPC    C117125   9.075   8.076   6.473
  451DPPC    C217126   8.857   8.088   6.382
  451DPPC    C317127   8.889   8.010   6.605
  451DPPC    N417128   8.935   8.108   6.505
  451DPPC    C517129   8.927   8.247   6.556
  451DPPC    C617130   8.791   8.305   6.603
  451DPPC   OS717131   8.696   8.325   6.499
  451DPPC    P817132   8.558   8.380   6.551
  451DPPC   OM917133   8.449   8.331   6.466
  451DPPC  OM1017134   8.548   8.370   6.697
  451DPPC  OS1117135   8.579   8.533   6.520
  451DPPC   C1217136   8.576   8.557   6.379
  451DPPC   C1317137   8.571   8.706   6.337
  451DPPC  OS1417138   8.548   8.723   6.195
  451DPPC   C1517139   8.441   8.799   6.159
  451DPPC   O1617140   8.377   8.867   6.240
  451DPPC   C1717141   8.420   8.794   6.008
  451DPPC   C1817142   8.274   8.762   5.974
  451DPPC   C1917143   8.262   8.702   5.834
  451DPPC   C2017144   8.295   8.802   5.723
  451DPPC   C2117145   8.295   8.733   5.586
  451DPPC   C2217146   8.327   8.834   5.476
  451DPPC   C2317147   8.349   8.768   5.339
  451DPPC   C2417148   8.219   8.709   5.283
  451DPPC   C2517149   8.239   8.658   5.140
  451DPPC   C2617150   8.106   8.607   5.084
  451DPPC   C2717151   8.116   8.570   4.936
  451DPPC   C2817152   7.979   8.527   4.883
  451DPPC   C2917153   7.985   8.493   4.734
  451DPPC   C3017154   7.846   8.454   4.682
  451DPPC   C3117155   7.850   8.421   4.533
  451DPPC   C3217156   8.695   8.777   6.396
  451DPPC  OS3317157   8.824   8.716   6.372
  451DPPC   C3417158   8.910   8.788   6.295
  451DPPC   O3517159   8.910   8.911   6.292
  451DPPC   C3617160   9.033   8.703   6.268
  451DPPC   C3717161   9.029   8.630   6.134
  451DPPC   C3817162   9.059   8.722   6.016
  451DPPC   C3917163   9.080   8.637   5.891
  451DPPC   C4017164   9.108   8.719   5.765
  451DPPC   C4117165   9.136   8.622   5.650
  451DPPC   C4217166   9.148   8.691   5.514
  451DPPC   C4317167   9.168   8.585   5.406
  451DPPC   C4417168   9.162   8.646   5.265
  451DPPC   C4517169   9.169   8.535   5.160
  451DPPC   C4617170   9.147   8.592   5.020
  451DPPC   C4717171   9.141   8.479   4.916
  451DPPC   C4817172   9.109   8.535   4.778
  451DPPC   C4917173   9.097   8.422   4.675
  451DPPC   C5017174   9.064   8.478   4.536
  452DPPC    C117175   6.496   2.431   6.415
  452DPPC    C217176   6.471   2.615   6.261
  452DPPC    C317177   6.354   2.413   6.226
  452DPPC    N417178   6.481   2.468   6.274
  452DPPC    C517179   6.589   2.414   6.187
  452DPPC    C617180   6.738   2.433   6.226
  452DPPC   OS717181   6.782   2.567   6.242
  452DPPC    P817182   6.888   2.605   6.133
  452DPPC   OM917183   6.812   2.609   6.008
  452DPPC  OM1017184   6.999   2.511   6.155
  452DPPC  OS1117185   6.921   2.745   6.194
  452DPPC   C1217186   6.853   2.849   6.124
  452DPPC   C1317187   6.871   2.990   6.184
  452DPPC  OS1417188   6.790   3.086   6.111
  452DPPC   C1517189   6.713   3.178   6.175
  452DPPC   O1617190   6.691   3.180   6.296
  452DPPC   C1717191   6.645   3.264   6.069
  452DPPC   C1817192   6.736   3.266   5.946
  452DPPC   C1917193   6.666   3.314   5.818
  452DPPC   C2017194   6.763   3.299   5.701
  452DPPC   C2117195   6.697   3.335   5.568
  452DPPC   C2217196   6.796   3.313   5.453
  452DPPC   C2317197   6.733   3.351   5.319
  452DPPC   C2417198   6.831   3.330   5.204
  452DPPC   C2517199   6.767   3.376   5.073
  452DPPC   C2617200   6.862   3.362   4.954
  452DPPC   C2717201   6.796   3.421   4.829
  452DPPC   C2817202   6.880   3.398   4.703
  452DPPC   C2917203   6.810   3.459   4.582
  452DPPC   C3017204   6.675   3.392   4.560
  452DPPC   C3117205   6.604   3.450   4.438
  452DPPC   C3217206   7.022   3.019   6.186
  452DPPC  OS3317207   7.091   3.011   6.059
  452DPPC   C3417208   7.130   3.129   6.004
  452DPPC   O3517209   7.124   3.238   6.061
  452DPPC   C3617210   7.202   3.107   5.872
  452DPPC   C3717211   7.111   3.054   5.762
  452DPPC   C3817212   7.186   3.052   5.629
  452DPPC   C3917213   7.099   3.003   5.513
  452DPPC   C4017214   7.174   3.016   5.381
  452DPPC   C4117215   7.198   3.164   5.350
  452DPPC   C4217216   7.280   3.186   5.223
  452DPPC   C4317217   7.202   3.149   5.097
  452DPPC   C4417218   7.283   3.185   4.972
  452DPPC   C4517219   7.205   3.155   4.843
  452DPPC   C4617220   7.193   3.004   4.819
  452DPPC   C4717221   7.116   2.977   4.690
  452DPPC   C4817222   7.195   3.022   4.566
  452DPPC   C4917223   7.317   2.933   4.542
  452DPPC   C5017224   7.396   2.980   4.420
  453DPPC    C117225   6.545   5.153   6.877
  453DPPC    C217226   6.411   5.321   6.779
  453DPPC    C317227   6.378   5.095   6.715
  453DPPC    N417228   6.479   5.195   6.752
  453DPPC    C517229   6.575   5.220   6.642
  453DPPC    C617230   6.657   5.105   6.579
  453DPPC   OS717231   6.742   5.038   6.672
  453DPPC    P817232   6.809   4.909   6.612
  453DPPC   OM917233   6.886   4.850   6.722
  453DPPC  OM1017234   6.873   4.949   6.487
  453DPPC  OS1117235   6.683   4.820   6.583
  453DPPC   C1217236   6.717   4.717   6.489
  453DPPC   C1317237   6.597   4.637   6.435
  453DPPC  OS1417238   6.635   4.518   6.358
  453DPPC   C1517239   6.537   4.425   6.333
  453DPPC   O1617240   6.429   4.420   6.392
  453DPPC   C1717241   6.589   4.320   6.236
  453DPPC   C1817242   6.486   4.210   6.209
  453DPPC   C1917243   6.538   4.113   6.103
  453DPPC   C2017244   6.540   4.179   5.965
  453DPPC   C2117245   6.399   4.197   5.910
  453DPPC   C2217246   6.399   4.281   5.782
  453DPPC   C2317247   6.460   4.207   5.663
  453DPPC   C2417248   6.369   4.092   5.616
  453DPPC   C2517249   6.422   4.032   5.486
  453DPPC   C2617250   6.412   4.133   5.372
  453DPPC   C2717251   6.461   4.074   5.240
  453DPPC   C2817252   6.452   4.178   5.128
  453DPPC   C2917253   6.502   4.120   4.996
  453DPPC   C3017254   6.495   4.224   4.884
  453DPPC   C3117255   6.549   4.167   4.753
  453DPPC   C3217256   6.512   4.741   6.359
  453DPPC  OS3317257   6.576   4.804   6.247
  453DPPC   C3417258   6.500   4.897   6.183
  453DPPC   O3517259   6.385   4.924   6.218
  453DPPC   C3617260   6.569   4.951   6.059
  453DPPC   C3717261   6.590   4.840   5.956
  453DPPC   C3817262   6.455   4.784   5.910
  453DPPC   C3917263   6.471   4.682   5.797
  453DPPC   C4017264   6.504   4.753   5.665
  453DPPC   C4117265   6.506   4.654   5.548
  453DPPC   C4217266   6.521   4.730   5.417
  453DPPC   C4317267   6.518   4.635   5.297
  453DPPC   C4417268   6.526   4.715   5.167
  453DPPC   C4517269   6.530   4.623   5.045
  453DPPC   C4617270   6.540   4.705   4.917
  453DPPC   C4717271   6.559   4.615   4.795
  453DPPC   C4817272   6.578   4.700   4.669
  453DPPC   C4917273   6.610   4.613   4.547
  453DPPC   C5017274   6.637   4.702   4.425
  454DPPC    C117275   5.987   5.035   6.499
  454DPPC    C217276   5.946   4.827   6.396
  454DPPC    C317277   6.096   4.979   6.293
  454DPPC    N417278   5.971   4.968   6.369
  454DPPC    C517279   5.857   5.022   6.291
  454DPPC    C617280   5.853   5.173   6.259
  454DPPC   OS717281   5.807   5.254   6.367
  454DPPC    P817282   5.825   5.406   6.333
  454DPPC   OM917283   5.961   5.430   6.286
  454DPPC  OM1017284   5.771   5.480   6.448
  454DPPC  OS1117285   5.723   5.422   6.216
  454DPPC   C1217286   5.745   5.546   6.149
  454DPPC   C1317287   5.633   5.581   6.050
  454DPPC  OS1417288   5.506   5.611   6.115
  454DPPC   C1517289   5.468   5.741   6.107
  454DPPC   O1617290   5.536   5.824   6.045
  454DPPC   C1717291   5.333   5.764   6.171
  454DPPC   C1817292   5.243   5.843   6.075
  454DPPC   C1917293   5.212   5.758   5.952
  454DPPC   C2017294   5.151   5.844   5.841
  454DPPC   C2117295   5.144   5.766   5.710
  454DPPC   C2217296   5.104   5.858   5.595
  454DPPC   C2317297   5.113   5.784   5.461
  454DPPC   C2417298   5.080   5.876   5.344
  454DPPC   C2517299   5.100   5.803   5.212
  454DPPC   C2617300   5.075   5.896   5.093
  454DPPC   C2717301   5.116   5.829   4.962
  454DPPC   C2817302   5.096   5.923   4.844
  454DPPC   C2917303   5.158   5.864   4.717
  454DPPC   C3017304   5.088   5.735   4.675
  454DPPC   C3117305   5.148   5.679   4.546
  454DPPC   C3217306   5.623   5.466   5.950
  454DPPC  OS3317307   5.727   5.459   5.850
  454DPPC   C3417308   5.727   5.343   5.778
  454DPPC   O3517309   5.658   5.245   5.808
  454DPPC   C3617310   5.819   5.350   5.658
  454DPPC   C3717311   5.735   5.385   5.535
  454DPPC   C3817312   5.812   5.365   5.405
  454DPPC   C3917313   5.722   5.396   5.285
  454DPPC   C4017314   5.790   5.362   5.153
  454DPPC   C4117315   5.698   5.396   5.036
  454DPPC   C4217316   5.757   5.352   4.902
  454DPPC   C4317317   5.664   5.393   4.788
  454DPPC   C4417318   5.718   5.346   4.653
  454DPPC   C4517319   5.630   5.398   4.539
  454DPPC   C4617320   5.491   5.334   4.542
  454DPPC   C4717321   5.403   5.394   4.433
  454DPPC   C4817322   5.457   5.360   4.294
  454DPPC   C4917323   5.369   5.422   4.185
  454DPPC   C5017324   5.229   5.361   4.187
  455DPPC    C117325   7.180   5.080   6.544
  455DPPC    C217326   7.177   4.893   6.398
  455DPPC    C317327   7.385   4.978   6.481
  455DPPC    N417328   7.245   4.951   6.515
  455DPPC    C517329   7.232   4.863   6.634
  455DPPC    C617330   7.298   4.723   6.636
  455DPPC   OS717331   7.240   4.624   6.551
  455DPPC    P817332   7.331   4.496   6.535
  455DPPC   OM917333   7.243   4.381   6.557
  455DPPC  OM1017334   7.456   4.510   6.610
  455DPPC  OS1117335   7.361   4.515   6.382
  455DPPC   C1217336   7.249   4.480   6.301
  455DPPC   C1317337   7.276   4.479   6.149
  455DPPC  OS1417338   7.355   4.365   6.104
  455DPPC   C1517339   7.283   4.259   6.059
  455DPPC   O1617340   7.159   4.257   6.069
  455DPPC   C1717341   7.371   4.145   6.012
  455DPPC   C1817342   7.293   4.018   5.977
  455DPPC   C1917343   7.225   4.026   5.840
  455DPPC   C2017344   7.324   4.015   5.724
  455DPPC   C2117345   7.251   4.031   5.591
  455DPPC   C2217346   7.344   4.017   5.470
  455DPPC   C2317347   7.266   4.050   5.342
  455DPPC   C2417348   7.349   4.031   5.215
  455DPPC   C2517349   7.268   4.078   5.094
  455DPPC   C2617350   7.337   4.055   4.960
  455DPPC   C2717351   7.254   4.119   4.849
  455DPPC   C2817352   7.306   4.086   4.709
  455DPPC   C2917353   7.443   4.149   4.683
  455DPPC   C3017354   7.485   4.130   4.537
  455DPPC   C3117355   7.501   3.982   4.503
  455DPPC   C3217356   7.328   4.618   6.111
  455DPPC  OS3317357   7.228   4.721   6.124
  455DPPC   C3417358   7.190   4.780   6.006
  455DPPC   O3517359   7.238   4.749   5.897
  455DPPC   C3617360   7.081   4.883   6.026
  455DPPC   C3717361   7.055   4.955   5.894
  455DPPC   C3817362   6.941   5.056   5.901
  455DPPC   C3917363   6.929   5.130   5.769
  455DPPC   C4017364   6.889   5.037   5.654
  455DPPC   C4117365   6.894   5.113   5.521
  455DPPC   C4217366   6.851   5.026   5.402
  455DPPC   C4317367   6.867   5.105   5.272
  455DPPC   C4417368   6.823   5.024   5.150
  455DPPC   C4517369   6.853   5.101   5.021
  455DPPC   C4617370   6.809   5.022   4.898
  455DPPC   C4717371   6.850   5.090   4.768
  455DPPC   C4817372   6.802   5.008   4.648
  455DPPC   C4917373   6.838   5.071   4.514
  455DPPC   C5017374   6.986   5.053   4.481
  456DPPC    C117375   6.903   5.749   6.988
  456DPPC    C217376   6.955   5.973   6.926
  456DPPC    C317377   6.733   5.917   6.991
  456DPPC    N417378   6.852   5.869   6.919
  456DPPC    C517379   6.820   5.843   6.777
  456DPPC    C617380   6.716   5.734   6.739
  456DPPC   OS717381   6.680   5.740   6.602
  456DPPC    P817382   6.603   5.610   6.560
  456DPPC   OM917383   6.478   5.605   6.637
  456DPPC  OM1017384   6.703   5.503   6.569
  456DPPC  OS1117385   6.576   5.650   6.411
  456DPPC   C1217386   6.693   5.637   6.331
  456DPPC   C1317387   6.675   5.675   6.183
  456DPPC  OS1417388   6.652   5.818   6.162
  456DPPC   C1517389   6.760   5.889   6.119
  456DPPC   O1617390   6.876   5.849   6.136
  456DPPC   C1717391   6.722   6.031   6.084
  456DPPC   C1817392   6.608   6.035   5.983
  456DPPC   C1917393   6.653   5.979   5.848
  456DPPC   C2017394   6.549   6.006   5.740
  456DPPC   C2117395   6.596   5.951   5.606
  456DPPC   C2217396   6.504   5.999   5.493
  456DPPC   C2317397   6.557   5.948   5.359
  456DPPC   C2417398   6.479   6.009   5.242
  456DPPC   C2517399   6.537   5.957   5.110
  456DPPC   C2617400   6.471   6.024   4.990
  456DPPC   C2717401   6.528   5.964   4.862
  456DPPC   C2817402   6.469   6.029   4.736
  456DPPC   C2917403   6.519   5.954   4.613
  456DPPC   C3017404   6.466   5.811   4.617
  456DPPC   C3117405   6.523   5.726   4.504
  456DPPC   C3217406   6.563   5.583   6.130
  456DPPC  OS3317407   6.549   5.582   5.987
  456DPPC   C3417408   6.599   5.473   5.921
  456DPPC   O3517409   6.658   5.380   5.976
  456DPPC   C3617410   6.577   5.489   5.772
  456DPPC   C3717411   6.610   5.364   5.692
  456DPPC   C3817412   6.570   5.389   5.547
  456DPPC   C3917413   6.652   5.505   5.491
  456DPPC   C4017414   6.594   5.556   5.359
  456DPPC   C4117415   6.606   5.453   5.247
  456DPPC   C4217416   6.560   5.518   5.116
  456DPPC   C4317417   6.578   5.424   4.997
  456DPPC   C4417418   6.545   5.499   4.867
  456DPPC   C4517419   6.565   5.410   4.745
  456DPPC   C4617420   6.462   5.298   4.741
  456DPPC   C4717421   6.475   5.215   4.614
  456DPPC   C4817422   6.439   5.298   4.491
  456DPPC   C4917423   6.446   5.214   4.363
  456DPPC   C5017424   6.395   5.292   4.243
  457DPPC    C117425  10.032   8.628   7.132
  457DPPC    C217426   9.842   8.634   6.991
  457DPPC    C317427   9.959   8.428   7.027
  457DPPC    N417428   9.974   8.573   7.009
  457DPPC    C517429  10.065   8.607   6.897
  457DPPC    C617430  10.033   8.553   6.755
  457DPPC   OS717431   9.916   8.604   6.692
  457DPPC    P817432   9.895   8.523   6.559
  457DPPC   OM917433  10.003   8.564   6.468
  457DPPC  OM1017434   9.877   8.383   6.599
  457DPPC  OS1117435   9.754   8.575   6.517
  457DPPC   C1217436   9.763   8.687   6.430
  457DPPC   C1317437   9.642   8.705   6.337
  457DPPC  OS1417438   9.628   8.599   6.238
  457DPPC   C1517439   9.503   8.574   6.190
  457DPPC   O1617440   9.401   8.602   6.253
  457DPPC   C1717441   9.509   8.479   6.072
  457DPPC   C1817442   9.481   8.552   5.941
  457DPPC   C1917443   9.593   8.651   5.909
  457DPPC   C2017444   9.571   8.720   5.774
  457DPPC   C2117445   9.595   8.622   5.659
  457DPPC   C2217446   9.581   8.691   5.524
  457DPPC   C2317447   9.613   8.594   5.411
  457DPPC   C2417448   9.595   8.658   5.274
  457DPPC   C2517449   9.623   8.556   5.164
  457DPPC   C2617450   9.591   8.613   5.025
  457DPPC   C2717451   9.604   8.503   4.920
  457DPPC   C2817452   9.561   8.552   4.782
  457DPPC   C2917453   9.560   8.435   4.684
  457DPPC   C3017454   9.510   8.479   4.546
  457DPPC   C3117455   9.500   8.359   4.453
  457DPPC   C3217456   9.658   8.846   6.278
  457DPPC  OS3317457   9.785   8.874   6.217
  457DPPC   C3417458   9.810   9.006   6.193
  457DPPC   O3517459   9.739   9.096   6.239
  457DPPC   C3617460   9.946   9.026   6.129
  457DPPC   C3717461   9.937   9.111   6.002
  457DPPC   C3817462   9.874   9.031   5.888
  457DPPC   C3917463   9.878   9.111   5.758
  457DPPC   C4017464   9.823   9.029   5.641
  457DPPC   C4117465   9.837   9.107   5.510
  457DPPC   C4217466   9.791   9.021   5.392
  457DPPC   C4317467   9.810   9.094   5.259
  457DPPC   C4417468   9.773   9.002   5.143
  457DPPC   C4517469   9.793   9.068   5.007
  457DPPC   C4617470   9.760   8.967   4.897
  457DPPC   C4717471   9.776   9.025   4.757
  457DPPC   C4817472   9.746   8.917   4.653
  457DPPC   C4917473   9.760   8.970   4.510
  457DPPC   C5017474   9.734   8.857   4.410
  458DPPC    C117475   8.886   8.961   6.783
  458DPPC    C217476   9.071   8.994   6.933
  458DPPC    C317477   8.849   8.990   7.017
  458DPPC    N417478   8.932   9.033   6.903
  458DPPC    C517479   8.918   9.179   6.889
  458DPPC    C617480   8.990   9.247   6.770
  458DPPC   OS717481   8.976   9.389   6.761
  458DPPC    P817482   9.033   9.441   6.624
  458DPPC   OM917483   9.015   9.587   6.621
  458DPPC  OM1017484   8.978   9.356   6.517
  458DPPC  OS1117485   9.184   9.405   6.641
  458DPPC   C1217486   9.264   9.468   6.541
  458DPPC   C1317487   9.406   9.411   6.532
  458DPPC  OS1417488   9.491   9.492   6.445
  458DPPC   C1517489   9.626   9.487   6.457
  458DPPC   O1617490   9.687   9.405   6.528
  458DPPC   C1717491   9.691   9.579   6.355
  458DPPC   C1817492   9.636   9.551   6.215
  458DPPC   C1917493   9.693   9.419   6.162
  458DPPC   C2017494   9.621   9.371   6.035
  458DPPC   C2117495   9.652   9.457   5.913
  458DPPC   C2217496   9.587   9.395   5.790
  458DPPC   C2317497   9.613   9.474   5.662
  458DPPC   C2417498   9.549   9.404   5.543
  458DPPC   C2517499   9.576   9.478   5.412
  458DPPC   C2617500   9.518   9.401   5.293
  458DPPC   C2717501   9.547   9.475   5.163
  458DPPC   C2817502   9.493   9.399   5.042
  458DPPC   C2917503   9.519   9.477   4.913
  458DPPC   C3017504   9.469   9.402   4.790
  458DPPC   C3117505   9.494   9.483   4.663
  458DPPC   C3217506   9.390   9.263   6.490
  458DPPC  OS3317507   9.314   9.242   6.369
  458DPPC   C3417508   9.327   9.123   6.305
  458DPPC   O3517509   9.378   9.020   6.352
  458DPPC   C3617510   9.248   9.127   6.175
  458DPPC   C3717511   9.334   9.080   6.058
  458DPPC   C3817512   9.259   9.102   5.926
  458DPPC   C3917513   9.346   9.063   5.807
  458DPPC   C4017514   9.271   9.088   5.676
  458DPPC   C4117515   9.356   9.048   5.555
  458DPPC   C4217516   9.277   9.068   5.426
  458DPPC   C4317517   9.359   9.023   5.305
  458DPPC   C4417518   9.276   9.036   5.177
  458DPPC   C4517519   9.356   8.984   5.057
  458DPPC   C4617520   9.270   8.986   4.930
  458DPPC   C4717521   9.349   8.928   4.813
  458DPPC   C4817522   9.263   8.919   4.686
  458DPPC   C4917523   9.343   8.857   4.572
  458DPPC   C5017524   9.257   8.840   4.447
  459DPPC    C117525   4.105   8.921   6.532
  459DPPC    C217526   4.122   8.690   6.572
  459DPPC    C317527   4.241   8.791   6.389
  459DPPC    N417528   4.198   8.808   6.528
  459DPPC    C517529   4.312   8.837   6.618
  459DPPC    C617530   4.427   8.734   6.638
  459DPPC   OS717531   4.505   8.706   6.523
  459DPPC    P817532   4.621   8.604   6.548
  459DPPC   OM917533   4.579   8.504   6.648
  459DPPC  OM1017534   4.747   8.678   6.568
  459DPPC  OS1117535   4.629   8.534   6.408
  459DPPC   C1217536   4.664   8.627   6.304
  459DPPC   C1317537   4.677   8.565   6.164
  459DPPC  OS1417538   4.716   8.666   6.066
  459DPPC   C1517539   4.813   8.632   5.977
  459DPPC   O1617540   4.895   8.543   6.001
  459DPPC   C1717541   4.837   8.746   5.880
  459DPPC   C1817542   4.830   8.700   5.735
  459DPPC   C1917543   4.879   8.809   5.639
  459DPPC   C2017544   4.864   8.764   5.494
  459DPPC   C2117545   4.913   8.871   5.396
  459DPPC   C2217546   4.873   8.834   5.253
  459DPPC   C2317547   4.924   8.937   5.151
  459DPPC   C2417548   4.857   8.916   5.015
  459DPPC   C2517549   4.896   8.782   4.952
  459DPPC   C2617550   5.036   8.787   4.891
  459DPPC   C2717551   5.077   8.652   4.833
  459DPPC   C2817552   4.994   8.615   4.710
  459DPPC   C2917553   5.027   8.704   4.591
  459DPPC   C3017554   4.944   8.666   4.468
  459DPPC   C3117555   4.796   8.696   4.490
  459DPPC   C3217556   4.542   8.496   6.138
  459DPPC  OS3317557   4.529   8.409   6.023
  459DPPC   C3417558   4.575   8.282   6.034
  459DPPC   O3517559   4.657   8.242   6.117
  459DPPC   C3617560   4.529   8.200   5.914
  459DPPC   C3717561   4.557   8.272   5.782
  459DPPC   C3817562   4.707   8.272   5.752
  459DPPC   C3917563   4.737   8.341   5.619
  459DPPC   C4017564   4.682   8.260   5.501
  459DPPC   C4117565   4.725   8.321   5.367
  459DPPC   C4217566   4.672   8.235   5.253
  459DPPC   C4317567   4.721   8.282   5.116
  459DPPC   C4417568   4.663   8.418   5.079
  459DPPC   C4517569   4.683   8.445   4.930
  459DPPC   C4617570   4.599   8.346   4.848
  459DPPC   C4717571   4.619   8.365   4.697
  459DPPC   C4817572   4.537   8.261   4.621
  459DPPC   C4917573   4.559   8.274   4.470
  459DPPC   C5017574   4.480   8.166   4.394
  460DPPC    C117575   5.517   3.163   6.554
  460DPPC    C217576   5.305   3.065   6.492
  460DPPC    C317577   5.507   2.969   6.417
  460DPPC    N417578   5.442   3.097   6.446
  460DPPC    C517579   5.438   3.178   6.322
  460DPPC    C617580   5.402   3.329   6.327
  460DPPC   OS717581   5.275   3.364   6.382
  460DPPC    P817582   5.230   3.512   6.343
  460DPPC   OM917583   5.352   3.591   6.364
  460DPPC  OM1017584   5.108   3.527   6.425
  460DPPC  OS1117585   5.193   3.484   6.193
  460DPPC   C1217586   5.078   3.401   6.176
  460DPPC   C1317587   5.015   3.406   6.036
  460DPPC  OS1417588   4.914   3.302   6.022
  460DPPC   C1517589   4.806   3.334   5.947
  460DPPC   O1617590   4.765   3.450   5.941
  460DPPC   C1717591   4.724   3.210   5.918
  460DPPC   C1817592   4.789   3.122   5.811
  460DPPC   C1917593   4.771   3.180   5.671
  460DPPC   C2017594   4.844   3.099   5.565
  460DPPC   C2117595   4.822   3.160   5.426
  460DPPC   C2217596   4.902   3.087   5.318
  460DPPC   C2317597   4.878   3.151   5.181
  460DPPC   C2417598   4.735   3.124   5.134
  460DPPC   C2517599   4.704   3.195   5.002
  460DPPC   C2617600   4.788   3.140   4.886
  460DPPC   C2717601   4.749   3.210   4.755
  460DPPC   C2817602   4.836   3.165   4.638
  460DPPC   C2917603   4.795   3.237   4.509
  460DPPC   C3017604   4.889   3.202   4.394
  460DPPC   C3117605   4.847   3.271   4.265
  460DPPC   C3217606   5.131   3.393   5.935
  460DPPC  OS3317607   5.097   3.427   5.799
  460DPPC   C3417608   5.201   3.446   5.714
  460DPPC   O3517609   5.318   3.458   5.751
  460DPPC   C3617610   5.152   3.479   5.574
  460DPPC   C3717611   5.229   3.399   5.469
  460DPPC   C3817612   5.208   3.461   5.330
  460DPPC   C3917613   5.272   3.374   5.222
  460DPPC   C4017614   5.271   3.446   5.087
  460DPPC   C4117615   5.376   3.558   5.085
  460DPPC   C4217616   5.376   3.632   4.952
  460DPPC   C4317617   5.489   3.735   4.947
  460DPPC   C4417618   5.482   3.815   4.817
  460DPPC   C4517619   5.596   3.917   4.807
  460DPPC   C4617620   5.578   4.005   4.683
  460DPPC   C4717621   5.587   3.924   4.554
  460DPPC   C4817622   5.570   4.015   4.432
  460DPPC   C4917623   5.573   3.935   4.302
  460DPPC   C5017624   5.448   3.846   4.290
  461DPPC    C117625   8.667   4.814   6.337
  461DPPC    C217626   8.780   4.708   6.521
  461DPPC    C317627   8.671   4.914   6.552
  461DPPC    N417628   8.662   4.785   6.481
  461DPPC    C517629   8.537   4.717   6.523
  461DPPC    C617630   8.490   4.590   6.448
  461DPPC   OS717631   8.577   4.476   6.455
  461DPPC    P817632   8.596   4.406   6.316
  461DPPC   OM917633   8.702   4.308   6.338
  461DPPC  OM1017634   8.613   4.512   6.216
  461DPPC  OS1117635   8.460   4.332   6.294
  461DPPC   C1217636   8.475   4.233   6.193
  461DPPC   C1317637   8.347   4.153   6.167
  461DPPC  OS1417638   8.366   4.023   6.103
  461DPPC   C1517639   8.294   3.924   6.162
  461DPPC   O1617640   8.248   3.938   6.276
  461DPPC   C1717641   8.308   3.791   6.090
  461DPPC   C1817642   8.252   3.676   6.175
  461DPPC   C1917643   8.287   3.540   6.115
  461DPPC   C2017644   8.215   3.513   5.983
  461DPPC   C2117645   8.243   3.370   5.936
  461DPPC   C2217646   8.169   3.337   5.806
  461DPPC   C2317647   8.231   3.407   5.686
  461DPPC   C2417648   8.154   3.375   5.558
  461DPPC   C2517649   8.220   3.440   5.437
  461DPPC   C2617650   8.135   3.424   5.311
  461DPPC   C2717651   8.134   3.280   5.260
  461DPPC   C2817652   8.053   3.270   5.131
  461DPPC   C2917653   8.117   3.352   5.020
  461DPPC   C3017654   8.036   3.345   4.890
  461DPPC   C3117655   8.100   3.431   4.781
  461DPPC   C3217656   8.248   4.251   6.100
  461DPPC  OS3317657   8.278   4.283   5.963
  461DPPC   C3417658   8.197   4.224   5.871
  461DPPC   O3517659   8.100   4.153   5.901
  461DPPC   C3617660   8.240   4.260   5.730
  461DPPC   C3717661   8.147   4.199   5.625
  461DPPC   C3817662   8.205   4.224   5.486
  461DPPC   C3917663   8.119   4.166   5.373
  461DPPC   C4017664   8.192   4.187   5.240
  461DPPC   C4117665   8.117   4.128   5.121
  461DPPC   C4217666   8.199   4.149   4.994
  461DPPC   C4317667   8.134   4.087   4.871
  461DPPC   C4417668   8.224   4.107   4.749
  461DPPC   C4517669   8.165   4.045   4.622
  461DPPC   C4617670   8.043   4.122   4.572
  461DPPC   C4717671   8.082   4.263   4.526
  461DPPC   C4817672   7.961   4.338   4.471
  461DPPC   C4917673   7.856   4.362   4.579
  461DPPC   C5017674   7.904   4.462   4.684
  462DPPC    C117675   7.757   4.204   6.817
  462DPPC    C217676   7.846   4.066   6.646
  462DPPC    C317677   7.983   4.235   6.742
  462DPPC    N417678   7.846   4.203   6.699
  462DPPC    C517679   7.795   4.294   6.594
  462DPPC    C617680   7.780   4.447   6.620
  462DPPC   OS717681   7.902   4.522   6.629
  462DPPC    P817682   7.878   4.677   6.618
  462DPPC   OM917683   7.930   4.743   6.739
  462DPPC  OM1017684   7.743   4.706   6.567
  462DPPC  OS1117685   7.985   4.701   6.505
  462DPPC   C1217686   7.929   4.706   6.374
  462DPPC   C1317687   8.026   4.747   6.262
  462DPPC  OS1417688   7.956   4.794   6.144
  462DPPC   C1517689   7.993   4.918   6.101
  462DPPC   O1617690   8.051   4.999   6.174
  462DPPC   C1717691   7.931   4.948   5.965
  462DPPC   C1817692   7.968   5.086   5.913
  462DPPC   C1917693   7.901   5.110   5.778
  462DPPC   C2017694   7.957   5.017   5.670
  462DPPC   C2117695   7.893   5.049   5.535
  462DPPC   C2217696   7.960   4.977   5.417
  462DPPC   C2317697   7.900   5.029   5.287
  462DPPC   C2417698   7.957   4.966   5.160
  462DPPC   C2517699   7.889   5.030   5.039
  462DPPC   C2617700   7.946   4.981   4.906
  462DPPC   C2717701   7.878   5.054   4.790
  462DPPC   C2817702   7.938   5.015   4.655
  462DPPC   C2917703   7.911   4.868   4.624
  462DPPC   C3017704   7.959   4.831   4.484
  462DPPC   C3117705   7.874   4.900   4.377
  462DPPC   C3217706   8.128   4.631   6.248
  462DPPC  OS3317707   8.208   4.623   6.128
  462DPPC   C3417708   8.318   4.701   6.108
  462DPPC   O3517709   8.354   4.796   6.180
  462DPPC   C3617710   8.379   4.672   5.972
  462DPPC   C3717711   8.277   4.704   5.863
  462DPPC   C3817712   8.335   4.693   5.721
  462DPPC   C3917713   8.226   4.732   5.621
  462DPPC   C4017714   8.273   4.733   5.476
  462DPPC   C4117715   8.304   4.592   5.426
  462DPPC   C4217716   8.307   4.585   5.273
  462DPPC   C4317717   8.167   4.610   5.217
  462DPPC   C4417718   8.157   4.572   5.069
  462DPPC   C4517719   8.239   4.665   4.979
  462DPPC   C4617720   8.228   4.617   4.834
  462DPPC   C4717721   8.307   4.706   4.738
  462DPPC   C4817722   8.299   4.652   4.595
  462DPPC   C4917723   8.376   4.742   4.498
  462DPPC   C5017724   8.371   4.686   4.356
  463DPPC    C117725   6.969   4.209   6.538
  463DPPC    C217726   6.973   3.968   6.541
  463DPPC    C317727   6.873   4.085   6.360
  463DPPC    N417728   6.984   4.088   6.456
  463DPPC    C517729   7.110   4.092   6.378
  463DPPC    C617730   7.245   4.079   6.453
  463DPPC   OS717731   7.359   4.078   6.368
  463DPPC    P817732   7.492   4.047   6.444
  463DPPC   OM917733   7.605   4.098   6.364
  463DPPC  OM1017734   7.480   4.081   6.586
  463DPPC  OS1117735   7.486   3.890   6.430
  463DPPC   C1217736   7.514   3.846   6.296
  463DPPC   C1317737   7.445   3.713   6.257
  463DPPC  OS1417738   7.470   3.676   6.119
  463DPPC   C1517739   7.533   3.558   6.095
  463DPPC   O1617740   7.622   3.514   6.168
  463DPPC   C1717741   7.509   3.517   5.950
  463DPPC   C1817742   7.366   3.554   5.909
  463DPPC   C1917743   7.333   3.515   5.765
  463DPPC   C2017744   7.190   3.558   5.733
  463DPPC   C2117745   7.147   3.519   5.592
  463DPPC   C2217746   7.223   3.597   5.485
  463DPPC   C2317747   7.170   3.561   5.346
  463DPPC   C2417748   7.250   3.628   5.235
  463DPPC   C2517749   7.198   3.586   5.098
  463DPPC   C2617750   7.280   3.648   4.985
  463DPPC   C2717751   7.226   3.604   4.848
  463DPPC   C2817752   7.310   3.665   4.735
  463DPPC   C2917753   7.256   3.623   4.598
  463DPPC   C3017754   7.278   3.474   4.572
  463DPPC   C3117755   7.426   3.441   4.554
  463DPPC   C3217756   7.295   3.736   6.286
  463DPPC  OS3317757   7.200   3.638   6.239
  463DPPC   C3417758   7.073   3.688   6.227
  463DPPC   O3517759   7.043   3.804   6.255
  463DPPC   C3617760   6.977   3.583   6.175
  463DPPC   C3717761   6.854   3.650   6.111
  463DPPC   C3817762   6.889   3.709   5.974
  463DPPC   C3917763   6.775   3.798   5.925
  463DPPC   C4017764   6.807   3.861   5.789
  463DPPC   C4117765   6.793   3.761   5.674
  463DPPC   C4217766   6.818   3.833   5.541
  463DPPC   C4317767   6.783   3.746   5.421
  463DPPC   C4417768   6.799   3.825   5.291
  463DPPC   C4517769   6.750   3.743   5.172
  463DPPC   C4617770   6.761   3.822   5.041
  463DPPC   C4717771   6.908   3.848   5.005
  463DPPC   C4817772   6.920   3.925   4.874
  463DPPC   C4917773   6.876   3.841   4.754
  463DPPC   C5017774   6.897   3.918   4.623
  464DPPC    C117775   5.442   5.291   6.254
  464DPPC    C217776   5.239   5.348   6.361
  464DPPC    C317777   5.446   5.402   6.465
  464DPPC    N417778   5.376   5.301   6.385
  464DPPC    C517779   5.367   5.170   6.452
  464DPPC    C617780   5.496   5.092   6.487
  464DPPC   OS717781   5.466   4.970   6.555
  464DPPC    P817782   5.588   4.872   6.569
  464DPPC   OM917783   5.534   4.766   6.656
  464DPPC  OM1017784   5.701   4.957   6.609
  464DPPC  OS1117785   5.601   4.828   6.419
  464DPPC   C1217786   5.504   4.730   6.385
  464DPPC   C1317787   5.468   4.725   6.236
  464DPPC  OS1417788   5.347   4.648   6.212
  464DPPC   C1517789   5.244   4.720   6.159
  464DPPC   O1617790   5.233   4.842   6.176
  464DPPC   C1717791   5.132   4.628   6.115
  464DPPC   C1817792   5.181   4.523   6.014
  464DPPC   C1917793   5.216   4.588   5.880
  464DPPC   C2017794   5.247   4.481   5.776
  464DPPC   C2117795   5.281   4.541   5.639
  464DPPC   C2217796   5.170   4.635   5.594
  464DPPC   C2317797   5.159   4.642   5.441
  464DPPC   C2417798   5.283   4.700   5.374
  464DPPC   C2517799   5.255   4.716   5.224
  464DPPC   C2617800   5.237   4.580   5.156
  464DPPC   C2717801   5.182   4.598   5.014
  464DPPC   C2817802   5.280   4.675   4.925
  464DPPC   C2917803   5.219   4.698   4.787
  464DPPC   C3017804   5.100   4.794   4.795
  464DPPC   C3117805   5.037   4.817   4.657
  464DPPC   C3217806   5.594   4.678   6.159
  464DPPC  OS3317807   5.580   4.683   6.016
  464DPPC   C3417808   5.620   4.796   5.951
  464DPPC   O3517809   5.700   4.878   5.996
  464DPPC   C3617810   5.571   4.792   5.807
  464DPPC   C3717811   5.651   4.884   5.715
  464DPPC   C3817812   5.592   4.874   5.575
  464DPPC   C3917813   5.676   4.944   5.468
  464DPPC   C4017814   5.611   4.915   5.332
  464DPPC   C4117815   5.695   4.959   5.212
  464DPPC   C4217816   5.625   4.910   5.086
  464DPPC   C4317817   5.706   4.936   4.959
  464DPPC   C4417818   5.634   4.873   4.839
  464DPPC   C4517819   5.714   4.890   4.710
  464DPPC   C4617820   5.649   4.812   4.596
  464DPPC   C4717821   5.518   4.876   4.549
  464DPPC   C4817822   5.454   4.790   4.439
  464DPPC   C4917823   5.327   4.855   4.383
  464DPPC   C5017824   5.361   4.979   4.302
  465DPPC    C117825   6.160   5.881   6.389
  465DPPC    C217826   6.211   5.751   6.580
  465DPPC    C317827   6.017   5.702   6.445
  465DPPC    N417828   6.158   5.745   6.444
  465DPPC    C517829   6.242   5.657   6.358
  465DPPC    C617830   6.249   5.507   6.392
  465DPPC   OS717831   6.348   5.435   6.321
  465DPPC    P817832   6.336   5.279   6.337
  465DPPC   OM917833   6.471   5.226   6.316
  465DPPC  OM1017834   6.262   5.249   6.460
  465DPPC  OS1117835   6.242   5.251   6.215
  465DPPC   C1217836   6.309   5.259   6.090
  465DPPC   C1317837   6.213   5.248   5.971
  465DPPC  OS1417838   6.282   5.210   5.848
  465DPPC   C1517839   6.207   5.155   5.749
  465DPPC   O1617840   6.087   5.129   5.761
  465DPPC   C1717841   6.298   5.109   5.635
  465DPPC   C1817842   6.227   5.097   5.500
  465DPPC   C1917843   6.217   5.232   5.428
  465DPPC   C2017844   6.144   5.216   5.294
  465DPPC   C2117845   6.221   5.129   5.195
  465DPPC   C2217846   6.139   5.108   5.067
  465DPPC   C2317847   6.213   5.019   4.966
  465DPPC   C2417848   6.129   4.997   4.840
  465DPPC   C2517849   6.104   5.130   4.769
  465DPPC   C2617850   6.029   5.115   4.636
  465DPPC   C2717851   6.116   5.046   4.530
  465DPPC   C2817852   6.067   5.081   4.389
  465DPPC   C2917853   5.938   5.010   4.349
  465DPPC   C3017854   5.967   4.865   4.309
  465DPPC   C3117855   5.840   4.795   4.260
  465DPPC   C3217856   6.129   5.378   5.971
  465DPPC  OS3317857   6.203   5.499   5.945
  465DPPC   C3417858   6.132   5.615   5.946
  465DPPC   O3517859   6.022   5.631   5.999
  465DPPC   C3617860   6.218   5.731   5.900
  465DPPC   C3717861   6.275   5.707   5.760
  465DPPC   C3817862   6.166   5.708   5.653
  465DPPC   C3917863   6.230   5.691   5.515
  465DPPC   C4017864   6.126   5.683   5.403
  465DPPC   C4117865   6.198   5.674   5.269
  465DPPC   C4217866   6.099   5.654   5.153
  465DPPC   C4317867   6.175   5.647   5.021
  465DPPC   C4417868   6.080   5.613   4.905
  465DPPC   C4517869   6.157   5.605   4.773
  465DPPC   C4617870   6.066   5.562   4.659
  465DPPC   C4717871   6.145   5.549   4.529
  465DPPC   C4817872   6.058   5.494   4.416
  465DPPC   C4917873   5.956   5.597   4.368
  465DPPC   C5017874   6.026   5.711   4.293
  466DPPC    C117875   6.380   6.613   6.843
  466DPPC    C217876   6.466   6.433   6.970
  466DPPC    C317877   6.532   6.458   6.743
  466DPPC    N417878   6.420   6.472   6.837
  466DPPC    C517879   6.305   6.386   6.801
  466DPPC    C617880   6.240   6.401   6.662
  466DPPC   OS717881   6.123   6.320   6.646
  466DPPC    P817882   5.991   6.404   6.624
  466DPPC   OM917883   6.009   6.529   6.700
  466DPPC  OM1017884   5.889   6.303   6.652
  466DPPC  OS1117885   6.015   6.427   6.470
  466DPPC   C1217886   5.904   6.392   6.387
  466DPPC   C1317887   5.943   6.391   6.238
  466DPPC  OS1417888   5.831   6.392   6.144
  466DPPC   C1517889   5.841   6.491   6.050
  466DPPC   O1617890   5.872   6.606   6.085
  466DPPC   C1717891   5.750   6.460   5.932
  466DPPC   C1817892   5.803   6.520   5.802
  466DPPC   C1917893   5.713   6.481   5.685
  466DPPC   C2017894   5.768   6.532   5.551
  466DPPC   C2117895   5.678   6.485   5.437
  466DPPC   C2217896   5.734   6.523   5.300
  466DPPC   C2317897   5.646   6.465   5.189
  466DPPC   C2417898   5.705   6.492   5.050
  466DPPC   C2517899   5.619   6.425   4.942
  466DPPC   C2617900   5.679   6.445   4.803
  466DPPC   C2717901   5.595   6.374   4.696
  466DPPC   C2817902   5.652   6.398   4.556
  466DPPC   C2917903   5.566   6.329   4.450
  466DPPC   C3017904   5.616   6.360   4.309
  466DPPC   C3117905   5.752   6.295   4.282
  466DPPC   C3217906   6.044   6.275   6.226
  466DPPC  OS3317907   6.096   6.251   6.094
  466DPPC   C3417908   6.189   6.151   6.081
  466DPPC   O3517909   6.251   6.100   6.175
  466DPPC   C3617910   6.224   6.130   5.935
  466DPPC   C3717911   6.110   6.166   5.839
  466DPPC   C3817912   6.153   6.128   5.697
  466DPPC   C3917913   6.051   6.167   5.590
  466DPPC   C4017914   6.101   6.119   5.455
  466DPPC   C4117915   6.011   6.159   5.339
  466DPPC   C4217916   6.069   6.103   5.209
  466DPPC   C4317917   5.988   6.146   5.086
  466DPPC   C4417918   6.051   6.087   4.960
  466DPPC   C4517919   5.976   6.131   4.834
  466DPPC   C4617920   6.044   6.074   4.709
  466DPPC   C4717921   5.971   6.118   4.582
  466DPPC   C4817922   6.042   6.067   4.457
  466DPPC   C4917923   6.177   6.137   4.436
  466DPPC   C5017924   6.157   6.284   4.398
  467DPPC    C117925   8.060   5.692   6.388
  467DPPC    C217926   8.249   5.555   6.436
  467DPPC    C317927   8.235   5.665   6.226
  467DPPC    N417928   8.206   5.679   6.370
  467DPPC    C517929   8.277   5.794   6.431
  467DPPC    C617930   8.266   5.934   6.366
  467DPPC   OS717931   8.135   5.988   6.358
  467DPPC    P817932   8.133   6.113   6.263
  467DPPC   OM917933   8.168   6.224   6.352
  467DPPC  OM1017934   8.210   6.074   6.143
  467DPPC  OS1117935   7.979   6.112   6.240
  467DPPC   C1217936   7.941   6.103   6.103
  467DPPC   C1317937   7.801   6.163   6.074
  467DPPC  OS1417938   7.753   6.145   5.938
  467DPPC   C1517939   7.699   6.026   5.898
  467DPPC   O1617940   7.721   5.918   5.955
  467DPPC   C1717941   7.636   6.039   5.761
  467DPPC   C1817942   7.702   5.943   5.662
  467DPPC   C1917943   7.626   5.937   5.529
  467DPPC   C2017944   7.628   6.069   5.453
  467DPPC   C2117945   7.568   6.051   5.313
  467DPPC   C2217946   7.551   6.185   5.241
  467DPPC   C2317947   7.502   6.165   5.097
  467DPPC   C2417948   7.367   6.092   5.095
  467DPPC   C2517949   7.308   6.087   4.954
  467DPPC   C2617950   7.397   6.007   4.859
  467DPPC   C2717951   7.335   5.998   4.719
  467DPPC   C2817952   7.429   5.925   4.624
  467DPPC   C2917953   7.370   5.912   4.483
  467DPPC   C3017954   7.467   5.839   4.391
  467DPPC   C3117955   7.411   5.828   4.249
  467DPPC   C3217956   7.810   6.311   6.116
  467DPPC  OS3317957   7.928   6.379   6.066
  467DPPC   C3417958   7.932   6.515   6.073
  467DPPC   O3517959   7.840   6.587   6.113
  467DPPC   C3617960   8.064   6.566   6.018
  467DPPC   C3717961   8.106   6.487   5.894
  467DPPC   C3817962   8.017   6.523   5.775
  467DPPC   C3917963   8.054   6.442   5.651
  467DPPC   C4017964   7.966   6.482   5.533
  467DPPC   C4117965   7.999   6.399   5.409
  467DPPC   C4217966   7.914   6.444   5.291
  467DPPC   C4317967   7.942   6.358   5.167
  467DPPC   C4417968   7.858   6.406   5.049
  467DPPC   C4517969   7.880   6.317   4.926
  467DPPC   C4617970   7.799   6.370   4.808
  467DPPC   C4717971   7.816   6.282   4.684
  467DPPC   C4817972   7.742   6.343   4.565
  467DPPC   C4917973   7.806   6.477   4.526
  467DPPC   C5017974   7.735   6.538   4.405
  468DPPC    C117975   7.243   7.771   7.219
  468DPPC    C217976   7.475   7.725   7.177
  468DPPC    C317977   7.376   7.920   7.088
  468DPPC    N417978   7.352   7.779   7.120
  468DPPC    C517979   7.316   7.715   6.992
  468DPPC    C617980   7.276   7.567   6.989
  468DPPC   OS717981   7.263   7.519   6.856
  468DPPC    P817982   7.333   7.381   6.841
  468DPPC   OM917983   7.246   7.283   6.906
  468DPPC  OM1017984   7.471   7.402   6.889
  468DPPC  OS1117985   7.319   7.370   6.685
  468DPPC   C1217986   7.432   7.416   6.613
  468DPPC   C1317987   7.509   7.299   6.549
  468DPPC  OS1417988   7.643   7.330   6.502
  468DPPC   C1517989   7.725   7.220   6.495
  468DPPC   O1617990   7.694   7.112   6.547
  468DPPC   C1717991   7.862   7.253   6.438
  468DPPC   C1817992   7.856   7.307   6.295
  468DPPC   C1917993   7.816   7.199   6.195
  468DPPC   C2017994   7.826   7.251   6.051
  468DPPC   C2117995   7.730   7.368   6.028
  468DPPC   C2217996   7.735   7.415   5.883
  468DPPC   C2317997   7.666   7.315   5.790
  468DPPC   C2417998   7.673   7.361   5.644
  468DPPC   C2517999   7.589   7.268   5.555
  468DPPC   C2618000   7.592   7.312   5.409
  468DPPC   C2718001   7.492   7.229   5.328
  468DPPC   C2818002   7.485   7.269   5.181
  468DPPC   C2918003   7.608   7.221   5.104
  468DPPC   C3018004   7.594   7.250   4.955
  468DPPC   C3118005   7.714   7.196   4.877
  468DPPC   C3218006   7.412   7.234   6.448
  468DPPC  OS3318007   7.367   7.315   6.338
  468DPPC   C3418008   7.359   7.246   6.220
  468DPPC   O3518009   7.424   7.144   6.196
  468DPPC   C3618010   7.287   7.331   6.116
  468DPPC   C3718011   7.286   7.263   5.979
  468DPPC   C3818012   7.195   7.341   5.884
  468DPPC   C3918013   7.201   7.286   5.741
  468DPPC   C4018014   7.106   7.366   5.651
  468DPPC   C4118015   7.125   7.333   5.503
  468DPPC   C4218016   7.075   7.194   5.466
  468DPPC   C4318017   7.103   7.168   5.318
  468DPPC   C4418018   7.017   7.257   5.228
  468DPPC   C4518019   7.074   7.261   5.086
  468DPPC   C4618020   7.068   7.125   5.018
  468DPPC   C4718021   7.137   7.132   4.881
  468DPPC   C4818022   7.130   6.997   4.810
  468DPPC   C4918023   6.987   6.965   4.769
  468DPPC   C5018024   6.977   6.828   4.702
  469DPPC    C118025   6.980   6.919   6.932
  469DPPC    C218026   7.197   6.976   6.853
  469DPPC    C318027   7.050   6.848   6.714
  469DPPC    N418028   7.056   6.957   6.813
  469DPPC    C518029   6.998   7.083   6.759
  469DPPC    C618030   7.070   7.160   6.645
  469DPPC   OS718031   7.080   7.095   6.518
  469DPPC    P818032   6.994   7.171   6.409
  469DPPC   OM918033   7.049   7.132   6.278
  469DPPC  OM1018034   6.977   7.311   6.448
  469DPPC  OS1118035   6.860   7.093   6.439
  469DPPC   C1218036   6.851   6.974   6.363
  469DPPC   C1318037   6.730   6.886   6.394
  469DPPC  OS1418038   6.741   6.754   6.333
  469DPPC   C1518039   6.689   6.649   6.400
  469DPPC   O1618040   6.633   6.661   6.510
  469DPPC   C1718041   6.711   6.518   6.325
  469DPPC   C1818042   6.585   6.431   6.324
  469DPPC   C1918043   6.486   6.478   6.217
  469DPPC   C2018044   6.539   6.444   6.077
  469DPPC   C2118045   6.441   6.486   5.968
  469DPPC   C2218046   6.493   6.442   5.831
  469DPPC   C2318047   6.396   6.480   5.718
  469DPPC   C2418048   6.449   6.430   5.584
  469DPPC   C2518049   6.353   6.467   5.470
  469DPPC   C2618050   6.405   6.418   5.335
  469DPPC   C2718051   6.312   6.462   5.222
  469DPPC   C2818052   6.363   6.412   5.087
  469DPPC   C2918053   6.271   6.461   4.974
  469DPPC   C3018054   6.318   6.407   4.838
  469DPPC   C3118055   6.455   6.463   4.801
  469DPPC   C3218056   6.604   6.969   6.361
  469DPPC  OS3318057   6.597   7.026   6.229
  469DPPC   C3418058   6.474   7.069   6.189
  469DPPC   O3518059   6.371   7.060   6.257
  469DPPC   C3618060   6.480   7.123   6.047
  469DPPC   C3718061   6.364   7.071   5.962
  469DPPC   C3818062   6.376   6.921   5.940
  469DPPC   C3918063   6.264   6.866   5.851
  469DPPC   C4018064   6.280   6.915   5.707
  469DPPC   C4118065   6.181   6.846   5.613
  469DPPC   C4218066   6.201   6.895   5.469
  469DPPC   C4318067   6.114   6.817   5.371
  469DPPC   C4418068   6.137   6.867   5.228
  469DPPC   C4518069   6.054   6.788   5.127
  469DPPC   C4618070   6.072   6.846   4.986
  469DPPC   C4718071   5.990   6.768   4.883
  469DPPC   C4818072   5.999   6.834   4.745
  469DPPC   C4918073   5.921   6.754   4.640
  469DPPC   C5018074   5.989   6.619   4.613
  470DPPC    C118075   5.183   6.990   6.888
  470DPPC    C218076   5.386   6.916   6.781
  470DPPC    C318077   5.370   6.923   7.018
  470DPPC    N418078   5.330   6.991   6.894
  470DPPC    C518079   5.386   7.128   6.898
  470DPPC    C618080   5.353   7.226   6.783
  470DPPC   OS718081   5.433   7.345   6.783
  470DPPC    P818082   5.391   7.443   6.668
  470DPPC   OM918083   5.249   7.423   6.633
  470DPPC  OM1018084   5.446   7.578   6.685
  470DPPC  OS1118085   5.469   7.374   6.551
  470DPPC   C1218086   5.470   7.465   6.440
  470DPPC   C1318087   5.552   7.424   6.318
  470DPPC  OS1418088   5.567   7.534   6.224
  470DPPC   C1518089   5.667   7.624   6.247
  470DPPC   O1618090   5.722   7.637   6.357
  470DPPC   C1718091   5.672   7.727   6.136
  470DPPC   C1818092   5.730   7.668   6.007
  470DPPC   C1918093   5.730   7.772   5.895
  470DPPC   C2018094   5.800   7.718   5.770
  470DPPC   C2118095   5.725   7.597   5.713
  470DPPC   C2218096   5.793   7.544   5.587
  470DPPC   C2318097   5.773   7.639   5.468
  470DPPC   C2418098   5.839   7.581   5.343
  470DPPC   C2518099   5.812   7.670   5.221
  470DPPC   C2618100   5.880   7.615   5.096
  470DPPC   C2718101   5.849   7.701   4.974
  470DPPC   C2818102   5.927   7.654   4.852
  470DPPC   C2918103   5.895   7.741   4.730
  470DPPC   C3018104   5.983   7.706   4.611
  470DPPC   C3118105   5.955   7.565   4.559
  470DPPC   C3218106   5.484   7.296   6.265
  470DPPC  OS3318107   5.521   7.241   6.137
  470DPPC   C3418108   5.639   7.172   6.132
  470DPPC   O3518109   5.724   7.173   6.221
  470DPPC   C3618110   5.657   7.109   5.995
  470DPPC   C3718111   5.797   7.051   5.976
  470DPPC   C3818112   5.804   6.973   5.845
  470DPPC   C3918113   5.783   7.066   5.725
  470DPPC   C4018114   5.776   6.985   5.595
  470DPPC   C4118115   5.754   7.076   5.474
  470DPPC   C4218116   5.736   6.993   5.347
  470DPPC   C4318117   5.713   7.080   5.223
  470DPPC   C4418118   5.691   6.991   5.101
  470DPPC   C4518119   5.668   7.072   4.973
  470DPPC   C4618120   5.794   7.148   4.930
  470DPPC   C4718121   5.777   7.206   4.790
  470DPPC   C4818122   5.670   7.315   4.789
  470DPPC   C4918123   5.641   7.362   4.646
  470DPPC   C5018124   5.576   7.250   4.565
  471DPPC    C118125   8.191   8.347   6.653
  471DPPC    C218126   7.979   8.264   6.721
  471DPPC    C318127   8.095   8.157   6.545
  471DPPC    N418128   8.113   8.225   6.675
  471DPPC    C518129   8.174   8.137   6.777
  471DPPC    C618130   8.315   8.076   6.756
  471DPPC   OS718131   8.324   7.979   6.651
  471DPPC    P818132   8.472   7.926   6.633
  471DPPC   OM918133   8.564   8.037   6.655
  471DPPC  OM1018134   8.479   7.802   6.711
  471DPPC  OS1118135   8.455   7.890   6.481
  471DPPC   C1218136   8.477   8.003   6.397
  471DPPC   C1318137   8.460   7.973   6.247
  471DPPC  OS1418138   8.472   8.092   6.164
  471DPPC   C1518139   8.583   8.100   6.086
  471DPPC   O1618140   8.684   8.033   6.105
  471DPPC   C1718141   8.576   8.222   5.995
  471DPPC   C1818142   8.673   8.330   6.042
  471DPPC   C1918143   8.651   8.461   5.968
  471DPPC   C2018144   8.696   8.454   5.822
  471DPPC   C2118145   8.677   8.592   5.757
  471DPPC   C2218146   8.745   8.602   5.620
  471DPPC   C2318147   8.668   8.533   5.507
  471DPPC   C2418148   8.745   8.556   5.377
  471DPPC   C2518149   8.662   8.526   5.252
  471DPPC   C2618150   8.741   8.570   5.128
  471DPPC   C2718151   8.654   8.577   5.002
  471DPPC   C2818152   8.619   8.440   4.947
  471DPPC   C2918153   8.538   8.456   4.818
  471DPPC   C3018154   8.507   8.322   4.753
  471DPPC   C3118155   8.424   8.341   4.625
  471DPPC   C3218156   8.325   7.900   6.234
  471DPPC  OS3318157   8.293   7.855   6.101
  471DPPC   C3418158   8.195   7.761   6.088
  471DPPC   O3518159   8.137   7.706   6.182
  471DPPC   C3618160   8.175   7.730   5.941
  471DPPC   C3718161   8.181   7.579   5.915
  471DPPC   C3818162   8.204   7.553   5.766
  471DPPC   C3918163   8.082   7.591   5.681
  471DPPC   C4018164   8.116   7.568   5.534
  471DPPC   C4118165   7.996   7.589   5.442
  471DPPC   C4218166   8.037   7.564   5.297
  471DPPC   C4318167   7.920   7.582   5.201
  471DPPC   C4418168   7.965   7.564   5.056
  471DPPC   C4518169   7.848   7.585   4.960
  471DPPC   C4618170   7.893   7.563   4.815
  471DPPC   C4718171   7.774   7.577   4.720
  471DPPC   C4818172   7.725   7.721   4.712
  471DPPC   C4918173   7.601   7.731   4.623
  471DPPC   C5018174   7.632   7.686   4.480
  472DPPC    C118175   6.322   7.592   6.851
  472DPPC    C218176   6.284   7.404   6.995
  472DPPC    C318177   6.278   7.626   7.081
  472DPPC    N418178   6.346   7.538   6.985
  472DPPC    C518179   6.490   7.534   7.021
  472DPPC    C618180   6.588   7.444   6.942
  472DPPC   OS718181   6.611   7.485   6.807
  472DPPC    P818182   6.676   7.366   6.727
  472DPPC   OM918183   6.571   7.261   6.727
  472DPPC  OM1018184   6.806   7.343   6.789
  472DPPC  OS1118185   6.688   7.438   6.589
  472DPPC   C1218186   6.568   7.421   6.514
  472DPPC   C1318187   6.570   7.462   6.366
  472DPPC  OS1418188   6.445   7.424   6.303
  472DPPC   C1518189   6.330   7.494   6.327
  472DPPC   O1618190   6.322   7.591   6.404
  472DPPC   C1718191   6.216   7.425   6.254
  472DPPC   C1818192   6.108   7.520   6.204
  472DPPC   C1918193   6.036   7.453   6.087
  472DPPC   C2018194   6.133   7.445   5.968
  472DPPC   C2118195   6.072   7.373   5.847
  472DPPC   C2218196   6.169   7.381   5.729
  472DPPC   C2318197   6.112   7.313   5.604
  472DPPC   C2418198   6.201   7.341   5.483
  472DPPC   C2518199   6.141   7.281   5.355
  472DPPC   C2618200   6.224   7.325   5.234
  472DPPC   C2718201   6.167   7.268   5.104
  472DPPC   C2818202   6.241   7.327   4.984
  472DPPC   C2918203   6.188   7.270   4.852
  472DPPC   C3018204   6.254   7.340   4.733
  472DPPC   C3118205   6.404   7.313   4.728
  472DPPC   C3218206   6.692   7.390   6.305
  472DPPC  OS3318207   6.725   7.415   6.166
  472DPPC   C3418208   6.811   7.517   6.142
  472DPPC   O3518209   6.855   7.593   6.228
  472DPPC   C3618210   6.846   7.526   5.994
  472DPPC   C3718211   6.725   7.526   5.901
  472DPPC   C3818212   6.773   7.548   5.758
  472DPPC   C3918213   6.664   7.532   5.653
  472DPPC   C4018214   6.726   7.549   5.514
  472DPPC   C4118215   6.628   7.515   5.402
  472DPPC   C4218216   6.698   7.527   5.266
  472DPPC   C4318217   6.607   7.484   5.151
  472DPPC   C4418218   6.678   7.497   5.017
  472DPPC   C4518219   6.704   7.644   4.982
  472DPPC   C4618220   6.777   7.657   4.849
  472DPPC   C4718221   6.690   7.608   4.733
  472DPPC   C4818222   6.763   7.622   4.599
  472DPPC   C4918223   6.677   7.570   4.484
  472DPPC   C5018224   6.554   7.659   4.463
  473DPPC    C118225   8.172   6.211   6.829
  473DPPC    C218226   8.122   6.364   6.654
  473DPPC    C318227   8.296   6.412   6.814
  473DPPC    N418228   8.231   6.307   6.735
  473DPPC    C518229   8.328   6.234   6.650
  473DPPC    C618230   8.412   6.318   6.551
  473DPPC   OS718231   8.492   6.243   6.460
  473DPPC    P818232   8.551   6.340   6.352
  473DPPC   OM918233   8.452   6.442   6.316
  473DPPC  OM1018234   8.681   6.381   6.406
  473DPPC  OS1118235   8.574   6.237   6.238
  473DPPC   C1218236   8.606   6.304   6.117
  473DPPC   C1318237   8.649   6.210   6.003
  473DPPC  OS1418238   8.670   6.285   5.880
  473DPPC   C1518239   8.772   6.245   5.799
  473DPPC   O1618240   8.867   6.176   5.838
  473DPPC   C1718241   8.764   6.316   5.665
  473DPPC   C1818242   8.871   6.265   5.569
  473DPPC   C1918243   8.841   6.315   5.427
  473DPPC   C2018244   8.948   6.266   5.330
  473DPPC   C2118245   8.908   6.297   5.186
  473DPPC   C2218246   9.016   6.246   5.090
  473DPPC   C2318247   8.972   6.256   4.944
  473DPPC   C2418248   8.849   6.168   4.922
  473DPPC   C2518249   8.824   6.143   4.773
  473DPPC   C2618250   8.789   6.270   4.696
  473DPPC   C2718251   8.744   6.230   4.556
  473DPPC   C2818252   8.859   6.167   4.477
  473DPPC   C2918253   8.804   6.079   4.365
  473DPPC   C3018254   8.720   6.159   4.266
  473DPPC   C3118255   8.654   6.066   4.165
  473DPPC   C3218256   8.537   6.104   5.992
  473DPPC  OS3318257   8.558   5.998   5.896
  473DPPC   C3418258   8.621   5.885   5.939
  473DPPC   O3518259   8.612   5.844   6.055
  473DPPC   C3618260   8.652   5.796   5.820
  473DPPC   C3718261   8.681   5.879   5.695
  473DPPC   C3818262   8.707   5.788   5.575
  473DPPC   C3918263   8.728   5.867   5.445
  473DPPC   C4018264   8.740   5.769   5.329
  473DPPC   C4118265   8.754   5.835   5.192
  473DPPC   C4218266   8.748   5.727   5.085
  473DPPC   C4318267   8.752   5.783   4.943
  473DPPC   C4418268   8.720   5.672   4.843
  473DPPC   C4518269   8.715   5.722   4.698
  473DPPC   C4618270   8.658   5.612   4.608
  473DPPC   C4718271   8.660   5.653   4.461
  473DPPC   C4818272   8.803   5.658   4.408
  473DPPC   C4918273   8.807   5.687   4.258
  473DPPC   C5018274   8.951   5.695   4.208
  474DPPC    C118275   3.889   7.217   6.484
  474DPPC    C218276   3.806   7.151   6.699
  474DPPC    C318277   4.040   7.146   6.648
  474DPPC    N418278   3.906   7.122   6.595
  474DPPC    C518279   3.903   6.983   6.545
  474DPPC    C618280   3.771   6.913   6.504
  474DPPC   OS718281   3.706   6.837   6.607
  474DPPC    P818282   3.738   6.682   6.598
  474DPPC   OM918283   3.673   6.615   6.710
  474DPPC  OM1018284   3.882   6.663   6.572
  474DPPC  OS1118285   3.664   6.645   6.466
  474DPPC   C1218286   3.685   6.507   6.436
  474DPPC   C1318287   3.655   6.467   6.291
  474DPPC  OS1418288   3.693   6.328   6.264
  474DPPC   C1518289   3.600   6.255   6.196
  474DPPC   O1618290   3.485   6.294   6.179
  474DPPC   C1718291   3.651   6.115   6.163
  474DPPC   C1818292   3.593   6.068   6.029
  474DPPC   C1918293   3.662   6.139   5.912
  474DPPC   C2018294   3.599   6.102   5.778
  474DPPC   C2118295   3.672   6.173   5.663
  474DPPC   C2218296   3.601   6.152   5.530
  474DPPC   C2318297   3.675   6.222   5.416
  474DPPC   C2418298   3.592   6.222   5.288
  474DPPC   C2518299   3.666   6.289   5.171
  474DPPC   C2618300   3.571   6.310   5.053
  474DPPC   C2718301   3.521   6.177   4.995
  474DPPC   C2818302   3.624   6.111   4.903
  474DPPC   C2918303   3.637   6.186   4.771
  474DPPC   C3018304   3.723   6.109   4.671
  474DPPC   C3118305   3.869   6.100   4.717
  474DPPC   C3218306   3.727   6.571   6.203
  474DPPC  OS3318307   3.718   6.553   6.060
  474DPPC   C3418308   3.745   6.662   5.983
  474DPPC   O3518309   3.751   6.778   6.027
  474DPPC   C3618310   3.741   6.623   5.836
  474DPPC   C3718311   3.771   6.742   5.745
  474DPPC   C3818312   3.760   6.699   5.598
  474DPPC   C3918313   3.790   6.815   5.504
  474DPPC   C4018314   3.770   6.774   5.358
  474DPPC   C4118315   3.801   6.891   5.265
  474DPPC   C4218316   3.770   6.857   5.119
  474DPPC   C4318317   3.862   6.747   5.065
  474DPPC   C4418318   3.835   6.723   4.916
  474DPPC   C4518319   3.873   6.848   4.836
  474DPPC   C4618320   3.846   6.830   4.686
  474DPPC   C4718321   3.696   6.819   4.658
  474DPPC   C4818322   3.669   6.816   4.507
  474DPPC   C4918323   3.702   6.952   4.445
  474DPPC   C5018324   3.672   6.953   4.295
  475DPPC    C118325   5.203   5.799   7.209
  475DPPC    C218326   5.341   5.801   7.018
  475DPPC    C318327   5.244   5.594   7.095
  475DPPC    N418328   5.221   5.739   7.077
  475DPPC    C518329   5.099   5.762   6.996
  475DPPC    C618330   5.095   5.716   6.848
  475DPPC   OS718331   5.174   5.796   6.761
  475DPPC    P818332   5.193   5.729   6.620
  475DPPC   OM918333   5.271   5.822   6.538
  475DPPC  OM1018334   5.240   5.591   6.640
  475DPPC  OS1118335   5.047   5.728   6.565
  475DPPC   C1218336   5.051   5.671   6.434
  475DPPC   C1318337   4.915   5.630   6.375
  475DPPC  OS1418338   4.931   5.546   6.257
  475DPPC   C1518339   4.879   5.421   6.261
  475DPPC   O1618340   4.870   5.359   6.368
  475DPPC   C1718341   4.889   5.354   6.124
  475DPPC   C1818342   4.882   5.455   6.009
  475DPPC   C1918343   4.740   5.506   5.985
  475DPPC   C2018344   4.733   5.603   5.867
  475DPPC   C2118345   4.761   5.532   5.734
  475DPPC   C2218346   4.735   5.623   5.614
  475DPPC   C2318347   4.760   5.546   5.484
  475DPPC   C2418348   4.717   5.625   5.360
  475DPPC   C2518349   4.741   5.540   5.235
  475DPPC   C2618350   4.684   5.603   5.107
  475DPPC   C2718351   4.704   5.505   4.991
  475DPPC   C2818352   4.634   5.551   4.862
  475DPPC   C2918353   4.705   5.669   4.797
  475DPPC   C3018354   4.638   5.704   4.664
  475DPPC   C3118355   4.709   5.819   4.593
  475DPPC   C3218356   4.835   5.760   6.355
  475DPPC  OS3318357   4.895   5.855   6.265
  475DPPC   C3418358   4.826   5.970   6.246
  475DPPC   O3518359   4.718   5.996   6.301
  475DPPC   C3618360   4.887   6.055   6.135
  475DPPC   C3718361   4.801   6.038   6.010
  475DPPC   C3818362   4.852   6.117   5.890
  475DPPC   C3918363   4.767   6.080   5.768
  475DPPC   C4018364   4.814   6.148   5.639
  475DPPC   C4118365   4.735   6.092   5.521
  475DPPC   C4218366   4.777   6.152   5.387
  475DPPC   C4318367   4.704   6.079   5.275
  475DPPC   C4418368   4.745   6.128   5.136
  475DPPC   C4518369   4.680   6.039   5.030
  475DPPC   C4618370   4.722   6.077   4.888
  475DPPC   C4718371   4.659   6.208   4.843
  475DPPC   C4818372   4.698   6.238   4.698
  475DPPC   C4918373   4.636   6.370   4.651
  475DPPC   C5018374   4.674   6.398   4.505
  476DPPC    C118375   3.992   4.315   6.309
  476DPPC    C218376   4.110   4.520   6.309
  476DPPC    C318377   3.919   4.489   6.451
  476DPPC    N418378   3.976   4.460   6.319
  476DPPC    C518379   3.887   4.501   6.208
  476DPPC    C618380   3.831   4.646   6.198
  476DPPC   OS718381   3.926   4.749   6.172
  476DPPC    P818382   3.854   4.888   6.164
  476DPPC   OM918383   3.749   4.896   6.267
  476DPPC  OM1018384   3.824   4.920   6.025
  476DPPC  OS1118385   3.978   4.965   6.218
  476DPPC   C1218386   3.959   5.106   6.211
  476DPPC   C1318387   4.076   5.185   6.273
  476DPPC  OS1418388   4.040   5.320   6.316
  476DPPC   C1518389   4.126   5.389   6.397
  476DPPC   O1618390   4.235   5.343   6.435
  476DPPC   C1718391   4.068   5.522   6.439
  476DPPC   C1818392   4.140   5.640   6.375
  476DPPC   C1918393   4.106   5.656   6.226
  476DPPC   C2018394   3.958   5.693   6.207
  476DPPC   C2118395   3.929   5.732   6.062
  476DPPC   C2218396   3.964   5.620   5.965
  476DPPC   C2318397   3.915   5.654   5.824
  476DPPC   C2418398   3.980   5.782   5.770
  476DPPC   C2518399   3.920   5.818   5.634
  476DPPC   C2618400   3.955   5.712   5.529
  476DPPC   C2718401   3.885   5.738   5.396
  476DPPC   C2818402   3.936   5.865   5.328
  476DPPC   C2918403   3.871   5.882   5.190
  476DPPC   C3018404   3.915   5.768   5.097
  476DPPC   C3118405   3.853   5.783   4.958
  476DPPC   C3218406   4.197   5.166   6.177
  476DPPC  OS3318407   4.176   5.203   6.040
  476DPPC   C3418408   4.279   5.270   5.981
  476DPPC   O3518409   4.383   5.302   6.040
  476DPPC   C3618410   4.253   5.293   5.834
  476DPPC   C3718411   4.312   5.427   5.789
  476DPPC   C3818412   4.336   5.428   5.638
  476DPPC   C3918413   4.208   5.405   5.558
  476DPPC   C4018414   4.237   5.419   5.409
  476DPPC   C4118415   4.115   5.384   5.323
  476DPPC   C4218416   4.145   5.408   5.175
  476DPPC   C4318417   4.260   5.318   5.130
  476DPPC   C4418418   4.296   5.342   4.983
  476DPPC   C4518419   4.188   5.286   4.890
  476DPPC   C4618420   4.225   5.310   4.744
  476DPPC   C4718421   4.123   5.245   4.650
  476DPPC   C4818422   4.163   5.267   4.504
  476DPPC   C4918423   4.066   5.196   4.409
  476DPPC   C5018424   4.079   5.044   4.422
  477DPPC    C118425   4.733   6.615   6.764
  477DPPC    C218426   4.644   6.789   6.624
  477DPPC    C318427   4.830   6.833   6.764
  477DPPC    N418428   4.767   6.730   6.680
  477DPPC    C518429   4.863   6.694   6.573
  477DPPC    C618430   4.829   6.584   6.470
  477DPPC   OS718431   4.829   6.450   6.520
  477DPPC    P818432   4.812   6.340   6.408
  477DPPC   OM918433   4.818   6.405   6.276
  477DPPC  OM1018434   4.905   6.236   6.453
  477DPPC  OS1118435   4.664   6.308   6.450
  477DPPC   C1218436   4.582   6.282   6.337
  477DPPC   C1318437   4.432   6.269   6.369
  477DPPC  OS1418438   4.361   6.184   6.274
  477DPPC   C1518439   4.373   6.049   6.297
  477DPPC   O1618440   4.387   6.002   6.410
  477DPPC   C1718441   4.329   5.970   6.175
  477DPPC   C1818442   4.439   5.873   6.132
  477DPPC   C1918443   4.405   5.801   6.002
  477DPPC   C2018444   4.402   5.897   5.883
  477DPPC   C2118445   4.382   5.818   5.753
  477DPPC   C2218446   4.375   5.909   5.631
  477DPPC   C2318447   4.363   5.824   5.504
  477DPPC   C2418448   4.348   5.911   5.379
  477DPPC   C2518449   4.338   5.825   5.253
  477DPPC   C2618450   4.315   5.913   5.130
  477DPPC   C2718451   4.304   5.829   5.003
  477DPPC   C2818452   4.275   5.919   4.883
  477DPPC   C2918453   4.259   5.836   4.754
  477DPPC   C3018454   4.228   5.927   4.635
  477DPPC   C3118455   4.346   6.019   4.604
  477DPPC   C3218456   4.380   6.412   6.395
  477DPPC  OS3318457   4.420   6.510   6.297
  477DPPC   C3418458   4.400   6.641   6.325
  477DPPC   O3518459   4.358   6.684   6.433
  477DPPC   C3618460   4.458   6.729   6.215
  477DPPC   C3718461   4.371   6.732   6.089
  477DPPC   C3818462   4.252   6.826   6.106
  477DPPC   C3918463   4.171   6.835   5.976
  477DPPC   C4018464   4.255   6.897   5.864
  477DPPC   C4118465   4.178   6.898   5.732
  477DPPC   C4218466   4.267   6.943   5.616
  477DPPC   C4318467   4.194   6.930   5.483
  477DPPC   C4418468   4.287   6.964   5.366
  477DPPC   C4518469   4.219   6.941   5.231
  477DPPC   C4618470   4.315   6.966   5.116
  477DPPC   C4718471   4.250   6.935   4.981
  477DPPC   C4818472   4.350   6.953   4.866
  477DPPC   C4918473   4.285   6.919   4.732
  477DPPC   C5018474   4.385   6.936   4.617
  478DPPC    C118475   0.120   7.401   6.778
  478DPPC    C218476   0.082   7.285   6.575
  478DPPC    C318477   0.117   7.522   6.575
  478DPPC    N418478   0.055   7.410   6.647
  478DPPC    C518479  10.067   7.431   6.668
  478DPPC    C618480   9.971   7.434   6.547
  478DPPC   OS718481   9.980   7.547   6.459
  478DPPC    P818482   9.869   7.654   6.493
  478DPPC   OM918483   9.928   7.739   6.597
  478DPPC  OM1018484   9.741   7.585   6.507
  478DPPC  OS1118485   9.870   7.736   6.359
  478DPPC   C1218486   9.820   7.660   6.249
  478DPPC   C1318487   9.785   7.747   6.128
  478DPPC  OS1418488   9.716   7.673   6.024
  478DPPC   C1518489   9.586   7.708   6.005
  478DPPC   O1618490   9.521   7.765   6.093
  478DPPC   C1718491   9.528   7.636   5.884
  478DPPC   C1818492   9.583   7.695   5.754
  478DPPC   C1918493   9.518   7.629   5.632
  478DPPC   C2018494   9.565   7.695   5.503
  478DPPC   C2118495   9.497   7.631   5.381
  478DPPC   C2218496   9.547   7.696   5.252
  478DPPC   C2318497   9.490   7.627   5.128
  478DPPC   C2418498   9.550   7.688   5.001
  478DPPC   C2518499   9.507   7.611   4.876
  478DPPC   C2618500   9.579   7.666   4.752
  478DPPC   C2718501   9.550   7.580   4.629
  478DPPC   C2818502   9.624   7.634   4.506
  478DPPC   C2918503   9.606   7.541   4.386
  478DPPC   C3018504   9.680   7.409   4.409
  478DPPC   C3118505   9.665   7.314   4.289
  478DPPC   C3218506   9.915   7.818   6.084
  478DPPC  OS3318507   9.893   7.936   6.003
  478DPPC   C3418508   9.856   8.049   6.069
  478DPPC   O3518509   9.877   8.069   6.189
  478DPPC   C3618510   9.818   8.157   5.968
  478DPPC   C3718511   9.733   8.095   5.858
  478DPPC   C3818512   9.702   8.192   5.744
  478DPPC   C3918513   9.627   8.116   5.635
  478DPPC   C4018514   9.596   8.201   5.512
  478DPPC   C4118515   9.531   8.113   5.405
  478DPPC   C4218516   9.501   8.188   5.276
  478DPPC   C4318517   9.448   8.088   5.172
  478DPPC   C4418518   9.419   8.153   5.037
  478DPPC   C4518519   9.379   8.043   4.938
  478DPPC   C4618520   9.353   8.097   4.797
  478DPPC   C4718521   9.328   7.981   4.701
  478DPPC   C4818522   9.299   8.028   4.559
  478DPPC   C4918523   9.285   7.909   4.464
  478DPPC   C5018524   9.163   7.823   4.501
  479DPPC    C118525   5.248   6.153   6.488
  479DPPC    C218526   5.111   6.096   6.673
  479DPPC    C318527   5.348   6.088   6.694
  479DPPC    N418528   5.236   6.162   6.634
  479DPPC    C518529   5.242   6.302   6.683
  479DPPC    C618530   5.134   6.401   6.633
  479DPPC   OS718531   5.149   6.541   6.661
  479DPPC    P818532   5.253   6.619   6.571
  479DPPC   OM918533   5.208   6.758   6.580
  479DPPC  OM1018534   5.384   6.575   6.621
  479DPPC  OS1118535   5.223   6.559   6.429
  479DPPC   C1218536   5.225   6.658   6.326
  479DPPC   C1318537   5.246   6.598   6.186
  479DPPC  OS1418538   5.254   6.701   6.084
  479DPPC   C1518539   5.377   6.714   6.026
  479DPPC   O1618540   5.478   6.663   6.075
  479DPPC   C1718541   5.374   6.815   5.913
  479DPPC   C1818542   5.392   6.744   5.778
  479DPPC   C1918543   5.363   6.839   5.662
  479DPPC   C2018544   5.377   6.765   5.529
  479DPPC   C2118545   5.335   6.854   5.412
  479DPPC   C2218546   5.349   6.779   5.280
  479DPPC   C2318547   5.297   6.864   5.164
  479DPPC   C2418548   5.314   6.792   5.030
  479DPPC   C2518549   5.259   6.878   4.917
  479DPPC   C2618550   5.286   6.815   4.780
  479DPPC   C2718551   5.436   6.812   4.752
  479DPPC   C2818552   5.464   6.762   4.610
  479DPPC   C2918553   5.420   6.866   4.506
  479DPPC   C3018554   5.446   6.814   4.364
  479DPPC   C3118555   5.595   6.796   4.339
  479DPPC   C3218556   5.136   6.493   6.163
  479DPPC  OS3318557   5.159   6.406   6.051
  479DPPC   C3418558   5.231   6.294   6.080
  479DPPC   O3518559   5.246   6.252   6.195
  479DPPC   C3618560   5.268   6.214   5.956
  479DPPC   C3718561   5.311   6.298   5.836
  479DPPC   C3818562   5.197   6.314   5.734
  479DPPC   C3918563   5.253   6.369   5.602
  479DPPC   C4018564   5.150   6.361   5.489
  479DPPC   C4118565   5.216   6.388   5.354
  479DPPC   C4218566   5.118   6.373   5.238
  479DPPC   C4318567   5.190   6.391   5.104
  479DPPC   C4418568   5.091   6.387   4.988
  479DPPC   C4518569   5.162   6.406   4.854
  479DPPC   C4618570   5.060   6.425   4.741
  479DPPC   C4718571   5.128   6.450   4.606
  479DPPC   C4818572   5.181   6.321   4.544
  479DPPC   C4918573   5.066   6.234   4.491
  479DPPC   C5018574   5.119   6.110   4.419
  480DPPC    C118575   9.138   7.149   6.946
  480DPPC    C218576   9.203   6.936   7.031
  480DPPC    C318577   9.324   7.128   7.098
  480DPPC    N418578   9.253   7.066   6.985
  480DPPC    C518579   9.346   7.043   6.872
  480DPPC    C618580   9.408   7.167   6.801
  480DPPC   OS718581   9.532   7.143   6.737
  480DPPC    P818582   9.601   7.276   6.687
  480DPPC   OM918583   9.744   7.241   6.687
  480DPPC  OM1018584   9.549   7.391   6.764
  480DPPC  OS1118585   9.535   7.278   6.544
  480DPPC   C1218586   9.632   7.275   6.439
  480DPPC   C1318587   9.676   7.138   6.388
  480DPPC  OS1418588   9.801   7.151   6.316
  480DPPC   C1518589   9.874   7.038   6.297
  480DPPC   O1618590   9.839   6.929   6.344
  480DPPC   C1718591  10.009   7.069   6.235
  480DPPC   C1818592  10.013   7.212   6.180
  480DPPC   C1918593   9.963   7.219   6.036
  480DPPC   C2018594   9.967   7.364   5.987
  480DPPC   C2118595   9.961   7.368   5.834
  480DPPC   C2218596   9.966   7.512   5.783
  480DPPC   C2318597   9.997   7.512   5.634
  480DPPC   C2418598   9.889   7.437   5.555
  480DPPC   C2518599   9.930   7.426   5.408
  480DPPC   C2618600   9.826   7.346   5.330
  480DPPC   C2718601   9.872   7.323   5.186
  480DPPC   C2818602   9.878   7.454   5.107
  480DPPC   C2918603   9.918   7.426   4.962
  480DPPC   C3018604   9.812   7.338   4.894
  480DPPC   C3118605   9.848   7.310   4.749
  480DPPC   C3218606   9.555   7.075   6.314
  480DPPC  OS3318607   9.508   7.149   6.199
  480DPPC   C3418608   9.541   7.099   6.076
  480DPPC   O3518609   9.613   7.001   6.055
  480DPPC   C3618610   9.479   7.186   5.968
  480DPPC   C3718611   9.531   7.146   5.830
  480DPPC   C3818612   9.458   7.221   5.718
  480DPPC   C3918613   9.510   7.174   5.582
  480DPPC   C4018614   9.433   7.234   5.465
  480DPPC   C4118615   9.482   7.174   5.333
  480DPPC   C4218616   9.407   7.235   5.215
  480DPPC   C4318617   9.454   7.177   5.081
  480DPPC   C4418618   9.371   7.238   4.968
  480DPPC   C4518619   9.409   7.180   4.832
  480DPPC   C4618620   9.318   7.238   4.724
  480DPPC   C4718621   9.346   7.177   4.586
  480DPPC   C4818622   9.249   7.234   4.482
  480DPPC   C4918623   9.270   7.169   4.345
  480DPPC   C5018624   9.170   7.224   4.244
  481DPPC    C118625   6.943   8.445   6.836
  481DPPC    C218626   6.982   8.654   6.722
  481DPPC    C318627   6.877   8.650   6.935
  481DPPC    N418628   6.888   8.579   6.807
  481DPPC    C518629   6.754   8.571   6.744
  481DPPC    C618630   6.732   8.503   6.607
  481DPPC   OS718631   6.747   8.361   6.609
  481DPPC    P818632   6.696   8.290   6.479
  481DPPC   OM918633   6.705   8.380   6.363
  481DPPC  OM1018634   6.742   8.151   6.476
  481DPPC  OS1118635   6.544   8.288   6.519
  481DPPC   C1218636   6.468   8.220   6.418
  481DPPC   C1318637   6.316   8.226   6.440
  481DPPC  OS1418638   6.241   8.125   6.367
  481DPPC   C1518639   6.113   8.099   6.407
  481DPPC   O1618640   6.047   8.175   6.479
  481DPPC   C1718641   6.054   7.982   6.330
  481DPPC   C1818642   5.909   8.012   6.290
  481DPPC   C1918643   5.904   8.110   6.173
  481DPPC   C2018644   5.759   8.152   6.143
  481DPPC   C2118645   5.754   8.237   6.016
  481DPPC   C2218646   5.787   8.152   5.894
  481DPPC   C2318647   5.782   8.233   5.764
  481DPPC   C2418648   5.801   8.141   5.643
  481DPPC   C2518649   5.791   8.221   5.513
  481DPPC   C2618650   5.804   8.130   5.391
  481DPPC   C2718651   5.798   8.212   5.263
  481DPPC   C2818652   5.824   8.125   5.139
  481DPPC   C2918653   5.825   8.212   5.013
  481DPPC   C3018654   5.856   8.129   4.889
  481DPPC   C3118655   5.861   8.218   4.764
  481DPPC   C3218656   6.278   8.374   6.418
  481DPPC  OS3318657   6.298   8.424   6.285
  481DPPC   C3418658   6.189   8.480   6.225
  481DPPC   O3518659   6.086   8.513   6.285
  481DPPC   C3618660   6.218   8.508   6.078
  481DPPC   C3718661   6.107   8.450   5.991
  481DPPC   C3818662   6.149   8.449   5.844
  481DPPC   C3918663   6.159   8.590   5.787
  481DPPC   C4018664   6.218   8.588   5.646
  481DPPC   C4118665   6.127   8.516   5.547
  481DPPC   C4218666   6.190   8.516   5.408
  481DPPC   C4318667   6.097   8.452   5.306
  481DPPC   C4418668   6.158   8.448   5.166
  481DPPC   C4518669   6.182   8.590   5.113
  481DPPC   C4618670   6.220   8.588   4.965
  481DPPC   C4718671   6.354   8.518   4.943
  481DPPC   C4818672   6.391   8.519   4.794
  481DPPC   C4918673   6.526   8.450   4.770
  481DPPC   C5018674   6.562   8.452   4.622
  482DPPC    C118675   5.344   9.029   6.870
  482DPPC    C218676   5.452   8.876   6.723
  482DPPC    C318677   5.326   8.795   6.905
  482DPPC    N418678   5.417   8.902   6.863
  482DPPC    C518679   5.535   8.903   6.954
  482DPPC    C618680   5.651   9.004   6.929
  482DPPC   OS718681   5.726   8.975   6.812
  482DPPC    P818682   5.819   9.096   6.771
  482DPPC   OM918683   5.945   9.080   6.844
  482DPPC  OM1018684   5.739   9.218   6.777
  482DPPC  OS1118685   5.843   9.057   6.621
  482DPPC   C1218686   5.725   9.071   6.542
  482DPPC   C1318687   5.740   9.033   6.394
  482DPPC  OS1418688   5.772   8.893   6.370
  482DPPC   C1518689   5.674   8.815   6.317
  482DPPC   O1618690   5.553   8.837   6.334
  482DPPC   C1718691   5.732   8.680   6.280
  482DPPC   C1818692   5.691   8.637   6.139
  482DPPC   C1918693   5.760   8.723   6.033
  482DPPC   C2018694   5.727   8.672   5.893
  482DPPC   C2118695   5.787   8.761   5.784
  482DPPC   C2218696   5.757   8.702   5.647
  482DPPC   C2318697   5.811   8.788   5.533
  482DPPC   C2418698   5.781   8.718   5.400
  482DPPC   C2518699   5.829   8.798   5.278
  482DPPC   C2618700   5.795   8.720   5.151
  482DPPC   C2718701   5.838   8.794   5.024
  482DPPC   C2818702   5.808   8.709   4.901
  482DPPC   C2918703   5.849   8.781   4.773
  482DPPC   C3018704   5.823   8.694   4.650
  482DPPC   C3118705   5.864   8.766   4.521
  482DPPC   C3218706   5.846   9.130   6.338
  482DPPC  OS3318707   5.809   9.268   6.340
  482DPPC   C3418708   5.828   9.332   6.221
  482DPPC   O3518709   5.861   9.274   6.118
  482DPPC   C3618710   5.782   9.477   6.229
  482DPPC   C3718711   5.794   9.549   6.095
  482DPPC   C3818712   5.938   9.590   6.067
  482DPPC   C3918713   5.952   9.662   5.933
  482DPPC   C4018714   5.941   9.567   5.813
  482DPPC   C4118715   5.974   9.644   5.685
  482DPPC   C4218716   5.975   9.553   5.562
  482DPPC   C4318717   6.017   9.631   5.437
  482DPPC   C4418718   6.021   9.540   5.314
  482DPPC   C4518719   6.062   9.616   5.188
  482DPPC   C4618720   6.064   9.523   5.067
  482DPPC   C4718721   6.110   9.596   4.941
  482DPPC   C4818722   6.010   9.703   4.898
  482DPPC   C4918723   6.057   9.776   4.772
  482DPPC   C5018724   6.183   9.857   4.801
  483DPPC    C118725   7.097   2.394   6.463
  483DPPC    C218726   7.265   2.491   6.322
  483DPPC    C318727   7.109   2.630   6.434
  483DPPC    N418728   7.189   2.508   6.447
  483DPPC    C518729   7.281   2.526   6.561
  483DPPC    C618730   7.359   2.405   6.619
  483DPPC   OS718731   7.438   2.328   6.529
  483DPPC    P818732   7.585   2.378   6.516
  483DPPC   OM918733   7.584   2.522   6.494
  483DPPC  OM1018734   7.665   2.311   6.620
  483DPPC  OS1118735   7.611   2.310   6.378
  483DPPC   C1218736   7.747   2.331   6.341
  483DPPC   C1318737   7.780   2.274   6.202
  483DPPC  OS1418738   7.922   2.280   6.172
  483DPPC   C1518739   7.976   2.161   6.132
  483DPPC   O1618740   7.923   2.053   6.159
  483DPPC   C1718741   8.118   2.180   6.082
  483DPPC   C1818742   8.136   2.115   5.945
  483DPPC   C1918743   8.063   2.192   5.834
  483DPPC   C2018744   8.093   2.128   5.698
  483DPPC   C2118745   8.024   2.200   5.582
  483DPPC   C2218746   8.066   2.135   5.451
  483DPPC   C2318747   7.998   2.195   5.328
  483DPPC   C2418748   8.049   2.125   5.202
  483DPPC   C2518749   7.980   2.169   5.074
  483DPPC   C2618750   8.033   2.088   4.956
  483DPPC   C2718751   7.954   2.112   4.827
  483DPPC   C2818752   7.978   2.252   4.769
  483DPPC   C2918753   7.897   2.269   4.640
  483DPPC   C3018754   7.920   2.406   4.577
  483DPPC   C3118755   7.837   2.423   4.450
  483DPPC   C3218756   7.691   2.351   6.102
  483DPPC  OS3318757   7.688   2.300   5.967
  483DPPC   C3418758   7.609   2.192   5.943
  483DPPC   O3518759   7.518   2.156   6.018
  483DPPC   C3618760   7.633   2.142   5.802
  483DPPC   C3718761   7.538   2.028   5.764
  483DPPC   C3818762   7.572   1.975   5.625
  483DPPC   C3918763   7.547   2.081   5.517
  483DPPC   C4018764   7.592   2.033   5.379
  483DPPC   C4118765   7.554   2.135   5.271
  483DPPC   C4218766   7.604   2.090   5.134
  483DPPC   C4318767   7.537   1.959   5.091
  483DPPC   C4418768   7.588   1.913   4.955
  483DPPC   C4518769   7.539   2.006   4.843
  483DPPC   C4618770   7.590   1.958   4.707
  483DPPC   C4718771   7.541   2.049   4.594
  483DPPC   C4818772   7.595   2.004   4.459
  483DPPC   C4918773   7.549   2.098   4.347
  483DPPC   C5018774   7.399   2.087   4.325
  484DPPC    C118775   6.906   7.701   6.515
  484DPPC    C218776   7.106   7.590   6.450
  484DPPC    C318777   7.013   7.551   6.665
  484DPPC    N418778   7.036   7.654   6.563
  484DPPC    C518779   7.122   7.763   6.615
  484DPPC    C618780   7.069   7.855   6.728
  484DPPC   OS718781   7.172   7.927   6.795
  484DPPC    P818782   7.156   8.083   6.789
  484DPPC   OM918783   7.255   8.144   6.879
  484DPPC  OM1018784   7.013   8.118   6.792
  484DPPC  OS1118785   7.215   8.104   6.645
  484DPPC   C1218786   7.151   8.214   6.580
  484DPPC   C1318787   7.243   8.308   6.500
  484DPPC  OS1418788   7.166   8.419   6.445
  484DPPC   C1518789   7.228   8.539   6.429
  484DPPC   O1618790   7.321   8.575   6.503
  484DPPC   C1718791   7.134   8.632   6.355
  484DPPC   C1818792   7.204   8.760   6.307
  484DPPC   C1918793   7.292   8.733   6.185
  484DPPC   C2018794   7.208   8.704   6.060
  484DPPC   C2118795   7.297   8.695   5.937
  484DPPC   C2218796   7.218   8.673   5.808
  484DPPC   C2318797   7.310   8.689   5.687
  484DPPC   C2418798   7.237   8.673   5.554
  484DPPC   C2518799   7.332   8.711   5.440
  484DPPC   C2618800   7.269   8.696   5.302
  484DPPC   C2718801   7.255   8.548   5.264
  484DPPC   C2818802   7.210   8.532   5.119
  484DPPC   C2918803   7.317   8.581   5.023
  484DPPC   C3018804   7.275   8.559   4.877
  484DPPC   C3118805   7.154   8.645   4.842
  484DPPC   C3218806   7.317   8.220   6.397
  484DPPC  OS3318807   7.414   8.291   6.318
  484DPPC   C3418808   7.469   8.227   6.211
  484DPPC   O3518809   7.436   8.114   6.173
  484DPPC   C3618810   7.573   8.316   6.147
  484DPPC   C3718811   7.622   8.266   6.011
  484DPPC   C3818812   7.526   8.302   5.897
  484DPPC   C3918813   7.590   8.263   5.764
  484DPPC   C4018814   7.502   8.293   5.643
  484DPPC   C4118815   7.575   8.247   5.516
  484DPPC   C4218816   7.488   8.260   5.391
  484DPPC   C4318817   7.564   8.212   5.268
  484DPPC   C4418818   7.477   8.218   5.143
  484DPPC   C4518819   7.553   8.170   5.019
  484DPPC   C4618820   7.465   8.177   4.895
  484DPPC   C4718821   7.541   8.132   4.770
  484DPPC   C4818822   7.453   8.141   4.645
  484DPPC   C4918823   7.337   8.042   4.653
  484DPPC   C5018824   7.251   8.048   4.526
  485DPPC    C118825   7.969  10.088   6.803
  485DPPC    C218826   7.841  10.049   6.606
  485DPPC    C318827   7.764  10.205   6.767
  485DPPC    N418828   7.832  10.076   6.750
  485DPPC    C518829   7.751   9.973   6.820
  485DPPC    C618830   7.798   9.826   6.825
  485DPPC   OS718831   7.699   9.736   6.875
  485DPPC    P818832   7.750   9.588   6.888
  485DPPC   OM918833   7.642   9.503   6.940
  485DPPC  OM1018834   7.880   9.598   6.957
  485DPPC  OS1118835   7.767   9.557   6.735
  485DPPC   C1218836   7.883   9.480   6.706
  485DPPC   C1318837   7.905   9.447   6.557
  485DPPC  OS1418838   8.023   9.364   6.536
  485DPPC   C1518839   8.007   9.245   6.471
  485DPPC   O1618840   7.906   9.175   6.485
  485DPPC   C1718841   8.145   9.193   6.432
  485DPPC   C1818842   8.143   9.119   6.299
  485DPPC   C1918843   8.116   9.213   6.181
  485DPPC   C2018844   8.149   9.145   6.049
  485DPPC   C2118845   8.118   9.236   5.930
  485DPPC   C2218846   8.170   9.175   5.800
  485DPPC   C2318847   8.142   9.266   5.681
  485DPPC   C2418848   8.212   9.214   5.555
  485DPPC   C2518849   8.189   9.307   5.437
  485DPPC   C2618850   8.276   9.267   5.318
  485DPPC   C2718851   8.261   9.368   5.204
  485DPPC   C2818852   8.368   9.346   5.097
  485DPPC   C2918853   8.359   9.453   4.988
  485DPPC   C3018854   8.477   9.443   4.892
  485DPPC   C3118855   8.608   9.480   4.963
  485DPPC   C3218856   7.911   9.580   6.480
  485DPPC  OS3318857   7.783   9.628   6.434
  485DPPC   C3418858   7.781   9.750   6.373
  485DPPC   O3518859   7.872   9.832   6.378
  485DPPC   C3618860   7.640   9.779   6.324
  485DPPC   C3718861   7.626   9.912   6.249
  485DPPC   C3818862   7.674   9.904   6.104
  485DPPC   C3918863   7.621  10.025   6.028
  485DPPC   C4018864   7.662  10.025   5.881
  485DPPC   C4118865   7.601  10.146   5.810
  485DPPC   C4218866   7.656  10.163   5.668
  485DPPC   C4318867   7.608  10.054   5.574
  485DPPC   C4418868   7.665  10.076   5.434
  485DPPC   C4518869   7.612  10.207   5.374
  485DPPC   C4618870   7.669  10.232   5.234
  485DPPC   C4718871   7.613  10.362   5.177
  485DPPC   C4818872   7.668  10.391   5.037
  485DPPC   C4918873   7.623  10.285   4.937
  485DPPC   C5018874   7.665  10.319   4.794
  486DPPC    C118875   6.416   9.207   6.535
  486DPPC    C218876   6.396   9.329   6.738
  486DPPC    C318877   6.412   9.094   6.745
  486DPPC    N418878   6.356   9.206   6.669
  486DPPC    C518879   6.209   9.188   6.663
  486DPPC    C618880   6.124   9.284   6.576
  486DPPC   OS718881   6.120   9.419   6.621
  486DPPC    P818882   6.130   9.522   6.503
  486DPPC   OM918883   6.045   9.636   6.539
  486DPPC  OM1018884   6.125   9.456   6.372
  486DPPC  OS1118885   6.279   9.566   6.522
  486DPPC   C1218886   6.312   9.669   6.429
  486DPPC   C1318887   6.460   9.710   6.424
  486DPPC  OS1418888   6.485   9.803   6.314
  486DPPC   C1518889   6.591   9.888   6.322
  486DPPC   O1618890   6.649   9.917   6.427
  486DPPC   C1718891   6.607   9.967   6.192
  486DPPC   C1818892   6.661   9.880   6.079
  486DPPC   C1918893   6.680   9.965   5.954
  486DPPC   C2018894   6.726   9.883   5.834
  486DPPC   C2118895   6.738   9.972   5.711
  486DPPC   C2218896   6.777   9.892   5.586
  486DPPC   C2318897   6.783   9.985   5.465
  486DPPC   C2418898   6.816   9.907   5.337
  486DPPC   C2518899   6.823  10.001   5.217
  486DPPC   C2618900   6.859   9.923   5.090
  486DPPC   C2718901   6.872  10.018   4.971
  486DPPC   C2818902   6.910   9.942   4.843
  486DPPC   C2918903   6.794   9.857   4.793
  486DPPC   C3018904   6.679   9.946   4.745
  486DPPC   C3118905   6.561   9.862   4.696
  486DPPC   C3218906   6.537   9.576   6.416
  486DPPC  OS3318907   6.678   9.582   6.391
  486DPPC   C3418908   6.747   9.466   6.405
  486DPPC   O3518909   6.704   9.364   6.461
  486DPPC   C3618910   6.885   9.481   6.344
  486DPPC   C3718911   6.876   9.441   6.197
  486DPPC   C3818912   6.990   9.498   6.113
  486DPPC   C3918913   6.968   9.458   5.967
  486DPPC   C4018914   7.057   9.538   5.872
  486DPPC   C4118915   7.028   9.501   5.727
  486DPPC   C4218916   7.100   9.597   5.633
  486DPPC   C4318917   7.082   9.558   5.487
  486DPPC   C4418918   7.146   9.664   5.397
  486DPPC   C4518919   7.150   9.620   5.251
  486DPPC   C4618920   7.220   9.728   5.167
  486DPPC   C4718921   7.240   9.682   5.023
  486DPPC   C4818922   7.311   9.790   4.941
  486DPPC   C4918923   7.450   9.819   4.998
  486DPPC   C5018924   7.526   9.918   4.911
  487DPPC    C118925   9.061   0.078   7.063
  487DPPC    C218926   9.217  10.486   6.914
  487DPPC    C318927   9.099  10.348   7.070
  487DPPC    N418928   9.088  10.464   6.979
  487DPPC    C518929   8.977  10.453   6.881
  487DPPC    C618930   8.968  10.331   6.786
  487DPPC   OS718931   8.863  10.338   6.689
  487DPPC    P818932   8.824  10.197   6.630
  487DPPC   OM918933   8.714  10.221   6.535
  487DPPC  OM1018934   8.803  10.105   6.743
  487DPPC  OS1118935   8.957  10.160   6.557
  487DPPC   C1218936   8.961  10.180   6.416
  487DPPC   C1318937   9.103  10.165   6.360
  487DPPC  OS1418938   9.114  10.202   6.219
  487DPPC   C1518939   9.235  10.244   6.173
  487DPPC   O1618940   9.322  10.291   6.247
  487DPPC   C1718941   9.233  10.262   6.022
  487DPPC   C1818942   9.239  10.129   5.946
  487DPPC   C1918943   9.242  10.154   5.795
  487DPPC   C2018944   9.249  10.023   5.717
  487DPPC   C2118945   9.259  10.049   5.566
  487DPPC   C2218946   9.268   9.918   5.488
  487DPPC   C2318947   9.286   9.940   5.338
  487DPPC   C2418948   9.300   9.805   5.267
  487DPPC   C2518949   9.334   9.818   5.119
  487DPPC   C2618950   9.216   9.869   5.035
  487DPPC   C2718951   9.256   9.872   4.887
  487DPPC   C2818952   9.142   9.926   4.800
  487DPPC   C2918953   9.183   9.928   4.652
  487DPPC   C3018954   9.200   9.785   4.599
  487DPPC   C3118955   9.239   9.786   4.451
  487DPPC   C3218956   9.150  10.023   6.395
  487DPPC  OS3318957   9.071   9.915   6.341
  487DPPC   C3418958   9.138   9.799   6.317
  487DPPC   O3518959   9.250   9.775   6.361
  487DPPC   C3618960   9.049   9.699   6.245
  487DPPC   C3718961   9.131   9.616   6.146
  487DPPC   C3818962   9.175   9.702   6.027
  487DPPC   C3918963   9.277   9.627   5.941
  487DPPC   C4018964   9.214   9.520   5.850
  487DPPC   C4118965   9.158   9.583   5.723
  487DPPC   C4218966   9.132   9.476   5.617
  487DPPC   C4318967   9.094   9.539   5.482
  487DPPC   C4418968   9.091   9.433   5.372
  487DPPC   C4518969   9.062   9.496   5.235
  487DPPC   C4618970   9.066   9.391   5.124
  487DPPC   C4718971   9.049   9.455   4.986
  487DPPC   C4818972   9.053   9.349   4.876
  487DPPC   C4918973   9.046   9.412   4.737
  487DPPC   C5018974   8.910   9.477   4.712
  488DPPC    C118975   8.800   9.815   6.567
  488DPPC    C218976   8.662   9.629   6.620
  488DPPC    C318977   8.674   9.711   6.395
  488DPPC    N418978   8.672   9.750   6.537
  488DPPC    C518979   8.563   9.846   6.565
  488DPPC    C618980   8.416   9.809   6.533
  488DPPC   OS718981   8.323   9.916   6.552
  488DPPC    P818982   8.177   9.880   6.506
  488DPPC   OM918983   8.105   9.852   6.631
  488DPPC  OM1018984   8.188   9.782   6.397
  488DPPC  OS1118985   8.140  10.023   6.454
  488DPPC   C1218986   8.158  10.038   6.314
  488DPPC   C1318987   8.107  10.174   6.263
  488DPPC  OS1418988   8.089  10.180   6.119
  488DPPC   C1518989   7.988  10.260   6.073
  488DPPC   O1618990   7.914  10.323   6.149
  488DPPC   C1718991   7.977  10.255   5.922
  488DPPC   C1818992   8.107  10.297   5.853
  488DPPC   C1918993   8.098  10.277   5.702
  488DPPC   C2018994   7.995  10.371   5.638
  488DPPC   C2118995   7.995  10.355   5.486
  488DPPC   C2218996   8.130  10.400   5.429
  488DPPC   C2318997   8.135  10.395   5.276
  488DPPC   C2418998   8.039  10.497   5.215
  488DPPC   C2518999   8.075   0.025   5.070
  488DPPC   C2619000   8.066  10.404   4.980
  488DPPC   C2719001   8.096  10.441   4.835
  488DPPC   C2819002   7.984   0.024   4.776
  488DPPC   C2919003   8.016   0.069   4.633
  488DPPC   C3019004   8.127   0.173   4.632
  488DPPC   C3119005   8.160   0.219   4.490
  488DPPC   C3219006   8.198  10.281   6.326
  488DPPC  OS3319007   8.333  10.289   6.275
  488DPPC   C3419008   8.361  10.408   6.214
  488DPPC   O3519009   8.301   0.009   6.242
  488DPPC   C3619010   8.498  10.404   6.150
  488DPPC   C3719011   8.516   0.006   6.040
  488DPPC   C3819012   8.461  10.462   5.906
  488DPPC   C3919013   8.509   0.051   5.793
  488DPPC   C4019014   8.470  10.500   5.655
  488DPPC   C4119015   8.534   0.078   5.543
  488DPPC   C4219016   8.495   0.025   5.405
  488DPPC   C4319017   8.553   0.111   5.293
  488DPPC   C4419018   8.501   0.069   5.156
  488DPPC   C4519019   8.548   0.167   5.049
  488DPPC   C4619020   8.482   0.143   4.912
  488DPPC   C4719021   8.543   0.024   4.837
  488DPPC   C4819022   8.472   0.007   4.703
  488DPPC   C4919023   8.532  10.397   4.618
  488DPPC   C5019024   8.669  10.437   4.562
  489DPPC    C119025   8.934   4.073   6.572
  489DPPC    C219026   8.805   4.025   6.379
  489DPPC    C319027   8.696   4.085   6.580
  489DPPC    N419028   8.810   4.010   6.524
  489DPPC    C519029   8.797   3.869   6.567
  489DPPC    C619030   8.904   3.769   6.518
  489DPPC   OS719031   8.878   3.631   6.546
  489DPPC    P819032   8.980   3.547   6.461
  489DPPC   OM919033   8.984   3.597   6.323
  489DPPC  OM1019034   9.102   3.531   6.541
  489DPPC  OS1119035   8.909   3.408   6.458
  489DPPC   C1219036   8.982   3.322   6.370
  489DPPC   C1319037   8.916   3.186   6.345
  489DPPC  OS1419038   9.003   3.092   6.274
  489DPPC   C1519039   8.972   2.960   6.273
  489DPPC   O1619040   8.873   2.912   6.332
  489DPPC   C1719041   9.068   2.883   6.185
  489DPPC   C1819042   9.036   2.910   6.037
  489DPPC   C1919043   8.914   2.831   5.992
  489DPPC   C2019044   8.874   2.868   5.849
  489DPPC   C2119045   8.776   2.766   5.791
  489DPPC   C2219046   8.736   2.803   5.648
  489DPPC   C2319047   8.667   2.683   5.583
  489DPPC   C2419048   8.616   2.713   5.443
  489DPPC   C2519049   8.727   2.754   5.346
  489DPPC   C2619050   8.676   2.746   5.202
  489DPPC   C2719051   8.776   2.811   5.106
  489DPPC   C2819052   8.747   2.772   4.961
  489DPPC   C2919053   8.789   2.627   4.936
  489DPPC   C3019054   8.777   2.590   4.788
  489DPPC   C3119055   8.828   2.448   4.765
  489DPPC   C3219056   8.781   3.214   6.276
  489DPPC  OS3319057   8.786   3.293   6.155
  489DPPC   C3419058   8.688   3.266   6.064
  489DPPC   O3519059   8.574   3.233   6.098
  489DPPC   C3619060   8.722   3.328   5.930
  489DPPC   C3719061   8.658   3.245   5.818
  489DPPC   C3819062   8.687   3.302   5.680
  489DPPC   C3919063   8.622   3.213   5.574
  489DPPC   C4019064   8.640   3.268   5.433
  489DPPC   C4119065   8.568   3.176   5.334
  489DPPC   C4219066   8.573   3.230   5.191
  489DPPC   C4319067   8.492   3.138   5.099
  489DPPC   C4419068   8.489   3.191   4.956
  489DPPC   C4519069   8.627   3.185   4.891
  489DPPC   C4619070   8.618   3.225   4.744
  489DPPC   C4719071   8.532   3.124   4.667
  489DPPC   C4819072   8.525   3.159   4.518
  489DPPC   C4919073   8.662   3.139   4.452
  489DPPC   C5019074   8.654   3.170   4.303
  490DPPC    C119075   8.311   2.882   6.644
  490DPPC    C219076   8.222   3.077   6.535
  490DPPC    C319077   8.324   3.095   6.749
  490DPPC    N419078   8.241   3.010   6.664
  490DPPC    C519079   8.111   2.990   6.733
  490DPPC    C619080   8.001   2.904   6.667
  490DPPC   OS719081   7.874   2.911   6.733
  490DPPC    P819082   7.770   2.811   6.671
  490DPPC   OM919083   7.656   2.800   6.764
  490DPPC  OM1019084   7.842   2.693   6.624
  490DPPC  OS1119085   7.727   2.902   6.551
  490DPPC   C1219086   7.673   2.820   6.447
  490DPPC   C1319087   7.642   2.898   6.318
  490DPPC  OS1419088   7.580   2.816   6.216
  490DPPC   C1519089   7.464   2.865   6.165
  490DPPC   O1619090   7.396   2.947   6.227
  490DPPC   C1719091   7.415   2.785   6.045
  490DPPC   C1819092   7.527   2.768   5.942
  490DPPC   C1919093   7.468   2.734   5.805
  490DPPC   C2019094   7.577   2.712   5.700
  490DPPC   C2119095   7.642   2.575   5.718
  490DPPC   C2219096   7.745   2.549   5.607
  490DPPC   C2319097   7.680   2.564   5.469
  490DPPC   C2419098   7.779   2.530   5.358
  490DPPC   C2519099   7.725   2.571   5.221
  490DPPC   C2619100   7.823   2.531   5.110
  490DPPC   C2719101   7.786   2.594   4.976
  490DPPC   C2819102   7.651   2.544   4.924
  490DPPC   C2919103   7.618   2.611   4.791
  490DPPC   C3019104   7.482   2.566   4.738
  490DPPC   C3119105   7.484   2.417   4.701
  490DPPC   C3219106   7.776   2.965   6.278
  490DPPC  OS3319107   7.769   3.054   6.166
  490DPPC   C3419108   7.867   3.147   6.152
  490DPPC   O3519109   7.954   3.171   6.236
  490DPPC   C3619110   7.848   3.222   6.021
  490DPPC   C3719111   7.743   3.148   5.938
  490DPPC   C3819112   7.733   3.200   5.794
  490DPPC   C3919113   7.628   3.117   5.720
  490DPPC   C4019114   7.621   3.151   5.571
  490DPPC   C4119115   7.753   3.118   5.501
  490DPPC   C4219116   7.734   3.118   5.349
  490DPPC   C4319117   7.655   2.995   5.306
  490DPPC   C4419118   7.617   3.002   5.158
  490DPPC   C4519119   7.739   2.998   5.067
  490DPPC   C4619120   7.695   3.009   4.921
  490DPPC   C4719121   7.814   3.004   4.826
  490DPPC   C4819122   7.768   3.017   4.681
  490DPPC   C4919123   7.887   3.013   4.585
  490DPPC   C5019124   7.841   3.025   4.440
  491DPPC    C119125   5.734   1.961   6.887
  491DPPC    C219126   5.784   2.193   6.897
  491DPPC    C319127   5.957   2.030   6.925
  491DPPC    N419128   5.834   2.063   6.852
  491DPPC    C519129   5.857   2.058   6.706
  491DPPC    C619130   5.960   2.155   6.644
  491DPPC   OS719131   6.003   2.124   6.511
  491DPPC    P819132   6.095   2.236   6.450
  491DPPC   OM919133   6.197   2.183   6.359
  491DPPC  OM1019134   6.123   2.345   6.545
  491DPPC  OS1119135   5.986   2.303   6.358
  491DPPC   C1219136   5.951   2.228   6.240
  491DPPC   C1319137   5.860   2.314   6.150
  491DPPC  OS1419138   5.779   2.243   6.052
  491DPPC   C1519139   5.644   2.261   6.065
  491DPPC   O1619140   5.592   2.297   6.171
  491DPPC   C1719141   5.567   2.218   5.942
  491DPPC   C1819142   5.594   2.073   5.901
  491DPPC   C1919143   5.509   2.038   5.779
  491DPPC   C2019144   5.553   2.119   5.656
  491DPPC   C2119145   5.467   2.084   5.535
  491DPPC   C2219146   5.522   2.151   5.408
  491DPPC   C2319147   5.442   2.108   5.285
  491DPPC   C2419148   5.506   2.163   5.157
  491DPPC   C2519149   5.426   2.121   5.033
  491DPPC   C2619150   5.498   2.167   4.906
  491DPPC   C2719151   5.421   2.127   4.781
  491DPPC   C2819152   5.499   2.162   4.654
  491DPPC   C2919153   5.509   2.313   4.632
  491DPPC   C3019154   5.375   2.371   4.586
  491DPPC   C3119155   5.387   2.521   4.562
  491DPPC   C3219156   5.949   2.426   6.095
  491DPPC  OS3319157   6.053   2.386   6.003
  491DPPC   C3419158   6.129   2.487   5.954
  491DPPC   O3519159   6.159   2.584   6.024
  491DPPC   C3619160   6.214   2.441   5.836
  491DPPC   C3719161   6.132   2.422   5.708
  491DPPC   C3819162   6.065   2.284   5.703
  491DPPC   C3919163   5.973   2.271   5.583
  491DPPC   C4019164   6.050   2.275   5.451
  491DPPC   C4119165   5.954   2.253   5.334
  491DPPC   C4219166   6.026   2.262   5.199
  491DPPC   C4319167   5.928   2.236   5.085
  491DPPC   C4419168   5.992   2.261   4.949
  491DPPC   C4519169   5.892   2.237   4.836
  491DPPC   C4619170   5.947   2.284   4.702
  491DPPC   C4719171   6.061   2.195   4.652
  491DPPC   C4819172   6.008   2.065   4.592
  491DPPC   C4919173   6.122   1.980   4.535
  491DPPC   C5019174   6.068   1.855   4.466
  492DPPC    C119175   4.702   9.678   6.522
  492DPPC    C219176   4.865   9.517   6.458
  492DPPC    C319177   4.632   9.458   6.463
  492DPPC    N419178   4.738   9.535   6.530
  492DPPC    C519179   4.750   9.499   6.673
  492DPPC    C619180   4.792   9.355   6.714
  492DPPC   OS719181   4.695   9.254   6.683
  492DPPC    P819182   4.731   9.111   6.736
  492DPPC   OM919183   4.602   9.042   6.740
  492DPPC  OM1019184   4.810   9.132   6.859
  492DPPC  OS1119185   4.819   9.069   6.612
  492DPPC   C1219186   4.736   9.019   6.507
  492DPPC   C1319187   4.799   9.021   6.366
  492DPPC  OS1419188   4.702   8.977   6.268
  492DPPC   C1519189   4.666   9.063   6.169
  492DPPC   O1619190   4.675   9.186   6.179
  492DPPC   C1719191   4.572   8.991   6.073
  492DPPC   C1819192   4.529   9.078   5.955
  492DPPC   C1919193   4.637   9.089   5.847
  492DPPC   C2019194   4.581   9.165   5.727
  492DPPC   C2119195   4.677   9.168   5.608
  492DPPC   C2219196   4.604   9.229   5.488
  492DPPC   C2319197   4.688   9.231   5.361
  492DPPC   C2419198   4.601   9.278   5.245
  492DPPC   C2519199   4.676   9.285   5.112
  492DPPC   C2619200   4.579   9.324   5.001
  492DPPC   C2719201   4.651   9.342   4.866
  492DPPC   C2819202   4.550   9.381   4.758
  492DPPC   C2919203   4.620   9.413   4.626
  492DPPC   C3019204   4.686   9.289   4.565
  492DPPC   C3119205   4.755   9.324   4.433
  492DPPC   C3219206   4.924   8.932   6.371
  492DPPC  OS3319207   5.013   8.947   6.259
  492DPPC   C3419208   5.088   8.840   6.220
  492DPPC   O3519209   5.105   8.737   6.287
  492DPPC   C3619210   5.169   8.874   6.096
  492DPPC   C3719211   5.250   8.751   6.054
  492DPPC   C3819212   5.341   8.781   5.934
  492DPPC   C3919213   5.262   8.806   5.806
  492DPPC   C4019214   5.358   8.816   5.687
  492DPPC   C4119215   5.286   8.848   5.557
  492DPPC   C4219216   5.385   8.852   5.441
  492DPPC   C4319217   5.318   8.893   5.310
  492DPPC   C4419218   5.418   8.891   5.194
  492DPPC   C4519219   5.354   8.941   5.065
  492DPPC   C4619220   5.452   8.934   4.948
  492DPPC   C4719221   5.390   8.994   4.821
  492DPPC   C4819222   5.487   8.982   4.703
  492DPPC   C4919223   5.429   9.050   4.578
  492DPPC   C5019224   5.305   8.976   4.527
  493DPPC    C119225   0.137  10.113   7.057
  493DPPC    C219226   0.171  10.100   6.820
  493DPPC    C319227   0.318  10.228   6.955
  493DPPC    N419228   0.238  10.105   6.951
  493DPPC    C519229   0.330   9.991   6.971
  493DPPC    C619230   0.274   9.847   6.981
  493DPPC   OS719231   0.221   9.795   6.859
  493DPPC    P819232   0.096   9.706   6.888
  493DPPC   OM919233  10.156   9.803   6.939
  493DPPC  OM1019234   0.144   9.597   6.973
  493DPPC  OS1119235   0.067   9.660   6.741
  493DPPC   C1219236  10.097   9.705   6.695
  493DPPC   C1319237  10.092   9.745   6.547
  493DPPC  OS1419238   9.960   9.793   6.511
  493DPPC   C1519239   9.951   9.906   6.436
  493DPPC   O1619240  10.048   9.980   6.414
  493DPPC   C1719241   9.806   9.933   6.401
  493DPPC   C1819242   9.789  10.044   6.297
  493DPPC   C1919243   9.643  10.057   6.253
  493DPPC   C2019244   9.608   9.956   6.144
  493DPPC   C2119245   9.679   9.995   6.014
  493DPPC   C2219246   9.645   9.902   5.897
  493DPPC   C2319247   9.711   9.955   5.770
  493DPPC   C2419248   9.679   9.869   5.648
  493DPPC   C2519249   9.736   9.934   5.522
  493DPPC   C2619250   9.705   9.851   5.397
  493DPPC   C2719251   9.750   9.925   5.271
  493DPPC   C2819252   9.718   9.845   5.145
  493DPPC   C2919253   9.752   9.925   5.019
  493DPPC   C3019254   9.710   9.850   4.893
  493DPPC   C3119255   9.741   9.932   4.767
  493DPPC   C3219256  10.137   9.621   6.467
  493DPPC  OS3319257   0.003   9.645   6.327
  493DPPC   C3419258  10.126   9.544   6.242
  493DPPC   O3519259  10.079   9.436   6.277
  493DPPC   C3619260   0.000   9.583   6.099
  493DPPC   C3719261  10.077   9.502   5.997
  493DPPC   C3819262  10.114   9.548   5.856
  493DPPC   C3919263  10.034   9.476   5.748
  493DPPC   C4019264  10.078   9.528   5.611
  493DPPC   C4119265   9.998   9.465   5.497
  493DPPC   C4219266  10.047   9.522   5.364
  493DPPC   C4319267   9.969   9.466   5.245
  493DPPC   C4419268  10.019   9.530   5.115
  493DPPC   C4519269   9.942   9.477   4.994
  493DPPC   C4619270   9.989   9.545   4.866
  493DPPC   C4719271   9.911   9.493   4.746
  493DPPC   C4819272   9.955   9.562   4.617
  493DPPC   C4919273   9.877   9.508   4.497
  493DPPC   C5019274   9.923   9.576   4.368
  494DPPC    C119275   8.895   1.003   6.965
  494DPPC    C219276   8.831   1.197   6.843
  494DPPC    C319277   8.780   1.183   7.073
  494DPPC    N419278   8.790   1.105   6.949
  494DPPC    C519279   8.656   1.047   6.919
  494DPPC    C619280   8.638   0.942   6.807
  494DPPC   OS719281   8.679   0.984   6.678
  494DPPC    P819282   8.638   0.883   6.565
  494DPPC   OM919283   8.563   0.956   6.463
  494DPPC  OM1019284   8.591   0.754   6.620
  494DPPC  OS1119285   8.783   0.852   6.511
  494DPPC   C1219286   8.781   0.828   6.370
  494DPPC   C1319287   8.854   0.700   6.328
  494DPPC  OS1419288   8.907   0.709   6.193
  494DPPC   C1519289   9.012   0.630   6.157
  494DPPC   O1619290   9.068   0.553   6.235
  494DPPC   C1719291   9.055   0.664   6.016
  494DPPC   C1819292   9.172   0.579   5.968
  494DPPC   C1919293   9.234   0.641   5.842
  494DPPC   C2019294   9.138   0.640   5.723
  494DPPC   C2119295   9.194   0.730   5.613
  494DPPC   C2219296   9.106   0.736   5.488
  494DPPC   C2319297   9.127   0.617   5.395
  494DPPC   C2419298   9.274   0.608   5.353
  494DPPC   C2519299   9.293   0.532   5.222
  494DPPC   C2619300   9.260   0.622   5.103
  494DPPC   C2719301   9.303   0.560   4.970
  494DPPC   C2819302   9.283   0.661   4.857
  494DPPC   C2919303   9.329   0.605   4.722
  494DPPC   C3019304   9.314   0.711   4.612
  494DPPC   C3119305   9.167   0.745   4.589
  494DPPC   C3219306   8.759   0.583   6.360
  494DPPC  OS3319307   8.632   0.585   6.291
  494DPPC   C3419308   8.559   0.471   6.299
  494DPPC   O3519309   8.590   0.375   6.371
  494DPPC   C3619310   8.432   0.478   6.215
  494DPPC   C3719311   8.456   0.542   6.078
  494DPPC   C3819312   8.546   0.456   5.989
  494DPPC   C3919313   8.564   0.519   5.851
  494DPPC   C4019314   8.678   0.452   5.774
  494DPPC   C4119315   8.693   0.510   5.634
  494DPPC   C4219316   8.584   0.455   5.542
  494DPPC   C4319317   8.580   0.527   5.407
  494DPPC   C4419318   8.705   0.505   5.322
  494DPPC   C4519319   8.690   0.587   5.193
  494DPPC   C4619320   8.811   0.575   5.100
  494DPPC   C4719321   8.823   0.434   5.043
  494DPPC   C4819322   8.926   0.428   4.930
  494DPPC   C4919323   8.875   0.499   4.804
  494DPPC   C5019324   8.760   0.421   4.740
  495DPPC    C119325   5.829   8.707   6.682
  495DPPC    C219326   6.003   8.546   6.695
  495DPPC    C319327   6.024   8.738   6.551
  495DPPC    N419328   5.975   8.690   6.682
  495DPPC    C519329   6.033   8.769   6.793
  495DPPC    C619330   6.184   8.757   6.826
  495DPPC   OS719331   6.274   8.799   6.724
  495DPPC    P819332   6.395   8.701   6.718
  495DPPC   OM919333   6.469   8.704   6.845
  495DPPC  OM1019334   6.339   8.575   6.669
  495DPPC  OS1119335   6.484   8.767   6.607
  495DPPC   C1219336   6.431   8.743   6.477
  495DPPC   C1319337   6.428   8.866   6.384
  495DPPC  OS1419338   6.331   8.853   6.278
  495DPPC   C1519339   6.221   8.931   6.294
  495DPPC   O1619340   6.203   8.998   6.396
  495DPPC   C1719341   6.123   8.918   6.178
  495DPPC   C1819342   6.189   8.962   6.047
  495DPPC   C1919343   6.081   9.003   5.947
  495DPPC   C2019344   6.144   9.054   5.817
  495DPPC   C2119345   6.039   9.127   5.734
  495DPPC   C2219346   6.100   9.182   5.605
  495DPPC   C2319347   6.121   9.073   5.501
  495DPPC   C2419348   6.184   9.133   5.375
  495DPPC   C2519349   6.182   9.034   5.259
  495DPPC   C2619350   6.253   9.095   5.138
  495DPPC   C2719351   6.240   9.006   5.014
  495DPPC   C2819352   6.320   9.065   4.898
  495DPPC   C2919353   6.297   8.988   4.768
  495DPPC   C3019354   6.157   9.016   4.713
  495DPPC   C3119355   6.144   9.162   4.670
  495DPPC   C3219356   6.571   8.896   6.335
  495DPPC  OS3319357   6.662   8.963   6.425
  495DPPC   C3419358   6.762   9.027   6.358
  495DPPC   O3519359   6.853   9.085   6.419
  495DPPC   C3619360   6.747   9.019   6.207
  495DPPC   C3719361   6.879   9.045   6.135
  495DPPC   C3819362   6.861   9.031   5.984
  495DPPC   C3919363   6.990   9.062   5.909
  495DPPC   C4019364   6.968   9.053   5.758
  495DPPC   C4119365   7.095   9.092   5.683
  495DPPC   C4219366   7.078   9.081   5.531
  495DPPC   C4319367   7.208   9.120   5.462
  495DPPC   C4419368   7.203   9.096   5.311
  495DPPC   C4519369   7.112   9.195   5.238
  495DPPC   C4619370   7.119   9.169   5.087
  495DPPC   C4719371   7.035   9.268   5.007
  495DPPC   C4819372   7.048   9.239   4.858
  495DPPC   C4919373   6.965   9.337   4.774
  495DPPC   C5019374   7.023   9.478   4.782
  496DPPC    C119375   5.782   9.508   6.651
  496DPPC    C219376   5.731   9.714   6.758
  496DPPC    C319377   5.716   9.510   6.881
  496DPPC    N419378   5.694   9.572   6.749
  496DPPC    C519379   5.552   9.562   6.710
  496DPPC    C619380   5.495   9.422   6.678
  496DPPC   OS719381   5.356   9.421   6.646
  496DPPC    P819382   5.315   9.288   6.574
  496DPPC   OM919383   5.173   9.271   6.608
  496DPPC  OM1019384   5.412   9.181   6.596
  496DPPC  OS1119385   5.328   9.348   6.431
  496DPPC   C1219386   5.266   9.266   6.333
  496DPPC   C1319387   5.239   9.343   6.204
  496DPPC  OS1419388   5.166   9.264   6.106
  496DPPC   C1519389   5.061   9.322   6.042
  496DPPC   O1619390   5.015   9.432   6.073
  496DPPC   C1719391   4.994   9.220   5.951
  496DPPC   C1819392   5.080   9.180   5.831
  496DPPC   C1919393   5.073   9.283   5.719
  496DPPC   C2019394   5.151   9.235   5.597
  496DPPC   C2119395   5.126   9.327   5.477
  496DPPC   C2219396   5.203   9.280   5.354
  496DPPC   C2319397   5.171   9.368   5.232
  496DPPC   C2419398   5.251   9.323   5.110
  496DPPC   C2519399   5.218   9.409   4.988
  496DPPC   C2619400   5.076   9.385   4.939
  496DPPC   C2719401   5.044   9.472   4.817
  496DPPC   C2819402   5.130   9.431   4.697
  496DPPC   C2919403   5.099   9.519   4.575
  496DPPC   C3019404   5.186   9.479   4.456
  496DPPC   C3119405   5.156   9.568   4.335
  496DPPC   C3219406   5.375   9.398   6.157
  496DPPC  OS3319407   5.472   9.299   6.116
  496DPPC   C3419408   5.488   9.289   5.981
  496DPPC   O3519409   5.456   9.379   5.904
  496DPPC   C3619410   5.571   9.166   5.945
  496DPPC   C3719411   5.551   9.126   5.799
  496DPPC   C3819412   5.640   9.206   5.703
  496DPPC   C3919413   5.609   9.168   5.557
  496DPPC   C4019414   5.713   9.227   5.463
  496DPPC   C4119415   5.684   9.193   5.317
  496DPPC   C4219416   5.805   9.231   5.231
  496DPPC   C4319417   5.783   9.208   5.082
  496DPPC   C4419418   5.686   9.311   5.024
  496DPPC   C4519419   5.686   9.305   4.871
  496DPPC   C4619420   5.590   9.409   4.812
  496DPPC   C4719421   5.600   9.413   4.660
  496DPPC   C4819422   5.735   9.468   4.615
  496DPPC   C4919423   5.745   9.472   4.462
  496DPPC   C5019424   5.648   9.574   4.403
  497DPPC    C119425   7.341   9.601   6.930
  497DPPC    C219426   7.275   9.399   6.823
  497DPPC    C319427   7.169   9.603   6.764
  497DPPC    N419428   7.297   9.543   6.802
  497DPPC    C519429   7.400   9.559   6.696
  497DPPC    C619430   7.452   9.700   6.661
  497DPPC   OS719431   7.356   9.790   6.604
  497DPPC    P819432   7.394   9.937   6.645
  497DPPC   OM919433   7.372   9.945   6.790
  497DPPC  OM1019434   7.524   9.969   6.585
  497DPPC  OS1119435   7.282  10.017   6.571
  497DPPC   C1219436   7.299  10.008   6.430
  497DPPC   C1319437   7.197  10.088   6.347
  497DPPC  OS1419438   7.184  10.038   6.211
  497DPPC   C1519439   7.108   9.927   6.191
  497DPPC   O1619440   7.064   9.857   6.283
  497DPPC   C1719441   7.109   9.889   6.044
  497DPPC   C1819442   7.141  10.010   5.955
  497DPPC   C1919443   7.153   9.967   5.809
  497DPPC   C2019444   7.177  10.088   5.717
  497DPPC   C2119445   7.185  10.042   5.571
  497DPPC   C2219446   7.197  10.161   5.475
  497DPPC   C2319447   7.206  10.110   5.331
  497DPPC   C2419448   7.214  10.224   5.229
  497DPPC   C2519449   7.230  10.165   5.089
  497DPPC   C2619450   7.245  10.273   4.981
  497DPPC   C2719451   7.113  10.346   4.953
  497DPPC   C2819452   7.131  10.449   4.842
  497DPPC   C2919453   7.157  10.382   4.707
  497DPPC   C3019454   7.032  10.311   4.655
  497DPPC   C3119455   7.059  10.240   4.522
  497DPPC   C3219456   7.237  10.236   6.362
  497DPPC  OS3319457   7.368  10.273   6.314
  497DPPC   C3419458   7.369  10.357   6.206
  497DPPC   O3519459   7.267  10.405   6.155
  497DPPC   C3619460   7.510  10.390   6.163
  497DPPC   C3719461   7.509  10.492   6.048
  497DPPC   C3819462   7.651   0.025   6.004
  497DPPC   C3919463   7.649   0.127   5.890
  497DPPC   C4019464   7.583   0.067   5.766
  497DPPC   C4119465   7.580   0.167   5.650
  497DPPC   C4219466   7.505   0.107   5.531
  497DPPC   C4319467   7.496   0.205   5.414
  497DPPC   C4419468   7.632   0.225   5.347
  497DPPC   C4519469   7.617   0.310   5.221
  497DPPC   C4619470   7.748   0.314   5.142
  497DPPC   C4719471   7.730   0.387   5.009
  497DPPC   C4819472   7.858   0.377   4.925
  497DPPC   C4919473   7.841   0.445   4.789
  497DPPC   C5019474   7.832   0.597   4.804
  498DPPC    C119475   6.102  10.293   6.827
  498DPPC    C219476   6.080  10.365   6.603
  498DPPC    C319477   6.044   0.016   6.785
  498DPPC    N419478   6.024  10.380   6.738
  498DPPC    C519479   5.882  10.340   6.745
  498DPPC    C619480   5.774  10.412   6.659
  498DPPC   OS719481   5.778  10.384   6.519
  498DPPC    P819482   5.680  10.474   6.433
  498DPPC   OM919483   5.599   0.050   6.527
  498DPPC  OM1019484   5.618  10.379   6.339
  498DPPC  OS1119485   5.798   0.059   6.379
  498DPPC   C1219486   5.837   0.029   6.245
  498DPPC   C1319487   5.944   0.126   6.193
  498DPPC  OS1419488   5.988   0.098   6.057
  498DPPC   C1519489   6.006   0.208   5.980
  498DPPC   O1619490   5.947   0.315   6.000
  498DPPC   C1719491   6.102   0.180   5.865
  498DPPC   C1819492   6.040   0.118   5.740
  498DPPC   C1919493   5.981   0.221   5.643
  498DPPC   C2019494   5.963   0.156   5.506
  498DPPC   C2119495   5.897   0.247   5.404
  498DPPC   C2219496   5.882   0.177   5.269
  498DPPC   C2319497   5.794   0.258   5.174
  498DPPC   C2419498   5.772   0.189   5.039
  498DPPC   C2519499   5.661   0.262   4.964
  498DPPC   C2619500   5.621   0.195   4.832
  498DPPC   C2719501   5.705   0.241   4.713
  498DPPC   C2819502   5.634   0.204   4.582
  498DPPC   C2919503   5.704   0.264   4.460
  498DPPC   C3019504   5.827   0.182   4.418
  498DPPC   C3119505   5.785   0.049   4.356
  498DPPC   C3219506   6.055   0.125   6.300
  498DPPC  OS3319507   6.185   0.176   6.265
  498DPPC   C3419508   6.278   0.184   6.364
  498DPPC   O3519509   6.260   0.150   6.482
  498DPPC   C3619510   6.413   0.223   6.306
  498DPPC   C3719511   6.476   0.102   6.237
  498DPPC   C3819512   6.612   0.136   6.175
  498DPPC   C3919513   6.597   0.214   6.044
  498DPPC   C4019514   6.538   0.125   5.935
  498DPPC   C4119515   6.543   0.194   5.798
  498DPPC   C4219516   6.481   0.105   5.690
  498DPPC   C4319517   6.503   0.164   5.551
  498DPPC   C4419518   6.427   0.296   5.533
  498DPPC   C4519519   6.458   0.359   5.397
  498DPPC   C4619520   6.402   0.274   5.283
  498DPPC   C4719521   6.431   0.340   5.148
  498DPPC   C4819522   6.378   0.255   5.032
  498DPPC   C4919523   6.225   0.248   5.034
  498DPPC   C5019524   6.173   0.162   4.919
  499DPPC    C119525   8.545   1.744   6.425
  499DPPC    C219526   8.333   1.836   6.478
  499DPPC    C319527   8.446   1.704   6.639
  499DPPC    N419528   8.465   1.804   6.533
  499DPPC    C519529   8.525   1.929   6.584
  499DPPC    C619530   8.660   1.925   6.658
  499DPPC   OS719531   8.768   1.877   6.579
  499DPPC    P819532   8.901   1.881   6.661
  499DPPC   OM919533   8.942   2.022   6.669
  499DPPC  OM1019534   8.875   1.803   6.782
  499DPPC  OS1119535   8.994   1.799   6.565
  499DPPC   C1219536   8.992   1.658   6.588
  499DPPC   C1319537   8.911   1.576   6.487
  499DPPC  OS1419538   8.925   1.433   6.509
  499DPPC   C1519539   8.818   1.356   6.477
  499DPPC   O1619540   8.703   1.397   6.493
  499DPPC   C1719541   8.858   1.209   6.476
  499DPPC   C1819542   8.979   1.183   6.385
  499DPPC   C1919543   8.936   1.186   6.238
  499DPPC   C2019544   9.053   1.157   6.144
  499DPPC   C2119545   9.007   1.161   5.998
  499DPPC   C2219546   9.127   1.154   5.903
  499DPPC   C2319547   9.084   1.169   5.757
  499DPPC   C2419548   9.207   1.189   5.668
  499DPPC   C2519549   9.169   1.213   5.522
  499DPPC   C2619550   9.294   1.251   5.442
  499DPPC   C2719551   9.263   1.279   5.295
  499DPPC   C2819552   9.227   1.150   5.221
  499DPPC   C2919553   9.219   1.176   5.070
  499DPPC   C3019554   9.190   1.047   4.994
  499DPPC   C3119555   9.203   1.070   4.843
  499DPPC   C3219556   8.965   1.621   6.350
  499DPPC  OS3319557   8.894   1.575   6.234
  499DPPC   C3419558   8.952   1.608   6.116
  499DPPC   O3519559   9.045   1.689   6.106
  499DPPC   C3619560   8.872   1.549   6.001
  499DPPC   C3719561   8.937   1.578   5.867
  499DPPC   C3819562   8.856   1.518   5.751
  499DPPC   C3919563   8.923   1.555   5.619
  499DPPC   C4019564   8.849   1.501   5.497
  499DPPC   C4119565   8.917   1.554   5.371
  499DPPC   C4219566   8.845   1.516   5.242
  499DPPC   C4319567   8.918   1.581   5.124
  499DPPC   C4419568   8.853   1.554   4.989
  499DPPC   C4519569   8.864   1.407   4.950
  499DPPC   C4619570   8.853   1.393   4.798
  499DPPC   C4719571   8.718   1.441   4.744
  499DPPC   C4819572   8.722   1.447   4.592
  499DPPC   C4919573   8.820   1.556   4.546
  499DPPC   C5019574   8.826   1.566   4.394
  500DPPC    C119575   8.060   0.643   6.736
  500DPPC    C219576   7.929   0.490   6.614
  500DPPC    C319577   7.831   0.620   6.790
  500DPPC    N419578   7.950   0.546   6.748
  500DPPC    C519579   7.991   0.442   6.846
  500DPPC    C619580   7.894   0.326   6.881
  500DPPC   OS719581   7.870   0.237   6.772
  500DPPC    P819582   7.765   0.128   6.809
  500DPPC   OM919583   7.636   0.199   6.812
  500DPPC  OM1019584   7.816   0.053   6.925
  500DPPC  OS1119585   7.782   0.038   6.681
  500DPPC   C1219586   7.672   0.045   6.589
  500DPPC   C1319587   7.669   0.160   6.486
  500DPPC  OS1419588   7.542   0.163   6.415
  500DPPC   C1519589   7.496   0.283   6.372
  500DPPC   O1619590   7.565   0.386   6.368
  500DPPC   C1719591   7.350   0.271   6.328
  500DPPC   C1819592   7.304   0.384   6.236
  500DPPC   C1919593   7.348   0.361   6.092
  500DPPC   C2019594   7.282   0.461   5.997
  500DPPC   C2119595   7.320   0.433   5.852
  500DPPC   C2219596   7.246   0.526   5.757
  500DPPC   C2319597   7.283   0.496   5.611
  500DPPC   C2419598   7.201   0.584   5.516
  500DPPC   C2519599   7.236   0.555   5.370
  500DPPC   C2619600   7.152   0.642   5.277
  500DPPC   C2719601   7.184   0.615   5.130
  500DPPC   C2819602   7.096   0.702   5.039
  500DPPC   C2919603   7.121   0.670   4.892
  500DPPC   C3019604   7.029   0.754   4.803
  500DPPC   C3119605   7.050   0.720   4.655
  500DPPC   C3219606   7.793   0.146   6.395
  500DPPC  OS3319607   7.915   0.195   6.453
  500DPPC   C3419608   8.013   0.225   6.363
  500DPPC   O3519609   8.108   0.297   6.393
  500DPPC   C3619610   7.979   0.177   6.223
  500DPPC   C3719611   8.078   0.236   6.122
  500DPPC   C3819612   8.042   0.196   5.979
  500DPPC   C3919613   8.137   0.264   5.880
  500DPPC   C4019614   8.092   0.239   5.736
  500DPPC   C4119615   8.177   0.322   5.640
  500DPPC   C4219616   8.130   0.306   5.496
  500DPPC   C4319617   8.209   0.401   5.405
  500DPPC   C4419618   8.172   0.383   5.258
  500DPPC   C4519619   8.253   0.479   5.171
  500DPPC   C4619620   8.228   0.453   5.023
  500DPPC   C4719621   8.308   0.549   4.935
  500DPPC   C4819622   8.286   0.516   4.788
  500DPPC   C4919623   8.363   0.613   4.698
  500DPPC   C5019624   8.303   0.753   4.706
  501DPPC    C119625   7.049   0.392   6.605
  501DPPC    C219626   7.100   0.501   6.813
  501DPPC    C319627   7.193   0.581   6.610
  501DPPC    N419628   7.073   0.522   6.670
  501DPPC    C519629   6.961   0.616   6.649
  501DPPC    C619630   6.815   0.578   6.686
  501DPPC   OS719631   6.720   0.682   6.660
  501DPPC    P819632   6.570   0.632   6.668
  501DPPC   OM919633   6.500   0.753   6.714
  501DPPC  OM1019634   6.563   0.504   6.738
  501DPPC  OS1119635   6.559   0.611   6.512
  501DPPC   C1219636   6.474   0.706   6.447
  501DPPC   C1319637   6.490   0.716   6.294
  501DPPC  OS1419638   6.439   0.602   6.218
  501DPPC   C1519639   6.310   0.608   6.176
  501DPPC   O1619640   6.225   0.677   6.233
  501DPPC   C1719641   6.277   0.492   6.084
  501DPPC   C1819642   6.327   0.515   5.941
  501DPPC   C1919643   6.235   0.607   5.861
  501DPPC   C2019644   6.274   0.603   5.713
  501DPPC   C2119645   6.170   0.674   5.626
  501DPPC   C2219646   6.195   0.647   5.478
  501DPPC   C2319647   6.084   0.709   5.393
  501DPPC   C2419648   6.100   0.675   5.244
  501DPPC   C2519649   5.988   0.742   5.165
  501DPPC   C2619650   5.995   0.713   5.014
  501DPPC   C2719651   5.967   0.566   4.985
  501DPPC   C2819652   5.948   0.542   4.835
  501DPPC   C2919653   6.078   0.565   4.757
  501DPPC   C3019654   6.054   0.540   4.607
  501DPPC   C3119655   6.181   0.563   4.526
  501DPPC   C3219656   6.639   0.749   6.272
  501DPPC  OS3319657   6.689   0.749   6.137
  501DPPC   C3419658   6.747   0.634   6.092
  501DPPC   O3519659   6.783   0.541   6.165
  501DPPC   C3619660   6.796   0.653   5.949
  501DPPC   C3719661   6.712   0.574   5.849
  501DPPC   C3819662   6.757   0.605   5.706
  501DPPC   C3919663   6.734   0.754   5.676
  501DPPC   C4019664   6.776   0.791   5.533
  501DPPC   C4119665   6.680   0.730   5.431
  501DPPC   C4219666   6.717   0.776   5.289
  501DPPC   C4319667   6.622   0.714   5.186
  501DPPC   C4419668   6.660   0.757   5.044
  501DPPC   C4519669   6.575   0.683   4.942
  501DPPC   C4619670   6.616   0.719   4.799
  501DPPC   C4719671   6.538   0.635   4.698
  501DPPC   C4819672   6.579   0.668   4.554
  501DPPC   C4919673   6.533   0.809   4.516
  501DPPC   C5019674   6.565   0.838   4.369
  502DPPC    C119675   6.226   1.402   6.913
  502DPPC    C219676   6.127   1.419   6.695
  502DPPC    C319677   5.996   1.354   6.883
  502DPPC    N419678   6.128   1.342   6.821
  502DPPC    C519679   6.154   1.198   6.800
  502DPPC    C619680   6.287   1.148   6.740
  502DPPC   OS719681   6.299   1.172   6.600
  502DPPC    P819682   6.440   1.132   6.543
  502DPPC   OM919683   6.536   1.099   6.649
  502DPPC  OM1019684   6.416   1.043   6.428
  502DPPC  OS1119685   6.482   1.277   6.501
  502DPPC   C1219686   6.435   1.309   6.371
  502DPPC   C1319687   6.509   1.427   6.306
  502DPPC  OS1419688   6.443   1.477   6.187
  502DPPC   C1519689   6.448   1.611   6.164
  502DPPC   O1619690   6.539   1.683   6.208
  502DPPC   C1719691   6.353   1.647   6.051
  502DPPC   C1819692   6.375   1.553   5.932
  502DPPC   C1919693   6.276   1.582   5.820
  502DPPC   C2019694   6.312   1.501   5.696
  502DPPC   C2119695   6.218   1.532   5.579
  502DPPC   C2219696   6.272   1.469   5.451
  502DPPC   C2319697   6.185   1.504   5.330
  502DPPC   C2419698   6.256   1.463   5.202
  502DPPC   C2519699   6.180   1.505   5.076
  502DPPC   C2619700   6.273   1.493   4.956
  502DPPC   C2719701   6.213   1.547   4.826
  502DPPC   C2819702   6.116   1.447   4.762
  502DPPC   C2919703   6.078   1.495   4.622
  502DPPC   C3019704   5.993   1.392   4.549
  502DPPC   C3119705   5.961   1.439   4.407
  502DPPC   C3219706   6.657   1.385   6.290
  502DPPC  OS3319707   6.683   1.251   6.244
  502DPPC   C3419708   6.759   1.239   6.132
  502DPPC   O3519709   6.812   1.333   6.072
  502DPPC   C3619710   6.775   1.093   6.094
  502DPPC   C3719711   6.694   1.059   5.969
  502DPPC   C3819712   6.544   1.061   5.997
  502DPPC   C3919713   6.466   1.002   5.880
  502DPPC   C4019714   6.480   1.087   5.754
  502DPPC   C4119715   6.414   1.016   5.636
  502DPPC   C4219716   6.425   1.096   5.506
  502DPPC   C4319717   6.364   1.016   5.391
  502DPPC   C4419718   6.373   1.091   5.258
  502DPPC   C4519719   6.313   1.006   5.147
  502DPPC   C4619720   6.315   1.078   5.012
  502DPPC   C4719721   6.253   0.988   4.904
  502DPPC   C4819722   6.247   1.058   4.768
  502DPPC   C4919723   6.179   0.967   4.666
  502DPPC   C5019724   6.169   1.034   4.529
  503DPPC    C119725   7.788   1.427   7.122
  503DPPC    C219726   8.005   1.371   7.045
  503DPPC    C319727   7.812   1.288   6.931
  503DPPC    N419728   7.869   1.404   7.002
  503DPPC    C519729   7.865   1.526   6.918
  503DPPC    C619730   7.944   1.529   6.785
  503DPPC   OS719731   7.928   1.649   6.710
  503DPPC    P819732   8.021   1.653   6.584
  503DPPC   OM919733   8.019   1.789   6.526
  503DPPC  OM1019734   8.149   1.587   6.617
  503DPPC  OS1119735   7.937   1.558   6.492
  503DPPC   C1219736   8.013   1.502   6.386
  503DPPC   C1319737   7.930   1.402   6.304
  503DPPC  OS1419738   8.007   1.321   6.211
  503DPPC   C1519739   7.970   1.191   6.195
  503DPPC   O1619740   7.910   1.127   6.282
  503DPPC   C1719741   8.034   1.131   6.071
  503DPPC   C1819742   8.023   1.228   5.953
  503DPPC   C1919743   8.063   1.164   5.820
  503DPPC   C2019744   8.056   1.267   5.708
  503DPPC   C2119745   8.088   1.208   5.571
  503DPPC   C2219746   8.082   1.320   5.466
  503DPPC   C2319747   8.114   1.273   5.324
  503DPPC   C2419748   8.001   1.188   5.267
  503DPPC   C2519749   8.022   1.163   5.118
  503DPPC   C2619750   8.149   1.080   5.091
  503DPPC   C2719751   8.159   1.045   4.942
  503DPPC   C2819752   8.178   1.170   4.856
  503DPPC   C2919753   8.176   1.135   4.707
  503DPPC   C3019754   8.197   1.258   4.620
  503DPPC   C3119755   8.339   1.312   4.633
  503DPPC   C3219756   7.817   1.484   6.240
  503DPPC  OS3319757   7.858   1.584   6.145
  503DPPC   C3419758   7.762   1.671   6.105
  503DPPC   O3519759   7.646   1.670   6.147
  503DPPC   C3619760   7.814   1.763   5.995
  503DPPC   C3719761   7.857   1.680   5.874
  503DPPC   C3819762   7.876   1.766   5.749
  503DPPC   C3919763   7.901   1.678   5.627
  503DPPC   C4019764   7.900   1.757   5.497
  503DPPC   C4119765   7.922   1.662   5.379
  503DPPC   C4219766   7.916   1.732   5.243
  503DPPC   C4319767   7.943   1.629   5.133
  503DPPC   C4419768   7.941   1.691   4.993
  503DPPC   C4519769   7.979   1.586   4.888
  503DPPC   C4619770   7.868   1.484   4.865
  503DPPC   C4719771   7.761   1.539   4.770
  503DPPC   C4819772   7.818   1.555   4.629
  503DPPC   C4919773   7.712   1.608   4.532
  503DPPC   C5019774   7.770   1.626   4.392
  504DPPC    C119775   7.347   1.814   6.538
  504DPPC    C219776   7.490   2.004   6.536
  504DPPC    C319777   7.499   1.851   6.356
  504DPPC    N419778   7.482   1.861   6.502
  504DPPC    C519779   7.590   1.791   6.575
  504DPPC    C619780   7.612   1.639   6.557
  504DPPC   OS719781   7.507   1.556   6.608
  504DPPC    P819782   7.547   1.403   6.603
  504DPPC   OM919783   7.572   1.362   6.741
  504DPPC  OM1019784   7.647   1.379   6.499
  504DPPC  OS1119785   7.406   1.343   6.564
  504DPPC   C1219786   7.411   1.276   6.438
  504DPPC   C1319787   7.286   1.193   6.403
  504DPPC  OS1419788   7.305   1.106   6.287
  504DPPC   C1519789   7.239   0.987   6.291
  504DPPC   O1619790   7.165   0.955   6.386
  504DPPC   C1719791   7.255   0.909   6.162
  504DPPC   C1819792   7.158   0.963   6.057
  504DPPC   C1919793   7.190   0.914   5.915
  504DPPC   C2019794   7.095   0.977   5.814
  504DPPC   C2119795   7.135   0.944   5.670
  504DPPC   C2219796   7.268   1.010   5.635
  504DPPC   C2319797   7.309   0.986   5.490
  504DPPC   C2419798   7.217   1.058   5.391
  504DPPC   C2519799   7.268   1.044   5.248
  504DPPC   C2619800   7.177   1.113   5.148
  504DPPC   C2719801   7.233   1.102   5.006
  504DPPC   C2819802   7.139   1.168   4.904
  504DPPC   C2919803   7.198   1.160   4.763
  504DPPC   C3019804   7.104   1.223   4.660
  504DPPC   C3119805   6.978   1.139   4.641
  504DPPC   C3219806   7.170   1.294   6.391
  504DPPC  OS3319807   7.190   1.396   6.291
  504DPPC   C3419808   7.089   1.486   6.276
  504DPPC   O3519809   6.994   1.495   6.354
  504DPPC   C3619810   7.122   1.581   6.162
  504DPPC   C3719811   7.099   1.727   6.200
  504DPPC   C3819812   7.160   1.817   6.093
  504DPPC   C3919813   7.088   1.798   5.959
  504DPPC   C4019814   7.159   1.872   5.846
  504DPPC   C4119815   7.081   1.856   5.715
  504DPPC   C4219816   7.155   1.921   5.598
  504DPPC   C4319817   7.073   1.909   5.470
  504DPPC   C4419818   7.148   1.966   5.350
  504DPPC   C4519819   7.062   1.955   5.224
  504DPPC   C4619820   7.137   2.008   5.101
  504DPPC   C4719821   7.050   1.998   4.976
  504DPPC   C4819822   7.125   2.054   4.854
  504DPPC   C4919823   7.036   2.051   4.730
  504DPPC   C5019824   7.111   2.108   4.609
  505DPPC    C119825   9.479   0.592   6.672
  505DPPC    C219826   9.635   0.538   6.502
  505DPPC    C319827   9.619   0.763   6.584
  505DPPC    N419828   9.614   0.621   6.621
  505DPPC    C519829   9.711   0.589   6.728
  505DPPC    C619830   9.862   0.615   6.706
  505DPPC   OS719831   9.922   0.538   6.603
  505DPPC    P819832  10.070   0.581   6.579
  505DPPC   OM919833  10.064   0.713   6.514
  505DPPC  OM1019834  10.138   0.566   6.708
  505DPPC  OS1119835  10.115   0.467   6.482
  505DPPC   C1219836  10.065   0.486   6.350
  505DPPC   C1319837  10.065   0.357   6.265
  505DPPC  OS1419838  10.078   0.382   6.122
  505DPPC   C1519839  10.144   0.288   6.049
  505DPPC   O1619840   0.030   0.184   6.099
  505DPPC   C1719841  10.148   0.321   5.901
  505DPPC   C1819842   0.067   0.211   5.826
  505DPPC   C1919843   0.065   0.234   5.675
  505DPPC   C2019844  10.081   0.223   5.619
  505DPPC   C2119845  10.082   0.218   5.466
  505DPPC   C2219846  10.126   0.352   5.407
  505DPPC   C2319847  10.127   0.345   5.254
  505DPPC   C2419848   0.084   0.256   5.205
  505DPPC   C2519849   0.082   0.243   5.053
  505DPPC   C2619850  10.117   0.165   5.007
  505DPPC   C2719851  10.121   0.138   4.857
  505DPPC   C2819852  10.003   0.050   4.815
  505DPPC   C2919853  10.012   0.012   4.667
  505DPPC   C3019854   9.893  10.427   4.627
  505DPPC   C3119855   9.898  10.393   4.478
  505DPPC   C3219856   9.941   0.278   6.311
  505DPPC  OS3319857   9.814   0.341   6.285
  505DPPC   C3419858   9.754   0.312   6.166
  505DPPC   O3519859   9.769   0.205   6.106
  505DPPC   C3619860   9.635   0.405   6.146
  505DPPC   C3719861   9.571   0.388   6.008
  505DPPC   C3819862   9.655   0.454   5.898
  505DPPC   C3919863   9.593   0.426   5.761
  505DPPC   C4019864   9.679   0.482   5.647
  505DPPC   C4119865   9.628   0.429   5.513
  505DPPC   C4219866   9.711   0.481   5.395
  505DPPC   C4319867   9.669   0.412   5.266
  505DPPC   C4419868   9.740   0.474   5.145
  505DPPC   C4519869   9.703   0.402   5.015
  505DPPC   C4619870   9.764   0.478   4.897
  505DPPC   C4719871   9.738   0.411   4.762
  505DPPC   C4819872   9.792   0.501   4.650
  505DPPC   C4919873   9.771   0.439   4.511
  505DPPC   C5019874   9.866   0.321   4.490
  506DPPC    C119875   3.072   1.776   6.290
  506DPPC    C219876   3.231   1.639   6.407
  506DPPC    C319877   3.087   1.787   6.525
  506DPPC    N419878   3.165   1.771   6.402
  506DPPC    C519879   3.262   1.883   6.394
  506DPPC    C619880   3.358   1.887   6.273
  506DPPC   OS719881   3.439   2.004   6.262
  506DPPC    P819882   3.586   1.970   6.217
  506DPPC   OM919883   3.628   1.850   6.291
  506DPPC  OM1019884   3.665   2.094   6.223
  506DPPC  OS1119885   3.555   1.935   6.067
  506DPPC   C1219886   3.653   1.844   6.016
  506DPPC   C1319887   3.618   1.784   5.879
  506DPPC  OS1419888   3.711   1.680   5.840
  506DPPC   C1519889   3.671   1.551   5.853
  506DPPC   O1619890   3.589   1.514   5.938
  506DPPC   C1719891   3.771   1.457   5.786
  506DPPC   C1819892   3.723   1.417   5.647
  506DPPC   C1919893   3.760   1.519   5.540
  506DPPC   C2019894   3.696   1.479   5.407
  506DPPC   C2119895   3.750   1.559   5.288
  506DPPC   C2219896   3.671   1.522   5.163
  506DPPC   C2319897   3.738   1.571   5.035
  506DPPC   C2419898   3.651   1.534   4.915
  506DPPC   C2519899   3.728   1.545   4.783
  506DPPC   C2619900   3.640   1.499   4.667
  506DPPC   C2719901   3.723   1.475   4.541
  506DPPC   C2819902   3.782   1.605   4.485
  506DPPC   C2919903   3.874   1.572   4.367
  506DPPC   C3019904   3.794   1.509   4.253
  506DPPC   C3119905   3.887   1.468   4.138
  506DPPC   C3219906   3.607   1.903   5.782
  506DPPC  OS3319907   3.574   1.870   5.645
  506DPPC   C3419908   3.572   1.974   5.558
  506DPPC   O3519909   3.567   2.093   5.592
  506DPPC   C3619910   3.553   1.922   5.417
  506DPPC   C3719911   3.531   2.033   5.315
  506DPPC   C3819912   3.497   1.976   5.177
  506DPPC   C3919913   3.466   2.090   5.079
  506DPPC   C4019914   3.415   2.041   4.944
  506DPPC   C4119915   3.368   2.163   4.864
  506DPPC   C4219916   3.290   2.129   4.737
  506DPPC   C4319917   3.378   2.087   4.620
  506DPPC   C4419918   3.293   2.078   4.493
  506DPPC   C4519919   3.243   2.217   4.453
  506DPPC   C4619920   3.139   2.211   4.340
  506DPPC   C4719921   3.199   2.163   4.208
  506DPPC   C4819922   3.092   2.162   4.099
  506DPPC   C4919923   3.149   2.114   3.965
  506DPPC   C5019924   3.186   1.966   3.971
  507DPPC    C119925   4.926   0.088   6.446
  507DPPC    C219926   4.947   0.237   6.633
  507DPPC    C319927   5.069   0.033   6.626
  507DPPC    N419928   5.019   0.145   6.544
  507DPPC    C519929   5.136   0.208   6.477
  507DPPC    C619930   5.119   0.337   6.393
  507DPPC   OS719931   5.100   0.457   6.469
  507DPPC    P819932   5.100   0.584   6.375
  507DPPC   OM919933   5.037   0.550   6.247
  507DPPC  OM1019934   5.053   0.697   6.457
  507DPPC  OS1119935   5.256   0.594   6.361
  507DPPC   C1219936   5.301   0.618   6.228
  507DPPC   C1319937   5.454   0.613   6.216
  507DPPC  OS1419938   5.499   0.669   6.089
  507DPPC   C1519939   5.631   0.698   6.072
  507DPPC   O1619940   5.717   0.685   6.159
  507DPPC   C1719941   5.656   0.745   5.929
  507DPPC   C1819942   5.796   0.708   5.882
  507DPPC   C1919943   5.798   0.698   5.729
  507DPPC   C2019944   5.713   0.578   5.686
  507DPPC   C2119945   5.717   0.555   5.535
  507DPPC   C2219946   5.638   0.658   5.455
  507DPPC   C2319947   5.637   0.615   5.308
  507DPPC   C2419948   5.554   0.704   5.217
  507DPPC   C2519949   5.561   0.647   5.075
  507DPPC   C2619950   5.479   0.726   4.973
  507DPPC   C2719951   5.492   0.657   4.837
  507DPPC   C2819952   5.410   0.727   4.728
  507DPPC   C2919953   5.422   0.651   4.596
  507DPPC   C3019954   5.339   0.717   4.485
  507DPPC   C3119955   5.352   0.638   4.354
  507DPPC   C3219956   5.493   0.467   6.244
  507DPPC  OS3319957   5.443   0.372   6.148
  507DPPC   C3419958   5.498   0.248   6.153
  507DPPC   O3519959   5.552   0.200   6.253
  507DPPC   C3619960   5.454   0.166   6.033
  507DPPC   C3719961   5.490   0.235   5.902
  507DPPC   C3819962   5.436   0.156   5.782
  507DPPC   C3919963   5.466   0.230   5.651
  507DPPC   C4019964   5.401   0.160   5.531
  507DPPC   C4119965   5.412   0.250   5.408
  507DPPC   C4219966   5.337   0.192   5.288
  507DPPC   C4319967   5.326   0.299   5.179
  507DPPC   C4419968   5.248   0.250   5.056
  507DPPC   C4519969   5.226   0.366   4.959
  507DPPC   C4619970   5.153   0.323   4.832
  507DPPC   C4719971   5.244   0.240   4.743
  507DPPC   C4819972   5.174   0.199   4.613
  507DPPC   C4919973   5.144   0.321   4.525
  507DPPC   C5019974   5.075   0.278   4.395
  508DPPC    C119975   4.699  10.451   5.934
  508DPPC    C219976   4.792  10.237   5.877
  508DPPC    C319977   4.591  10.253   6.002
  508DPPC    N419978   4.723  10.314   5.981
  508DPPC    C519979   4.797  10.313   6.109
  508DPPC    C619980   4.942  10.368   6.116
  508DPPC   OS719981   4.955   0.006   6.095
  508DPPC    P819982   5.108   0.042   6.078
  508DPPC   OM919983   5.144  10.473   5.955
  508DPPC  OM1019984   5.165   0.012   6.210
  508DPPC  OS1119985   5.086   0.195   6.057
  508DPPC   C1219986   5.051   0.227   5.923
  508DPPC   C1319987   4.956   0.348   5.911
  508DPPC  OS1419988   4.873   0.341   5.793
  508DPPC   C1519989   4.740   0.321   5.811
  508DPPC   O1619990   4.691   0.289   5.920
  508DPPC   C1719991   4.668   0.312   5.677
  508DPPC   C1819992   4.553   0.412   5.667
  508DPPC   C1919993   4.480   0.396   5.534
  508DPPC   C2019994   4.574   0.426   5.417
  508DPPC   C2119995   4.502   0.405   5.283
  508DPPC   C2219996   4.598   0.421   5.165
  508DPPC   C2319997   4.525   0.392   5.034
  508DPPC   C2419998   4.621   0.390   4.915
  508DPPC   C2519999   4.545   0.350   4.788
  508DPPC   C2620000   4.639   0.337   4.668
  508DPPC   C2720001   4.560   0.289   4.546
  508DPPC   C2820002   4.651   0.271   4.423
  508DPPC   C2920003   4.569   0.222   4.304
  508DPPC   C3020004   4.657   0.205   4.180
  508DPPC   C3120005   4.575   0.153   4.062
  508DPPC   C3220006   5.038   0.476   5.937
  508DPPC  OS3320007   5.148   0.498   5.847
  508DPPC   C3420008   5.200   0.623   5.848
  508DPPC   O3520009   5.162   0.716   5.920
  508DPPC   C3620010   5.313   0.636   5.746
  508DPPC   C3720011   5.277   0.573   5.611
  508DPPC   C3820012   5.169   0.652   5.537
  508DPPC   C3920013   5.153   0.600   5.394
  508DPPC   C4020014   5.037   0.670   5.322
  508DPPC   C4120015   5.033   0.633   5.174
  508DPPC   C4220016   4.908   0.691   5.108
  508DPPC   C4320017   4.904   0.664   4.957
  508DPPC   C4420018   5.003   0.753   4.882
  508DPPC   C4520019   4.992   0.733   4.731
  508DPPC   C4620020   4.853   0.772   4.681
  508DPPC   C4720021   4.846   0.774   4.528
  508DPPC   C4820022   4.870   0.636   4.467
  508DPPC   C4920023   4.859   0.641   4.315
  508DPPC   C5020024   4.970   0.727   4.254
  509DPPC    C120025   4.741   0.695   6.314
  509DPPC    C220026   4.540   0.777   6.216
  509DPPC    C320027   4.628   0.563   6.153
  509DPPC    N420028   4.608   0.657   6.265
  509DPPC    C520029   4.536   0.594   6.378
  509DPPC    C620030   4.394   0.536   6.362
  509DPPC   OS720031   4.293   0.634   6.338
  509DPPC    P820032   4.150   0.574   6.358
  509DPPC   OM920033   4.118   0.498   6.237
  509DPPC  OM1020034   4.147   0.513   6.492
  509DPPC  OS1120035   4.068   0.707   6.364
  509DPPC   C1220036   4.051   0.765   6.235
  509DPPC   C1320037   3.997   0.909   6.240
  509DPPC  OS1420038   3.934   0.950   6.115
  509DPPC   C1520039   3.814   1.015   6.123
  509DPPC   O1620040   3.744   1.013   6.225
  509DPPC   C1720041   3.761   1.047   5.984
  509DPPC   C1820042   3.869   1.036   5.876
  509DPPC   C1920043   3.805   1.042   5.737
  509DPPC   C2020044   3.910   1.047   5.626
  509DPPC   C2120045   3.843   1.053   5.489
  509DPPC   C2220046   3.947   1.079   5.379
  509DPPC   C2320047   3.882   1.084   5.241
  509DPPC   C2420048   3.984   1.123   5.135
  509DPPC   C2520049   3.922   1.124   4.995
  509DPPC   C2620050   4.023   1.172   4.891
  509DPPC   C2720051   3.964   1.168   4.750
  509DPPC   C2820052   3.946   1.024   4.703
  509DPPC   C2920053   3.889   1.019   4.561
  509DPPC   C3020054   3.745   1.070   4.558
  509DPPC   C3120055   3.688   1.066   4.416
  509DPPC   C3220056   4.113   0.995   6.293
  509DPPC  OS3320057   4.232   1.000   6.210
  509DPPC   C3420058   4.263   1.121   6.156
  509DPPC   O3520059   4.214   1.228   6.192
  509DPPC   C3620060   4.385   1.107   6.068
  509DPPC   C3720061   4.372   1.186   5.937
  509DPPC   C3820062   4.265   1.124   5.847
  509DPPC   C3920063   4.278   1.173   5.703
  509DPPC   C4020064   4.250   1.322   5.688
  509DPPC   C4120065   4.278   1.367   5.544
  509DPPC   C4220066   4.266   1.518   5.532
  509DPPC   C4320067   4.314   1.570   5.396
  509DPPC   C4420068   4.217   1.536   5.283
  509DPPC   C4520069   4.271   1.592   5.151
  509DPPC   C4620070   4.174   1.573   5.035
  509DPPC   C4720071   4.235   1.629   4.906
  509DPPC   C4820072   4.136   1.622   4.790
  509DPPC   C4920073   4.199   1.674   4.661
  509DPPC   C5020074   4.234   1.823   4.672
  510DPPC    C120075   9.577   2.192   6.556
  510DPPC    C220076   9.523   2.277   6.342
  510DPPC    C320077   9.646   2.411   6.498
  510DPPC    N420078   9.538   2.313   6.483
  510DPPC    C520079   9.411   2.363   6.542
  510DPPC    C620080   9.342   2.489   6.483
  510DPPC   OS720081   9.229   2.530   6.559
  510DPPC    P820082   9.149   2.647   6.491
  510DPPC   OM920083   9.246   2.741   6.433
  510DPPC  OM1020084   9.049   2.691   6.590
  510DPPC  OS1120085   9.075   2.565   6.380
  510DPPC   C1220086   8.965   2.490   6.432
  510DPPC   C1320087   8.877   2.422   6.326
  510DPPC  OS1420088   8.933   2.296   6.280
  510DPPC   C1520089   8.852   2.189   6.303
  510DPPC   O1620090   8.744   2.200   6.361
  510DPPC   C1720091   8.914   2.058   6.255
  510DPPC   C1820092   8.805   1.960   6.210
  510DPPC   C1920093   8.748   1.999   6.074
  510DPPC   C2020094   8.848   1.974   5.961
  510DPPC   C2120095   8.787   2.013   5.826
  510DPPC   C2220096   8.877   1.975   5.709
  510DPPC   C2320097   8.809   2.015   5.578
  510DPPC   C2420098   8.891   1.973   5.456
  510DPPC   C2520099   8.819   2.017   5.327
  510DPPC   C2620100   8.898   1.974   5.203
  510DPPC   C2720101   8.830   2.023   5.076
  510DPPC   C2820102   8.911   1.982   4.953
  510DPPC   C2920103   8.851   2.038   4.824
  510DPPC   C3020104   8.935   1.995   4.704
  510DPPC   C3120105   8.884   2.059   4.575
  510DPPC   C3220106   8.848   2.530   6.220
  510DPPC  OS3320107   8.756   2.497   6.113
  510DPPC   C3420108   8.626   2.531   6.130
  510DPPC   O3520109   8.583   2.599   6.223
  510DPPC   C3620110   8.544   2.488   6.008
  510DPPC   C3720111   8.558   2.337   5.985
  510DPPC   C3820112   8.480   2.291   5.862
  510DPPC   C3920113   8.545   2.338   5.732
  510DPPC   C4020114   8.469   2.282   5.611
  510DPPC   C4120115   8.534   2.324   5.479
  510DPPC   C4220116   8.457   2.266   5.360
  510DPPC   C4320117   8.517   2.309   5.226
  510DPPC   C4420118   8.439   2.243   5.112
  510DPPC   C4520119   8.494   2.279   4.974
  510DPPC   C4620120   8.417   2.201   4.867
  510DPPC   C4720121   8.462   2.235   4.725
  510DPPC   C4820122   8.425   2.380   4.690
  510DPPC   C4920123   8.457   2.411   4.544
  510DPPC   C5020124   8.362   2.337   4.450
  511DPPC    C120125   6.186   1.000   6.220
  511DPPC    C220126   5.987   0.875   6.199
  511DPPC    C320127   6.082   0.908   6.415
  511DPPC    N420128   6.058   0.971   6.284
  511DPPC    C520129   5.972   1.091   6.296
  511DPPC    C620130   6.026   1.212   6.377
  511DPPC   OS720131   5.950   1.331   6.360
  511DPPC    P820132   6.036   1.438   6.284
  511DPPC   OM920133   6.140   1.476   6.381
  511DPPC  OM1020134   6.067   1.374   6.155
  511DPPC  OS1120135   5.927   1.550   6.270
  511DPPC   C1220136   5.844   1.534   6.154
  511DPPC   C1320137   5.746   1.651   6.136
  511DPPC  OS1420138   5.650   1.632   6.028
  511DPPC   C1520139   5.533   1.565   6.049
  511DPPC   O1620140   5.510   1.500   6.151
  511DPPC   C1720141   5.445   1.569   5.926
  511DPPC   C1820142   5.528   1.557   5.798
  511DPPC   C1920143   5.440   1.559   5.673
  511DPPC   C2020144   5.375   1.697   5.655
  511DPPC   C2120145   5.279   1.700   5.536
  511DPPC   C2220146   5.351   1.687   5.402
  511DPPC   C2320147   5.249   1.697   5.288
  511DPPC   C2420148   5.314   1.687   5.150
  511DPPC   C2520149   5.206   1.701   5.042
  511DPPC   C2620150   5.263   1.694   4.900
  511DPPC   C2720151   5.314   1.553   4.869
  511DPPC   C2820152   5.351   1.541   4.721
  511DPPC   C2920153   5.226   1.549   4.633
  511DPPC   C3020154   5.261   1.531   4.485
  511DPPC   C3120155   5.137   1.540   4.397
  511DPPC   C3220156   5.834   1.776   6.119
  511DPPC  OS3320157   5.907   1.782   5.994
  511DPPC   C3420158   5.990   1.888   5.974
  511DPPC   O3520159   6.060   1.939   6.061
  511DPPC   C3620160   6.021   1.896   5.825
  511DPPC   C3720161   5.906   1.839   5.742
  511DPPC   C3820162   5.921   1.876   5.595
  511DPPC   C3920163   5.804   1.821   5.512
  511DPPC   C4020164   5.809   1.878   5.370
  511DPPC   C4120165   5.934   1.832   5.297
  511DPPC   C4220166   5.898   1.743   5.178
  511DPPC   C4320167   5.834   1.824   5.065
  511DPPC   C4420168   5.806   1.734   4.945
  511DPPC   C4520169   5.749   1.814   4.828
  511DPPC   C4620170   5.724   1.722   4.708
  511DPPC   C4720171   5.673   1.803   4.588
  511DPPC   C4820172   5.647   1.712   4.468
  511DPPC   C4920173   5.601   1.794   4.347
  511DPPC   C5020174   5.465   1.859   4.374
  512DPPC    C120175   0.207   0.996   6.803
  512DPPC    C220176   0.002   0.875   6.814
  512DPPC    C320177   0.052   1.003   6.622
  512DPPC    N420178   0.064   1.000   6.768
  512DPPC    C520179  10.150   1.112   6.833
  512DPPC    C620180   0.042   1.258   6.815
  512DPPC   OS720181   0.038   1.310   6.682
  512DPPC    P820182  10.084   1.420   6.670
  512DPPC   OM920183  10.108   1.520   6.774
  512DPPC  OM1020184   9.956   1.348   6.661
  512DPPC  OS1120185  10.125   1.484   6.532
  512DPPC   C1220186  10.072   1.413   6.420
  512DPPC   C1320187  10.053   1.504   6.297
  512DPPC  OS1420188   9.981   1.441   6.187
  512DPPC   C1520189   9.846   1.458   6.182
  512DPPC   O1620190   9.778   1.473   6.284
  512DPPC   C1720191   9.792   1.422   6.045
  512DPPC   C1820192   9.835   1.526   5.941
  512DPPC   C1920193   9.793   1.486   5.800
  512DPPC   C2020194   9.845   1.586   5.697
  512DPPC   C2120195   9.816   1.536   5.555
  512DPPC   C2220196   9.666   1.532   5.530
  512DPPC   C2320197   9.634   1.472   5.393
  512DPPC   C2420198   9.694   1.555   5.280
  512DPPC   C2520199   9.642   1.505   5.144
  512DPPC   C2620200   9.682   1.360   5.121
  512DPPC   C2720201   9.624   1.309   4.989
  512DPPC   C2820202   9.690   1.377   4.869
  512DPPC   C2920203   9.633   1.322   4.738
  512DPPC   C3020204   9.703   1.385   4.618
  512DPPC   C3120205   9.645   1.330   4.487
  512DPPC   C3220206   0.035   1.557   6.258
  512DPPC  OS3320207   0.034   1.659   6.156
  512DPPC   C3420208   0.074   1.614   6.033
  512DPPC   O3520209   0.129   1.506   6.015
  512DPPC   C3620210   0.055   1.718   5.924
  512DPPC   C3720211   0.109   1.662   5.792
  512DPPC   C3820212   0.068   1.744   5.669
  512DPPC   C3920213   0.125   1.676   5.544
  512DPPC   C4020214   0.073   1.735   5.413
  512DPPC   C4120215   0.134   1.658   5.296
  512DPPC   C4220216   0.074   1.695   5.160
  512DPPC   C4320217  10.084   1.655   5.154
  512DPPC   C4420218  10.031   1.653   5.010
  512DPPC   C4520219  10.042   1.791   4.944
  512DPPC   C4620220   9.974   1.792   4.807
  512DPPC   C4720221  10.045   1.699   4.709
  512DPPC   C4820222   9.979   1.704   4.571
  512DPPC   C4920223  10.052   1.612   4.473
  512DPPC   C5020224   9.989   1.620   4.333
  513SOL     OW20225   5.572   4.553   7.090
  513SOL    HW120226   5.615   4.613   7.023
  513SOL    HW220227   5.547   4.607   7.171
  514SOL     OW20228   4.026   8.938   8.227
  514SOL    HW120229   4.033   8.890   8.140
  514SOL    HW220230   4.086   8.894   8.294
  515SOL     OW20231   8.709   7.394   0.248
  515SOL    HW120232   8.746   7.486   0.255
  515SOL    HW220233   8.726   7.358   0.156
  516SOL     OW20234   3.457   1.235   0.382
  516SOL    HW120235   3.484   1.183   0.462
  516SOL    HW220236   3.369   1.202   0.348
  517SOL     OW20237   6.607   6.922   1.070
  517SOL    HW120238   6.519   6.946   1.112
  517SOL    HW220239   6.626   6.985   0.994
  518SOL     OW20240   0.653   1.224   0.767
  518SOL    HW120241   0.653   1.128   0.795
  518SOL    HW220242   0.599   1.234   0.684
  519SOL     OW20243   2.225   8.935   0.870
  519SOL    HW120244   2.140   8.882   0.874
  519SOL    HW220245   2.286   8.906   0.943
  520SOL     OW20246   6.424   3.091   6.949
  520SOL    HW120247   6.484   3.124   6.876
  520SOL    HW220248   6.401   2.995   6.931
  521SOL     OW20249   9.701   6.461   0.911
  521SOL    HW120250   9.740   6.409   0.836
  521SOL    HW220251   9.765   6.533   0.939
  522SOL     OW20252   2.637   8.031   1.487
  522SOL    HW120253   2.636   8.114   1.543
  522SOL    HW220254   2.639   7.951   1.546
  523SOL     OW20255   5.716   6.136   6.167
  523SOL    HW120256   5.754   6.224   6.138
  523SOL    HW220257   5.718   6.072   6.090
  524SOL     OW20258   3.289   4.595   0.687
  524SOL    HW120259   3.238   4.537   0.624
  524SOL    HW220260   3.376   4.551   0.710
  525SOL     OW20261   7.964   2.754   8.736
  525SOL    HW120262   7.958   2.839   0.006
  525SOL    HW220263   7.879   2.702   8.749
  526SOL     OW20264   7.496   7.783   0.216
  526SOL    HW120265   7.501   7.757   0.120
  526SOL    HW220266   7.586   7.818   0.246
  527SOL     OW20267   4.363   4.845   7.901
  527SOL    HW120268   4.329   4.757   7.933
  527SOL    HW220269   4.463   4.845   7.903
  528SOL     OW20270   0.447   0.274   1.644
  528SOL    HW120271   0.405   0.210   1.709
  528SOL    HW220272   0.543   0.252   1.633
  529SOL     OW20273   7.047   4.595   0.457
  529SOL    HW120274   7.007   4.649   0.383
  529SOL    HW220275   7.127   4.546   0.422
  530SOL     OW20276   3.435   4.414   7.761
  530SOL    HW120277   3.518   4.423   7.815
  530SOL    HW220278   3.454   4.360   7.678
  531SOL     OW20279   7.701   3.498   7.683
  531SOL    HW120280   7.693   3.480   7.585
  531SOL    HW220281   7.719   3.412   7.731
  532SOL     OW20282   6.521   7.003   7.056
  532SOL    HW120283   6.440   6.963   7.013
  532SOL    HW220284   6.499   7.028   7.150
  533SOL     OW20285   4.080   6.279   0.383
  533SOL    HW120286   4.002   6.333   0.416
  533SOL    HW220287   4.136   6.251   0.461
  534SOL     OW20288   2.824   9.601   1.669
  534SOL    HW120289   2.909   9.619   1.719
  534SOL    HW220290   2.834   9.516   1.616
  535SOL     OW20291   8.749   7.857   0.797
  535SOL    HW120292   8.800   7.865   0.882
  535SOL    HW220293   8.712   7.765   0.788
  536SOL     OW20294   1.410   4.610   8.671
  536SOL    HW120295   1.319   4.568   8.673
  536SOL    HW220296   1.424   4.662   8.755
  537SOL     OW20297   4.501   0.330   0.242
  537SOL    HW120298   4.477   0.400   0.309
  537SOL    HW220299   4.472   0.240   0.276
  538SOL     OW20300   6.049   8.134   0.515
  538SOL    HW120301   5.965   8.137   0.568
  538SOL    HW220302   6.116   8.077   0.563
  539SOL     OW20303   4.487   9.637   6.863
  539SOL    HW120304   4.528   9.612   6.951
  539SOL    HW220305   4.515   9.730   6.839
  540SOL     OW20306   6.867   8.126   7.097
  540SOL    HW120307   6.822   8.136   7.008
  540SOL    HW220308   6.903   8.215   7.126
  541SOL     OW20309   7.877   6.223   1.118
  541SOL    HW120310   7.970   6.230   1.080
  541SOL    HW220311   7.882   6.220   1.217
  542SOL     OW20312   8.184   8.429   2.519
  542SOL    HW120313   8.161   8.500   2.453
  542SOL    HW220314   8.229   8.471   2.598
  543SOL     OW20315   9.549   2.063   2.500
  543SOL    HW120316   9.583   2.034   2.411
  543SOL    HW220317   9.603   2.139   2.533
  544SOL     OW20318   0.582  10.116   6.761
  544SOL    HW120319   0.602  10.041   6.698
  544SOL    HW220320   0.617  10.094   6.851
  545SOL     OW20321   9.352   6.804   1.829
  545SOL    HW120322   9.306   6.741   1.891
  545SOL    HW220323   9.413   6.864   1.881
  546SOL     OW20324   4.832   3.169   7.081
  546SOL    HW120325   4.930   3.173   7.062
  546SOL    HW220326   4.785   3.243   7.032
  547SOL     OW20327   0.556   0.459   7.589
  547SOL    HW120328   0.470   0.486   7.632
  547SOL    HW220329   0.550   0.362   7.563
  548SOL     OW20330   2.309   6.865   6.690
  548SOL    HW120331   2.354   6.951   6.713
  548SOL    HW220332   2.257   6.876   6.605
  549SOL     OW20333   4.590   3.963   1.146
  549SOL    HW120334   4.506   4.001   1.106
  549SOL    HW220335   4.594   3.989   1.243
  550SOL     OW20336   7.874   2.587   7.798
  550SOL    HW120337   7.933   2.550   7.870
  550SOL    HW220338   7.929   2.641   7.734
  551SOL     OW20339   6.967  10.146   2.544
  551SOL    HW120340   6.879  10.181   2.511
  551SOL    HW220341   7.027  10.223   2.565
  552SOL     OW20342   7.513   9.062   0.627
  552SOL    HW120343   7.566   9.013   0.696
  552SOL    HW220344   7.416   9.051   0.645
  553SOL     OW20345   5.757   1.869   8.734
  553SOL    HW120346   5.670   1.874   8.685
  553SOL    HW220347   5.753   1.928   0.033
  554SOL     OW20348   3.193   7.684   0.039
  554SOL    HW120349   3.176   7.781   0.059
  554SOL    HW220350   3.270   7.677   8.757
  555SOL     OW20351   2.474  10.491   1.730
  555SOL    HW120352   2.534  10.460   1.803
  555SOL    HW220353   2.379  10.473   1.756
  556SOL     OW20354   5.085   1.548   1.626
  556SOL    HW120355   5.028   1.630   1.639
  556SOL    HW220356   5.134   1.528   1.711
  557SOL     OW20357   0.538   0.330   8.439
  557SOL    HW120358   0.460   0.339   8.378
  557SOL    HW220359   0.508   0.294   8.527
  558SOL     OW20360   3.208   9.643   0.078
  558SOL    HW120361   3.232   9.600   8.773
  558SOL    HW220362   3.198   9.572   0.148
  559SOL     OW20363   8.811   9.445   0.268
  559SOL    HW120364   8.722   9.446   0.221
  559SOL    HW220365   8.837   9.539   0.291
  560SOL     OW20366   1.619   7.586   7.205
  560SOL    HW120367   1.682   7.538   7.267
  560SOL    HW220368   1.667   7.607   7.119
  561SOL     OW20369   1.423   3.304   8.330
  561SOL    HW120370   1.500   3.336   8.275
  561SOL    HW220371   1.456   3.242   8.401
  562SOL     OW20372   3.462   6.434   8.281
  562SOL    HW120373   3.412   6.376   8.216
  562SOL    HW220374   3.401   6.462   8.355
  563SOL     OW20375   4.762   1.851   7.217
  563SOL    HW120376   4.780   1.866   7.314
  563SOL    HW220377   4.789   1.758   7.192
  564SOL     OW20378   1.863   1.090   8.634
  564SOL    HW120379   1.921   1.041   8.570
  564SOL    HW220380   1.903   1.085   8.726
  565SOL     OW20381   2.545   9.979   6.281
  565SOL    HW120382   2.524   9.906   6.216
  565SOL    HW220383   2.546  10.067   6.233
  566SOL     OW20384   6.824   1.942   7.575
  566SOL    HW120385   6.825   1.874   7.649
  566SOL    HW220386   6.855   1.899   7.490
  567SOL     OW20387   3.756   4.429   1.512
  567SOL    HW120388   3.803   4.516   1.499
  567SOL    HW220389   3.768   4.372   1.430
  568SOL     OW20390   8.220   8.230   1.395
  568SOL    HW120391   8.265   8.314   1.363
  568SOL    HW220392   8.227   8.160   1.324
  569SOL     OW20393   7.452   2.020   1.510
  569SOL    HW120394   7.464   2.116   1.486
  569SOL    HW220395   7.363   1.988   1.475
  570SOL     OW20396   3.456  10.115   7.144
  570SOL    HW120397   3.434  10.111   7.241
  570SOL    HW220398   3.490  10.206   7.120
  571SOL     OW20399   7.292   6.613   1.965
  571SOL    HW120400   7.390   6.619   1.979
  571SOL    HW220401   7.266   6.666   1.885
  572SOL     OW20402   9.878   6.091   1.612
  572SOL    HW120403   9.950   6.025   1.590
  572SOL    HW220404   9.919   6.180   1.631
  573SOL     OW20405   9.054   4.743   7.050
  573SOL    HW120406   9.091   4.655   7.080
  573SOL    HW220407   8.992   4.729   6.973
  574SOL     OW20408   7.493   6.101   6.619
  574SOL    HW120409   7.478   6.042   6.540
  574SOL    HW220410   7.574   6.157   6.605
  575SOL     OW20411   0.063   5.505   0.944
  575SOL    HW120412   0.154   5.533   0.913
  575SOL    HW220413  10.155   5.515   0.869
  576SOL     OW20414   4.339   5.939   0.574
  576SOL    HW120415   4.353   5.846   0.540
  576SOL    HW220416   4.320   5.937   0.672
  577SOL     OW20417   8.156   8.786   6.371
  577SOL    HW120418   8.232   8.825   6.320
  577SOL    HW220419   8.158   8.687   6.364
  578SOL     OW20420   9.906   5.891   7.338
  578SOL    HW120421   9.882   5.980   7.300
  578SOL    HW220422  10.005   5.879   7.336
  579SOL     OW20423   2.252   2.729   7.865
  579SOL    HW120424   2.259   2.643   7.815
  579SOL    HW220425   2.277   2.713   7.961
  580SOL     OW20426   0.269   5.941   7.409
  580SOL    HW120427   0.308   6.018   7.358
  580SOL    HW220428   0.179   5.919   7.372
  581SOL     OW20429  10.016   0.104   0.026
  581SOL    HW120430   9.975   0.058   0.105
  581SOL    HW220431   9.974   0.070   8.724
  582SOL     OW20432   9.100   0.556   0.787
  582SOL    HW120433   9.051   0.520   0.708
  582SOL    HW220434   9.057   0.641   0.818
  583SOL     OW20435   4.990  10.003   8.736
  583SOL    HW120436   5.068  10.056   8.770
  583SOL    HW220437   4.916  10.065   8.710
  584SOL     OW20438   3.286   3.855   7.593
  584SOL    HW120439   3.190   3.858   7.567
  584SOL    HW220440   3.294   3.811   7.683
  585SOL     OW20441   7.917   5.970   7.677
  585SOL    HW120442   7.987   5.922   7.731
  585SOL    HW220443   7.942   6.066   7.667
  586SOL     OW20444   2.770   1.476   8.513
  586SOL    HW120445   2.840   1.527   8.462
  586SOL    HW220446   2.697   1.449   8.450
  587SOL     OW20447   9.899   9.508   2.230
  587SOL    HW120448   9.958   9.485   2.153
  587SOL    HW220449   9.939   9.585   2.280
  588SOL     OW20450   0.880   3.654   0.262
  588SOL    HW120451   0.920   3.595   0.192
  588SOL    HW220452   0.933   3.738   0.269
  589SOL     OW20453   6.378   6.939   1.229
  589SOL    HW120454   6.408   6.874   1.299
  589SOL    HW220455   6.340   7.020   1.272
  590SOL     OW20456   3.300   0.816   1.390
  590SOL    HW120457   3.314   0.788   1.485
  590SOL    HW220458   3.218   0.873   1.384
  591SOL     OW20459   0.267   8.415   1.964
  591SOL    HW120460   0.300   8.510   1.972
  591SOL    HW220461   0.180   8.406   2.013
  592SOL     OW20462   3.660   3.097   7.357
  592SOL    HW120463   3.624   3.184   7.326
  592SOL    HW220464   3.670   3.035   7.279
  593SOL     OW20465   8.959   1.775   8.444
  593SOL    HW120466   8.887   1.804   8.381
  593SOL    HW220467   8.931   1.690   8.489
  594SOL     OW20468   5.853   9.388   0.284
  594SOL    HW120469   5.951   9.383   0.304
  594SOL    HW220470   5.821   9.299   0.255
  595SOL     OW20471   5.761   1.801   0.925
  595SOL    HW120472   5.684   1.839   0.874
  595SOL    HW220473   5.768   1.703   0.908
  596SOL     OW20474   0.928   9.386   6.469
  596SOL    HW120475   0.924   9.287   6.454
  596SOL    HW220476   1.012   9.423   6.430
  597SOL     OW20477   5.500  10.401   0.782
  597SOL    HW120478   5.484  10.341   0.705
  597SOL    HW220479   5.425  10.393   0.848
  598SOL     OW20480   7.297   1.359   1.000
  598SOL    HW120481   7.319   1.389   1.093
  598SOL    HW220482   7.199   1.345   0.991
  599SOL     OW20483   2.060   9.289   0.535
  599SOL    HW120484   2.090   9.246   0.620
  599SOL    HW220485   1.975   9.339   0.551
  600SOL     OW20486   6.967   3.765   0.768
  600SOL    HW120487   6.973   3.687   0.831
  600SOL    HW220488   7.008   3.846   0.811
  601SOL     OW20489   0.768   9.809   1.221
  601SOL    HW120490   0.710   9.881   1.183
  601SOL    HW220491   0.738   9.720   1.189
  602SOL     OW20492   2.662   9.704   1.464
  602SOL    HW120493   2.734   9.663   1.520
  602SOL    HW220494   2.574   9.694   1.510
  603SOL     OW20495   6.092   9.712   7.924
  603SOL    HW120496   6.107   9.623   7.966
  603SOL    HW220497   6.000   9.744   7.944
  604SOL     OW20498   0.241   2.773   0.168
  604SOL    HW120499   0.183   2.766   0.250
  604SOL    HW220500   0.201   2.840   0.105
  605SOL     OW20501   6.855   9.897   0.879
  605SOL    HW120502   6.899   9.854   0.801
  605SOL    HW220503   6.776   9.843   0.907
  606SOL     OW20504   6.823   0.452   7.082
  606SOL    HW120505   6.858   0.545   7.071
  606SOL    HW220506   6.725   0.454   7.101
  607SOL     OW20507   4.673   1.819   6.201
  607SOL    HW120508   4.603   1.887   6.177
  607SOL    HW220509   4.650   1.732   6.158
  608SOL     OW20510   0.513   1.949   8.660
  608SOL    HW120511   0.428   1.920   8.616
  608SOL    HW220512   0.508   1.929   8.758
  609SOL     OW20513   2.667   4.885   6.711
  609SOL    HW120514   2.701   4.970   6.752
  609SOL    HW220515   2.731   4.811   6.731
  610SOL     OW20516   3.011   0.043   6.499
  610SOL    HW120517   3.048  10.457   6.522
  610SOL    HW220518   2.996   0.048   6.400
  611SOL     OW20519   4.464   5.740   6.485
  611SOL    HW120520   4.435   5.825   6.442
  611SOL    HW220521   4.474   5.753   6.583
  612SOL     OW20522   0.364   3.320   6.890
  612SOL    HW120523   0.462   3.330   6.911
  612SOL    HW220524   0.349   3.341   6.794
  613SOL     OW20525   1.119   7.816   0.487
  613SOL    HW120526   1.212   7.785   0.508
  613SOL    HW220527   1.115   7.847   0.392
  614SOL     OW20528   7.883   8.313   8.190
  614SOL    HW120529   7.857   8.256   8.267
  614SOL    HW220530   7.809   8.314   8.123
  615SOL     OW20531   5.401   3.405   8.162
  615SOL    HW120532   5.495   3.389   8.194
  615SOL    HW220533   5.404   3.445   8.070
  616SOL     OW20534   5.647   0.298   7.464
  616SOL    HW120535   5.589   0.357   7.408
  616SOL    HW220536   5.669   0.345   7.550
  617SOL     OW20537   9.394   1.217   6.890
  617SOL    HW120538   9.447   1.164   6.824
  617SOL    HW220539   9.297   1.196   6.878
  618SOL     OW20540   9.413   1.933   0.929
  618SOL    HW120541   9.342   1.863   0.939
  618SOL    HW220542   9.458   1.921   0.840
  619SOL     OW20543   0.289   7.725   0.976
  619SOL    HW120544   0.362   7.758   1.036
  619SOL    HW220545   0.201   7.733   1.023
  620SOL     OW20546   3.665   5.744   8.201
  620SOL    HW120547   3.627   5.835   8.218
  620SOL    HW220548   3.759   5.753   8.168
  621SOL     OW20549   4.222   1.604   8.621
  621SOL    HW120550   4.185   1.572   8.534
  621SOL    HW220551   4.304   1.551   8.645
  622SOL     OW20552   1.232   7.761   1.294
  622SOL    HW120553   1.196   7.831   1.356
  622SOL    HW220554   1.209   7.784   1.200
  623SOL     OW20555   6.210   5.851   7.005
  623SOL    HW120556   6.278   5.915   6.969
  623SOL    HW220557   6.119   5.888   6.991
  624SOL     OW20558   6.565   8.285   6.968
  624SOL    HW120559   6.498   8.297   6.894
  624SOL    HW220560   6.632   8.216   6.942
  625SOL     OW20561   6.344   2.080   7.923
  625SOL    HW120562   6.335   1.999   7.866
  625SOL    HW220563   6.276   2.149   7.895
  626SOL     OW20564  10.064   7.800   7.450
  626SOL    HW120565  10.131   7.734   7.485
  626SOL    HW220566   9.974   7.757   7.446
  627SOL     OW20567   4.332   6.499   8.390
  627SOL    HW120568   4.254   6.439   8.408
  627SOL    HW220569   4.355   6.494   8.293
  628SOL     OW20570   0.320   5.320   8.390
  628SOL    HW120571   0.392   5.273   8.337
  628SOL    HW220572   0.352   5.411   8.416
  629SOL     OW20573   4.564   4.080   6.228
  629SOL    HW120574   4.635   4.065   6.296
  629SOL    HW220575   4.600   4.136   6.153
  630SOL     OW20576   3.244   7.772   8.226
  630SOL    HW120577   3.183   7.700   8.193
  630SOL    HW220578   3.298   7.808   8.149
  631SOL     OW20579   5.931   5.247   7.978
  631SOL    HW120580   6.002   5.188   7.940
  631SOL    HW220581   5.878   5.196   8.045
  632SOL     OW20582   1.013   5.271   6.612
  632SOL    HW120583   0.928   5.236   6.572
  632SOL    HW220584   1.065   5.194   6.650
  633SOL     OW20585   7.682   0.534   7.458
  633SOL    HW120586   7.678   0.616   7.515
  633SOL    HW220587   7.602   0.532   7.397
  634SOL     OW20588   3.174   4.459   8.627
  634SOL    HW120589   3.255   4.501   8.667
  634SOL    HW220590   3.201   4.381   8.571
  635SOL     OW20591   0.327   3.413   6.639
  635SOL    HW120592   0.304   3.511   6.637
  635SOL    HW220593   0.398   3.394   6.572
  636SOL     OW20594   3.636   8.383   7.670
  636SOL    HW120595   3.721   8.347   7.631
  636SOL    HW220596   3.651   8.410   7.765
  637SOL     OW20597   8.006   7.519   7.805
  637SOL    HW120598   8.089   7.571   7.784
  637SOL    HW220599   8.027   7.447   7.871
  638SOL     OW20600   8.280   3.875   0.688
  638SOL    HW120601   8.299   3.940   0.615
  638SOL    HW220602   8.364   3.859   0.741
  639SOL     OW20603   7.918   4.905   0.294
  639SOL    HW120604   7.950   4.821   0.250
  639SOL    HW220605   7.866   4.883   0.376
  640SOL     OW20606   7.385   0.892   0.593
  640SOL    HW120607   7.375   0.990   0.576
  640SOL    HW220608   7.393   0.843   0.506
  641SOL     OW20609   8.530   2.769   6.882
  641SOL    HW120610   8.434   2.760   6.907
  641SOL    HW220611   8.569   2.848   6.930
  642SOL     OW20612   2.671   5.703   7.807
  642SOL    HW120613   2.763   5.737   7.788
  642SOL    HW220614   2.603   5.768   7.773
  643SOL     OW20615   8.932   1.607   6.955
  643SOL    HW120616   8.914   1.681   6.890
  643SOL    HW220617   8.848   1.556   6.972
  644SOL     OW20618   5.294   3.118   1.322
  644SOL    HW120619   5.322   3.115   1.418
  644SOL    HW220620   5.248   3.033   1.298
  645SOL     OW20621   5.329   6.802   8.562
  645SOL    HW120622   5.311   6.705   8.577
  645SOL    HW220623   5.305   6.827   8.468
  646SOL     OW20624   0.359   1.246   8.069
  646SOL    HW120625   0.381   1.311   7.997
  646SOL    HW220626   0.280   1.279   8.121
  647SOL     OW20627   1.315   4.078   8.030
  647SOL    HW120628   1.225   4.039   8.011
  647SOL    HW220629   1.376   4.060   7.953
  648SOL     OW20630   3.275   1.883   7.121
  648SOL    HW120631   3.218   1.801   7.133
  648SOL    HW220632   3.231   1.961   7.165
  649SOL     OW20633   4.519   5.793   8.679
  649SOL    HW120634   4.497   5.855   8.755
  649SOL    HW220635   4.614   5.765   8.685
  650SOL     OW20636   0.681   7.069   0.369
  650SOL    HW120637   0.703   7.063   0.271
  650SOL    HW220638   0.693   6.980   0.412
  651SOL     OW20639   1.517   0.593   7.685
  651SOL    HW120640   1.581   0.518   7.701
  651SOL    HW220641   1.437   0.558   7.636
  652SOL     OW20642   7.713   6.263   6.593
  652SOL    HW120643   7.750   6.343   6.641
  652SOL    HW220644   7.789   6.205   6.563
  653SOL     OW20645   8.616   1.493   2.258
  653SOL    HW120646   8.527   1.489   2.212
  653SOL    HW220647   8.671   1.566   2.217
  654SOL     OW20648   9.270   4.570   0.450
  654SOL    HW120649   9.368   4.580   0.434
  654SOL    HW220650   9.229   4.661   0.462
  655SOL     OW20651   5.130   1.742   0.055
  655SOL    HW120652   5.171   1.659   0.016
  655SOL    HW220653   5.081   1.792   8.766
  656SOL     OW20654   7.913   8.135   0.272
  656SOL    HW120655   7.933   8.180   0.185
  656SOL    HW220656   7.979   8.062   0.289
  657SOL     OW20657   8.520   3.120   0.785
  657SOL    HW120658   8.445   3.108   0.719
  657SOL    HW220659   8.602   3.074   0.751
  658SOL     OW20660   3.498   6.350   0.450
  658SOL    HW120661   3.474   6.297   0.532
  658SOL    HW220662   3.571   6.303   0.401
  659SOL     OW20663   8.838   7.636   0.220
  659SOL    HW120664   8.834   7.623   0.121
  659SOL    HW220665   8.833   7.734   0.241
  660SOL     OW20666   5.545   9.283   7.964
  660SOL    HW120667   5.619   9.338   8.001
  660SOL    HW220668   5.581   9.196   7.930
  661SOL     OW20669   9.981   3.869   7.700
  661SOL    HW120670  10.075   3.839   7.716
  661SOL    HW220671   9.921   3.789   7.691
  662SOL     OW20672   5.300   4.336   7.511
  662SOL    HW120673   5.245   4.340   7.427
  662SOL    HW220674   5.280   4.251   7.560
  663SOL     OW20675   1.581   9.830   7.398
  663SOL    HW120676   1.663   9.872   7.358
  663SOL    HW220677   1.553   9.753   7.342
  664SOL     OW20678   0.976   8.397   0.407
  664SOL    HW120679   0.927   8.342   0.475
  664SOL    HW220680   1.041   8.457   0.454
  665SOL     OW20681   7.922   1.429   7.972
  665SOL    HW120682   7.940   1.421   7.873
  665SOL    HW220683   7.922   1.525   7.997
  666SOL     OW20684   4.474   2.136   0.260
  666SOL    HW120685   4.430   2.050   0.282
  666SOL    HW220686   4.485   2.144   0.161
  667SOL     OW20687   5.822   0.856   7.313
  667SOL    HW120688   5.815   0.869   7.412
  667SOL    HW220689   5.735   0.825   7.277
  668SOL     OW20690   1.330  10.308   0.635
  668SOL    HW120691   1.302  10.371   0.707
  668SOL    HW220692   1.249  10.266   0.593
  669SOL     OW20693   6.170   9.070   7.002
  669SOL    HW120694   6.084   9.070   6.950
  669SOL    HW220695   6.197   9.164   7.022
  670SOL     OW20696   3.701   3.871   7.560
  670SOL    HW120697   3.786   3.822   7.542
  670SOL    HW220698   3.662   3.840   7.647
  671SOL     OW20699   8.781   1.439   0.807
  671SOL    HW120700   8.855   1.423   0.872
  671SOL    HW220701   8.771   1.537   0.791
  672SOL     OW20702   5.418   0.449   8.467
  672SOL    HW120703   5.362   0.447   8.550
  672SOL    HW220704   5.368   0.497   8.395
  673SOL     OW20705   5.443   7.060   8.244
  673SOL    HW120706   5.438   7.081   8.146
  673SOL    HW220707   5.409   6.968   8.260
  674SOL     OW20708   8.691   9.603   1.253
  674SOL    HW120709   8.626   9.534   1.286
  674SOL    HW220710   8.642   9.675   1.204
  675SOL     OW20711   9.796   4.660   7.040
  675SOL    HW120712   9.755   4.664   6.949
  675SOL    HW220713   9.802   4.565   7.070
  676SOL     OW20714   9.982   2.920   1.869
  676SOL    HW120715   9.945   2.901   1.960
  676SOL    HW220716  10.078   2.947   1.877
  677SOL     OW20717   7.997   3.028   1.818
  677SOL    HW120718   7.906   3.052   1.852
  677SOL    HW220719   8.048   2.981   1.890
  678SOL     OW20720   7.419   3.456   0.290
  678SOL    HW120721   7.415   3.387   0.217
  678SOL    HW220722   7.514   3.485   0.303
  679SOL     OW20723   8.044   0.191   1.181
  679SOL    HW120724   7.974   0.133   1.222
  679SOL    HW220725   8.047   0.278   1.229
  680SOL     OW20726   3.270   1.371   0.618
  680SOL    HW120727   3.201   1.381   0.547
  680SOL    HW220728   3.355   1.414   0.589
  681SOL     OW20729   5.051   2.065   6.707
  681SOL    HW120730   5.031   2.099   6.615
  681SOL    HW220731   5.061   2.141   6.770
  682SOL     OW20732   0.607   4.757   2.180
  682SOL    HW120733   0.705   4.741   2.168
  682SOL    HW220734   0.585   4.757   2.277
  683SOL     OW20735   1.750   5.416   1.384
  683SOL    HW120736   1.792   5.411   1.293
  683SOL    HW220737   1.738   5.324   1.421
  684SOL     OW20738   4.875   2.983   0.568
  684SOL    HW120739   4.836   3.075   0.571
  684SOL    HW220740   4.858   2.942   0.479
  685SOL     OW20741   8.428   7.337   1.973
  685SOL    HW120742   8.365   7.365   2.046
  685SOL    HW220743   8.402   7.383   1.888
  686SOL     OW20744   4.958   0.063   0.297
  686SOL    HW120745   5.042   0.111   0.323
  686SOL    HW220746   4.880   0.124   0.309
  687SOL     OW20747   0.537   9.325   0.152
  687SOL    HW120748   0.489   9.239   0.138
  687SOL    HW220749   0.540   9.376   0.066
  688SOL     OW20750   5.116   9.610   8.147
  688SOL    HW120751   5.051   9.588   8.219
  688SOL    HW220752   5.203   9.638   8.187
  689SOL     OW20753   6.351   2.206   1.540
  689SOL    HW120754   6.317   2.280   1.483
  689SOL    HW220755   6.330   2.118   1.497
  690SOL     OW20756   4.502   4.690   0.167
  690SOL    HW120757   4.408   4.711   0.143
  690SOL    HW220758   4.512   4.592   0.183
  691SOL     OW20759   0.081   4.815   8.717
  691SOL    HW120760   0.003   4.754   8.701
  691SOL    HW220761   0.149   4.768   8.774
  692SOL     OW20762   9.529   9.232   8.110
  692SOL    HW120763   9.618   9.200   8.076
  692SOL    HW220764   9.497   9.308   8.053
  693SOL     OW20765   1.983   4.537   0.581
  693SOL    HW120766   1.951   4.538   0.486
  693SOL    HW220767   1.943   4.458   0.628
  694SOL     OW20768   2.586   3.937   0.596
  694SOL    HW120769   2.531   3.896   0.523
  694SOL    HW220770   2.656   3.996   0.555
  695SOL     OW20771   5.607   3.296   6.845
  695SOL    HW120772   5.573   3.234   6.916
  695SOL    HW220773   5.541   3.371   6.832
  696SOL     OW20774   6.203   7.613   0.409
  696SOL    HW120775   6.123   7.665   0.440
  696SOL    HW220776   6.286   7.665   0.428
  697SOL     OW20777   6.420   7.021   8.403
  697SOL    HW120778   6.417   7.087   8.478
  697SOL    HW220779   6.372   7.058   8.324
  698SOL     OW20780   5.133   2.135   8.251
  698SOL    HW120781   5.081   2.128   8.167
  698SOL    HW220782   5.229   2.156   8.230
  699SOL     OW20783   3.770   3.663   0.763
  699SOL    HW120784   3.684   3.654   0.714
  699SOL    HW220785   3.816   3.747   0.733
  700SOL     OW20786   0.684   9.978   0.834
  700SOL    HW120787   0.686  10.061   0.778
  700SOL    HW220788   0.632   9.907   0.787
  701SOL     OW20789   9.094   5.254   8.468
  701SOL    HW120790   8.999   5.267   8.440
  701SOL    HW220791   9.096   5.203   8.554
  702SOL     OW20792   3.743   1.068   8.296
  702SOL    HW120793   3.692   1.003   8.353
  702SOL    HW220794   3.782   1.139   8.355
  703SOL     OW20795   9.795   4.374   7.063
  703SOL    HW120796   9.717   4.382   7.001
  703SOL    HW220797   9.879   4.374   7.010
  704SOL     OW20798   8.651   5.530   0.719
  704SOL    HW120799   8.651   5.550   0.817
  704SOL    HW220800   8.561   5.493   0.693
  705SOL     OW20801   2.510   7.336   8.326
  705SOL    HW120802   2.549   7.428   8.333
  705SOL    HW220803   2.449   7.320   8.404
  706SOL     OW20804   4.593   3.104   8.306
  706SOL    HW120805   4.570   3.013   8.342
  706SOL    HW220806   4.663   3.145   8.364
  707SOL     OW20807   0.130   8.153   7.246
  707SOL    HW120808   0.064   8.222   7.274
  707SOL    HW220809   0.087   8.063   7.246
  708SOL     OW20810   0.510  10.199   8.175
  708SOL    HW120811   0.446  10.205   8.098
  708SOL    HW220812   0.492  10.273   8.240
  709SOL     OW20813   3.547   3.912   0.270
  709SOL    HW120814   3.638   3.885   0.240
  709SOL    HW220815   3.493   3.942   0.192
  710SOL     OW20816   3.546   7.810   1.932
  710SOL    HW120817   3.586   7.720   1.946
  710SOL    HW220818   3.510   7.844   2.018
  711SOL     OW20819   2.469   5.188   6.903
  711SOL    HW120820   2.477   5.118   6.974
  711SOL    HW220821   2.379   5.182   6.860
  712SOL     OW20822   6.047   1.362   1.968
  712SOL    HW120823   6.123   1.389   2.026
  712SOL    HW220824   5.961   1.395   2.008
  713SOL     OW20825   5.555   5.631   7.284
  713SOL    HW120826   5.570   5.730   7.280
  713SOL    HW220827   5.566   5.591   7.194
  714SOL     OW20828   1.976   7.536   6.934
  714SOL    HW120829   1.986   7.515   7.032
  714SOL    HW220830   1.999   7.454   6.881
  715SOL     OW20831   0.361   4.890   1.316
  715SOL    HW120832   0.421   4.949   1.262
  715SOL    HW220833   0.276   4.938   1.336
  716SOL     OW20834   4.238   7.965   6.556
  716SOL    HW120835   4.143   7.988   6.532
  716SOL    HW220836   4.285   7.931   6.475
  717SOL     OW20837   5.792   9.298   8.306
  717SOL    HW120838   5.698   9.282   8.337
  717SOL    HW220839   5.851   9.224   8.338
  718SOL     OW20840   1.742   0.689   0.056
  718SOL    HW120841   1.748   0.590   0.065
  718SOL    HW220842   1.721   0.713   8.743
  719SOL     OW20843   7.697   4.870   0.947
  719SOL    HW120844   7.793   4.850   0.964
  719SOL    HW220845   7.649   4.787   0.919
  720SOL     OW20846   3.293   2.374   1.207
  720SOL    HW120847   3.210   2.370   1.151
  720SOL    HW220848   3.358   2.304   1.175
  721SOL     OW20849   9.233   5.120   1.025
  721SOL    HW120850   9.281   5.046   0.978
  721SOL    HW220851   9.267   5.208   0.993
  722SOL     OW20852   5.662   1.007   8.063
  722SOL    HW120853   5.745   1.017   8.008
  722SOL    HW220854   5.685   0.970   8.153
  723SOL     OW20855   8.298   0.121   2.111
  723SOL    HW120856   8.200   0.117   2.089
  723SOL    HW220857   8.312   0.089   2.204
  724SOL     OW20858   1.665   6.315   0.570
  724SOL    HW120859   1.722   6.290   0.492
  724SOL    HW220860   1.640   6.232   0.621
  725SOL     OW20861   1.380   0.825   7.400
  725SOL    HW120862   1.331   0.853   7.317
  725SOL    HW220863   1.452   0.892   7.419
  726SOL     OW20864   9.893   4.912   7.076
  726SOL    HW120865   9.931   4.949   6.992
  726SOL    HW220866   9.869   4.816   7.062
  727SOL     OW20867   3.117   8.951   0.615
  727SOL    HW120868   3.105   8.852   0.618
  727SOL    HW220869   3.125   8.987   0.708
  728SOL     OW20870   8.064   4.760   6.979
  728SOL    HW120871   8.007   4.743   6.899
  728SOL    HW220872   8.153   4.796   6.949
  729SOL     OW20873   4.579  10.268   0.768
  729SOL    HW120874   4.630  10.345   0.730
  729SOL    HW220875   4.626  10.182   0.747
  730SOL     OW20876   4.979   2.537   0.675
  730SOL    HW120877   4.912   2.515   0.746
  730SOL    HW220878   4.934   2.584   0.600
  731SOL     OW20879   7.079   7.955   7.466
  731SOL    HW120880   7.099   7.866   7.505
  731SOL    HW220881   7.094   8.026   7.535
  732SOL     OW20882   7.333   8.900   2.071
  732SOL    HW120883   7.367   8.832   2.007
  732SOL    HW220884   7.306   8.855   2.156
  733SOL     OW20885   7.081   0.025   0.850
  733SOL    HW120886   7.073   0.105   0.910
  733SOL    HW220887   7.177   0.011   0.826
  734SOL     OW20888   2.302   9.063   8.313
  734SOL    HW120889   2.263   9.145   8.356
  734SOL    HW220890   2.257   8.982   8.349
  735SOL     OW20891   2.197   6.402   0.119
  735SOL    HW120892   2.262   6.463   0.164
  735SOL    HW220893   2.131   6.457   0.067
  736SOL     OW20894   2.939   5.989   6.886
  736SOL    HW120895   2.895   6.038   6.811
  736SOL    HW220896   2.968   6.054   6.956
  737SOL     OW20897   1.591   0.113   8.011
  737SOL    HW120898   1.584   0.212   8.025
  737SOL    HW220899   1.533   0.066   8.077
  738SOL     OW20900   4.742   1.672   0.249
  738SOL    HW120901   4.680   1.624   0.311
  738SOL    HW220902   4.716   1.768   0.243
  739SOL     OW20903   0.824   1.771   1.250
  739SOL    HW120904   0.907   1.763   1.305
  739SOL    HW220905   0.753   1.817   1.304
  740SOL     OW20906   7.476   7.927   0.620
  740SOL    HW120907   7.561   7.969   0.590
  740SOL    HW220908   7.401   7.956   0.560
  741SOL     OW20909   0.311  10.254   7.787
  741SOL    HW120910   0.273  10.213   7.870
  741SOL    HW220911   0.409  10.269   7.799
  742SOL     OW20912   3.022   2.956   1.638
  742SOL    HW120913   2.956   2.982   1.709
  742SOL    HW220914   2.975   2.903   1.567
  743SOL     OW20915   9.696   6.531   7.974
  743SOL    HW120916   9.785   6.575   7.985
  743SOL    HW220917   9.635   6.557   8.049
  744SOL     OW20918   1.399   8.124   6.595
  744SOL    HW120919   1.316   8.078   6.563
  744SOL    HW220920   1.381   8.166   6.684
  745SOL     OW20921   5.854   6.505   8.506
  745SOL    HW120922   5.908   6.484   8.424
  745SOL    HW220923   5.820   6.598   8.500
  746SOL     OW20924   1.221  10.204   1.235
  746SOL    HW120925   1.266  10.163   1.156
  746SOL    HW220926   1.250  10.157   1.319
  747SOL     OW20927   7.088   5.399   0.233
  747SOL    HW120928   7.155   5.352   0.290
  747SOL    HW220929   7.101   5.373   0.138
  748SOL     OW20930   0.204   4.737   0.989
  748SOL    HW120931   0.127   4.710   1.047
  748SOL    HW220932   0.187   4.709   0.895
  749SOL     OW20933   6.025   9.569   1.126
  749SOL    HW120934   6.003   9.610   1.037
  749SOL    HW220935   5.940   9.539   1.170
  750SOL     OW20936   8.706   0.387   1.728
  750SOL    HW120937   8.806   0.388   1.734
  750SOL    HW220938   8.667   0.377   1.820
  751SOL     OW20939   2.282   3.648   0.768
  751SOL    HW120940   2.364   3.591   0.760
  751SOL    HW220941   2.209   3.608   0.713
  752SOL     OW20942   2.050   4.727   6.525
  752SOL    HW120943   2.087   4.674   6.449
  752SOL    HW220944   1.950   4.724   6.521
  753SOL     OW20945   0.527   0.189   7.548
  753SOL    HW120946   0.616   0.148   7.526
  753SOL    HW220947   0.477   0.128   7.609
  754SOL     OW20948   1.969   4.126   0.050
  754SOL    HW120949   1.873   4.120   0.021
  754SOL    HW220950   2.001   4.035   0.076
  755SOL     OW20951   5.282   5.340   1.711
  755SOL    HW120952   5.348   5.338   1.786
  755SOL    HW220953   5.327   5.314   1.626
  756SOL     OW20954   4.424   5.752   2.140
  756SOL    HW120955   4.517   5.778   2.168
  756SOL    HW220956   4.380   5.700   2.214
  757SOL     OW20957   2.770   4.885   8.611
  757SOL    HW120958   2.747   4.879   8.708
  757SOL    HW220959   2.812   4.800   8.581
  758SOL     OW20960   5.467   2.840   1.241
  758SOL    HW120961   5.509   2.912   1.296
  758SOL    HW220962   5.505   2.842   1.149
  759SOL     OW20963   6.813   3.329   6.744
  759SOL    HW120964   6.844   3.398   6.809
  759SOL    HW220965   6.823   3.363   6.651
  760SOL     OW20966   6.634   1.781   1.141
  760SOL    HW120967   6.606   1.692   1.105
  760SOL    HW220968   6.682   1.832   1.070
  761SOL     OW20969   7.567   6.978   8.361
  761SOL    HW120970   7.575   7.076   8.379
  761SOL    HW220971   7.492   6.940   8.416
  762SOL     OW20972   9.314  10.438   6.471
  762SOL    HW120973   9.315  10.378   6.391
  762SOL    HW220974   9.394  10.497   6.470
  763SOL     OW20975   8.984   3.958   1.956
  763SOL    HW120976   8.988   3.911   1.868
  763SOL    HW220977   8.926   3.906   2.019
  764SOL     OW20978   6.931   4.195   7.168
  764SOL    HW120979   7.015   4.196   7.222
  764SOL    HW220980   6.927   4.278   7.111
  765SOL     OW20981   7.024   3.570   7.588
  765SOL    HW120982   7.100   3.631   7.613
  765SOL    HW220983   6.949   3.624   7.550
  766SOL     OW20984   2.647   8.228   1.669
  766SOL    HW120985   2.573   8.243   1.734
  766SOL    HW220986   2.655   8.309   1.610
  767SOL     OW20987   8.116   8.381   7.850
  767SOL    HW120988   8.088   8.462   7.901
  767SOL    HW220989   8.074   8.300   7.892
  768SOL     OW20990   2.068   3.013   6.884
  768SOL    HW120991   1.992   2.949   6.892
  768SOL    HW220992   2.039   3.094   6.832
  769SOL     OW20993   7.078   3.340   0.601
  769SOL    HW120994   7.018   3.265   0.628
  769SOL    HW220995   7.128   3.315   0.519
  770SOL     OW20996   9.886   4.715   8.077
  770SOL    HW120997   9.872   4.648   8.004
  770SOL    HW220998   9.924   4.670   8.157
  771SOL     OW20999   4.025   4.295   8.411
  771SOL    HW121000   3.966   4.249   8.477
  771SOL    HW221001   4.032   4.392   8.432
  772SOL     OW21002   2.246   8.431   7.028
  772SOL    HW121003   2.252   8.530   7.024
  772SOL    HW221004   2.201   8.397   6.945
  773SOL     OW21005   4.441   3.851   0.743
  773SOL    HW121006   4.527   3.885   0.781
  773SOL    HW221007   4.398   3.788   0.808
  774SOL     OW21008   2.003   2.038   7.785
  774SOL    HW121009   2.067   2.051   7.861
  774SOL    HW221010   1.963   2.125   7.759
  775SOL     OW21011   4.243   5.871   6.826
  775SOL    HW121012   4.207   5.921   6.747
  775SOL    HW221013   4.336   5.840   6.807
  776SOL     OW21014   9.143   0.335   6.885
  776SOL    HW121015   9.233   0.330   6.843
  776SOL    HW221016   9.151   0.363   6.980
  777SOL     OW21017   7.385   1.614   6.839
  777SOL    HW121018   7.424   1.586   6.751
  777SOL    HW221019   7.291   1.644   6.825
  778SOL     OW21020   8.700   4.514   2.220
  778SOL    HW121021   8.756   4.558   2.289
  778SOL    HW221022   8.630   4.457   2.265
  779SOL     OW21023   5.570   6.134   0.202
  779SOL    HW121024   5.626   6.163   0.279
  779SOL    HW221025   5.478   6.171   0.211
  780SOL     OW21026   8.672   5.583   0.992
  780SOL    HW121027   8.731   5.659   1.021
  780SOL    HW221028   8.703   5.499   1.036
  781SOL     OW21029   6.561  10.244   1.771
  781SOL    HW121030   6.504  10.167   1.744
  781SOL    HW221031   6.535  10.273   1.863
  782SOL     OW21032   9.161   0.553   1.290
  782SOL    HW121033   9.180   0.538   1.193
  782SOL    HW221034   9.197   0.642   1.317
  783SOL     OW21035   3.292   0.039   8.516
  783SOL    HW121036   3.219  10.490   8.560
  783SOL    HW221037   3.299   0.130   8.556
  784SOL     OW21038   9.690   0.698   1.060
  784SOL    HW121039   9.779   0.705   1.016
  784SOL    HW221040   9.620   0.738   1.000
  785SOL     OW21041   7.919   9.878   7.608
  785SOL    HW121042   7.841   9.820   7.585
  785SOL    HW221043   7.919   9.958   7.548
  786SOL     OW21044   7.670   5.344   1.077
  786SOL    HW121045   7.671   5.438   1.042
  786SOL    HW221046   7.675   5.345   1.176
  787SOL     OW21047   1.748   5.734   0.763
  787SOL    HW121048   1.666   5.774   0.804
  787SOL    HW221049   1.722   5.656   0.706
  788SOL     OW21050   8.577   2.931   2.494
  788SOL    HW121051   8.564   2.832   2.497
  788SOL    HW221052   8.662   2.952   2.446
  789SOL     OW21053   2.524   2.024   6.492
  789SOL    HW121054   2.577   1.978   6.421
  789SOL    HW221055   2.515   1.963   6.572
  790SOL     OW21056   7.695   8.289   7.427
  790SOL    HW121057   7.673   8.381   7.395
  790SOL    HW221058   7.772   8.253   7.374
  791SOL     OW21059   6.042   8.399   7.027
  791SOL    HW121060   5.949   8.425   7.001
  791SOL    HW221061   6.078   8.333   6.960
  792SOL     OW21062   5.651   1.576   7.474
  792SOL    HW121063   5.670   1.642   7.401
  792SOL    HW221064   5.567   1.526   7.452
  793SOL     OW21065   6.641   6.622   8.593
  793SOL    HW121066   6.558   6.667   8.559
  793SOL    HW221067   6.699   6.596   8.516
  794SOL     OW21068   9.040   8.386   1.664
  794SOL    HW121069   9.133   8.372   1.699
  794SOL    HW221070   8.975   8.344   1.727
  795SOL     OW21071   5.577   6.617   0.478
  795SOL    HW121072   5.563   6.557   0.557
  795SOL    HW221073   5.490   6.633   0.432
  796SOL     OW21074   8.823   7.607   7.698
  796SOL    HW121075   8.845   7.654   7.784
  796SOL    HW221076   8.895   7.540   7.678
  797SOL     OW21077   9.757   6.646   1.232
  797SOL    HW121078   9.767   6.563   1.287
  797SOL    HW221079   9.813   6.639   1.149
  798SOL     OW21080   6.133   3.414   6.934
  798SOL    HW121081   6.035   3.404   6.916
  798SOL    HW221082   6.147   3.432   7.031
  799SOL     OW21083   5.712   3.109   0.711
  799SOL    HW121084   5.670   3.100   0.620
  799SOL    HW221085   5.752   3.022   0.738
  800SOL     OW21086   9.801   7.672   0.419
  800SOL    HW121087   9.754   7.587   0.398
  800SOL    HW221088   9.858   7.699   0.341
  801SOL     OW21089   7.082   4.676   8.701
  801SOL    HW121090   7.000   4.625   8.727
  801SOL    HW221091   7.144   4.682   8.779
  802SOL     OW21092   1.256   0.890   8.139
  802SOL    HW121093   1.332   0.926   8.085
  802SOL    HW221094   1.271   0.911   8.236
  803SOL     OW21095   2.852   9.812   1.192
  803SOL    HW121096   2.764   9.785   1.153
  803SOL    HW221097   2.836   9.871   1.272
  804SOL     OW21098   9.690   3.765   0.415
  804SOL    HW121099   9.640   3.797   0.335
  804SOL    HW221100   9.636   3.696   0.463
  805SOL     OW21101  10.033   3.354   7.226
  805SOL    HW121102  10.070   3.433   7.274
  805SOL    HW221103  10.102   3.282   7.223
  806SOL     OW21104   1.827  10.414   6.754
  806SOL    HW121105   1.802  10.412   6.657
  806SOL    HW221106   1.745  10.401   6.810
  807SOL     OW21107   6.240   7.158   1.341
  807SOL    HW121108   6.207   7.237   1.290
  807SOL    HW221109   6.271   7.186   1.432
  808SOL     OW21110   1.079   7.249   2.238
  808SOL    HW121111   1.149   7.229   2.306
  808SOL    HW221112   0.989   7.237   2.279
  809SOL     OW21113   7.364   1.916   0.456
  809SOL    HW121114   7.335   1.941   0.549
  809SOL    HW221115   7.303   1.959   0.390
  810SOL     OW21116   7.623   0.069   1.119
  810SOL    HW121117   7.643   0.166   1.115
  810SOL    HW221118   7.613   0.033   1.026
  811SOL     OW21119   8.952   6.553   7.863
  811SOL    HW121120   8.937   6.537   7.961
  811SOL    HW221121   8.907   6.481   7.811
  812SOL     OW21122   6.035  10.438   7.582
  812SOL    HW121123   6.045  10.500   7.504
  812SOL    HW221124   6.084  10.475   7.661
  813SOL     OW21125   2.399   2.205   6.323
  813SOL    HW121126   2.439   2.135   6.382
  813SOL    HW221127   2.337   2.161   6.258
  814SOL     OW21128   3.414  10.162   0.436
  814SOL    HW121129   3.396  10.255   0.404
  814SOL    HW221130   3.378  10.150   0.528
  815SOL     OW21131   1.122   0.890   6.631
  815SOL    HW121132   1.150   0.837   6.551
  815SOL    HW221133   1.170   0.854   6.712
  816SOL     OW21134   4.277   5.930   0.842
  816SOL    HW121135   4.332   5.852   0.871
  816SOL    HW221136   4.181   5.912   0.863
  817SOL     OW21137   7.261   8.767   2.301
  817SOL    HW121138   7.345   8.741   2.348
  817SOL    HW221139   7.195   8.691   2.306
  818SOL     OW21140   8.861   7.631   1.388
  818SOL    HW121141   8.832   7.722   1.356
  818SOL    HW221142   8.885   7.636   1.485
  819SOL     OW21143   6.871   7.161   1.610
  819SOL    HW121144   6.892   7.259   1.618
  819SOL    HW221145   6.922   7.122   1.533
  820SOL     OW21146   1.661   3.824   7.422
  820SOL    HW121147   1.593   3.751   7.414
  820SOL    HW221148   1.718   3.807   7.502
  821SOL     OW21149   8.111   6.283   0.976
  821SOL    HW121150   8.202   6.317   0.952
  821SOL    HW221151   8.044   6.320   0.912
  822SOL     OW21152   1.557   7.068   7.845
  822SOL    HW121153   1.533   7.161   7.817
  822SOL    HW221154   1.652   7.050   7.822
  823SOL     OW21155   8.756   4.397   6.647
  823SOL    HW121156   8.706   4.417   6.731
  823SOL    HW221157   8.697   4.415   6.568
  824SOL     OW21158   0.643   1.643   0.752
  824SOL    HW121159   0.733   1.652   0.795
  824SOL    HW221160   0.573   1.632   0.824
  825SOL     OW21161   3.827   6.988   2.023
  825SOL    HW121162   3.867   6.935   2.098
  825SOL    HW221163   3.772   7.062   2.061
  826SOL     OW21164   0.948   8.462   1.674
  826SOL    HW121165   0.878   8.532   1.687
  826SOL    HW221166   1.038   8.503   1.684
  827SOL     OW21167   1.884   9.297   7.415
  827SOL    HW121168   1.922   9.280   7.506
  827SOL    HW221169   1.845   9.389   7.411
  828SOL     OW21170   9.952   0.736   0.691
  828SOL    HW121171   9.952   0.830   0.657
  828SOL    HW221172   9.881   0.684   0.642
  829SOL     OW21173   3.074   9.884   6.784
  829SOL    HW121174   3.161   9.913   6.744
  829SOL    HW221175   3.006   9.875   6.711
  830SOL     OW21176   0.939   0.710   1.092
  830SOL    HW121177   1.006   0.697   1.019
  830SOL    HW221178   0.855   0.660   1.068
  831SOL     OW21179   8.990   8.047   0.407
  831SOL    HW121180   9.034   8.134   0.388
  831SOL    HW221181   8.977   8.037   0.506
  832SOL     OW21182   5.461   9.796   0.660
  832SOL    HW121183   5.438   9.846   0.743
  832SOL    HW221184   5.483   9.701   0.683
  833SOL     OW21185   0.114   7.192   8.383
  833SOL    HW121186   0.023   7.189   8.425
  833SOL    HW221187   0.104   7.202   8.284
  834SOL     OW21188   4.093   0.465   1.493
  834SOL    HW121189   4.119   0.513   1.409
  834SOL    HW221190   4.055   0.530   1.558
  835SOL     OW21191   8.610   4.848   1.789
  835SOL    HW121192   8.641   4.773   1.848
  835SOL    HW221193   8.619   4.821   1.693
  836SOL     OW21194   5.198   1.443   7.076
  836SOL    HW121195   5.144   1.520   7.043
  836SOL    HW221196   5.170   1.360   7.028
  837SOL     OW21197   3.678   8.642   0.794
  837SOL    HW121198   3.732   8.669   0.874
  837SOL    HW221199   3.679   8.542   0.785
  838SOL     OW21200   1.400   7.693   7.911
  838SOL    HW121201   1.399   7.674   8.010
  838SOL    HW221202   1.384   7.790   7.895
  839SOL     OW21203   0.240   7.162   7.514
  839SOL    HW121204   0.315   7.126   7.569
  839SOL    HW221205   0.264   7.254   7.481
  840SOL     OW21206   1.217   1.878   0.243
  840SOL    HW121207   1.212   1.786   0.203
  840SOL    HW221208   1.240   1.944   0.171
  841SOL     OW21209   8.055   5.765   8.230
  841SOL    HW121210   8.101   5.851   8.207
  841SOL    HW221211   7.956   5.779   8.230
  842SOL     OW21212   0.911   7.127   1.345
  842SOL    HW121213   0.840   7.197   1.336
  842SOL    HW221214   0.929   7.086   1.255
  843SOL     OW21215   1.408   2.769   0.421
  843SOL    HW121216   1.328   2.816   0.385
  843SOL    HW221217   1.379   2.706   0.494
  844SOL     OW21218   3.732   9.184   6.987
  844SOL    HW121219   3.824   9.154   7.010
  844SOL    HW221220   3.737   9.250   6.911
  845SOL     OW21221   8.475   0.004   7.718
  845SOL    HW121222   8.552  10.458   7.758
  845SOL    HW221223   8.395  10.447   7.717
  846SOL     OW21224   3.735   6.734   7.120
  846SOL    HW121225   3.727   6.831   7.097
  846SOL    HW221226   3.704   6.719   7.214
  847SOL     OW21227   6.028   5.450   8.132
  847SOL    HW121228   5.996   5.380   8.068
  847SOL    HW221229   6.039   5.409   8.223
  848SOL     OW21230   1.932   9.593   6.971
  848SOL    HW121231   1.979   9.570   7.056
  848SOL    HW221232   1.912   9.691   6.970
  849SOL     OW21233   6.831   8.570   8.606
  849SOL    HW121234   6.891   8.524   8.542
  849SOL    HW221235   6.739   8.531   8.600
  850SOL     OW21236   2.978   1.222   1.341
  850SOL    HW121237   2.972   1.312   1.383
  850SOL    HW221238   2.887   1.180   1.338
  851SOL     OW21239   5.558   6.454   6.222
  851SOL    HW121240   5.525   6.529   6.165
  851SOL    HW221241   5.651   6.429   6.193
  852SOL     OW21242   4.588   9.191   8.621
  852SOL    HW121243   4.524   9.162   8.550
  852SOL    HW221244   4.593   9.291   8.622
  853SOL     OW21245   8.198   8.013   7.724
  853SOL    HW121246   8.100   8.028   7.716
  853SOL    HW221247   8.247   8.078   7.665
  854SOL     OW21248   9.631   7.555   2.027
  854SOL    HW121249   9.655   7.462   1.997
  854SOL    HW221250   9.566   7.549   2.103
  855SOL     OW21251   5.680   2.616   8.581
  855SOL    HW121252   5.767   2.641   8.622
  855SOL    HW221253   5.693   2.596   8.484
  856SOL     OW21254   4.839   1.014   6.925
  856SOL    HW121255   4.933   0.988   6.945
  856SOL    HW221256   4.829   1.032   6.827
  857SOL     OW21257   9.997   9.985   0.538
  857SOL    HW121258   9.949   9.924   0.474
  857SOL    HW221259   9.958   9.976   0.629
  858SOL     OW21260   3.082   3.018   0.478
  858SOL    HW121261   3.021   3.090   0.446
  858SOL    HW221262   3.146   2.993   0.405
  859SOL     OW21263   5.982   9.974   1.409
  859SOL    HW121264   6.060  10.019   1.452
  859SOL    HW221265   5.991   9.980   1.309
  860SOL     OW21266   6.479   2.579   1.325
  860SOL    HW121267   6.538   2.642   1.375
  860SOL    HW221268   6.432   2.629   1.252
  861SOL     OW21269   9.298   4.894   8.012
  861SOL    HW121270   9.259   4.868   7.924
  861SOL    HW221271   9.387   4.937   7.998
  862SOL     OW21272   3.610   3.508   7.995
  862SOL    HW121273   3.656   3.524   8.083
  862SOL    HW221274   3.678   3.487   7.925
  863SOL     OW21275   8.568   8.347   1.848
  863SOL    HW121276   8.514   8.274   1.890
  863SOL    HW221277   8.508   8.406   1.795
  864SOL     OW21278   7.213   6.051   6.287
  864SOL    HW121279   7.122   6.029   6.322
  864SOL    HW221280   7.233   6.148   6.305
  865SOL     OW21281   2.715   9.960   8.303
  865SOL    HW121282   2.773  10.039   8.325
  865SOL    HW221283   2.659   9.937   8.383
  866SOL     OW21284   5.450   2.733   7.785
  866SOL    HW121285   5.411   2.690   7.867
  866SOL    HW221286   5.482   2.825   7.808
  867SOL     OW21287   0.322  10.472   6.738
  867SOL    HW121288   0.254  10.426   6.682
  867SOL    HW221289   0.276   0.025   6.808
  868SOL     OW21290   1.463   3.032   8.772
  868SOL    HW121291   1.478   3.078   0.077
  868SOL    HW221292   1.365   3.030   8.752
  869SOL     OW21293   0.761   9.014   1.928
  869SOL    HW121294   0.797   8.921   1.935
  869SOL    HW221295   0.830   9.079   1.960
  870SOL     OW21296   9.894   7.812   0.843
  870SOL    HW121297   9.812   7.812   0.901
  870SOL    HW221298   9.870   7.846   0.752
  871SOL     OW21299   4.519   1.529   8.344
  871SOL    HW121300   4.607   1.484   8.327
  871SOL    HW221301   4.451   1.461   8.369
  872SOL     OW21302   6.715   0.080   0.531
  872SOL    HW121303   6.764   0.123   0.455
  872SOL    HW221304   6.623   0.117   0.537
  873SOL     OW21305   4.022   0.159   8.446
  873SOL    HW121306   4.052   0.159   8.351
  873SOL    HW221307   3.991   0.068   8.472
  874SOL     OW21308   5.178   6.170   7.202
  874SOL    HW121309   5.091   6.128   7.226
  874SOL    HW221310   5.193   6.250   7.261
  875SOL     OW21311   3.088   9.928   1.105
  875SOL    HW121312   3.059  10.019   1.077
  875SOL    HW221313   3.011   9.879   1.146
  876SOL     OW21314   8.622   4.292   7.766
  876SOL    HW121315   8.631   4.207   7.818
  876SOL    HW221316   8.711   4.337   7.761
  877SOL     OW21317   1.192   7.809   1.027
  877SOL    HW121318   1.132   7.869   0.975
  877SOL    HW221319   1.191   7.718   0.987
  878SOL     OW21320   3.824   7.001   0.950
  878SOL    HW121321   3.836   6.981   0.852
  878SOL    HW221322   3.750   7.067   0.962
  879SOL     OW21323   4.874   5.915   0.919
  879SOL    HW121324   4.867   5.914   0.820
  879SOL    HW221325   4.957   5.965   0.946
  880SOL     OW21326   2.159   2.878   7.658
  880SOL    HW121327   2.202   2.827   7.732
  880SOL    HW221328   2.059   2.874   7.668
  881SOL     OW21329   5.432   9.638   8.508
  881SOL    HW121330   5.403   9.656   8.414
  881SOL    HW221331   5.503   9.704   8.534
  882SOL     OW21332   2.116   6.672   6.793
  882SOL    HW121333   2.176   6.738   6.748
  882SOL    HW221334   2.031   6.717   6.819
  883SOL     OW21335   9.140  10.022   0.348
  883SOL    HW121336   9.239  10.037   0.348
  883SOL    HW221337   9.101  10.057   0.433
  884SOL     OW21338   3.827   3.976   6.254
  884SOL    HW121339   3.836   4.043   6.180
  884SOL    HW221340   3.776   3.896   6.220
  885SOL     OW21341   6.391   7.477   7.495
  885SOL    HW121342   6.297   7.449   7.514
  885SOL    HW221343   6.391   7.567   7.452
  886SOL     OW21344   4.483   2.598   6.825
  886SOL    HW121345   4.411   2.577   6.759
  886SOL    HW221346   4.474   2.693   6.856
  887SOL     OW21347   2.106   4.217   7.754
  887SOL    HW121348   2.142   4.304   7.719
  887SOL    HW221349   2.182   4.161   7.788
  888SOL     OW21350   3.060   8.682   0.539
  888SOL    HW121351   2.993   8.640   0.600
  888SOL    HW221352   3.016   8.704   0.452
  889SOL     OW21353   0.171   3.562   7.794
  889SOL    HW121354   0.157   3.525   7.886
  889SOL    HW221355   0.119   3.507   7.728
  890SOL     OW21356   2.816   9.847   0.182
  890SOL    HW121357   2.871   9.794   0.246
  890SOL    HW221358   2.724   9.807   0.177
  891SOL     OW21359   8.002   7.689   0.681
  891SOL    HW121360   7.956   7.771   0.648
  891SOL    HW221361   8.085   7.714   0.731
  892SOL     OW21362   1.992   5.644   0.401
  892SOL    HW121363   1.970   5.555   0.360
  892SOL    HW221364   2.057   5.631   0.475
  893SOL     OW21365   0.815   8.735   6.855
  893SOL    HW121366   0.742   8.802   6.865
  893SOL    HW221367   0.780   8.644   6.875
  894SOL     OW21368   5.905   1.181   1.799
  894SOL    HW121369   5.830   1.125   1.834
  894SOL    HW221370   5.950   1.228   1.876
  895SOL     OW21371   1.428   8.269   1.442
  895SOL    HW121372   1.335   8.260   1.477
  895SOL    HW221373   1.443   8.362   1.409
  896SOL     OW21374   1.755   6.584   0.166
  896SOL    HW121375   1.796   6.672   0.140
  896SOL    HW221376   1.655   6.594   0.170
  897SOL     OW21377   2.869   3.915   1.925
  897SOL    HW121378   2.959   3.949   1.952
  897SOL    HW221379   2.802   3.939   1.995
  898SOL     OW21380  10.115   7.777   7.744
  898SOL    HW121381   0.024   7.719   7.698
  898SOL    HW221382  10.074   7.840   7.677
  899SOL     OW21383   9.971  10.241   0.430
  899SOL    HW121384   9.985  10.158   0.484
  899SOL    HW221385  10.054  10.297   0.431
  900SOL     OW21386   9.055  10.142   0.117
  900SOL    HW121387   8.963  10.113   0.090
  900SOL    HW221388   9.081  10.098   0.203
  901SOL     OW21389   7.293   9.864   8.050
  901SOL    HW121390   7.350   9.847   7.969
  901SOL    HW221391   7.242   9.781   8.072
  902SOL     OW21392   3.252   3.465   7.286
  902SOL    HW121393   3.204   3.379   7.298
  902SOL    HW221394   3.298   3.490   7.371
  903SOL     OW21395   3.343   3.084   1.098
  903SOL    HW121396   3.339   3.068   1.000
  903SOL    HW221397   3.307   3.005   1.147
  904SOL     OW21398   4.399   2.579   1.960
  904SOL    HW121399   4.381   2.497   2.015
  904SOL    HW221400   4.452   2.644   2.015
  905SOL     OW21401   6.481   4.774   6.755
  905SOL    HW121402   6.559   4.796   6.696
  905SOL    HW221403   6.396   4.785   6.703
  906SOL     OW21404   0.023   5.657   7.937
  906SOL    HW121405  10.109   5.726   7.926
  906SOL    HW221406   0.000   5.576   7.884
  907SOL     OW21407   1.245   0.547   0.460
  907SOL    HW121408   1.180   0.621   0.474
  907SOL    HW221409   1.198   0.468   0.422
  908SOL     OW21410   6.453   6.688   0.220
  908SOL    HW121411   6.400   6.641   0.291
  908SOL    HW221412   6.489   6.621   0.155
  909SOL     OW21413   9.124   7.844   6.888
  909SOL    HW121414   9.206   7.786   6.886
  909SOL    HW221415   9.152   7.941   6.889
  910SOL     OW21416   3.597   2.635   8.336
  910SOL    HW121417   3.620   2.651   8.240
  910SOL    HW221418   3.642   2.551   8.368
  911SOL     OW21419   4.742   7.696   7.743
  911SOL    HW121420   4.805   7.633   7.789
  911SOL    HW221421   4.794   7.761   7.688
  912SOL     OW21422   6.389   9.721   0.945
  912SOL    HW121423   6.331   9.781   1.001
  912SOL    HW221424   6.369   9.734   0.849
  913SOL     OW21425   8.226   6.583   0.777
  913SOL    HW121426   8.141   6.584   0.829
  913SOL    HW221427   8.280   6.664   0.799
  914SOL     OW21428   1.281   0.105   0.049
  914SOL    HW121429   1.188   0.074   0.066
  914SOL    HW221430   1.343   0.027   0.047
  915SOL     OW21431   7.942   2.959   7.549
  915SOL    HW121432   7.877   2.914   7.489
  915SOL    HW221433   7.896   2.989   7.633
  916SOL     OW21434   8.276  10.218   0.981
  916SOL    HW121435   8.180  10.209   1.008
  916SOL    HW221436   8.301  10.314   0.976
  917SOL     OW21437   2.135   6.361   8.306
  917SOL    HW121438   2.155   6.400   8.395
  917SOL    HW221439   2.162   6.425   8.234
  918SOL     OW21440   0.198   5.311   1.339
  918SOL    HW121441   0.290   5.316   1.379
  918SOL    HW221442   0.154   5.400   1.345
  919SOL     OW21443   7.356   6.881   1.184
  919SOL    HW121444   7.366   6.802   1.122
  919SOL    HW221445   7.385   6.964   1.137
  920SOL     OW21446   6.476   6.878   0.428
  920SOL    HW121447   6.398   6.851   0.484
  920SOL    HW221448   6.483   6.818   0.348
  921SOL     OW21449   8.974   7.175   1.526
  921SOL    HW121450   9.013   7.259   1.562
  921SOL    HW221451   8.984   7.173   1.426
  922SOL     OW21452   0.130   3.573   8.467
  922SOL    HW121453   0.224   3.596   8.439
  922SOL    HW221454   0.083   3.656   8.495
  923SOL     OW21455   4.441   3.565   8.123
  923SOL    HW121456   4.379   3.496   8.085
  923SOL    HW221457   4.394   3.618   8.193
  924SOL     OW21458   5.252   4.135   0.196
  924SOL    HW121459   5.195   4.057   0.171
  924SOL    HW221460   5.241   4.207   0.128
  925SOL     OW21461   7.711   7.116   7.654
  925SOL    HW121462   7.677   7.022   7.654
  925SOL    HW221463   7.809   7.116   7.636
  926SOL     OW21464   1.005   4.586   8.298
  926SOL    HW121465   0.997   4.672   8.348
  926SOL    HW221466   0.986   4.602   8.201
  927SOL     OW21467   7.675   5.085   8.240
  927SOL    HW121468   7.588   5.127   8.267
  927SOL    HW221469   7.710   5.130   8.159
  928SOL     OW21470  10.044   4.634   8.673
  928SOL    HW121471  10.064   4.575   8.594
  928SOL    HW221472   9.947   4.628   8.695
  929SOL     OW21473   8.198   4.246   8.127
  929SOL    HW121474   8.213   4.234   8.029
  929SOL    HW221475   8.245   4.173   8.177
  930SOL     OW21476   9.806   8.315   8.257
  930SOL    HW121477   9.892   8.264   8.267
  930SOL    HW221478   9.758   8.317   8.345
  931SOL     OW21479   3.931   4.762   2.229
  931SOL    HW121480   3.955   4.801   2.140
  931SOL    HW221481   3.974   4.816   2.302
  932SOL     OW21482   8.554   9.413   8.329
  932SOL    HW121483   8.508   9.501   8.324
  932SOL    HW221484   8.498   9.348   8.381
  933SOL     OW21485   6.457   4.477   1.105
  933SOL    HW121486   6.365   4.493   1.141
  933SOL    HW221487   6.452   4.461   1.007
  934SOL     OW21488   1.670   0.768   1.589
  934SOL    HW121489   1.654   0.810   1.500
  934SOL    HW221490   1.632   0.826   1.661
  935SOL     OW21491   8.254   9.687   1.133
  935SOL    HW121492   8.269   9.613   1.068
  935SOL    HW221493   8.198   9.654   1.209
  936SOL     OW21494   5.275   3.859   1.831
  936SOL    HW121495   5.316   3.840   1.920
  936SOL    HW221496   5.262   3.957   1.820
  937SOL     OW21497   9.276   2.154   0.766
  937SOL    HW121498   9.265   2.171   0.864
  937SOL    HW221499   9.353   2.092   0.751
  938SOL     OW21500   8.777   0.699   8.494
  938SOL    HW121501   8.720   0.781   8.487
  938SOL    HW221502   8.810   0.672   8.404
  939SOL     OW21503   5.881   0.515   1.113
  939SOL    HW121504   5.883   0.415   1.114
  939SOL    HW221505   5.966   0.550   1.074
  940SOL     OW21506   5.492   7.369   1.409
  940SOL    HW121507   5.555   7.347   1.334
  940SOL    HW221508   5.506   7.463   1.438
  941SOL     OW21509   2.161  10.446   7.697
  941SOL    HW121510   2.210  10.363   7.724
  941SOL    HW221511   2.121  10.489   7.777
  942SOL     OW21512   7.357  10.126   2.643
  942SOL    HW121513   7.318  10.098   2.731
  942SOL    HW221514   7.449  10.089   2.634
  943SOL     OW21515   8.698   0.134   0.291
  943SOL    HW121516   8.649   0.214   0.325
  943SOL    HW221517   8.667   0.053   0.341
  944SOL     OW21518   9.830   6.066   0.428
  944SOL    HW121519   9.922   6.035   0.452
  944SOL    HW221520   9.818   6.060   0.329
  945SOL     OW21521   7.564   1.566   0.061
  945SOL    HW121522   7.634   1.624   0.102
  945SOL    HW221523   7.599   1.473   0.053
  946SOL     OW21524   6.350   9.765   0.677
  946SOL    HW121525   6.268   9.823   0.681
  946SOL    HW221526   6.420   9.811   0.622
  947SOL     OW21527   6.163   7.336   0.392
  947SOL    HW121528   6.183   7.433   0.403
  947SOL    HW221529   6.248   7.283   0.398
  948SOL     OW21530   9.351   8.046   6.672
  948SOL    HW121531   9.394   8.119   6.619
  948SOL    HW221532   9.318   8.083   6.759
  949SOL     OW21533   5.658   3.202   0.284
  949SOL    HW121534   5.576   3.230   0.234
  949SOL    HW221535   5.633   3.140   0.358
  950SOL     OW21536   0.005   1.748   0.550
  950SOL    HW121537   0.095   1.707   0.547
  950SOL    HW221538   0.002   1.817   0.622
  951SOL     OW21539   7.714   8.034   7.141
  951SOL    HW121540   7.634   8.058   7.196
  951SOL    HW221541   7.796   8.072   7.184
  952SOL     OW21542   5.884   0.571   7.873
  952SOL    HW121543   5.812   0.519   7.829
  952SOL    HW221544   5.916   0.642   7.811
  953SOL     OW21545   8.966   5.870   1.309
  953SOL    HW121546   9.035   5.815   1.354
  953SOL    HW221547   8.876   5.848   1.346
  954SOL     OW21548   2.957  10.168   1.041
  954SOL    HW121549   2.876  10.117   1.011
  954SOL    HW221550   2.929  10.249   1.091
  955SOL     OW21551   5.524   1.896   0.826
  955SOL    HW121552   5.468   1.891   0.743
  955SOL    HW221553   5.527   1.991   0.858
  956SOL     OW21554   1.619   8.859   1.729
  956SOL    HW121555   1.547   8.790   1.726
  956SOL    HW221556   1.678   8.843   1.808
  957SOL     OW21557   9.938   6.425   6.593
  957SOL    HW121558   9.953   6.514   6.636
  957SOL    HW221559  10.007   6.410   6.522
  958SOL     OW21560   5.339   1.813   0.624
  958SOL    HW121561   5.323   1.722   0.663
  958SOL    HW221562   5.253   1.850   0.590
  959SOL     OW21563   4.972   8.170   0.963
  959SOL    HW121564   5.008   8.085   0.924
  959SOL    HW221565   4.903   8.148   1.031
  960SOL     OW21566   6.027   6.808   6.678
  960SOL    HW121567   6.020   6.708   6.683
  960SOL    HW221568   6.004   6.839   6.586
  961SOL     OW21569   5.536   1.776   1.561
  961SOL    HW121570   5.599   1.788   1.638
  961SOL    HW221571   5.589   1.762   1.477
  962SOL     OW21572   4.110   4.533   1.779
  962SOL    HW121573   4.144   4.584   1.701
  962SOL    HW221574   4.186   4.507   1.839
  963SOL     OW21575   8.477   0.951   1.327
  963SOL    HW121576   8.481   1.020   1.398
  963SOL    HW221577   8.528   0.870   1.356
  964SOL     OW21578   5.404   2.586   0.430
  964SOL    HW121579   5.345   2.600   0.510
  964SOL    HW221580   5.349   2.553   0.354
  965SOL     OW21581   5.729   6.455   7.788
  965SOL    HW121582   5.662   6.466   7.862
  965SOL    HW221583   5.748   6.543   7.745
  966SOL     OW21584   9.412  10.059   0.335
  966SOL    HW121585   9.453  10.146   0.362
  966SOL    HW221586   9.416  10.051   0.235
  967SOL     OW21587   7.231   3.030   8.289
  967SOL    HW121588   7.316   3.030   8.341
  967SOL    HW221589   7.171   2.958   8.323
  968SOL     OW21590   1.433   3.576   6.871
  968SOL    HW121591   1.436   3.671   6.900
  968SOL    HW221592   1.471   3.518   6.943
  969SOL     OW21593   7.137   6.703   7.346
  969SOL    HW121594   7.214   6.641   7.328
  969SOL    HW221595   7.151   6.748   7.435
  970SOL     OW21596   8.544   3.978   7.186
  970SOL    HW121597   8.502   3.938   7.267
  970SOL    HW221598   8.620   3.920   7.155
  971SOL     OW21599   9.657   0.258   0.845
  971SOL    HW121600   9.598   0.324   0.891
  971SOL    HW221601   9.734   0.306   0.803
  972SOL     OW21602   2.065   6.414   1.135
  972SOL    HW121603   1.982   6.446   1.091
  972SOL    HW221604   2.138   6.482   1.122
  973SOL     OW21605   4.387   0.176   7.955
  973SOL    HW121606   4.479   0.161   7.990
  973SOL    HW221607   4.342   0.248   8.008
  974SOL     OW21608   1.605   1.796   7.868
  974SOL    HW121609   1.676   1.774   7.936
  974SOL    HW221610   1.569   1.887   7.887
  975SOL     OW21611   0.700   6.807   0.476
  975SOL    HW121612   0.676   6.715   0.506
  975SOL    HW221613   0.781   6.803   0.418
  976SOL     OW21614   1.934   0.567   1.118
  976SOL    HW121615   1.921   0.474   1.153
  976SOL    HW221616   2.030   0.579   1.090
  977SOL     OW21617   5.539   8.096   0.903
  977SOL    HW121618   5.507   8.169   0.963
  977SOL    HW221619   5.482   8.092   0.821
  978SOL     OW21620   7.095   6.684   0.810
  978SOL    HW121621   7.118   6.620   0.737
  978SOL    HW221622   7.048   6.635   0.883
  979SOL     OW21623   9.312   1.991   7.838
  979SOL    HW121624   9.409   1.976   7.819
  979SOL    HW221625   9.301   2.074   7.892
  980SOL     OW21626   7.863   9.924   8.597
  980SOL    HW121627   7.889   9.854   8.530
  980SOL    HW221628   7.942   9.984   8.614
  981SOL     OW21629   0.088   1.698   8.709
  981SOL    HW121630   0.072   1.688   0.025
  981SOL    HW221631   0.000   1.713   8.662
  982SOL     OW21632   1.897   4.930   6.779
  982SOL    HW121633   1.982   4.936   6.726
  982SOL    HW221634   1.825   4.983   6.734
  983SOL     OW21635   0.598   9.840   8.489
  983SOL    HW121636   0.665   9.827   8.416
  983SOL    HW221637   0.507   9.847   8.449
  984SOL     OW21638   0.500   6.202   0.665
  984SOL    HW121639   0.409   6.244   0.671
  984SOL    HW221640   0.549   6.239   0.586
  985SOL     OW21641   5.601  10.131   8.267
  985SOL    HW121642   5.571  10.186   8.344
  985SOL    HW221643   5.527  10.121   8.201
  986SOL     OW21644   8.135   7.003   6.485
  986SOL    HW121645   8.177   7.088   6.454
  986SOL    HW221646   8.107   6.949   6.407
  987SOL     OW21647   1.924   3.617   8.105
  987SOL    HW121648   1.925   3.573   8.015
  987SOL    HW221649   1.920   3.547   8.176
  988SOL     OW21650   9.681   4.016   6.877
  988SOL    HW121651   9.641   4.021   6.786
  988SOL    HW221652   9.629   4.074   6.940
  989SOL     OW21653   7.933   3.056   1.387
  989SOL    HW121654   8.014   3.064   1.445
  989SOL    HW221655   7.902   2.962   1.386
  990SOL     OW21656   1.651   1.455   0.487
  990SOL    HW121657   1.745   1.444   0.520
  990SOL    HW221658   1.634   1.551   0.465
  991SOL     OW21659  10.096   7.479   7.184
  991SOL    HW121660   0.001   7.556   7.168
  991SOL    HW221661  10.066   7.480   7.280
  992SOL     OW21662   3.680   2.675   8.083
  992SOL    HW121663   3.739   2.753   8.064
  992SOL    HW221664   3.730   2.590   8.066
  993SOL     OW21665   4.711   3.143   0.144
  993SOL    HW121666   4.756   3.060   0.110
  993SOL    HW221667   4.741   3.160   0.238
  994SOL     OW21668   9.118   4.475   1.584
  994SOL    HW121669   9.162   4.424   1.510
  994SOL    HW221670   9.183   4.490   1.658
  995SOL     OW21671   6.136   7.048   1.692
  995SOL    HW121672   6.051   7.061   1.642
  995SOL    HW221673   6.150   6.951   1.710
  996SOL     OW21674   8.357   6.863   6.314
  996SOL    HW121675   8.424   6.926   6.274
  996SOL    HW221676   8.267   6.883   6.277
  997SOL     OW21677   9.812  10.236   6.762
  997SOL    HW121678   9.733  10.250   6.703
  997SOL    HW221679   9.895  10.266   6.715
  998SOL     OW21680   9.936   8.033   7.178
  998SOL    HW121681   9.912   8.069   7.269
  998SOL    HW221682  10.027   7.991   7.182
  999SOL     OW21683   2.053   0.987   0.360
  999SOL    HW121684   2.079   1.065   0.416
  999SOL    HW221685   1.972   0.943   0.399
 1000SOL     OW21686   5.954   3.475   1.904
 1000SOL    HW121687   6.007   3.480   1.989
 1000SOL    HW221688   5.995   3.536   1.836
 1001SOL     OW21689   8.904   2.204   1.341
 1001SOL    HW121690   8.885   2.142   1.417
 1001SOL    HW221691   8.887   2.298   1.370
 1002SOL     OW21692   6.817   1.064   7.020
 1002SOL    HW121693   6.748   0.996   6.997
 1002SOL    HW221694   6.793   1.151   6.977
 1003SOL     OW21695   3.669   5.844   6.766
 1003SOL    HW121696   3.694   5.849   6.669
 1003SOL    HW221697   3.657   5.936   6.803
 1004SOL     OW21698   0.975   0.533   0.056
 1004SOL    HW121699   1.054   0.476   0.080
 1004SOL    HW221700   1.001   0.630   0.062
 1005SOL     OW21701   7.665  10.463   0.505
 1005SOL    HW121702   7.653   0.041   0.562
 1005SOL    HW221703   7.666  10.381   0.563
 1006SOL     OW21704   3.090   4.963   8.306
 1006SOL    HW121705   3.140   4.898   8.250
 1006SOL    HW221706   2.992   4.959   8.283
 1007SOL     OW21707   6.085   3.983   6.740
 1007SOL    HW121708   6.135   3.979   6.653
 1007SOL    HW221709   6.149   3.984   6.816
 1008SOL     OW21710   7.036   4.922   6.939
 1008SOL    HW121711   6.974   4.899   6.864
 1008SOL    HW221712   7.075   4.839   6.978
 1009SOL     OW21713   5.255   9.221   1.973
 1009SOL    HW121714   5.221   9.210   2.067
 1009SOL    HW221715   5.292   9.314   1.962
 1010SOL     OW21716   1.197   0.092   8.145
 1010SOL    HW121717   1.171   0.069   8.051
 1010SOL    HW221718   1.200   0.192   8.156
 1011SOL     OW21719   2.914   1.461   1.464
 1011SOL    HW121720   2.822   1.462   1.424
 1011SOL    HW221721   2.912   1.506   1.553
 1012SOL     OW21722   6.432   7.056   7.308
 1012SOL    HW121723   6.459   7.015   7.395
 1012SOL    HW221724   6.457   7.153   7.309
 1013SOL     OW21725   5.166   2.620   7.155
 1013SOL    HW121726   5.239   2.592   7.217
 1013SOL    HW221727   5.080   2.627   7.205
 1014SOL     OW21728   5.035   8.471   6.204
 1014SOL    HW121729   4.982   8.493   6.123
 1014SOL    HW221730   5.061   8.555   6.251
 1015SOL     OW21731   9.320   5.610   8.558
 1015SOL    HW121732   9.357   5.574   8.473
 1015SOL    HW221733   9.228   5.645   8.542
 1016SOL     OW21734   6.370   8.802   7.826
 1016SOL    HW121735   6.392   8.740   7.751
 1016SOL    HW221736   6.454   8.847   7.858
 1017SOL     OW21737   5.474   3.466   5.973
 1017SOL    HW121738   5.427   3.493   5.889
 1017SOL    HW221739   5.475   3.367   5.980
 1018SOL     OW21740   7.237   5.572   7.651
 1018SOL    HW121741   7.259   5.571   7.554
 1018SOL    HW221742   7.281   5.495   7.697
 1019SOL     OW21743   2.741   2.141   6.922
 1019SOL    HW121744   2.742   2.221   6.862
 1019SOL    HW221745   2.812   2.077   6.893
 1020SOL     OW21746   2.049   1.626   8.278
 1020SOL    HW121747   1.971   1.688   8.288
 1020SOL    HW221748   2.132   1.680   8.267
 1021SOL     OW21749   4.626   5.723   0.648
 1021SOL    HW121750   4.654   5.629   0.668
 1021SOL    HW221751   4.558   5.723   0.574
 1022SOL     OW21752   0.968   7.044   1.094
 1022SOL    HW121753   1.050   7.077   1.046
 1022SOL    HW221754   0.924   6.973   1.039
 1023SOL     OW21755   7.949   6.694   1.275
 1023SOL    HW121756   8.039   6.709   1.233
 1023SOL    HW221757   7.906   6.614   1.234
 1024SOL     OW21758   0.500   4.063   8.425
 1024SOL    HW121759   0.428   4.042   8.491
 1024SOL    HW221760   0.519   4.161   8.428
 1025SOL     OW21761   7.609   6.550   7.789
 1025SOL    HW121762   7.685   6.598   7.746
 1025SOL    HW221763   7.532   6.543   7.725
 1026SOL     OW21764   9.871  10.084   0.228
 1026SOL    HW121765   9.904  10.148   0.297
 1026SOL    HW221766   9.839  10.000   0.271
 1027SOL     OW21767   2.309   9.065   0.267
 1027SOL    HW121768   2.220   9.109   0.274
 1027SOL    HW221769   2.381   9.134   0.277
 1028SOL     OW21770   6.489   7.000   8.052
 1028SOL    HW121771   6.426   7.059   8.104
 1028SOL    HW221772   6.437   6.930   8.005
 1029SOL     OW21773   8.580   8.545   0.434
 1029SOL    HW121774   8.630   8.621   0.475
 1029SOL    HW221775   8.642   8.467   0.422
 1030SOL     OW21776   2.995  10.184   0.367
 1030SOL    HW121777   3.065  10.147   0.306
 1030SOL    HW221778   2.905  10.151   0.339
 1031SOL     OW21779   3.185   5.657   1.281
 1031SOL    HW121780   3.177   5.756   1.278
 1031SOL    HW221781   3.094   5.616   1.275
 1032SOL     OW21782   2.902   8.942   7.428
 1032SOL    HW121783   2.955   9.019   7.464
 1032SOL    HW221784   2.817   8.933   7.479
 1033SOL     OW21785   2.575   4.988   7.610
 1033SOL    HW121786   2.625   4.958   7.529
 1033SOL    HW221787   2.574   5.088   7.614
 1034SOL     OW21788   8.424   7.171   0.876
 1034SOL    HW121789   8.398   7.177   0.972
 1034SOL    HW221790   8.523   7.167   0.868
 1035SOL     OW21791   7.054   1.339   1.326
 1035SOL    HW121792   7.154   1.332   1.339
 1035SOL    HW221793   7.031   1.429   1.291
 1036SOL     OW21794   3.735   9.804   7.332
 1036SOL    HW121795   3.773   9.892   7.303
 1036SOL    HW221796   3.699   9.813   7.424
 1037SOL     OW21797   3.118   9.076   0.861
 1037SOL    HW121798   3.179   9.113   0.931
 1037SOL    HW221799   3.037   9.036   0.905
 1038SOL     OW21800   4.709   4.364   6.595
 1038SOL    HW121801   4.776   4.295   6.568
 1038SOL    HW221802   4.723   4.389   6.690
 1039SOL     OW21803   6.612   1.279   8.018
 1039SOL    HW121804   6.562   1.262   8.103
 1039SOL    HW221805   6.581   1.365   7.978
 1040SOL     OW21806   1.692   1.460   6.771
 1040SOL    HW121807   1.628   1.451   6.695
 1040SOL    HW221808   1.734   1.551   6.770
 1041SOL     OW21809   1.546   6.162   1.476
 1041SOL    HW121810   1.507   6.156   1.384
 1041SOL    HW221811   1.479   6.205   1.537
 1042SOL     OW21812   8.243  10.421   0.547
 1042SOL    HW121813   8.263  10.332   0.506
 1042SOL    HW221814   8.328  10.465   0.576
 1043SOL     OW21815   7.312   9.781   8.738
 1043SOL    HW121816   7.271   9.861   8.693
 1043SOL    HW221817   7.381   9.811   0.021
 1044SOL     OW21818   2.703   3.613   0.859
 1044SOL    HW121819   2.781   3.583   0.805
 1044SOL    HW221820   2.620   3.572   0.824
 1045SOL     OW21821   8.204   3.049   7.587
 1045SOL    HW121822   8.110   3.019   7.571
 1045SOL    HW221823   8.208   3.108   7.668
 1046SOL     OW21824   0.501   8.330   6.981
 1046SOL    HW121825   0.552   8.284   7.054
 1046SOL    HW221826   0.406   8.344   7.011
 1047SOL     OW21827   5.585   0.648   8.572
 1047SOL    HW121828   5.529   0.727   8.546
 1047SOL    HW221829   5.540   0.564   8.544
 1048SOL     OW21830   1.773   1.463   7.995
 1048SOL    HW121831   1.865   1.426   8.012
 1048SOL    HW221832   1.774   1.562   8.010
 1049SOL     OW21833   7.428  10.403   7.247
 1049SOL    HW121834   7.364  10.342   7.199
 1049SOL    HW221835   7.508  10.419   7.189
 1050SOL     OW21836   6.279   4.243   7.482
 1050SOL    HW121837   6.298   4.240   7.384
 1050SOL    HW221838   6.351   4.194   7.531
 1051SOL     OW21839   1.763   6.857   6.526
 1051SOL    HW121840   1.752   6.757   6.522
 1051SOL    HW221841   1.740   6.896   6.437
 1052SOL     OW21842   6.484   4.822   0.033
 1052SOL    HW121843   6.466   4.919   0.048
 1052SOL    HW221844   6.436   4.792   8.732
 1053SOL     OW21845   1.909  10.387   1.137
 1053SOL    HW121846   2.008  10.388   1.125
 1053SOL    HW221847   1.882  10.457   1.203
 1054SOL     OW21848   4.384   4.532   7.021
 1054SOL    HW121849   4.322   4.486   6.958
 1054SOL    HW221850   4.405   4.624   6.986
 1055SOL     OW21851   4.501   1.697   7.031
 1055SOL    HW121852   4.471   1.768   6.967
 1055SOL    HW221853   4.567   1.638   6.987
 1056SOL     OW21854   7.120   1.914   8.564
 1056SOL    HW121855   7.178   1.963   8.629
 1056SOL    HW221856   7.110   1.819   8.593
 1057SOL     OW21857   8.854   5.181   6.442
 1057SOL    HW121858   8.799   5.160   6.362
 1057SOL    HW221859   8.887   5.275   6.438
 1058SOL     OW21860   1.096   8.242   0.871
 1058SOL    HW121861   1.111   8.249   0.970
 1058SOL    HW221862   1.018   8.300   0.845
 1059SOL     OW21863   3.866   7.393   0.599
 1059SOL    HW121864   3.788   7.379   0.661
 1059SOL    HW221865   3.862   7.485   0.561
 1060SOL     OW21866   5.240   5.288   1.278
 1060SOL    HW121867   5.307   5.277   1.352
 1060SOL    HW221868   5.149   5.298   1.318
 1061SOL     OW21869   2.637   1.737   7.436
 1061SOL    HW121870   2.661   1.748   7.533
 1061SOL    HW221871   2.539   1.723   7.428
 1062SOL     OW21872   3.427   3.916   8.762
 1062SOL    HW121873   3.413   4.014   8.749
 1062SOL    HW221874   3.453   3.875   8.675
 1063SOL     OW21875   9.355   7.778   0.800
 1063SOL    HW121876   9.323   7.752   0.709
 1063SOL    HW221877   9.429   7.845   0.792
 1064SOL     OW21878   8.912   5.776   0.255
 1064SOL    HW121879   8.996   5.755   0.306
 1064SOL    HW221880   8.849   5.826   0.314
 1065SOL     OW21881   6.110   7.043   6.202
 1065SOL    HW121882   6.209   7.051   6.217
 1065SOL    HW221883   6.086   6.948   6.183
 1066SOL     OW21884   5.827   5.624   8.754
 1066SOL    HW121885   5.740   5.665   0.000
 1066SOL    HW221886   5.821   5.596   8.658
 1067SOL     OW21887   3.702   5.084   7.860
 1067SOL    HW121888   3.698   5.118   7.954
 1067SOL    HW221889   3.674   5.157   7.797
 1068SOL     OW21890   7.814   7.525   0.817
 1068SOL    HW121891   7.851   7.540   0.909
 1068SOL    HW221892   7.869   7.577   0.750
 1069SOL     OW21893   7.094   3.995   0.527
 1069SOL    HW121894   7.029   3.920   0.537
 1069SOL    HW221895   7.122   4.003   0.431
 1070SOL     OW21896   5.731   9.149   1.825
 1070SOL    HW121897   5.780   9.069   1.858
 1070SOL    HW221898   5.668   9.122   1.752
 1071SOL     OW21899   6.210   3.950   1.066
 1071SOL    HW121900   6.139   4.011   1.033
 1071SOL    HW221901   6.297   3.999   1.073
 1072SOL     OW21902   5.784   6.769   8.489
 1072SOL    HW121903   5.709   6.811   8.540
 1072SOL    HW221904   5.867   6.823   8.501
 1073SOL     OW21905   6.624   3.084   8.526
 1073SOL    HW121906   6.559   3.142   8.477
 1073SOL    HW221907   6.590   2.990   8.527
 1074SOL     OW21908   3.539   2.271   0.199
 1074SOL    HW121909   3.485   2.208   0.144
 1074SOL    HW221910   3.590   2.333   0.139
 1075SOL     OW21911   7.714   7.570   7.000
 1075SOL    HW121912   7.795   7.512   7.010
 1075SOL    HW221913   7.649   7.526   6.938
 1076SOL     OW21914   2.044   1.717   0.535
 1076SOL    HW121915   2.117   1.783   0.556
 1076SOL    HW221916   1.955   1.763   0.543
 1077SOL     OW21917   0.747   3.827   1.448
 1077SOL    HW121918   0.676   3.787   1.389
 1077SOL    HW221919   0.750   3.777   1.534
 1078SOL     OW21920   0.435   9.678   0.027
 1078SOL    HW121921   0.492   9.607   8.769
 1078SOL    HW221922   0.489   9.762   0.036
 1079SOL     OW21923   8.627   8.094   2.114
 1079SOL    HW121924   8.699   8.075   2.047
 1079SOL    HW221925   8.542   8.113   2.066
 1080SOL     OW21926   5.817   6.967   7.829
 1080SOL    HW121927   5.726   6.929   7.812
 1080SOL    HW221928   5.878   6.893   7.858
 1081SOL     OW21929   5.447   6.267   0.496
 1081SOL    HW121930   5.544   6.248   0.478
 1081SOL    HW221931   5.397   6.268   0.410
 1082SOL     OW21932   4.622   7.061   2.011
 1082SOL    HW121933   4.673   7.132   2.059
 1082SOL    HW221934   4.687   6.999   1.966
 1083SOL     OW21935   8.192   6.678   7.190
 1083SOL    HW121936   8.129   6.735   7.138
 1083SOL    HW221937   8.280   6.725   7.198
 1084SOL     OW21938   1.753   8.231   6.808
 1084SOL    HW121939   1.685   8.192   6.870
 1084SOL    HW221940   1.719   8.318   6.771
 1085SOL     OW21941   5.339   2.245   0.661
 1085SOL    HW121942   5.374   2.325   0.709
 1085SOL    HW221943   5.410   2.209   0.600
 1086SOL     OW21944   8.833   1.840   8.001
 1086SOL    HW121945   8.746   1.813   7.960
 1086SOL    HW221946   8.824   1.842   8.101
 1087SOL     OW21947   8.122   5.987   1.433
 1087SOL    HW121948   8.195   6.039   1.390
 1087SOL    HW221949   8.073   6.045   1.498
 1088SOL     OW21950   5.976  10.385   8.027
 1088SOL    HW121951   6.019  10.421   8.109
 1088SOL    HW221952   5.880  10.362   8.046
 1089SOL     OW21953   6.887   5.156   7.764
 1089SOL    HW121954   6.824   5.212   7.817
 1089SOL    HW221955   6.889   5.063   7.801
 1090SOL     OW21956   6.017   3.503   1.197
 1090SOL    HW121957   5.927   3.481   1.235
 1090SOL    HW221958   6.020   3.599   1.169
 1091SOL     OW21959   0.436   3.493   0.232
 1091SOL    HW121960   0.411   3.407   0.276
 1091SOL    HW221961   0.488   3.475   0.148
 1092SOL     OW21962   7.301   3.026   1.434
 1092SOL    HW121963   7.394   3.055   1.455
 1092SOL    HW221964   7.238   3.101   1.451
 1093SOL     OW21965   1.595   5.191   0.319
 1093SOL    HW121966   1.669   5.147   0.269
 1093SOL    HW221967   1.569   5.135   0.397
 1094SOL     OW21968   5.617  10.077   2.082
 1094SOL    HW121969   5.567  10.000   2.122
 1094SOL    HW221970   5.713  10.072   2.108
 1095SOL     OW21971   9.508   0.773   1.727
 1095SOL    HW121972   9.587   0.712   1.738
 1095SOL    HW221973   9.478   0.806   1.816
 1096SOL     OW21974   2.794   9.920   7.787
 1096SOL    HW121975   2.893   9.925   7.780
 1096SOL    HW221976   2.759  10.004   7.828
 1097SOL     OW21977   6.985  10.349   1.573
 1097SOL    HW121978   7.024  10.436   1.543
 1097SOL    HW221979   7.056  10.279   1.574
 1098SOL     OW21980   2.734   3.855   0.065
 1098SOL    HW121981   2.827   3.878   0.036
 1098SOL    HW221982   2.724   3.756   0.071
 1099SOL     OW21983   9.997   5.288   6.537
 1099SOL    HW121984   9.961   5.262   6.447
 1099SOL    HW221985  10.095   5.305   6.531
 1100SOL     OW21986   8.217   9.818   6.882
 1100SOL    HW121987   8.173   9.831   6.793
 1100SOL    HW221988   8.230   9.906   6.926
 1101SOL     OW21989   9.688   9.354   2.288
 1101SOL    HW121990   9.764   9.415   2.267
 1101SOL    HW221991   9.615   9.406   2.333
 1102SOL     OW21992   0.654   6.556   0.579
 1102SOL    HW121993   0.633   6.467   0.539
 1102SOL    HW221994   0.597   6.569   0.660
 1103SOL     OW21995   6.159   9.953   8.191
 1103SOL    HW121996   6.141  10.020   8.120
 1103SOL    HW221997   6.197   9.998   8.272
 1104SOL     OW21998   9.856   6.130   7.227
 1104SOL    HW121999   9.836   6.187   7.307
 1104SOL    HW222000   9.910   6.183   7.161
 1105SOL     OW22001   9.113   1.988   8.210
 1105SOL    HW122002   9.148   1.897   8.231
 1105SOL    HW222003   9.082   2.032   8.294
 1106SOL     OW22004   7.715   3.750   0.529
 1106SOL    HW122005   7.778   3.709   0.596
 1106SOL    HW222006   7.634   3.784   0.576
 1107SOL     OW22007   4.361   8.677   1.288
 1107SOL    HW122008   4.290   8.608   1.277
 1107SOL    HW222009   4.448   8.640   1.255
 1108SOL     OW22010   3.127   2.259   7.802
 1108SOL    HW122011   3.033   2.225   7.796
 1108SOL    HW222012   3.166   2.235   7.891
 1109SOL     OW22013   7.682   2.389   0.545
 1109SOL    HW122014   7.626   2.462   0.503
 1109SOL    HW222015   7.738   2.346   0.475
 1110SOL     OW22016   1.941   8.833   8.766
 1110SOL    HW122017   1.925   8.735   8.776
 1110SOL    HW222018   1.881   8.870   8.696
 1111SOL     OW22019   4.554   8.323   1.055
 1111SOL    HW122020   4.476   8.379   1.029
 1111SOL    HW222021   4.532   8.269   1.136
 1112SOL     OW22022   2.326   0.442   7.909
 1112SOL    HW122023   2.311   0.461   7.812
 1112SOL    HW222024   2.315   0.344   7.926
 1113SOL     OW22025   7.143   1.733   6.809
 1113SOL    HW122026   7.045   1.715   6.815
 1113SOL    HW222027   7.161   1.830   6.823
 1114SOL     OW22028   1.482   5.874   7.335
 1114SOL    HW122029   1.472   5.775   7.335
 1114SOL    HW222030   1.463   5.910   7.244
 1115SOL     OW22031   4.868   1.301   1.338
 1115SOL    HW122032   4.782   1.264   1.303
 1115SOL    HW222033   4.852   1.349   1.424
 1116SOL     OW22034   9.511   4.176   7.024
 1116SOL    HW122035   9.535   4.263   6.979
 1116SOL    HW222036   9.415   4.177   7.051
 1117SOL     OW22037   9.770   3.677   7.663
 1117SOL    HW122038   9.714   3.645   7.740
 1117SOL    HW222039   9.817   3.599   7.622
 1118SOL     OW22040   8.928   3.397   8.029
 1118SOL    HW122041   8.984   3.367   8.107
 1118SOL    HW222042   8.936   3.330   7.955
 1119SOL     OW22043   9.307   1.027   6.404
 1119SOL    HW122044   9.307   1.111   6.458
 1119SOL    HW222045   9.342   1.046   6.313
 1120SOL     OW22046   4.238   9.908   0.748
 1120SOL    HW122047   4.289   9.828   0.719
 1120SOL    HW222048   4.285   9.952   0.825
 1121SOL     OW22049   3.386   8.297   7.583
 1121SOL    HW122050   3.385   8.201   7.556
 1121SOL    HW222051   3.477   8.322   7.615
 1122SOL     OW22052   1.354   0.083   8.556
 1122SOL    HW122053   1.327   0.100   8.651
 1122SOL    HW222054   1.328  10.493   8.530
 1123SOL     OW22055   4.305   9.795   8.297
 1123SOL    HW122056   4.281   9.892   8.307
 1123SOL    HW222057   4.270   9.760   8.210
 1124SOL     OW22058   9.005   2.452   2.368
 1124SOL    HW122059   9.071   2.395   2.417
 1124SOL    HW222060   9.053   2.525   2.320
 1125SOL     OW22061   4.780   1.376   0.574
 1125SOL    HW122062   4.707   1.348   0.637
 1125SOL    HW222063   4.831   1.295   0.544
 1126SOL     OW22064   3.149   3.675   7.142
 1126SOL    HW122065   3.219   3.728   7.094
 1126SOL    HW222066   3.193   3.608   7.202
 1127SOL     OW22067   0.530   2.107   7.313
 1127SOL    HW122068   0.575   2.023   7.283
 1127SOL    HW222069   0.454   2.127   7.251
 1128SOL     OW22070   4.677   3.455   0.301
 1128SOL    HW122071   4.625   3.490   0.223
 1128SOL    HW222072   4.756   3.514   0.317
 1129SOL     OW22073   6.538   7.068   2.305
 1129SOL    HW122074   6.484   7.145   2.272
 1129SOL    HW222075   6.492   7.026   2.383
 1130SOL     OW22076   5.564   2.726   1.611
 1130SOL    HW122077   5.507   2.726   1.693
 1130SOL    HW222078   5.646   2.670   1.627
 1131SOL     OW22079   4.228   6.987   7.053
 1131SOL    HW122080   4.300   6.958   6.991
 1131SOL    HW222081   4.205   6.912   7.115
 1132SOL     OW22082   0.486   0.790   7.095
 1132SOL    HW122083   0.480   0.760   7.190
 1132SOL    HW222084   0.545   0.728   7.044
 1133SOL     OW22085   9.965   9.544   0.415
 1133SOL    HW122086  10.047   9.592   0.383
 1133SOL    HW222087   9.942   9.576   0.507
 1134SOL     OW22088   3.518   6.534   0.887
 1134SOL    HW122089   3.496   6.528   0.790
 1134SOL    HW222090   3.470   6.613   0.927
 1135SOL     OW22091   6.286  10.141   0.844
 1135SOL    HW122092   6.257  10.236   0.857
 1135SOL    HW222093   6.386  10.135   0.848
 1136SOL     OW22094   2.729   3.788   6.837
 1136SOL    HW122095   2.793   3.714   6.818
 1136SOL    HW222096   2.636   3.752   6.846
 1137SOL     OW22097   3.325   1.162   1.044
 1137SOL    HW122098   3.361   1.180   1.135
 1137SOL    HW222099   3.338   1.243   0.986
 1138SOL     OW22100   3.656   7.366   0.773
 1138SOL    HW122101   3.652   7.293   0.841
 1138SOL    HW222102   3.566   7.379   0.732
 1139SOL     OW22103   0.470   8.289   8.758
 1139SOL    HW122104   0.461   8.334   8.670
 1139SOL    HW222105   0.517   8.350   0.040
 1140SOL     OW22106   9.014   5.726   0.853
 1140SOL    HW122107   9.024   5.629   0.874
 1140SOL    HW222108   9.104   5.769   0.851
 1141SOL     OW22109   5.261   8.565   1.146
 1141SOL    HW122110   5.263   8.619   1.062
 1141SOL    HW222111   5.338   8.591   1.205
 1142SOL     OW22112   4.914   1.882   6.854
 1142SOL    HW122113   4.857   1.933   6.918
 1142SOL    HW222114   4.969   1.946   6.799
 1143SOL     OW22115   9.840   2.091   8.663
 1143SOL    HW122116   9.889   2.136   8.738
 1143SOL    HW222117   9.742   2.088   8.685
 1144SOL     OW22118   4.263   5.997   7.283
 1144SOL    HW122119   4.240   5.942   7.363
 1144SOL    HW222120   4.187   6.059   7.262
 1145SOL     OW22121   6.461   2.363   2.240
 1145SOL    HW122122   6.428   2.454   2.266
 1145SOL    HW222123   6.552   2.371   2.200
 1146SOL     OW22124   2.960  10.495   7.264
 1146SOL    HW122125   2.911  10.488   7.351
 1146SOL    HW222126   3.035   0.057   7.274
 1147SOL     OW22127   6.758   9.133   7.986
 1147SOL    HW122128   6.722   9.219   7.952
 1147SOL    HW222129   6.852   9.120   7.954
 1148SOL     OW22130   6.030   9.269   8.595
 1148SOL    HW122131   6.029   9.208   8.674
 1148SOL    HW222132   5.964   9.342   8.608
 1149SOL     OW22133   2.734   9.217   7.360
 1149SOL    HW122134   2.827   9.231   7.327
 1149SOL    HW222135   2.700   9.129   7.326
 1150SOL     OW22136   3.018   8.493   8.746
 1150SOL    HW122137   2.994   8.573   8.691
 1150SOL    HW222138   3.069   8.522   0.045
 1151SOL     OW22139   3.068   0.649   1.736
 1151SOL    HW122140   3.056   0.643   1.835
 1151SOL    HW222141   3.163   0.673   1.716
 1152SOL     OW22142   9.371   0.116   8.244
 1152SOL    HW122143   9.434   0.175   8.193
 1152SOL    HW222144   9.423   0.044   8.289
 1153SOL     OW22145   3.724   4.891   0.158
 1153SOL    HW122146   3.730   4.792   0.169
 1153SOL    HW222147   3.803   4.935   0.199
 1154SOL     OW22148   3.890   4.615   0.661
 1154SOL    HW122149   3.819   4.686   0.652
 1154SOL    HW222150   3.860   4.546   0.726
 1155SOL     OW22151   7.469   8.595   6.915
 1155SOL    HW122152   7.457   8.693   6.933
 1155SOL    HW222153   7.549   8.583   6.855
 1156SOL     OW22154   7.958   3.764   1.173
 1156SOL    HW122155   7.925   3.745   1.266
 1156SOL    HW222156   7.901   3.834   1.131
 1157SOL     OW22157   1.377   4.019   8.295
 1157SOL    HW122158   1.339   4.047   8.207
 1157SOL    HW222159   1.450   4.083   8.321
 1158SOL     OW22160   8.701   8.283   0.881
 1158SOL    HW122161   8.721   8.248   0.789
 1158SOL    HW222162   8.706   8.208   0.947
 1159SOL     OW22163   9.870   6.362   8.683
 1159SOL    HW122164   9.786   6.309   8.683
 1159SOL    HW222165   9.896   6.384   8.777
 1160SOL     OW22166   5.292  10.415   8.063
 1160SOL    HW122167   5.381  10.454   8.038
 1160SOL    HW222168   5.219  10.471   8.022
 1161SOL     OW22169   4.563   9.888   6.787
 1161SOL    HW122170   4.661   9.908   6.783
 1161SOL    HW222171   4.516   9.936   6.713
 1162SOL     OW22172   7.516   6.660   8.589
 1162SOL    HW122173   7.570   6.651   8.505
 1162SOL    HW222174   7.456   6.740   8.582
 1163SOL     OW22175   0.684   9.562   1.125
 1163SOL    HW122176   0.636   9.581   1.040
 1163SOL    HW222177   0.732   9.475   1.118
 1164SOL     OW22178   0.196  10.308   0.193
 1164SOL    HW122179   0.113  10.314   0.249
 1164SOL    HW222180   0.274  10.341   0.247
 1165SOL     OW22181   3.769   6.595   0.970
 1165SOL    HW122182   3.678   6.573   0.934
 1165SOL    HW222183   3.763   6.676   1.029
 1166SOL     OW22184   6.544   7.599   0.234
 1166SOL    HW122185   6.564   7.515   0.283
 1166SOL    HW222186   6.505   7.666   0.298
 1167SOL     OW22187   7.681   7.955   7.720
 1167SOL    HW122188   7.660   7.937   7.624
 1167SOL    HW222189   7.608   8.010   7.760
 1168SOL     OW22190   0.681   9.150   6.558
 1168SOL    HW122191   0.596   9.122   6.514
 1168SOL    HW222192   0.757   9.135   6.495
 1169SOL     OW22193   2.431   5.526   0.499
 1169SOL    HW122194   2.469   5.444   0.541
 1169SOL    HW222195   2.499   5.600   0.502
 1170SOL     OW22196   5.254   6.033   1.412
 1170SOL    HW122197   5.198   5.950   1.419
 1170SOL    HW222198   5.195   6.112   1.395
 1171SOL     OW22199   9.895   4.543   7.860
 1171SOL    HW122200   9.905   4.587   7.771
 1171SOL    HW222201   9.985   4.515   7.892
 1172SOL     OW22202   5.252   2.784   6.302
 1172SOL    HW122203   5.174   2.722   6.310
 1172SOL    HW222204   5.300   2.767   6.216
 1173SOL     OW22205   5.147   2.298   7.917
 1173SOL    HW122206   5.098   2.220   7.956
 1173SOL    HW222207   5.165   2.280   7.820
 1174SOL     OW22208   1.712   4.158   7.843
 1174SOL    HW122209   1.778   4.121   7.777
 1174SOL    HW222210   1.622   4.116   7.828
 1175SOL     OW22211   7.957   1.700   8.020
 1175SOL    HW122212   7.986   1.691   8.115
 1175SOL    HW222213   7.991   1.787   7.983
 1176SOL     OW22214   9.895   0.683   7.690
 1176SOL    HW122215   9.829   0.617   7.655
 1176SOL    HW222216   9.872   0.774   7.656
 1177SOL     OW22217   7.930   7.581   1.056
 1177SOL    HW122218   7.904   7.675   1.079
 1177SOL    HW222219   8.029   7.577   1.040
 1178SOL     OW22220   7.319   5.478   8.609
 1178SOL    HW122221   7.388   5.420   8.653
 1178SOL    HW222222   7.364   5.539   8.542
 1179SOL     OW22223   9.363   4.919   0.881
 1179SOL    HW122224   9.448   4.872   0.859
 1179SOL    HW222225   9.292   4.852   0.900
 1180SOL     OW22226   6.472   6.943   7.554
 1180SOL    HW122227   6.395   6.987   7.599
 1180SOL    HW222228   6.491   6.854   7.597
 1181SOL     OW22229   1.262   1.710   0.985
 1181SOL    HW122230   1.296   1.659   1.064
 1181SOL    HW222231   1.229   1.799   1.015
 1182SOL     OW22232   8.733   2.570   7.556
 1182SOL    HW122233   8.788   2.612   7.629
 1182SOL    HW222234   8.702   2.641   7.493
 1183SOL     OW22235   4.599   3.068   7.801
 1183SOL    HW122236   4.636   3.160   7.814
 1183SOL    HW222237   4.593   3.022   7.890
 1184SOL     OW22238   7.764   1.642   1.149
 1184SOL    HW122239   7.755   1.627   1.051
 1184SOL    HW222240   7.685   1.694   1.182
 1185SOL     OW22241   8.764   9.274   1.238
 1185SOL    HW122242   8.824   9.337   1.188
 1185SOL    HW222243   8.678   9.320   1.261
 1186SOL     OW22244   0.105   5.124   0.263
 1186SOL    HW122245   0.018   5.083   0.238
 1186SOL    HW222246   0.106   5.144   0.361
 1187SOL     OW22247   1.810   7.013   6.027
 1187SOL    HW122248   1.876   7.087   6.041
 1187SOL    HW222249   1.748   7.037   5.952
 1188SOL     OW22250   1.028   8.877   8.347
 1188SOL    HW122251   1.073   8.926   8.272
 1188SOL    HW222252   1.008   8.941   8.421
 1189SOL     OW22253   9.171  10.036   1.322
 1189SOL    HW122254   9.107  10.010   1.250
 1189SOL    HW222255   9.208  10.127   1.302
 1190SOL     OW22256   0.670   7.957   1.028
 1190SOL    HW122257   0.747   7.897   1.052
 1190SOL    HW222258   0.688   8.049   1.064
 1191SOL     OW22259  10.070   8.732   7.513
 1191SOL    HW122260  10.067   8.798   7.438
 1191SOL    HW222261   9.977   8.709   7.542
 1192SOL     OW22262   5.989   7.521   1.457
 1192SOL    HW122263   5.992   7.615   1.424
 1192SOL    HW222264   5.967   7.520   1.554
 1193SOL     OW22265   8.529   7.102   6.757
 1193SOL    HW122266   8.548   7.070   6.665
 1193SOL    HW222267   8.444   7.060   6.790
 1194SOL     OW22268   4.294   7.479   1.721
 1194SOL    HW122269   4.245   7.560   1.690
 1194SOL    HW222270   4.378   7.506   1.768
 1195SOL     OW22271   8.293   9.343   0.599
 1195SOL    HW122272   8.238   9.297   0.669
 1195SOL    HW222273   8.390   9.333   0.622
 1196SOL     OW22274   2.867   5.166   7.974
 1196SOL    HW122275   2.880   5.072   7.943
 1196SOL    HW222276   2.774   5.177   8.010
 1197SOL     OW22277   0.733   8.561   2.083
 1197SOL    HW122278   0.741   8.499   2.161
 1197SOL    HW222279   0.714   8.507   2.001
 1198SOL     OW22280   2.108   8.262   7.565
 1198SOL    HW122281   2.009   8.245   7.561
 1198SOL    HW222282   2.132   8.333   7.499
 1199SOL     OW22283   5.945   7.193   8.556
 1199SOL    HW122284   5.847   7.183   8.573
 1199SOL    HW222285   5.965   7.287   8.531
 1200SOL     OW22286   5.314   4.083   2.093
 1200SOL    HW122287   5.258   4.099   2.174
 1200SOL    HW222288   5.342   3.987   2.090
 1201SOL     OW22289   4.758   1.345   7.834
 1201SOL    HW122290   4.810   1.283   7.892
 1201SOL    HW222291   4.723   1.421   7.888
 1202SOL     OW22292   1.893   9.259   0.840
 1202SOL    HW122293   1.826   9.254   0.766
 1202SOL    HW222294   1.881   9.344   0.891
 1203SOL     OW22295   8.942   8.049   7.632
 1203SOL    HW122296   9.036   8.080   7.612
 1203SOL    HW222297   8.879   8.092   7.568
 1204SOL     OW22298   7.894   3.690   1.441
 1204SOL    HW122299   7.804   3.711   1.478
 1204SOL    HW222300   7.927   3.603   1.479
 1205SOL     OW22301   8.101   8.703   0.848
 1205SOL    HW122302   8.172   8.731   0.913
 1205SOL    HW222303   8.078   8.607   0.865
 1206SOL     OW22304   5.943   0.505   8.269
 1206SOL    HW122305   5.994   0.510   8.184
 1206SOL    HW222306   5.850   0.471   8.251
 1207SOL     OW22307   9.005   0.869   8.278
 1207SOL    HW122308   9.007   0.870   8.378
 1207SOL    HW222309   8.961   0.785   8.247
 1208SOL     OW22310   1.622   5.652   7.780
 1208SOL    HW122311   1.640   5.584   7.851
 1208SOL    HW222312   1.537   5.700   7.801
 1209SOL     OW22313   4.672   2.027   0.573
 1209SOL    HW122314   4.767   2.038   0.544
 1209SOL    HW222315   4.618   2.105   0.543
 1210SOL     OW22316   9.771   4.126   7.199
 1210SOL    HW122317   9.762   4.211   7.148
 1210SOL    HW222318   9.680   4.094   7.228
 1211SOL     OW22319   3.791   0.549   6.854
 1211SOL    HW122320   3.843   0.629   6.883
 1211SOL    HW222321   3.845   0.496   6.789
 1212SOL     OW22322  10.130   0.667   0.097
 1212SOL    HW122323  10.057   0.652   0.031
 1212SOL    HW222324  10.093   0.662   0.190
 1213SOL     OW22325   0.653   9.095   0.613
 1213SOL    HW122326   0.707   9.173   0.643
 1213SOL    HW222327   0.565   9.126   0.578
 1214SOL     OW22328   4.489   7.132   1.518
 1214SOL    HW122329   4.580   7.140   1.478
 1214SOL    HW222330   4.495   7.141   1.618
 1215SOL     OW22331   2.932   4.561   8.546
 1215SOL    HW122332   3.026   4.540   8.573
 1215SOL    HW222333   2.933   4.609   8.459
 1216SOL     OW22334   6.229   1.585   1.615
 1216SOL    HW122335   6.307   1.620   1.564
 1216SOL    HW222336   6.171   1.530   1.554
 1217SOL     OW22337   1.512   2.461   1.087
 1217SOL    HW122338   1.588   2.526   1.079
 1217SOL    HW222339   1.427   2.505   1.060
 1218SOL     OW22340   6.885   3.803   2.115
 1218SOL    HW122341   6.906   3.754   2.031
 1218SOL    HW222342   6.861   3.897   2.094
 1219SOL     OW22343   2.859   7.168   0.352
 1219SOL    HW122344   2.778   7.218   0.320
 1219SOL    HW222345   2.892   7.210   0.437
 1220SOL     OW22346   8.735   0.641   1.626
 1220SOL    HW122347   8.833   0.662   1.620
 1220SOL    HW222348   8.724   0.546   1.656
 1221SOL     OW22349   8.759   0.981   7.948
 1221SOL    HW122350   8.856   0.966   7.933
 1221SOL    HW222351   8.724   0.913   8.013
 1222SOL     OW22352   8.613   5.270   0.353
 1222SOL    HW122353   8.626   5.181   0.308
 1222SOL    HW222354   8.695   5.293   0.405
 1223SOL     OW22355   4.214   5.048   8.017
 1223SOL    HW122356   4.203   5.114   7.942
 1223SOL    HW222357   4.262   4.967   7.984
 1224SOL     OW22358   1.900   9.487   1.002
 1224SOL    HW122359   1.997   9.470   1.014
 1224SOL    HW222360   1.849   9.444   1.076
 1225SOL     OW22361   8.154   3.345   8.759
 1225SOL    HW122362   8.138   3.444   8.758
 1225SOL    HW222363   8.224   3.324   0.045
 1226SOL     OW22364   1.805   7.272   8.335
 1226SOL    HW122365   1.711   7.272   8.302
 1226SOL    HW222366   1.858   7.206   8.281
 1227SOL     OW22367   6.549   9.900   0.529
 1227SOL    HW122368   6.619   9.959   0.569
 1227SOL    HW222369   6.591   9.844   0.457
 1228SOL     OW22370   1.009   9.292   1.768
 1228SOL    HW122371   0.974   9.384   1.789
 1228SOL    HW222372   1.007   9.236   1.850
 1229SOL     OW22373   5.452   2.624   6.404
 1229SOL    HW122374   5.375   2.685   6.390
 1229SOL    HW222375   5.488   2.635   6.497
 1230SOL     OW22376   8.709   8.137   8.100
 1230SOL    HW122377   8.622   8.125   8.051
 1230SOL    HW222378   8.743   8.048   8.130
 1231SOL     OW22379   4.761   0.244   0.322
 1231SOL    HW122380   4.673   0.279   0.291
 1231SOL    HW222381   4.780   0.280   0.414
 1232SOL     OW22382   4.605   8.418   8.541
 1232SOL    HW122383   4.693   8.461   8.561
 1232SOL    HW222384   4.599   8.331   8.589
 1233SOL     OW22385   5.081   2.299   0.571
 1233SOL    HW122386   5.049   2.378   0.623
 1233SOL    HW222387   5.175   2.277   0.598
 1234SOL     OW22388   3.890   3.808   1.467
 1234SOL    HW122389   3.867   3.811   1.370
 1234SOL    HW222390   3.905   3.713   1.495
 1235SOL     OW22391   4.627   8.597   1.243
 1235SOL    HW122392   4.616   8.526   1.312
 1235SOL    HW222393   4.695   8.567   1.175
 1236SOL     OW22394   3.100   5.255   7.032
 1236SOL    HW122395   3.051   5.308   7.101
 1236SOL    HW222396   3.049   5.256   6.946
 1237SOL     OW22397   0.133   2.693   7.333
 1237SOL    HW122398   0.052   2.748   7.315
 1237SOL    HW222399   0.208   2.753   7.363
 1238SOL     OW22400   5.342   7.056   0.705
 1238SOL    HW122401   5.388   7.000   0.774
 1238SOL    HW222402   5.269   7.109   0.749
 1239SOL     OW22403   2.645   1.190   2.009
 1239SOL    HW122404   2.706   1.237   2.073
 1239SOL    HW222405   2.686   1.102   1.984
 1240SOL     OW22406   2.765   7.817   1.207
 1240SOL    HW122407   2.808   7.895   1.252
 1240SOL    HW222408   2.718   7.760   1.275
 1241SOL     OW22409   0.197   4.480   1.430
 1241SOL    HW122410   0.207   4.385   1.459
 1241SOL    HW222411   0.100   4.507   1.435
 1242SOL     OW22412   4.002   7.545   8.732
 1242SOL    HW122413   4.069   7.478   8.761
 1242SOL    HW222414   4.040   7.602   8.659
 1243SOL     OW22415   5.442   7.211   7.300
 1243SOL    HW122416   5.416   7.153   7.377
 1243SOL    HW222417   5.478   7.298   7.335
 1244SOL     OW22418   5.308   2.114   1.478
 1244SOL    HW122419   5.230   2.165   1.514
 1244SOL    HW222420   5.293   2.016   1.489
 1245SOL     OW22421   3.248   7.523   7.731
 1245SOL    HW122422   3.297   7.523   7.818
 1245SOL    HW222423   3.311   7.494   7.658
 1246SOL     OW22424   8.921   9.513   1.424
 1246SOL    HW122425   8.838   9.554   1.385
 1246SOL    HW222426   8.999   9.533   1.365
 1247SOL     OW22427   2.499   6.669   6.751
 1247SOL    HW122428   2.554   6.690   6.832
 1247SOL    HW222429   2.426   6.736   6.741
 1248SOL     OW22430   6.965   5.939   6.375
 1248SOL    HW122431   6.878   5.965   6.416
 1248SOL    HW222432   6.949   5.900   6.284
 1249SOL     OW22433   2.014   1.439   8.475
 1249SOL    HW122434   2.029   1.505   8.402
 1249SOL    HW222435   2.049   1.476   8.561
 1250SOL     OW22436   8.052   2.289   2.250
 1250SOL    HW122437   8.095   2.378   2.236
 1250SOL    HW222438   8.045   2.240   2.163
 1251SOL     OW22439   7.338   1.023   0.946
 1251SOL    HW122440   7.394   1.057   1.021
 1251SOL    HW222441   7.335   1.092   0.873
 1252SOL     OW22442   8.330   8.489   1.329
 1252SOL    HW122443   8.245   8.542   1.332
 1252SOL    HW222444   8.399   8.532   1.388
 1253SOL     OW22445   4.823   0.846   1.075
 1253SOL    HW122446   4.900   0.894   1.116
 1253SOL    HW222447   4.851   0.753   1.051
 1254SOL     OW22448   0.137   7.944   6.960
 1254SOL    HW122449   0.108   7.971   7.052
 1254SOL    HW222450   0.103   8.011   6.894
 1255SOL     OW22451   1.455   5.410   0.801
 1255SOL    HW122452   1.361   5.442   0.805
 1255SOL    HW222453   1.500   5.426   0.889
 1256SOL     OW22454   2.493   5.467   1.133
 1256SOL    HW122455   2.450   5.408   1.202
 1256SOL    HW222456   2.423   5.526   1.092
 1257SOL     OW22457   9.705   9.894   7.301
 1257SOL    HW122458   9.687   9.830   7.376
 1257SOL    HW222459   9.693   9.847   7.214
 1258SOL     OW22460   7.180  10.089   2.167
 1258SOL    HW122461   7.236  10.139   2.232
 1258SOL    HW222462   7.141  10.008   2.211
 1259SOL     OW22463   0.122   1.513   7.596
 1259SOL    HW122464   0.033   1.512   7.642
 1259SOL    HW222465   0.186   1.570   7.647
 1260SOL     OW22466   3.167   1.600   1.069
 1260SOL    HW122467   3.086   1.598   1.010
 1260SOL    HW222468   3.139   1.613   1.164
 1261SOL     OW22469   3.403   3.986   1.179
 1261SOL    HW122470   3.380   4.052   1.107
 1261SOL    HW222471   3.328   3.980   1.244
 1262SOL     OW22472   7.460   6.773   6.803
 1262SOL    HW122473   7.479   6.779   6.901
 1262SOL    HW222474   7.421   6.684   6.782
 1263SOL     OW22475   6.358   1.020   8.352
 1263SOL    HW122476   6.375   1.039   8.449
 1263SOL    HW222477   6.301   0.938   8.344
 1264SOL     OW22478   5.147   0.014   0.783
 1264SOL    HW122479   5.209  10.460   0.838
 1264SOL    HW222480   5.142  10.480   0.690
 1265SOL     OW22481   9.051   7.229   0.316
 1265SOL    HW122482   8.985   7.184   0.255
 1265SOL    HW222483   9.035   7.199   0.410
 1266SOL     OW22484   6.338   2.828   6.913
 1266SOL    HW122485   6.426   2.781   6.903
 1266SOL    HW222486   6.273   2.792   6.847
 1267SOL     OW22487   0.158   0.376   0.555
 1267SOL    HW122488   0.101   0.457   0.542
 1267SOL    HW222489   0.248   0.403   0.590
 1268SOL     OW22490   5.033   2.270   6.892
 1268SOL    HW122491   5.093   2.350   6.887
 1268SOL    HW222492   5.010   2.252   6.987
 1269SOL     OW22493   8.259   2.357   8.503
 1269SOL    HW122494   8.256   2.357   8.403
 1269SOL    HW222495   8.349   2.328   8.534
 1270SOL     OW22496   0.510   0.755   7.988
 1270SOL    HW122497   0.563   0.840   7.990
 1270SOL    HW222498   0.436   0.763   7.921
 1271SOL     OW22499   9.780   0.160   8.096
 1271SOL    HW122500   9.709   0.123   8.036
 1271SOL    HW222501   9.826   0.237   8.050
 1272SOL     OW22502   6.657   5.605   8.466
 1272SOL    HW122503   6.709   5.533   8.421
 1272SOL    HW222504   6.635   5.677   8.400
 1273SOL     OW22505   9.787   4.893   0.655
 1273SOL    HW122506   9.718   4.871   0.724
 1273SOL    HW222507   9.819   4.808   0.612
 1274SOL     OW22508   1.395   7.641   1.819
 1274SOL    HW122509   1.354   7.723   1.858
 1274SOL    HW222510   1.495   7.646   1.828
 1275SOL     OW22511   9.117   6.340   7.029
 1275SOL    HW122512   9.131   6.424   7.082
 1275SOL    HW222513   9.164   6.348   6.941
 1276SOL     OW22514   3.399   0.229   1.652
 1276SOL    HW122515   3.467   0.190   1.590
 1276SOL    HW222516   3.426   0.323   1.676
 1277SOL     OW22517   4.904   8.986   1.962
 1277SOL    HW122518   4.974   8.920   1.990
 1277SOL    HW222519   4.847   9.010   2.041
 1278SOL     OW22520   9.813   7.674   7.481
 1278SOL    HW122521   9.731   7.659   7.426
 1278SOL    HW222522   9.801   7.757   7.536
 1279SOL     OW22523   2.243   6.726   0.851
 1279SOL    HW122524   2.282   6.704   0.762
 1279SOL    HW222525   2.291   6.804   0.891
 1280SOL     OW22526   8.107   4.850   0.566
 1280SOL    HW122527   8.120   4.924   0.499
 1280SOL    HW222528   8.119   4.762   0.520
 1281SOL     OW22529   6.150  10.475   2.190
 1281SOL    HW122530   6.149   0.048   2.255
 1281SOL    HW222531   6.111  10.394   2.233
 1282SOL     OW22532   8.214   7.315   0.783
 1282SOL    HW122533   8.217   7.323   0.684
 1282SOL    HW222534   8.294   7.265   0.816
 1283SOL     OW22535   8.556   5.605   6.172
 1283SOL    HW122536   8.607   5.601   6.257
 1283SOL    HW222537   8.574   5.692   6.126
 1284SOL     OW22538   2.734   5.470   0.638
 1284SOL    HW122539   2.664   5.400   0.627
 1284SOL    HW222540   2.702   5.556   0.596
 1285SOL     OW22541   7.159   2.399   7.199
 1285SOL    HW122542   7.181   2.366   7.291
 1285SOL    HW222543   7.081   2.349   7.163
 1286SOL     OW22544   2.752   5.440   8.395
 1286SOL    HW122545   2.798   5.491   8.323
 1286SOL    HW222546   2.687   5.499   8.443
 1287SOL     OW22547   2.812   6.839   8.677
 1287SOL    HW122548   2.747   6.879   8.613
 1287SOL    HW222549   2.900   6.885   8.668
 1288SOL     OW22550   7.887   9.131   8.070
 1288SOL    HW122551   7.968   9.086   8.110
 1288SOL    HW222552   7.816   9.138   8.140
 1289SOL     OW22553   8.738   1.158   8.557
 1289SOL    HW122554   8.698   1.231   8.503
 1289SOL    HW222555   8.699   1.159   8.649
 1290SOL     OW22556   2.886   3.506   0.683
 1290SOL    HW122557   2.974   3.527   0.639
 1290SOL    HW222558   2.852   3.419   0.648
 1291SOL     OW22559   9.941   7.069   8.160
 1291SOL    HW122560   9.941   7.156   8.208
 1291SOL    HW222561   9.958   7.085   8.063
 1292SOL     OW22562   3.225   2.740   8.108
 1292SOL    HW122563   3.304   2.742   8.047
 1292SOL    HW222564   3.144   2.711   8.057
 1293SOL     OW22565   5.535   6.085   7.715
 1293SOL    HW122566   5.550   5.991   7.685
 1293SOL    HW222567   5.519   6.085   7.814
 1294SOL     OW22568   3.371   7.562   7.985
 1294SOL    HW122569   3.453   7.526   8.029
 1294SOL    HW222570   3.375   7.662   7.985
 1295SOL     OW22571   0.470   2.919   0.102
 1295SOL    HW122572   0.501   2.874   0.018
 1295SOL    HW222573   0.394   2.868   0.142
 1296SOL     OW22574   0.058   2.942   6.575
 1296SOL    HW122575   0.120   2.895   6.638
 1296SOL    HW222576  10.125   2.899   6.578
 1297SOL     OW22577   9.569   8.702   0.298
 1297SOL    HW122578   9.569   8.602   0.294
 1297SOL    HW222579   9.485   8.733   0.341
 1298SOL     OW22580   8.757   2.391   7.337
 1298SOL    HW122581   8.738   2.433   7.248
 1298SOL    HW222582   8.769   2.462   7.405
 1299SOL     OW22583   4.675   0.156   6.843
 1299SOL    HW122584   4.689   0.207   6.928
 1299SOL    HW222585   4.618   0.210   6.781
 1300SOL     OW22586   2.615   7.254   7.910
 1300SOL    HW122587   2.672   7.221   7.835
 1300SOL    HW222588   2.631   7.352   7.925
 1301SOL     OW22589   7.999   9.680   2.587
 1301SOL    HW122590   7.946   9.670   2.503
 1301SOL    HW222591   7.972   9.609   2.652
 1302SOL     OW22592   5.442   7.753   2.202
 1302SOL    HW122593   5.368   7.820   2.199
 1302SOL    HW222594   5.413   7.675   2.258
 1303SOL     OW22595   6.316   6.940   6.508
 1303SOL    HW122596   6.277   6.984   6.589
 1303SOL    HW222597   6.310   7.002   6.430
 1304SOL     OW22598   9.573   1.621   2.173
 1304SOL    HW122599   9.541   1.559   2.244
 1304SOL    HW222600   9.641   1.683   2.212
 1305SOL     OW22601   3.926   0.916   1.628
 1305SOL    HW122602   3.987   0.972   1.571
 1305SOL    HW222603   3.940   0.941   1.724
 1306SOL     OW22604   0.271   4.318   6.312
 1306SOL    HW122605   0.212   4.264   6.252
 1306SOL    HW222606   0.362   4.277   6.315
 1307SOL     OW22607   2.626   1.507   0.206
 1307SOL    HW122608   2.627   1.531   0.109
 1307SOL    HW222609   2.559   1.434   0.221
 1308SOL     OW22610   8.763   3.631   0.975
 1308SOL    HW122611   8.692   3.598   0.913
 1308SOL    HW222612   8.754   3.585   1.063
 1309SOL     OW22613   9.476   4.654   6.627
 1309SOL    HW122614   9.415   4.715   6.677
 1309SOL    HW222615   9.424   4.604   6.558
 1310SOL     OW22616   9.561   7.826   0.438
 1310SOL    HW122617   9.506   7.802   0.358
 1310SOL    HW222618   9.642   7.768   0.441
 1311SOL     OW22619   2.375   3.511   1.618
 1311SOL    HW122620   2.439   3.565   1.673
 1311SOL    HW222621   2.424   3.470   1.541
 1312SOL     OW22622   6.716   2.254   7.221
 1312SOL    HW122623   6.732   2.290   7.313
 1312SOL    HW222624   6.646   2.309   7.176
 1313SOL     OW22625   1.141   0.842   7.537
 1313SOL    HW122626   1.137   0.924   7.594
 1313SOL    HW222627   1.233   0.831   7.500
 1314SOL     OW22628   2.789   0.570   7.664
 1314SOL    HW122629   2.792   0.654   7.610
 1314SOL    HW222630   2.861   0.508   7.633
 1315SOL     OW22631   6.865   2.419   0.623
 1315SOL    HW122632   6.935   2.379   0.563
 1315SOL    HW222633   6.902   2.427   0.716
 1316SOL     OW22634   7.787   7.269   1.821
 1316SOL    HW122635   7.753   7.345   1.876
 1316SOL    HW222636   7.773   7.289   1.724
 1317SOL     OW22637   9.896   5.368   0.058
 1317SOL    HW122638   9.918   5.357   8.743
 1317SOL    HW222639   9.941   5.450   0.093
 1318SOL     OW22640   9.611  10.340   7.366
 1318SOL    HW122641   9.673  10.266   7.392
 1318SOL    HW222642   9.664  10.411   7.319
 1319SOL     OW22643   3.912   0.976   8.664
 1319SOL    HW122644   3.854   1.057   8.674
 1319SOL    HW222645   3.956   0.978   8.574
 1320SOL     OW22646   5.062   2.811   7.482
 1320SOL    HW122647   5.030   2.751   7.409
 1320SOL    HW222648   5.159   2.793   7.500
 1321SOL     OW22649   7.729   0.600   8.527
 1321SOL    HW122650   7.773   0.687   8.551
 1321SOL    HW222651   7.745   0.534   8.601
 1322SOL     OW22652   9.819   8.983   8.274
 1322SOL    HW122653   9.858   9.043   8.344
 1322SOL    HW222654   9.823   9.028   8.185
 1323SOL     OW22655   5.314   3.528   7.467
 1323SOL    HW122656   5.334   3.626   7.467
 1323SOL    HW222657   5.217   3.514   7.484
 1324SOL     OW22658   6.481   1.240   8.257
 1324SOL    HW122659   6.464   1.310   8.327
 1324SOL    HW222660   6.448   1.152   8.290
 1325SOL     OW22661   5.665   7.342   1.192
 1325SOL    HW122662   5.642   7.427   1.145
 1325SOL    HW222663   5.690   7.272   1.125
 1326SOL     OW22664   0.827   4.896   7.739
 1326SOL    HW122665   0.921   4.930   7.743
 1326SOL    HW222666   0.776   4.948   7.670
 1327SOL     OW22667   1.585   3.122   7.663
 1327SOL    HW122668   1.523   3.052   7.629
 1327SOL    HW222669   1.635   3.163   7.587
 1328SOL     OW22670   9.009   1.135   8.560
 1328SOL    HW122671   9.038   1.039   8.553
 1328SOL    HW222672   8.910   1.140   8.550
 1329SOL     OW22673   8.345   1.442   0.671
 1329SOL    HW122674   8.403   1.368   0.638
 1329SOL    HW222675   8.374   1.529   0.629
 1330SOL     OW22676   8.443  10.001   0.961
 1330SOL    HW122677   8.422   9.947   0.879
 1330SOL    HW222678   8.384  10.081   0.963
 1331SOL     OW22679   6.126   1.640   7.320
 1331SOL    HW122680   6.095   1.554   7.280
 1331SOL    HW222681   6.224   1.634   7.341
 1332SOL     OW22682   4.366   7.020   6.649
 1332SOL    HW122683   4.385   6.987   6.742
 1332SOL    HW222684   4.442   7.078   6.619
 1333SOL     OW22685   5.166   5.999   0.271
 1333SOL    HW122686   5.202   5.934   0.338
 1333SOL    HW222687   5.066   5.994   0.270
 1334SOL     OW22688   0.836   0.446   6.840
 1334SOL    HW122689   0.922   0.492   6.816
 1334SOL    HW222690   0.790   0.416   6.757
 1335SOL     OW22691  10.055   3.318   8.662
 1335SOL    HW122692  10.153   3.324   8.640
 1335SOL    HW222693  10.014   3.244   8.609
 1336SOL     OW22694   5.750   5.169   6.775
 1336SOL    HW122695   5.658   5.192   6.807
 1336SOL    HW222696   5.747   5.089   6.716
 1337SOL     OW22697   7.414   5.218   1.679
 1337SOL    HW122698   7.486   5.276   1.717
 1337SOL    HW222699   7.441   5.188   1.587
 1338SOL     OW22700   7.126   9.669   7.580
 1338SOL    HW122701   7.142   9.616   7.663
 1338SOL    HW222702   7.176   9.627   7.504
 1339SOL     OW22703   9.860   4.275   1.113
 1339SOL    HW122704   9.851   4.320   1.202
 1339SOL    HW222705   9.915   4.193   1.122
 1340SOL     OW22706  10.087   5.905   0.965
 1340SOL    HW122707  10.071   5.876   0.871
 1340SOL    HW222708  10.018   5.865   1.025
 1341SOL     OW22709   4.218   0.619   7.362
 1341SOL    HW122710   4.278   0.695   7.337
 1341SOL    HW222711   4.167   0.589   7.281
 1342SOL     OW22712   6.416   8.959   1.387
 1342SOL    HW122713   6.413   8.949   1.288
 1342SOL    HW222714   6.511   8.956   1.419
 1343SOL     OW22715   4.704   7.876   7.016
 1343SOL    HW122716   4.763   7.883   6.936
 1343SOL    HW222717   4.643   7.956   7.021
 1344SOL     OW22718   7.963   9.286   7.861
 1344SOL    HW122719   7.938   9.237   7.944
 1344SOL    HW222720   8.063   9.289   7.852
 1345SOL     OW22721   1.811   9.945   7.291
 1345SOL    HW122722   1.884   9.927   7.357
 1345SOL    HW222723   1.804  10.043   7.274
 1346SOL     OW22724   8.746   1.298   2.388
 1346SOL    HW122725   8.691   1.369   2.344
 1346SOL    HW222726   8.819   1.340   2.441
 1347SOL     OW22727   3.352  10.080   6.129
 1347SOL    HW122728   3.252  10.079   6.136
 1347SOL    HW222729   3.380  10.140   6.054
 1348SOL     OW22730   1.074   1.104   8.522
 1348SOL    HW122731   1.085   1.190   8.471
 1348SOL    HW222732   1.044   1.125   8.615
 1349SOL     OW22733   0.448   5.753   6.865
 1349SOL    HW122734   0.368   5.729   6.811
 1349SOL    HW222735   0.517   5.794   6.805
 1350SOL     OW22736   2.444   7.106   6.740
 1350SOL    HW122737   2.395   7.191   6.722
 1350SOL    HW222738   2.536   7.111   6.700
 1351SOL     OW22739   1.506   1.219   6.138
 1351SOL    HW122740   1.547   1.159   6.070
 1351SOL    HW222741   1.572   1.236   6.212
 1352SOL     OW22742   0.735   2.628   0.190
 1352SOL    HW122743   0.752   2.597   0.284
 1352SOL    HW222744   0.637   2.623   0.171
 1353SOL     OW22745   6.712   3.365   8.774
 1353SOL    HW122746   6.678   3.432   0.059
 1353SOL    HW222747   6.707   3.403   8.682
 1354SOL     OW22748   8.072   5.570   7.540
 1354SOL    HW122749   8.114   5.491   7.497
 1354SOL    HW222750   8.131   5.650   7.528
 1355SOL     OW22751   9.753   2.632   2.215
 1355SOL    HW122752   9.710   2.591   2.295
 1355SOL    HW222753   9.841   2.587   2.197
 1356SOL     OW22754   8.138   1.911   7.962
 1356SOL    HW122755   8.214   1.858   7.925
 1356SOL    HW222756   8.173   1.990   8.012
 1357SOL     OW22757   4.362  10.135   8.778
 1357SOL    HW122758   4.415  10.066   8.730
 1357SOL    HW222759   4.421  10.185   0.059
 1358SOL     OW22760   3.673   4.909   8.672
 1358SOL    HW122761   3.694   4.907   8.770
 1358SOL    HW222762   3.708   4.993   8.631
 1359SOL     OW22763   6.342   0.237   0.836
 1359SOL    HW122764   6.330   0.157   0.777
 1359SOL    HW222765   6.421   0.290   0.805
 1360SOL     OW22766   1.504   9.348   7.536
 1360SOL    HW122767   1.541   9.363   7.444
 1360SOL    HW222768   1.579   9.327   7.599
 1361SOL     OW22769   4.752   5.781   1.714
 1361SOL    HW122770   4.837   5.742   1.752
 1361SOL    HW222771   4.674   5.727   1.746
 1362SOL     OW22772   6.161   5.304   0.700
 1362SOL    HW122773   6.182   5.355   0.783
 1362SOL    HW222774   6.065   5.320   0.675
 1363SOL     OW22775   6.693   1.244   6.836
 1363SOL    HW122776   6.781   1.278   6.802
 1363SOL    HW222777   6.654   1.181   6.769
 1364SOL     OW22778   6.484   9.101   0.511
 1364SOL    HW122779   6.392   9.138   0.520
 1364SOL    HW222780   6.479   9.003   0.490
 1365SOL     OW22781   2.282  10.153   6.044
 1365SOL    HW122782   2.209  10.203   6.091
 1365SOL    HW222783   2.242  10.091   5.977
 1366SOL     OW22784   7.901   6.063   6.519
 1366SOL    HW122785   7.824   6.029   6.466
 1366SOL    HW222786   7.985   6.055   6.465
 1367SOL     OW22787   3.961   7.341   1.026
 1367SOL    HW122788   4.043   7.341   1.083
 1367SOL    HW222789   3.977   7.284   0.945
 1368SOL     OW22790   3.175   4.709   6.025
 1368SOL    HW122791   3.217   4.640   5.966
 1368SOL    HW222792   3.127   4.777   5.969
 1369SOL     OW22793   7.740  10.409   2.012
 1369SOL    HW122794   7.678  10.371   2.081
 1369SOL    HW222795   7.818  10.348   2.000
 1370SOL     OW22796   1.154   7.365   7.571
 1370SOL    HW122797   1.183   7.446   7.623
 1370SOL    HW222798   1.169   7.283   7.626
 1371SOL     OW22799   2.792   6.725   8.332
 1371SOL    HW122800   2.759   6.691   8.244
 1371SOL    HW222801   2.779   6.655   8.402
 1372SOL     OW22802   0.852   5.729   1.488
 1372SOL    HW122803   0.904   5.813   1.509
 1372SOL    HW222804   0.805   5.740   1.400
 1373SOL     OW22805   3.324   2.958   6.452
 1373SOL    HW122806   3.249   2.924   6.396
 1373SOL    HW222807   3.410   2.952   6.402
 1374SOL     OW22808   5.302   3.083   0.032
 1374SOL    HW122809   5.353   3.004   0.066
 1374SOL    HW222810   5.240   3.054   8.741
 1375SOL     OW22811   8.943   3.444   1.776
 1375SOL    HW122812   8.928   3.346   1.792
 1375SOL    HW222813   9.031   3.471   1.814
 1376SOL     OW22814   9.317   7.347   0.903
 1376SOL    HW122815   9.411   7.314   0.896
 1376SOL    HW222816   9.271   7.299   0.978
 1377SOL     OW22817   8.826   9.728   0.255
 1377SOL    HW122818   8.822   9.751   0.158
 1377SOL    HW222819   8.742   9.758   0.300
 1378SOL     OW22820   3.431   1.536   8.663
 1378SOL    HW122821   3.367   1.466   8.630
 1378SOL    HW222822   3.419   1.548   8.761
 1379SOL     OW22823   6.418   2.934   8.063
 1379SOL    HW122824   6.413   3.032   8.080
 1379SOL    HW222825   6.325   2.897   8.055
 1380SOL     OW22826   8.488   2.613   7.250
 1380SOL    HW122827   8.435   2.546   7.301
 1380SOL    HW222828   8.546   2.567   7.183
 1381SOL     OW22829   4.623   1.043   8.604
 1381SOL    HW122830   4.671   1.010   8.523
 1381SOL    HW222831   4.655   0.994   8.685
 1382SOL     OW22832   3.236   0.388   7.170
 1382SOL    HW122833   3.234   0.397   7.071
 1382SOL    HW222834   3.321   0.427   7.206
 1383SOL     OW22835   5.642   3.856   0.183
 1383SOL    HW122836   5.727   3.847   0.235
 1383SOL    HW222837   5.655   3.816   0.092
 1384SOL     OW22838   4.976   6.183   8.162
 1384SOL    HW122839   5.051   6.248   8.177
 1384SOL    HW222840   5.013   6.097   8.128
 1385SOL     OW22841   1.956   4.479   8.086
 1385SOL    HW122842   1.860   4.470   8.109
 1385SOL    HW222843   1.966   4.536   8.004
 1386SOL     OW22844   2.613   6.565   1.217
 1386SOL    HW122845   2.704   6.523   1.218
 1386SOL    HW222846   2.592   6.597   1.125
 1387SOL     OW22847   9.148   8.961   0.947
 1387SOL    HW122848   9.079   8.990   1.012
 1387SOL    HW222849   9.111   8.890   0.887
 1388SOL     OW22850   9.402   9.429   0.792
 1388SOL    HW122851   9.326   9.469   0.741
 1388SOL    HW222852   9.381   9.334   0.815
 1389SOL     OW22853   5.812   7.099   0.317
 1389SOL    HW122854   5.843   7.158   0.392
 1389SOL    HW222855   5.728   7.053   0.344
 1390SOL     OW22856   4.017   2.150   1.846
 1390SOL    HW122857   3.928   2.157   1.800
 1390SOL    HW222858   4.068   2.235   1.835
 1391SOL     OW22859   3.245   5.450   8.045
 1391SOL    HW122860   3.308   5.521   8.073
 1391SOL    HW222861   3.275   5.362   8.081
 1392SOL     OW22862   1.290   7.116   0.288
 1392SOL    HW122863   1.339   7.200   0.312
 1392SOL    HW222864   1.277   7.060   0.370
 1393SOL     OW22865   6.503   1.424   2.034
 1393SOL    HW122866   6.469   1.480   1.958
 1393SOL    HW222867   6.506   1.328   2.005
 1394SOL     OW22868   4.444   2.257   6.745
 1394SOL    HW122869   4.514   2.190   6.718
 1394SOL    HW222870   4.364   2.247   6.685
 1395SOL     OW22871   9.256   4.339   8.057
 1395SOL    HW122872   9.324   4.348   7.984
 1395SOL    HW222873   9.254   4.244   8.088
 1396SOL     OW22874   7.193   5.074   2.010
 1396SOL    HW122875   7.185   5.172   2.028
 1396SOL    HW222876   7.217   5.026   2.095
 1397SOL     OW22877   4.355   2.707   7.670
 1397SOL    HW122878   4.350   2.707   7.770
 1397SOL    HW222879   4.376   2.799   7.637
 1398SOL     OW22880   4.593   6.669   1.732
 1398SOL    HW122881   4.645   6.631   1.656
 1398SOL    HW222882   4.649   6.670   1.815
 1399SOL     OW22883   6.830   4.951   7.506
 1399SOL    HW122884   6.746   4.973   7.556
 1399SOL    HW222885   6.890   5.030   7.505
 1400SOL     OW22886   9.807   9.814   7.698
 1400SOL    HW122887   9.806   9.856   7.789
 1400SOL    HW222888   9.850   9.724   7.704
 1401SOL     OW22889   3.379   6.815   0.703
 1401SOL    HW122890   3.401   6.723   0.670
 1401SOL    HW222891   3.391   6.818   0.802
 1402SOL     OW22892   8.909   9.325   8.082
 1402SOL    HW122893   8.856   9.240   8.080
 1402SOL    HW222894   8.886   9.376   8.165
 1403SOL     OW22895   3.937   1.716   7.697
 1403SOL    HW122896   3.877   1.787   7.661
 1403SOL    HW222897   4.027   1.722   7.652
 1404SOL     OW22898   9.724   3.289   7.894
 1404SOL    HW122899   9.669   3.340   7.960
 1404SOL    HW222900   9.666   3.260   7.817
 1405SOL     OW22901   7.685   7.547   8.046
 1405SOL    HW122902   7.727   7.611   8.110
 1405SOL    HW222903   7.671   7.593   7.958
 1406SOL     OW22904   8.218   3.829   7.938
 1406SOL    HW122905   8.236   3.787   8.027
 1406SOL    HW222906   8.304   3.864   7.900
 1407SOL     OW22907   3.402  10.123   7.413
 1407SOL    HW122908   3.326  10.179   7.444
 1407SOL    HW222909   3.469  10.115   7.486
 1408SOL     OW22910   1.583  10.276   8.514
 1408SOL    HW122911   1.635  10.297   8.597
 1408SOL    HW222912   1.628  10.320   8.436
 1409SOL     OW22913   2.780   2.823   1.982
 1409SOL    HW122914   2.824   2.900   2.028
 1409SOL    HW222915   2.689   2.808   2.022
 1410SOL     OW22916   6.380   4.557   7.127
 1410SOL    HW122917   6.343   4.612   7.202
 1410SOL    HW222918   6.309   4.542   7.058
 1411SOL     OW22919   3.829   4.452   7.675
 1411SOL    HW122920   3.790   4.534   7.635
 1411SOL    HW222921   3.769   4.419   7.748
 1412SOL     OW22922   9.421   5.152   0.735
 1412SOL    HW122923   9.381   5.229   0.785
 1412SOL    HW222924   9.411   5.068   0.789
 1413SOL     OW22925   2.644   8.459   6.376
 1413SOL    HW122926   2.612   8.554   6.374
 1413SOL    HW222927   2.731   8.453   6.329
 1414SOL     OW22928   7.769   0.415   0.654
 1414SOL    HW122929   7.709   0.477   0.704
 1414SOL    HW222930   7.811   0.464   0.577
 1415SOL     OW22931   9.075   3.390   8.549
 1415SOL    HW122932   9.007   3.449   8.507
 1415SOL    HW222933   9.081   3.304   8.498
 1416SOL     OW22934   6.543   4.137   7.978
 1416SOL    HW122935   6.557   4.233   7.953
 1416SOL    HW222936   6.602   4.079   7.922
 1417SOL     OW22937   7.090   2.488   2.170
 1417SOL    HW122938   7.102   2.505   2.267
 1417SOL    HW222939   7.025   2.413   2.156
 1418SOL     OW22940   0.763   6.308   1.329
 1418SOL    HW122941   0.765   6.221   1.377
 1418SOL    HW222942   0.827   6.372   1.372
 1419SOL     OW22943   8.505   3.494   0.045
 1419SOL    HW122944   8.573   3.470   8.757
 1419SOL    HW222945   8.442   3.561   0.008
 1420SOL     OW22946   6.117   7.598   0.145
 1420SOL    HW122947   6.132   7.602   0.244
 1420SOL    HW222948   6.199   7.560   0.101
 1421SOL     OW22949   5.264   0.451   8.703
 1421SOL    HW122950   5.282   0.538   8.749
 1421SOL    HW222951   5.168   0.427   8.713
 1422SOL     OW22952   8.352   7.612   0.368
 1422SOL    HW122953   8.255   7.601   0.393
 1422SOL    HW222954   8.391   7.523   0.346
 1423SOL     OW22955   1.535   1.528   6.986
 1423SOL    HW122956   1.462   1.464   7.012
 1423SOL    HW222957   1.582   1.494   6.904
 1424SOL     OW22958   1.083   6.659   1.338
 1424SOL    HW122959   1.148   6.714   1.390
 1424SOL    HW222960   1.000   6.712   1.320
 1425SOL     OW22961   9.026   6.532   6.476
 1425SOL    HW122962   8.940   6.584   6.475
 1425SOL    HW222963   9.018   6.455   6.540
 1426SOL     OW22964   4.522   0.165   0.874
 1426SOL    HW122965   4.479   0.225   0.806
 1426SOL    HW222966   4.546   0.218   0.955
 1427SOL     OW22967   1.597   5.776   6.733
 1427SOL    HW122968   1.662   5.848   6.708
 1427SOL    HW222969   1.504   5.809   6.720
 1428SOL     OW22970   6.945   4.655   7.646
 1428SOL    HW122971   6.880   4.584   7.674
 1428SOL    HW222972   6.918   4.692   7.557
 1429SOL     OW22973   9.437   0.696   8.038
 1429SOL    HW122974   9.437   0.718   8.136
 1429SOL    HW222975   9.360   0.635   8.019
 1430SOL     OW22976   6.108   0.618   1.570
 1430SOL    HW122977   6.124   0.534   1.517
 1430SOL    HW222978   6.118   0.697   1.509
 1431SOL     OW22979   4.327   4.225   0.521
 1431SOL    HW122980   4.378   4.182   0.446
 1431SOL    HW222981   4.268   4.297   0.484
 1432SOL     OW22982   3.578   3.800   6.417
 1432SOL    HW122983   3.611   3.799   6.323
 1432SOL    HW222984   3.481   3.774   6.419
 1433SOL     OW22985   6.280   4.645   0.838
 1433SOL    HW122986   6.337   4.563   0.830
 1433SOL    HW222987   6.255   4.678   0.747
 1434SOL     OW22988   6.824   4.996   0.185
 1434SOL    HW122989   6.758   5.063   0.219
 1434SOL    HW222990   6.836   5.008   0.086
 1435SOL     OW22991   4.644   6.329   7.760
 1435SOL    HW122992   4.702   6.317   7.841
 1435SOL    HW222993   4.676   6.408   7.708
 1436SOL     OW22994   7.486   3.998   0.461
 1436SOL    HW122995   7.492   3.946   0.376
 1436SOL    HW222996   7.474   3.935   0.538
 1437SOL     OW22997   6.576   9.077   2.367
 1437SOL    HW122998   6.605   9.171   2.350
 1437SOL    HW222999   6.500   9.077   2.433
 1438SOL     OW23000   0.148   8.892   0.667
 1438SOL    HW123001   0.067   8.863   0.719
 1438SOL    HW223002   0.174   8.985   0.696
 1439SOL     OW23003   2.169   7.716   0.486
 1439SOL    HW123004   2.132   7.675   0.569
 1439SOL    HW223005   2.269   7.714   0.489
 1440SOL     OW23006   0.846   9.285   0.677
 1440SOL    HW123007   0.876   9.246   0.764
 1440SOL    HW223008   0.923   9.289   0.614
 1441SOL     OW23009   6.866   9.332   7.173
 1441SOL    HW123010   6.811   9.263   7.124
 1441SOL    HW223011   6.813   9.416   7.182
 1442SOL     OW23012   9.568   7.358   7.833
 1442SOL    HW123013   9.586   7.393   7.742
 1442SOL    HW223014   9.490   7.295   7.830
 1443SOL     OW23015   6.223   7.626   1.116
 1443SOL    HW123016   6.273   7.644   1.031
 1443SOL    HW223017   6.225   7.708   1.174
 1444SOL     OW23018   2.171   1.782   0.906
 1444SOL    HW123019   2.176   1.876   0.871
 1444SOL    HW223020   2.085   1.771   0.957
 1445SOL     OW23021   3.799   2.749   6.429
 1445SOL    HW123022   3.745   2.665   6.421
 1445SOL    HW223023   3.896   2.727   6.416
 1446SOL     OW23024   5.458   1.881   7.895
 1446SOL    HW123025   5.531   1.815   7.879
 1446SOL    HW223026   5.448   1.897   7.993
 1447SOL     OW23027   3.901   4.431   0.455
 1447SOL    HW123028   3.822   4.370   0.452
 1447SOL    HW223029   3.893   4.493   0.532
 1448SOL     OW23030   6.105   0.582   6.451
 1448SOL    HW123031   6.040   0.508   6.436
 1448SOL    HW223032   6.144   0.611   6.364
 1449SOL     OW23033   3.641   5.590   7.458
 1449SOL    HW123034   3.553   5.579   7.504
 1449SOL    HW223035   3.639   5.543   7.369
 1450SOL     OW23036   6.811   4.517   8.450
 1450SOL    HW123037   6.811   4.456   8.529
 1450SOL    HW223038   6.903   4.522   8.412
 1451SOL     OW23039   1.779   7.137   6.890
 1451SOL    HW123040   1.861   7.113   6.838
 1451SOL    HW223041   1.799   7.131   6.988
 1452SOL     OW23042   5.543   2.576   1.277
 1452SOL    HW123043   5.486   2.543   1.351
 1452SOL    HW223044   5.524   2.673   1.261
 1453SOL     OW23045   3.562   0.138   6.164
 1453SOL    HW123046   3.590   0.185   6.081
 1453SOL    HW223047   3.632   0.072   6.191
 1454SOL     OW23048   7.023   1.603   1.249
 1454SOL    HW123049   7.092   1.649   1.194
 1454SOL    HW223050   7.008   1.655   1.333
 1455SOL     OW23051   8.009   9.370   8.290
 1455SOL    HW123052   8.054   9.439   8.346
 1455SOL    HW223053   8.071   9.342   8.216
 1456SOL     OW23054   1.874   5.628   8.351
 1456SOL    HW123055   1.843   5.682   8.429
 1456SOL    HW223056   1.918   5.689   8.284
 1457SOL     OW23057   0.838   7.196   2.349
 1457SOL    HW123058   0.799   7.108   2.322
 1457SOL    HW223059   0.767   7.253   2.389
 1458SOL     OW23060   8.969   0.779   0.873
 1458SOL    HW123061   8.996   0.862   0.922
 1458SOL    HW223062   8.910   0.804   0.796
 1459SOL     OW23063   1.525   9.518   1.702
 1459SOL    HW123064   1.504   9.423   1.725
 1459SOL    HW223065   1.595   9.553   1.765
 1460SOL     OW23066   7.318   1.939   0.733
 1460SOL    HW123067   7.275   2.004   0.795
 1460SOL    HW223068   7.278   1.849   0.746
 1461SOL     OW23069   6.316   9.581   1.511
 1461SOL    HW123070   6.237   9.544   1.559
 1461SOL    HW223071   6.286   9.624   1.426
 1462SOL     OW23072   2.854   0.945   1.546
 1462SOL    HW123073   2.789   0.903   1.610
 1462SOL    HW223074   2.804   0.994   1.475
 1463SOL     OW23075   9.385   4.047   0.369
 1463SOL    HW123076   9.331   4.121   0.330
 1463SOL    HW223077   9.473   4.083   0.402
 1464SOL     OW23078   6.272   0.013   1.742
 1464SOL    HW123079   6.295   0.030   1.838
 1464SOL    HW223080   6.354  10.487   1.693
 1465SOL     OW23081   8.570   6.643   6.686
 1465SOL    HW123082   8.535   6.689   6.767
 1465SOL    HW223083   8.505   6.654   6.611
 1466SOL     OW23084   7.464   0.379   0.908
 1466SOL    HW123085   7.392   0.384   0.977
 1466SOL    HW223086   7.426   0.345   0.822
 1467SOL     OW23087   0.500   2.529   0.597
 1467SOL    HW123088   0.419   2.565   0.643
 1467SOL    HW223089   0.559   2.484   0.664
 1468SOL     OW23090   0.403   4.656   1.179
 1468SOL    HW123091   0.391   4.728   1.247
 1468SOL    HW223092   0.336   4.666   1.106
 1469SOL     OW23093   3.832   5.888   7.162
 1469SOL    HW123094   3.756   5.953   7.163
 1469SOL    HW223095   3.899   5.917   7.094
 1470SOL     OW23096   1.891   2.432   7.143
 1470SOL    HW123097   1.954   2.510   7.147
 1470SOL    HW223098   1.885   2.399   7.049
 1471SOL     OW23099   1.472   1.716   8.772
 1471SOL    HW123100   1.533   1.646   8.734
 1471SOL    HW223101   1.442   1.777   8.698
 1472SOL     OW23102   5.400   5.799   0.933
 1472SOL    HW123103   5.492   5.776   0.962
 1472SOL    HW223104   5.393   5.898   0.920
 1473SOL     OW23105   7.118   6.053   2.044
 1473SOL    HW123106   7.058   5.991   2.094
 1473SOL    HW223107   7.063   6.121   1.996
 1474SOL     OW23108   4.321   5.307   1.673
 1474SOL    HW123109   4.236   5.286   1.721
 1474SOL    HW223110   4.351   5.226   1.622
 1475SOL     OW23111   6.055   7.928   8.605
 1475SOL    HW123112   5.963   7.888   8.598
 1475SOL    HW223113   6.089   7.917   8.698
 1476SOL     OW23114   9.467   5.632   8.005
 1476SOL    HW123115   9.428   5.700   8.067
 1476SOL    HW223116   9.420   5.545   8.017
 1477SOL     OW23117   6.170   5.095   8.336
 1477SOL    HW123118   6.227   5.060   8.411
 1477SOL    HW223119   6.092   5.034   8.323
 1478SOL     OW23120   2.767   1.504   8.140
 1478SOL    HW123121   2.841   1.550   8.188
 1478SOL    HW223122   2.689   1.493   8.201
 1479SOL     OW23123   5.282   7.226   8.402
 1479SOL    HW123124   5.221   7.176   8.463
 1479SOL    HW223125   5.337   7.162   8.349
 1480SOL     OW23126   9.844   4.458   6.096
 1480SOL    HW123127   9.797   4.371   6.085
 1480SOL    HW223128   9.804   4.526   6.035
 1481SOL     OW23129   8.050   9.911   1.443
 1481SOL    HW123130   8.011   9.819   1.442
 1481SOL    HW223131   8.094   9.927   1.531
 1482SOL     OW23132   2.897  10.223   6.537
 1482SOL    HW123133   2.908  10.244   6.634
 1482SOL    HW223134   2.817  10.272   6.502
 1483SOL     OW23135   8.975   0.398   1.735
 1483SOL    HW123136   9.032   0.401   1.653
 1483SOL    HW223137   9.032   0.380   1.815
 1484SOL     OW23138   3.546   5.189   0.663
 1484SOL    HW123139   3.485   5.138   0.724
 1484SOL    HW223140   3.590   5.126   0.600
 1485SOL     OW23141   4.927   0.963   7.896
 1485SOL    HW123142   4.945   0.868   7.922
 1485SOL    HW223143   4.830   0.973   7.870
 1486SOL     OW23144   1.293   6.984   7.107
 1486SOL    HW123145   1.288   7.027   7.197
 1486SOL    HW223146   1.201   6.961   7.075
 1487SOL     OW23147   6.922   7.054   2.045
 1487SOL    HW123148   6.994   7.055   2.115
 1487SOL    HW223149   6.876   7.143   2.043
 1488SOL     OW23150   9.786   6.416   1.389
 1488SOL    HW123151   9.734   6.403   1.473
 1488SOL    HW223152   9.804   6.327   1.347
 1489SOL     OW23153   8.762   9.922   1.560
 1489SOL    HW123154   8.768  10.005   1.616
 1489SOL    HW223155   8.795   9.844   1.612
 1490SOL     OW23156   2.135  10.304   8.353
 1490SOL    HW123157   2.128  10.259   8.442
 1490SOL    HW223158   2.125  10.403   8.364
 1491SOL     OW23159   0.491   3.446   0.615
 1491SOL    HW123160   0.567   3.414   0.557
 1491SOL    HW223161   0.485   3.545   0.611
 1492SOL     OW23162   0.200   2.003   0.603
 1492SOL    HW123163   0.268   1.969   0.669
 1492SOL    HW223164   0.108   1.993   0.642
 1493SOL     OW23165   8.848   1.017   1.207
 1493SOL    HW123166   8.927   0.991   1.151
 1493SOL    HW223167   8.765   0.981   1.167
 1494SOL     OW23168   4.237   8.701   0.863
 1494SOL    HW123169   4.228   8.785   0.917
 1494SOL    HW223170   4.155   8.690   0.806
 1495SOL     OW23171   1.072   3.966   7.948
 1495SOL    HW123172   1.124   3.883   7.926
 1495SOL    HW223173   1.050   4.015   7.864
 1496SOL     OW23174   6.807  10.010   0.192
 1496SOL    HW123175   6.845   9.967   0.110
 1496SOL    HW223176   6.879  10.062   0.238
 1497SOL     OW23177   7.608   2.511   1.423
 1497SOL    HW123178   7.556   2.597   1.426
 1497SOL    HW223179   7.647   2.500   1.332
 1498SOL     OW23180   9.805   1.122   8.479
 1498SOL    HW123181   9.867   1.195   8.510
 1498SOL    HW223182   9.726   1.162   8.434
 1499SOL     OW23183   5.214   7.241   7.156
 1499SOL    HW123184   5.296   7.224   7.210
 1499SOL    HW223185   5.216   7.335   7.121
 1500SOL     OW23186   0.039   4.053   7.109
 1500SOL    HW123187   0.106   3.980   7.096
 1500SOL    HW223188  10.113   4.016   7.150
 1501SOL     OW23189   1.857   9.758   0.940
 1501SOL    HW123190   1.853   9.756   0.840
 1501SOL    HW223191   1.891   9.670   0.974
 1502SOL     OW23192   5.558   3.539   0.525
 1502SOL    HW123193   5.575   3.600   0.602
 1502SOL    HW223194   5.495   3.466   0.552
 1503SOL     OW23195   9.780   7.622   0.085
 1503SOL    HW123196   9.841   7.673   0.145
 1503SOL    HW223197   9.819   7.618   8.775
 1504SOL     OW23198   4.014   5.672   7.163
 1504SOL    HW123199   4.043   5.657   7.068
 1504SOL    HW223200   3.944   5.743   7.165
 1505SOL     OW23201   0.708   9.521   0.687
 1505SOL    HW123202   0.675   9.540   0.594
 1505SOL    HW223203   0.758   9.434   0.687
 1506SOL     OW23204   8.967   2.951   1.181
 1506SOL    HW123205   8.985   2.880   1.249
 1506SOL    HW223206   9.018   3.033   1.204
 1507SOL     OW23207   0.573   6.129   8.260
 1507SOL    HW123208   0.553   6.043   8.213
 1507SOL    HW223209   0.489   6.166   8.300
 1508SOL     OW23210   4.933   5.382   8.090
 1508SOL    HW123211   4.965   5.299   8.136
 1508SOL    HW223212   5.012   5.434   8.056
 1509SOL     OW23213   2.005   0.402   1.463
 1509SOL    HW123214   1.940   0.457   1.516
 1509SOL    HW223215   2.044   0.332   1.522
 1510SOL     OW23216   3.068   9.632   6.560
 1510SOL    HW123217   3.013   9.716   6.560
 1510SOL    HW223218   3.022   9.562   6.506
 1511SOL     OW23219   0.003   3.806   1.100
 1511SOL    HW123220  10.107   3.889   1.115
 1511SOL    HW223221   0.090   3.829   1.056
 1512SOL     OW23222   5.680   7.621   7.104
 1512SOL    HW123223   5.744   7.584   7.038
 1512SOL    HW223224   5.600   7.658   7.057
 1513SOL     OW23225   3.334   3.252   7.683
 1513SOL    HW123226   3.397   3.189   7.639
 1513SOL    HW223227   3.269   3.201   7.739
 1514SOL     OW23228   2.887   6.217   0.069
 1514SOL    HW123229   2.854   6.126   0.095
 1514SOL    HW223230   2.984   6.210   0.044
 1515SOL     OW23231   2.090   4.444   2.002
 1515SOL    HW123232   2.182   4.414   2.026
 1515SOL    HW223233   2.023   4.386   2.048
 1516SOL     OW23234   5.297   6.121   8.458
 1516SOL    HW123235   5.208   6.146   8.496
 1516SOL    HW223236   5.319   6.027   8.483
 1517SOL     OW23237   5.714   6.217   1.341
 1517SOL    HW123238   5.718   6.209   1.440
 1517SOL    HW223239   5.627   6.180   1.307
 1518SOL     OW23240   2.359   1.446   6.766
 1518SOL    HW123241   2.459   1.443   6.774
 1518SOL    HW223242   2.332   1.530   6.720
 1519SOL     OW23243  10.000   4.598   8.299
 1519SOL    HW123244  10.097   4.615   8.282
 1519SOL    HW223245   9.987   4.504   8.328
 1520SOL     OW23246   4.569   7.095   0.306
 1520SOL    HW123247   4.579   7.189   0.274
 1520SOL    HW223248   4.656   7.047   0.299
 1521SOL     OW23249   6.334   0.183   7.790
 1521SOL    HW123250   6.406   0.170   7.859
 1521SOL    HW223251   6.260   0.117   7.806
 1522SOL     OW23252   0.663   8.710   0.443
 1522SOL    HW123253   0.714   8.686   0.525
 1522SOL    HW223254   0.574   8.664   0.444
 1523SOL     OW23255   6.713   9.794   7.744
 1523SOL    HW123256   6.686   9.732   7.817
 1523SOL    HW223257   6.712   9.746   7.657
 1524SOL     OW23258   8.988   4.920   0.092
 1524SOL    HW123259   8.977   4.939   0.189
 1524SOL    HW223260   9.003   4.822   0.078
 1525SOL     OW23261   4.340   6.904   7.385
 1525SOL    HW123262   4.240   6.906   7.382
 1525SOL    HW223263   4.374   6.992   7.419
 1526SOL     OW23264   5.118   9.187   0.057
 1526SOL    HW123265   5.147   9.263   0.115
 1526SOL    HW223266   5.143   9.205   8.744
 1527SOL     OW23267   0.025   7.144   7.698
 1527SOL    HW123268   0.075   7.118   7.781
 1527SOL    HW223269   0.088   7.146   7.620
 1528SOL     OW23270   5.939   5.855   6.123
 1528SOL    HW123271   5.964   5.769   6.078
 1528SOL    HW223272   5.866   5.900   6.073
 1529SOL     OW23273   9.759  10.153   8.527
 1529SOL    HW123274   9.798  10.093   8.597
 1529SOL    HW223275   9.724  10.236   8.570
 1530SOL     OW23276   7.565   9.304   2.108
 1530SOL    HW123277   7.584   9.208   2.089
 1530SOL    HW223278   7.546   9.317   2.205
 1531SOL     OW23279   6.723   9.156   0.151
 1531SOL    HW123280   6.681   9.238   0.112
 1531SOL    HW223281   6.775   9.108   0.080
 1532SOL     OW23282   4.720   3.603   6.160
 1532SOL    HW123283   4.634   3.645   6.130
 1532SOL    HW223284   4.754   3.544   6.087
 1533SOL     OW23285   3.497   1.620   1.436
 1533SOL    HW123286   3.558   1.661   1.504
 1533SOL    HW223287   3.535   1.633   1.345
 1534SOL     OW23288   7.438   8.858   6.968
 1534SOL    HW123289   7.481   8.916   7.037
 1534SOL    HW223290   7.381   8.915   6.909
 1535SOL     OW23291   3.986   8.207   2.246
 1535SOL    HW123292   4.019   8.268   2.174
 1535SOL    HW223293   4.059   8.190   2.312
 1536SOL     OW23294   8.781   7.114   7.107
 1536SOL    HW123295   8.743   7.190   7.161
 1536SOL    HW223296   8.779   7.138   7.010
 1537SOL     OW23297   4.660   4.534   0.607
 1537SOL    HW123298   4.577   4.492   0.644
 1537SOL    HW223299   4.740   4.499   0.655
 1538SOL     OW23300   4.245   6.361   7.074
 1538SOL    HW123301   4.189   6.288   7.114
 1538SOL    HW223302   4.231   6.364   6.975
 1539SOL     OW23303   8.503   1.591   0.301
 1539SOL    HW123304   8.469   1.590   0.207
 1539SOL    HW223305   8.583   1.650   0.307
 1540SOL     OW23306   7.494   3.430   8.395
 1540SOL    HW123307   7.445   3.420   8.309
 1540SOL    HW223308   7.510   3.528   8.414
 1541SOL     OW23309   7.924   8.088   7.731
 1541SOL    HW123310   7.847   8.025   7.730
 1541SOL    HW223311   7.947   8.111   7.826
 1542SOL     OW23312   3.867   1.611   0.181
 1542SOL    HW123313   3.885   1.623   0.279
 1542SOL    HW223314   3.845   1.515   0.163
 1543SOL     OW23315   2.802   8.167   0.236
 1543SOL    HW123316   2.896   8.177   0.268
 1543SOL    HW223317   2.750   8.249   0.257
 1544SOL     OW23318   6.852   4.481   1.823
 1544SOL    HW123319   6.894   4.395   1.851
 1544SOL    HW223320   6.821   4.531   1.904
 1545SOL     OW23321   2.888   4.207   6.997
 1545SOL    HW123322   2.794   4.227   6.969
 1545SOL    HW223323   2.910   4.112   6.975
 1546SOL     OW23324   5.012   2.185   1.131
 1546SOL    HW123325   4.976   2.151   1.045
 1546SOL    HW223326   5.106   2.216   1.118
 1547SOL     OW23327   9.474   1.523   8.758
 1547SOL    HW123328   9.550   1.463   8.732
 1547SOL    HW223329   9.391   1.494   8.711
 1548SOL     OW23330   3.500   1.101   8.741
 1548SOL    HW123331   3.450   1.080   8.657
 1548SOL    HW223332   3.457   1.055   0.037
 1549SOL     OW23333   9.414   6.477   6.677
 1549SOL    HW123334   9.385   6.559   6.725
 1549SOL    HW223335   9.512   6.464   6.690
 1550SOL     OW23336   7.444   1.868   1.934
 1550SOL    HW123337   7.480   1.946   1.883
 1550SOL    HW223338   7.454   1.785   1.879
 1551SOL     OW23339   1.440   9.849   7.888
 1551SOL    HW123340   1.500   9.778   7.926
 1551SOL    HW223341   1.435   9.839   7.789
 1552SOL     OW23342   3.745   0.383   6.486
 1552SOL    HW123343   3.704   0.292   6.486
 1552SOL    HW223344   3.725   0.428   6.399
 1553SOL     OW23345   2.097  10.082   7.157
 1553SOL    HW123346   2.177  10.059   7.101
 1553SOL    HW223347   2.017  10.090   7.099
 1554SOL     OW23348   2.680   3.599   7.104
 1554SOL    HW123349   2.683   3.696   7.129
 1554SOL    HW223350   2.772   3.566   7.088
 1555SOL     OW23351   4.797   7.970   0.235
 1555SOL    HW123352   4.788   8.014   0.324
 1555SOL    HW223353   4.714   7.985   0.181
 1556SOL     OW23354   8.210   4.842   6.606
 1556SOL    HW123355   8.178   4.917   6.549
 1556SOL    HW223356   8.146   4.765   6.600
 1557SOL     OW23357   0.347   1.891   0.799
 1557SOL    HW123358   0.410   1.918   0.872
 1557SOL    HW223359   0.277   1.831   0.838
 1558SOL     OW23360   7.658   7.519   2.220
 1558SOL    HW123361   7.567   7.485   2.241
 1558SOL    HW223362   7.725   7.473   2.278
 1559SOL     OW23363   7.663   3.957   7.009
 1559SOL    HW123364   7.631   3.863   7.008
 1559SOL    HW223365   7.763   3.958   7.012
 1560SOL     OW23366   1.572   1.018   7.436
 1560SOL    HW123367   1.639   1.008   7.510
 1560SOL    HW223368   1.531   1.109   7.441
 1561SOL     OW23369   2.179   5.438   8.656
 1561SOL    HW123370   2.091   5.400   8.626
 1561SOL    HW223371   2.232   5.467   8.576
 1562SOL     OW23372   0.299   2.904   7.428
 1562SOL    HW123373   0.396   2.918   7.447
 1562SOL    HW223374   0.250   2.891   7.515
 1563SOL     OW23375   1.638   6.073   7.449
 1563SOL    HW123376   1.581   5.998   7.415
 1563SOL    HW223377   1.711   6.092   7.384
 1564SOL     OW23378   9.809   6.161   1.274
 1564SOL    HW123379   9.805   6.170   1.174
 1564SOL    HW223380   9.882   6.098   1.299
 1565SOL     OW23381   3.090   6.250   8.398
 1565SOL    HW123382   3.145   6.332   8.405
 1565SOL    HW223383   2.998   6.274   8.365
 1566SOL     OW23384   6.172   4.546   6.951
 1566SOL    HW123385   6.132   4.637   6.962
 1566SOL    HW223386   6.166   4.518   6.855
 1567SOL     OW23387   2.284   9.745   8.215
 1567SOL    HW123388   2.206   9.787   8.170
 1567SOL    HW223389   2.360   9.737   8.150
 1568SOL     OW23390   7.271   8.617   7.357
 1568SOL    HW123391   7.327   8.579   7.284
 1568SOL    HW223392   7.178   8.632   7.323
 1569SOL     OW23393   7.506   6.468   6.377
 1569SOL    HW123394   7.506   6.567   6.363
 1569SOL    HW223395   7.587   6.441   6.429
 1570SOL     OW23396   4.362   0.034   7.472
 1570SOL    HW123397   4.345   0.078   7.560
 1570SOL    HW223398   4.275   0.003   7.433
 1571SOL     OW23399   0.314   1.297   7.010
 1571SOL    HW123400   0.344   1.203   7.027
 1571SOL    HW223401   0.392   1.359   7.016
 1572SOL     OW23402   6.419   0.684   1.347
 1572SOL    HW123403   6.362   0.628   1.287
 1572SOL    HW223404   6.516   0.662   1.330
 1573SOL     OW23405   7.031   0.092   6.997
 1573SOL    HW123406   6.953   0.120   6.941
 1573SOL    HW223407   7.021  10.498   7.021
 1574SOL     OW23408   9.234   2.223   7.968
 1574SOL    HW123409   9.277   2.227   8.058
 1574SOL    HW223410   9.145   2.177   7.975
 1575SOL     OW23411   1.754   3.424   0.880
 1575SOL    HW123412   1.654   3.425   0.887
 1575SOL    HW223413   1.785   3.501   0.824
 1576SOL     OW23414   0.014   0.676   8.557
 1576SOL    HW123415  10.085   0.678   8.607
 1576SOL    HW223416   0.065   0.759   8.575
 1577SOL     OW23417   4.021   7.293   1.517
 1577SOL    HW123418   3.970   7.379   1.522
 1577SOL    HW223419   4.119   7.313   1.506
 1578SOL     OW23420   1.762   0.241   7.515
 1578SOL    HW123421   1.835   0.173   7.527
 1578SOL    HW223422   1.802   0.331   7.500
 1579SOL     OW23423   7.548   2.863   0.036
 1579SOL    HW123424   7.600   2.946   0.018
 1579SOL    HW223425   7.477   2.851   8.749
 1580SOL     OW23426   1.522   4.690   6.936
 1580SOL    HW123427   1.615   4.700   6.899
 1580SOL    HW223428   1.523   4.625   7.012
 1581SOL     OW23429   1.637   3.364   8.165
 1581SOL    HW123430   1.729   3.375   8.201
 1581SOL    HW223431   1.608   3.450   8.122
 1582SOL     OW23432   0.410   4.548   0.703
 1582SOL    HW123433   0.352   4.511   0.630
 1582SOL    HW223434   0.419   4.647   0.692
 1583SOL     OW23435   0.027   1.339   8.108
 1583SOL    HW123436   0.097   1.409   8.098
 1583SOL    HW223437   0.043   1.266   8.042
 1584SOL     OW23438   2.970   2.248   0.599
 1584SOL    HW123439   2.976   2.153   0.627
 1584SOL    HW223440   3.061   2.282   0.574
 1585SOL     OW23441   6.861   7.199   7.258
 1585SOL    HW123442   6.820   7.288   7.281
 1585SOL    HW223443   6.949   7.214   7.213
 1586SOL     OW23444   7.683   1.746   7.159
 1586SOL    HW123445   7.610   1.767   7.094
 1586SOL    HW223446   7.749   1.821   7.160
 1587SOL     OW23447   8.570   2.545   6.493
 1587SOL    HW123448   8.641   2.604   6.532
 1587SOL    HW223449   8.553   2.570   6.398
 1588SOL     OW23450   3.187   6.290   2.363
 1588SOL    HW123451   3.124   6.241   2.424
 1588SOL    HW223452   3.247   6.349   2.418
 1589SOL     OW23453   0.336   8.684   1.971
 1589SOL    HW123454   0.386   8.700   2.056
 1589SOL    HW223455   0.263   8.751   1.962
 1590SOL     OW23456   9.822   5.426   8.022
 1590SOL    HW123457   9.862   5.510   8.059
 1590SOL    HW223458   9.811   5.434   7.923
 1591SOL     OW23459   3.019   5.547   7.407
 1591SOL    HW123460   2.985   5.640   7.424
 1591SOL    HW223461   3.021   5.496   7.493
 1592SOL     OW23462   3.088   6.161   7.458
 1592SOL    HW123463   3.184   6.159   7.484
 1592SOL    HW223464   3.065   6.079   7.406
 1593SOL     OW23465  10.080   2.878   8.186
 1593SOL    HW123466  10.067   2.974   8.211
 1593SOL    HW223467   0.020   2.856   8.189
 1594SOL     OW23468   1.644   0.441   0.571
 1594SOL    HW123469   1.652   0.345   0.547
 1594SOL    HW223470   1.736   0.480   0.582
 1595SOL     OW23471   9.123   1.746   7.303
 1595SOL    HW123472   9.057   1.819   7.322
 1595SOL    HW223473   9.188   1.778   7.234
 1596SOL     OW23474   6.738   3.650   2.281
 1596SOL    HW123475   6.795   3.610   2.351
 1596SOL    HW223476   6.793   3.707   2.220
 1597SOL     OW23477   6.306   3.548   1.851
 1597SOL    HW123478   6.221   3.581   1.811
 1597SOL    HW223479   6.372   3.531   1.777
 1598SOL     OW23480   7.067   2.232   7.489
 1598SOL    HW123481   7.042   2.195   7.578
 1598SOL    HW223482   7.040   2.329   7.485
 1599SOL     OW23483   6.981   4.245   0.905
 1599SOL    HW123484   6.966   4.340   0.931
 1599SOL    HW223485   7.003   4.241   0.807
 1600SOL     OW23486   9.759   2.103   6.848
 1600SOL    HW123487   9.776   2.051   6.932
 1600SOL    HW223488   9.685   2.168   6.864
 1601SOL     OW23489   1.633   4.654   8.502
 1601SOL    HW123490   1.549   4.650   8.556
 1601SOL    HW223491   1.710   4.674   8.562
 1602SOL     OW23492   9.625   5.742   1.675
 1602SOL    HW123493   9.605   5.840   1.665
 1602SOL    HW223494   9.687   5.730   1.753
 1603SOL     OW23495   5.289   6.073   0.610
 1603SOL    HW123496   5.343   6.146   0.568
 1603SOL    HW223497   5.316   6.063   0.705
 1604SOL     OW23498   1.067   2.731   1.371
 1604SOL    HW123499   1.132   2.664   1.407
 1604SOL    HW223500   0.978   2.718   1.415
 1605SOL     OW23501   6.452   0.082   8.415
 1605SOL    HW123502   6.510   0.005   8.389
 1605SOL    HW223503   6.508   0.163   8.433
 1606SOL     OW23504   8.791   8.734   1.437
 1606SOL    HW123505   8.822   8.687   1.520
 1606SOL    HW223506   8.706   8.783   1.457
 1607SOL     OW23507   3.784   1.432   7.180
 1607SOL    HW123508   3.776   1.423   7.081
 1607SOL    HW223509   3.717   1.373   7.225
 1608SOL     OW23510   6.331   1.467   8.704
 1608SOL    HW123511   6.271   1.543   8.731
 1608SOL    HW223512   6.289   1.381   8.729
 1609SOL     OW23513   6.753   7.454   7.302
 1609SOL    HW123514   6.815   7.517   7.257
 1609SOL    HW223515   6.725   7.491   7.391
 1610SOL     OW23516   6.301   4.121   0.316
 1610SOL    HW123517   6.260   4.182   0.249
 1610SOL    HW223518   6.359   4.174   0.378
 1611SOL     OW23519   4.221   9.228   0.639
 1611SOL    HW123520   4.236   9.326   0.632
 1611SOL    HW223521   4.123   9.210   0.646
 1612SOL     OW23522   9.650   4.417   6.411
 1612SOL    HW123523   9.748   4.431   6.395
 1612SOL    HW223524   9.602   4.417   6.324
 1613SOL     OW23525   0.960   3.204   6.315
 1613SOL    HW123526   0.988   3.242   6.227
 1613SOL    HW223527   0.891   3.263   6.356
 1614SOL     OW23528   6.413   0.153   1.094
 1614SOL    HW123529   6.386   0.194   1.007
 1614SOL    HW223530   6.456   0.222   1.152
 1615SOL     OW23531   5.634   4.256   0.461
 1615SOL    HW123532   5.638   4.260   0.561
 1615SOL    HW223533   5.611   4.346   0.424
 1616SOL     OW23534   1.808   1.048   1.841
 1616SOL    HW123535   1.797   1.145   1.860
 1616SOL    HW223536   1.719   1.007   1.823
 1617SOL     OW23537   0.428   1.976   7.534
 1617SOL    HW123538   0.489   1.972   7.613
 1617SOL    HW223539   0.472   2.028   7.460
 1618SOL     OW23540   0.463   3.017   6.708
 1618SOL    HW123541   0.493   3.111   6.688
 1618SOL    HW223542   0.540   2.954   6.696
 1619SOL     OW23543   9.571   6.023   0.920
 1619SOL    HW123544   9.597   6.034   0.824
 1619SOL    HW223545   9.475   6.047   0.932
 1620SOL     OW23546   9.199   4.710   1.240
 1620SOL    HW123547   9.184   4.699   1.338
 1620SOL    HW223548   9.216   4.621   1.199
 1621SOL     OW23549   2.006   1.358   0.829
 1621SOL    HW123550   2.076   1.292   0.801
 1621SOL    HW223551   2.027   1.392   0.920
 1622SOL     OW23552   3.363   3.363   7.056
 1622SOL    HW123553   3.296   3.328   6.991
 1622SOL    HW223554   3.315   3.402   7.135
 1623SOL     OW23555   6.701   3.829   0.843
 1623SOL    HW123556   6.632   3.857   0.777
 1623SOL    HW223557   6.786   3.807   0.796
 1624SOL     OW23558   3.014   2.990   7.508
 1624SOL    HW123559   3.104   2.983   7.464
 1624SOL    HW223560   3.017   2.943   7.596
 1625SOL     OW23561   5.801   4.033   8.420
 1625SOL    HW123562   5.773   4.127   8.439
 1625SOL    HW223563   5.897   4.033   8.391
 1626SOL     OW23564   5.333   8.885   0.220
 1626SOL    HW123565   5.245   8.917   0.255
 1626SOL    HW223566   5.352   8.793   0.254
 1627SOL     OW23567   3.039   4.931   0.796
 1627SOL    HW123568   3.078   4.899   0.709
 1627SOL    HW223569   2.940   4.940   0.786
 1628SOL     OW23570   2.557   5.631   1.709
 1628SOL    HW123571   2.579   5.535   1.723
 1628SOL    HW223572   2.637   5.679   1.673
 1629SOL     OW23573   9.701   5.217   6.107
 1629SOL    HW123574   9.632   5.164   6.057
 1629SOL    HW223575   9.721   5.302   6.056
 1630SOL     OW23576   8.776   3.050   0.697
 1630SOL    HW123577   8.871   3.060   0.729
 1630SOL    HW223578   8.775   3.005   0.608
 1631SOL     OW23579   2.928   7.903   8.657
 1631SOL    HW123580   2.856   7.834   8.649
 1631SOL    HW223581   2.991   7.895   8.579
 1632SOL     OW23582   9.563   1.905   7.766
 1632SOL    HW123583   9.614   1.965   7.704
 1632SOL    HW223584   9.533   1.823   7.718
 1633SOL     OW23585   4.339   8.436   6.775
 1633SOL    HW123586   4.285   8.415   6.694
 1633SOL    HW223587   4.431   8.464   6.747
 1634SOL     OW23588   2.162   1.240   8.768
 1634SOL    HW123589   2.168   1.219   8.671
 1634SOL    HW223590   2.090   1.185   0.029
 1635SOL     OW23591   8.326   2.656   7.577
 1635SOL    HW123592   8.371   2.742   7.554
 1635SOL    HW223593   8.233   2.675   7.610
 1636SOL     OW23594   3.760   8.116   0.924
 1636SOL    HW123595   3.823   8.079   0.857
 1636SOL    HW223596   3.739   8.047   0.993
 1637SOL     OW23597   6.872   5.006   2.163
 1637SOL    HW123598   6.971   5.012   2.176
 1637SOL    HW223599   6.828   4.977   2.248
 1638SOL     OW23600   9.920   1.407   8.162
 1638SOL    HW123601   9.927   1.440   8.257
 1638SOL    HW223602  10.011   1.381   8.129
 1639SOL     OW23603   8.966   9.028   1.144
 1639SOL    HW123604   9.008   9.112   1.178
 1639SOL    HW223605   8.947   8.967   1.221
 1640SOL     OW23606   1.959   1.579   1.308
 1640SOL    HW123607   1.998   1.660   1.352
 1640SOL    HW223608   1.970   1.500   1.369
 1641SOL     OW23609   6.280   7.255   6.690
 1641SOL    HW123610   6.245   7.166   6.719
 1641SOL    HW223611   6.380   7.256   6.696
 1642SOL     OW23612   9.800   6.845   7.426
 1642SOL    HW123613   9.738   6.850   7.504
 1642SOL    HW223614   9.760   6.894   7.349
 1643SOL     OW23615   2.390   3.007   7.570
 1643SOL    HW123616   2.310   2.951   7.592
 1643SOL    HW223617   2.439   2.966   7.493
 1644SOL     OW23618   8.463   1.404   6.382
 1644SOL    HW123619   8.437   1.309   6.364
 1644SOL    HW223620   8.554   1.407   6.423
 1645SOL     OW23621   2.472   8.563   8.564
 1645SOL    HW123622   2.550   8.541   8.505
 1645SOL    HW223623   2.500   8.560   8.660
 1646SOL     OW23624   4.436   8.410   7.399
 1646SOL    HW123625   4.455   8.314   7.419
 1646SOL    HW223626   4.408   8.457   7.482
 1647SOL     OW23627   1.092   6.642   6.939
 1647SOL    HW123628   1.046   6.688   6.863
 1647SOL    HW223629   1.125   6.553   6.910
 1648SOL     OW23630   2.236   3.056   5.989
 1648SOL    HW123631   2.214   3.153   5.995
 1648SOL    HW223632   2.335   3.045   5.974
 1649SOL     OW23633   4.450   0.819   0.575
 1649SOL    HW123634   4.386   0.822   0.652
 1649SOL    HW223635   4.526   0.758   0.598
 1650SOL     OW23636   5.440   8.032   0.024
 1650SOL    HW123637   5.425   7.996   0.117
 1650SOL    HW223638   5.353   8.060   8.767
 1651SOL     OW23639   2.768   2.894   8.094
 1651SOL    HW123640   2.690   2.943   8.132
 1651SOL    HW223641   2.829   2.958   8.047
 1652SOL     OW23642   5.500   4.015   0.452
 1652SOL    HW123643   5.545   4.104   0.444
 1652SOL    HW223644   5.401   4.026   0.446
 1653SOL     OW23645   1.083   4.992   7.771
 1653SOL    HW123646   1.147   4.933   7.723
 1653SOL    HW223647   1.119   5.013   7.862
 1654SOL     OW23648   8.225   2.626   1.700
 1654SOL    HW123649   8.222   2.562   1.624
 1654SOL    HW223650   8.141   2.681   1.701
 1655SOL     OW23651   7.501   7.370   7.170
 1655SOL    HW123652   7.563   7.297   7.199
 1655SOL    HW223653   7.502   7.377   7.070
 1656SOL     OW23654   2.656   9.517   0.675
 1656SOL    HW123655   2.733   9.458   0.699
 1656SOL    HW223656   2.617   9.487   0.588
 1657SOL     OW23657   2.200   5.928   6.430
 1657SOL    HW123658   2.287   5.955   6.472
 1657SOL    HW223659   2.172   5.998   6.365
 1658SOL     OW23660   8.848   0.788   7.221
 1658SOL    HW123661   8.794   0.751   7.146
 1658SOL    HW223662   8.787   0.833   7.287
 1659SOL     OW23663   0.646  10.143   1.436
 1659SOL    HW123664   0.693  10.125   1.349
 1659SOL    HW223665   0.703  10.111   1.511
 1660SOL     OW23666   5.311   4.588   7.924
 1660SOL    HW123667   5.321   4.581   7.824
 1660SOL    HW223668   5.390   4.635   7.962
 1661SOL     OW23669   2.547   3.456   7.701
 1661SOL    HW123670   2.638   3.497   7.690
 1661SOL    HW223671   2.547   3.364   7.661
 1662SOL     OW23672   1.030   4.641   6.012
 1662SOL    HW123673   1.086   4.724   6.019
 1662SOL    HW223674   0.939   4.665   5.978
 1663SOL     OW23675   1.174   1.528   0.523
 1663SOL    HW123676   1.257   1.495   0.568
 1663SOL    HW223677   1.145   1.614   0.566
 1664SOL     OW23678   1.004   3.800   1.358
 1664SOL    HW123679   0.912   3.830   1.382
 1664SOL    HW223680   1.064   3.808   1.437
 1665SOL     OW23681   2.178   2.188   6.921
 1665SOL    HW123682   2.150   2.093   6.907
 1665SOL    HW223683   2.118   2.249   6.869
 1666SOL     OW23684  10.053  10.152   1.095
 1666SOL    HW123685  10.130  10.214   1.080
 1666SOL    HW223686  10.062  10.110   1.186
 1667SOL     OW23687   1.406   6.435   7.259
 1667SOL    HW123688   1.433   6.402   7.349
 1667SOL    HW223689   1.487   6.449   7.202
 1668SOL     OW23690   3.749   2.533   0.649
 1668SOL    HW123691   3.702   2.447   0.665
 1668SOL    HW223692   3.765   2.579   0.736
 1669SOL     OW23693   3.402   0.847   6.056
 1669SOL    HW123694   3.358   0.759   6.039
 1669SOL    HW223695   3.387   0.908   5.978
 1670SOL     OW23696   4.407   8.343   0.338
 1670SOL    HW123697   4.348   8.393   0.402
 1670SOL    HW223698   4.502   8.367   0.355
 1671SOL     OW23699   3.264   9.242   1.963
 1671SOL    HW123700   3.228   9.270   2.052
 1671SOL    HW223701   3.325   9.312   1.927
 1672SOL     OW23702   5.186   1.098   1.647
 1672SOL    HW123703   5.202   1.013   1.698
 1672SOL    HW223704   5.264   1.159   1.659
 1673SOL     OW23705   4.483   7.198   8.364
 1673SOL    HW123706   4.447   7.110   8.394
 1673SOL    HW223707   4.450   7.218   8.272
 1674SOL     OW23708   8.809   6.538   6.791
 1674SOL    HW123709   8.722   6.565   6.751
 1674SOL    HW223710   8.848   6.463   6.738
 1675SOL     OW23711   2.534   3.709   6.571
 1675SOL    HW123712   2.455   3.658   6.537
 1675SOL    HW223713   2.617   3.655   6.555
 1676SOL     OW23714   6.648   5.221   0.206
 1676SOL    HW123715   6.669   5.290   0.138
 1676SOL    HW223716   6.574   5.162   0.173
 1677SOL     OW23717   2.661   2.441   1.187
 1677SOL    HW123718   2.736   2.446   1.253
 1677SOL    HW223719   2.649   2.530   1.144
 1678SOL     OW23720   2.159   1.206   8.497
 1678SOL    HW123721   2.114   1.119   8.478
 1678SOL    HW223722   2.096   1.281   8.478
 1679SOL     OW23723   7.966   0.142   7.745
 1679SOL    HW123724   8.023   0.169   7.668
 1679SOL    HW223725   7.988   0.198   7.825
 1680SOL     OW23726   4.892   1.332   2.268
 1680SOL    HW123727   4.801   1.299   2.245
 1680SOL    HW223728   4.935   1.271   2.334
 1681SOL     OW23729   8.731   5.747   7.910
 1681SOL    HW123730   8.663   5.675   7.924
 1681SOL    HW223731   8.685   5.834   7.893
 1682SOL     OW23732   5.321   9.490   0.512
 1682SOL    HW123733   5.284   9.574   0.472
 1682SOL    HW223734   5.392   9.513   0.578
 1683SOL     OW23735   9.698   3.381   0.700
 1683SOL    HW123736   9.795   3.359   0.692
 1683SOL    HW223737   9.647   3.300   0.729
 1684SOL     OW23738   0.250   9.933   0.770
 1684SOL    HW123739   0.310   9.858   0.746
 1684SOL    HW223740   0.198   9.961   0.689
 1685SOL     OW23741   1.845   2.283   1.524
 1685SOL    HW123742   1.937   2.320   1.517
 1685SOL    HW223743   1.788   2.345   1.578
 1686SOL     OW23744   0.987   8.311   6.232
 1686SOL    HW123745   0.944   8.227   6.201
 1686SOL    HW223746   0.921   8.386   6.227
 1687SOL     OW23747   0.460   9.202   8.189
 1687SOL    HW123748   0.467   9.299   8.209
 1687SOL    HW223749   0.545   9.171   8.147
 1688SOL     OW23750   3.693   9.143   7.803
 1688SOL    HW123751   3.636   9.133   7.884
 1688SOL    HW223752   3.787   9.164   7.830
 1689SOL     OW23753   6.294  10.065   8.400
 1689SOL    HW123754   6.258  10.073   8.493
 1689SOL    HW223755   6.384  10.022   8.403
 1690SOL     OW23756  10.143   3.423   8.275
 1690SOL    HW123757   0.035   3.475   8.343
 1690SOL    HW223758  10.065   3.476   8.242
 1691SOL     OW23759   6.631   1.460   1.482
 1691SOL    HW123760   6.564   1.405   1.531
 1691SOL    HW223761   6.724   1.430   1.507
 1692SOL     OW23762   1.310   4.343   1.693
 1692SOL    HW123763   1.253   4.290   1.631
 1692SOL    HW223764   1.254   4.376   1.769
 1693SOL     OW23765   4.592   6.285   6.901
 1693SOL    HW123766   4.584   6.209   6.966
 1693SOL    HW223767   4.670   6.270   6.841
 1694SOL     OW23768   5.933   7.158   8.185
 1694SOL    HW123769   5.843   7.161   8.227
 1694SOL    HW223770   5.986   7.238   8.212
 1695SOL     OW23771   7.595   7.126   7.909
 1695SOL    HW123772   7.643   7.139   7.822
 1695SOL    HW223773   7.554   7.035   7.911
 1696SOL     OW23774  10.000   9.344   0.716
 1696SOL    HW123775  10.097   9.345   0.690
 1696SOL    HW223776   9.950   9.282   0.657
 1697SOL     OW23777   8.114   5.036   6.432
 1697SOL    HW123778   8.091   5.032   6.335
 1697SOL    HW223779   8.099   5.128   6.467
 1698SOL     OW23780   8.665  10.350   7.852
 1698SOL    HW123781   8.759  10.329   7.828
 1698SOL    HW223782   8.614  10.265   7.868
 1699SOL     OW23783   1.141   8.928   7.179
 1699SOL    HW123784   1.074   8.995   7.211
 1699SOL    HW223785   1.094   8.854   7.132
 1700SOL     OW23786   3.978   6.420   0.966
 1700SOL    HW123787   3.910   6.493   0.965
 1700SOL    HW223788   3.932   6.332   0.958
 1701SOL     OW23789   4.236   3.410   0.695
 1701SOL    HW123790   4.301   3.475   0.735
 1701SOL    HW223791   4.157   3.400   0.757
 1702SOL     OW23792   3.894  10.263   8.239
 1702SOL    HW123793   3.944  10.178   8.228
 1702SOL    HW223794   3.919  10.305   8.326
 1703SOL     OW23795   9.493   5.078   8.437
 1703SOL    HW123796   9.570   5.119   8.486
 1703SOL    HW223797   9.439   5.150   8.394
 1704SOL     OW23798   6.613   3.481   2.099
 1704SOL    HW123799   6.660   3.548   2.156
 1704SOL    HW223800   6.515   3.484   2.119
 1705SOL     OW23801   8.418   1.019   8.326
 1705SOL    HW123802   8.433   1.113   8.298
 1705SOL    HW223803   8.357   0.974   8.260
 1706SOL     OW23804   6.140   3.088   7.476
 1706SOL    HW123805   6.192   3.086   7.561
 1706SOL    HW223806   6.107   3.180   7.460
 1707SOL     OW23807   9.759   9.217   7.422
 1707SOL    HW123808   9.703   9.199   7.342
 1707SOL    HW223809   9.736   9.307   7.459
 1708SOL     OW23810   1.300   6.023   7.860
 1708SOL    HW123811   1.214   6.021   7.909
 1708SOL    HW223812   1.374   6.047   7.923
 1709SOL     OW23813   7.962   5.471   6.726
 1709SOL    HW123814   7.900   5.549   6.720
 1709SOL    HW223815   7.923   5.402   6.788
 1710SOL     OW23816   3.580   0.650   8.129
 1710SOL    HW123817   3.489   0.682   8.156
 1710SOL    HW223818   3.625   0.607   8.208
 1711SOL     OW23819   7.618   9.487   0.728
 1711SOL    HW123820   7.587   9.574   0.691
 1711SOL    HW223821   7.607   9.488   0.828
 1712SOL     OW23822   6.935   7.678   0.305
 1712SOL    HW123823   7.001   7.604   0.318
 1712SOL    HW223824   6.882   7.662   0.222
 1713SOL     OW23825   1.325   9.303   7.109
 1713SOL    HW123826   1.277   9.317   7.023
 1713SOL    HW223827   1.304   9.379   7.171
 1714SOL     OW23828   0.281  10.216   1.620
 1714SOL    HW123829   0.190  10.231   1.580
 1714SOL    HW223830   0.274  10.214   1.719
 1715SOL     OW23831   0.437   5.287   8.772
 1715SOL    HW123832   0.416   5.198   8.733
 1715SOL    HW223833   0.360   5.318   0.046
 1716SOL     OW23834   7.854   0.731   6.423
 1716SOL    HW123835   7.844   0.648   6.368
 1716SOL    HW223836   7.765   0.772   6.438
 1717SOL     OW23837   1.261   3.927   1.251
 1717SOL    HW123838   1.264   3.977   1.164
 1717SOL    HW223839   1.168   3.892   1.265
 1718SOL     OW23840   0.446   8.075   2.367
 1718SOL    HW123841   0.362   8.114   2.406
 1718SOL    HW223842   0.525   8.124   2.404
 1719SOL     OW23843   3.157   8.795   1.064
 1719SOL    HW123844   3.243   8.846   1.056
 1719SOL    HW223845   3.080   8.856   1.049
 1720SOL     OW23846   9.008   8.281   6.955
 1720SOL    HW123847   8.918   8.323   6.971
 1720SOL    HW223848   9.066   8.345   6.905
 1721SOL     OW23849   5.122   5.642   0.059
 1721SOL    HW123850   5.108   5.621   0.156
 1721SOL    HW223851   5.154   5.737   0.050
 1722SOL     OW23852   8.468   8.238   0.044
 1722SOL    HW123853   8.372   8.252   0.018
 1722SOL    HW223854   8.511   8.174   8.762
 1723SOL     OW23855   2.692   1.967   8.656
 1723SOL    HW123856   2.666   1.972   8.752
 1723SOL    HW223857   2.611   1.984   8.599
 1724SOL     OW23858   0.707   7.071   2.040
 1724SOL    HW123859   0.631   7.136   2.035
 1724SOL    HW223860   0.712   7.034   2.133
 1725SOL     OW23861   0.228   0.718   0.701
 1725SOL    HW123862   0.279   0.792   0.658
 1725SOL    HW223863   0.155   0.687   0.640
 1726SOL     OW23864   2.122   9.982   5.877
 1726SOL    HW123865   2.142   9.905   5.816
 1726SOL    HW223866   2.048   9.956   5.940
 1727SOL     OW23867   8.547   5.536   7.942
 1727SOL    HW123868   8.590   5.504   7.858
 1727SOL    HW223869   8.493   5.462   7.982
 1728SOL     OW23870   5.857   9.961   7.769
 1728SOL    HW123871   5.885   9.908   7.690
 1728SOL    HW223872   5.888  10.056   7.759
 1729SOL     OW23873   3.978   4.277   8.128
 1729SOL    HW123874   3.950   4.366   8.093
 1729SOL    HW223875   3.994   4.285   8.227
 1730SOL     OW23876   4.272   4.855   8.364
 1730SOL    HW123877   4.298   4.941   8.320
 1730SOL    HW223878   4.312   4.852   8.456
 1731SOL     OW23879   0.823   2.481   7.418
 1731SOL    HW123880   0.890   2.453   7.350
 1731SOL    HW223881   0.761   2.405   7.436
 1732SOL     OW23882   6.362   1.357   0.330
 1732SOL    HW123883   6.263   1.368   0.314
 1732SOL    HW223884   6.412   1.398   0.254
 1733SOL     OW23885   0.371   8.255   6.000
 1733SOL    HW123886   0.361   8.344   6.046
 1733SOL    HW223887   0.459   8.214   6.025
 1734SOL     OW23888   8.478   8.084   7.971
 1734SOL    HW123889   8.411   8.052   8.039
 1734SOL    HW223890   8.437   8.156   7.916
 1735SOL     OW23891   0.211   8.706   8.344
 1735SOL    HW123892   0.150   8.665   8.276
 1735SOL    HW223893   0.292   8.744   8.297
 1736SOL     OW23894   1.566   5.912   6.348
 1736SOL    HW123895   1.551   5.896   6.250
 1736SOL    HW223896   1.500   5.859   6.401
 1737SOL     OW23897   3.590   3.815   7.319
 1737SOL    HW123898   3.504   3.862   7.300
 1737SOL    HW223899   3.624   3.842   7.408
 1738SOL     OW23900   3.777   4.202   1.351
 1738SOL    HW123901   3.736   4.155   1.273
 1738SOL    HW223902   3.769   4.146   1.433
 1739SOL     OW23903   1.357   3.619   1.627
 1739SOL    HW123904   1.449   3.618   1.586
 1739SOL    HW223905   1.352   3.551   1.700
 1740SOL     OW23906   2.641   5.765   0.907
 1740SOL    HW123907   2.709   5.694   0.889
 1740SOL    HW223908   2.641   5.831   0.832
 1741SOL     OW23909   9.020  10.276   1.477
 1741SOL    HW123910   9.050  10.190   1.519
 1741SOL    HW223911   8.921  10.274   1.465
 1742SOL     OW23912   9.979   3.338   0.691
 1742SOL    HW123913  10.054   3.333   0.757
 1742SOL    HW223914   9.982   3.257   0.631
 1743SOL     OW23915   8.475   2.306   8.705
 1743SOL    HW123916   8.570   2.291   8.680
 1743SOL    HW223917   8.434   2.219   8.734
 1744SOL     OW23918   5.016   4.250   8.282
 1744SOL    HW123919   4.934   4.303   8.304
 1744SOL    HW223920   5.076   4.303   8.223
 1745SOL     OW23921   9.888   6.598   6.198
 1745SOL    HW123922   9.867   6.669   6.131
 1745SOL    HW223923   9.965   6.544   6.166
 1746SOL     OW23924   1.856   2.494   0.018
 1746SOL    HW123925   1.812   2.525   8.715
 1746SOL    HW223926   1.861   2.570   0.083
 1747SOL     OW23927   8.771  10.007   1.297
 1747SOL    HW123928   8.772   9.958   1.385
 1747SOL    HW223929   8.678  10.011   1.263
 1748SOL     OW23930   2.855   5.544   0.866
 1748SOL    HW123931   2.807   5.522   0.781
 1748SOL    HW223932   2.948   5.506   0.863
 1749SOL     OW23933   8.137   6.062   7.286
 1749SOL    HW123934   8.091   5.974   7.299
 1749SOL    HW223935   8.073   6.127   7.246
 1750SOL     OW23936   2.904   3.054   6.634
 1750SOL    HW123937   2.852   3.013   6.709
 1750SOL    HW223938   2.909   2.989   6.558
 1751SOL     OW23939   4.414   5.432   1.136
 1751SOL    HW123940   4.475   5.406   1.061
 1751SOL    HW223941   4.447   5.516   1.178
 1752SOL     OW23942   0.302   9.477   0.900
 1752SOL    HW123943   0.279   9.384   0.930
 1752SOL    HW223944   0.218   9.530   0.889
 1753SOL     OW23945   0.300   3.331   0.767
 1753SOL    HW123946   0.320   3.234   0.782
 1753SOL    HW223947   0.371   3.371   0.709
 1754SOL     OW23948   7.336   6.362   0.459
 1754SOL    HW123949   7.403   6.436   0.472
 1754SOL    HW223950   7.330   6.341   0.361
 1755SOL     OW23951   0.724   7.725   0.449
 1755SOL    HW123952   0.680   7.804   0.491
 1755SOL    HW223953   0.656   7.673   0.396
 1756SOL     OW23954   9.933   2.237   6.430
 1756SOL    HW123955   9.931   2.208   6.334
 1756SOL    HW223956  10.002   2.184   6.479
 1757SOL     OW23957   0.673   6.809   7.418
 1757SOL    HW123958   0.730   6.815   7.337
 1757SOL    HW223959   0.723   6.761   7.491
 1758SOL     OW23960   0.421   7.486   0.947
 1758SOL    HW123961   0.516   7.504   0.924
 1758SOL    HW223962   0.372   7.573   0.957
 1759SOL     OW23963   5.801   6.718   1.681
 1759SOL    HW123964   5.754   6.806   1.681
 1759SOL    HW223965   5.883   6.724   1.623
 1760SOL     OW23966   8.244   8.892   6.613
 1760SOL    HW123967   8.200   8.845   6.537
 1760SOL    HW223968   8.324   8.942   6.579
 1761SOL     OW23969   1.969   2.458   0.683
 1761SOL    HW123970   1.874   2.430   0.666
 1761SOL    HW223971   1.969   2.546   0.731
 1762SOL     OW23972   1.093   9.714   7.592
 1762SOL    HW123973   1.000   9.679   7.580
 1762SOL    HW223974   1.157   9.637   7.599
 1763SOL     OW23975   7.502   5.207   6.861
 1763SOL    HW123976   7.568   5.170   6.795
 1763SOL    HW223977   7.418   5.153   6.858
 1764SOL     OW23978   6.984   4.986   0.410
 1764SOL    HW123979   7.079   4.995   0.382
 1764SOL    HW223980   6.924   4.998   0.331
 1765SOL     OW23981   4.629   5.919   1.517
 1765SOL    HW123982   4.543   5.941   1.563
 1765SOL    HW223983   4.685   5.863   1.578
 1766SOL     OW23984   5.582   3.836   1.079
 1766SOL    HW123985   5.672   3.827   1.037
 1766SOL    HW223986   5.511   3.834   1.008
 1767SOL     OW23987   6.737  10.089   0.614
 1767SOL    HW123988   6.835  10.070   0.618
 1767SOL    HW223989   6.720  10.167   0.553
 1768SOL     OW23990   4.826   0.140   7.340
 1768SOL    HW123991   4.907   0.081   7.330
 1768SOL    HW223992   4.744   0.084   7.334
 1769SOL     OW23993   2.137   6.830   8.538
 1769SOL    HW123994   2.045   6.790   8.545
 1769SOL    HW223995   2.182   6.826   8.627
 1770SOL     OW23996   5.522   6.930   6.377
 1770SOL    HW123997   5.564   6.992   6.444
 1770SOL    HW223998   5.593   6.877   6.332
 1771SOL     OW23999   6.180   9.238   7.631
 1771SOL    HW124000   6.142   9.238   7.723
 1771SOL    HW224001   6.257   9.175   7.626
 1772SOL     OW24002  10.157   1.902   2.132
 1772SOL    HW124003   0.063   1.929   2.205
 1772SOL    HW224004  10.100   1.826   2.164
 1773SOL     OW24005   2.802   5.979   0.167
 1773SOL    HW124006   2.817   5.881   0.151
 1773SOL    HW224007   2.770   5.993   0.261
 1774SOL     OW24008   0.998   6.188   6.691
 1774SOL    HW124009   0.928   6.135   6.739
 1774SOL    HW224010   0.955   6.241   6.618
 1775SOL     OW24011   0.491   9.316   1.697
 1775SOL    HW124012   0.544   9.232   1.706
 1775SOL    HW224013   0.474   9.334   1.600
 1776SOL     OW24014   6.592   3.797   6.841
 1776SOL    HW124015   6.647   3.873   6.806
 1776SOL    HW224016   6.564   3.739   6.764
 1777SOL     OW24017   6.928  10.349   0.719
 1777SOL    HW124018   6.855  10.399   0.672
 1777SOL    HW224019   6.986  10.414   0.768
 1778SOL     OW24020   7.533   1.800   1.131
 1778SOL    HW124021   7.469   1.872   1.155
 1778SOL    HW224022   7.494   1.743   1.058
 1779SOL     OW24023   4.353   7.764   1.478
 1779SOL    HW124024   4.430   7.740   1.538
 1779SOL    HW224025   4.267   7.744   1.525
 1780SOL     OW24026   6.375   7.719   7.386
 1780SOL    HW124027   6.293   7.772   7.407
 1780SOL    HW224028   6.454   7.780   7.383
 1781SOL     OW24029   9.473   9.762   1.843
 1781SOL    HW124030   9.526   9.842   1.812
 1781SOL    HW224031   9.409   9.735   1.771
 1782SOL     OW24032   7.262   4.753   1.654
 1782SOL    HW124033   7.257   4.849   1.684
 1782SOL    HW224034   7.169   4.716   1.649
 1783SOL     OW24035   9.590   8.835   8.310
 1783SOL    HW124036   9.682   8.872   8.294
 1783SOL    HW224037   9.523   8.890   8.261
 1784SOL     OW24038   2.410   6.379   7.705
 1784SOL    HW124039   2.367   6.325   7.632
 1784SOL    HW224040   2.467   6.451   7.665
 1785SOL     OW24041   8.295   9.485   0.955
 1785SOL    HW124042   8.357   9.528   0.890
 1785SOL    HW224043   8.203   9.481   0.915
 1786SOL     OW24044   2.656  10.429   1.935
 1786SOL    HW124045   2.731  10.367   1.911
 1786SOL    HW224046   2.648  10.435   2.035
 1787SOL     OW24047   6.194   4.504   1.205
 1787SOL    HW124048   6.142   4.560   1.141
 1787SOL    HW224049   6.186   4.543   1.297
 1788SOL     OW24050   8.993  10.045   7.713
 1788SOL    HW124051   8.954  10.066   7.623
 1788SOL    HW224052   8.966   9.952   7.740
 1789SOL     OW24053   2.142   7.102   8.479
 1789SOL    HW124054   2.142   7.005   8.500
 1789SOL    HW224055   2.106   7.117   8.387
 1790SOL     OW24056   0.127   7.469   8.424
 1790SOL    HW124057   0.070   7.474   8.506
 1790SOL    HW224058   0.138   7.374   8.396
 1791SOL     OW24059   4.658   3.707   6.689
 1791SOL    HW124060   4.637   3.649   6.768
 1791SOL    HW224061   4.753   3.692   6.661
 1792SOL     OW24062   5.415   4.500   8.213
 1792SOL    HW124063   5.428   4.448   8.297
 1792SOL    HW224064   5.496   4.491   8.155
 1793SOL     OW24065   9.543   3.800   6.985
 1793SOL    HW124066   9.501   3.766   6.901
 1793SOL    HW224067   9.605   3.875   6.963
 1794SOL     OW24068   1.793   1.314   1.911
 1794SOL    HW124069   1.870   1.324   1.974
 1794SOL    HW224070   1.711   1.352   1.954
 1795SOL     OW24071   8.393   9.615   6.826
 1795SOL    HW124072   8.337   9.556   6.767
 1795SOL    HW224073   8.337   9.690   6.860
 1796SOL     OW24074   7.309   8.234   7.139
 1796SOL    HW124075   7.231   8.192   7.186
 1796SOL    HW224076   7.301   8.218   7.041
 1797SOL     OW24077   8.498   2.396   1.087
 1797SOL    HW124078   8.529   2.392   1.182
 1797SOL    HW224079   8.428   2.467   1.078
 1798SOL     OW24080   4.310   4.206   2.305
 1798SOL    HW124081   4.315   4.282   2.369
 1798SOL    HW224082   4.215   4.179   2.292
 1799SOL     OW24083   1.575   7.807   0.164
 1799SOL    HW124084   1.674   7.796   0.162
 1799SOL    HW224085   1.548   7.858   0.245
 1800SOL     OW24086   0.266   4.603   6.318
 1800SOL    HW124087   0.280   4.504   6.311
 1800SOL    HW224088   0.353   4.647   6.342
 1801SOL     OW24089   0.687   2.876   6.644
 1801SOL    HW124090   0.647   2.798   6.596
 1801SOL    HW224091   0.748   2.925   6.582
 1802SOL     OW24092   9.603   7.946   1.229
 1802SOL    HW124093   9.553   8.019   1.183
 1802SOL    HW224094   9.546   7.906   1.301
 1803SOL     OW24095   1.714   9.222   0.630
 1803SOL    HW124096   1.703   9.146   0.694
 1803SOL    HW224097   1.660   9.205   0.548
 1804SOL     OW24098   0.520   2.677   7.283
 1804SOL    HW124099   0.609   2.673   7.238
 1804SOL    HW224100   0.454   2.723   7.224
 1805SOL     OW24101   8.303   4.011   6.674
 1805SOL    HW124102   8.352   3.964   6.601
 1805SOL    HW224103   8.348   4.097   6.696
 1806SOL     OW24104   6.434   1.157   8.589
 1806SOL    HW124105   6.359   1.168   8.654
 1806SOL    HW224106   6.454   1.245   8.545
 1807SOL     OW24107   4.623   2.267   8.529
 1807SOL    HW124108   4.710   2.312   8.509
 1807SOL    HW224109   4.613   2.186   8.471
 1808SOL     OW24110   1.046   7.972   0.868
 1808SOL    HW124111   1.067   8.069   0.875
 1808SOL    HW224112   0.994   7.955   0.784
 1809SOL     OW24113   3.384   2.132   5.975
 1809SOL    HW124114   3.447   2.207   5.993
 1809SOL    HW224115   3.424   2.046   6.006
 1810SOL     OW24116   6.545   5.924   0.952
 1810SOL    HW124117   6.469   5.861   0.969
 1810SOL    HW224118   6.533   6.006   1.007
 1811SOL     OW24119   7.826   0.945   0.206
 1811SOL    HW124120   7.806   0.854   0.242
 1811SOL    HW224121   7.919   0.971   0.232
 1812SOL     OW24122   6.177   2.092   7.588
 1812SOL    HW124123   6.188   1.994   7.571
 1812SOL    HW224124   6.256   2.142   7.552
 1813SOL     OW24125   1.676   7.439   0.482
 1813SOL    HW124126   1.712   7.381   0.555
 1813SOL    HW224127   1.601   7.392   0.437
 1814SOL     OW24128   1.697   1.663   6.048
 1814SOL    HW124129   1.791   1.693   6.033
 1814SOL    HW224130   1.676   1.587   5.987
 1815SOL     OW24131   3.548  10.394   7.157
 1815SOL    HW124132   3.457  10.403   7.198
 1815SOL    HW224133   3.610  10.350   7.222
 1816SOL     OW24134   8.751   0.044   6.564
 1816SOL    HW124135   8.656   0.015   6.549
 1816SOL    HW224136   8.800  10.477   6.616
 1817SOL     OW24137   1.685   3.147   0.245
 1817SOL    HW124138   1.723   3.227   0.290
 1817SOL    HW224139   1.586   3.146   0.255
 1818SOL     OW24140   0.129   2.073   8.499
 1818SOL    HW124141   0.142   2.149   8.562
 1818SOL    HW224142   0.032   2.051   8.493
 1819SOL     OW24143   3.225   4.445   7.364
 1819SOL    HW124144   3.324   4.456   7.366
 1819SOL    HW224145   3.190   4.473   7.274
 1820SOL     OW24146   3.823   7.024   0.673
 1820SOL    HW124147   3.742   7.062   0.630
 1820SOL    HW224148   3.867   6.959   0.611
 1821SOL     OW24149   7.690   1.703   7.423
 1821SOL    HW124150   7.785   1.673   7.436
 1821SOL    HW224151   7.671   1.711   7.326
 1822SOL     OW24152   4.088   1.800   0.585
 1822SOL    HW124153   4.162   1.733   0.582
 1822SOL    HW224154   4.124   1.891   0.563
 1823SOL     OW24155   3.561   1.911   0.683
 1823SOL    HW124156   3.501   1.831   0.686
 1823SOL    HW224157   3.647   1.885   0.638
 1824SOL     OW24158   6.016   6.906   8.261
 1824SOL    HW124159   6.027   6.907   8.360
 1824SOL    HW224160   5.991   6.998   8.229
 1825SOL     OW24161   4.350   6.424   1.535
 1825SOL    HW124162   4.393   6.408   1.447
 1825SOL    HW224163   4.335   6.522   1.548
 1826SOL     OW24164   9.910   1.648   0.580
 1826SOL    HW124165   9.999   1.691   0.567
 1826SOL    HW224166   9.880   1.606   0.495
 1827SOL     OW24167   8.433   1.070   7.603
 1827SOL    HW124168   8.334   1.078   7.615
 1827SOL    HW224169   8.464   0.983   7.642
 1828SOL     OW24170   7.089   1.079   0.573
 1828SOL    HW124171   7.183   1.111   0.576
 1828SOL    HW224172   7.042   1.121   0.494
 1829SOL     OW24173   8.162   9.093   1.114
 1829SOL    HW124174   8.190   9.057   1.024
 1829SOL    HW224175   8.114   9.021   1.164
 1830SOL     OW24176   9.909   7.730   8.393
 1830SOL    HW124177   9.978   7.689   8.333
 1830SOL    HW224178   9.936   7.823   8.416
 1831SOL     OW24179   9.862   4.303   8.647
 1831SOL    HW124180   9.776   4.353   8.648
 1831SOL    HW224181   9.904   4.306   8.738
 1832SOL     OW24182   3.178  10.414   1.841
 1832SOL    HW124183   3.167  10.315   1.850
 1832SOL    HW224184   3.275  10.437   1.842
 1833SOL     OW24185   9.214   1.016   1.477
 1833SOL    HW124186   9.243   1.025   1.572
 1833SOL    HW224187   9.117   1.041   1.469
 1834SOL     OW24188   5.144   9.116   1.388
 1834SOL    HW124189   5.150   9.197   1.447
 1834SOL    HW224190   5.061   9.122   1.332
 1835SOL     OW24191   3.965  10.395   8.502
 1835SOL    HW124192   4.058  10.373   8.531
 1835SOL    HW224193   3.900  10.353   8.565
 1836SOL     OW24194   7.162   4.750   7.785
 1836SOL    HW124195   7.182   4.679   7.852
 1836SOL    HW224196   7.087   4.720   7.726
 1837SOL     OW24197   1.690   6.022   0.266
 1837SOL    HW124198   1.760   6.084   0.302
 1837SOL    HW224199   1.729   5.930   0.260
 1838SOL     OW24200   8.681   4.291   0.581
 1838SOL    HW124201   8.647   4.247   0.498
 1838SOL    HW224202   8.716   4.221   0.644
 1839SOL     OW24203   3.997   6.956   6.908
 1839SOL    HW124204   4.075   6.983   6.965
 1839SOL    HW224205   4.023   6.876   6.854
 1840SOL     OW24206   2.863   1.395   0.984
 1840SOL    HW124207   2.789   1.329   0.977
 1840SOL    HW224208   2.946   1.350   1.017
 1841SOL     OW24209   8.014   2.894   1.002
 1841SOL    HW124210   7.974   2.981   1.031
 1841SOL    HW224211   8.093   2.912   0.943
 1842SOL     OW24212   5.465   3.810   8.125
 1842SOL    HW124213   5.502   3.892   8.168
 1842SOL    HW224214   5.366   3.809   8.136
 1843SOL     OW24215   7.729   5.717   7.179
 1843SOL    HW124216   7.684   5.787   7.123
 1843SOL    HW224217   7.746   5.754   7.271
 1844SOL     OW24218   5.783   9.983   8.417
 1844SOL    HW124219   5.836   9.929   8.353
 1844SOL    HW224220   5.718  10.040   8.366
 1845SOL     OW24221   8.012   3.545   0.249
 1845SOL    HW124222   8.038   3.569   0.155
 1845SOL    HW224223   8.093   3.513   0.298
 1846SOL     OW24224   8.426   5.193   8.285
 1846SOL    HW124225   8.507   5.169   8.338
 1846SOL    HW224226   8.345   5.188   8.343
 1847SOL     OW24227   3.800   1.350   0.137
 1847SOL    HW124228   3.874   1.298   0.181
 1847SOL    HW224229   3.771   1.303   0.054
 1848SOL     OW24230   8.355   9.695   7.458
 1848SOL    HW124231   8.379   9.652   7.371
 1848SOL    HW224232   8.273   9.751   7.446
 1849SOL     OW24233   3.754   0.777   8.773
 1849SOL    HW124234   3.822   0.716   0.031
 1849SOL    HW224235   3.799   0.853   8.727
 1850SOL     OW24236   2.253   7.519   8.648
 1850SOL    HW124237   2.211   7.473   8.726
 1850SOL    HW224238   2.288   7.451   8.584
 1851SOL     OW24239   0.580   7.177   8.066
 1851SOL    HW124240   0.584   7.201   8.163
 1851SOL    HW224241   0.585   7.261   8.012
 1852SOL     OW24242   1.308  10.357   7.012
 1852SOL    HW124243   1.304  10.457   7.014
 1852SOL    HW224244   1.403  10.328   6.999
 1853SOL     OW24245   2.616   6.205   6.259
 1853SOL    HW124246   2.523   6.188   6.226
 1853SOL    HW224247   2.669   6.248   6.186
 1854SOL     OW24248   5.768   8.979   0.672
 1854SOL    HW124249   5.805   8.886   0.675
 1854SOL    HW224250   5.707   8.993   0.750
 1855SOL     OW24251   9.291   2.990   1.418
 1855SOL    HW124252   9.340   3.020   1.499
 1855SOL    HW224253   9.354   2.945   1.355
 1856SOL     OW24254   1.103   8.183   0.288
 1856SOL    HW124255   1.054   8.258   0.333
 1856SOL    HW224256   1.095   8.194   0.189
 1857SOL     OW24257   8.485   6.787   1.123
 1857SOL    HW124258   8.463   6.856   1.192
 1857SOL    HW224259   8.572   6.809   1.080
 1858SOL     OW24260   7.120   3.272   8.191
 1858SOL    HW124261   7.146   3.183   8.228
 1858SOL    HW224262   7.082   3.260   8.099
 1859SOL     OW24263   1.385   7.609   0.255
 1859SOL    HW124264   1.460   7.664   0.216
 1859SOL    HW224265   1.310   7.605   0.190
 1860SOL     OW24266   8.079   0.638   0.641
 1860SOL    HW124267   8.044   0.676   0.726
 1860SOL    HW224268   8.003   0.617   0.580
 1861SOL     OW24269   7.091  10.308   8.067
 1861SOL    HW124270   7.086  10.224   8.012
 1861SOL    HW224271   7.177  10.354   8.050
 1862SOL     OW24272   7.425   6.513   0.784
 1862SOL    HW124273   7.343   6.471   0.823
 1862SOL    HW224274   7.413   6.524   0.685
 1863SOL     OW24275   3.278   0.850   2.129
 1863SOL    HW124276   3.363   0.821   2.175
 1863SOL    HW224277   3.292   0.850   2.030
 1864SOL     OW24278   7.436   5.192   6.187
 1864SOL    HW124279   7.471   5.220   6.097
 1864SOL    HW224280   7.337   5.206   6.190
 1865SOL     OW24281   1.432   0.065   6.779
 1865SOL    HW124282   1.466   0.143   6.727
 1865SOL    HW224283   1.382   0.098   6.859
 1866SOL     OW24284   9.351   4.173   0.976
 1866SOL    HW124285   9.331   4.232   0.898
 1866SOL    HW224286   9.435   4.203   1.021
 1867SOL     OW24287   4.590   1.272   7.177
 1867SOL    HW124288   4.660   1.322   7.226
 1867SOL    HW224289   4.502   1.320   7.186
 1868SOL     OW24290   3.773   8.182   8.636
 1868SOL    HW124291   3.797   8.209   8.729
 1868SOL    HW224292   3.832   8.230   8.571
 1869SOL     OW24293   7.285   2.305   7.825
 1869SOL    HW124294   7.298   2.224   7.769
 1869SOL    HW224295   7.187   2.316   7.846
 1870SOL     OW24296   9.874   0.932   7.585
 1870SOL    HW124297   9.933   0.940   7.505
 1870SOL    HW224298   9.789   0.983   7.569
 1871SOL     OW24299   7.617   8.593   7.573
 1871SOL    HW124300   7.712   8.595   7.605
 1871SOL    HW224301   7.616   8.579   7.474
 1872SOL     OW24302   7.411  10.163   0.531
 1872SOL    HW124303   7.505  10.173   0.563
 1872SOL    HW224304   7.356  10.121   0.604
 1873SOL     OW24305   6.126   3.025   8.187
 1873SOL    HW124306   6.147   3.084   8.265
 1873SOL    HW224307   6.141   3.076   8.102
 1874SOL     OW24308   3.952   4.958   0.297
 1874SOL    HW124309   3.974   4.860   0.293
 1874SOL    HW224310   4.027   5.007   0.341
 1875SOL     OW24311   8.031   2.283   8.632
 1875SOL    HW124312   8.113   2.302   8.576
 1875SOL    HW224313   7.965   2.357   8.620
 1876SOL     OW24314   6.321   3.340   1.509
 1876SOL    HW124315   6.260   3.287   1.568
 1876SOL    HW224316   6.379   3.399   1.564
 1877SOL     OW24317   9.904   6.632   0.999
 1877SOL    HW124318   9.934   6.726   0.984
 1877SOL    HW224319   9.977   6.569   0.972
 1878SOL     OW24320   8.562   8.081   7.149
 1878SOL    HW124321   8.588   7.988   7.179
 1878SOL    HW224322   8.604   8.100   7.061
 1879SOL     OW24323   2.657   0.748   0.815
 1879SOL    HW124324   2.725   0.795   0.871
 1879SOL    HW224325   2.694   0.734   0.723
 1880SOL     OW24326   3.924   1.602   0.463
 1880SOL    HW124327   3.961   1.509   0.467
 1880SOL    HW224328   3.993   1.666   0.498
 1881SOL     OW24329   3.494   0.289   0.624
 1881SOL    HW124330   3.517   0.192   0.616
 1881SOL    HW224331   3.566   0.344   0.582
 1882SOL     OW24332   4.652   5.811   0.255
 1882SOL    HW124333   4.621   5.885   0.315
 1882SOL    HW224334   4.573   5.759   0.223
 1883SOL     OW24335   8.115   2.351   7.590
 1883SOL    HW124336   8.053   2.422   7.557
 1883SOL    HW224337   8.107   2.270   7.532
 1884SOL     OW24338   6.747   9.058   0.584
 1884SOL    HW124339   6.650   9.075   0.566
 1884SOL    HW224340   6.761   8.960   0.600
 1885SOL     OW24341   8.651   3.736   7.570
 1885SOL    HW124342   8.587   3.661   7.589
 1885SOL    HW224343   8.743   3.708   7.598
 1886SOL     OW24344   0.166   8.449   7.865
 1886SOL    HW124345   0.219   8.394   7.931
 1886SOL    HW224346   0.139   8.391   7.788
 1887SOL     OW24347   8.766   6.576   8.367
 1887SOL    HW124348   8.679   6.558   8.412
 1887SOL    HW224349   8.840   6.537   8.422
 1888SOL     OW24350   9.349   9.693   7.753
 1888SOL    HW124351   9.401   9.764   7.800
 1888SOL    HW224352   9.266   9.672   7.806
 1889SOL     OW24353   3.299   3.446   6.391
 1889SOL    HW124354   3.330   3.412   6.303
 1889SOL    HW224355   3.201   3.427   6.402
 1890SOL     OW24356   7.723   9.319   0.219
 1890SOL    HW124357   7.752   9.352   0.128
 1890SOL    HW224358   7.635   9.360   0.242
 1891SOL     OW24359   6.115  10.143   8.006
 1891SOL    HW124360   6.062  10.228   8.009
 1891SOL    HW224361   6.156  10.132   7.915
 1892SOL     OW24362   3.977   3.684   6.423
 1892SOL    HW124363   3.981   3.685   6.323
 1892SOL    HW224364   3.998   3.776   6.458
 1893SOL     OW24365   4.175   5.229   8.446
 1893SOL    HW124366   4.167   5.323   8.413
 1893SOL    HW224367   4.230   5.176   8.382
 1894SOL     OW24368   3.021   1.073   0.853
 1894SOL    HW124369   3.029   1.131   0.934
 1894SOL    HW224370   2.986   0.984   0.880
 1895SOL     OW24371   9.706   2.299   7.970
 1895SOL    HW124372   9.620   2.322   7.924
 1895SOL    HW224373   9.774   2.274   7.902
 1896SOL     OW24374   2.793   5.339   7.775
 1896SOL    HW124375   2.719   5.392   7.818
 1896SOL    HW224376   2.831   5.275   7.842
 1897SOL     OW24377   3.275   2.800   0.687
 1897SOL    HW124378   3.200   2.776   0.626
 1897SOL    HW224379   3.286   2.729   0.756
 1898SOL     OW24380   5.426   1.917   8.161
 1898SOL    HW124381   5.345   1.866   8.188
 1898SOL    HW224382   5.412   2.014   8.179
 1899SOL     OW24383   9.780   2.273   0.972
 1899SOL    HW124384   9.683   2.281   0.997
 1899SOL    HW224385   9.836   2.315   1.043
 1900SOL     OW24386   5.675   6.806   0.078
 1900SOL    HW124387   5.649   6.716   0.112
 1900SOL    HW224388   5.637   6.819   8.768
 1901SOL     OW24389   1.831   2.398   8.034
 1901SOL    HW124390   1.739   2.382   7.998
 1901SOL    HW224391   1.840   2.494   8.062
 1902SOL     OW24392   8.754   1.839   8.268
 1902SOL    HW124393   8.747   1.936   8.290
 1902SOL    HW224394   8.662   1.801   8.258
 1903SOL     OW24395   3.093   9.149   7.493
 1903SOL    HW124396   3.185   9.186   7.502
 1903SOL    HW224397   3.036   9.182   7.569
 1904SOL     OW24398   1.924   9.254   6.624
 1904SOL    HW124399   1.845   9.300   6.664
 1904SOL    HW224400   1.929   9.275   6.526
 1905SOL     OW24401   7.885   0.556   2.066
 1905SOL    HW124402   7.859   0.608   2.148
 1905SOL    HW224403   7.824   0.580   1.991
 1906SOL     OW24404   9.459   3.114   6.214
 1906SOL    HW124405   9.558   3.116   6.226
 1906SOL    HW224406   9.417   3.073   6.294
 1907SOL     OW24407   1.349   8.913   8.565
 1907SOL    HW124408   1.425   8.922   8.630
 1907SOL    HW224409   1.264   8.897   8.616
 1908SOL     OW24410   3.927   0.455   0.676
 1908SOL    HW124411   3.967   0.417   0.759
 1908SOL    HW224412   3.931   0.387   0.603
 1909SOL     OW24413   3.519   2.377   7.796
 1909SOL    HW124414   3.452   2.339   7.732
 1909SOL    HW224415   3.524   2.318   7.877
 1910SOL     OW24416   4.358   7.373   8.541
 1910SOL    HW124417   4.292   7.428   8.489
 1910SOL    HW224418   4.409   7.315   8.477
 1911SOL     OW24419   0.301   2.622   0.766
 1911SOL    HW124420   0.343   2.644   0.854
 1911SOL    HW224421   0.223   2.561   0.781
 1912SOL     OW24422   8.191   7.831   7.932
 1912SOL    HW124423   8.197   7.912   7.874
 1912SOL    HW224424   8.202   7.749   7.876
 1913SOL     OW24425   6.571   1.123   1.108
 1913SOL    HW124426   6.660   1.085   1.082
 1913SOL    HW224427   6.583   1.216   1.143
 1914SOL     OW24428   1.265   5.783   6.410
 1914SOL    HW124429   1.244   5.803   6.314
 1914SOL    HW224430   1.320   5.699   6.415
 1915SOL     OW24431   7.030   0.501   8.462
 1915SOL    HW124432   7.007   0.484   8.558
 1915SOL    HW224433   6.956   0.552   8.419
 1916SOL     OW24434   2.307   2.907   0.942
 1916SOL    HW124435   2.334   2.859   0.859
 1916SOL    HW224436   2.257   2.990   0.917
 1917SOL     OW24437   7.830   5.074   0.092
 1917SOL    HW124438   7.854   5.009   0.164
 1917SOL    HW224439   7.871   5.163   0.113
 1918SOL     OW24440   9.561   1.224   7.736
 1918SOL    HW124441   9.545   1.186   7.827
 1918SOL    HW224442   9.475   1.260   7.700
 1919SOL     OW24443   4.073   8.800   7.476
 1919SOL    HW124444   4.066   8.703   7.501
 1919SOL    HW224445   4.061   8.856   7.557
 1920SOL     OW24446   6.899   9.880   8.744
 1920SOL    HW124447   6.967   9.817   8.780
 1920SOL    HW224448   6.845   9.834   8.673
 1921SOL     OW24449   3.725   6.188   1.558
 1921SOL    HW124450   3.651   6.254   1.547
 1921SOL    HW224451   3.695   6.099   1.524
 1922SOL     OW24452   2.689   3.891   0.852
 1922SOL    HW124453   2.653   3.910   0.761
 1922SOL    HW224454   2.694   3.792   0.866
 1923SOL     OW24455   6.001   3.542   0.347
 1923SOL    HW124456   5.911   3.501   0.359
 1923SOL    HW224457   6.046   3.501   0.267
 1924SOL     OW24458   7.877   6.055   8.449
 1924SOL    HW124459   7.859   5.985   8.518
 1924SOL    HW224460   7.853   6.145   8.486
 1925SOL     OW24461   7.347   5.963   8.592
 1925SOL    HW124462   7.383   6.055   8.600
 1925SOL    HW224463   7.420   5.896   8.607
 1926SOL     OW24464   4.230   3.373   2.281
 1926SOL    HW124465   4.186   3.449   2.328
 1926SOL    HW224466   4.164   3.300   2.266
 1927SOL     OW24467   5.978   6.151   1.272
 1927SOL    HW124468   6.039   6.228   1.289
 1927SOL    HW224469   5.886   6.174   1.304
 1928SOL     OW24470   3.037   6.859   7.697
 1928SOL    HW124471   2.988   6.808   7.626
 1928SOL    HW224472   3.044   6.955   7.670
 1929SOL     OW24473   5.246   0.488   1.632
 1929SOL    HW124474   5.254   0.480   1.533
 1929SOL    HW224475   5.276   0.403   1.674
 1930SOL     OW24476   9.007   2.157   8.407
 1930SOL    HW124477   9.047   2.235   8.359
 1930SOL    HW224478   9.012   2.172   8.506
 1931SOL     OW24479   8.763   8.834   8.719
 1931SOL    HW124480   8.856   8.853   8.688
 1931SOL    HW224481   8.701   8.905   8.684
 1932SOL     OW24482   1.982   7.233   6.056
 1932SOL    HW124483   1.969   7.316   6.001
 1932SOL    HW224484   2.070   7.192   6.034
 1933SOL     OW24485   6.606   9.951   7.056
 1933SOL    HW124486   6.673   9.952   7.130
 1933SOL    HW224487   6.593   9.857   7.025
 1934SOL     OW24488   0.258   3.279   7.416
 1934SOL    HW124489   0.184   3.215   7.398
 1934SOL    HW224490   0.320   3.283   7.337
 1935SOL     OW24491   4.011   3.099   1.107
 1935SOL    HW124492   3.999   3.115   1.205
 1935SOL    HW224493   4.090   3.152   1.075
 1936SOL     OW24494   2.683   3.641   8.000
 1936SOL    HW124495   2.637   3.563   8.042
 1936SOL    HW224496   2.777   3.616   7.975
 1937SOL     OW24497   3.151   4.174   7.348
 1937SOL    HW124498   3.060   4.195   7.312
 1937SOL    HW224499   3.195   4.259   7.377
 1938SOL     OW24500   7.059   2.297   0.467
 1938SOL    HW124501   7.046   2.350   0.383
 1938SOL    HW224502   7.155   2.303   0.495
 1939SOL     OW24503   4.787   2.051   0.000
 1939SOL    HW124504   4.858   2.001   8.733
 1939SOL    HW224505   4.805   2.149   8.776
 1940SOL     OW24506   0.784   6.347   7.422
 1940SOL    HW124507   0.755   6.409   7.495
 1940SOL    HW224508   0.883   6.358   7.407
 1941SOL     OW24509   9.152  10.011   7.074
 1941SOL    HW124510   9.060  10.031   7.041
 1941SOL    HW224511   9.154  10.019   7.173
 1942SOL     OW24512   6.930   8.378   0.252
 1942SOL    HW124513   6.945   8.451   0.186
 1942SOL    HW224514   6.997   8.305   0.237
 1943SOL     OW24515   2.115   4.271   8.651
 1943SOL    HW124516   2.059   4.218   8.715
 1943SOL    HW224517   2.203   4.293   8.693
 1944SOL     OW24518   1.283   0.480   0.935
 1944SOL    HW124519   1.355   0.493   1.003
 1944SOL    HW224520   1.323   0.458   0.847
 1945SOL     OW24521   9.075   4.106   6.895
 1945SOL    HW124522   9.061   4.188   6.840
 1945SOL    HW224523   9.109   4.032   6.837
 1946SOL     OW24524   3.325   4.697   1.067
 1946SOL    HW124525   3.325   4.786   1.113
 1946SOL    HW224526   3.248   4.693   1.002
 1947SOL     OW24527   9.480   5.199   0.334
 1947SOL    HW124528   9.572   5.194   0.295
 1947SOL    HW224529   9.468   5.288   0.378
 1948SOL     OW24530   0.227   7.342   1.728
 1948SOL    HW124531   0.197   7.315   1.819
 1948SOL    HW224532   0.193   7.434   1.708
 1949SOL     OW24533   7.160   4.014   0.262
 1949SOL    HW124534   7.247   4.025   0.214
 1949SOL    HW224535   7.108   3.939   0.221
 1950SOL     OW24536   9.447   3.973   0.808
 1950SOL    HW124537   9.399   4.029   0.876
 1950SOL    HW224538   9.540   4.008   0.796
 1951SOL     OW24539   4.257  10.033   7.989
 1951SOL    HW124540   4.261   9.965   7.916
 1951SOL    HW224541   4.222  10.119   7.952
 1952SOL     OW24542   1.995   0.530   6.160
 1952SOL    HW124543   2.044   0.446   6.137
 1952SOL    HW224544   1.922   0.545   6.092
 1953SOL     OW24545   2.555   7.785   1.027
 1953SOL    HW124546   2.640   7.794   1.079
 1953SOL    HW224547   2.526   7.874   0.994
 1954SOL     OW24548   2.191   0.040   0.247
 1954SOL    HW124549   2.161   0.071   0.157
 1954SOL    HW224550   2.133   0.083   0.317
 1955SOL     OW24551   4.417   5.695   0.467
 1955SOL    HW124552   4.378   5.609   0.500
 1955SOL    HW224553   4.424   5.693   0.367
 1956SOL     OW24554   0.155   9.613   0.594
 1956SOL    HW124555   0.243   9.657   0.609
 1956SOL    HW224556   0.124   9.631   0.501
 1957SOL     OW24557   9.162   2.655   0.259
 1957SOL    HW124558   9.064   2.636   0.251
 1957SOL    HW224559   9.194   2.623   0.348
 1958SOL     OW24560   7.826   4.857   0.554
 1958SOL    HW124561   7.921   4.852   0.583
 1958SOL    HW224562   7.777   4.776   0.587
 1959SOL     OW24563   6.388   8.013   1.713
 1959SOL    HW124564   6.301   7.970   1.736
 1959SOL    HW224565   6.455   7.941   1.691
 1960SOL     OW24566   6.274   8.337   1.608
 1960SOL    HW124567   6.234   8.347   1.699
 1960SOL    HW224568   6.368   8.303   1.616
 1961SOL     OW24569  10.039   3.156   8.244
 1961SOL    HW124570   9.968   3.151   8.173
 1961SOL    HW224571  10.078   3.248   8.246
 1962SOL     OW24572   5.597   4.671   8.758
 1962SOL    HW124573   5.605   4.678   8.659
 1962SOL    HW224574   5.667   4.610   0.012
 1963SOL     OW24575   0.188   7.859   0.752
 1963SOL    HW124576   0.245   7.816   0.822
 1963SOL    HW224577   0.107   7.898   0.795
 1964SOL     OW24578   2.847   6.306   8.283
 1964SOL    HW124579   2.835   6.300   8.184
 1964SOL    HW224580   2.761   6.336   8.326
 1965SOL     OW24581   6.593   9.642   1.457
 1965SOL    HW124582   6.498   9.612   1.461
 1965SOL    HW224583   6.599   9.740   1.478
 1966SOL     OW24584   1.003   3.528   7.747
 1966SOL    HW124585   1.045   3.607   7.702
 1966SOL    HW224586   1.068   3.488   7.812
 1967SOL     OW24587   8.935   9.726   7.143
 1967SOL    HW124588   9.033   9.737   7.122
 1967SOL    HW224589   8.898   9.650   7.090
 1968SOL     OW24590   8.205   7.375   1.245
 1968SOL    HW124591   8.122   7.347   1.291
 1968SOL    HW224592   8.257   7.437   1.304
 1969SOL     OW24593   9.679   7.404   7.233
 1969SOL    HW124594   9.763   7.408   7.180
 1969SOL    HW224595   9.601   7.393   7.171
 1970SOL     OW24596   5.512   1.282   1.019
 1970SOL    HW124597   5.431   1.269   1.076
 1970SOL    HW224598   5.570   1.353   1.058
 1971SOL     OW24599   0.490   1.706   7.520
 1971SOL    HW124600   0.490   1.668   7.427
 1971SOL    HW224601   0.465   1.802   7.516
 1972SOL     OW24602   3.659   8.224   7.329
 1972SOL    HW124603   3.626   8.158   7.397
 1972SOL    HW224604   3.583   8.251   7.270
 1973SOL     OW24605   3.598   5.076   6.656
 1973SOL    HW124606   3.656   5.006   6.613
 1973SOL    HW224607   3.640   5.166   6.646
 1974SOL     OW24608   6.618   8.908   7.902
 1974SOL    HW124609   6.648   8.993   7.947
 1974SOL    HW224610   6.695   8.846   7.892
 1975SOL     OW24611   0.370   0.381   8.206
 1975SOL    HW124612   0.288   0.433   8.182
 1975SOL    HW224613   0.451   0.438   8.192
 1976SOL     OW24614   0.310   8.250   1.513
 1976SOL    HW124615   0.382   8.189   1.546
 1976SOL    HW224616   0.334   8.285   1.423
 1977SOL     OW24617   5.638   3.869   6.927
 1977SOL    HW124618   5.665   3.855   7.022
 1977SOL    HW224619   5.705   3.927   6.881
 1978SOL     OW24620  10.134   4.146   6.858
 1978SOL    HW124621   0.063   4.132   6.811
 1978SOL    HW224622  10.146   4.125   6.955
 1979SOL     OW24623   0.623   2.295   7.480
 1979SOL    HW124624   0.585   2.227   7.418
 1979SOL    HW224625   0.559   2.371   7.490
 1980SOL     OW24626   8.264   8.039   1.756
 1980SOL    HW124627   8.197   8.043   1.683
 1980SOL    HW224628   8.241   7.964   1.819
 1981SOL     OW24629  10.027   7.552   0.551
 1981SOL    HW124630   9.953   7.600   0.503
 1981SOL    HW224631  10.091   7.515   0.484
 1982SOL     OW24632   1.674   9.825   6.849
 1982SOL    HW124633   1.646   9.918   6.824
 1982SOL    HW224634   1.745   9.830   6.919
 1983SOL     OW24635   7.535   5.732   7.465
 1983SOL    HW124636   7.464   5.802   7.469
 1983SOL    HW224637   7.624   5.775   7.457
 1984SOL     OW24638   7.887   3.524   8.577
 1984SOL    HW124639   7.885   3.466   8.496
 1984SOL    HW224640   7.807   3.506   8.633
 1985SOL     OW24641   0.968   9.313   7.417
 1985SOL    HW124642   0.992   9.394   7.364
 1985SOL    HW224643   0.913   9.339   7.496
 1986SOL     OW24644   6.018   0.832   0.668
 1986SOL    HW124645   6.052   0.775   0.593
 1986SOL    HW224646   5.942   0.785   0.714
 1987SOL     OW24647   7.597   1.951   0.739
 1987SOL    HW124648   7.499   1.928   0.738
 1987SOL    HW224649   7.607   2.050   0.735
 1988SOL     OW24650   8.726   3.114   0.250
 1988SOL    HW124651   8.750   3.210   0.264
 1988SOL    HW224652   8.750   3.061   0.330
 1989SOL     OW24653   5.144   4.803   8.537
 1989SOL    HW124654   5.167   4.740   8.463
 1989SOL    HW224655   5.224   4.817   8.596
 1990SOL     OW24656   1.498   5.494   8.216
 1990SOL    HW124657   1.519   5.478   8.312
 1990SOL    HW224658   1.400   5.479   8.200
 1991SOL     OW24659   7.940   6.646   6.426
 1991SOL    HW124660   7.920   6.716   6.358
 1991SOL    HW224661   8.022   6.595   6.399
 1992SOL     OW24662   4.191   5.047   2.075
 1992SOL    HW124663   4.218   4.988   2.152
 1992SOL    HW224664   4.175   5.140   2.108
 1993SOL     OW24665   8.667   5.694   8.581
 1993SOL    HW124666   8.710   5.748   8.653
 1993SOL    HW224667   8.701   5.600   8.585
 1994SOL     OW24668   5.698   2.962   1.612
 1994SOL    HW124669   5.647   2.876   1.610
 1994SOL    HW224670   5.657   3.023   1.681
 1995SOL     OW24671   2.368   1.647   8.664
 1995SOL    HW124672   2.330   1.735   8.639
 1995SOL    HW224673   2.295   1.585   8.691
 1996SOL     OW24674   9.087   9.095   0.262
 1996SOL    HW124675   9.125   9.023   0.205
 1996SOL    HW224676   9.062   9.174   0.205
 1997SOL     OW24677   5.008   0.825   7.272
 1997SOL    HW124678   5.094   0.874   7.258
 1997SOL    HW224679   5.027   0.733   7.305
 1998SOL     OW24680   0.845   4.433   6.749
 1998SOL    HW124681   0.914   4.433   6.677
 1998SOL    HW224682   0.889   4.437   6.839
 1999SOL     OW24683   4.764   3.233   8.466
 1999SOL    HW124684   4.766   3.269   8.559
 1999SOL    HW224685   4.844   3.267   8.416
 2000SOL     OW24686   0.196   1.629   7.344
 2000SOL    HW124687   0.170   1.570   7.267
 2000SOL    HW224688   0.170   1.584   7.430
 2001SOL     OW24689   2.104   9.693   0.622
 2001SOL    HW124690   2.125   9.616   0.562
 2001SOL    HW224691   2.006   9.697   0.640
 2002SOL     OW24692   4.011   3.744   6.153
 2002SOL    HW124693   4.056   3.833   6.142
 2002SOL    HW224694   3.953   3.726   6.074
 2003SOL     OW24695   6.013   1.168   8.166
 2003SOL    HW124696   5.963   1.254   8.163
 2003SOL    HW224697   6.107   1.183   8.137
 2004SOL     OW24698   1.701   2.104   1.841
 2004SOL    HW124699   1.792   2.144   1.850
 2004SOL    HW224700   1.687   2.072   1.748
 2005SOL     OW24701   5.000   1.066   0.749
 2005SOL    HW124702   5.059   0.990   0.723
 2005SOL    HW224703   4.913   1.032   0.782
 2006SOL     OW24704   1.660   6.918   6.778
 2006SOL    HW124705   1.688   6.901   6.683
 2006SOL    HW224706   1.697   7.006   6.808
 2007SOL     OW24707   8.220   2.140   8.774
 2007SOL    HW124708   8.221   2.159   0.090
 2007SOL    HW224709   8.146   2.190   8.731
 2008SOL     OW24710   4.126   3.906   7.561
 2008SOL    HW124711   4.141   4.004   7.570
 2008SOL    HW224712   4.211   3.861   7.533
 2009SOL     OW24713   6.831   7.866   0.964
 2009SOL    HW124714   6.850   7.776   1.003
 2009SOL    HW224715   6.912   7.924   0.973
 2010SOL     OW24716   3.250   5.265   1.718
 2010SOL    HW124717   3.263   5.363   1.730
 2010SOL    HW224718   3.174   5.234   1.775
 2011SOL     OW24719   0.463   1.192   8.458
 2011SOL    HW124720   0.531   1.245   8.509
 2011SOL    HW224721   0.505   1.154   8.376
 2012SOL     OW24722   1.394   8.459   0.633
 2012SOL    HW124723   1.361   8.374   0.675
 2012SOL    HW224724   1.471   8.439   0.574
 2013SOL     OW24725   3.422   8.809   7.741
 2013SOL    HW124726   3.338   8.771   7.703
 2013SOL    HW224727   3.486   8.831   7.667
 2014SOL     OW24728   7.311   6.874   0.426
 2014SOL    HW124729   7.364   6.849   0.507
 2014SOL    HW224730   7.239   6.806   0.410
 2015SOL     OW24731   0.038   8.088   6.755
 2015SOL    HW124732   0.034   8.013   6.690
 2015SOL    HW224733  10.104   8.127   6.768
 2016SOL     OW24734   7.780   6.576   7.465
 2016SOL    HW124735   7.841   6.499   7.445
 2016SOL    HW224736   7.805   6.616   7.553
 2017SOL     OW24737   3.607   6.541   6.967
 2017SOL    HW124738   3.638   6.553   6.873
 2017SOL    HW224739   3.658   6.604   7.026
 2018SOL     OW24740   3.904   9.053   6.249
 2018SOL    HW124741   3.834   9.006   6.195
 2018SOL    HW224742   3.965   9.104   6.189
 2019SOL     OW24743   4.596   0.991   8.101
 2019SOL    HW124744   4.612   0.902   8.144
 2019SOL    HW224745   4.621   0.985   8.004
 2020SOL     OW24746   2.702   3.576   0.050
 2020SOL    HW124747   2.704   3.529   0.138
 2020SOL    HW224748   2.745   3.518   8.762
 2021SOL     OW24749   7.798   9.866   2.235
 2021SOL    HW124750   7.776   9.937   2.303
 2021SOL    HW224751   7.813   9.779   2.282
 2022SOL     OW24752   0.231   6.278   0.289
 2022SOL    HW124753   0.283   6.291   0.205
 2022SOL    HW224754   0.250   6.353   0.353
 2023SOL     OW24755   7.013   3.607   0.545
 2023SOL    HW124756   7.042   3.514   0.568
 2023SOL    HW224757   7.015   3.664   0.628
 2024SOL     OW24758   3.390   3.031   8.038
 2024SOL    HW124759   3.413   2.937   8.012
 2024SOL    HW224760   3.366   3.034   8.135
 2025SOL     OW24761   9.306   1.934   2.537
 2025SOL    HW124762   9.393   1.982   2.538
 2025SOL    HW224763   9.281   1.909   2.631
 2026SOL     OW24764   7.731   5.033   7.775
 2026SOL    HW124765   7.763   4.939   7.793
 2026SOL    HW224766   7.738   5.052   7.677
 2027SOL     OW24767   9.664   1.096   7.522
 2027SOL    HW124768   9.595   1.092   7.449
 2027SOL    HW224769   9.623   1.135   7.604
 2028SOL     OW24770   3.866   8.626   6.355
 2028SOL    HW124771   3.772   8.642   6.325
 2028SOL    HW224772   3.927   8.633   6.276
 2029SOL     OW24773   5.014   9.550   0.045
 2029SOL    HW124774   5.068   9.584   8.749
 2029SOL    HW224775   5.074   9.499   0.107
 2030SOL     OW24776   3.651   1.964   7.896
 2030SOL    HW124777   3.747   1.956   7.921
 2030SOL    HW224778   3.641   1.961   7.797
 2031SOL     OW24779   1.826   7.520   0.266
 2031SOL    HW124780   1.773   7.485   0.189
 2031SOL    HW224781   1.781   7.495   0.352
 2032SOL     OW24782   0.444   0.540   8.780
 2032SOL    HW124783   0.493   0.567   8.697
 2032SOL    HW224784   0.346   0.529   8.759
 2033SOL     OW24785   4.179   7.894   6.808
 2033SOL    HW124786   4.206   7.924   6.716
 2033SOL    HW224787   4.178   7.794   6.811
 2034SOL     OW24788   6.605   0.229   6.755
 2034SOL    HW124789   6.573   0.324   6.756
 2034SOL    HW224790   6.640   0.206   6.664
 2035SOL     OW24791   3.549   9.372   1.365
 2035SOL    HW124792   3.595   9.381   1.277
 2035SOL    HW224793   3.589   9.437   1.430
 2036SOL     OW24794   7.013   7.054   1.396
 2036SOL    HW124795   7.010   7.144   1.353
 2036SOL    HW224796   7.001   6.983   1.326
 2037SOL     OW24797   5.367   1.502   8.224
 2037SOL    HW124798   5.467   1.505   8.218
 2037SOL    HW224799   5.331   1.594   8.213
 2038SOL     OW24800   6.654   2.768   1.432
 2038SOL    HW124801   6.653   2.852   1.377
 2038SOL    HW224802   6.630   2.790   1.527
 2039SOL     OW24803   6.837   2.006   1.714
 2039SOL    HW124804   6.766   1.984   1.781
 2039SOL    HW224805   6.797   2.057   1.638
 2040SOL     OW24806   3.459   1.028   6.256
 2040SOL    HW124807   3.432   0.964   6.184
 2040SOL    HW224808   3.556   1.050   6.246
 2041SOL     OW24809   1.247   5.819   6.139
 2041SOL    HW124810   1.189   5.840   6.061
 2041SOL    HW224811   1.343   5.819   6.111
 2042SOL     OW24812   4.350   6.597   0.213
 2042SOL    HW124813   4.326   6.500   0.226
 2042SOL    HW224814   4.447   6.610   0.236
 2043SOL     OW24815   6.194   4.461   6.691
 2043SOL    HW124816   6.178   4.518   6.611
 2043SOL    HW224817   6.217   4.368   6.661
 2044SOL     OW24818   1.578   2.214   7.072
 2044SOL    HW124819   1.559   2.120   7.100
 2044SOL    HW224820   1.669   2.219   7.031
 2045SOL     OW24821   7.098   2.929   8.609
 2045SOL    HW124822   7.032   3.003   8.602
 2045SOL    HW224823   7.090   2.869   8.529
 2046SOL     OW24824   5.675  10.242   0.921
 2046SOL    HW124825   5.665  10.153   0.878
 2046SOL    HW224826   5.618  10.309   0.874
 2047SOL     OW24827   6.487   1.047   1.569
 2047SOL    HW124828   6.489   1.020   1.473
 2047SOL    HW224829   6.561   1.000   1.618
 2048SOL     OW24830   6.749   4.579   2.059
 2048SOL    HW124831   6.793   4.635   2.129
 2048SOL    HW224832   6.673   4.528   2.100
 2049SOL     OW24833   4.844   2.586   8.669
 2049SOL    HW124834   4.825   2.496   8.708
 2049SOL    HW224835   4.759   2.639   8.664
 2050SOL     OW24836   0.138   5.045   1.356
 2050SOL    HW124837   0.160   5.143   1.358
 2050SOL    HW224838   0.068   5.028   1.287
 2051SOL     OW24839  10.062   2.838   7.288
 2051SOL    HW124840   9.975   2.835   7.336
 2051SOL    HW224841  10.058   2.780   7.207
 2052SOL     OW24842   3.057   9.694   8.321
 2052SOL    HW124843   2.982   9.704   8.256
 2052SOL    HW224844   3.020   9.676   8.412
 2053SOL     OW24845   8.638   4.366   0.195
 2053SOL    HW124846   8.672   4.338   0.106
 2053SOL    HW224847   8.696   4.438   0.232
 2054SOL     OW24848   6.173   4.674   1.462
 2054SOL    HW124849   6.154   4.736   1.386
 2054SOL    HW224850   6.271   4.671   1.480
 2055SOL     OW24851   1.930   8.535   0.886
 2055SOL    HW124852   1.989   8.455   0.874
 2055SOL    HW224853   1.852   8.529   0.824
 2056SOL     OW24854   3.458   8.304   7.152
 2056SOL    HW124855   3.503   8.325   7.066
 2056SOL    HW224856   3.370   8.259   7.135
 2057SOL     OW24857   6.087   9.470   2.023
 2057SOL    HW124858   6.144   9.503   2.098
 2057SOL    HW224859   6.005   9.527   2.016
 2058SOL     OW24860   5.104  10.240   6.447
 2058SOL    HW124861   5.118  10.189   6.362
 2058SOL    HW224862   5.174  10.310   6.457
 2059SOL     OW24863   0.597   0.718   0.827
 2059SOL    HW124864   0.608   0.680   0.736
 2059SOL    HW224865   0.630   0.813   0.828
 2060SOL     OW24866   5.343   7.937   1.177
 2060SOL    HW124867   5.308   8.024   1.213
 2060SOL    HW224868   5.269   7.889   1.129
 2061SOL     OW24869   4.560  10.283   7.828
 2061SOL    HW124870   4.606  10.372   7.831
 2061SOL    HW224871   4.475  10.291   7.776
 2062SOL     OW24872   4.769   4.506   6.366
 2062SOL    HW124873   4.743   4.456   6.448
 2062SOL    HW224874   4.825   4.585   6.390
 2063SOL     OW24875   4.946   7.279   7.641
 2063SOL    HW124876   4.910   7.306   7.552
 2063SOL    HW224877   4.873   7.279   7.709
 2064SOL     OW24878   5.108   5.700   1.237
 2064SOL    HW124879   5.197   5.661   1.209
 2064SOL    HW224880   5.114   5.732   1.331
 2065SOL     OW24881   5.241   5.245   8.403
 2065SOL    HW124882   5.173   5.207   8.340
 2065SOL    HW224883   5.323   5.187   8.400
 2066SOL     OW24884   4.224   6.102   1.113
 2066SOL    HW124885   4.208   6.049   1.029
 2066SOL    HW224886   4.315   6.144   1.109
 2067SOL     OW24887   2.270   5.827   7.577
 2067SOL    HW124888   2.206   5.782   7.639
 2067SOL    HW224889   2.225   5.844   7.489
 2068SOL     OW24890   6.739   5.546   0.685
 2068SOL    HW124891   6.747   5.449   0.662
 2068SOL    HW224892   6.643   5.569   0.701
 2069SOL     OW24893   1.799   4.505   6.634
 2069SOL    HW124894   1.712   4.464   6.607
 2069SOL    HW224895   1.784   4.574   6.705
 2070SOL     OW24896   9.026   0.993   7.293
 2070SOL    HW124897   8.963   0.917   7.273
 2070SOL    HW224898   8.974   1.070   7.329
 2071SOL     OW24899   6.163   3.173   1.663
 2071SOL    HW124900   6.167   3.080   1.626
 2071SOL    HW224901   6.071   3.193   1.695
 2072SOL     OW24902   6.999   6.148   0.613
 2072SOL    HW124903   6.919   6.107   0.571
 2072SOL    HW224904   6.973   6.192   0.699
 2073SOL     OW24905   5.002   7.667   1.541
 2073SOL    HW124906   4.985   7.720   1.623
 2073SOL    HW224907   5.100   7.669   1.520
 2074SOL     OW24908   3.945   1.590   7.332
 2074SOL    HW124909   4.003   1.533   7.390
 2074SOL    HW224910   3.890   1.531   7.272
 2075SOL     OW24911   8.367   0.224   1.097
 2075SOL    HW124912   8.453   0.262   1.061
 2075SOL    HW224913   8.299   0.297   1.103
 2076SOL     OW24914   6.333   6.440   7.517
 2076SOL    HW124915   6.394   6.379   7.467
 2076SOL    HW224916   6.372   6.461   7.606
 2077SOL     OW24917   6.510   8.821   0.481
 2077SOL    HW124918   6.552   8.844   0.393
 2077SOL    HW224919   6.505   8.721   0.489
 2078SOL     OW24920   7.671   8.239   8.716
 2078SOL    HW124921   7.580   8.247   8.757
 2078SOL    HW224922   7.677   8.300   8.637
 2079SOL     OW24923   0.080   1.915   7.887
 2079SOL    HW124924   0.012   1.842   7.894
 2079SOL    HW224925   0.172   1.878   7.901
 2080SOL     OW24926   3.051   9.616   1.283
 2080SOL    HW124927   2.973   9.672   1.252
 2080SOL    HW224928   3.096   9.575   1.203
 2081SOL     OW24929   5.591  10.441   7.241
 2081SOL    HW124930   5.519  10.372   7.240
 2081SOL    HW224931   5.557   0.023   7.200
 2082SOL     OW24932   6.011   7.107   7.707
 2082SOL    HW124933   6.012   7.101   7.607
 2082SOL    HW224934   5.936   7.052   7.743
 2083SOL     OW24935   4.526   2.902   6.268
 2083SOL    HW124936   4.453   2.971   6.264
 2083SOL    HW224937   4.614   2.948   6.268
 2084SOL     OW24938   2.167   9.841   0.202
 2084SOL    HW124939   2.243   9.883   0.152
 2084SOL    HW224940   2.081   9.877   0.166
 2085SOL     OW24941   5.122   1.113   0.323
 2085SOL    HW124942   5.205   1.080   0.369
 2085SOL    HW224943   5.148   1.182   0.255
 2086SOL     OW24944   9.182   2.105   6.546
 2086SOL    HW124945   9.244   2.100   6.623
 2086SOL    HW224946   9.089   2.081   6.576
 2087SOL     OW24947   5.046   9.652   7.618
 2087SOL    HW124948   4.964   9.606   7.652
 2087SOL    HW224949   5.020   9.740   7.577
 2088SOL     OW24950   4.882  10.099   6.535
 2088SOL    HW124951   4.957  10.154   6.497
 2088SOL    HW224952   4.820  10.072   6.462
 2089SOL     OW24953   0.599   5.542   0.651
 2089SOL    HW124954   0.659   5.462   0.657
 2089SOL    HW224955   0.504   5.510   0.643
 2090SOL     OW24956   1.681   4.521   0.725
 2090SOL    HW124957   1.730   4.544   0.809
 2090SOL    HW224958   1.727   4.445   0.680
 2091SOL     OW24959   8.545   7.705   2.137
 2091SOL    HW124960   8.566   7.780   2.200
 2091SOL    HW224961   8.483   7.640   2.182
 2092SOL     OW24962   6.892   1.175   6.558
 2092SOL    HW124963   6.823   1.103   6.549
 2092SOL    HW224964   6.848   1.265   6.549
 2093SOL     OW24965   8.696   3.001   1.533
 2093SOL    HW124966   8.687   2.983   1.435
 2093SOL    HW224967   8.649   2.929   1.584
 2094SOL     OW24968   1.191  10.185   8.298
 2094SOL    HW124969   1.190  10.085   8.302
 2094SOL    HW224970   1.231  10.222   8.382
 2095SOL     OW24971   2.385   0.967   7.442
 2095SOL    HW124972   2.302   0.940   7.393
 2095SOL    HW224973   2.443   0.887   7.454
 2096SOL     OW24974   8.154   3.050   2.635
 2096SOL    HW124975   8.252   3.068   2.639
 2096SOL    HW224976   8.132   2.971   2.693
 2097SOL     OW24977   9.888   3.058   0.832
 2097SOL    HW124978   9.898   2.960   0.851
 2097SOL    HW224979   9.926   3.078   0.742
 2098SOL     OW24980   1.156   9.546   6.403
 2098SOL    HW124981   1.235   9.575   6.350
 2098SOL    HW224982   1.077   9.603   6.379
 2099SOL     OW24983   7.749   7.976   8.719
 2099SOL    HW124984   7.712   8.069   8.716
 2099SOL    HW224985   7.830   7.971   8.660
 2100SOL     OW24986   8.741   8.342   7.007
 2100SOL    HW124987   8.657   8.396   7.002
 2100SOL    HW224988   8.726   8.253   6.965
 2101SOL     OW24989   5.905   7.452   6.942
 2101SOL    HW124990   5.908   7.536   6.888
 2101SOL    HW224991   5.816   7.407   6.930
 2102SOL     OW24992   2.007   1.874   1.687
 2102SOL    HW124993   2.084   1.829   1.732
 2102SOL    HW224994   1.924   1.859   1.741
 2103SOL     OW24995   3.403   9.152   6.690
 2103SOL    HW124996   3.408   9.154   6.590
 2103SOL    HW224997   3.310   9.172   6.719
 2104SOL     OW24998   4.367   7.569   0.600
 2104SOL    HW124999   4.284   7.621   0.618
 2104SOL    HW225000   4.434   7.587   0.672
 2105SOL     OW25001   3.458   6.314   1.288
 2105SOL    HW125002   3.447   6.215   1.296
 2105SOL    HW225003   3.479   6.353   1.378
 2106SOL     OW25004   0.413   3.742   8.675
 2106SOL    HW125005   0.506   3.717   8.700
 2106SOL    HW225006   0.349   3.701   8.740
 2107SOL     OW25007   5.533   7.787   1.693
 2107SOL    HW125008   5.467   7.862   1.692
 2107SOL    HW225009   5.625   7.824   1.703
 2108SOL     OW25010   0.001   1.273   7.196
 2108SOL    HW125011   0.062   1.350   7.175
 2108SOL    HW225012   0.055   1.189   7.204
 2109SOL     OW25013   7.031   1.336   0.964
 2109SOL    HW125014   6.954   1.374   1.015
 2109SOL    HW225015   7.030   1.372   0.871
 2110SOL     OW25016   5.484   9.328   0.356
 2110SOL    HW125017   5.541   9.272   0.417
 2110SOL    HW225018   5.421   9.383   0.411
 2111SOL     OW25019   4.975   9.802   0.513
 2111SOL    HW125020   4.922   9.860   0.451
 2111SOL    HW225021   4.914   9.739   0.560
 2112SOL     OW25022   6.522   0.627   8.116
 2112SOL    HW125023   6.589   0.701   8.127
 2112SOL    HW225024   6.539   0.581   8.029
 2113SOL     OW25025   4.294   7.551   8.151
 2113SOL    HW125026   4.256   7.636   8.113
 2113SOL    HW225027   4.392   7.564   8.168
 2114SOL     OW25028   5.196   9.413   0.196
 2114SOL    HW125029   5.191   9.426   0.295
 2114SOL    HW225030   5.290   9.427   0.164
 2115SOL     OW25031   2.648   1.315   7.544
 2115SOL    HW125032   2.706   1.236   7.563
 2115SOL    HW225033   2.608   1.349   7.629
 2116SOL     OW25034   0.626  10.290   0.265
 2116SOL    HW125035   0.653  10.197   0.290
 2116SOL    HW225036   0.706  10.350   0.270
 2117SOL     OW25037   7.607   0.188   0.648
 2117SOL    HW125038   7.672   0.264   0.650
 2117SOL    HW225039   7.514   0.224   0.649
 2118SOL     OW25040   5.589   1.293   0.246
 2118SOL    HW125041   5.511   1.350   0.271
 2118SOL    HW225042   5.637   1.263   0.328
 2119SOL     OW25043   1.662   7.529   1.231
 2119SOL    HW125044   1.656   7.617   1.184
 2119SOL    HW225045   1.756   7.515   1.262
 2120SOL     OW25046   3.562   8.731   2.159
 2120SOL    HW125047   3.502   8.803   2.195
 2120SOL    HW225048   3.570   8.742   2.060
 2121SOL     OW25049   1.880   9.230   1.948
 2121SOL    HW125050   1.908   9.215   2.043
 2121SOL    HW225051   1.920   9.159   1.890
 2122SOL     OW25052   1.534   0.085   1.216
 2122SOL    HW125053   1.446   0.040   1.205
 2122SOL    HW225054   1.520   0.181   1.241
 2123SOL     OW25055   2.785   0.135   1.452
 2123SOL    HW125056   2.735   0.050   1.432
 2123SOL    HW225057   2.863   0.114   1.511
 2124SOL     OW25058   2.762   0.062   6.628
 2124SOL    HW125059   2.749   0.042   6.725
 2124SOL    HW225060   2.860   0.058   6.606
 2125SOL     OW25061   0.451  10.463   1.003
 2125SOL    HW125062   0.481   0.009   0.922
 2125SOL    HW225063   0.397   0.020   1.061
 2126SOL     OW25064   4.450   9.861   6.359
 2126SOL    HW125065   4.403   9.776   6.384
 2126SOL    HW225066   4.417   9.893   6.270
 2127SOL     OW25067   7.129   4.278   0.186
 2127SOL    HW125068   7.153   4.267   0.090
 2127SOL    HW225069   7.132   4.188   0.231
 2128SOL     OW25070   0.881   6.819   7.223
 2128SOL    HW125071   0.928   6.875   7.155
 2128SOL    HW225072   0.945   6.794   7.296
 2129SOL     OW25073   3.910   6.067   1.743
 2129SOL    HW125074   3.850   6.112   1.677
 2129SOL    HW225075   3.871   5.978   1.768
 2130SOL     OW25076   3.927   0.271   0.470
 2130SOL    HW125077   3.848   0.260   0.409
 2130SOL    HW225078   3.969   0.182   0.487
 2131SOL     OW25079   7.201   9.900   7.712
 2131SOL    HW125080   7.289   9.880   7.757
 2131SOL    HW225081   7.170   9.820   7.662
 2132SOL     OW25082   5.564  10.019   0.215
 2132SOL    HW125083   5.584  10.115   0.191
 2132SOL    HW225084   5.646   9.964   0.201
 2133SOL     OW25085   9.294   0.788   1.347
 2133SOL    HW125086   9.307   0.806   1.250
 2133SOL    HW225087   9.265   0.872   1.393
 2134SOL     OW25088   4.133   3.892   8.559
 2134SOL    HW125089   4.178   3.966   8.509
 2134SOL    HW225090   4.034   3.896   8.543
 2135SOL     OW25091   2.881   2.478   1.368
 2135SOL    HW125092   2.807   2.458   1.433
 2135SOL    HW225093   2.955   2.525   1.416
 2136SOL     OW25094   8.723   8.737   0.568
 2136SOL    HW125095   8.733   8.835   0.552
 2136SOL    HW225096   8.664   8.723   0.648
 2137SOL     OW25097   4.586   4.628   7.835
 2137SOL    HW125098   4.616   4.721   7.812
 2137SOL    HW225099   4.513   4.601   7.772
 2138SOL     OW25100   5.173   5.165   7.368
 2138SOL    HW125101   5.120   5.193   7.448
 2138SOL    HW225102   5.124   5.189   7.284
 2139SOL     OW25103  10.153   7.595   6.265
 2139SOL    HW125104  10.082   7.574   6.333
 2139SOL    HW225105   0.057   7.516   6.256
 2140SOL     OW25106   7.867   9.188   2.229
 2140SOL    HW125107   7.828   9.259   2.287
 2140SOL    HW225108   7.884   9.225   2.138
 2141SOL     OW25109   7.305   8.719   0.506
 2141SOL    HW125110   7.341   8.764   0.425
 2141SOL    HW225111   7.376   8.661   0.547
 2142SOL     OW25112   1.711   9.438   7.019
 2142SOL    HW125113   1.628   9.495   7.017
 2142SOL    HW225114   1.791   9.497   7.008
 2143SOL     OW25115   0.236   3.897   0.967
 2143SOL    HW125116   0.261   3.934   1.057
 2143SOL    HW225117   0.318   3.863   0.921
 2144SOL     OW25118   4.191   3.077   0.289
 2144SOL    HW125119   4.278   3.089   0.240
 2144SOL    HW225120   4.132   3.155   0.272
 2145SOL     OW25121   8.409   6.769   8.366
 2145SOL    HW125122   8.427   6.867   8.358
 2145SOL    HW225123   8.311   6.752   8.358
 2146SOL     OW25124   2.165   9.250   8.470
 2146SOL    HW125125   2.200   9.318   8.534
 2146SOL    HW225126   2.076   9.216   8.500
 2147SOL     OW25127   3.270   4.744   7.026
 2147SOL    HW125128   3.222   4.825   7.061
 2147SOL    HW225129   3.287   4.755   6.929
 2148SOL     OW25130   6.106   7.896   1.140
 2148SOL    HW125131   6.040   7.903   1.066
 2148SOL    HW225132   6.192   7.938   1.111
 2149SOL     OW25133   3.361   5.172   6.995
 2149SOL    HW125134   3.276   5.222   7.015
 2149SOL    HW225135   3.424   5.182   7.072
 2150SOL     OW25136   9.707  10.121   7.131
 2150SOL    HW125137   9.740  10.076   7.048
 2150SOL    HW225138   9.697  10.054   7.204
 2151SOL     OW25139   7.262   7.172   7.724
 2151SOL    HW125140   7.181   7.144   7.673
 2151SOL    HW225141   7.335   7.195   7.660
 2152SOL     OW25142   5.225   0.588   7.597
 2152SOL    HW125143   5.309   0.589   7.651
 2152SOL    HW225144   5.146   0.578   7.658
 2153SOL     OW25145   8.284   6.229   8.731
 2153SOL    HW125146   8.341   6.256   0.026
 2153SOL    HW225147   8.267   6.130   8.735
 2154SOL     OW25148   2.803   2.990   7.311
 2154SOL    HW125149   2.878   2.975   7.376
 2154SOL    HW225150   2.836   2.974   7.218
 2155SOL     OW25151   2.220   2.707   2.235
 2155SOL    HW125152   2.202   2.805   2.230
 2155SOL    HW225153   2.313   2.691   2.265
 2156SOL     OW25154   1.232   1.968   1.086
 2156SOL    HW125155   1.156   2.032   1.070
 2156SOL    HW225156   1.309   1.994   1.027
 2157SOL     OW25157   8.765  10.151   8.122
 2157SOL    HW125158   8.778  10.062   8.077
 2157SOL    HW225159   8.845  10.209   8.103
 2158SOL     OW25160   7.597   0.825   6.457
 2158SOL    HW125161   7.635   0.867   6.540
 2158SOL    HW225162   7.607   0.889   6.381
 2159SOL     OW25163   8.004   4.872   8.210
 2159SOL    HW125164   7.908   4.857   8.185
 2159SOL    HW225165   8.013   4.869   8.309
 2160SOL     OW25166   8.109   1.163   8.359
 2160SOL    HW125167   8.207   1.165   8.381
 2160SOL    HW225168   8.094   1.205   8.270
 2161SOL     OW25169   8.049   9.568   8.742
 2161SOL    HW125170   8.089   9.643   8.690
 2161SOL    HW225171   8.047   9.591   0.058
 2162SOL     OW25172   1.489   7.942   0.391
 2162SOL    HW125173   1.441   7.867   0.437
 2162SOL    HW225174   1.433   8.025   0.395
 2163SOL     OW25175   9.911   5.875   6.918
 2163SOL    HW125176   9.925   5.824   6.833
 2163SOL    HW225177   9.904   5.811   6.994
 2164SOL     OW25178   4.692   7.302   0.588
 2164SOL    HW125179   4.650   7.212   0.599
 2164SOL    HW225180   4.710   7.341   0.678
 2165SOL     OW25181   4.922   3.666   6.581
 2165SOL    HW125182   4.964   3.710   6.661
 2165SOL    HW225183   4.991   3.616   6.529
 2166SOL     OW25184   4.307   1.159   6.939
 2166SOL    HW125185   4.362   1.201   6.867
 2166SOL    HW225186   4.365   1.107   7.001
 2167SOL     OW25187   7.530  10.347   1.256
 2167SOL    HW125188   7.570  10.425   1.208
 2167SOL    HW225189   7.438  10.328   1.219
 2168SOL     OW25190   5.047  10.154   6.991
 2168SOL    HW125191   4.997  10.069   7.006
 2168SOL    HW225192   5.012  10.199   6.909
 2169SOL     OW25193   6.668   0.415   0.295
 2169SOL    HW125194   6.727   0.336   0.309
 2169SOL    HW225195   6.713   0.497   0.329
 2170SOL     OW25196   1.410   3.725   0.652
 2170SOL    HW125197   1.435   3.804   0.707
 2170SOL    HW225198   1.449   3.734   0.560
 2171SOL     OW25199   4.531   7.099   1.109
 2171SOL    HW125200   4.536   7.005   1.141
 2171SOL    HW225201   4.436   7.131   1.113
 2172SOL     OW25202   4.790   2.089   7.829
 2172SOL    HW125203   4.714   2.038   7.870
 2172SOL    HW225204   4.755   2.170   7.782
 2173SOL     OW25205   8.354  10.119   0.218
 2173SOL    HW125206   8.451  10.095   0.218
 2173SOL    HW225207   8.324  10.137   0.312
 2174SOL     OW25208   3.832   8.502   6.847
 2174SOL    HW125209   3.927   8.508   6.875
 2174SOL    HW225210   3.827   8.491   6.747
 2175SOL     OW25211   1.292   4.135   0.730
 2175SOL    HW125212   1.197   4.120   0.702
 2175SOL    HW225213   1.318   4.230   0.713
 2176SOL     OW25214   3.456   4.747   7.721
 2176SOL    HW125215   3.479   4.805   7.643
 2176SOL    HW225216   3.509   4.663   7.717
 2177SOL     OW25217   2.413   0.396   6.833
 2177SOL    HW125218   2.443   0.304   6.806
 2177SOL    HW225219   2.321   0.413   6.798
 2178SOL     OW25220   7.563   5.781   8.612
 2178SOL    HW125221   7.571   5.703   8.674
 2178SOL    HW225222   7.646   5.837   8.618
 2179SOL     OW25223   3.215   6.645   0.095
 2179SOL    HW125224   3.238   6.735   0.056
 2179SOL    HW225225   3.284   6.619   0.162
 2180SOL     OW25226   9.414   9.854   0.087
 2180SOL    HW125227   9.453   9.844   8.777
 2180SOL    HW225228   9.329   9.802   0.093
 2181SOL     OW25229   1.175   6.117   7.377
 2181SOL    HW125230   1.108   6.046   7.355
 2181SOL    HW225231   1.237   6.130   7.299
 2182SOL     OW25232   0.169   1.245   7.668
 2182SOL    HW125233   0.097   1.196   7.619
 2182SOL    HW225234   0.164   1.342   7.647
 2183SOL     OW25235   2.560   7.076   1.072
 2183SOL    HW125236   2.563   7.176   1.079
 2183SOL    HW225237   2.612   7.047   0.991
 2184SOL     OW25238   0.794   5.608   6.576
 2184SOL    HW125239   0.739   5.680   6.535
 2184SOL    HW225240   0.889   5.638   6.583
 2185SOL     OW25241   4.228   8.936   1.605
 2185SOL    HW125242   4.313   8.883   1.596
 2185SOL    HW225243   4.173   8.898   1.680
 2186SOL     OW25244   3.140   9.252   6.411
 2186SOL    HW125245   3.115   9.181   6.478
 2186SOL    HW225246   3.208   9.216   6.348
 2187SOL     OW25247   8.100   7.545   0.460
 2187SOL    HW125248   8.030   7.517   0.395
 2187SOL    HW225249   8.058   7.593   0.537
 2188SOL     OW25250   5.919   1.064   0.567
 2188SOL    HW125251   5.970   1.089   0.485
 2188SOL    HW225252   5.957   0.980   0.605
 2189SOL     OW25253   8.083   3.301   1.790
 2189SOL    HW125254   8.038   3.214   1.811
 2189SOL    HW225255   8.176   3.283   1.758
 2190SOL     OW25256   9.227   9.647   8.175
 2190SOL    HW125257   9.210   9.553   8.205
 2190SOL    HW225258   9.309   9.682   8.220
 2191SOL     OW25259   6.218   8.654   8.753
 2191SOL    HW125260   6.183   8.632   8.662
 2191SOL    HW225261   6.173   8.736   0.005
 2192SOL     OW25262   9.458   8.947   1.488
 2192SOL    HW125263   9.534   8.912   1.434
 2192SOL    HW225264   9.382   8.969   1.427
 2193SOL     OW25265   5.380   2.551   1.503
 2193SOL    HW125266   5.403   2.462   1.542
 2193SOL    HW225267   5.444   2.620   1.537
 2194SOL     OW25268   6.798   0.296   0.698
 2194SOL    HW125269   6.766   0.213   0.653
 2194SOL    HW225270   6.763   0.299   0.792
 2195SOL     OW25271   7.955   8.057   1.210
 2195SOL    HW125272   8.054   8.052   1.197
 2195SOL    HW225273   7.910   7.983   1.161
 2196SOL     OW25274   3.865   1.196   6.409
 2196SOL    HW125275   3.862   1.159   6.502
 2196SOL    HW225276   3.806   1.143   6.349
 2197SOL     OW25277   7.134   8.729   0.954
 2197SOL    HW125278   7.062   8.676   0.999
 2197SOL    HW225279   7.188   8.669   0.895
 2198SOL     OW25280   2.160  10.495   1.470
 2198SOL    HW125281   2.152   0.071   1.530
 2198SOL    HW225282   2.072  10.447   1.465
 2199SOL     OW25283   4.928   2.232   7.157
 2199SOL    HW125284   4.871   2.162   7.114
 2199SOL    HW225285   4.875   2.316   7.167
 2200SOL     OW25286   0.699   2.580   7.837
 2200SOL    HW125287   0.651   2.646   7.894
 2200SOL    HW225288   0.639   2.501   7.819
 2201SOL     OW25289   7.169   5.515   6.147
 2201SOL    HW125290   7.263   5.503   6.113
 2201SOL    HW225291   7.125   5.591   6.099
 2202SOL     OW25292   6.912   9.627   0.277
 2202SOL    HW125293   6.954   9.551   0.327
 2202SOL    HW225294   6.973   9.657   0.204
 2203SOL     OW25295   0.081   5.171   0.530
 2203SOL    HW125296   0.155   5.165   0.597
 2203SOL    HW225297   0.002   5.119   0.562
 2204SOL     OW25298   1.516   0.342   1.301
 2204SOL    HW125299   1.587   0.349   1.370
 2204SOL    HW225300   1.529   0.415   1.233
 2205SOL     OW25301   9.814   3.958   0.563
 2205SOL    HW125302   9.769   3.887   0.508
 2205SOL    HW225303   9.900   3.921   0.600
 2206SOL     OW25304   3.427   4.841   0.685
 2206SOL    HW125305   3.379   4.753   0.683
 2206SOL    HW225306   3.402   4.894   0.604
 2207SOL     OW25307   3.989   5.105   8.165
 2207SOL    HW125308   4.014   5.136   8.256
 2207SOL    HW225309   4.071   5.093   8.109
 2208SOL     OW25310   8.451   1.014   7.332
 2208SOL    HW125311   8.436   1.044   7.426
 2208SOL    HW225312   8.440   1.092   7.270
 2209SOL     OW25313   8.734   1.244   0.617
 2209SOL    HW125314   8.639   1.216   0.633
 2209SOL    HW225315   8.758   1.318   0.679
 2210SOL     OW25316   3.500   4.367   1.592
 2210SOL    HW125317   3.592   4.398   1.565
 2210SOL    HW225318   3.506   4.274   1.629
 2211SOL     OW25319   8.223   3.254   8.499
 2211SOL    HW125320   8.208   3.339   8.449
 2211SOL    HW225321   8.202   3.268   8.595
 2212SOL     OW25322   6.460   3.896   0.716
 2212SOL    HW125323   6.393   3.840   0.766
 2212SOL    HW225324   6.437   3.992   0.725
 2213SOL     OW25325   3.996   6.127   0.710
 2213SOL    HW125326   3.995   6.070   0.792
 2213SOL    HW225327   3.911   6.179   0.705
 2214SOL     OW25328   8.658   4.636   1.966
 2214SOL    HW125329   8.568   4.610   1.931
 2214SOL    HW225330   8.669   4.602   2.060
 2215SOL     OW25331   4.372   9.176   6.650
 2215SOL    HW125332   4.460   9.141   6.680
 2215SOL    HW225333   4.302   9.155   6.718
 2216SOL     OW25334   8.416   5.454   7.169
 2216SOL    HW125335   8.415   5.554   7.176
 2216SOL    HW225336   8.439   5.427   7.076
 2217SOL     OW25337   1.880   8.372   7.976
 2217SOL    HW125338   1.906   8.336   8.065
 2217SOL    HW225339   1.880   8.299   7.908
 2218SOL     OW25340   6.349   1.830   7.803
 2218SOL    HW125341   6.326   1.840   7.706
 2218SOL    HW225342   6.292   1.758   7.844
 2219SOL     OW25343   6.713   7.603   7.935
 2219SOL    HW125344   6.620   7.593   7.971
 2219SOL    HW225345   6.750   7.512   7.915
 2220SOL     OW25346   9.049   0.861   8.544
 2220SOL    HW125347   8.986   0.823   8.612
 2220SOL    HW225348   9.141   0.826   8.562
 2221SOL     OW25349   2.962   6.920   0.316
 2221SOL    HW125350   2.927   7.014   0.324
 2221SOL    HW225351   3.059   6.922   0.295
 2222SOL     OW25352   2.970   9.121   1.258
 2222SOL    HW125353   3.064   9.157   1.258
 2222SOL    HW225354   2.905   9.197   1.250
 2223SOL     OW25355   8.258  10.027   2.468
 2223SOL    HW125356   8.220   9.973   2.543
 2223SOL    HW225357   8.356  10.042   2.483
 2224SOL     OW25358   8.186   7.696   0.040
 2224SOL    HW125359   8.106   7.686   0.099
 2224SOL    HW225360   8.224   7.788   0.049
 2225SOL     OW25361   9.828   9.345   8.680
 2225SOL    HW125362   9.745   9.383   8.722
 2225SOL    HW225363   9.894   9.324   8.751
 2226SOL     OW25364   8.544   6.908   2.110
 2226SOL    HW125365   8.633   6.862   2.118
 2226SOL    HW225366   8.545   6.992   2.164
 2227SOL     OW25367   6.352   9.635   6.855
 2227SOL    HW125368   6.303   9.703   6.800
 2227SOL    HW225369   6.287   9.585   6.912
 2228SOL     OW25370   9.695   1.711   6.354
 2228SOL    HW125371   9.717   1.765   6.273
 2228SOL    HW225372   9.724   1.616   6.339
 2229SOL     OW25373   1.281   1.864   1.331
 2229SOL    HW125374   1.198   1.815   1.359
 2229SOL    HW225375   1.268   1.900   1.239
 2230SOL     OW25376   7.240   3.718   7.684
 2230SOL    HW125377   7.279   3.810   7.685
 2230SOL    HW225378   7.307   3.653   7.720
 2231SOL     OW25379   8.537   0.755   0.702
 2231SOL    HW125380   8.633   0.780   0.718
 2231SOL    HW225381   8.505   0.696   0.775
 2232SOL     OW25382   1.676   8.722   8.417
 2232SOL    HW125383   1.592   8.759   8.377
 2232SOL    HW225384   1.731   8.680   8.345
 2233SOL     OW25385   5.788   3.616   6.725
 2233SOL    HW125386   5.857   3.633   6.654
 2233SOL    HW225387   5.697   3.620   6.684
 2234SOL     OW25388   2.621   7.532   7.972
 2234SOL    HW125389   2.526   7.560   7.964
 2234SOL    HW225390   2.679   7.598   7.925
 2235SOL     OW25391   2.388   7.343   6.081
 2235SOL    HW125392   2.318   7.277   6.052
 2235SOL    HW225393   2.471   7.330   6.026
 2236SOL     OW25394   5.227   7.838   8.532
 2236SOL    HW125395   5.162   7.813   8.460
 2236SOL    HW225396   5.183   7.829   8.621
 2237SOL     OW25397   3.536   4.044   1.956
 2237SOL    HW125398   3.507   3.948   1.961
 2237SOL    HW225399   3.492   4.096   2.029
 2238SOL     OW25400   0.459   2.479   6.105
 2238SOL    HW125401   0.375   2.434   6.136
 2238SOL    HW225402   0.448   2.579   6.111
 2239SOL     OW25403   2.766   0.547   8.775
 2239SOL    HW125404   2.701   0.521   8.703
 2239SOL    HW225405   2.725   0.527   0.083
 2240SOL     OW25406   8.769   7.344   8.758
 2240SOL    HW125407   8.808   7.435   8.745
 2240SOL    HW225408   8.690   7.333   8.697
 2241SOL     OW25409   4.710   0.583   7.427
 2241SOL    HW125410   4.787   0.521   7.409
 2241SOL    HW225411   4.670   0.612   7.341
 2242SOL     OW25412   0.351   0.789   1.813
 2242SOL    HW125413   0.406   0.722   1.862
 2242SOL    HW225414   0.348   0.766   1.715
 2243SOL     OW25415   2.015   4.149   0.901
 2243SOL    HW125416   1.999   4.233   0.954
 2243SOL    HW225417   2.094   4.101   0.939
 2244SOL     OW25418   7.757   3.984   7.384
 2244SOL    HW125419   7.693   3.921   7.341
 2244SOL    HW225420   7.849   3.945   7.383
 2245SOL     OW25421   1.193   9.473   0.575
 2245SOL    HW125422   1.232   9.520   0.497
 2245SOL    HW225423   1.133   9.399   0.543
 2246SOL     OW25424   2.645   5.786   7.477
 2246SOL    HW125425   2.596   5.710   7.436
 2246SOL    HW225426   2.594   5.820   7.556
 2247SOL     OW25427   6.249   0.803   6.821
 2247SOL    HW125428   6.340   0.798   6.781
 2247SOL    HW225429   6.256   0.797   6.921
 2248SOL     OW25430   7.712   1.582   0.884
 2248SOL    HW125431   7.700   1.483   0.887
 2248SOL    HW225432   7.793   1.604   0.830
 2249SOL     OW25433   6.488   3.507   1.650
 2249SOL    HW125434   6.572   3.454   1.657
 2249SOL    HW225435   6.510   3.604   1.639
 2250SOL     OW25436   0.673   6.212   7.796
 2250SOL    HW125437   0.653   6.141   7.728
 2250SOL    HW225438   0.768   6.202   7.826
 2251SOL     OW25439   0.120   8.850   1.903
 2251SOL    HW125440   0.039   8.840   1.961
 2251SOL    HW225441   0.122   8.943   1.865
 2252SOL     OW25442   1.991   7.485   1.051
 2252SOL    HW125443   1.979   7.531   1.139
 2252SOL    HW225444   2.086   7.497   1.020
 2253SOL     OW25445   2.349   3.220   1.075
 2253SOL    HW125446   2.273   3.186   1.018
 2253SOL    HW225447   2.430   3.232   1.018
 2254SOL     OW25448   6.470   7.781   2.300
 2254SOL    HW125449   6.467   7.829   2.388
 2254SOL    HW225450   6.556   7.729   2.294
 2255SOL     OW25451   1.449   9.278   0.231
 2255SOL    HW125452   1.353   9.251   0.240
 2255SOL    HW225453   1.455   9.360   0.174
 2256SOL     OW25454   6.912   0.002   8.004
 2256SOL    HW125455   6.967   0.084   7.990
 2256SOL    HW225456   6.971  10.429   8.031
 2257SOL     OW25457   2.669   2.667   1.029
 2257SOL    HW125458   2.768   2.655   1.036
 2257SOL    HW225459   2.637   2.635   0.940
 2258SOL     OW25460   6.615   6.437   7.974
 2258SOL    HW125461   6.714   6.454   7.979
 2258SOL    HW225462   6.568   6.497   8.039
 2259SOL     OW25463   7.885   1.004   7.073
 2259SOL    HW125464   7.918   0.980   6.982
 2259SOL    HW225465   7.817   0.937   7.103
 2260SOL     OW25466   1.817   3.982   8.496
 2260SOL    HW125467   1.751   3.917   8.459
 2260SOL    HW225468   1.886   3.933   8.549
 2261SOL     OW25469   5.358   3.484   1.093
 2261SOL    HW125470   5.316   3.456   1.006
 2261SOL    HW225471   5.301   3.451   1.169
 2262SOL     OW25472   0.171   9.642   7.247
 2262SOL    HW125473   0.157   9.614   7.152
 2262SOL    HW225474   0.089   9.690   7.279
 2263SOL     OW25475   0.930   5.340   0.885
 2263SOL    HW125476   0.906   5.244   0.904
 2263SOL    HW225477   0.883   5.400   0.949
 2264SOL     OW25478   0.799   5.493   1.069
 2264SOL    HW125479   0.799   5.591   1.050
 2264SOL    HW225480   0.724   5.471   1.131
 2265SOL     OW25481   7.361   8.486   0.201
 2265SOL    HW125482   7.309   8.457   0.281
 2265SOL    HW225483   7.313   8.562   0.156
 2266SOL     OW25484   0.926   2.196   2.006
 2266SOL    HW125485   0.934   2.097   1.992
 2266SOL    HW225486   0.940   2.217   2.103
 2267SOL     OW25487   2.161   9.871   1.961
 2267SOL    HW125488   2.119   9.939   2.021
 2267SOL    HW225489   2.212   9.918   1.888
 2268SOL     OW25490   9.341   0.215   1.464
 2268SOL    HW125491   9.360   0.141   1.528
 2268SOL    HW225492   9.316   0.177   1.375
 2269SOL     OW25493   2.425   2.322   1.246
 2269SOL    HW125494   2.509   2.370   1.221
 2269SOL    HW225495   2.369   2.310   1.164
 2270SOL     OW25496   8.884   8.626   1.673
 2270SOL    HW125497   8.801   8.612   1.726
 2270SOL    HW225498   8.936   8.540   1.668
 2271SOL     OW25499   3.995   9.254   6.427
 2271SOL    HW125500   4.093   9.236   6.414
 2271SOL    HW225501   3.942   9.192   6.368
 2272SOL     OW25502   1.551   0.374   8.072
 2272SOL    HW125503   1.571   0.393   8.168
 2272SOL    HW225504   1.543   0.460   8.022
 2273SOL     OW25505   4.757   2.839   7.404
 2273SOL    HW125506   4.784   2.869   7.495
 2273SOL    HW225507   4.669   2.882   7.380
 2274SOL     OW25508   5.513  10.215   1.873
 2274SOL    HW125509   5.548  10.163   1.951
 2274SOL    HW225510   5.531  10.165   1.789
 2275SOL     OW25511   8.442   4.791   1.190
 2275SOL    HW125512   8.484   4.705   1.161
 2275SOL    HW225513   8.408   4.782   1.283
 2276SOL     OW25514   2.894   7.733   8.310
 2276SOL    HW125515   2.828   7.788   8.259
 2276SOL    HW225516   2.960   7.793   8.355
 2277SOL     OW25517   7.537   0.460   6.804
 2277SOL    HW125518   7.537   0.503   6.714
 2277SOL    HW225519   7.573   0.366   6.797
 2278SOL     OW25520   4.553   7.356   0.190
 2278SOL    HW125521   4.537   7.416   0.112
 2278SOL    HW225522   4.567   7.412   0.272
 2279SOL     OW25523   8.536  10.356   0.830
 2279SOL    HW125524   8.622  10.394   0.864
 2279SOL    HW225525   8.460  10.394   0.882
 2280SOL     OW25526   0.363   8.909   6.771
 2280SOL    HW125527   0.337   8.996   6.729
 2280SOL    HW225528   0.343   8.834   6.708
 2281SOL     OW25529   4.082   9.361   7.080
 2281SOL    HW125530   4.035   9.273   7.064
 2281SOL    HW225531   4.115   9.397   6.992
 2282SOL     OW25532   2.802   8.865   1.721
 2282SOL    HW125533   2.888   8.913   1.736
 2282SOL    HW225534   2.747   8.914   1.654
 2283SOL     OW25535   0.955   6.179   0.892
 2283SOL    HW125536   0.981   6.213   0.801
 2283SOL    HW225537   0.891   6.244   0.934
 2284SOL     OW25538   8.812   3.980   7.570
 2284SOL    HW125539   8.733   3.919   7.576
 2284SOL    HW225540   8.875   3.948   7.500
 2285SOL     OW25541   3.237   6.955   0.262
 2285SOL    HW125542   3.303   6.967   0.336
 2285SOL    HW225543   3.207   7.044   0.229
 2286SOL     OW25544   9.237   2.045   0.354
 2286SOL    HW125545   9.166   1.975   0.346
 2286SOL    HW225546   9.201   2.123   0.406
 2287SOL     OW25547   6.484   5.596   0.792
 2287SOL    HW125548   6.428   5.650   0.854
 2287SOL    HW225549   6.527   5.521   0.843
 2288SOL     OW25550   4.458   2.956   1.116
 2288SOL    HW125551   4.411   2.869   1.102
 2288SOL    HW225552   4.552   2.938   1.147
 2289SOL     OW25553   9.217   6.851   1.017
 2289SOL    HW125554   9.314   6.876   1.014
 2289SOL    HW225555   9.162   6.929   0.986
 2290SOL     OW25556   0.642   9.089   1.700
 2290SOL    HW125557   0.721   9.115   1.644
 2290SOL    HW225558   0.673   9.060   1.790
 2291SOL     OW25559   4.347   3.108   7.946
 2291SOL    HW125560   4.400   3.121   7.863
 2291SOL    HW225561   4.398   3.050   8.010
 2292SOL     OW25562   4.736   8.285   7.928
 2292SOL    HW125563   4.669   8.297   7.855
 2292SOL    HW225564   4.797   8.209   7.905
 2293SOL     OW25565   4.099   0.899   6.643
 2293SOL    HW125566   4.151   0.814   6.635
 2293SOL    HW225567   4.110   0.935   6.736
 2294SOL     OW25568   3.319   3.672   8.364
 2294SOL    HW125569   3.343   3.637   8.274
 2294SOL    HW225570   3.229   3.717   8.360
 2295SOL     OW25571   5.449   2.742   8.646
 2295SOL    HW125572   5.398   2.758   8.561
 2295SOL    HW225573   5.537   2.699   8.625
 2296SOL     OW25574   5.460   7.365   8.562
 2296SOL    HW125575   5.396   7.324   8.497
 2296SOL    HW225576   5.446   7.464   8.565
 2297SOL     OW25577   5.201   2.254   7.646
 2297SOL    HW125578   5.294   2.286   7.627
 2297SOL    HW225579   5.185   2.167   7.599
 2298SOL     OW25580   7.616   0.428   0.324
 2298SOL    HW125581   7.559   0.450   0.404
 2298SOL    HW225582   7.648   0.334   0.331
 2299SOL     OW25583   7.511   1.212   8.068
 2299SOL    HW125584   7.421   1.223   8.026
 2299SOL    HW225585   7.579   1.265   8.016
 2300SOL     OW25586   0.930   7.103   6.827
 2300SOL    HW125587   0.887   7.112   6.737
 2300SOL    HW225588   0.901   7.178   6.886
 2301SOL     OW25589   1.548   1.814   1.109
 2301SOL    HW125590   1.620   1.852   1.167
 2301SOL    HW225591   1.491   1.752   1.163
 2302SOL     OW25592   1.486   9.714   7.640
 2302SOL    HW125593   1.522   9.755   7.556
 2302SOL    HW225594   1.413   9.650   7.618
 2303SOL     OW25595   9.608   9.576   1.988
 2303SOL    HW125596   9.562   9.641   1.928
 2303SOL    HW225597   9.544   9.546   2.059
 2304SOL     OW25598   6.428   2.009   0.965
 2304SOL    HW125599   6.435   2.079   0.894
 2304SOL    HW225600   6.418   2.052   1.054
 2305SOL     OW25601   4.439   3.409   7.774
 2305SOL    HW125602   4.383   3.402   7.857
 2305SOL    HW225603   4.533   3.382   7.796
 2306SOL     OW25604   9.452   2.853   1.247
 2306SOL    HW125605   9.430   2.872   1.152
 2306SOL    HW225606   9.548   2.825   1.255
 2307SOL     OW25607   6.306   2.501   7.786
 2307SOL    HW125608   6.248   2.426   7.818
 2307SOL    HW225609   6.330   2.486   7.690
 2308SOL     OW25610   3.644   4.639   6.549
 2308SOL    HW125611   3.594   4.612   6.467
 2308SOL    HW225612   3.594   4.610   6.630
 2309SOL     OW25613   6.074   0.234   8.613
 2309SOL    HW125614   5.984   0.252   8.572
 2309SOL    HW225615   6.122   0.321   8.627
 2310SOL     OW25616   9.976   1.331   0.655
 2310SOL    HW125617  10.009   1.412   0.704
 2310SOL    HW225618   9.883   1.347   0.622
 2311SOL     OW25619   8.380  10.103   6.730
 2311SOL    HW125620   8.331  10.188   6.714
 2311SOL    HW225621   8.354  10.036   6.660
 2312SOL     OW25622   2.011   8.357   1.524
 2312SOL    HW125623   1.994   8.445   1.567
 2312SOL    HW225624   2.041   8.291   1.593
 2313SOL     OW25625   9.241   8.353   2.167
 2313SOL    HW125626   9.166   8.287   2.172
 2313SOL    HW225627   9.266   8.383   2.259
 2314SOL     OW25628   4.245   2.453   1.111
 2314SOL    HW125629   4.323   2.405   1.071
 2314SOL    HW225630   4.207   2.399   1.186
 2315SOL     OW25631   3.008   2.625   7.297
 2315SOL    HW125632   2.916   2.586   7.285
 2315SOL    HW225633   3.026   2.639   7.394
 2316SOL     OW25634   8.404   5.176   0.092
 2316SOL    HW125635   8.418   5.237   0.015
 2316SOL    HW225636   8.352   5.224   0.163
 2317SOL     OW25637   1.577  10.330   7.383
 2317SOL    HW125638   1.643  10.347   7.456
 2317SOL    HW225639   1.493  10.293   7.422
 2318SOL     OW25640   3.531  10.039   1.305
 2318SOL    HW125641   3.462   9.968   1.288
 2318SOL    HW225642   3.567  10.028   1.398
 2319SOL     OW25643   4.521   3.732   0.504
 2319SOL    HW125644   4.537   3.638   0.534
 2319SOL    HW225645   4.488   3.787   0.580
 2320SOL     OW25646   8.201   2.101   1.850
 2320SOL    HW125647   8.127   2.117   1.916
 2320SOL    HW225648   8.186   2.158   1.769
 2321SOL     OW25649   4.436   4.490   1.117
 2321SOL    HW125650   4.521   4.541   1.132
 2321SOL    HW225651   4.455   4.412   1.058
 2322SOL     OW25652   0.093   4.159   1.231
 2322SOL    HW125653   0.169   4.095   1.218
 2322SOL    HW225654   0.120   4.250   1.199
 2323SOL     OW25655   4.848   1.924   6.388
 2323SOL    HW125656   4.843   1.867   6.470
 2323SOL    HW225657   4.789   1.886   6.317
 2324SOL     OW25658   9.209   0.979   7.697
 2324SOL    HW125659   9.176   1.072   7.714
 2324SOL    HW225660   9.289   0.961   7.754
 2325SOL     OW25661   1.385   7.850   6.344
 2325SOL    HW125662   1.383   7.766   6.399
 2325SOL    HW225663   1.387   7.826   6.247
 2326SOL     OW25664   3.546   4.702   7.055
 2326SOL    HW125665   3.578   4.767   6.986
 2326SOL    HW225666   3.446   4.708   7.063
 2327SOL     OW25667   6.171   0.305   7.224
 2327SOL    HW125668   6.145   0.308   7.128
 2327SOL    HW225669   6.126   0.380   7.273
 2328SOL     OW25670   3.406   1.476   7.331
 2328SOL    HW125671   3.319   1.426   7.325
 2328SOL    HW225672   3.421   1.526   7.246
 2329SOL     OW25673   0.785   1.724   2.016
 2329SOL    HW125674   0.728   1.691   1.941
 2329SOL    HW225675   0.731   1.724   2.101
 2330SOL     OW25676   5.407   5.457   7.463
 2330SOL    HW125677   5.468   5.378   7.462
 2330SOL    HW225678   5.449   5.532   7.411
 2331SOL     OW25679   4.879   4.422   0.721
 2331SOL    HW125680   4.948   4.442   0.790
 2331SOL    HW225681   4.843   4.329   0.735
 2332SOL     OW25682   0.619   4.766   1.033
 2332SOL    HW125683   0.557   4.821   0.976
 2332SOL    HW225684   0.565   4.711   1.096
 2333SOL     OW25685   8.099   1.198   0.053
 2333SOL    HW125686   8.044   1.194   8.751
 2333SOL    HW225687   8.069   1.127   0.116
 2334SOL     OW25688   3.469   7.232   0.259
 2334SOL    HW125689   3.517   7.318   0.245
 2334SOL    HW225690   3.460   7.184   0.172
 2335SOL     OW25691   5.257   3.347   2.186
 2335SOL    HW125692   5.320   3.311   2.256
 2335SOL    HW225693   5.263   3.447   2.184
 2336SOL     OW25694   6.767   3.196   0.872
 2336SOL    HW125695   6.758   3.295   0.866
 2336SOL    HW225696   6.677   3.156   0.892
 2337SOL     OW25697   6.552   5.562   1.943
 2337SOL    HW125698   6.542   5.464   1.955
 2337SOL    HW225699   6.476   5.609   1.987
 2338SOL     OW25700   6.019   7.949   1.575
 2338SOL    HW125701   6.066   7.937   1.663
 2338SOL    HW225702   6.060   8.026   1.526
 2339SOL     OW25703   4.864   5.922   8.535
 2339SOL    HW125704   4.829   5.841   8.582
 2339SOL    HW225705   4.909   5.982   8.602
 2340SOL     OW25706   2.070   1.439   1.087
 2340SOL    HW125707   2.162   1.476   1.077
 2340SOL    HW225708   2.022   1.488   1.160
 2341SOL     OW25709   3.181   5.685   1.566
 2341SOL    HW125710   3.212   5.669   1.472
 2341SOL    HW225711   3.230   5.625   1.628
 2342SOL     OW25712   3.460   4.286   1.060
 2342SOL    HW125713   3.460   4.325   1.152
 2342SOL    HW225714   3.369   4.251   1.037
 2343SOL     OW25715   9.926   6.666   8.017
 2343SOL    HW125716  10.022   6.677   8.041
 2343SOL    HW225717   9.872   6.740   8.058
 2344SOL     OW25718   0.475   7.719   7.628
 2344SOL    HW125719   0.539   7.796   7.624
 2344SOL    HW225720   0.415   7.722   7.548
 2345SOL     OW25721   9.737   6.916   1.306
 2345SOL    HW125722   9.702   6.925   1.399
 2345SOL    HW225723   9.751   6.819   1.285
 2346SOL     OW25724   9.474   4.216   8.603
 2346SOL    HW125725   9.441   4.183   8.691
 2346SOL    HW225726   9.397   4.252   8.550
 2347SOL     OW25727   6.420   1.932   0.634
 2347SOL    HW125728   6.417   1.868   0.710
 2347SOL    HW225729   6.416   2.026   0.669
 2348SOL     OW25730   7.865  10.402   0.849
 2348SOL    HW125731   7.923  10.469   0.897
 2348SOL    HW225732   7.922  10.348   0.788
 2349SOL     OW25733   2.251   6.262   7.515
 2349SOL    HW125734   2.174   6.223   7.565
 2349SOL    HW225735   2.222   6.346   7.469
 2350SOL     OW25736   7.648   8.210   0.769
 2350SOL    HW125737   7.684   8.288   0.821
 2350SOL    HW225738   7.552   8.225   0.748
 2351SOL     OW25739   6.372  10.096   7.020
 2351SOL    HW125740   6.455  10.043   7.037
 2351SOL    HW225741   6.393  10.171   6.957
 2352SOL     OW25742   3.772   4.010   0.724
 2352SOL    HW125743   3.706   4.017   0.649
 2352SOL    HW225744   3.747   4.073   0.798
 2353SOL     OW25745   6.420   5.995   7.975
 2353SOL    HW125746   6.356   6.016   7.901
 2353SOL    HW225747   6.418   6.068   8.043
 2354SOL     OW25748   2.484   3.909   8.747
 2354SOL    HW125749   2.576   3.890   8.782
 2354SOL    HW225750   2.454   3.834   8.688
 2355SOL     OW25751   3.291   7.182   1.723
 2355SOL    HW125752   3.219   7.133   1.773
 2355SOL    HW225753   3.293   7.277   1.754
 2356SOL     OW25754   9.530   1.944   0.677
 2356SOL    HW125755   9.517   1.990   0.589
 2356SOL    HW225756   9.565   1.852   0.662
 2357SOL     OW25757   4.281   5.432   8.076
 2357SOL    HW125758   4.194   5.481   8.080
 2357SOL    HW225759   4.314   5.429   7.982
 2358SOL     OW25760   1.076   6.219   1.582
 2358SOL    HW125761   1.021   6.136   1.582
 2358SOL    HW225762   1.028   6.292   1.535
 2359SOL     OW25763   8.944   7.913   1.611
 2359SOL    HW125764   9.020   7.925   1.674
 2359SOL    HW225765   8.962   7.962   1.526
 2360SOL     OW25766   4.585   6.047   6.595
 2360SOL    HW125767   4.516   6.022   6.527
 2360SOL    HW225768   4.618   6.140   6.576
 2361SOL     OW25769   1.317  10.480   6.541
 2361SOL    HW125770   1.360   0.006   6.627
 2361SOL    HW225771   1.264  10.396   6.556
 2362SOL     OW25772   8.207   7.505   1.006
 2362SOL    HW125773   8.202   7.447   1.087
 2362SOL    HW225774   8.200   7.448   0.924
 2363SOL     OW25775   0.036   7.754   1.077
 2363SOL    HW125776   0.011   7.826   1.012
 2363SOL    HW225777  10.151   7.668   1.049
 2364SOL     OW25778   5.751   3.104   2.264
 2364SOL    HW125779   5.830   3.099   2.324
 2364SOL    HW225780   5.691   3.025   2.281
 2365SOL     OW25781   1.707   0.186   0.195
 2365SOL    HW125782   1.610   0.197   0.218
 2365SOL    HW225783   1.750   0.124   0.261
 2366SOL     OW25784   9.389   2.169   2.009
 2366SOL    HW125785   9.353   2.220   1.931
 2366SOL    HW225786   9.480   2.202   2.032
 2367SOL     OW25787   5.279   1.565   0.720
 2367SOL    HW125788   5.325   1.478   0.739
 2367SOL    HW225789   5.185   1.547   0.692
 2368SOL     OW25790   2.021   7.013   0.494
 2368SOL    HW125791   2.061   6.923   0.477
 2368SOL    HW225792   1.937   7.022   0.440
 2369SOL     OW25793   8.735   3.806   7.087
 2369SOL    HW125794   8.771   3.856   7.008
 2369SOL    HW225795   8.810   3.764   7.137
 2370SOL     OW25796   2.785   2.325   8.301
 2370SOL    HW125797   2.876   2.313   8.341
 2370SOL    HW225798   2.750   2.416   8.325
 2371SOL     OW25799   5.908  10.202   0.071
 2371SOL    HW125800   5.955  10.286   0.101
 2371SOL    HW225801   5.917  10.193   8.753
 2372SOL     OW25802  10.150   8.965   6.768
 2372SOL    HW125803   0.040   8.889   6.723
 2372SOL    HW225804  10.081   9.002   6.707
 2373SOL     OW25805   6.149   4.013   1.549
 2373SOL    HW125806   6.186   3.920   1.547
 2373SOL    HW225807   6.212   4.075   1.501
 2374SOL     OW25808   3.174   7.149   7.963
 2374SOL    HW125809   3.221   7.135   8.050
 2374SOL    HW225810   3.241   7.145   7.889
 2375SOL     OW25811   7.175   2.831   0.374
 2375SOL    HW125812   7.157   2.856   0.279
 2375SOL    HW225813   7.220   2.907   0.421
 2376SOL     OW25814   1.929   7.081   0.741
 2376SOL    HW125815   1.971   7.057   0.654
 2376SOL    HW225816   1.996   7.071   0.815
 2377SOL     OW25817   1.959   0.047   7.539
 2377SOL    HW125818   2.028   0.013   7.603
 2377SOL    HW225819   2.002   0.063   7.450
 2378SOL     OW25820   3.413   8.591   8.585
 2378SOL    HW125821   3.450   8.525   8.650
 2378SOL    HW225822   3.399   8.679   8.631
 2379SOL     OW25823   9.951   0.355   1.541
 2379SOL    HW125824   9.910   0.297   1.612
 2379SOL    HW225825   9.960   0.448   1.576
 2380SOL     OW25826   3.031   6.132   0.647
 2380SOL    HW125827   3.099   6.180   0.702
 2380SOL    HW225828   3.017   6.040   0.684
 2381SOL     OW25829   6.161   7.732   6.571
 2381SOL    HW125830   6.225   7.687   6.509
 2381SOL    HW225831   6.070   7.691   6.561
 2382SOL     OW25832   1.570   2.799   6.916
 2382SOL    HW125833   1.556   2.784   7.013
 2382SOL    HW225834   1.513   2.736   6.863
 2383SOL     OW25835   5.216   9.720   0.392
 2383SOL    HW125836   5.275   9.799   0.404
 2383SOL    HW225837   5.125   9.739   0.430
 2384SOL     OW25838   3.654   8.809   1.648
 2384SOL    HW125839   3.597   8.837   1.570
 2384SOL    HW225840   3.601   8.817   1.732
 2385SOL     OW25841   2.928   4.018   0.912
 2385SOL    HW125842   2.846   3.964   0.891
 2385SOL    HW225843   2.996   3.958   0.955
 2386SOL     OW25844   8.913   5.883   7.151
 2386SOL    HW125845   8.942   5.905   7.058
 2386SOL    HW225846   8.971   5.810   7.187
 2387SOL     OW25847  10.136   4.281   7.863
 2387SOL    HW125848  10.128   4.300   7.766
 2387SOL    HW225849   0.000   4.366   7.912
 2388SOL     OW25850   4.193   9.081   0.200
 2388SOL    HW125851   4.244   9.029   0.131
 2388SOL    HW225852   4.252   9.102   0.278
 2389SOL     OW25853   8.812   2.137   7.115
 2389SOL    HW125854   8.739   2.172   7.056
 2389SOL    HW225855   8.820   2.038   7.102
 2390SOL     OW25856   5.849   5.915   7.510
 2390SOL    HW125857   5.888   5.926   7.419
 2390SOL    HW225858   5.886   5.986   7.570
 2391SOL     OW25859   4.724   0.155   8.700
 2391SOL    HW125860   4.710   0.125   8.606
 2391SOL    HW225861   4.642   0.135   8.755
 2392SOL     OW25862   1.302   2.235   7.059
 2392SOL    HW125863   1.259   2.144   7.057
 2392SOL    HW225864   1.402   2.224   7.058
 2393SOL     OW25865   8.614   2.860   6.298
 2393SOL    HW125866   8.595   2.768   6.265
 2393SOL    HW225867   8.713   2.873   6.305
 2394SOL     OW25868   0.013   6.751   1.158
 2394SOL    HW125869  10.126   6.798   1.081
 2394SOL    HW225870  10.118   6.767   1.241
 2395SOL     OW25871   4.223   3.832   2.070
 2395SOL    HW125872   4.132   3.854   2.106
 2395SOL    HW225873   4.268   3.916   2.041
 2396SOL     OW25874   8.631   8.105   8.647
 2396SOL    HW125875   8.637   8.182   8.583
 2396SOL    HW225876   8.578   8.032   8.605
 2397SOL     OW25877   3.741   5.468   8.176
 2397SOL    HW125878   3.778   5.443   8.266
 2397SOL    HW225879   3.703   5.561   8.180
 2398SOL     OW25880   8.899   6.937   1.649
 2398SOL    HW125881   8.932   7.014   1.594
 2398SOL    HW225882   8.819   6.967   1.702
 2399SOL     OW25883   0.503   8.510   0.170
 2399SOL    HW125884   0.413   8.529   0.131
 2399SOL    HW225885   0.494   8.442   0.243
 2400SOL     OW25886   7.211   5.605   6.979
 2400SOL    HW125887   7.160   5.592   6.894
 2400SOL    HW225888   7.283   5.535   6.985
 2401SOL     OW25889   9.085   7.574   0.680
 2401SOL    HW125890   9.137   7.490   0.665
 2401SOL    HW225891   9.128   7.650   0.631
 2402SOL     OW25892   7.598   5.401   1.774
 2402SOL    HW125893   7.543   5.482   1.755
 2402SOL    HW225894   7.693   5.428   1.793
 2403SOL     OW25895   3.601   9.759   8.687
 2403SOL    HW125896   3.538   9.822   8.642
 2403SOL    HW225897   3.688   9.756   8.638
 2404SOL     OW25898   0.549   4.419   1.151
 2404SOL    HW125899   0.644   4.445   1.167
 2404SOL    HW225900   0.489   4.493   1.180
 2405SOL     OW25901   9.938   3.936   6.819
 2405SOL    HW125902  10.005   4.008   6.840
 2405SOL    HW225903   9.847   3.965   6.849
 2406SOL     OW25904   4.498   3.596   1.344
 2406SOL    HW125905   4.556   3.631   1.270
 2406SOL    HW225906   4.549   3.598   1.430
 2407SOL     OW25907   2.497   9.694   0.420
 2407SOL    HW125908   2.412   9.745   0.438
 2407SOL    HW225909   2.485   9.599   0.448
 2408SOL     OW25910   6.709   4.598   1.075
 2408SOL    HW125911   6.625   4.549   1.100
 2408SOL    HW225912   6.689   4.664   1.003
 2409SOL     OW25913   7.529   9.271   8.109
 2409SOL    HW125914   7.443   9.298   8.152
 2409SOL    HW225915   7.606   9.307   8.161
 2410SOL     OW25916   2.530   0.763   7.749
 2410SOL    HW125917   2.437   0.785   7.781
 2410SOL    HW225918   2.527   0.742   7.652
 2411SOL     OW25919   3.077  10.073   6.159
 2411SOL    HW125920   3.049  10.160   6.119
 2411SOL    HW225921   3.009  10.003   6.136
 2412SOL     OW25922   1.787   1.946   1.179
 2412SOL    HW125923   1.814   1.978   1.269
 2412SOL    HW225924   1.803   2.018   1.111
 2413SOL     OW25925   5.732   7.835   0.108
 2413SOL    HW125926   5.775   7.818   0.019
 2413SOL    HW225927   5.741   7.932   0.131
 2414SOL     OW25928   2.753   7.264   7.384
 2414SOL    HW125929   2.803   7.294   7.466
 2414SOL    HW225930   2.818   7.237   7.313
 2415SOL     OW25931   8.446  10.022   8.193
 2415SOL    HW125932   8.376  10.038   8.123
 2415SOL    HW225933   8.428  10.081   8.272
 2416SOL     OW25934   2.187   7.083   6.479
 2416SOL    HW125935   2.139   7.150   6.423
 2416SOL    HW225936   2.128   7.004   6.495
 2417SOL     OW25937   1.371   5.521   1.184
 2417SOL    HW125938   1.456   5.506   1.133
 2417SOL    HW225939   1.314   5.587   1.135
 2418SOL     OW25940   1.866   7.298   7.728
 2418SOL    HW125941   1.912   7.366   7.670
 2418SOL    HW225942   1.803   7.244   7.672
 2419SOL     OW25943   5.281   1.845   1.520
 2419SOL    HW125944   5.236   1.778   1.461
 2419SOL    HW225945   5.375   1.817   1.537
 2420SOL     OW25946   2.213   1.747   1.807
 2420SOL    HW125947   2.309   1.725   1.826
 2420SOL    HW225948   2.159   1.663   1.807
 2421SOL     OW25949   6.987   1.763   1.467
 2421SOL    HW125950   6.903   1.809   1.437
 2421SOL    HW225951   7.040   1.826   1.523
 2422SOL     OW25952   5.258   6.857   0.531
 2422SOL    HW125953   5.283   6.945   0.571
 2422SOL    HW225954   5.285   6.784   0.593
 2423SOL     OW25955   6.384  10.045   1.667
 2423SOL    HW125956   6.360   9.951   1.689
 2423SOL    HW225957   6.307  10.090   1.621
 2424SOL     OW25958   2.954   1.585   1.707
 2424SOL    HW125959   3.048   1.554   1.691
 2424SOL    HW225960   2.940   1.604   1.804
 2425SOL     OW25961   7.583  10.233   0.028
 2425SOL    HW125962   7.594  10.200   0.121
 2425SOL    HW225963   7.660  10.292   0.004
 2426SOL     OW25964   9.141   5.457   1.376
 2426SOL    HW125965   9.136   5.550   1.414
 2426SOL    HW225966   9.103   5.392   1.441
 2427SOL     OW25967   0.673   4.666   1.416
 2427SOL    HW125968   0.695   4.764   1.416
 2427SOL    HW225969   0.707   4.625   1.332
 2428SOL     OW25970   8.522   9.390   1.317
 2428SOL    HW125971   8.473   9.344   1.242
 2428SOL    HW225972   8.456   9.442   1.372
 2429SOL     OW25973   7.513   8.623   7.834
 2429SOL    HW125974   7.559   8.691   7.891
 2429SOL    HW225975   7.554   8.623   7.743
 2430SOL     OW25976   6.888   5.493   0.948
 2430SOL    HW125977   6.892   5.590   0.970
 2430SOL    HW225978   6.798   5.472   0.909
 2431SOL     OW25979   3.207   5.648   8.394
 2431SOL    HW125980   3.304   5.672   8.386
 2431SOL    HW225981   3.163   5.708   8.461
 2432SOL     OW25982  10.112   4.861   6.667
 2432SOL    HW125983  10.078   4.868   6.573
 2432SOL    HW225984   0.054   4.866   6.666
 2433SOL     OW25985   6.130   5.609   1.602
 2433SOL    HW125986   6.097   5.669   1.675
 2433SOL    HW225987   6.053   5.581   1.545
 2434SOL     OW25988   5.920   8.369   0.429
 2434SOL    HW125989   5.852   8.407   0.492
 2434SOL    HW225990   5.958   8.285   0.468
 2435SOL     OW25991   2.418   9.755   7.496
 2435SOL    HW125992   2.481   9.709   7.434
 2435SOL    HW225993   2.353   9.810   7.443
 2436SOL     OW25994   5.225   4.438   1.767
 2436SOL    HW125995   5.320   4.448   1.737
 2436SOL    HW225996   5.215   4.354   1.820
 2437SOL     OW25997   7.893   8.147   6.281
 2437SOL    HW125998   7.948   8.210   6.226
 2437SOL    HW225999   7.832   8.200   6.341
 2438SOL     OW26000   7.565   7.772   8.724
 2438SOL    HW126001   7.626   7.851   8.719
 2438SOL    HW226002   7.612   7.691   8.687
 2439SOL     OW26003   3.459   2.855   6.672
 2439SOL    HW126004   3.395   2.857   6.748
 2439SOL    HW226005   3.413   2.886   6.589
 2440SOL     OW26006   3.590   3.231   0.080
 2440SOL    HW126007   3.503   3.196   0.114
 2440SOL    HW226008   3.650   3.155   0.056
 2441SOL     OW26009   1.646   0.876   1.342
 2441SOL    HW126010   1.561   0.832   1.314
 2441SOL    HW226011   1.716   0.860   1.272
 2442SOL     OW26012   9.717   3.276   7.000
 2442SOL    HW126013   9.675   3.281   6.910
 2442SOL    HW226014   9.658   3.227   7.063
 2443SOL     OW26015   4.761   8.068   8.515
 2443SOL    HW126016   4.821   8.099   8.442
 2443SOL    HW226017   4.801   7.986   8.558
 2444SOL     OW26018   6.568   9.731   8.680
 2444SOL    HW126019   6.587   9.828   8.665
 2444SOL    HW226020   6.487   9.705   8.627
 2445SOL     OW26021   0.599   8.208   1.233
 2445SOL    HW126022   0.515   8.261   1.238
 2445SOL    HW226023   0.589   8.125   1.288
 2446SOL     OW26024   0.033   1.917   1.318
 2446SOL    HW126025   0.002   2.011   1.326
 2446SOL    HW226026   0.084   1.891   1.400
 2447SOL     OW26027   1.648   9.125   0.122
 2447SOL    HW126028   1.572   9.175   0.165
 2447SOL    HW226029   1.706   9.086   0.193
 2448SOL     OW26030   8.904   0.708   6.818
 2448SOL    HW126031   8.950   0.777   6.762
 2448SOL    HW226032   8.927   0.616   6.783
 2449SOL     OW26033   4.037   0.939   7.326
 2449SOL    HW126034   4.001   1.017   7.275
 2449SOL    HW226035   4.117   0.968   7.379
 2450SOL     OW26036   1.423   4.067   7.097
 2450SOL    HW126037   1.345   4.096   7.152
 2450SOL    HW226038   1.499   4.042   7.156
 2451SOL     OW26039   5.074   8.385   7.706
 2451SOL    HW126040   5.063   8.442   7.625
 2451SOL    HW226041   4.984   8.354   7.737
 2452SOL     OW26042   0.217   7.457   7.929
 2452SOL    HW126043   0.262   7.378   7.888
 2452SOL    HW226044   0.248   7.467   8.024
 2453SOL     OW26045   0.812   8.367   6.701
 2453SOL    HW126046   0.742   8.334   6.637
 2453SOL    HW226047   0.886   8.300   6.707
 2454SOL     OW26048   9.669   1.832   8.012
 2454SOL    HW126049   9.638   1.858   7.921
 2454SOL    HW226050   9.683   1.913   8.068
 2455SOL     OW26051   8.055   5.588   1.561
 2455SOL    HW126052   8.135   5.529   1.574
 2455SOL    HW226053   8.020   5.617   1.650
 2456SOL     OW26054   1.104   0.005   7.898
 2456SOL    HW126055   1.101   0.068   7.820
 2456SOL    HW226056   1.012  10.496   7.934
 2457SOL     OW26057   8.356   1.202   2.189
 2457SOL    HW126058   8.344   1.239   2.282
 2457SOL    HW226059   8.386   1.107   2.196
 2458SOL     OW26060   0.557   9.917   0.078
 2458SOL    HW126061   0.482   9.979   0.099
 2458SOL    HW226062   0.634   9.935   0.139
 2459SOL     OW26063   2.086   0.095   0.001
 2459SOL    HW126064   2.140   0.025   8.734
 2459SOL    HW226065   1.990   0.085   8.758
 2460SOL     OW26066   5.576   7.556   1.041
 2460SOL    HW126067   5.591   7.509   0.954
 2460SOL    HW226068   5.562   7.654   1.024
 2461SOL     OW26069   0.128   0.025   0.034
 2461SOL    HW126070   0.031   0.046   0.043
 2461SOL    HW226071   0.148  10.443   0.084
 2462SOL     OW26072   7.447   2.584   0.726
 2462SOL    HW126073   7.512   2.641   0.776
 2462SOL    HW226074   7.464   2.593   0.628
 2463SOL     OW26075   3.446   3.413   8.714
 2463SOL    HW126076   3.451   3.504   8.756
 2463SOL    HW226077   3.505   3.350   8.764
 2464SOL     OW26078   2.695   4.157   7.444
 2464SOL    HW126079   2.602   4.189   7.426
 2464SOL    HW226080   2.692   4.078   7.505
 2465SOL     OW26081   5.042   9.137   7.514
 2465SOL    HW126082   5.037   9.237   7.504
 2465SOL    HW226083   5.028   9.094   7.426
 2466SOL     OW26084   9.557   4.602   0.423
 2466SOL    HW126085   9.617   4.647   0.489
 2466SOL    HW226086   9.612   4.565   0.348
 2467SOL     OW26087   3.243   0.025   7.998
 2467SOL    HW126088   3.185   0.072   8.064
 2467SOL    HW226089   3.286  10.449   8.043
 2468SOL     OW26090   5.581   3.109   1.815
 2468SOL    HW126091   5.649   3.096   1.887
 2468SOL    HW226092   5.504   3.047   1.830
 2469SOL     OW26093   5.923   6.411   1.630
 2469SOL    HW126094   5.916   6.455   1.540
 2469SOL    HW226095   5.936   6.481   1.700
 2470SOL     OW26096   3.127   4.797   0.573
 2470SOL    HW126097   3.118   4.771   0.477
 2470SOL    HW226098   3.185   4.731   0.620
 2471SOL     OW26099   8.051  10.183   2.368
 2471SOL    HW126100   8.123  10.129   2.412
 2471SOL    HW226101   8.024  10.138   2.283
 2472SOL     OW26102   6.407  10.141   7.304
 2472SOL    HW126103   6.349  10.188   7.371
 2472SOL    HW226104   6.381  10.168   7.212
 2473SOL     OW26105   9.989   9.161   1.161
 2473SOL    HW126106  10.042   9.228   1.214
 2473SOL    HW226107   9.945   9.207   1.085
 2474SOL     OW26108   8.591   3.506   0.766
 2474SOL    HW126109   8.543   3.453   0.836
 2474SOL    HW226110   8.664   3.451   0.726
 2475SOL     OW26111   3.786   3.399   0.172
 2475SOL    HW126112   3.716   3.334   0.142
 2475SOL    HW226113   3.748   3.456   0.246
 2476SOL     OW26114   7.049   0.348   1.563
 2476SOL    HW126115   7.044   0.259   1.518
 2476SOL    HW226116   7.074   0.336   1.659
 2477SOL     OW26117   3.957   6.512   1.371
 2477SOL    HW126118   3.871   6.502   1.321
 2477SOL    HW226119   4.031   6.468   1.320
 2478SOL     OW26120   1.612  10.498   7.167
 2478SOL    HW126121   1.604   0.091   7.194
 2478SOL    HW226122   1.586  10.440   7.244
 2479SOL     OW26123   2.228   0.508   1.342
 2479SOL    HW126124   2.232   0.603   1.374
 2479SOL    HW226125   2.148   0.463   1.383
 2480SOL     OW26126   1.495   5.888   1.123
 2480SOL    HW126127   1.583   5.883   1.170
 2480SOL    HW226128   1.498   5.832   1.040
 2481SOL     OW26129   8.568   5.967   7.870
 2481SOL    HW126130   8.524   5.947   7.957
 2481SOL    HW226131   8.504   5.951   7.795
 2482SOL     OW26132   1.594   1.424   1.129
 2482SOL    HW126133   1.644   1.414   1.043
 2482SOL    HW226134   1.570   1.333   1.164
 2483SOL     OW26135   6.269   0.716   8.056
 2483SOL    HW126136   6.361   0.681   8.073
 2483SOL    HW226137   6.276   0.806   8.013
 2484SOL     OW26138   2.072   5.007   7.420
 2484SOL    HW126139   2.121   5.016   7.333
 2484SOL    HW226140   2.053   5.098   7.457
 2485SOL     OW26141   8.790   3.327   0.703
 2485SOL    HW126142   8.758   3.233   0.705
 2485SOL    HW226143   8.851   3.343   0.780
 2486SOL     OW26144   1.936   1.377   0.299
 2486SOL    HW126145   1.874   1.299   0.286
 2486SOL    HW226146   1.931   1.407   0.394
 2487SOL     OW26147   7.276   5.276   0.389
 2487SOL    HW126148   7.258   5.180   0.368
 2487SOL    HW226149   7.280   5.288   0.488
 2488SOL     OW26150   3.863  10.125   7.653
 2488SOL    HW126151   3.880  10.115   7.751
 2488SOL    HW226152   3.909  10.052   7.603
 2489SOL     OW26153   2.524   8.588   0.441
 2489SOL    HW126154   2.491   8.581   0.535
 2489SOL    HW226155   2.563   8.679   0.427
 2490SOL     OW26156   9.815   2.544   1.784
 2490SOL    HW126157   9.759   2.522   1.864
 2490SOL    HW226158   9.876   2.467   1.764
 2491SOL     OW26159   4.685   8.502   6.906
 2491SOL    HW126160   4.685   8.413   6.951
 2491SOL    HW226161   4.650   8.493   6.813
 2492SOL     OW26162   4.625   5.619   1.057
 2492SOL    HW126163   4.711   5.657   1.092
 2492SOL    HW226164   4.641   5.526   1.024
 2493SOL     OW26165   7.806   6.503   1.694
 2493SOL    HW126166   7.823   6.463   1.784
 2493SOL    HW226167   7.819   6.602   1.699
 2494SOL     OW26168   3.930   0.287   7.234
 2494SOL    HW126169   3.976   0.271   7.322
 2494SOL    HW226170   3.859   0.219   7.220
 2495SOL     OW26171   7.270   2.503   7.564
 2495SOL    HW126172   7.274   2.535   7.659
 2495SOL    HW226173   7.329   2.423   7.554
 2496SOL     OW26174   5.122   1.730   8.473
 2496SOL    HW126175   5.072   1.803   8.520
 2496SOL    HW226176   5.065   1.649   8.468
 2497SOL     OW26177   6.267   9.551   0.224
 2497SOL    HW126178   6.208   9.597   0.157
 2497SOL    HW226179   6.363   9.572   0.204
 2498SOL     OW26180  10.103   6.383   8.130
 2498SOL    HW126181  10.132   6.448   8.200
 2498SOL    HW226182   0.011   6.384   8.054
 2499SOL     OW26183   3.319   0.810   7.567
 2499SOL    HW126184   3.372   0.839   7.647
 2499SOL    HW226185   3.287   0.717   7.580
 2500SOL     OW26186   7.726   0.609   1.854
 2500SOL    HW126187   7.757   0.548   1.781
 2500SOL    HW226188   7.677   0.687   1.814
 2501SOL     OW26189   6.860   7.267   8.472
 2501SOL    HW126190   6.831   7.362   8.455
 2501SOL    HW226191   6.826   7.237   8.561
 2502SOL     OW26192   0.875   8.847   0.308
 2502SOL    HW126193   0.811   8.791   0.361
 2502SOL    HW226194   0.848   8.848   0.212
 2503SOL     OW26195   3.692   9.401   7.309
 2503SOL    HW126196   3.704   9.320   7.253
 2503SOL    HW226197   3.596   9.428   7.309
 2504SOL     OW26198   9.069   4.493   0.894
 2504SOL    HW126199   9.073   4.473   0.796
 2504SOL    HW226200   9.010   4.427   0.939
 2505SOL     OW26201   2.260   5.173   1.113
 2505SOL    HW126202   2.303   5.222   1.189
 2505SOL    HW226203   2.237   5.080   1.141
 2506SOL     OW26204   3.531   5.033   1.254
 2506SOL    HW126205   3.442   5.005   1.219
 2506SOL    HW226206   3.569   4.962   1.313
 2507SOL     OW26207   2.730   0.339   8.016
 2507SOL    HW126208   2.680   0.415   7.975
 2507SOL    HW226209   2.819   0.372   8.048
 2508SOL     OW26210   5.886   7.716   1.908
 2508SOL    HW126211   5.964   7.752   1.960
 2508SOL    HW226212   5.806   7.710   1.967
 2509SOL     OW26213   4.219   5.802   0.088
 2509SOL    HW126214   4.172   5.818   0.175
 2509SOL    HW226215   4.285   5.875   0.072
 2510SOL     OW26216   4.378   3.563   7.316
 2510SOL    HW126217   4.308   3.541   7.248
 2510SOL    HW226218   4.387   3.487   7.380
 2511SOL     OW26219   9.059   3.249   0.006
 2511SOL    HW126220   9.069   3.284   8.695
 2511SOL    HW226221   9.026   3.154   0.003
 2512SOL     OW26222   3.179   9.104   0.004
 2512SOL    HW126223   3.259   9.087   0.062
 2512SOL    HW226224   3.161   9.024   8.729
 2513SOL     OW26225   6.061   4.585   2.184
 2513SOL    HW126226   6.039   4.602   2.281
 2513SOL    HW226227   6.153   4.548   2.177
 2514SOL     OW26228   8.312   9.118   2.089
 2514SOL    HW126229   8.252   9.123   2.169
 2514SOL    HW226230   8.363   9.032   2.090
 2515SOL     OW26231   5.459   4.355   8.431
 2515SOL    HW126232   5.387   4.317   8.490
 2515SOL    HW226233   5.547   4.316   8.458
 2516SOL     OW26234   6.693   5.968   6.463
 2516SOL    HW126235   6.610   5.979   6.409
 2516SOL    HW226236   6.688   5.882   6.514
 2517SOL     OW26237   7.486   1.820   6.982
 2517SOL    HW126238   7.457   1.740   6.929
 2517SOL    HW226239   7.408   1.858   7.030
 2518SOL     OW26240   2.943   1.966   6.835
 2518SOL    HW126241   3.035   1.985   6.803
 2518SOL    HW226242   2.946   1.941   6.932
 2519SOL     OW26243   2.038  10.004   1.166
 2519SOL    HW126244   1.957  10.030   1.114
 2519SOL    HW226245   2.117   9.998   1.105
 2520SOL     OW26246   5.200   8.350   8.487
 2520SOL    HW126247   5.121   8.375   8.430
 2520SOL    HW226248   5.178   8.364   8.583
 2521SOL     OW26249   8.562   5.749   6.943
 2521SOL    HW126250   8.599   5.809   6.871
 2521SOL    HW226251   8.593   5.782   7.032
 2522SOL     OW26252   7.180   9.860   7.140
 2522SOL    HW126253   7.112   9.903   7.080
 2522SOL    HW226254   7.199   9.921   7.216
 2523SOL     OW26255   5.765   6.691   6.479
 2523SOL    HW126256   5.716   6.691   6.392
 2523SOL    HW226257   5.831   6.765   6.481
 2524SOL     OW26258   3.812   7.683   1.172
 2524SOL    HW126259   3.784   7.638   1.087
 2524SOL    HW226260   3.908   7.662   1.191
 2525SOL     OW26261   3.750   3.542   8.240
 2525SOL    HW126262   3.841   3.564   8.204
 2525SOL    HW226263   3.736   3.590   8.327
 2526SOL     OW26264   1.700   5.196   6.913
 2526SOL    HW126265   1.693   5.148   6.826
 2526SOL    HW226266   1.708   5.130   6.988
 2527SOL     OW26267   0.679  10.038   7.009
 2527SOL    HW126268   0.772  10.038   6.972
 2527SOL    HW226269   0.652   9.945   7.032
 2528SOL     OW26270   8.652   0.018   8.333
 2528SOL    HW126271   8.705   0.091   8.378
 2528SOL    HW226272   8.659   0.027   8.234
 2529SOL     OW26273   9.951   7.083   1.365
 2529SOL    HW126274   9.871   7.029   1.338
 2529SOL    HW226275   9.924   7.147   1.437
 2530SOL     OW26276   3.891   3.417   1.279
 2530SOL    HW126277   3.966   3.448   1.221
 2530SOL    HW226278   3.892   3.469   1.364
 2531SOL     OW26279   9.502   2.438   8.313
 2531SOL    HW126280   9.574   2.482   8.260
 2531SOL    HW226281   9.432   2.505   8.336
 2532SOL     OW26282   0.610   7.292   6.167
 2532SOL    HW126283   0.615   7.200   6.129
 2532SOL    HW226284   0.516   7.326   6.161
 2533SOL     OW26285   3.147   6.264   7.799
 2533SOL    HW126286   3.158   6.337   7.867
 2533SOL    HW226287   3.107   6.303   7.716
 2534SOL     OW26288   9.929   5.757   1.137
 2534SOL    HW126289   9.835   5.764   1.104
 2534SOL    HW226290   9.951   5.661   1.154
 2535SOL     OW26291   2.772   7.428   1.630
 2535SOL    HW126292   2.751   7.510   1.682
 2535SOL    HW226293   2.811   7.359   1.690
 2536SOL     OW26294   8.971   7.039   7.291
 2536SOL    HW126295   8.897   7.057   7.226
 2536SOL    HW226296   8.986   6.941   7.298
 2537SOL     OW26297   2.754   8.807   8.431
 2537SOL    HW126298   2.807   8.830   8.349
 2537SOL    HW226299   2.657   8.813   8.410
 2538SOL     OW26300   2.895  10.433   0.277
 2538SOL    HW126301   2.943  10.352   0.311
 2538SOL    HW226302   2.901  10.436   0.178
 2539SOL     OW26303   1.753   7.189   8.747
 2539SOL    HW126304   1.849   7.202   8.725
 2539SOL    HW226305   1.706   7.148   8.669
 2540SOL     OW26306   0.538   2.744   8.678
 2540SOL    HW126307   0.498   2.703   8.596
 2540SOL    HW226308   0.522   2.684   8.756
 2541SOL     OW26309   5.305   1.593   7.648
 2541SOL    HW126310   5.232   1.532   7.678
 2541SOL    HW226311   5.384   1.582   7.707
 2542SOL     OW26312   3.278   8.581   1.608
 2542SOL    HW126313   3.247   8.673   1.584
 2542SOL    HW226314   3.232   8.514   1.550
 2543SOL     OW26315   7.131   2.921   0.104
 2543SOL    HW126316   7.117   2.921   0.005
 2543SOL    HW226317   7.094   3.005   0.143
 2544SOL     OW26318   6.615   1.034   2.323
 2544SOL    HW126319   6.581   0.951   2.367
 2544SOL    HW226320   6.702   1.061   2.365
 2545SOL     OW26321   2.967   9.011   0.396
 2545SOL    HW126322   3.014   8.997   0.483
 2545SOL    HW226323   2.965   8.924   0.346
 2546SOL     OW26324   0.857   2.525   0.426
 2546SOL    HW126325   0.955   2.520   0.409
 2546SOL    HW226326   0.825   2.435   0.457
 2547SOL     OW26327   9.591   3.285   1.530
 2547SOL    HW126328   9.514   3.222   1.537
 2547SOL    HW226329   9.675   3.236   1.555
 2548SOL     OW26330   3.616   7.178   0.969
 2548SOL    HW126331   3.636   7.213   1.061
 2548SOL    HW226332   3.519   7.157   0.961
 2549SOL     OW26333   2.345   0.336   0.393
 2549SOL    HW126334   2.246   0.350   0.400
 2549SOL    HW226335   2.367   0.241   0.415
 2550SOL     OW26336   6.075   1.426   1.442
 2550SOL    HW126337   6.144   1.362   1.409
 2550SOL    HW226338   6.025   1.464   1.364
 2551SOL     OW26339   9.008   5.569   6.667
 2551SOL    HW126340   9.084   5.620   6.627
 2551SOL    HW226341   9.038   5.526   6.753
 2552SOL     OW26342   1.131   4.265   8.558
 2552SOL    HW126343   1.192   4.187   8.574
 2552SOL    HW226344   1.040   4.233   8.534
 2553SOL     OW26345   9.236   4.045   8.400
 2553SOL    HW126346   9.311   3.989   8.435
 2553SOL    HW226347   9.252   4.141   8.425
 2554SOL     OW26348   3.126   1.187   7.565
 2554SOL    HW126349   3.139   1.110   7.502
 2554SOL    HW226350   3.084   1.153   7.650
 2555SOL     OW26351   4.006   5.906   0.889
 2555SOL    HW126352   4.001   5.823   0.832
 2555SOL    HW226353   3.924   5.913   0.945
 2556SOL     OW26354   5.870   3.380   6.847
 2556SOL    HW126355   5.851   3.464   6.796
 2556SOL    HW226356   5.787   3.325   6.853
 2557SOL     OW26357   9.359   0.602   2.004
 2557SOL    HW126358   9.350   0.551   1.919
 2557SOL    HW226359   9.405   0.546   2.073
 2558SOL     OW26360   3.037   3.462   7.705
 2558SOL    HW126361   3.008   3.387   7.646
 2558SOL    HW226362   3.137   3.460   7.715
 2559SOL     OW26363   0.065   8.439   1.262
 2559SOL    HW126364   0.138   8.462   1.198
 2559SOL    HW226365   0.046   8.341   1.257
 2560SOL     OW26366   6.381   4.791   7.768
 2560SOL    HW126367   6.396   4.692   7.764
 2560SOL    HW226368   6.457   4.838   7.723
 2561SOL     OW26369   8.695   7.521   1.993
 2561SOL    HW126370   8.635   7.591   2.032
 2561SOL    HW226371   8.735   7.466   2.066
 2562SOL     OW26372   2.714   2.976   1.636
 2562SOL    HW126373   2.621   2.950   1.608
 2562SOL    HW226374   2.746   3.051   1.579
 2563SOL     OW26375   5.795   5.018   1.611
 2563SOL    HW126376   5.844   4.972   1.685
 2563SOL    HW226377   5.776   4.952   1.538
 2564SOL     OW26378   8.380   9.069   0.035
 2564SOL    HW126379   8.402   9.151   0.088
 2564SOL    HW226380   8.284   9.074   0.007
 2565SOL     OW26381   8.783   5.848   0.011
 2565SOL    HW126382   8.842   5.818   0.086
 2565SOL    HW226383   8.704   5.897   0.049
 2566SOL     OW26384   5.550   6.897   7.816
 2566SOL    HW126385   5.496   6.979   7.837
 2566SOL    HW226386   5.537   6.829   7.888
 2567SOL     OW26387   4.392   1.995   1.996
 2567SOL    HW126388   4.452   2.074   1.981
 2567SOL    HW226389   4.429   1.915   1.950
 2568SOL     OW26390   4.581   4.116   7.896
 2568SOL    HW126391   4.614   4.022   7.886
 2568SOL    HW226392   4.634   4.162   7.967
 2569SOL     OW26393   3.979   8.600   2.151
 2569SOL    HW126394   4.031   8.524   2.113
 2569SOL    HW226395   3.941   8.575   2.240
 2570SOL     OW26396   9.613   6.843   7.631
 2570SOL    HW126397   9.598   6.749   7.664
 2570SOL    HW226398   9.525   6.885   7.609
 2571SOL     OW26399   5.446   7.740   7.031
 2571SOL    HW126400   5.396   7.788   7.103
 2571SOL    HW226401   5.431   7.787   6.944
 2572SOL     OW26402   7.172   5.239   6.206
 2572SOL    HW126403   7.158   5.335   6.180
 2572SOL    HW226404   7.084   5.198   6.231
 2573SOL     OW26405   2.543   2.896   7.367
 2573SOL    HW126406   2.554   2.800   7.395
 2573SOL    HW226407   2.632   2.933   7.341
 2574SOL     OW26408   7.067   9.406   0.059
 2574SOL    HW126409   6.997   9.379   0.126
 2574SOL    HW226410   7.059   9.348   8.760
 2575SOL     OW26411   5.264  10.297   0.196
 2575SOL    HW126412   5.319  10.380   0.209
 2575SOL    HW226413   5.201  10.310   0.120
 2576SOL     OW26414   9.430   3.020   6.846
 2576SOL    HW126415   9.429   2.921   6.858
 2576SOL    HW226416   9.353   3.048   6.789
 2577SOL     OW26417   5.120   8.035   7.437
 2577SOL    HW126418   5.026   8.025   7.406
 2577SOL    HW226419   5.150   7.952   7.484
 2578SOL     OW26420   9.343   1.337   7.632
 2578SOL    HW126421   9.271   1.391   7.675
 2578SOL    HW226422   9.336   1.345   7.532
 2579SOL     OW26423   8.688   0.776   8.117
 2579SOL    HW126424   8.763   0.728   8.163
 2579SOL    HW226425   8.602   0.755   8.163
 2580SOL     OW26426   6.052   0.507   7.363
 2580SOL    HW126427   6.068   0.604   7.342
 2580SOL    HW226428   6.064   0.492   7.461
 2581SOL     OW26429   0.536   8.779   0.118
 2581SOL    HW126430   0.509   8.834   0.197
 2581SOL    HW226431   0.531   8.682   0.142
 2582SOL     OW26432   7.330   7.225   0.693
 2582SOL    HW126433   7.249   7.240   0.636
 2582SOL    HW226434   7.320   7.140   0.744
 2583SOL     OW26435   3.080   6.847   1.162
 2583SOL    HW126436   3.086   6.905   1.081
 2583SOL    HW226437   3.072   6.905   1.244
 2584SOL     OW26438   3.388   9.888   7.877
 2584SOL    HW126439   3.482   9.924   7.874
 2584SOL    HW226440   3.387   9.803   7.928
 2585SOL     OW26441   5.814   0.314   8.528
 2585SOL    HW126442   5.831   0.411   8.513
 2585SOL    HW226443   5.781   0.300   8.622
 2586SOL     OW26444   0.158   1.051   0.203
 2586SOL    HW126445   0.153   0.991   0.283
 2586SOL    HW226446   0.094   1.018   0.133
 2587SOL     OW26447   4.293   8.808   7.302
 2587SOL    HW126448   4.219   8.805   7.369
 2587SOL    HW226449   4.306   8.717   7.263
 2588SOL     OW26450   5.373   2.711   6.072
 2588SOL    HW126451   5.308   2.707   5.997
 2588SOL    HW226452   5.453   2.654   6.050
 2589SOL     OW26453   8.595   7.964   0.391
 2589SOL    HW126454   8.569   8.055   0.359
 2589SOL    HW226455   8.580   7.959   0.490
 2590SOL     OW26456   5.461   5.524   8.627
 2590SOL    HW126457   5.387   5.460   8.649
 2590SOL    HW226458   5.463   5.538   8.528
 2591SOL     OW26459   1.545   2.121   7.518
 2591SOL    HW126460   1.636   2.161   7.521
 2591SOL    HW226461   1.550   2.031   7.473
 2592SOL     OW26462   0.940   2.839   8.438
 2592SOL    HW126463   0.867   2.870   8.499
 2592SOL    HW226464   0.971   2.915   8.381
 2593SOL     OW26465   5.790   1.298   7.205
 2593SOL    HW126466   5.713   1.272   7.263
 2593SOL    HW226467   5.765   1.379   7.151
 2594SOL     OW26468   4.815   8.293   0.361
 2594SOL    HW126469   4.797   8.208   0.410
 2594SOL    HW226470   4.747   8.362   0.386
 2595SOL     OW26471   8.244   1.144   1.648
 2595SOL    HW126472   8.282   1.052   1.652
 2595SOL    HW226473   8.306   1.204   1.596
 2596SOL     OW26474   0.482   7.801   1.150
 2596SOL    HW126475   0.534   7.763   1.227
 2596SOL    HW226476   0.539   7.864   1.098
 2597SOL     OW26477   6.122   3.959   7.625
 2597SOL    HW126478   6.121   4.018   7.705
 2597SOL    HW226479   6.081   4.007   7.547
 2598SOL     OW26480   5.970  10.203   7.699
 2598SOL    HW126481   6.056  10.156   7.719
 2598SOL    HW226482   5.990  10.292   7.657
 2599SOL     OW26483   8.300   3.691   6.985
 2599SOL    HW126484   8.245   3.615   6.952
 2599SOL    HW226485   8.324   3.675   7.081
 2600SOL     OW26486   4.500   5.826   6.746
 2600SOL    HW126487   4.534   5.913   6.711
 2600SOL    HW226488   4.569   5.786   6.807
 2601SOL     OW26489  10.093   5.405   0.498
 2601SOL    HW126490   0.001   5.329   0.503
 2601SOL    HW226491  10.004   5.370   0.469
 2602SOL     OW26492   1.800   5.067   0.578
 2602SOL    HW126493   1.703   5.052   0.559
 2602SOL    HW226494   1.819   5.165   0.572
 2603SOL     OW26495   4.166   3.281   7.263
 2603SOL    HW126496   4.103   3.244   7.331
 2603SOL    HW226497   4.116   3.340   7.199
 2604SOL     OW26498   2.373   6.135   6.155
 2604SOL    HW126499   2.281   6.107   6.179
 2604SOL    HW226500   2.402   6.086   6.072
 2605SOL     OW26501   0.198   5.668   8.158
 2605SOL    HW126502   0.272   5.606   8.130
 2605SOL    HW226503   0.127   5.669   8.087
 2606SOL     OW26504   3.527   4.886   7.489
 2606SOL    HW126505   3.448   4.899   7.429
 2606SOL    HW226506   3.591   4.962   7.478
 2607SOL     OW26507   5.622   6.562   0.191
 2607SOL    HW126508   5.602   6.572   0.289
 2607SOL    HW226509   5.696   6.496   0.178
 2608SOL     OW26510   1.811   0.088   8.743
 2608SOL    HW126511   1.752   0.115   8.667
 2608SOL    HW226512   1.776   0.126   0.046
 2609SOL     OW26513   2.034   8.284   0.812
 2609SOL    HW126514   2.000   8.248   0.725
 2609SOL    HW226515   1.986   8.240   0.888
 2610SOL     OW26516   5.966   9.712   7.018
 2610SOL    HW126517   6.006   9.638   6.964
 2610SOL    HW226518   6.033   9.785   7.030
 2611SOL     OW26519   8.575   4.955   7.817
 2611SOL    HW126520   8.482   4.990   7.802
 2611SOL    HW226521   8.618   5.006   7.891
 2612SOL     OW26522   4.547   9.859   7.781
 2612SOL    HW126523   4.597   9.932   7.826
 2612SOL    HW226524   4.598   9.828   7.701
 2613SOL     OW26525   2.369   5.735   1.308
 2613SOL    HW126526   2.363   5.683   1.393
 2613SOL    HW226527   2.311   5.693   1.239
 2614SOL     OW26528   1.937   9.352   8.188
 2614SOL    HW126529   1.876   9.316   8.258
 2614SOL    HW226530   2.005   9.412   8.231
 2615SOL     OW26531   2.878   3.422   8.371
 2615SOL    HW126532   2.939   3.478   8.316
 2615SOL    HW226533   2.843   3.346   8.316
 2616SOL     OW26534   0.922   6.960   8.019
 2616SOL    HW126535   0.897   6.950   8.116
 2616SOL    HW226536   0.924   7.057   7.995
 2617SOL     OW26537   3.078   0.568   8.473
 2617SOL    HW126538   3.010   0.596   8.404
 2617SOL    HW226539   3.048   0.599   8.563
 2618SOL     OW26540   8.810   2.742   8.424
 2618SOL    HW126541   8.845   2.650   8.405
 2618SOL    HW226542   8.714   2.747   8.398
 2619SOL     OW26543   1.721   5.370   7.338
 2619SOL    HW126544   1.819   5.380   7.319
 2619SOL    HW226545   1.668   5.414   7.266
 2620SOL     OW26546   2.395   1.860   1.260
 2620SOL    HW126547   2.356   1.773   1.289
 2620SOL    HW226548   2.342   1.936   1.298
 2621SOL     OW26549   2.634   1.588   8.728
 2621SOL    HW126550   2.678   1.548   8.648
 2621SOL    HW226551   2.539   1.611   8.706
 2622SOL     OW26552   9.556   7.612   7.377
 2622SOL    HW126553   9.456   7.619   7.384
 2622SOL    HW226554   9.579   7.533   7.320
 2623SOL     OW26555  10.143   6.920   8.269
 2623SOL    HW126556   0.063   6.982   8.279
 2623SOL    HW226557  10.065   6.969   8.231
 2624SOL     OW26558   3.169   9.301   2.206
 2624SOL    HW126559   3.138   9.212   2.239
 2624SOL    HW226560   3.231   9.342   2.273
 2625SOL     OW26561   0.226   6.104   0.914
 2625SOL    HW126562   0.229   6.039   0.990
 2625SOL    HW226563   0.259   6.193   0.945
 2626SOL     OW26564   8.043   5.490   8.201
 2626SOL    HW126565   8.062   5.588   8.192
 2626SOL    HW226566   7.956   5.476   8.249
 2627SOL     OW26567   1.544   7.162   7.201
 2627SOL    HW126568   1.464   7.220   7.192
 2627SOL    HW226569   1.520   7.077   7.249
 2628SOL     OW26570   6.802   3.376   1.287
 2628SOL    HW126571   6.846   3.286   1.296
 2628SOL    HW226572   6.724   3.369   1.225
 2629SOL     OW26573   7.325   6.317   0.185
 2629SOL    HW126574   7.330   6.217   0.176
 2629SOL    HW226575   7.361   6.359   0.102
 2630SOL     OW26576   3.812   3.791   1.197
 2630SOL    HW126577   3.900   3.807   1.152
 2630SOL    HW226578   3.756   3.732   1.139
 2631SOL     OW26579   9.775   4.278   8.226
 2631SOL    HW126580   9.810   4.249   8.137
 2631SOL    HW226581   9.727   4.365   8.216
 2632SOL     OW26582   0.514   6.861   6.995
 2632SOL    HW126583   0.500   6.948   6.947
 2632SOL    HW226584   0.435   6.842   7.053
 2633SOL     OW26585   4.521   1.437   1.137
 2633SOL    HW126586   4.553   1.523   1.177
 2633SOL    HW226587   4.433   1.452   1.092
 2634SOL     OW26588   9.539   4.007   7.314
 2634SOL    HW126589   9.586   3.933   7.361
 2634SOL    HW226590   9.467   3.969   7.256
 2635SOL     OW26591   4.166   8.002   8.279
 2635SOL    HW126592   4.073   7.995   8.314
 2635SOL    HW226593   4.227   8.028   8.354
 2636SOL     OW26594   5.159   9.043   0.582
 2636SOL    HW126595   5.143   9.142   0.588
 2636SOL    HW226596   5.250   9.022   0.616
 2637SOL     OW26597   7.118   9.884   0.493
 2637SOL    HW126598   7.086   9.969   0.534
 2637SOL    HW226599   7.183   9.905   0.419
 2638SOL     OW26600   8.037   3.986   0.768
 2638SOL    HW126601   7.990   4.001   0.681
 2638SOL    HW226602   8.122   3.936   0.752
 2639SOL     OW26603   2.814   9.454   8.274
 2639SOL    HW126604   2.836   9.394   8.198
 2639SOL    HW226605   2.815   9.549   8.242
 2640SOL     OW26606   9.551   9.691   8.036
 2640SOL    HW126607   9.650   9.694   8.050
 2640SOL    HW226608   9.523   9.772   7.985
 2641SOL     OW26609   4.147   1.390   1.202
 2641SOL    HW126610   4.200   1.449   1.142
 2641SOL    HW226611   4.071   1.441   1.242
 2642SOL     OW26612   9.555   1.116   2.201
 2642SOL    HW126613   9.600   1.060   2.132
 2642SOL    HW226614   9.623   1.171   2.249
 2643SOL     OW26615   9.443   1.260   1.662
 2643SOL    HW126616   9.514   1.254   1.732
 2643SOL    HW226617   9.374   1.190   1.679
 2644SOL     OW26618   0.448   7.082   6.837
 2644SOL    HW126619   0.356   7.081   6.876
 2644SOL    HW226620   0.443   7.061   6.740
 2645SOL     OW26621   8.989   4.711   1.667
 2645SOL    HW126622   9.029   4.626   1.634
 2645SOL    HW226623   8.980   4.776   1.591
 2646SOL     OW26624   1.935   1.743   1.071
 2646SOL    HW126625   1.887   1.823   1.108
 2646SOL    HW226626   1.951   1.677   1.144
 2647SOL     OW26627   1.434   6.806   5.698
 2647SOL    HW126628   1.364   6.861   5.743
 2647SOL    HW226629   1.442   6.718   5.746
 2648SOL     OW26630   5.580   4.516   0.383
 2648SOL    HW126631   5.546   4.567   0.462
 2648SOL    HW226632   5.514   4.523   0.308
 2649SOL     OW26633   0.308   0.712   1.208
 2649SOL    HW126634   0.231   0.766   1.241
 2649SOL    HW226635   0.318   0.725   1.109
 2650SOL     OW26636   7.132   7.355   8.177
 2650SOL    HW126637   7.034   7.370   8.161
 2650SOL    HW226638   7.170   7.437   8.221
 2651SOL     OW26639   4.283   3.713   1.207
 2651SOL    HW126640   4.348   3.655   1.257
 2651SOL    HW226641   4.288   3.806   1.243
 2652SOL     OW26642   4.641   6.144   0.620
 2652SOL    HW126643   4.604   6.137   0.713
 2652SOL    HW226644   4.608   6.228   0.577
 2653SOL     OW26645   0.401   8.835   8.197
 2653SOL    HW126646   0.358   8.903   8.137
 2653SOL    HW226647   0.499   8.830   8.176
 2654SOL     OW26648   9.429   7.818   1.405
 2654SOL    HW126649   9.427   7.734   1.350
 2654SOL    HW226650   9.382   7.803   1.491
 2655SOL     OW26651   9.101   5.440   1.763
 2655SOL    HW126652   9.009   5.453   1.800
 2655SOL    HW226653   9.098   5.373   1.689
 2656SOL     OW26654   1.732   5.134   8.295
 2656SOL    HW126655   1.637   5.145   8.322
 2656SOL    HW226656   1.782   5.219   8.311
 2657SOL     OW26657   2.782   4.090   0.458
 2657SOL    HW126658   2.748   4.089   0.364
 2657SOL    HW226659   2.825   4.178   0.477
 2658SOL     OW26660   4.720  10.038   6.315
 2658SOL    HW126661   4.657  10.114   6.331
 2658SOL    HW226662   4.676   9.969   6.258
 2659SOL     OW26663   1.022   8.968   1.089
 2659SOL    HW126664   1.102   8.934   1.039
 2659SOL    HW226665   0.974   9.035   1.032
 2660SOL     OW26666   5.135  10.197   7.358
 2660SOL    HW126667   5.103  10.113   7.315
 2660SOL    HW226668   5.148  10.181   7.456
 2661SOL     OW26669   1.365   9.132   1.091
 2661SOL    HW126670   1.428   9.207   1.073
 2661SOL    HW226671   1.411   9.062   1.146
 2662SOL     OW26672   3.649   4.014   2.251
 2662SOL    HW126673   3.655   3.932   2.193
 2662SOL    HW226674   3.560   4.057   2.238
 2663SOL     OW26675   9.700   0.790   6.265
 2663SOL    HW126676   9.714   0.889   6.276
 2663SOL    HW226677   9.780   0.750   6.221
 2664SOL     OW26678   3.015   0.243   6.857
 2664SOL    HW126679   3.002   0.267   6.761
 2664SOL    HW226680   3.066   0.157   6.863
 2665SOL     OW26681   0.826   2.716   1.499
 2665SOL    HW126682   0.749   2.714   1.435
 2665SOL    HW226683   0.799   2.676   1.586
 2666SOL     OW26684   4.432   5.294   7.444
 2666SOL    HW126685   4.401   5.353   7.370
 2666SOL    HW226686   4.460   5.351   7.522
 2667SOL     OW26687   2.365   6.716   1.496
 2667SOL    HW126688   2.336   6.773   1.573
 2667SOL    HW226689   2.320   6.627   1.502
 2668SOL     OW26690   9.618   1.330   1.080
 2668SOL    HW126691   9.717   1.336   1.097
 2668SOL    HW226692   9.568   1.370   1.156
 2669SOL     OW26693   5.440   9.383   8.619
 2669SOL    HW126694   5.439   9.399   8.718
 2669SOL    HW226695   5.443   9.470   8.571
 2670SOL     OW26696   7.947   9.319   7.224
 2670SOL    HW126697   8.010   9.396   7.213
 2670SOL    HW226698   7.938   9.271   7.137
 2671SOL     OW26699   3.203   8.537   8.412
 2671SOL    HW126700   3.267   8.550   8.487
 2671SOL    HW226701   3.205   8.618   8.353
 2672SOL     OW26702   3.626   2.524   7.112
 2672SOL    HW126703   3.559   2.591   7.081
 2672SOL    HW226704   3.715   2.545   7.071
 2673SOL     OW26705   3.263   5.279   2.171
 2673SOL    HW126706   3.362   5.271   2.165
 2673SOL    HW226707   3.239   5.338   2.248
 2674SOL     OW26708   0.111   0.387   7.572
 2674SOL    HW126709   0.039   0.415   7.509
 2674SOL    HW226710   0.179   0.332   7.522
 2675SOL     OW26711  10.076   3.632   1.317
 2675SOL    HW126712  10.103   3.704   1.253
 2675SOL    HW226713  10.006   3.666   1.379
 2676SOL     OW26714   2.027   3.829   8.251
 2676SOL    HW126715   1.985   3.763   8.187
 2676SOL    HW226716   1.990   3.920   8.233
 2677SOL     OW26717   9.910   1.796   1.518
 2677SOL    HW126718   9.905   1.785   1.419
 2677SOL    HW226719   9.947   1.713   1.559
 2678SOL     OW26720   2.958   5.612   2.087
 2678SOL    HW126721   2.998   5.661   2.164
 2678SOL    HW226722   2.890   5.670   2.042
 2679SOL     OW26723   2.634   3.928   7.606
 2679SOL    HW126724   2.610   3.880   7.690
 2679SOL    HW226725   2.677   3.863   7.542
 2680SOL     OW26726   6.449   4.142   6.769
 2680SOL    HW126727   6.400   4.191   6.698
 2680SOL    HW226728   6.500   4.207   6.826
 2681SOL     OW26729   0.664   4.082   1.374
 2681SOL    HW126730   0.631   4.087   1.280
 2681SOL    HW226731   0.703   3.991   1.391
 2682SOL     OW26732   0.274   4.919   7.579
 2682SOL    HW126733   0.249   5.014   7.560
 2682SOL    HW226734   0.245   4.860   7.504
 2683SOL     OW26735   8.945   3.110   1.588
 2683SOL    HW126736   8.857   3.073   1.558
 2683SOL    HW226737   8.939   3.140   1.683
 2684SOL     OW26738   4.161   1.714   7.208
 2684SOL    HW126739   4.148   1.813   7.208
 2684SOL    HW226740   4.081   1.670   7.250
 2685SOL     OW26741   5.458   5.509   6.789
 2685SOL    HW126742   5.369   5.525   6.747
 2685SOL    HW226743   5.529   5.556   6.737
 2686SOL     OW26744   8.512   5.792   7.592
 2686SOL    HW126745   8.591   5.731   7.591
 2686SOL    HW226746   8.532   5.874   7.539
 2687SOL     OW26747   9.078   5.627   6.183
 2687SOL    HW126748   9.147   5.654   6.116
 2687SOL    HW226749   9.112   5.550   6.237
 2688SOL     OW26750   2.386   1.640   8.054
 2688SOL    HW126751   2.345   1.684   8.134
 2688SOL    HW226752   2.358   1.688   7.972
 2689SOL     OW26753   2.037   2.532   0.428
 2689SOL    HW126754   2.011   2.498   0.518
 2689SOL    HW226755   2.085   2.461   0.378
 2690SOL     OW26756   1.851   7.158   1.313
 2690SOL    HW126757   1.770   7.179   1.259
 2690SOL    HW226758   1.843   7.200   1.403
 2691SOL     OW26759   4.301   2.873   7.082
 2691SOL    HW126760   4.318   2.963   7.121
 2691SOL    HW226761   4.367   2.856   7.009
 2692SOL     OW26762   1.651   5.516   0.625
 2692SOL    HW126763   1.719   5.447   0.602
 2692SOL    HW226764   1.575   5.473   0.674
 2693SOL     OW26765   7.512   2.375   7.954
 2693SOL    HW126766   7.586   2.381   7.886
 2693SOL    HW226767   7.428   2.344   7.909
 2694SOL     OW26768   5.577   2.766   8.169
 2694SOL    HW126769   5.547   2.856   8.203
 2694SOL    HW226770   5.654   2.779   8.107
 2695SOL     OW26771   3.845   9.717   0.584
 2695SOL    HW126772   3.874   9.682   0.495
 2695SOL    HW226773   3.745   9.725   0.585
 2696SOL     OW26774   4.972   3.479   8.654
 2696SOL    HW126775   5.042   3.414   8.624
 2696SOL    HW226776   4.894   3.428   8.691
 2697SOL     OW26777   0.081   6.155   0.663
 2697SOL    HW126778   0.099   6.114   0.753
 2697SOL    HW226779   0.149   6.226   0.646
 2698SOL     OW26780   9.843   8.396   7.367
 2698SOL    HW126781   9.780   8.328   7.331
 2698SOL    HW226782   9.831   8.404   7.466
 2699SOL     OW26783   9.353   0.889   6.742
 2699SOL    HW126784   9.298   0.858   6.664
 2699SOL    HW226785   9.414   0.963   6.713
 2700SOL     OW26786   4.965   6.273   0.766
 2700SOL    HW126787   4.980   6.211   0.689
 2700SOL    HW226788   4.961   6.367   0.732
 2701SOL     OW26789   8.096   1.403   1.392
 2701SOL    HW126790   8.160   1.334   1.358
 2701SOL    HW226791   8.049   1.446   1.315
 2702SOL     OW26792   6.170   3.000   0.293
 2702SOL    HW126793   6.226   3.022   0.213
 2702SOL    HW226794   6.073   3.013   0.270
 2703SOL     OW26795   2.263   9.296   6.990
 2703SOL    HW126796   2.320   9.375   7.013
 2703SOL    HW226797   2.188   9.325   6.931
 2704SOL     OW26798   8.422   1.675   7.585
 2704SOL    HW126799   8.439   1.771   7.606
 2704SOL    HW226800   8.484   1.617   7.639
 2705SOL     OW26801   5.400  10.161   8.072
 2705SOL    HW126802   5.367  10.256   8.075
 2705SOL    HW226803   5.462  10.150   7.995
 2706SOL     OW26804   4.723   3.103   0.980
 2706SOL    HW126805   4.739   3.039   1.055
 2706SOL    HW226806   4.689   3.189   1.016
 2707SOL     OW26807   3.885   1.074   6.654
 2707SOL    HW126808   3.877   1.104   6.749
 2707SOL    HW226809   3.965   1.015   6.644
 2708SOL     OW26810   1.456   1.268   7.402
 2708SOL    HW126811   1.522   1.287   7.329
 2708SOL    HW226812   1.427   1.354   7.444
 2709SOL     OW26813   9.055   0.496   2.427
 2709SOL    HW126814   9.010   0.583   2.446
 2709SOL    HW226815   8.998   0.420   2.457
 2710SOL     OW26816   0.820   5.848   8.194
 2710SOL    HW126817   0.823   5.941   8.157
 2710SOL    HW226818   0.863   5.785   8.129
 2711SOL     OW26819   3.385   3.480   7.829
 2711SOL    HW126820   3.376   3.391   7.785
 2711SOL    HW226821   3.467   3.481   7.886
 2712SOL     OW26822   8.035   8.202   7.507
 2712SOL    HW126823   8.067   8.294   7.531
 2712SOL    HW226824   7.990   8.161   7.586
 2713SOL     OW26825   4.940   6.855   7.712
 2713SOL    HW126826   4.968   6.856   7.808
 2713SOL    HW226827   4.995   6.921   7.660
 2714SOL     OW26828   2.866  10.470   8.781
 2714SOL    HW126829   2.794  10.443   8.717
 2714SOL    HW226830   2.852   0.062   0.027
 2715SOL     OW26831   2.302   9.998   1.761
 2715SOL    HW126832   2.343  10.075   1.810
 2715SOL    HW226833   2.365   9.965   1.691
 2716SOL     OW26834   6.738   0.012   6.869
 2716SOL    HW126835   6.726  10.458   6.788
 2716SOL    HW226836   6.693   0.100   6.855
 2717SOL     OW26837   9.142   0.403   7.150
 2717SOL    HW126838   9.072   0.463   7.189
 2717SOL    HW226839   9.233   0.436   7.177
 2718SOL     OW26840   1.640  10.258   1.423
 2718SOL    HW126841   1.611  10.190   1.356
 2718SOL    HW226842   1.562  10.314   1.451
 2719SOL     OW26843   0.921   6.807   0.313
 2719SOL    HW126844   1.005   6.754   0.328
 2719SOL    HW226845   0.945   6.898   0.279
 2720SOL     OW26846   6.145   8.156   1.442
 2720SOL    HW126847   6.188   8.222   1.502
 2720SOL    HW226848   6.087   8.203   1.376
 2721SOL     OW26849   8.326   4.938   0.711
 2721SOL    HW126850   8.299   4.998   0.787
 2721SOL    HW226851   8.244   4.903   0.666
 2722SOL     OW26852   7.452   2.295   7.517
 2722SOL    HW126853   7.402   2.223   7.564
 2722SOL    HW226854   7.550   2.278   7.525
 2723SOL     OW26855   6.639   8.920   6.909
 2723SOL    HW126856   6.692   8.925   6.824
 2723SOL    HW226857   6.574   8.844   6.903
 2724SOL     OW26858   8.378   8.442   0.594
 2724SOL    HW126859   8.413   8.443   0.688
 2724SOL    HW226860   8.447   8.479   0.532
 2725SOL     OW26861   1.988   2.559   1.693
 2725SOL    HW126862   2.021   2.652   1.678
 2725SOL    HW226863   1.993   2.537   1.791
 2726SOL     OW26864   5.892   4.646   1.514
 2726SOL    HW126865   5.986   4.670   1.488
 2726SOL    HW226866   5.891   4.555   1.556
 2727SOL     OW26867   4.717   0.803   7.604
 2727SOL    HW126868   4.715   0.890   7.554
 2727SOL    HW226869   4.713   0.727   7.539
 2728SOL     OW26870   3.921   6.071   6.519
 2728SOL    HW126871   3.844   6.009   6.499
 2728SOL    HW226872   3.926   6.141   6.448
 2729SOL     OW26873   4.823   7.958   1.965
 2729SOL    HW126874   4.828   8.049   2.006
 2729SOL    HW226875   4.819   7.889   2.038
 2730SOL     OW26876   3.195   8.324   7.883
 2730SOL    HW126877   3.101   8.303   7.907
 2730SOL    HW226878   3.197   8.377   7.798
 2731SOL     OW26879   8.425   6.832   7.247
 2731SOL    HW126880   8.372   6.916   7.253
 2731SOL    HW226881   8.504   6.846   7.187
 2732SOL     OW26882   5.303   3.122   1.606
 2732SOL    HW126883   5.342   3.067   1.680
 2732SOL    HW226884   5.217   3.081   1.576
 2733SOL     OW26885   5.428   7.133   7.969
 2733SOL    HW126886   5.518   7.149   7.928
 2733SOL    HW226887   5.375   7.218   7.968
 2734SOL     OW26888   6.097   8.863   7.833
 2734SOL    HW126889   6.062   8.821   7.916
 2734SOL    HW226890   6.197   8.858   7.833
 2735SOL     OW26891   5.300   6.818   8.282
 2735SOL    HW126892   5.309   6.719   8.274
 2735SOL    HW226893   5.258   6.855   8.199
 2736SOL     OW26894   0.510   1.080   8.214
 2736SOL    HW126895   0.465   1.149   8.157
 2736SOL    HW226896   0.577   1.030   8.160
 2737SOL     OW26897   3.509   8.421   1.635
 2737SOL    HW126898   3.524   8.386   1.543
 2737SOL    HW226899   3.437   8.491   1.633
 2738SOL     OW26900   6.800   6.687   2.286
 2738SOL    HW126901   6.716   6.680   2.339
 2738SOL    HW226902   6.877   6.704   2.347
 2739SOL     OW26903   4.456   0.665   8.546
 2739SOL    HW126904   4.421   0.704   8.460
 2739SOL    HW226905   4.406   0.705   8.623
 2740SOL     OW26906   1.776   2.900   0.764
 2740SOL    HW126907   1.726   2.909   0.678
 2740SOL    HW226908   1.785   2.990   0.807
 2741SOL     OW26909   8.408   3.696   1.032
 2741SOL    HW126910   8.398   3.600   1.060
 2741SOL    HW226911   8.345   3.753   1.084
 2742SOL     OW26912   0.993   3.284   0.276
 2742SOL    HW126913   1.000   3.338   0.360
 2742SOL    HW226914   0.898   3.283   0.245
 2743SOL     OW26915   7.519   0.987   7.718
 2743SOL    HW126916   7.526   0.967   7.816
 2743SOL    HW226917   7.540   1.084   7.703
 2744SOL     OW26918   7.474   1.191   6.930
 2744SOL    HW126919   7.391   1.146   6.897
 2744SOL    HW226920   7.513   1.247   6.857
 2745SOL     OW26921   4.197   1.364   2.226
 2745SOL    HW126922   4.181   1.440   2.288
 2745SOL    HW226923   4.295   1.344   2.220
 2746SOL     OW26924   9.245   8.401   6.343
 2746SOL    HW126925   9.258   8.319   6.286
 2746SOL    HW226926   9.298   8.477   6.306
 2747SOL     OW26927   7.041  10.125   0.611
 2747SOL    HW126928   7.122  10.101   0.665
 2747SOL    HW226929   7.004  10.212   0.643
 2748SOL     OW26930   6.455   4.499   6.782
 2748SOL    HW126931   6.471   4.597   6.780
 2748SOL    HW226932   6.360   4.480   6.757
 2749SOL     OW26933   4.762   0.978   0.836
 2749SOL    HW126934   4.776   0.924   0.919
 2749SOL    HW226935   4.666   1.005   0.829
 2750SOL     OW26936   5.296   9.767   0.118
 2750SOL    HW126937   5.261   9.737   0.207
 2750SOL    HW226938   5.290   9.867   0.112
 2751SOL     OW26939   8.418   4.383   1.655
 2751SOL    HW126940   8.510   4.350   1.633
 2751SOL    HW226941   8.425   4.456   1.723
 2752SOL     OW26942   4.457   1.730   0.889
 2752SOL    HW126943   4.406   1.799   0.836
 2752SOL    HW226944   4.531   1.694   0.833
 2753SOL     OW26945   6.565   4.964   7.624
 2753SOL    HW126946   6.566   5.017   7.709
 2753SOL    HW226947   6.499   5.004   7.561
 2754SOL     OW26948   8.980   9.943   2.180
 2754SOL    HW126949   9.022   9.888   2.252
 2754SOL    HW226950   9.017  10.036   2.182
 2755SOL     OW26951   3.516   5.562   0.363
 2755SOL    HW126952   3.472   5.487   0.413
 2755SOL    HW226953   3.584   5.524   0.299
 2756SOL     OW26954   1.505   0.961   8.392
 2756SOL    HW126955   1.547   0.983   8.480
 2756SOL    HW226956   1.408   0.943   8.405
 2757SOL     OW26957   2.506   2.143   0.868
 2757SOL    HW126958   2.525   2.139   0.770
 2757SOL    HW226959   2.591   2.164   0.917
 2758SOL     OW26960   4.559   9.872   8.382
 2758SOL    HW126961   4.469   9.839   8.352
 2758SOL    HW226962   4.612   9.903   8.303
 2759SOL     OW26963  10.111   6.758   8.492
 2759SOL    HW126964  10.109   6.816   8.411
 2759SOL    HW226965  10.023   6.712   8.503
 2760SOL     OW26966   1.667   7.431   0.066
 2760SOL    HW126967   1.578   7.453   0.027
 2760SOL    HW226968   1.699   7.343   0.030
 2761SOL     OW26969   4.879   8.065   7.840
 2761SOL    HW126970   4.886   8.011   7.756
 2761SOL    HW226971   4.971   8.081   7.877
 2762SOL     OW26972   2.896   1.173   0.631
 2762SOL    HW126973   2.933   1.129   0.713
 2762SOL    HW226974   2.912   1.272   0.637
 2763SOL     OW26975   5.269   0.466   0.812
 2763SOL    HW126976   5.351   0.432   0.858
 2763SOL    HW226977   5.252   0.561   0.840
 2764SOL     OW26978   2.684   6.671   7.658
 2764SOL    HW126979   2.629   6.710   7.732
 2764SOL    HW226980   2.756   6.613   7.697
 2765SOL     OW26981   5.058   4.216   0.957
 2765SOL    HW126982   4.999   4.227   1.037
 2765SOL    HW226983   5.023   4.141   0.901
 2766SOL     OW26984   2.084   1.784   1.438
 2766SOL    HW126985   2.118   1.868   1.396
 2766SOL    HW226986   2.045   1.805   1.528
 2767SOL     OW26987   3.392   7.067   6.967
 2767SOL    HW126988   3.450   6.997   6.924
 2767SOL    HW226989   3.306   7.026   6.995
 2768SOL     OW26990   5.413   1.438   7.444
 2768SOL    HW126991   5.335   1.401   7.393
 2768SOL    HW226992   5.380   1.494   7.520
 2769SOL     OW26993   8.799   6.010   8.342
 2769SOL    HW126994   8.839   5.979   8.428
 2769SOL    HW226995   8.873   6.027   8.276
 2770SOL     OW26996   6.076   6.544   1.859
 2770SOL    HW126997   6.053   6.547   1.956
 2770SOL    HW226998   6.129   6.461   1.840
 2771SOL     OW26999   3.530   0.614   7.854
 2771SOL    HW127000   3.544   0.612   7.953
 2771SOL    HW227001   3.461   0.546   7.828
 2772SOL     OW27002   5.260   3.368   0.442
 2772SOL    HW127003   5.264   3.466   0.462
 2772SOL    HW227004   5.166   3.343   0.416
 2773SOL     OW27005   8.574   2.721   1.199
 2773SOL    HW127006   8.544   2.723   1.104
 2773SOL    HW227007   8.499   2.687   1.256
 2774SOL     OW27008   7.327   5.391   6.553
 2774SOL    HW127009   7.399   5.383   6.484
 2774SOL    HW227010   7.350   5.465   6.616
 2775SOL     OW27011   5.245   2.499   0.225
 2775SOL    HW127012   5.154   2.477   0.262
 2775SOL    HW227013   5.235   2.555   0.143
 2776SOL     OW27014   2.260   6.359   1.735
 2776SOL    HW127015   2.179   6.306   1.763
 2776SOL    HW227016   2.244   6.397   1.644
 2777SOL     OW27017   1.409   4.255   2.128
 2777SOL    HW127018   1.379   4.179   2.187
 2777SOL    HW227019   1.346   4.332   2.139
 2778SOL     OW27020   1.942   8.541   6.940
 2778SOL    HW127021   1.976   8.462   6.888
 2778SOL    HW227022   1.843   8.533   6.953
 2779SOL     OW27023   0.872   1.876   7.377
 2779SOL    HW127024   0.873   1.971   7.409
 2779SOL    HW227025   0.787   1.858   7.328
 2780SOL     OW27026   7.807   5.086   6.453
 2780SOL    HW127027   7.897   5.045   6.438
 2780SOL    HW227028   7.745   5.058   6.380
 2781SOL     OW27029   5.760   9.421   8.067
 2781SOL    HW127030   5.775   9.375   8.154
 2781SOL    HW227031   5.848   9.439   8.023
 2782SOL     OW27032   7.979   8.208   0.535
 2782SOL    HW127033   7.960   8.124   0.585
 2782SOL    HW227034   7.958   8.194   0.438
 2783SOL     OW27035   0.976   8.197   1.330
 2783SOL    HW127036   0.900   8.261   1.343
 2783SOL    HW227037   0.940   8.104   1.323
 2784SOL     OW27038   0.208   1.098   8.389
 2784SOL    HW127039   0.197   1.056   8.299
 2784SOL    HW227040   0.303   1.126   8.401
 2785SOL     OW27041   1.105   4.433   0.617
 2785SOL    HW127042   1.058   4.424   0.705
 2785SOL    HW227043   1.169   4.510   0.623
 2786SOL     OW27044   6.688   0.910   1.705
 2786SOL    HW127045   6.745   0.888   1.784
 2786SOL    HW227046   6.747   0.938   1.628
 2787SOL     OW27047   5.031   1.384   1.122
 2787SOL    HW127048   5.026   1.484   1.122
 2787SOL    HW227049   4.969   1.348   1.192
 2788SOL     OW27050   6.299   9.793   1.714
 2788SOL    HW127051   6.326   9.724   1.646
 2788SOL    HW227052   6.210   9.768   1.752
 2789SOL     OW27053   8.877   6.359   0.885
 2789SOL    HW127054   8.808   6.300   0.843
 2789SOL    HW227055   8.966   6.314   0.881
 2790SOL     OW27056   4.502   4.276   0.950
 2790SOL    HW127057   4.450   4.202   0.992
 2790SOL    HW227058   4.584   4.238   0.907
 2791SOL     OW27059   4.261   4.131   0.079
 2791SOL    HW127060   4.163   4.115   0.087
 2791SOL    HW227061   4.303   4.125   0.170
 2792SOL     OW27062   2.169   8.015   8.472
 2792SOL    HW127063   2.206   8.084   8.535
 2792SOL    HW227064   2.199   8.036   8.379
 2793SOL     OW27065   6.024   7.783   7.868
 2793SOL    HW127066   6.043   7.880   7.886
 2793SOL    HW227067   6.074   7.754   7.787
 2794SOL     OW27068   5.724   1.759   1.357
 2794SOL    HW127069   5.785   1.711   1.420
 2794SOL    HW227070   5.755   1.853   1.346
 2795SOL     OW27071   6.469   0.192   0.542
 2795SOL    HW127072   6.389   0.138   0.569
 2795SOL    HW227073   6.438   0.276   0.496
 2796SOL     OW27074   7.277   3.109   7.835
 2796SOL    HW127075   7.266   3.061   7.748
 2796SOL    HW227076   7.272   3.043   7.910
 2797SOL     OW27077   8.791   2.260   6.699
 2797SOL    HW127078   8.849   2.181   6.680
 2797SOL    HW227079   8.716   2.263   6.633
 2798SOL     OW27080   7.079   6.485   6.895
 2798SOL    HW127081   7.111   6.391   6.891
 2798SOL    HW227082   7.066   6.512   6.990
 2799SOL     OW27083   5.316   0.276   0.147
 2799SOL    HW127084   5.397   0.217   0.153
 2799SOL    HW227085   5.317   0.325   0.060
 2800SOL     OW27086   0.605   3.031   0.866
 2800SOL    HW127087   0.643   3.007   0.955
 2800SOL    HW227088   0.656   3.107   0.827
 2801SOL     OW27089   4.680   6.483   7.063
 2801SOL    HW127090   4.647   6.469   7.156
 2801SOL    HW227091   4.640   6.413   7.003
 2802SOL     OW27092   6.188   0.874   0.889
 2802SOL    HW127093   6.258   0.945   0.890
 2802SOL    HW227094   6.138   0.877   0.803
 2803SOL     OW27095   7.400   0.373   1.639
 2803SOL    HW127096   7.358   0.283   1.655
 2803SOL    HW227097   7.360   0.440   1.700
 2804SOL     OW27098   8.208   2.167   0.270
 2804SOL    HW127099   8.157   2.084   0.296
 2804SOL    HW227100   8.195   2.237   0.340
 2805SOL     OW27101   6.497   8.747   7.229
 2805SOL    HW127102   6.413   8.793   7.203
 2805SOL    HW227103   6.512   8.668   7.169
 2806SOL     OW27104   1.245  10.196   0.258
 2806SOL    HW127105   1.267  10.105   0.292
 2806SOL    HW227106   1.322  10.258   0.275
 2807SOL     OW27107   8.165   8.517   6.346
 2807SOL    HW127108   8.205   8.444   6.292
 2807SOL    HW227109   8.071   8.494   6.369
 2808SOL     OW27110   8.751   8.336   0.403
 2808SOL    HW127111   8.810   8.332   0.323
 2808SOL    HW227112   8.803   8.313   0.485
 2809SOL     OW27113   0.423   2.987   0.488
 2809SOL    HW127114   0.395   3.054   0.420
 2809SOL    HW227115   0.523   2.987   0.496
 2810SOL     OW27116   1.018   8.083   8.516
 2810SOL    HW127117   0.930   8.124   8.541
 2810SOL    HW227118   1.048   8.021   8.589
 2811SOL     OW27119   6.963   0.837   8.110
 2811SOL    HW127120   7.025   0.759   8.101
 2811SOL    HW227121   6.973   0.896   8.029
 2812SOL     OW27122   7.103   1.217   8.702
 2812SOL    HW127123   7.122   1.158   8.781
 2812SOL    HW227124   7.185   1.268   8.677
 2813SOL     OW27125   6.146   9.071   2.386
 2813SOL    HW127126   6.075   9.138   2.364
 2813SOL    HW227127   6.102   8.982   2.401
 2814SOL     OW27128   4.040   1.878   0.848
 2814SOL    HW127129   4.071   1.838   0.762
 2814SOL    HW227130   4.069   1.974   0.853
 2815SOL     OW27131   2.901   4.400   1.392
 2815SOL    HW127132   2.839   4.446   1.329
 2815SOL    HW227133   2.969   4.465   1.427
 2816SOL     OW27134   3.133   2.370   0.208
 2816SOL    HW127135   3.103   2.276   0.228
 2816SOL    HW227136   3.220   2.387   0.253
 2817SOL     OW27137   0.137   2.779   6.977
 2817SOL    HW127138   0.210   2.783   7.044
 2817SOL    HW227139   0.175   2.792   6.885
 2818SOL     OW27140   5.141   3.049   6.838
 2818SOL    HW127141   5.140   3.129   6.899
 2818SOL    HW227142   5.118   2.967   6.890
 2819SOL     OW27143   1.096   5.185   0.393
 2819SOL    HW127144   1.012   5.238   0.390
 2819SOL    HW227145   1.151   5.212   0.473
 2820SOL     OW27146   3.483   2.188   1.126
 2820SOL    HW127147   3.499   2.135   1.209
 2820SOL    HW227148   3.483   2.127   1.047
 2821SOL     OW27149   0.466   5.554   8.429
 2821SOL    HW127150   0.532   5.512   8.491
 2821SOL    HW227151   0.516   5.600   8.355
 2822SOL     OW27152   8.832   2.368   0.366
 2822SOL    HW127153   8.842   2.288   0.425
 2822SOL    HW227154   8.772   2.346   0.289
 2823SOL     OW27155   3.418   6.553   0.631
 2823SOL    HW127156   3.323   6.533   0.653
 2823SOL    HW227157   3.449   6.490   0.559
 2824SOL     OW27158   0.949   4.785   7.344
 2824SOL    HW127159   0.996   4.736   7.271
 2824SOL    HW227160   0.916   4.720   7.412
 2825SOL     OW27161   3.569   3.517   6.185
 2825SOL    HW127162   3.486   3.470   6.155
 2825SOL    HW227163   3.620   3.458   6.247
 2826SOL     OW27164   4.076   2.839   0.201
 2826SOL    HW127165   4.059   2.769   0.271
 2826SOL    HW227166   4.110   2.922   0.245
 2827SOL     OW27167   9.320   0.866   1.078
 2827SOL    HW127168   9.334   0.955   1.123
 2827SOL    HW227169   9.391   0.852   1.009
 2828SOL     OW27170   7.955   4.074   1.663
 2828SOL    HW127171   7.908   4.150   1.619
 2828SOL    HW227172   7.992   4.103   1.751
 2829SOL     OW27173   6.948   2.087   1.353
 2829SOL    HW127174   6.875   2.019   1.363
 2829SOL    HW227175   6.914   2.177   1.380
 2830SOL     OW27176   8.465   7.842   1.452
 2830SOL    HW127177   8.481   7.938   1.477
 2830SOL    HW227178   8.503   7.782   1.522
 2831SOL     OW27179   7.934   2.015   7.816
 2831SOL    HW127180   7.960   2.008   7.720
 2831SOL    HW227181   8.009   1.982   7.873
 2832SOL     OW27182   7.718   8.859   8.769
 2832SOL    HW127183   7.792   8.851   0.054
 2832SOL    HW227184   7.640   8.905   0.028
 2833SOL     OW27185   6.493   1.807   7.168
 2833SOL    HW127186   6.463   1.717   7.136
 2833SOL    HW227187   6.562   1.796   7.239
 2834SOL     OW27188   4.178   5.992   6.596
 2834SOL    HW127189   4.089   6.020   6.559
 2834SOL    HW227190   4.247   6.000   6.524
 2835SOL     OW27191   5.733   0.023   8.776
 2835SOL    HW127192   5.757   0.120   8.768
 2835SOL    HW227193   5.739  10.483   8.686
 2836SOL     OW27194   5.964   6.632   0.848
 2836SOL    HW127195   6.046   6.629   0.905
 2836SOL    HW227196   5.908   6.550   0.866
 2837SOL     OW27197   2.789   3.266   6.497
 2837SOL    HW127198   2.827   3.186   6.543
 2837SOL    HW227199   2.731   3.236   6.421
 2838SOL     OW27200   8.334   1.705   0.879
 2838SOL    HW127201   8.270   1.738   0.809
 2838SOL    HW227202   8.289   1.637   0.936
 2839SOL     OW27203   9.103   5.459   2.148
 2839SOL    HW127204   9.086   5.557   2.148
 2839SOL    HW227205   9.196   5.440   2.118
 2840SOL     OW27206   0.468   9.614   1.980
 2840SOL    HW127207   0.433   9.525   1.950
 2840SOL    HW227208   0.412   9.648   2.056
 2841SOL     OW27209   8.518   3.352   2.011
 2841SOL    HW127210   8.479   3.393   1.929
 2841SOL    HW227211   8.501   3.412   2.089
 2842SOL     OW27212   8.069   7.928   0.362
 2842SOL    HW127213   8.063   7.845   0.306
 2842SOL    HW227214   8.157   7.973   0.345
 2843SOL     OW27215   4.826   5.756   7.835
 2843SOL    HW127216   4.816   5.657   7.835
 2843SOL    HW227217   4.790   5.793   7.921
 2844SOL     OW27218   3.885   7.934   8.640
 2844SOL    HW127219   3.900   7.915   8.737
 2844SOL    HW227220   3.833   8.018   8.629
 2845SOL     OW27221   8.084   0.322   8.431
 2845SOL    HW127222   8.053   0.269   8.510
 2845SOL    HW227223   8.094   0.418   8.457
 2846SOL     OW27224   8.604   6.346   1.487
 2846SOL    HW127225   8.614   6.437   1.528
 2846SOL    HW227226   8.607   6.277   1.558
 2847SOL     OW27227   1.081   2.898   0.585
 2847SOL    HW127228   1.010   2.968   0.595
 2847SOL    HW227229   1.171   2.942   0.584
 2848SOL     OW27230   6.381   5.056   7.449
 2848SOL    HW127231   6.412   5.047   7.354
 2848SOL    HW227232   6.293   5.011   7.459
 2849SOL     OW27233   0.231  10.271   0.562
 2849SOL    HW127234   0.280  10.298   0.479
 2849SOL    HW227235   0.292  10.276   0.641
 2850SOL     OW27236   0.781   8.380   1.361
 2850SOL    HW127237   0.709   8.336   1.308
 2850SOL    HW227238   0.771   8.479   1.356
 2851SOL     OW27239   1.215   2.354   7.286
 2851SOL    HW127240   1.254   2.324   7.199
 2851SOL    HW227241   1.241   2.291   7.359
 2852SOL     OW27242   7.268   1.932   7.461
 2852SOL    HW127243   7.300   1.839   7.441
 2852SOL    HW227244   7.205   1.962   7.390
 2853SOL     OW27245   3.295   2.267   7.211
 2853SOL    HW127246   3.287   2.299   7.117
 2853SOL    HW227247   3.227   2.197   7.229
 2854SOL     OW27248   1.528   9.902   1.486
 2854SOL    HW127249   1.509   9.959   1.565
 2854SOL    HW227250   1.532   9.959   1.404
 2855SOL     OW27251   1.549   5.649   0.132
 2855SOL    HW127252   1.473   5.701   0.171
 2855SOL    HW227253   1.635   5.678   0.175
 2856SOL     OW27254   3.710   7.807   0.232
 2856SOL    HW127255   3.667   7.751   0.161
 2856SOL    HW227256   3.793   7.850   0.196
 2857SOL     OW27257   6.820   2.388   8.346
 2857SOL    HW127258   6.771   2.314   8.391
 2857SOL    HW227259   6.756   2.443   8.292
 2858SOL     OW27260   6.773   6.125   1.176
 2858SOL    HW127261   6.835   6.184   1.226
 2858SOL    HW227262   6.825   6.066   1.113
 2859SOL     OW27263   7.766   2.180   0.965
 2859SOL    HW127264   7.856   2.198   0.925
 2859SOL    HW227265   7.755   2.082   0.980
 2860SOL     OW27266   8.406  10.456   8.447
 2860SOL    HW127267   8.488  10.479   8.395
 2860SOL    HW227268   8.431  10.435   8.541
 2861SOL     OW27269   6.992   6.270   1.283
 2861SOL    HW127270   7.051   6.203   1.237
 2861SOL    HW227271   7.048   6.336   1.332
 2862SOL     OW27272   4.940   4.545   1.475
 2862SOL    HW127273   4.973   4.452   1.459
 2862SOL    HW227274   4.961   4.602   1.396
 2863SOL     OW27275   6.369   8.554   2.356
 2863SOL    HW127276   6.342   8.468   2.401
 2863SOL    HW227277   6.468   8.558   2.350
 2864SOL     OW27278   1.346   2.593   7.345
 2864SOL    HW127279   1.292   2.513   7.320
 2864SOL    HW227280   1.312   2.630   7.431
 2865SOL     OW27281   2.066   9.462   7.971
 2865SOL    HW127282   2.158   9.424   7.964
 2865SOL    HW227283   2.014   9.411   8.040
 2866SOL     OW27284   5.111  10.401   0.536
 2866SOL    HW127285   5.047  10.442   0.471
 2866SOL    HW227286   5.145  10.315   0.500
 2867SOL     OW27287   7.198   4.959   7.305
 2867SOL    HW127288   7.233   5.026   7.369
 2867SOL    HW227289   7.260   4.954   7.226
 2868SOL     OW27290   8.406   4.569   1.858
 2868SOL    HW127291   8.339   4.620   1.804
 2868SOL    HW227292   8.366   4.544   1.946
 2869SOL     OW27293   3.135   3.578   0.583
 2869SOL    HW127294   3.215   3.524   0.612
 2869SOL    HW227295   3.124   3.657   0.643
 2870SOL     OW27296   4.316   6.217   0.006
 2870SOL    HW127297   4.218   6.234   8.778
 2870SOL    HW227298   4.359   6.221   8.697
 2871SOL     OW27299   4.751   4.411   7.884
 2871SOL    HW127300   4.721   4.360   7.965
 2871SOL    HW227301   4.694   4.492   7.872
 2872SOL     OW27302   9.903   5.641   0.232
 2872SOL    HW127303   9.846   5.594   0.299
 2872SOL    HW227304   9.850   5.658   0.149
 2873SOL     OW27305   2.513   4.484   1.598
 2873SOL    HW127306   2.584   4.548   1.631
 2873SOL    HW227307   2.468   4.443   1.677
 2874SOL     OW27308   7.445   3.549   7.774
 2874SOL    HW127309   7.429   3.462   7.819
 2874SOL    HW227310   7.535   3.548   7.730
 2875SOL     OW27311   1.388   8.719   0.761
 2875SOL    HW127312   1.372   8.639   0.703
 2875SOL    HW227313   1.462   8.700   0.825
 2876SOL     OW27314   5.317   9.162   1.709
 2876SOL    HW127315   5.267   9.223   1.648
 2876SOL    HW227316   5.290   9.180   1.804
 2877SOL     OW27317   7.543   4.267   0.200
 2877SOL    HW127318   7.494   4.189   0.161
 2877SOL    HW227319   7.511   4.283   0.294
 2878SOL     OW27320   8.754  10.248   1.427
 2878SOL    HW127321   8.667  10.287   1.398
 2878SOL    HW227322   8.770  10.162   1.378
 2879SOL     OW27323   9.947   7.167   0.941
 2879SOL    HW127324   9.913   7.214   1.022
 2879SOL    HW227325   9.882   7.178   0.866
 2880SOL     OW27326   6.828   5.816   7.863
 2880SOL    HW127327   6.740   5.830   7.818
 2880SOL    HW227328   6.881   5.749   7.813
 2881SOL     OW27329   5.045   7.938   0.834
 2881SOL    HW127330   5.089   7.886   0.907
 2881SOL    HW227331   4.961   7.891   0.806
 2882SOL     OW27332   2.830   6.210   1.329
 2882SOL    HW127333   2.834   6.169   1.238
 2882SOL    HW227334   2.745   6.182   1.374
 2883SOL     OW27335   3.299   1.864   8.740
 2883SOL    HW127336   3.342   1.836   8.654
 2883SOL    HW227337   3.291   1.784   0.018
 2884SOL     OW27338   3.736   0.511   6.251
 2884SOL    HW127339   3.793   0.480   6.175
 2884SOL    HW227340   3.695   0.600   6.227
 2885SOL     OW27341   7.230   0.669   7.363
 2885SOL    HW127342   7.228   0.739   7.293
 2885SOL    HW227343   7.136   0.638   7.383
 2886SOL     OW27344   5.872   0.433   6.817
 2886SOL    HW127345   5.872   0.525   6.778
 2886SOL    HW227346   5.827   0.370   6.753
 2887SOL     OW27347   3.957   0.618   0.090
 2887SOL    HW127348   4.004   0.620   0.001
 2887SOL    HW227349   4.021   0.647   0.162
 2888SOL     OW27350   4.799   6.935   0.278
 2888SOL    HW127351   4.884   6.909   0.323
 2888SOL    HW227352   4.779   6.870   0.204
 2889SOL     OW27353   9.785   6.261   6.887
 2889SOL    HW127354   9.748   6.170   6.866
 2889SOL    HW227355   9.877   6.252   6.924
 2890SOL     OW27356   8.240   0.010   6.907
 2890SOL    HW127357   8.205   0.067   6.833
 2890SOL    HW227358   8.169  10.503   6.978
 2891SOL     OW27359   5.562   1.604   7.747
 2891SOL    HW127360   5.605   1.599   7.657
 2891SOL    HW227361   5.632   1.620   7.817
 2892SOL     OW27362   7.785   6.975   6.958
 2892SOL    HW127363   7.695   6.951   6.995
 2892SOL    HW227364   7.786   6.957   6.860
 2893SOL     OW27365   7.193   4.591   1.043
 2893SOL    HW127366   7.102   4.557   1.021
 2893SOL    HW227367   7.236   4.628   0.961
 2894SOL     OW27368   0.559   3.718   1.289
 2894SOL    HW127369   0.566   3.699   1.192
 2894SOL    HW227370   0.485   3.664   1.329
 2895SOL     OW27371   2.533   5.290   0.606
 2895SOL    HW127372   2.571   5.223   0.541
 2895SOL    HW227373   2.438   5.265   0.627
 2896SOL     OW27374   3.951   6.280   6.337
 2896SOL    HW127375   3.859   6.292   6.299
 2896SOL    HW227376   4.018   6.281   6.263
 2897SOL     OW27377   4.742   2.339   5.990
 2897SOL    HW127378   4.663   2.280   5.974
 2897SOL    HW227379   4.713   2.435   5.986
 2898SOL     OW27380   7.719   4.392   7.955
 2898SOL    HW127381   7.785   4.401   7.880
 2898SOL    HW227382   7.747   4.450   8.031
 2899SOL     OW27383   2.412   5.862   7.259
 2899SOL    HW127384   2.431   5.948   7.307
 2899SOL    HW227385   2.445   5.868   7.165
 2900SOL     OW27386   4.847   7.434   1.501
 2900SOL    HW127387   4.910   7.511   1.514
 2900SOL    HW227388   4.765   7.467   1.454
 2901SOL     OW27389   9.852   9.413   8.189
 2901SOL    HW127390   9.773   9.399   8.248
 2901SOL    HW227391   9.933   9.374   8.233
 2902SOL     OW27392   6.568   7.846   7.103
 2902SOL    HW127393   6.508   7.885   7.033
 2902SOL    HW227394   6.662   7.845   7.070
 2903SOL     OW27395   1.678   1.932   0.783
 2903SOL    HW127396   1.592   1.962   0.824
 2903SOL    HW227397   1.702   1.841   0.817
 2904SOL     OW27398   0.086   2.438   0.768
 2904SOL    HW127399   0.148   2.378   0.717
 2904SOL    HW227400   0.015   2.382   0.812
 2905SOL     OW27401   2.722   1.552   7.866
 2905SOL    HW127402   2.731   1.541   7.965
 2905SOL    HW227403   2.645   1.497   7.834
 2906SOL     OW27404   6.194   6.904   7.312
 2906SOL    HW127405   6.279   6.956   7.303
 2906SOL    HW227406   6.215   6.810   7.338
 2907SOL     OW27407   8.723   3.993   8.330
 2907SOL    HW127408   8.810   3.977   8.377
 2907SOL    HW227409   8.682   4.078   8.364
 2908SOL     OW27410   2.563   9.973   0.743
 2908SOL    HW127411   2.496  10.046   0.752
 2908SOL    HW227412   2.596   9.968   0.649
 2909SOL     OW27413   2.421   1.994   1.548
 2909SOL    HW127414   2.454   1.900   1.544
 2909SOL    HW227415   2.394   2.016   1.642
 2910SOL     OW27416   7.854   0.812   7.812
 2910SOL    HW127417   7.868   0.902   7.852
 2910SOL    HW227418   7.848   0.744   7.884
 2911SOL     OW27419   3.989   2.686   8.575
 2911SOL    HW127420   4.069   2.733   8.613
 2911SOL    HW227421   4.020   2.604   8.527
 2912SOL     OW27422   2.104   0.377   0.768
 2912SOL    HW127423   2.118   0.291   0.719
 2912SOL    HW227424   2.104   0.359   0.867
 2913SOL     OW27425   1.204   9.898   8.277
 2913SOL    HW127426   1.134   9.861   8.339
 2913SOL    HW227427   1.293   9.858   8.300
 2914SOL     OW27428   1.200   3.502   1.434
 2914SOL    HW127429   1.259   3.554   1.495
 2914SOL    HW227430   1.104   3.518   1.457
 2915SOL     OW27431   4.955   9.770   1.920
 2915SOL    HW127432   4.870   9.793   1.967
 2915SOL    HW227433   4.995   9.688   1.960
 2916SOL     OW27434   5.544   8.349   1.340
 2916SOL    HW127435   5.510   8.322   1.251
 2916SOL    HW227436   5.528   8.276   1.406
 2917SOL     OW27437   8.893   3.676   8.687
 2917SOL    HW127438   8.936   3.766   8.689
 2917SOL    HW227439   8.887   3.644   8.593
 2918SOL     OW27440   2.410   7.978   1.346
 2918SOL    HW127441   2.386   8.050   1.281
 2918SOL    HW227442   2.495   8.001   1.392
 2919SOL     OW27443   5.026   3.979   8.261
 2919SOL    HW127444   4.936   3.937   8.274
 2919SOL    HW227445   5.017   4.079   8.264
 2920SOL     OW27446   6.054   6.178   1.664
 2920SOL    HW127447   5.995   6.256   1.644
 2920SOL    HW227448   6.129   6.208   1.724
 2921SOL     OW27449   6.419   9.060   8.223
 2921SOL    HW127450   6.346   9.051   8.292
 2921SOL    HW227451   6.454   8.969   8.200
 2922SOL     OW27452   8.719   5.423   8.615
 2922SOL    HW127453   8.627   5.387   8.628
 2922SOL    HW227454   8.782   5.374   8.676
 2923SOL     OW27455   0.706   6.269   6.982
 2923SOL    HW127456   0.770   6.331   7.029
 2923SOL    HW227457   0.692   6.188   7.039
 2924SOL     OW27458   7.248   8.888   8.447
 2924SOL    HW127459   7.226   8.903   8.351
 2924SOL    HW227460   7.333   8.936   8.470
 2925SOL     OW27461   3.443   7.830   8.415
 2925SOL    HW127462   3.370   7.800   8.353
 2925SOL    HW227463   3.513   7.879   8.363
 2926SOL     OW27464   7.812   7.755   7.449
 2926SOL    HW127465   7.728   7.809   7.447
 2926SOL    HW227466   7.805   7.685   7.520
 2927SOL     OW27467   9.315   3.029   8.460
 2927SOL    HW127468   9.324   3.004   8.556
 2927SOL    HW227469   9.391   3.087   8.433
 2928SOL     OW27470   2.607   7.339   0.307
 2928SOL    HW127471   2.631   7.334   0.404
 2928SOL    HW227472   2.517   7.382   0.296
 2929SOL     OW27473   8.059   2.722   7.633
 2929SOL    HW127474   8.027   2.813   7.607
 2929SOL    HW227475   8.027   2.655   7.566
 2930SOL     OW27476   7.097   5.258   8.025
 2930SOL    HW127477   7.131   5.261   8.119
 2930SOL    HW227478   7.167   5.218   7.965
 2931SOL     OW27479   4.446   5.275   6.764
 2931SOL    HW127480   4.411   5.219   6.689
 2931SOL    HW227481   4.539   5.305   6.743
 2932SOL     OW27482   0.967   0.298   7.529
 2932SOL    HW127483   0.997   0.393   7.516
 2932SOL    HW227484   1.035   0.249   7.584
 2933SOL     OW27485   2.365   4.772   6.272
 2933SOL    HW127486   2.357   4.840   6.198
 2933SOL    HW227487   2.397   4.818   6.355
 2934SOL     OW27488   9.226   1.805   6.290
 2934SOL    HW127489   9.167   1.771   6.217
 2934SOL    HW227490   9.233   1.905   6.283
 2935SOL     OW27491   2.636   7.695   1.415
 2935SOL    HW127492   2.631   7.740   1.504
 2935SOL    HW227493   2.546   7.695   1.373
 2936SOL     OW27494   6.760   5.756   0.921
 2936SOL    HW127495   6.757   5.715   0.830
 2936SOL    HW227496   6.686   5.823   0.930
 2937SOL     OW27497   6.553   5.955   0.679
 2937SOL    HW127498   6.499   5.884   0.634
 2937SOL    HW227499   6.553   5.941   0.778
 2938SOL     OW27500   0.047   5.572   1.615
 2938SOL    HW127501   0.069   5.493   1.673
 2938SOL    HW227502  10.106   5.588   1.616
 2939SOL     OW27503   8.327   8.789   8.636
 2939SOL    HW127504   8.388   8.715   8.607
 2939SOL    HW227505   8.335   8.866   8.573
 2940SOL     OW27506   5.186   1.607   1.371
 2940SOL    HW127507   5.118   1.630   1.301
 2940SOL    HW227508   5.138   1.589   1.457
 2941SOL     OW27509   0.217   2.340   7.554
 2941SOL    HW127510   0.303   2.377   7.520
 2941SOL    HW227511   0.209   2.244   7.528
 2942SOL     OW27512   4.637   8.836   1.050
 2942SOL    HW127513   4.625   8.764   1.118
 2942SOL    HW227514   4.726   8.826   1.006
 2943SOL     OW27515   4.462   5.722   1.390
 2943SOL    HW127516   4.466   5.647   1.456
 2943SOL    HW227517   4.528   5.793   1.416
 2944SOL     OW27518   1.884   2.222   0.085
 2944SOL    HW127519   1.867   2.318   0.066
 2944SOL    HW227520   1.970   2.194   0.042
 2945SOL     OW27521   7.699   5.959   6.375
 2945SOL    HW127522   7.599   5.958   6.386
 2945SOL    HW227523   7.726   5.880   6.320
 2946SOL     OW27524   7.545   1.922   7.789
 2946SOL    HW127525   7.591   1.996   7.836
 2946SOL    HW227526   7.591   1.836   7.809
 2947SOL     OW27527   0.400   7.845   8.080
 2947SOL    HW127528   0.482   7.865   8.133
 2947SOL    HW227529   0.418   7.767   8.020
 2948SOL     OW27530   8.829   8.648   6.858
 2948SOL    HW127531   8.897   8.654   6.931
 2948SOL    HW227532   8.873   8.626   6.772
 2949SOL     OW27533   7.419   3.194   7.462
 2949SOL    HW127534   7.409   3.166   7.557
 2949SOL    HW227535   7.506   3.160   7.426
 2950SOL     OW27536   7.987   8.152   7.988
 2950SOL    HW127537   7.955   8.062   8.017
 2950SOL    HW227538   7.962   8.221   8.057
 2951SOL     OW27539   2.308   5.470   7.812
 2951SOL    HW127540   2.249   5.545   7.781
 2951SOL    HW227541   2.307   5.397   7.744
 2952SOL     OW27542   4.504   7.154   0.000
 2952SOL    HW127543   4.524   7.217   0.075
 2952SOL    HW227544   4.406   7.157   8.763
 2953SOL     OW27545   3.735   5.038   0.461
 2953SOL    HW127546   3.677   5.096   0.404
 2953SOL    HW227547   3.807   4.998   0.404
 2954SOL     OW27548   3.470   1.125   1.901
 2954SOL    HW127549   3.567   1.101   1.896
 2954SOL    HW227550   3.460   1.224   1.888
 2955SOL     OW27551   4.964   0.051   0.021
 2955SOL    HW127552   4.872   0.073   8.769
 2955SOL    HW227553   4.963   0.048   0.121
 2956SOL     OW27554   2.709   7.906   8.192
 2956SOL    HW127555   2.702   7.945   8.283
 2956SOL    HW227556   2.620   7.870   8.164
 2957SOL     OW27557   8.908   6.862   6.529
 2957SOL    HW127558   8.982   6.865   6.462
 2957SOL    HW227559   8.850   6.782   6.513
 2958SOL     OW27560   6.934   2.752   7.377
 2958SOL    HW127561   6.840   2.787   7.365
 2958SOL    HW227562   6.992   2.789   7.304
 2959SOL     OW27563   7.328   5.817   7.752
 2959SOL    HW127564   7.413   5.814   7.803
 2959SOL    HW227565   7.301   5.725   7.725
 2960SOL     OW27566   2.450   8.234   1.865
 2960SOL    HW127567   2.510   8.238   1.945
 2960SOL    HW227568   2.389   8.313   1.866
 2961SOL     OW27569   2.783   7.492   8.198
 2961SOL    HW127570   2.721   7.507   8.121
 2961SOL    HW227571   2.819   7.580   8.229
 2962SOL     OW27572   7.556   6.471   1.181
 2962SOL    HW127573   7.481   6.532   1.157
 2962SOL    HW227574   7.563   6.397   1.114
 2963SOL     OW27575   2.147   8.552   1.764
 2963SOL    HW127576   2.227   8.522   1.711
 2963SOL    HW227577   2.073   8.575   1.702
 2964SOL     OW27578   0.341   5.709   7.541
 2964SOL    HW127579   0.323   5.796   7.495
 2964SOL    HW227580   0.304   5.711   7.633
 2965SOL     OW27581   4.626   6.557   0.557
 2965SOL    HW127582   4.658   6.554   0.652
 2965SOL    HW227583   4.562   6.482   0.541
 2966SOL     OW27584   1.191   3.160   0.861
 2966SOL    HW127585   1.249   3.078   0.854
 2966SOL    HW227586   1.178   3.199   0.770
 2967SOL     OW27587   6.954   4.734   0.222
 2967SOL    HW127588   6.902   4.673   0.162
 2967SOL    HW227589   6.911   4.825   0.222
 2968SOL     OW27590   3.028   2.097   0.272
 2968SOL    HW127591   3.083   2.052   0.343
 2968SOL    HW227592   3.034   2.044   0.187
 2969SOL     OW27593   9.728   8.152   0.560
 2969SOL    HW127594   9.781   8.161   0.645
 2969SOL    HW227595   9.759   8.221   0.494
 2970SOL     OW27596   9.006   7.480   6.722
 2970SOL    HW127597   9.104   7.491   6.740
 2970SOL    HW227598   8.994   7.435   6.634
 2971SOL     OW27599   5.584   7.957   1.309
 2971SOL    HW127600   5.632   7.869   1.308
 2971SOL    HW227601   5.494   7.945   1.266
 2972SOL     OW27602   9.421   8.363   8.226
 2972SOL    HW127603   9.436   8.278   8.176
 2972SOL    HW227604   9.398   8.342   8.321
 2973SOL     OW27605   8.960  10.393   7.439
 2973SOL    HW127606   8.968  10.477   7.493
 2973SOL    HW227607   8.904  10.411   7.358
 2974SOL     OW27608   5.704   0.464   1.593
 2974SOL    HW127609   5.732   0.525   1.668
 2974SOL    HW227610   5.784   0.420   1.554
 2975SOL     OW27611   3.586   1.452   0.286
 2975SOL    HW127612   3.665   1.424   0.231
 2975SOL    HW227613   3.534   1.371   0.314
 2976SOL     OW27614   2.588   4.295   0.812
 2976SOL    HW127615   2.499   4.269   0.775
 2976SOL    HW227616   2.605   4.391   0.794
 2977SOL     OW27617   7.053   9.193   8.177
 2977SOL    HW127618   6.982   9.133   8.213
 2977SOL    HW227619   7.017   9.286   8.171
 2978SOL     OW27620   7.124   9.421   7.140
 2978SOL    HW127621   7.196   9.354   7.158
 2978SOL    HW227622   7.034   9.376   7.149
 2979SOL     OW27623   0.681   8.932   1.255
 2979SOL    HW127624   0.673   9.024   1.293
 2979SOL    HW227625   0.773   8.896   1.274
 2980SOL     OW27626   1.519   5.874   6.081
 2980SOL    HW127627   1.483   5.953   6.031
 2980SOL    HW227628   1.607   5.847   6.043
 2981SOL     OW27629   1.841   0.843   0.473
 2981SOL    HW127630   1.804   0.874   0.561
 2981SOL    HW227631   1.767   0.832   0.408
 2982SOL     OW27632   7.033   0.225   1.051
 2982SOL    HW127633   6.954   0.166   1.068
 2982SOL    HW227634   7.003   0.320   1.044
 2983SOL     OW27635   5.747   7.676   0.332
 2983SOL    HW127636   5.743   7.735   0.251
 2983SOL    HW227637   5.835   7.690   0.377
 2984SOL     OW27638   1.489   6.474   7.891
 2984SOL    HW127639   1.399   6.441   7.862
 2984SOL    HW227640   1.552   6.470   7.813
 2985SOL     OW27641   2.443   0.887   1.357
 2985SOL    HW127642   2.438   0.936   1.444
 2985SOL    HW227643   2.361   0.830   1.346
 2986SOL     OW27644   8.234   7.536   7.478
 2986SOL    HW127645   8.281   7.466   7.531
 2986SOL    HW227646   8.174   7.493   7.411
 2987SOL     OW27647   8.969   0.459   0.567
 2987SOL    HW127648   8.999   0.380   0.514
 2987SOL    HW227649   8.912   0.518   0.510
 2988SOL     OW27650  10.137   2.516   8.471
 2988SOL    HW127651  10.041   2.508   8.445
 2988SOL    HW227652   0.036   2.459   8.410
 2989SOL     OW27653   1.719   8.056   1.476
 2989SOL    HW127654   1.816   8.030   1.471
 2989SOL    HW227655   1.710   8.155   1.461
 2990SOL     OW27656   1.069   9.941   7.746
 2990SOL    HW127657   1.081   9.862   7.686
 2990SOL    HW227658   1.102   9.919   7.838
 2991SOL     OW27659   8.697   7.670   7.002
 2991SOL    HW127660   8.601   7.660   6.978
 2991SOL    HW227661   8.745   7.584   6.984
 2992SOL     OW27662   9.212   7.207   1.121
 2992SOL    HW127663   9.128   7.218   1.174
 2992SOL    HW227664   9.290   7.209   1.183
 2993SOL     OW27665   6.405   7.462   1.480
 2993SOL    HW127666   6.363   7.381   1.519
 2993SOL    HW227667   6.427   7.446   1.383
 2994SOL     OW27668   0.013   3.117   7.633
 2994SOL    HW127669   0.023   3.106   7.534
 2994SOL    HW227670   0.009   3.214   7.655
 2995SOL     OW27671   0.485   7.242   2.012
 2995SOL    HW127672   0.417   7.262   2.083
 2995SOL    HW227673   0.515   7.328   1.971
 2996SOL     OW27674   0.449   7.570   1.519
 2996SOL    HW127675   0.364   7.566   1.467
 2996SOL    HW227676   0.432   7.610   1.609
 2997SOL     OW27677   9.466   9.056   8.743
 2997SOL    HW127678   9.532   9.049   0.036
 2997SOL    HW227679   9.514   9.059   8.656
 2998SOL     OW27680   7.070   9.242   8.621
 2998SOL    HW127681   7.100   9.149   8.641
 2998SOL    HW227682   7.141   9.289   8.569
 2999SOL     OW27683   4.275  10.466   8.115
 2999SOL    HW127684   4.330   0.013   8.047
 2999SOL    HW227685   4.314  10.375   8.128
 3000SOL     OW27686   1.746   3.205   7.450
 3000SOL    HW127687   1.834   3.252   7.451
 3000SOL    HW227688   1.760   3.109   7.426
 3001SOL     OW27689   5.819   2.032   1.069
 3001SOL    HW127690   5.813   1.943   1.023
 3001SOL    HW227691   5.822   2.019   1.168
 3002SOL     OW27692   3.136   9.152   6.782
 3002SOL    HW127693   3.132   9.091   6.703
 3002SOL    HW227694   3.043   9.174   6.811
 3003SOL     OW27695   0.602   7.806   0.807
 3003SOL    HW127696   0.598   7.857   0.721
 3003SOL    HW227697   0.620   7.869   0.883
 3004SOL     OW27698   3.051   8.218   0.345
 3004SOL    HW127699   3.129   8.254   0.293
 3004SOL    HW227700   3.036   8.274   0.427
 3005SOL     OW27701   4.797   4.673   8.185
 3005SOL    HW127702   4.832   4.702   8.097
 3005SOL    HW227703   4.849   4.718   8.258
 3006SOL     OW27704   3.396   1.596   6.106
 3006SOL    HW127705   3.318   1.629   6.054
 3006SOL    HW227706   3.469   1.568   6.043
 3007SOL     OW27707   9.756   8.899   7.206
 3007SOL    HW127708   9.729   8.811   7.245
 3007SOL    HW227709   9.691   8.969   7.235
 3008SOL     OW27710   8.847   2.627   8.059
 3008SOL    HW127711   8.936   2.625   8.013
 3008SOL    HW227712   8.822   2.721   8.081
 3009SOL     OW27713   4.226   9.559   8.422
 3009SOL    HW127714   4.308   9.501   8.421
 3009SOL    HW227715   4.249   9.649   8.385
 3010SOL     OW27716   7.194   7.074   0.253
 3010SOL    HW127717   7.228   6.999   0.310
 3010SOL    HW227718   7.253   7.154   0.266
 3011SOL     OW27719   0.961   1.183   8.760
 3011SOL    HW127720   0.885   1.153   0.035
 3011SOL    HW227721   0.935   1.265   8.709
 3012SOL     OW27722   6.677   2.850   0.049
 3012SOL    HW127723   6.659   2.949   0.050
 3012SOL    HW227724   6.707   2.822   8.740
 3013SOL     OW27725   7.895   3.351   8.363
 3013SOL    HW127726   7.894   3.257   8.398
 3013SOL    HW227727   7.844   3.355   8.277
 3014SOL     OW27728   8.631   6.604   1.572
 3014SOL    HW127729   8.609   6.694   1.609
 3014SOL    HW227730   8.701   6.613   1.501
 3015SOL     OW27731   7.994   9.226   0.235
 3015SOL    HW127732   7.899   9.259   0.234
 3015SOL    HW227733   8.000   9.145   0.293
 3016SOL     OW27734   4.101   0.152   8.188
 3016SOL    HW127735   4.161   0.075   8.168
 3016SOL    HW227736   4.019   0.146   8.132
 3017SOL     OW27737   1.066   4.849   0.125
 3017SOL    HW127738   0.987   4.897   0.088
 3017SOL    HW227739   1.150   4.885   0.083
 3018SOL     OW27740   4.607  10.116   7.140
 3018SOL    HW127741   4.623  10.026   7.179
 3018SOL    HW227742   4.694  10.167   7.137
 3019SOL     OW27743   2.519   2.432   7.992
 3019SOL    HW127744   2.603   2.379   8.000
 3019SOL    HW227745   2.541   2.530   7.992
 3020SOL     OW27746   5.537   5.146   7.776
 3020SOL    HW127747   5.460   5.190   7.729
 3020SOL    HW227748   5.533   5.048   7.761
 3021SOL     OW27749   0.197   6.920   7.383
 3021SOL    HW127750   0.103   6.891   7.400
 3021SOL    HW227751   0.212   7.011   7.421
 3022SOL     OW27752   6.933   5.463   7.934
 3022SOL    HW127753   6.958   5.520   7.856
 3022SOL    HW227754   7.004   5.393   7.948
 3023SOL     OW27755   3.934   0.380   7.913
 3023SOL    HW127756   4.003   0.435   7.960
 3023SOL    HW227757   3.872   0.442   7.864
 3024SOL     OW27758   2.878   9.279   8.068
 3024SOL    HW127759   2.973   9.248   8.058
 3024SOL    HW227760   2.817   9.200   8.061
 3025SOL     OW27761   9.856   7.288   1.523
 3025SOL    HW127762   9.757   7.275   1.521
 3025SOL    HW227763   9.886   7.304   1.618
 3026SOL     OW27764   1.702   8.981   7.881
 3026SOL    HW127765   1.672   8.908   7.942
 3026SOL    HW227766   1.653   8.974   7.794
 3027SOL     OW27767   1.715   0.103   0.809
 3027SOL    HW127768   1.684   0.045   0.884
 3027SOL    HW227769   1.704   0.199   0.834
 3028SOL     OW27770   8.172   5.021   8.046
 3028SOL    HW127771   8.104   4.975   8.103
 3028SOL    HW227772   8.155   5.120   8.046
 3029SOL     OW27773   4.273   9.953   2.141
 3029SOL    HW127774   4.210   9.875   2.140
 3029SOL    HW227775   4.340   9.942   2.214
 3030SOL     OW27776   8.624   7.614   0.779
 3030SOL    HW127777   8.586   7.585   0.867
 3030SOL    HW227778   8.550   7.633   0.715
 3031SOL     OW27779   3.544   1.779   6.752
 3031SOL    HW127780   3.454   1.768   6.795
 3031SOL    HW227781   3.541   1.741   6.659
 3032SOL     OW27782   0.504   8.582   1.421
 3032SOL    HW127783   0.601   8.607   1.422
 3032SOL    HW227784   0.449   8.662   1.399
 3033SOL     OW27785   6.679   9.141   7.063
 3033SOL    HW127786   6.654   9.057   7.015
 3033SOL    HW227787   6.658   9.131   7.160
 3034SOL     OW27788   7.084   3.977   0.906
 3034SOL    HW127789   7.041   4.065   0.923
 3034SOL    HW227790   7.166   3.990   0.850
 3035SOL     OW27791   9.692   8.822   1.365
 3035SOL    HW127792   9.777   8.801   1.415
 3035SOL    HW227793   9.713   8.877   1.285
 3036SOL     OW27794   9.309   9.168   0.853
 3036SOL    HW127795   9.253   9.088   0.874
 3036SOL    HW227796   9.397   9.139   0.816
 3037SOL     OW27797   5.683   3.649   8.172
 3037SOL    HW127798   5.749   3.675   8.102
 3037SOL    HW227799   5.598   3.701   8.159
 3038SOL     OW27800   3.581   0.047   7.891
 3038SOL    HW127801   3.492   0.090   7.873
 3038SOL    HW227802   3.601   0.053   7.989
 3039SOL     OW27803   4.598   9.855   0.520
 3039SOL    HW127804   4.504   9.835   0.493
 3039SOL    HW227805   4.643   9.771   0.548
 3040SOL     OW27806   1.190   6.523   1.772
 3040SOL    HW127807   1.244   6.456   1.823
 3040SOL    HW227808   1.245   6.561   1.697
 3041SOL     OW27809   8.697   7.935   1.716
 3041SOL    HW127810   8.786   7.930   1.670
 3041SOL    HW227811   8.648   7.849   1.704
 3042SOL     OW27812   2.471   8.244   0.675
 3042SOL    HW127813   2.429   8.153   0.677
 3042SOL    HW227814   2.410   8.309   0.721
 3043SOL     OW27815   2.510   7.340   0.796
 3043SOL    HW127816   2.425   7.288   0.802
 3043SOL    HW227817   2.551   7.348   0.886
 3044SOL     OW27818   4.705   9.772   7.577
 3044SOL    HW127819   4.725   9.680   7.611
 3044SOL    HW227820   4.789   9.816   7.546
 3045SOL     OW27821   0.881   1.233   1.130
 3045SOL    HW127822   0.906   1.141   1.100
 3045SOL    HW227823   0.791   1.256   1.093
 3046SOL     OW27824   9.444   9.841   6.538
 3046SOL    HW127825   9.383   9.808   6.465
 3046SOL    HW227826   9.463   9.767   6.602
 3047SOL     OW27827   1.236   7.433   6.312
 3047SOL    HW127828   1.139   7.411   6.301
 3047SOL    HW227829   1.291   7.367   6.262
 3048SOL     OW27830   7.450   7.510   1.824
 3048SOL    HW127831   7.469   7.506   1.725
 3048SOL    HW227832   7.536   7.500   1.874
 3049SOL     OW27833   4.020   3.380   7.934
 3049SOL    HW127834   3.949   3.417   7.874
 3049SOL    HW227835   4.034   3.283   7.913
 3050SOL     OW27836   5.562   4.025   8.268
 3050SOL    HW127837   5.473   4.044   8.310
 3050SOL    HW227838   5.633   4.024   8.338
 3051SOL     OW27839   0.241   3.632   0.078
 3051SOL    HW127840   0.151   3.597   0.054
 3051SOL    HW227841   0.286   3.569   0.141
 3052SOL     OW27842   2.046   8.954   6.375
 3052SOL    HW127843   2.013   8.990   6.287
 3052SOL    HW227844   1.975   8.900   6.418
 3053SOL     OW27845   5.196   8.337   0.992
 3053SOL    HW127846   5.190   8.414   1.056
 3053SOL    HW227847   5.112   8.284   0.997
 3054SOL     OW27848   7.348   6.224   7.311
 3054SOL    HW127849   7.428   6.278   7.339
 3054SOL    HW227850   7.377   6.132   7.284
 3055SOL     OW27851   2.637   6.904   8.468
 3055SOL    HW127852   2.694   6.847   8.409
 3055SOL    HW227853   2.553   6.854   8.490
 3056SOL     OW27854   4.465   0.569   1.624
 3056SOL    HW127855   4.440   0.613   1.710
 3056SOL    HW227856   4.478   0.471   1.639
 3057SOL     OW27857   8.934  10.298   7.798
 3057SOL    HW127858   8.977  10.362   7.735
 3057SOL    HW227859   8.956  10.204   7.772
 3058SOL     OW27860   3.598   2.296   6.045
 3058SOL    HW127861   3.628   2.225   6.109
 3058SOL    HW227862   3.650   2.380   6.061
 3059SOL     OW27863   8.102   2.154   7.403
 3059SOL    HW127864   8.073   2.073   7.455
 3059SOL    HW227865   8.152   2.124   7.322
 3060SOL     OW27866   2.984  10.149   0.646
 3060SOL    HW127867   3.056  10.187   0.704
 3060SOL    HW227868   3.010  10.160   0.550
 3061SOL     OW27869   6.511   7.257   1.903
 3061SOL    HW127870   6.437   7.310   1.945
 3061SOL    HW227871   6.525   7.172   1.955
 3062SOL     OW27872   2.147   2.106   8.011
 3062SOL    HW127873   2.178   2.079   8.102
 3062SOL    HW227874   2.195   2.190   7.983
 3063SOL     OW27875   5.912   3.209   8.744
 3063SOL    HW127876   5.973   3.269   0.014
 3063SOL    HW227877   5.858   3.264   8.680
 3064SOL     OW27878   1.350   3.386   0.413
 3064SOL    HW127879   1.428   3.425   0.461
 3064SOL    HW227880   1.323   3.447   0.338
 3065SOL     OW27881   7.861   9.746   7.195
 3065SOL    HW127882   7.875   9.694   7.111
 3065SOL    HW227883   7.887   9.690   7.274
 3066SOL     OW27884   7.008   0.678   1.219
 3066SOL    HW127885   7.050   0.760   1.178
 3066SOL    HW227886   6.949   0.706   1.294
 3067SOL     OW27887   3.659   8.830   0.593
 3067SOL    HW127888   3.667   8.755   0.658
 3067SOL    HW227889   3.621   8.910   0.640
 3068SOL     OW27890   2.147   0.353   7.258
 3068SOL    HW127891   2.230   0.373   7.205
 3068SOL    HW227892   2.075   0.417   7.232
 3069SOL     OW27893   9.319   7.395   7.396
 3069SOL    HW127894   9.242   7.348   7.354
 3069SOL    HW227895   9.299   7.492   7.404
 3070SOL     OW27896   6.792   5.829   0.398
 3070SOL    HW127897   6.837   5.834   0.309
 3070SOL    HW227898   6.773   5.922   0.431
 3071SOL     OW27899   7.453   0.749   7.048
 3071SOL    HW127900   7.444   0.650   7.037
 3071SOL    HW227901   7.365   0.787   7.078
 3072SOL     OW27902   3.217   0.160   1.454
 3072SOL    HW127903   3.147   0.225   1.425
 3072SOL    HW227904   3.270   0.199   1.529
 3073SOL     OW27905   4.365   7.719   0.091
 3073SOL    HW127906   4.340   7.691   0.184
 3073SOL    HW227907   4.415   7.645   0.046
 3074SOL     OW27908   9.290   1.418   1.471
 3074SOL    HW127909   9.345   1.375   1.543
 3074SOL    HW227910   9.195   1.389   1.480
 3075SOL     OW27911   4.190  10.291   8.632
 3075SOL    HW127912   4.266  10.250   8.683
 3075SOL    HW227913   4.136  10.218   8.590
 3076SOL     OW27914   7.276   5.467   1.344
 3076SOL    HW127915   7.366   5.491   1.379
 3076SOL    HW227916   7.206   5.494   1.411
 3077SOL     OW27917   5.487   6.560   7.467
 3077SOL    HW127918   5.475   6.533   7.372
 3077SOL    HW227919   5.511   6.479   7.521
 3078SOL     OW27920   0.982   4.643   8.032
 3078SOL    HW127921   1.070   4.611   7.998
 3078SOL    HW227922   0.912   4.635   7.961
 3079SOL     OW27923   2.722   8.608   1.671
 3079SOL    HW127924   2.757   8.701   1.684
 3079SOL    HW227925   2.651   8.589   1.739
 3080SOL     OW27926   4.309   5.719   7.967
 3080SOL    HW127927   4.225   5.664   7.973
 3080SOL    HW227928   4.389   5.659   7.975
 3081SOL     OW27929   4.089   5.820   0.325
 3081SOL    HW127930   4.101   5.720   0.332
 3081SOL    HW227931   4.046   5.854   0.409
 3082SOL     OW27932   2.656   7.025   1.330
 3082SOL    HW127933   2.613   7.037   1.241
 3082SOL    HW227934   2.647   6.930   1.359
 3083SOL     OW27935   4.937   5.092   7.820
 3083SOL    HW127936   4.859   5.111   7.880
 3083SOL    HW227937   5.021   5.089   7.874
 3084SOL     OW27938   8.062   8.740   8.653
 3084SOL    HW127939   8.013   8.827   8.649
 3084SOL    HW227940   8.160   8.758   8.654
 3085SOL     OW27941   7.584   4.080   7.569
 3085SOL    HW127942   7.628   4.050   7.653
 3085SOL    HW227943   7.635   4.046   7.490
 3086SOL     OW27944   8.427   3.490   7.868
 3086SOL    HW127945   8.366   3.437   7.927
 3086SOL    HW227946   8.469   3.563   7.921
 3087SOL     OW27947   5.633   3.060   8.472
 3087SOL    HW127948   5.684   2.989   8.521
 3087SOL    HW227949   5.582   3.115   8.537
 3088SOL     OW27950   1.236   6.831   7.981
 3088SOL    HW127951   1.164   6.769   7.951
 3088SOL    HW227952   1.203   6.885   8.058
 3089SOL     OW27953   6.995   4.391   8.067
 3089SOL    HW127954   6.947   4.327   8.128
 3089SOL    HW227955   7.021   4.343   7.983
 3090SOL     OW27956   8.725   5.799   1.408
 3090SOL    HW127957   8.635   5.771   1.375
 3090SOL    HW227958   8.747   5.747   1.491
 3091SOL     OW27959   8.918   7.290   8.378
 3091SOL    HW127960   8.856   7.363   8.351
 3091SOL    HW227961   8.990   7.326   8.437
 3092SOL     OW27962   5.730   5.502   7.452
 3092SOL    HW127963   5.731   5.543   7.543
 3092SOL    HW227964   5.672   5.556   7.391
 3093SOL     OW27965   1.102   5.326   7.087
 3093SOL    HW127966   1.019   5.277   7.114
 3093SOL    HW227967   1.160   5.265   7.032
 3094SOL     OW27968   2.572   9.235   1.626
 3094SOL    HW127969   2.499   9.266   1.564
 3094SOL    HW227970   2.542   9.248   1.720
 3095SOL     OW27971   5.048   5.368   6.902
 3095SOL    HW127972   5.085   5.314   6.826
 3095SOL    HW227973   5.044   5.312   6.985
 3096SOL     OW27974   5.219   0.547   0.279
 3096SOL    HW127975   5.260   0.600   0.204
 3096SOL    HW227976   5.277   0.470   0.301
 3097SOL     OW27977   4.810   7.029   6.480
 3097SOL    HW127978   4.816   6.977   6.394
 3097SOL    HW227979   4.900   7.031   6.523
 3098SOL     OW27980   1.196   0.370   0.112
 3098SOL    HW127981   1.230   0.284   0.073
 3098SOL    HW227982   1.268   0.439   0.109
 3099SOL     OW27983   8.897   2.602   0.243
 3099SOL    HW127984   8.877   2.517   0.292
 3099SOL    HW227985   8.822   2.667   0.255
 3100SOL     OW27986   1.638   9.535   0.883
 3100SOL    HW127987   1.732   9.536   0.916
 3100SOL    HW227988   1.625   9.606   0.814
 3101SOL     OW27989   7.675   5.354   1.353
 3101SOL    HW127990   7.772   5.371   1.370
 3101SOL    HW227991   7.621   5.429   1.392
 3102SOL     OW27992   5.965   5.850   7.820
 3102SOL    HW127993   5.963   5.940   7.777
 3102SOL    HW227994   5.997   5.782   7.754
 3103SOL     OW27995   6.821   3.358   6.458
 3103SOL    HW127996   6.902   3.302   6.474
 3103SOL    HW227997   6.760   3.310   6.395
 3104SOL     OW27998   4.732   7.394   7.154
 3104SOL    HW127999   4.793   7.387   7.075
 3104SOL    HW228000   4.685   7.482   7.152
 3105SOL     OW28001   3.876   0.139   8.036
 3105SOL    HW128002   3.788   0.126   8.082
 3105SOL    HW228003   3.878   0.230   7.995
 3106SOL     OW28004   0.104   7.479   0.102
 3106SOL    HW128005   0.138   7.563   0.060
 3106SOL    HW228006   0.182   7.419   0.125
 3107SOL     OW28007   7.456   4.223   1.389
 3107SOL    HW128008   7.412   4.251   1.304
 3107SOL    HW228009   7.516   4.144   1.371
 3108SOL     OW28010   2.535  10.027   8.104
 3108SOL    HW128011   2.467  10.091   8.139
 3108SOL    HW228012   2.600  10.006   8.177
 3109SOL     OW28013   4.391   4.519   1.395
 3109SOL    HW128014   4.382   4.500   1.297
 3109SOL    HW228015   4.487   4.509   1.422
 3110SOL     OW28016   5.474   5.870   2.253
 3110SOL    HW128017   5.408   5.923   2.306
 3110SOL    HW228018   5.541   5.828   2.315
 3111SOL     OW28019   2.564   4.984   8.444
 3111SOL    HW128020   2.606   5.061   8.396
 3111SOL    HW228021   2.631   4.944   8.506
 3112SOL     OW28022   7.149   3.857   1.334
 3112SOL    HW128023   7.134   3.956   1.324
 3112SOL    HW228024   7.068   3.816   1.376
 3113SOL     OW28025   8.580   3.031   7.312
 3113SOL    HW128026   8.492   3.077   7.306
 3113SOL    HW228027   8.652   3.098   7.334
 3114SOL     OW28028   2.781   7.532   0.026
 3114SOL    HW128029   2.737   7.442   0.031
 3114SOL    HW228030   2.875   7.521   8.776
 3115SOL     OW28031   2.419   5.050   7.962
 3115SOL    HW128032   2.351   5.042   7.889
 3115SOL    HW228033   2.457   4.959   7.982
 3116SOL     OW28034   5.894   2.396   1.845
 3116SOL    HW128035   5.930   2.460   1.913
 3116SOL    HW228036   5.854   2.317   1.892
 3117SOL     OW28037   1.027  10.210   7.742
 3117SOL    HW128038   1.043  10.111   7.736
 3117SOL    HW228039   1.115  10.256   7.755
 3118SOL     OW28040   2.108   8.726   6.792
 3118SOL    HW128041   2.029   8.679   6.833
 3118SOL    HW228042   2.114   8.703   6.695
 3119SOL     OW28043   2.596   7.984   0.210
 3119SOL    HW128044   2.674   8.047   0.217
 3119SOL    HW228045   2.630   7.891   0.203
 3120SOL     OW28046   2.181   8.371   6.537
 3120SOL    HW128047   2.254   8.365   6.468
 3120SOL    HW228048   2.092   8.356   6.493
 3121SOL     OW28049   8.308   4.431   0.204
 3121SOL    HW128050   8.339   4.526   0.203
 3121SOL    HW228051   8.387   4.370   0.203
 3122SOL     OW28052   9.575   2.296   6.913
 3122SOL    HW128053   9.475   2.302   6.920
 3122SOL    HW228054   9.616   2.377   6.954
 3123SOL     OW28055   1.122   9.503   8.444
 3123SOL    HW128056   1.196   9.478   8.506
 3123SOL    HW228057   1.092   9.596   8.464
 3124SOL     OW28058   6.405   9.828   8.169
 3124SOL    HW128059   6.449   9.852   8.255
 3124SOL    HW228060   6.310   9.860   8.170
 3125SOL     OW28061   3.519   6.325   7.683
 3125SOL    HW128062   3.470   6.406   7.717
 3125SOL    HW228063   3.462   6.277   7.617
 3126SOL     OW28064   6.183   5.959   1.297
 3126SOL    HW128065   6.099   6.013   1.300
 3126SOL    HW228066   6.261   6.018   1.315
 3127SOL     OW28067   8.344   1.329   0.920
 3127SOL    HW128068   8.343   1.374   0.831
 3127SOL    HW228069   8.436   1.298   0.942
 3128SOL     OW28070   8.453   9.733   8.685
 3128SOL    HW128071   8.474   9.814   8.631
 3128SOL    HW228072   8.514   9.658   8.660
 3129SOL     OW28073   9.937   3.985   0.891
 3129SOL    HW128074   9.968   4.008   0.983
 3129SOL    HW228075   9.844   4.019   0.879
 3130SOL     OW28076   9.906   3.478   7.529
 3130SOL    HW128077   9.854   3.406   7.482
 3130SOL    HW228078   9.969   3.521   7.465
 3131SOL     OW28079   2.012   1.861   8.687
 3131SOL    HW128080   2.002   1.829   8.782
 3131SOL    HW228081   1.922   1.866   8.644
 3132SOL     OW28082   0.472   8.745   7.633
 3132SOL    HW128083   0.449   8.683   7.559
 3132SOL    HW228084   0.421   8.719   7.715
 3133SOL     OW28085   3.184   3.253   6.877
 3133SOL    HW128086   3.196   3.173   6.818
 3133SOL    HW228087   3.117   3.232   6.948
 3134SOL     OW28088   7.938  10.221   1.961
 3134SOL    HW128089   7.966  10.150   2.025
 3134SOL    HW228090   7.929  10.181   1.869
 3135SOL     OW28091   6.160  10.481   7.845
 3135SOL    HW128092   6.240  10.431   7.879
 3135SOL    HW228093   6.079  10.452   7.896
 3136SOL     OW28094   0.205   1.899   0.344
 3136SOL    HW128095   0.129   1.947   0.301
 3136SOL    HW228096   0.215   1.931   0.439
 3137SOL     OW28097   9.144   4.330   1.326
 3137SOL    HW128098   9.167   4.233   1.317
 3137SOL    HW228099   9.183   4.381   1.249
 3138SOL     OW28100   1.207   5.301   1.189
 3138SOL    HW128101   1.234   5.239   1.263
 3138SOL    HW228102   1.270   5.378   1.185
 3139SOL     OW28103   3.638   9.506   0.008
 3139SOL    HW128104   3.610   9.595   8.754
 3139SOL    HW228105   3.734   9.510   0.035
 3140SOL     OW28106   7.838   6.758   0.796
 3140SOL    HW128107   7.792   6.796   0.876
 3140SOL    HW228108   7.876   6.832   0.740
 3141SOL     OW28109   4.060   2.632   0.396
 3141SOL    HW128110   4.075   2.672   0.486
 3141SOL    HW228111   3.997   2.555   0.403
 3142SOL     OW28112   9.341   6.241   7.420
 3142SOL    HW128113   9.260   6.298   7.432
 3142SOL    HW228114   9.413   6.294   7.375
 3143SOL     OW28115   1.563   2.652   0.223
 3143SOL    HW128116   1.641   2.610   0.270
 3143SOL    HW228117   1.508   2.702   0.290
 3144SOL     OW28118   8.617   8.929   1.881
 3144SOL    HW128119   8.701   8.972   1.914
 3144SOL    HW228120   8.638   8.837   1.847
 3145SOL     OW28121   4.471   8.741   8.386
 3145SOL    HW128122   4.494   8.653   8.345
 3145SOL    HW228123   4.488   8.814   8.321
 3146SOL     OW28124   6.319   3.979   8.012
 3146SOL    HW128125   6.340   3.928   8.096
 3146SOL    HW228126   6.396   4.039   7.990
 3147SOL     OW28127   1.400   8.570   0.324
 3147SOL    HW128128   1.396   8.483   0.274
 3147SOL    HW228129   1.321   8.577   0.385
 3148SOL     OW28130   9.572   0.258   7.232
 3148SOL    HW128131   9.629   0.181   7.205
 3148SOL    HW228132   9.629   0.330   7.270
 3149SOL     OW28133   1.988   5.835   6.121
 3149SOL    HW128134   1.927   5.821   6.198
 3149SOL    HW228135   2.076   5.790   6.139
 3150SOL     OW28136   4.150   8.040   1.418
 3150SOL    HW128137   4.169   7.970   1.349
 3150SOL    HW228138   4.192   8.126   1.389
 3151SOL     OW28139   1.045   3.016   6.624
 3151SOL    HW128140   1.125   2.967   6.588
 3151SOL    HW228141   0.968   3.003   6.561
 3152SOL     OW28142   7.179   2.555   1.014
 3152SOL    HW128143   7.148   2.596   1.100
 3152SOL    HW228144   7.267   2.510   1.028
 3153SOL     OW28145   7.827   4.584   8.118
 3153SOL    HW128146   7.776   4.666   8.145
 3153SOL    HW228147   7.905   4.610   8.062
 3154SOL     OW28148   9.416   0.915   7.870
 3154SOL    HW128149   9.423   0.836   7.932
 3154SOL    HW228150   9.457   0.995   7.913
 3155SOL     OW28151   6.259   8.203   8.448
 3155SOL    HW128152   6.289   8.108   8.442
 3155SOL    HW228153   6.160   8.208   8.436
 3156SOL     OW28154   9.655   4.531   8.192
 3156SOL    HW128155   9.644   4.548   8.094
 3156SOL    HW228156   9.683   4.616   8.237
 3157SOL     OW28157   3.677   4.028   1.170
 3157SOL    HW128158   3.578   4.012   1.176
 3157SOL    HW228159   3.725   3.941   1.179
 3158SOL     OW28160   9.454   3.887   8.480
 3158SOL    HW128161   9.531   3.941   8.446
 3158SOL    HW228162   9.431   3.815   8.414
 3159SOL     OW28163   5.879   9.800   6.389
 3159SOL    HW128164   5.936   9.740   6.445
 3159SOL    HW228165   5.935   9.875   6.353
 3160SOL     OW28166   8.135   7.088   0.367
 3160SOL    HW128167   8.162   7.173   0.412
 3160SOL    HW228168   8.162   7.010   0.424
 3161SOL     OW28169   2.727   3.728   7.445
 3161SOL    HW128170   2.638   3.703   7.406
 3161SOL    HW228171   2.792   3.747   7.371
 3162SOL     OW28172   6.370   8.066   7.377
 3162SOL    HW128173   6.393   8.159   7.348
 3162SOL    HW228174   6.454   8.013   7.389
 3163SOL     OW28175   0.768   7.647   6.200
 3163SOL    HW128176   0.835   7.721   6.205
 3163SOL    HW228177   0.808   7.570   6.150
 3164SOL     OW28178   6.684   6.617   7.157
 3164SOL    HW128179   6.741   6.593   7.079
 3164SOL    HW228180   6.742   6.652   7.231
 3165SOL     OW28181   1.714   3.627   7.835
 3165SOL    HW128182   1.655   3.620   7.916
 3165SOL    HW228183   1.786   3.558   7.842
 3166SOL     OW28184   7.628   7.572   6.355
 3166SOL    HW128185   7.540   7.612   6.379
 3166SOL    HW228186   7.633   7.478   6.390
 3167SOL     OW28187   9.889   1.025   7.153
 3167SOL    HW128188   9.903   1.114   7.108
 3167SOL    HW228189   9.800   0.988   7.126
 3168SOL     OW28190   4.736  10.076   7.855
 3168SOL    HW128191   4.668  10.149   7.858
 3168SOL    HW228192   4.788  10.083   7.770
 3169SOL     OW28193   1.898   4.064   7.661
 3169SOL    HW128194   1.975   4.116   7.698
 3169SOL    HW228195   1.891   4.080   7.563
 3170SOL     OW28196   2.523   7.257   7.556
 3170SOL    HW128197   2.460   7.328   7.587
 3170SOL    HW228198   2.574   7.290   7.477
 3171SOL     OW28199   0.805   2.147   1.386
 3171SOL    HW128200   0.789   2.241   1.414
 3171SOL    HW228201   0.879   2.108   1.440
 3172SOL     OW28202   6.773   1.434   0.169
 3172SOL    HW128203   6.775   1.429   0.269
 3172SOL    HW228204   6.830   1.510   0.138
 3173SOL     OW28205   8.910   8.077   7.125
 3173SOL    HW128206   8.953   8.152   7.074
 3173SOL    HW228207   8.882   8.006   7.061
 3174SOL     OW28208   8.155   5.722   0.403
 3174SOL    HW128209   8.149   5.797   0.469
 3174SOL    HW228210   8.169   5.636   0.452
 3175SOL     OW28211   2.183   5.287   6.211
 3175SOL    HW128212   2.227   5.321   6.129
 3175SOL    HW228213   2.148   5.195   6.194
 3176SOL     OW28214   0.976   1.897   7.806
 3176SOL    HW128215   0.927   1.875   7.890
 3176SOL    HW228216   0.962   1.825   7.738
 3177SOL     OW28217   8.393   5.059   6.435
 3177SOL    HW128218   8.425   5.068   6.340
 3177SOL    HW228219   8.294   5.043   6.435
 3178SOL     OW28220   8.844   2.100   1.093
 3178SOL    HW128221   8.803   2.172   1.037
 3178SOL    HW228222   8.868   2.137   1.183
 3179SOL     OW28223   7.263   2.914   6.454
 3179SOL    HW128224   7.305   2.920   6.363
 3179SOL    HW228225   7.316   2.970   6.518
 3180SOL     OW28226   9.444   4.648   8.536
 3180SOL    HW128227   9.365   4.610   8.488
 3180SOL    HW228228   9.498   4.704   8.472
 3181SOL     OW28229   8.977   3.960   8.441
 3181SOL    HW128230   9.066   3.997   8.412
 3181SOL    HW228231   8.978   3.945   8.540
 3182SOL     OW28232   2.762   4.212   8.208
 3182SOL    HW128233   2.713   4.281   8.155
 3182SOL    HW228234   2.700   4.138   8.232
 3183SOL     OW28235   7.267   0.132   1.700
 3183SOL    HW128236   7.297   0.051   1.749
 3183SOL    HW228237   7.209   0.188   1.759
 3184SOL     OW28238   1.995   4.735   0.783
 3184SOL    HW128239   2.089   4.769   0.795
 3184SOL    HW228240   1.992   4.674   0.705
 3185SOL     OW28241   0.784   9.383   7.621
 3185SOL    HW128242   0.732   9.306   7.586
 3185SOL    HW228243   0.764   9.395   7.718
 3186SOL     OW28244   7.506   2.870   7.606
 3186SOL    HW128245   7.493   2.797   7.539
 3186SOL    HW228246   7.567   2.837   7.679
 3187SOL     OW28247   8.239   7.642   7.737
 3187SOL    HW128248   8.332   7.627   7.772
 3187SOL    HW228249   8.234   7.612   7.642
 3188SOL     OW28250   6.399   0.028   6.835
 3188SOL    HW128251   6.466   0.097   6.808
 3188SOL    HW228252   6.437  10.440   6.820
 3189SOL     OW28253   9.072   2.617   7.895
 3189SOL    HW128254   9.162   2.657   7.913
 3189SOL    HW228255   9.083   2.529   7.849
 3190SOL     OW28256   8.563   3.950   0.013
 3190SOL    HW128257   8.640   3.897   0.050
 3190SOL    HW228258   8.480   3.926   0.062
 3191SOL     OW28259   8.316   0.590   2.017
 3191SOL    HW128260   8.351   0.516   2.076
 3191SOL    HW228261   8.391   0.651   1.992
 3192SOL     OW28262  10.125   7.945   0.895
 3192SOL    HW128263  10.105   8.035   0.935
 3192SOL    HW228264  10.040   7.901   0.869
 3193SOL     OW28265   1.736   2.628   1.098
 3193SOL    HW128266   1.741   2.603   1.194
 3193SOL    HW228267   1.827   2.625   1.058
 3194SOL     OW28268   1.282   8.702   1.461
 3194SOL    HW128269   1.201   8.666   1.413
 3194SOL    HW228270   1.280   8.802   1.459
 3195SOL     OW28271   0.215   7.565   1.366
 3195SOL    HW128272   0.138   7.536   1.309
 3195SOL    HW228273   0.233   7.662   1.349
 3196SOL     OW28274   3.824   3.335   8.616
 3196SOL    HW128275   3.790   3.421   8.655
 3196SOL    HW228276   3.780   3.318   8.528
 3197SOL     OW28277   0.033   4.091   8.400
 3197SOL    HW128278  10.110   4.150   8.402
 3197SOL    HW228279   0.114   4.144   8.425
 3198SOL     OW28280   0.611  10.006   1.100
 3198SOL    HW128281   0.602  10.104   1.119
 3198SOL    HW228282   0.638   9.993   1.005
 3199SOL     OW28283   0.682   7.794   7.895
 3199SOL    HW128284   0.780   7.814   7.895
 3199SOL    HW228285   0.631   7.877   7.873
 3200SOL     OW28286   3.658   9.444   0.374
 3200SOL    HW128287   3.600   9.507   0.425
 3200SOL    HW228288   3.604   9.400   0.302
 3201SOL     OW28289   8.160   2.901   8.185
 3201SOL    HW128290   8.213   2.861   8.260
 3201SOL    HW228291   8.153   3.000   8.197
 3202SOL     OW28292   2.236   9.533   1.618
 3202SOL    HW128293   2.313   9.596   1.615
 3202SOL    HW228294   2.188   9.542   1.706
 3203SOL     OW28295   2.257   9.600   1.178
 3203SOL    HW128296   2.223   9.536   1.109
 3203SOL    HW228297   2.196   9.600   1.257
 3204SOL     OW28298   6.667   8.632   8.080
 3204SOL    HW128299   6.614   8.548   8.071
 3204SOL    HW228300   6.609   8.704   8.119
 3205SOL     OW28301   2.291   3.182   7.758
 3205SOL    HW128302   2.260   3.266   7.714
 3205SOL    HW228303   2.331   3.122   7.689
 3206SOL     OW28304   5.488   5.591   7.878
 3206SOL    HW128305   5.479   5.496   7.906
 3206SOL    HW228306   5.570   5.602   7.822
 3207SOL     OW28307   7.647   4.921   1.213
 3207SOL    HW128308   7.557   4.964   1.222
 3207SOL    HW228309   7.661   4.894   1.118
 3208SOL     OW28310   9.125   1.232   1.146
 3208SOL    HW128311   9.213   1.188   1.168
 3208SOL    HW228312   9.102   1.297   1.219
 3209SOL     OW28313   2.320   0.068   8.220
 3209SOL    HW128314   2.233   0.078   8.268
 3209SOL    HW228315   2.315   0.114   8.131
 3210SOL     OW28316   0.950   7.832   7.928
 3210SOL    HW128317   0.964   7.927   7.900
 3210SOL    HW228318   0.965   7.824   8.027
 3211SOL     OW28319   3.217   6.748   8.383
 3211SOL    HW128320   3.288   6.769   8.450
 3211SOL    HW228321   3.141   6.812   8.394
 3212SOL     OW28322   2.367   8.446   1.056
 3212SOL    HW128323   2.459   8.470   1.086
 3212SOL    HW228324   2.302   8.515   1.088
 3213SOL     OW28325   9.891   4.204   7.979
 3213SOL    HW128326   9.976   4.243   7.943
 3213SOL    HW228327   9.901   4.105   7.989
 3214SOL     OW28328   6.190   8.398   0.104
 3214SOL    HW128329   6.203   8.493   0.075
 3214SOL    HW228330   6.236   8.337   0.039
 3215SOL     OW28331   9.841   9.268   7.790
 3215SOL    HW128332   9.891   9.255   7.705
 3215SOL    HW228333   9.743   9.279   7.771
 3216SOL     OW28334   1.164   8.557   0.530
 3216SOL    HW128335   1.246   8.516   0.569
 3216SOL    HW228336   1.117   8.611   0.600
 3217SOL     OW28337   2.160   3.628   7.784
 3217SOL    HW128338   2.076   3.586   7.818
 3217SOL    HW228339   2.190   3.698   7.849
 3218SOL     OW28340   7.504   6.830   0.626
 3218SOL    HW128341   7.538   6.925   0.624
 3218SOL    HW228342   7.496   6.799   0.720
 3219SOL     OW28343   5.780   0.893   7.583
 3219SOL    HW128344   5.731   0.807   7.601
 3219SOL    HW228345   5.717   0.970   7.591
 3220SOL     OW28346   8.448   5.394   0.540
 3220SOL    HW128347   8.349   5.403   0.530
 3220SOL    HW228348   8.485   5.340   0.464
 3221SOL     OW28349   9.323   7.176   0.405
 3221SOL    HW128350   9.242   7.186   0.347
 3221SOL    HW228351   9.314   7.236   0.485
 3222SOL     OW28352   8.619   2.473   8.410
 3222SOL    HW128353   8.711   2.462   8.374
 3222SOL    HW228354   8.579   2.558   8.375
 3223SOL     OW28355   9.807  10.006   6.907
 3223SOL    HW128356   9.727   9.955   6.878
 3223SOL    HW228357   9.821  10.085   6.847
 3224SOL     OW28358   6.683   9.324   2.333
 3224SOL    HW128359   6.732   9.306   2.419
 3224SOL    HW228360   6.744   9.372   2.270
 3225SOL     OW28361   3.410   2.236   8.569
 3225SOL    HW128362   3.389   2.158   8.510
 3225SOL    HW228363   3.509   2.246   8.577
 3226SOL     OW28364   8.650  10.008   7.426
 3226SOL    HW128365   8.735  10.057   7.448
 3226SOL    HW228366   8.584  10.073   7.386
 3227SOL     OW28367   8.823   8.318   7.271
 3227SOL    HW128368   8.834   8.218   7.274
 3227SOL    HW228369   8.796   8.346   7.179
 3228SOL     OW28370   0.068   5.489   6.846
 3228SOL    HW128371   0.038   5.532   6.931
 3228SOL    HW228372   0.137   5.419   6.867
 3229SOL     OW28373   1.604   2.251   8.583
 3229SOL    HW128374   1.690   2.286   8.548
 3229SOL    HW228375   1.622   2.184   8.656
 3230SOL     OW28376   4.141  10.300   7.217
 3230SOL    HW128377   4.230  10.259   7.235
 3230SOL    HW228378   4.126  10.376   7.281
 3231SOL     OW28379   9.019   1.879   0.325
 3231SOL    HW128380   8.957   1.873   0.402
 3231SOL    HW228381   8.976   1.932   0.252
 3232SOL     OW28382   1.425   9.247   1.678
 3232SOL    HW128383   1.353   9.184   1.705
 3232SOL    HW228384   1.515   9.203   1.691
 3233SOL     OW28385   5.472   8.635   7.765
 3233SOL    HW128386   5.439   8.571   7.697
 3233SOL    HW228387   5.535   8.700   7.723
 3234SOL     OW28388   6.779   0.647   0.387
 3234SOL    HW128389   6.872   0.683   0.391
 3234SOL    HW228390   6.720   0.711   0.338
 3235SOL     OW28391   2.432   9.105   8.072
 3235SOL    HW128392   2.380   9.094   8.156
 3235SOL    HW228393   2.394   9.046   8.001
 3236SOL     OW28394   4.372   0.969   1.787
 3236SOL    HW128395   4.446   1.031   1.813
 3236SOL    HW228396   4.284   1.011   1.806
 3237SOL     OW28397   6.980   9.528   8.445
 3237SOL    HW128398   6.903   9.530   8.510
 3237SOL    HW228399   6.954   9.473   8.366
 3238SOL     OW28400   7.959   7.368   1.397
 3238SOL    HW128401   7.976   7.461   1.428
 3238SOL    HW228402   7.900   7.369   1.317
 3239SOL     OW28403   2.713   5.353   1.008
 3239SOL    HW128404   2.761   5.429   0.964
 3239SOL    HW228405   2.633   5.387   1.057
 3240SOL     OW28406   2.957   8.652   1.973
 3240SOL    HW128407   2.967   8.752   1.975
 3240SOL    HW228408   3.040   8.610   2.010
 3241SOL     OW28409   5.719   1.772   0.477
 3241SOL    HW128410   5.628   1.761   0.437
 3241SOL    HW228411   5.786   1.784   0.403
 3242SOL     OW28412   4.422   7.155   7.453
 3242SOL    HW128413   4.485   7.170   7.376
 3242SOL    HW228414   4.341   7.211   7.441
 3243SOL     OW28415   9.144   2.897   0.122
 3243SOL    HW128416   9.049   2.915   0.097
 3243SOL    HW228417   9.151   2.807   0.164
 3244SOL     OW28418   3.288   6.140   2.156
 3244SOL    HW128419   3.253   6.195   2.232
 3244SOL    HW228420   3.363   6.083   2.188
 3245SOL     OW28421   5.055   5.249   7.614
 3245SOL    HW128422   5.009   5.188   7.678
 3245SOL    HW228423   5.150   5.263   7.643
 3246SOL     OW28424   3.918   7.953   0.132
 3246SOL    HW128425   4.015   7.938   0.150
 3246SOL    HW228426   3.899   8.052   0.130
 3247SOL     OW28427   2.171   4.588   6.325
 3247SOL    HW128428   2.241   4.655   6.300
 3247SOL    HW228429   2.193   4.500   6.282
 3248SOL     OW28430   4.086   2.911   1.412
 3248SOL    HW128431   4.090   2.863   1.324
 3248SOL    HW228432   4.042   2.999   1.399
 3249SOL     OW28433   2.718   3.243   7.379
 3249SOL    HW128434   2.663   3.233   7.462
 3249SOL    HW228435   2.744   3.153   7.345
 3250SOL     OW28436   1.722   0.629   0.955
 3250SOL    HW128437   1.797   0.604   1.017
 3250SOL    HW228438   1.753   0.702   0.894
 3251SOL     OW28439  10.152   7.046   1.673
 3251SOL    HW128440   0.009   7.078   1.767
 3251SOL    HW228441   0.082   7.045   1.625
 3252SOL     OW28442   1.097   5.891   5.921
 3252SOL    HW128443   1.025   5.960   5.917
 3252SOL    HW228444   1.095   5.836   5.837
 3253SOL     OW28445   2.400   7.966   0.403
 3253SOL    HW128446   2.411   7.868   0.421
 3253SOL    HW228447   2.466   7.995   0.333
 3254SOL     OW28448   1.875   5.847   2.141
 3254SOL    HW128449   1.802   5.842   2.209
 3254SOL    HW228450   1.836   5.865   2.051
 3255SOL     OW28451   1.417   7.462   7.334
 3255SOL    HW128452   1.359   7.417   7.266
 3255SOL    HW228453   1.496   7.503   7.288
 3256SOL     OW28454   5.810   8.630   1.223
 3256SOL    HW128455   5.797   8.564   1.296
 3256SOL    HW228456   5.814   8.582   1.135
 3257SOL     OW28457   7.693   8.291   7.999
 3257SOL    HW128458   7.645   8.208   8.027
 3257SOL    HW228459   7.689   8.299   7.899
 3258SOL     OW28460   8.654  10.163   8.613
 3258SOL    HW128461   8.686  10.202   8.526
 3258SOL    HW228462   8.596  10.084   8.595
 3259SOL     OW28463   3.120   7.008   1.868
 3259SOL    HW128464   3.194   6.988   1.932
 3259SOL    HW228465   3.042   7.048   1.916
 3260SOL     OW28466   9.130   0.565   8.244
 3260SOL    HW128467   9.180   0.542   8.161
 3260SOL    HW228468   9.185   0.544   8.324
 3261SOL     OW28469   4.926   1.759   1.664
 3261SOL    HW128470   4.933   1.851   1.626
 3261SOL    HW228471   4.854   1.756   1.733
 3262SOL     OW28472   8.856   7.461   2.212
 3262SOL    HW128473   8.924   7.396   2.245
 3262SOL    HW228474   8.897   7.552   2.205
 3263SOL     OW28475   8.975   7.478   7.151
 3263SOL    HW128476   8.996   7.576   7.147
 3263SOL    HW228477   8.910   7.455   7.079
 3264SOL     OW28478   0.722   2.105   1.124
 3264SOL    HW128479   0.757   2.123   1.216
 3264SOL    HW228480   0.783   2.042   1.077
 3265SOL     OW28481   1.714   4.386   8.489
 3265SOL    HW128482   1.813   4.397   8.496
 3265SOL    HW228483   1.672   4.474   8.467
 3266SOL     OW28484   9.280   7.928   2.195
 3266SOL    HW128485   9.298   7.844   2.246
 3266SOL    HW228486   9.362   7.952   2.142
 3267SOL     OW28487   5.017   3.828   0.481
 3267SOL    HW128488   4.920   3.851   0.476
 3267SOL    HW228489   5.068   3.905   0.520
 3268SOL     OW28490   6.735   8.539   0.658
 3268SOL    HW128491   6.646   8.541   0.612
 3268SOL    HW228492   6.721   8.525   0.756
 3269SOL     OW28493   4.306   5.890   8.173
 3269SOL    HW128494   4.301   5.826   8.097
 3269SOL    HW228495   4.385   5.950   8.161
 3270SOL     OW28496   1.501   0.573   0.364
 3270SOL    HW128497   1.560   0.523   0.427
 3270SOL    HW228498   1.406   0.569   0.397
 3271SOL     OW28499   7.662   8.240   0.314
 3271SOL    HW128500   7.753   8.205   0.290
 3271SOL    HW228501   7.645   8.325   0.264
 3272SOL     OW28502   6.532   3.689   7.377
 3272SOL    HW128503   6.460   3.754   7.402
 3272SOL    HW228504   6.553   3.699   7.280
 3273SOL     OW28505   2.459   7.079   6.420
 3273SOL    HW128506   2.366   7.090   6.455
 3273SOL    HW228507   2.525   7.104   6.492
 3274SOL     OW28508   6.021   2.122   8.264
 3274SOL    HW128509   6.047   2.032   8.300
 3274SOL    HW228510   6.009   2.186   8.340
 3275SOL     OW28511   6.487  10.341   2.018
 3275SOL    HW128512   6.540  10.340   2.103
 3275SOL    HW228513   6.434  10.426   2.013
 3276SOL     OW28514   5.919   7.266   0.502
 3276SOL    HW128515   5.874   7.346   0.542
 3276SOL    HW228516   6.011   7.291   0.472
 3277SOL     OW28517   4.655   4.787   1.725
 3277SOL    HW128518   4.650   4.848   1.646
 3277SOL    HW228519   4.689   4.837   1.804
 3278SOL     OW28520   6.100   5.842   1.054
 3278SOL    HW128521   6.138   5.869   1.142
 3278SOL    HW228522   6.022   5.901   1.032
 3279SOL     OW28523   7.095   7.699   7.577
 3279SOL    HW128524   7.025   7.635   7.610
 3279SOL    HW228525   7.178   7.648   7.554
 3280SOL     OW28526   0.727   4.870   8.263
 3280SOL    HW128527   0.732   4.876   8.163
 3280SOL    HW228528   0.660   4.801   8.289
 3281SOL     OW28529   5.723   4.284   8.491
 3281SOL    HW128530   5.728   4.291   8.591
 3281SOL    HW228531   5.752   4.371   8.451
 3282SOL     OW28532   7.758   8.940   2.269
 3282SOL    HW128533   7.683   8.944   2.335
 3282SOL    HW228534   7.796   9.032   2.257
 3283SOL     OW28535   7.569   4.468   7.331
 3283SOL    HW128536   7.594   4.482   7.235
 3283SOL    HW228537   7.521   4.381   7.341
 3284SOL     OW28538   6.205   5.588   6.940
 3284SOL    HW128539   6.298   5.554   6.954
 3284SOL    HW228540   6.201   5.686   6.960
 3285SOL     OW28541   6.916   8.754   7.523
 3285SOL    HW128542   6.826   8.710   7.516
 3285SOL    HW228543   6.903   8.849   7.551
 3286SOL     OW28544   7.806   1.243   1.246
 3286SOL    HW128545   7.817   1.144   1.247
 3286SOL    HW228546   7.795   1.277   1.339
 3287SOL     OW28547   9.506   1.736   1.657
 3287SOL    HW128548   9.532   1.733   1.754
 3287SOL    HW228549   9.411   1.707   1.648
 3288SOL     OW28550   3.294   0.128   6.500
 3288SOL    HW128551   3.302   0.128   6.400
 3288SOL    HW228552   3.203   0.097   6.526
 3289SOL     OW28553   6.251   1.246   1.802
 3289SOL    HW128554   6.217   1.178   1.737
 3289SOL    HW228555   6.175   1.285   1.853
 3290SOL     OW28556   5.342   0.093   1.256
 3290SOL    HW128557   5.339   0.099   1.356
 3290SOL    HW228558   5.259   0.131   1.217
 3291SOL     OW28559   1.885   5.967   1.612
 3291SOL    HW128560   1.864   6.014   1.526
 3291SOL    HW228561   1.856   6.024   1.689
 3292SOL     OW28562   8.201   0.921   0.969
 3292SOL    HW128563   8.261   0.922   0.890
 3292SOL    HW228564   8.166   1.014   0.985
 3293SOL     OW28565   2.135   7.364   8.092
 3293SOL    HW128566   2.231   7.338   8.080
 3293SOL    HW228567   2.124   7.415   8.177
 3294SOL     OW28568   2.329   0.537   8.672
 3294SOL    HW128569   2.331   0.637   8.664
 3294SOL    HW228570   2.321   0.512   8.769
 3295SOL     OW28571   3.961   0.138   1.256
 3295SOL    HW128572   4.055   0.132   1.222
 3295SOL    HW228573   3.961   0.164   1.352
 3296SOL     OW28574   4.169   0.922   8.179
 3296SOL    HW128575   4.075   0.944   8.154
 3296SOL    HW228576   4.222   0.902   8.097
 3297SOL     OW28577   6.934   0.832   6.395
 3297SOL    HW128578   7.019   0.885   6.388
 3297SOL    HW228579   6.870   0.881   6.454
 3298SOL     OW28580   8.074   7.386   7.300
 3298SOL    HW128581   8.133   7.305   7.293
 3298SOL    HW228582   8.040   7.410   7.209
 3299SOL     OW28583   9.395   8.965   7.059
 3299SOL    HW128584   9.476   9.019   7.081
 3299SOL    HW228585   9.400   8.932   6.965
 3300SOL     OW28586   2.255   4.046   0.978
 3300SOL    HW128587   2.315   4.116   1.015
 3300SOL    HW228588   2.298   4.003   0.898
 3301SOL     OW28589   8.855   8.082   0.023
 3301SOL    HW128590   8.840   8.016   0.096
 3301SOL    HW228591   8.771   8.091   8.750
 3302SOL     OW28592   8.876   6.546   0.673
 3302SOL    HW128593   8.961   6.545   0.620
 3302SOL    HW228594   8.886   6.487   0.753
 3303SOL     OW28595   2.522   1.443   1.957
 3303SOL    HW128596   2.547   1.350   1.983
 3303SOL    HW228597   2.447   1.474   2.015
 3304SOL     OW28598   7.402   5.418   7.827
 3304SOL    HW128599   7.357   5.486   7.885
 3304SOL    HW228600   7.468   5.464   7.768
 3305SOL     OW28601   6.902   4.119   1.140
 3305SOL    HW128602   6.988   4.117   1.192
 3305SOL    HW228603   6.915   4.173   1.057
 3306SOL     OW28604   2.646   8.908   7.547
 3306SOL    HW128605   2.612   8.923   7.455
 3306SOL    HW228606   2.636   8.812   7.572
 3307SOL     OW28607   8.976   5.875   6.207
 3307SOL    HW128608   9.011   5.781   6.202
 3307SOL    HW228609   8.975   5.914   6.115
 3308SOL     OW28610   5.801   8.485   0.990
 3308SOL    HW128611   5.707   8.505   0.965
 3308SOL    HW228612   5.857   8.483   0.907
 3309SOL     OW28613   8.680   8.123   1.339
 3309SOL    HW128614   8.616   8.125   1.416
 3309SOL    HW228615   8.720   8.214   1.326
 3310SOL     OW28616   9.517   6.343   1.073
 3310SOL    HW128617   9.556   6.259   1.110
 3310SOL    HW228618   9.587   6.392   1.020
 3311SOL     OW28619   3.469   6.214   0.683
 3311SOL    HW128620   3.469   6.114   0.673
 3311SOL    HW228621   3.385   6.242   0.730
 3312SOL     OW28622   7.991   7.720   8.419
 3312SOL    HW128623   8.048   7.659   8.475
 3312SOL    HW228624   8.045   7.755   8.343
 3313SOL     OW28625   7.890   7.305   0.030
 3313SOL    HW128626   7.845   7.227   0.074
 3313SOL    HW228627   7.846   7.323   8.724
 3314SOL     OW28628   6.259   2.763   0.412
 3314SOL    HW128629   6.186   2.733   0.472
 3314SOL    HW228630   6.229   2.843   0.360
 3315SOL     OW28631   8.992   5.674   7.896
 3315SOL    HW128632   8.989   5.574   7.903
 3315SOL    HW228633   8.899   5.710   7.895
 3316SOL     OW28634   9.575   3.158   0.803
 3316SOL    HW128635   9.588   3.067   0.764
 3316SOL    HW228636   9.615   3.162   0.895
 3317SOL     OW28637   3.734   5.306   6.600
 3317SOL    HW128638   3.745   5.331   6.504
 3317SOL    HW228639   3.823   5.308   6.645
 3318SOL     OW28640   1.974  10.461   6.343
 3318SOL    HW128641   1.996  10.382   6.287
 3318SOL    HW228642   2.058   0.003   6.373
 3319SOL     OW28643   6.129   2.068   8.706
 3319SOL    HW128644   6.065   2.026   8.642
 3319SOL    HW228645   6.163   2.154   8.668
 3320SOL     OW28646   8.525   6.000   0.525
 3320SOL    HW128647   8.469   6.082   0.538
 3320SOL    HW228648   8.482   5.922   0.570
 3321SOL     OW28649   2.535   7.589   6.536
 3321SOL    HW128650   2.630   7.563   6.556
 3321SOL    HW228651   2.508   7.549   6.448
 3322SOL     OW28652   1.149   2.546   0.258
 3322SOL    HW128653   1.076   2.515   0.197
 3322SOL    HW228654   1.142   2.645   0.271
 3323SOL     OW28655   6.028   1.557   8.284
 3323SOL    HW128656   5.968   1.506   8.222
 3323SOL    HW228657   6.089   1.493   8.331
 3324SOL     OW28658   8.504   9.495   7.863
 3324SOL    HW128659   8.549   9.581   7.887
 3324SOL    HW228660   8.517   9.429   7.937
 3325SOL     OW28661   8.950   4.909   0.360
 3325SOL    HW128662   9.017   4.852   0.408
 3325SOL    HW228663   8.861   4.862   0.359
 3326SOL     OW28664   2.296   5.191   8.162
 3326SOL    HW128665   2.338   5.148   8.082
 3326SOL    HW228666   2.298   5.127   8.239
 3327SOL     OW28667   7.454   2.222   0.325
 3327SOL    HW128668   7.522   2.156   0.356
 3327SOL    HW228669   7.414   2.268   0.405
 3328SOL     OW28670   7.212   1.572   7.867
 3328SOL    HW128671   7.174   1.548   7.778
 3328SOL    HW228672   7.166   1.519   7.939
 3329SOL     OW28673   9.637   3.534   1.423
 3329SOL    HW128674   9.558   3.589   1.448
 3329SOL    HW228675   9.623   3.440   1.455
 3330SOL     OW28676   8.796   3.608   7.924
 3330SOL    HW128677   8.704   3.629   7.956
 3330SOL    HW228678   8.830   3.526   7.971
 3331SOL     OW28679   7.507   6.568   0.509
 3331SOL    HW128680   7.523   6.663   0.533
 3331SOL    HW228681   7.589   6.530   0.466
 3332SOL     OW28682   8.047   5.360   7.216
 3332SOL    HW128683   8.115   5.375   7.288
 3332SOL    HW228684   8.017   5.448   7.180
 3333SOL     OW28685   9.042   8.297   1.400
 3333SOL    HW128686   9.039   8.331   1.494
 3333SOL    HW228687   9.015   8.201   1.399
 3334SOL     OW28688   5.430   5.163   7.275
 3334SOL    HW128689   5.493   5.179   7.351
 3334SOL    HW228690   5.335   5.170   7.308
 3335SOL     OW28691   0.561   3.580   7.325
 3335SOL    HW128692   0.599   3.498   7.280
 3335SOL    HW228693   0.464   3.567   7.342
 3336SOL     OW28694   8.507   2.118   8.058
 3336SOL    HW128695   8.456   2.146   8.139
 3336SOL    HW228696   8.602   2.147   8.066
 3337SOL     OW28697   2.158   8.639   6.259
 3337SOL    HW128698   2.170   8.540   6.249
 3337SOL    HW228699   2.224   8.687   6.201
 3338SOL     OW28700   4.418   9.570   1.218
 3338SOL    HW128701   4.403   9.473   1.201
 3338SOL    HW228702   4.361   9.600   1.295
 3339SOL     OW28703   6.830   9.061   8.262
 3339SOL    HW128704   6.779   9.077   8.177
 3339SOL    HW228705   6.792   8.981   8.308
 3340SOL     OW28706   3.921   4.657   1.525
 3340SOL    HW128707   3.998   4.602   1.559
 3340SOL    HW228708   3.954   4.723   1.458
 3341SOL     OW28709   0.288   4.667   8.453
 3341SOL    HW128710   0.237   4.607   8.514
 3341SOL    HW228711   0.276   4.762   8.481
 3342SOL     OW28712   0.879   4.841   0.467
 3342SOL    HW128713   0.975   4.863   0.456
 3342SOL    HW228714   0.836   4.833   0.377
 3343SOL     OW28715   1.908   2.999   8.497
 3343SOL    HW128716   1.901   2.947   8.582
 3343SOL    HW228717   1.824   2.988   8.444
 3344SOL     OW28718   4.335   6.683   6.708
 3344SOL    HW128719   4.335   6.695   6.609
 3344SOL    HW228720   4.365   6.590   6.731
 3345SOL     OW28721   1.134   0.665   8.489
 3345SOL    HW128722   1.056   0.628   8.540
 3345SOL    HW228723   1.106   0.686   8.395
 3346SOL     OW28724   8.612   5.198   0.911
 3346SOL    HW128725   8.661   5.269   0.962
 3346SOL    HW228726   8.567   5.136   0.975
 3347SOL     OW28727   5.653   9.072   7.274
 3347SOL    HW128728   5.714   9.020   7.334
 3347SOL    HW228729   5.687   9.165   7.264
 3348SOL     OW28730   3.119   8.231   8.728
 3348SOL    HW128731   3.142   8.199   8.636
 3348SOL    HW228732   3.076   8.321   8.722
 3349SOL     OW28733   7.790   5.697   6.735
 3349SOL    HW128734   7.773   5.681   6.638
 3349SOL    HW228735   7.722   5.650   6.790
 3350SOL     OW28736   2.508   0.541   0.468
 3350SOL    HW128737   2.447   0.614   0.500
 3350SOL    HW228738   2.455   0.458   0.451
 3351SOL     OW28739   3.094   2.974   8.184
 3351SOL    HW128740   3.160   3.021   8.244
 3351SOL    HW228741   3.129   2.884   8.159
 3352SOL     OW28742   9.143   9.978   8.486
 3352SOL    HW128743   9.085  10.059   8.496
 3352SOL    HW228744   9.220  10.000   8.427
 3353SOL     OW28745   3.881   2.604   0.031
 3353SOL    HW128746   3.908   2.643   8.724
 3353SOL    HW228747   3.955   2.547   0.066
 3354SOL     OW28748   0.096   9.386   1.831
 3354SOL    HW128749   0.190   9.391   1.866
 3354SOL    HW228750   0.089   9.439   1.746
 3355SOL     OW28751   4.667   5.049   8.719
 3355SOL    HW128752   4.746   5.075   8.775
 3355SOL    HW228753   4.584   5.054   8.775
 3356SOL     OW28754   5.542   3.614   1.246
 3356SOL    HW128755   5.563   3.702   1.202
 3356SOL    HW228756   5.472   3.566   1.194
 3357SOL     OW28757   3.002   0.069   1.600
 3357SOL    HW128758   3.012   0.099   1.695
 3357SOL    HW228759   3.084   0.092   1.548
 3358SOL     OW28760   8.831   7.439   6.922
 3358SOL    HW128761   8.791   7.349   6.905
 3358SOL    HW228762   8.896   7.461   6.849
 3359SOL     OW28763   9.524   8.607   8.143
 3359SOL    HW128764   9.498   8.520   8.187
 3359SOL    HW228765   9.560   8.669   8.213
 3360SOL     OW28766   1.348   5.800   0.323
 3360SOL    HW128767   1.290   5.834   0.397
 3360SOL    HW228768   1.432   5.762   0.361
 3361SOL     OW28769   4.145   5.584   7.382
 3361SOL    HW128770   4.090   5.619   7.306
 3361SOL    HW228771   4.229   5.544   7.348
 3362SOL     OW28772   6.898   3.121   1.321
 3362SOL    HW128773   6.940   3.115   1.231
 3362SOL    HW228774   6.809   3.075   1.321
 3363SOL     OW28775   5.220   4.230   8.530
 3363SOL    HW128776   5.204   4.194   8.439
 3363SOL    HW228777   5.293   4.177   8.575
 3364SOL     OW28778   4.963   0.505   0.183
 3364SOL    HW128779   4.964   0.436   0.111
 3364SOL    HW228780   5.056   0.517   0.218
 3365SOL     OW28781   3.320   6.961   2.047
 3365SOL    HW128782   3.314   6.878   2.102
 3365SOL    HW228783   3.359   7.035   2.102
 3366SOL     OW28784  10.000  10.290   6.977
 3366SOL    HW128785   9.983  10.259   7.070
 3366SOL    HW228786   9.921  10.268   6.920
 3367SOL     OW28787   6.506   7.322   7.295
 3367SOL    HW128788   6.458   7.372   7.368
 3367SOL    HW228789   6.600   7.354   7.289
 3368SOL     OW28790   0.822   3.551   1.161
 3368SOL    HW128791   0.773   3.528   1.244
 3368SOL    HW228792   0.761   3.597   1.097
 3369SOL     OW28793   3.828   8.242   8.182
 3369SOL    HW128794   3.858   8.266   8.275
 3369SOL    HW228795   3.904   8.201   8.132
 3370SOL     OW28796   3.416   9.863   7.054
 3370SOL    HW128797   3.440   9.802   7.129
 3370SOL    HW228798   3.437   9.957   7.080
 3371SOL     OW28799   4.894   6.345   8.721
 3371SOL    HW128800   4.884   6.373   8.625
 3371SOL    HW228801   4.931   6.421   8.774
 3372SOL     OW28802   6.797   0.971   0.425
 3372SOL    HW128803   6.867   0.908   0.459
 3372SOL    HW228804   6.769   1.033   0.498
 3373SOL     OW28805   4.121   3.125   2.011
 3373SOL    HW128806   4.133   3.026   2.005
 3373SOL    HW228807   4.095   3.150   2.104
 3374SOL     OW28808   0.080   3.412   8.013
 3374SOL    HW128809  10.146   3.405   7.974
 3374SOL    HW228810   0.073   3.417   8.113
 3375SOL     OW28811   6.013   0.103   1.287
 3375SOL    HW128812   6.092   0.147   1.329
 3375SOL    HW228813   5.968   0.044   1.353
 3376SOL     OW28814   6.114  10.025   6.583
 3376SOL    HW128815   6.210  10.053   6.595
 3376SOL    HW228816   6.093  10.019   6.485
 3377SOL     OW28817   3.714   5.539   7.720
 3377SOL    HW128818   3.643   5.589   7.770
 3377SOL    HW228819   3.713   5.566   7.624
 3378SOL     OW28820   0.308   6.183   8.325
 3378SOL    HW128821   0.270   6.092   8.304
 3378SOL    HW228822   0.266   6.218   8.408
 3379SOL     OW28823   2.310   3.802   7.933
 3379SOL    HW128824   2.391   3.784   7.877
 3379SOL    HW228825   2.330   3.784   8.029
 3380SOL     OW28826   3.063   5.764   2.283
 3380SOL    HW128827   3.162   5.765   2.278
 3380SOL    HW228828   3.031   5.840   2.339
 3381SOL     OW28829   3.282   4.948   1.175
 3381SOL    HW128830   3.231   4.939   1.261
 3381SOL    HW228831   3.229   5.004   1.112
 3382SOL     OW28832   9.012   3.933   0.728
 3382SOL    HW128833   9.105   3.960   0.700
 3382SOL    HW228834   8.982   3.855   0.674
 3383SOL     OW28835   3.270  10.120   8.683
 3383SOL    HW128836   3.196  10.119   8.750
 3383SOL    HW228837   3.349  10.168   8.720
 3384SOL     OW28838   3.471   5.940   7.885
 3384SOL    HW128839   3.406   5.976   7.818
 3384SOL    HW228840   3.426   5.932   7.974
 3385SOL     OW28841   3.039   6.128   7.109
 3385SOL    HW128842   3.056   6.059   7.179
 3385SOL    HW228843   3.125   6.154   7.066
 3386SOL     OW28844   0.130   7.814   6.346
 3386SOL    HW128845   0.081   7.735   6.311
 3386SOL    HW228846   0.186   7.854   6.274
 3387SOL     OW28847   8.424   7.708   0.616
 3387SOL    HW128848   8.465   7.799   0.609
 3387SOL    HW228849   8.403   7.674   0.525
 3388SOL     OW28850   8.222   3.841   1.182
 3388SOL    HW128851   8.130   3.802   1.174
 3388SOL    HW228852   8.215   3.940   1.195
 3389SOL     OW28853   0.776   5.845   6.963
 3389SOL    HW128854   0.735   5.850   6.872
 3389SOL    HW228855   0.865   5.891   6.962
 3390SOL     OW28856   8.537   0.655   0.446
 3390SOL    HW128857   8.440   0.642   0.426
 3390SOL    HW228858   8.547   0.694   0.538
 3391SOL     OW28859   4.267   8.491   0.523
 3391SOL    HW128860   4.185   8.484   0.467
 3391SOL    HW228861   4.289   8.588   0.538
 3392SOL     OW28862   7.547   3.040   1.775
 3392SOL    HW128863   7.633   3.052   1.824
 3392SOL    HW228864   7.476   3.095   1.820
 3393SOL     OW28865   4.192   8.302   8.456
 3393SOL    HW128866   4.237   8.368   8.515
 3393SOL    HW228867   4.227   8.210   8.476
 3394SOL     OW28868   6.762   5.700   1.368
 3394SOL    HW128869   6.719   5.638   1.433
 3394SOL    HW228870   6.810   5.773   1.418
 3395SOL     OW28871   0.704   1.331   6.530
 3395SOL    HW128872   0.608   1.358   6.543
 3395SOL    HW228873   0.748   1.319   6.619
 3396SOL     OW28874   8.448   0.568   7.838
 3396SOL    HW128875   8.450   0.525   7.748
 3396SOL    HW228876   8.386   0.517   7.897
 3397SOL     OW28877   5.184   5.083   7.945
 3397SOL    HW128878   5.198   5.038   8.034
 3397SOL    HW228879   5.233   5.170   7.944
 3398SOL     OW28880   0.993   5.140   7.561
 3398SOL    HW128881   1.031   5.096   7.479
 3398SOL    HW228882   1.025   5.091   7.642
 3399SOL     OW28883   3.205   8.903   7.119
 3399SOL    HW128884   3.234   8.895   7.214
 3399SOL    HW228885   3.232   8.992   7.083
 3400SOL     OW28886   5.512   8.168   7.612
 3400SOL    HW128887   5.418   8.184   7.582
 3400SOL    HW228888   5.523   8.201   7.706
 3401SOL     OW28889   9.598   1.840   8.467
 3401SOL    HW128890   9.585   1.834   8.566
 3401SOL    HW228891   9.534   1.778   8.422
 3402SOL     OW28892   9.065   4.795   8.136
 3402SOL    HW128893   9.152   4.820   8.093
 3402SOL    HW228894   9.056   4.841   8.224
 3403SOL     OW28895   4.967   9.947   8.300
 3403SOL    HW128896   4.984   9.893   8.383
 3403SOL    HW228897   5.049   9.948   8.244
 3404SOL     OW28898   2.440   2.271   8.607
 3404SOL    HW128899   2.508   2.271   8.680
 3404SOL    HW228900   2.420   2.365   8.581
 3405SOL     OW28901   7.678   4.166   0.866
 3405SOL    HW128902   7.690   4.261   0.895
 3405SOL    HW228903   7.678   4.161   0.766
 3406SOL     OW28904   8.387  10.301   7.038
 3406SOL    HW128905   8.325  10.372   7.005
 3406SOL    HW228906   8.481  10.324   7.012
 3407SOL     OW28907   5.654   1.113   0.849
 3407SOL    HW128908   5.748   1.149   0.851
 3407SOL    HW228909   5.598   1.163   0.915
 3408SOL     OW28910   7.376   2.897   2.430
 3408SOL    HW128911   7.281   2.873   2.410
 3408SOL    HW228912   7.378   2.985   2.479
 3409SOL     OW28913   4.429   8.932   6.927
 3409SOL    HW128914   4.497   8.970   6.865
 3409SOL    HW228915   4.454   8.838   6.951
 3410SOL     OW28916   4.299  10.166   6.254
 3410SOL    HW128917   4.200  10.169   6.270
 3410SOL    HW228918   4.320  10.094   6.189
 3411SOL     OW28919   3.645   0.200   8.606
 3411SOL    HW128920   3.584   0.244   8.671
 3411SOL    HW228921   3.707   0.268   8.566
 3412SOL     OW28922   7.141   3.969   8.286
 3412SOL    HW128923   7.071   4.002   8.349
 3412SOL    HW228924   7.104   3.894   8.230
 3413SOL     OW28925   0.086   3.823   7.757
 3413SOL    HW128926   0.121   3.898   7.813
 3413SOL    HW228927   0.126   3.737   7.788
 3414SOL     OW28928   9.641  10.368   7.044
 3414SOL    HW128929   9.678  10.283   7.082
 3414SOL    HW228930   9.546  10.353   7.016
 3415SOL     OW28931   0.837   0.470   8.217
 3415SOL    HW128932   0.891   0.507   8.141
 3415SOL    HW228933   0.743   0.503   8.210
 3416SOL     OW28934   1.809   2.210   6.900
 3416SOL    HW128935   1.732   2.204   6.836
 3416SOL    HW228936   1.884   2.259   6.858
 3417SOL     OW28937   4.852   6.857   6.269
 3417SOL    HW128938   4.933   6.891   6.221
 3417SOL    HW228939   4.814   6.780   6.218
 3418SOL     OW28940   1.116   9.421   7.779
 3418SOL    HW128941   1.075   9.331   7.791
 3418SOL    HW228942   1.094   9.478   7.858
 3419SOL     OW28943   1.686   1.745   0.166
 3419SOL    HW128944   1.609   1.750   0.102
 3419SOL    HW228945   1.757   1.810   0.138
 3420SOL     OW28946   2.761   9.420   7.856
 3420SOL    HW128947   2.804   9.374   7.934
 3420SOL    HW228948   2.746   9.516   7.879
 3421SOL     OW28949   7.425   3.185   6.333
 3421SOL    HW128950   7.413   3.099   6.284
 3421SOL    HW228951   7.361   3.253   6.296
 3422SOL     OW28952   9.987   1.958   7.441
 3422SOL    HW128953   9.975   1.927   7.536
 3422SOL    HW228954  10.075   1.925   7.407
 3423SOL     OW28955   8.221   2.447   1.496
 3423SOL    HW128956   8.230   2.351   1.522
 3423SOL    HW228957   8.130   2.463   1.457
 3424SOL     OW28958   7.966   2.975   0.104
 3424SOL    HW128959   7.977   2.995   0.201
 3424SOL    HW228960   7.956   3.061   0.054
 3425SOL     OW28961   5.757   5.585   8.486
 3425SOL    HW128962   5.693   5.662   8.486
 3425SOL    HW228963   5.765   5.547   8.394
 3426SOL     OW28964   3.135   8.006   1.421
 3426SOL    HW128965   3.155   7.928   1.482
 3426SOL    HW228966   3.039   8.004   1.396
 3427SOL     OW28967   8.484   8.630   1.499
 3427SOL    HW128968   8.449   8.607   1.590
 3427SOL    HW228969   8.502   8.729   1.493
 3428SOL     OW28970   4.066   5.601   8.034
 3428SOL    HW128971   4.017   5.683   8.062
 3428SOL    HW228972   4.003   5.539   7.987
 3429SOL     OW28973   2.218  10.412   7.071
 3429SOL    HW128974   2.185  10.394   7.164
 3429SOL    HW228975   2.161  10.362   7.006
 3430SOL     OW28976   5.545   9.532   0.692
 3430SOL    HW128977   5.593   9.515   0.778
 3430SOL    HW228978   5.609   9.525   0.616
 3431SOL     OW28979   1.004   4.519   1.361
 3431SOL    HW128980   1.030   4.423   1.343
 3431SOL    HW228981   0.967   4.526   1.454
 3432SOL     OW28982   7.589   4.346   6.243
 3432SOL    HW128983   7.503   4.359   6.194
 3432SOL    HW228984   7.589   4.256   6.288
 3433SOL     OW28985   2.786   2.853   0.198
 3433SOL    HW128986   2.811   2.825   0.291
 3433SOL    HW228987   2.693   2.890   0.198
 3434SOL     OW28988   2.359   8.207   1.195
 3434SOL    HW128989   2.359   8.282   1.129
 3434SOL    HW228990   2.388   8.241   1.284
 3435SOL     OW28991   7.717   2.637   8.774
 3435SOL    HW128992   7.659   2.717   0.006
 3435SOL    HW228993   7.679   2.559   0.042
 3436SOL     OW28994   6.279   3.330   0.230
 3436SOL    HW128995   6.321   3.420   0.219
 3436SOL    HW228996   6.290   3.300   0.325
 3437SOL     OW28997   0.878   1.558   1.651
 3437SOL    HW128998   0.858   1.510   1.566
 3437SOL    HW228999   0.900   1.491   1.722
 3438SOL     OW29000   2.541   6.768   0.309
 3438SOL    HW129001   2.622   6.772   0.251
 3438SOL    HW229002   2.566   6.783   0.404
 3439SOL     OW29003   0.465   5.244   7.573
 3439SOL    HW129004   0.475   5.336   7.612
 3439SOL    HW229005   0.368   5.220   7.569
 3440SOL     OW29006   2.341   3.423   7.355
 3440SOL    HW129007   2.256   3.401   7.306
 3440SOL    HW229008   2.419   3.394   7.301
 3441SOL     OW29009   5.686   9.994   0.806
 3441SOL    HW129010   5.701  10.015   0.710
 3441SOL    HW229011   5.771   9.962   0.848
 3442SOL     OW29012   1.649   8.785   8.070
 3442SOL    HW129013   1.726   8.733   8.105
 3442SOL    HW229014   1.564   8.733   8.083
 3443SOL     OW29015   9.957   5.153   7.921
 3443SOL    HW129016   9.939   5.245   7.956
 3443SOL    HW229017   9.902   5.087   7.972
 3444SOL     OW29018   8.939   0.347   1.097
 3444SOL    HW129019   8.942   0.319   1.193
 3444SOL    HW229020   8.922   0.446   1.092
 3445SOL     OW29021   2.944   5.260   1.131
 3445SOL    HW129022   2.859   5.281   1.083
 3445SOL    HW229023   2.967   5.333   1.195
 3446SOL     OW29024   8.844   5.781   1.067
 3446SOL    HW129025   8.891   5.818   1.147
 3446SOL    HW229026   8.908   5.780   0.989
 3447SOL     OW29027   3.156   1.100   8.148
 3447SOL    HW129028   3.097   1.155   8.088
 3447SOL    HW229029   3.205   1.160   8.211
 3448SOL     OW29030   3.549   6.760   0.320
 3448SOL    HW129031   3.497   6.831   0.368
 3448SOL    HW229032   3.593   6.801   0.240
 3449SOL     OW29033   6.844   6.763   0.396
 3449SOL    HW129034   6.809   6.790   0.307
 3449SOL    HW229035   6.802   6.818   0.468
 3450SOL     OW29036   7.958   5.321   0.111
 3450SOL    HW129037   7.987   5.293   0.019
 3450SOL    HW229038   8.014   5.398   0.142
 3451SOL     OW29039   3.219   1.121   0.302
 3451SOL    HW129040   3.160   1.068   0.363
 3451SOL    HW229041   3.263   1.060   0.236
 3452SOL     OW29042   1.318   7.329   7.107
 3452SOL    HW129043   1.300   7.393   7.033
 3452SOL    HW229044   1.238   7.270   7.121
 3453SOL     OW29045   6.155   6.852   1.092
 3453SOL    HW129046   6.241   6.883   1.130
 3453SOL    HW229047   6.165   6.758   1.059
 3454SOL     OW29048   8.533   3.246   8.142
 3454SOL    HW129049   8.477   3.318   8.185
 3454SOL    HW229050   8.500   3.229   8.049
 3455SOL     OW29051   2.669  10.145   7.895
 3455SOL    HW129052   2.703  10.231   7.933
 3455SOL    HW229053   2.616  10.096   7.965
 3456SOL     OW29054   6.542  10.363   0.214
 3456SOL    HW129055   6.596  10.333   0.135
 3456SOL    HW229056   6.528  10.461   0.209
 3457SOL     OW29057   3.289   1.801   7.418
 3457SOL    HW129058   3.353   1.801   7.341
 3457SOL    HW229059   3.327   1.747   7.493
 3458SOL     OW29060   2.167   1.653   0.299
 3458SOL    HW129061   2.195   1.557   0.298
 3458SOL    HW229062   2.125   1.675   0.387
 3459SOL     OW29063   0.629   7.083   7.381
 3459SOL    HW129064   0.592   7.080   7.289
 3459SOL    HW229065   0.646   6.990   7.414
 3460SOL     OW29066   4.368   8.510   0.104
 3460SOL    HW129067   4.455   8.558   0.096
 3460SOL    HW229068   4.373   8.443   0.178
 3461SOL     OW29069   8.694   9.003   1.060
 3461SOL    HW129070   8.778   9.045   1.095
 3461SOL    HW229071   8.716   8.916   1.015
 3462SOL     OW29072   0.622   2.930   8.227
 3462SOL    HW129073   0.540   2.935   8.284
 3462SOL    HW229074   0.697   2.979   8.272
 3463SOL     OW29075   6.130   1.973   0.471
 3463SOL    HW129076   6.052   1.987   0.410
 3463SOL    HW229077   6.212   2.010   0.428
 3464SOL     OW29078   1.719   2.716   7.526
 3464SOL    HW129079   1.718   2.656   7.446
 3464SOL    HW229080   1.676   2.669   7.603
 3465SOL     OW29081   5.705  10.231   1.189
 3465SOL    HW129082   5.673  10.315   1.232
 3465SOL    HW229083   5.701  10.240   1.090
 3466SOL     OW29084   6.219   5.311   7.714
 3466SOL    HW129085   6.143   5.346   7.659
 3466SOL    HW229086   6.303   5.311   7.659
 3467SOL     OW29087   9.990   5.028   6.847
 3467SOL    HW129088  10.005   5.126   6.830
 3467SOL    HW229089  10.035   4.975   6.775
 3468SOL     OW29090   7.571   6.030   0.528
 3468SOL    HW129091   7.483   6.066   0.560
 3468SOL    HW229092   7.629   6.009   0.607
 3469SOL     OW29093   2.828   6.284   7.188
 3469SOL    HW129094   2.908   6.230   7.162
 3469SOL    HW229095   2.794   6.252   7.276
 3470SOL     OW29096   7.559   7.411   0.464
 3470SOL    HW129097   7.555   7.484   0.532
 3470SOL    HW229098   7.650   7.369   0.465
 3471SOL     OW29099   0.110   0.867   7.600
 3471SOL    HW129100   0.060   0.953   7.614
 3471SOL    HW229101   0.049   0.800   7.558
 3472SOL     OW29102   8.232  10.338   1.403
 3472SOL    HW129103   8.197  10.334   1.496
 3472SOL    HW229104   8.251  10.433   1.378
 3473SOL     OW29105   8.907   1.439   1.723
 3473SOL    HW129106   8.916   1.386   1.808
 3473SOL    HW229107   8.914   1.536   1.743
 3474SOL     OW29108   1.117   6.545   6.553
 3474SOL    HW129109   1.208   6.581   6.534
 3474SOL    HW229110   1.057   6.560   6.474
 3475SOL     OW29111   1.310  10.299   8.525
 3475SOL    HW129112   1.410  10.293   8.520
 3475SOL    HW229113   1.279  10.261   8.612
 3476SOL     OW29114   0.824   5.856   6.238
 3476SOL    HW129115   0.855   5.787   6.172
 3476SOL    HW229116   0.761   5.919   6.193
 3477SOL     OW29117   0.346   9.169   2.102
 3477SOL    HW129118   0.261   9.128   2.133
 3477SOL    HW229119   0.422   9.105   2.116
 3478SOL     OW29120   8.479   2.527   6.754
 3478SOL    HW129121   8.501   2.533   6.657
 3478SOL    HW229122   8.500   2.615   6.798
 3479SOL     OW29123   3.929   8.775   8.740
 3479SOL    HW129124   3.879   8.757   0.043
 3479SOL    HW229125   4.027   8.761   8.755
 3480SOL     OW29126   7.386   3.266   0.102
 3480SOL    HW129127   7.425   3.285   0.012
 3480SOL    HW229128   7.362   3.169   0.109
 3481SOL     OW29129   9.983   1.757   8.155
 3481SOL    HW129130   9.998   1.743   8.057
 3481SOL    HW229131  10.062   1.725   8.207
 3482SOL     OW29132   4.349   4.075   1.068
 3482SOL    HW129133   4.264   4.086   1.016
 3482SOL    HW229134   4.327   4.047   1.161
 3483SOL     OW29135   4.476   9.555   1.808
 3483SOL    HW129136   4.545   9.558   1.881
 3483SOL    HW229137   4.400   9.615   1.831
 3484SOL     OW29138   1.859   4.670   8.661
 3484SOL    HW129139   1.908   4.599   8.610
 3484SOL    HW229140   1.925   4.729   8.707
 3485SOL     OW29141   7.053   1.783   2.256
 3485SOL    HW129142   7.111   1.826   2.187
 3485SOL    HW229143   7.106   1.768   2.340
 3486SOL     OW29144   3.451   3.288   1.236
 3486SOL    HW129145   3.410   3.215   1.182
 3486SOL    HW229146   3.383   3.358   1.255
 3487SOL     OW29147   3.319   3.071   8.316
 3487SOL    HW129148   3.304   3.001   8.385
 3487SOL    HW229149   3.407   3.116   8.332
 3488SOL     OW29150   5.386   9.933   0.420
 3488SOL    HW129151   5.461   9.954   0.357
 3488SOL    HW229152   5.423   9.897   0.505
 3489SOL     OW29153   7.798   0.460   2.554
 3489SOL    HW129154   7.863   0.534   2.540
 3489SOL    HW229155   7.787   0.444   2.652
 3490SOL     OW29156   7.973   6.019   0.101
 3490SOL    HW129157   7.988   6.056   0.192
 3490SOL    HW229158   8.062   5.999   0.058
 3491SOL     OW29159   1.169   7.061   1.421
 3491SOL    HW129160   1.185   6.965   1.443
 3491SOL    HW229161   1.075   7.073   1.389
 3492SOL     OW29162   1.602   7.281   2.046
 3492SOL    HW129163   1.608   7.183   2.024
 3492SOL    HW229164   1.679   7.306   2.104
 3493SOL     OW29165   9.710   5.185   8.577
 3493SOL    HW129166   9.780   5.254   8.558
 3493SOL    HW229167   9.755   5.101   8.608
 3494SOL     OW29168   3.181   4.734   7.696
 3494SOL    HW129169   3.279   4.718   7.702
 3494SOL    HW229170   3.159   4.824   7.733
 3495SOL     OW29171   4.297   6.691   7.554
 3495SOL    HW129172   4.376   6.679   7.615
 3495SOL    HW229173   4.322   6.755   7.480
 3496SOL     OW29174   6.927   8.566   1.034
 3496SOL    HW129175   6.843   8.557   0.981
 3496SOL    HW229176   6.943   8.481   1.085
 3497SOL     OW29177   9.435   2.266   7.582
 3497SOL    HW129178   9.378   2.345   7.561
 3497SOL    HW229179   9.514   2.266   7.521
 3498SOL     OW29180   4.100  10.021   1.101
 3498SOL    HW129181   4.033   9.952   1.071
 3498SOL    HW229182   4.163   9.979   1.167
 3499SOL     OW29183   9.132   6.820   0.424
 3499SOL    HW129184   9.200   6.865   0.366
 3499SOL    HW229185   9.135   6.860   0.515
 3500SOL     OW29186   7.307   3.912   1.656
 3500SOL    HW129187   7.289   3.828   1.708
 3500SOL    HW229188   7.348   3.889   1.568
 3501SOL     OW29189   6.512   1.550   1.031
 3501SOL    HW129190   6.475   1.491   0.959
 3501SOL    HW229191   6.545   1.495   1.107
 3502SOL     OW29192   0.184   5.015   7.201
 3502SOL    HW129193   0.120   5.073   7.253
 3502SOL    HW229194   0.197   4.928   7.249
 3503SOL     OW29195   2.505   3.028   0.698
 3503SOL    HW129196   2.604   3.017   0.692
 3503SOL    HW229197   2.462   2.938   0.706
 3504SOL     OW29198   5.106   7.603   0.521
 3504SOL    HW129199   5.138   7.526   0.465
 3504SOL    HW229200   5.059   7.669   0.463
 3505SOL     OW29201   6.815   4.489   7.245
 3505SOL    HW129202   6.719   4.462   7.254
 3505SOL    HW229203   6.829   4.577   7.291
 3506SOL     OW29204   1.275   4.085   1.008
 3506SOL    HW129205   1.273   4.080   0.908
 3506SOL    HW229206   1.337   4.158   1.037
 3507SOL     OW29207   2.922   9.640   8.556
 3507SOL    HW129208   2.964   9.562   8.602
 3507SOL    HW229209   2.828   9.618   8.530
 3508SOL     OW29210   9.139   7.945   0.856
 3508SOL    HW129211   9.195   7.865   0.838
 3508SOL    HW229212   9.199   8.025   0.869
 3509SOL     OW29213   3.892   2.072   8.602
 3509SOL    HW129214   3.968   2.136   8.600
 3509SOL    HW229215   3.896   2.017   8.685
 3510SOL     OW29216   7.878   6.566   8.419
 3510SOL    HW129217   7.794   6.606   8.381
 3510SOL    HW229218   7.915   6.628   8.488
 3511SOL     OW29219   0.281  10.190   1.892
 3511SOL    HW129220   0.303  10.104   1.939
 3511SOL    HW229221   0.258  10.260   1.958
 3512SOL     OW29222   6.563   5.635   0.104
 3512SOL    HW129223   6.467   5.663   0.106
 3512SOL    HW229224   6.598   5.627   0.198
 3513SOL     OW29225   6.302   5.152   8.100
 3513SOL    HW129226   6.255   5.143   8.188
 3513SOL    HW229227   6.238   5.131   8.026
 3514SOL     OW29228   8.787   1.709   1.308
 3514SOL    HW129229   8.761   1.778   1.240
 3514SOL    HW229230   8.704   1.664   1.342
 3515SOL     OW29231   2.814   4.275   0.015
 3515SOL    HW129232   2.891   4.323   0.058
 3515SOL    HW229233   2.840   4.246   8.705
 3516SOL     OW29234   5.257   8.239   7.558
 3516SOL    HW129235   5.210   8.166   7.508
 3516SOL    HW229236   5.193   8.284   7.619
 3517SOL     OW29237   5.554   6.467   8.338
 3517SOL    HW129238   5.626   6.416   8.290
 3517SOL    HW229239   5.532   6.420   8.423
 3518SOL     OW29240   8.627   6.292   6.965
 3518SOL    HW129241   8.571   6.213   6.943
 3518SOL    HW229242   8.722   6.275   6.939
 3519SOL     OW29243   5.563   8.126   1.523
 3519SOL    HW129244   5.495   8.086   1.584
 3519SOL    HW229245   5.579   8.064   1.446
 3520SOL     OW29246   8.470   6.719   7.932
 3520SOL    HW129247   8.414   6.657   7.987
 3520SOL    HW229248   8.533   6.666   7.876
 3521SOL     OW29249   6.401   6.031   7.507
 3521SOL    HW129250   6.438   6.117   7.473
 3521SOL    HW229251   6.368   6.043   7.601
 3522SOL     OW29252   9.906   4.267   7.530
 3522SOL    HW129253   9.952   4.181   7.507
 3522SOL    HW229254   9.838   4.250   7.602
 3523SOL     OW29255   5.985   2.965   7.761
 3523SOL    HW129256   6.078   2.998   7.743
 3523SOL    HW229257   5.987   2.865   7.771
 3524SOL     OW29258   5.659   5.742   2.410
 3524SOL    HW129259   5.704   5.797   2.480
 3524SOL    HW229260   5.650   5.647   2.442
 3525SOL     OW29261   0.986   7.081   0.596
 3525SOL    HW129262   0.967   7.143   0.520
 3525SOL    HW229263   0.988   7.133   0.682
 3526SOL     OW29264   9.476   6.382   0.143
 3526SOL    HW129265   9.532   6.465   0.155
 3526SOL    HW229266   9.489   6.322   0.221
 3527SOL     OW29267   3.342   5.919   8.126
 3527SOL    HW129268   3.416   5.953   8.183
 3527SOL    HW229269   3.258   5.971   8.147
 3528SOL     OW29270   6.016   4.777   8.692
 3528SOL    HW129271   6.025   4.829   8.776
 3528SOL    HW229272   5.940   4.813   8.638
 3529SOL     OW29273   8.535   1.943   6.980
 3529SOL    HW129274   8.546   1.847   7.005
 3529SOL    HW229275   8.529   1.999   7.063
 3530SOL     OW29276   1.436   8.649   1.685
 3530SOL    HW129277   1.387   8.670   1.601
 3530SOL    HW229278   1.373   8.607   1.751
 3531SOL     OW29279   5.452   1.243   0.550
 3531SOL    HW129280   5.552   1.242   0.545
 3531SOL    HW229281   5.424   1.264   0.644
 3532SOL     OW29282   1.597   9.858   0.622
 3532SOL    HW129283   1.590   9.958   0.626
 3532SOL    HW229284   1.569   9.827   0.532
 3533SOL     OW29285   3.282   5.546   7.328
 3533SOL    HW129286   3.184   5.539   7.346
 3533SOL    HW229287   3.332   5.546   7.415
 3534SOL     OW29288   8.119   5.938   2.195
 3534SOL    HW129289   8.119   5.976   2.288
 3534SOL    HW229290   8.115   5.838   2.200
 3535SOL     OW29291   0.820   0.354   1.963
 3535SOL    HW129292   0.916   0.378   1.970
 3535SOL    HW229293   0.802   0.271   2.016
 3536SOL     OW29294   3.289   8.193   1.303
 3536SOL    HW129295   3.235   8.120   1.346
 3536SOL    HW229296   3.314   8.165   1.210
 3537SOL     OW29297   3.455   3.791   1.996
 3537SOL    HW129298   3.501   3.714   1.953
 3537SOL    HW229299   3.385   3.758   2.060
 3538SOL     OW29300   0.951   1.881   8.514
 3538SOL    HW129301   0.860   1.844   8.500
 3538SOL    HW229302   1.017   1.806   8.522
 3539SOL     OW29303   0.631   1.365   8.593
 3539SOL    HW129304   0.596   1.437   8.654
 3539SOL    HW229305   0.731   1.370   8.589
 3540SOL     OW29306   7.517   3.324   8.648
 3540SOL    HW129307   7.503   3.355   8.554
 3540SOL    HW229308   7.581   3.385   8.694
 3541SOL     OW29309   6.987   6.607   7.735
 3541SOL    HW129310   7.061   6.656   7.781
 3541SOL    HW229311   7.026   6.545   7.667
 3542SOL     OW29312   9.892   2.227   7.763
 3542SOL    HW129313   9.980   2.181   7.772
 3542SOL    HW229314   9.901   2.303   7.699
 3543SOL     OW29315  10.010   2.456   1.470
 3543SOL    HW129316   9.918   2.489   1.448
 3543SOL    HW229317  10.071   2.473   1.393
 3544SOL     OW29318   6.571   9.218   8.484
 3544SOL    HW129319   6.554   9.120   8.481
 3544SOL    HW229320   6.669   9.235   8.480
 3545SOL     OW29321   5.408   1.061   8.162
 3545SOL    HW129322   5.414   1.118   8.244
 3545SOL    HW229323   5.499   1.046   8.125
 3546SOL     OW29324   1.511   9.760   6.317
 3546SOL    HW129325   1.580   9.825   6.349
 3546SOL    HW229326   1.450   9.805   6.252
 3547SOL     OW29327   7.361   9.305   1.916
 3547SOL    HW129328   7.442   9.298   1.973
 3547SOL    HW229329   7.340   9.401   1.899
 3548SOL     OW29330   9.764   6.703   0.616
 3548SOL    HW129331   9.699   6.652   0.559
 3548SOL    HW229332   9.835   6.641   0.649
 3549SOL     OW29333   9.035   4.221   1.952
 3549SOL    HW129334   8.981   4.260   2.026
 3549SOL    HW229335   9.026   4.121   1.953
 3550SOL     OW29336   3.766   0.083   1.081
 3550SOL    HW129337   3.804   0.024   1.011
 3550SOL    HW229338   3.837   0.104   1.148
 3551SOL     OW29339   5.738  10.100   1.430
 3551SOL    HW129340   5.817  10.039   1.421
 3551SOL    HW229341   5.721  10.146   1.343
 3552SOL     OW29342   8.436   6.681   0.354
 3552SOL    HW129343   8.395   6.723   0.273
 3552SOL    HW229344   8.519   6.731   0.379
 3553SOL     OW29345   2.691   1.883   1.770
 3553SOL    HW129346   2.663   1.956   1.833
 3553SOL    HW229347   2.790   1.886   1.757
 3554SOL     OW29348   7.472   6.970   6.620
 3554SOL    HW129349   7.561   7.011   6.600
 3554SOL    HW229350   7.483   6.897   6.688
 3555SOL     OW29351   2.585   5.620   0.038
 3555SOL    HW129352   2.595   5.529   0.078
 3555SOL    HW229353   2.505   5.666   0.076
 3556SOL     OW29354   0.734   3.318   0.197
 3556SOL    HW129355   0.687   3.366   0.123
 3556SOL    HW229356   0.691   3.228   0.210
 3557SOL     OW29357   8.708   1.780   0.337
 3557SOL    HW129358   8.748   1.799   0.427
 3557SOL    HW229359   8.689   1.866   0.290
 3558SOL     OW29360   2.077   9.608   7.742
 3558SOL    HW129361   2.065   9.551   7.824
 3558SOL    HW229362   2.161   9.581   7.696
 3559SOL     OW29363   2.914   1.297   6.618
 3559SOL    HW129364   2.943   1.352   6.539
 3559SOL    HW229365   2.995   1.259   6.663
 3560SOL     OW29366   5.066   7.547   7.424
 3560SOL    HW129367   5.151   7.512   7.463
 3560SOL    HW229368   5.003   7.471   7.408
 3561SOL     OW29369   1.621   7.679   0.613
 3561SOL    HW129370   1.702   7.722   0.653
 3561SOL    HW229371   1.648   7.594   0.568
 3562SOL     OW29372   4.972   6.884   8.501
 3562SOL    HW129373   4.878   6.888   8.470
 3562SOL    HW229374   4.994   6.791   8.530
 3563SOL     OW29375   4.891   8.809   6.768
 3563SOL    HW129376   4.985   8.785   6.745
 3563SOL    HW229377   4.829   8.765   6.703
 3564SOL     OW29378   5.744   6.523   2.113
 3564SOL    HW129379   5.843   6.530   2.123
 3564SOL    HW229380   5.719   6.528   2.017
 3565SOL     OW29381   2.896   1.540   6.751
 3565SOL    HW129382   2.896   1.453   6.703
 3565SOL    HW229383   2.972   1.542   6.816
 3566SOL     OW29384   6.380   1.066   2.184
 3566SOL    HW129385   6.329   0.984   2.210
 3566SOL    HW229386   6.466   1.069   2.236
 3567SOL     OW29387   6.809   9.527   0.572
 3567SOL    HW129388   6.885   9.488   0.520
 3567SOL    HW229389   6.723   9.483   0.544
 3568SOL     OW29390   1.826   9.699   0.667
 3568SOL    HW129391   1.749   9.759   0.644
 3568SOL    HW229392   1.818   9.614   0.615
 3569SOL     OW29393   5.320   2.765   7.544
 3569SOL    HW129394   5.352   2.683   7.496
 3569SOL    HW229395   5.348   2.760   7.640
 3570SOL     OW29396   8.284   0.496   7.178
 3570SOL    HW129397   8.303   0.508   7.081
 3570SOL    HW229398   8.298   0.583   7.226
 3571SOL     OW29399   9.635   4.976   7.132
 3571SOL    HW129400   9.731   4.960   7.111
 3571SOL    HW229401   9.598   4.897   7.182
 3572SOL     OW29402   3.209   7.805   1.138
 3572SOL    HW129403   3.275   7.828   1.067
 3572SOL    HW229404   3.116   7.825   1.106
 3573SOL     OW29405   5.928   4.364   7.736
 3573SOL    HW129406   5.894   4.277   7.702
 3573SOL    HW229407   6.007   4.393   7.681
 3574SOL     OW29408   5.713   0.148   1.455
 3574SOL    HW129409   5.790   0.211   1.464
 3574SOL    HW229410   5.627   0.200   1.456
 3575SOL     OW29411   9.796   9.858   0.357
 3575SOL    HW129412   9.750   9.785   0.306
 3575SOL    HW229413   9.752   9.869   0.446
 3576SOL     OW29414   7.204   7.618   1.917
 3576SOL    HW129415   7.202   7.581   2.010
 3576SOL    HW229416   7.281   7.579   1.867
 3577SOL     OW29417   3.118   8.269   0.988
 3577SOL    HW129418   3.109   8.239   0.893
 3577SOL    HW229419   3.203   8.232   1.026
 3578SOL     OW29420   1.672   0.176   0.546
 3578SOL    HW129421   1.713   0.111   0.483
 3578SOL    HW229422   1.679   0.140   0.640
 3579SOL     OW29423   8.886   7.125   0.094
 3579SOL    HW129424   8.859   7.207   0.043
 3579SOL    HW229425   8.973   7.091   0.058
 3580SOL     OW29426   2.613   4.814   8.085
 3580SOL    HW129427   2.613   4.811   7.986
 3580SOL    HW229428   2.584   4.725   8.121
 3581SOL     OW29429   0.134   7.601   1.703
 3581SOL    HW129430   0.089   7.630   1.788
 3581SOL    HW229431   0.102   7.657   1.627
 3582SOL     OW29432   7.304   1.550   8.753
 3582SOL    HW129433   7.309   1.463   8.704
 3582SOL    HW229434   7.392   1.569   0.015
 3583SOL     OW29435   7.137   8.010   1.238
 3583SOL    HW129436   7.217   7.951   1.246
 3583SOL    HW229437   7.162   8.103   1.265
 3584SOL     OW29438   2.765   1.944   7.308
 3584SOL    HW129439   2.721   1.864   7.349
 3584SOL    HW229440   2.700   2.021   7.307
 3585SOL     OW29441   9.794   6.072   0.151
 3585SOL    HW129442   9.888   6.066   0.118
 3585SOL    HW229443   9.740   6.129   0.090
 3586SOL     OW29444   9.820   6.210   7.499
 3586SOL    HW129445   9.919   6.207   7.510
 3586SOL    HW229446   9.777   6.152   7.569
 3587SOL     OW29447   2.884   9.567   5.914
 3587SOL    HW129448   2.873   9.469   5.932
 3587SOL    HW229449   2.807   9.617   5.952
 3588SOL     OW29450   9.027   0.906   7.898
 3588SOL    HW129451   9.063   0.963   7.972
 3588SOL    HW229452   9.079   0.921   7.815
 3589SOL     OW29453   9.301   3.186   0.779
 3589SOL    HW129454   9.285   3.179   0.878
 3589SOL    HW229455   9.399   3.180   0.761
 3590SOL     OW29456   8.717   9.527   7.283
 3590SOL    HW129457   8.700   9.626   7.277
 3590SOL    HW229458   8.742   9.503   7.376
 3591SOL     OW29459   0.314   7.720   7.401
 3591SOL    HW129460   0.298   7.819   7.411
 3591SOL    HW229461   0.349   7.702   7.309
 3592SOL     OW29462   6.647   2.157   7.590
 3592SOL    HW129463   6.692   2.239   7.552
 3592SOL    HW229464   6.707   2.078   7.578
 3593SOL     OW29465   8.318   5.052   7.796
 3593SOL    HW129466   8.283   5.142   7.771
 3593SOL    HW229467   8.268   5.018   7.876
 3594SOL     OW29468   6.987   3.929   6.948
 3594SOL    HW129469   6.949   3.902   7.037
 3594SOL    HW229470   6.958   3.864   6.878
 3595SOL     OW29471   7.960   1.456   1.158
 3595SOL    HW129472   7.914   1.368   1.171
 3595SOL    HW229473   7.892   1.529   1.154
 3596SOL     OW29474   1.422   2.926   7.553
 3596SOL    HW129475   1.351   2.856   7.560
 3596SOL    HW229476   1.436   2.950   7.457
 3597SOL     OW29477   3.871   9.615   0.319
 3597SOL    HW129478   3.797   9.554   0.347
 3597SOL    HW229479   3.893   9.599   0.223
 3598SOL     OW29480   4.801   8.450   1.092
 3598SOL    HW129481   4.834   8.480   1.003
 3598SOL    HW229482   4.723   8.388   1.081
 3599SOL     OW29483   6.315   2.767   7.671
 3599SOL    HW129484   6.302   2.680   7.719
 3599SOL    HW229485   6.261   2.766   7.586
 3600SOL     OW29486   2.969   5.332   0.591
 3600SOL    HW129487   3.028   5.352   0.670
 3600SOL    HW229488   2.882   5.380   0.602
 3601SOL     OW29489   9.105   2.790   0.644
 3601SOL    HW129490   9.089   2.873   0.590
 3601SOL    HW229491   9.076   2.806   0.739
 3602SOL     OW29492   0.519   2.199   0.672
 3602SOL    HW129493   0.568   2.275   0.713
 3602SOL    HW229494   0.564   2.113   0.697
 3603SOL     OW29495   8.839   8.294   1.825
 3603SOL    HW129496   8.848   8.204   1.870
 3603SOL    HW229497   8.743   8.319   1.818
 3604SOL     OW29498   7.626   3.202   8.300
 3604SOL    HW129499   7.585   3.283   8.342
 3604SOL    HW229500   7.588   3.120   8.342
 3605SOL     OW29501   1.558   9.119   0.433
 3605SOL    HW129502   1.508   9.178   0.370
 3605SOL    HW229503   1.493   9.066   0.488
 3606SOL     OW29504   4.727   3.065   1.758
 3606SOL    HW129505   4.745   3.125   1.680
 3606SOL    HW229506   4.630   3.041   1.760
 3607SOL     OW29507   9.214   2.530   6.822
 3607SOL    HW129508   9.218   2.530   6.723
 3607SOL    HW229509   9.119   2.520   6.852
 3608SOL     OW29510   1.045   7.139   8.356
 3608SOL    HW129511   0.977   7.074   8.323
 3608SOL    HW229512   1.006   7.195   8.428
 3609SOL     OW29513   9.738   1.385   0.548
 3609SOL    HW129514   9.646   1.345   0.550
 3609SOL    HW229515   9.751   1.436   0.463
 3610SOL     OW29516   4.668   3.716   8.095
 3610SOL    HW129517   4.587   3.660   8.110
 3610SOL    HW229518   4.670   3.748   8.000
 3611SOL     OW29519   1.432   4.118   7.528
 3611SOL    HW129520   1.513   4.154   7.482
 3611SOL    HW229521   1.351   4.170   7.499
 3612SOL     OW29522   8.625   7.911   2.324
 3612SOL    HW129523   8.715   7.878   2.351
 3612SOL    HW229524   8.634   7.974   2.247
 3613SOL     OW29525   1.290   6.171   7.625
 3613SOL    HW129526   1.294   6.103   7.698
 3613SOL    HW229527   1.243   6.133   7.546
 3614SOL     OW29528   0.341   5.437   0.641
 3614SOL    HW129529   0.310   5.500   0.712
 3614SOL    HW229530   0.318   5.343   0.667
 3615SOL     OW29531   9.434   7.200   1.284
 3615SOL    HW129532   9.503   7.161   1.224
 3615SOL    HW229533   9.474   7.220   1.373
 3616SOL     OW29534   5.039   8.318   0.216
 3616SOL    HW129535   4.949   8.303   0.255
 3616SOL    HW229536   5.104   8.251   0.252
 3617SOL     OW29537  10.045  10.464   1.437
 3617SOL    HW129538  10.101   0.041   1.459
 3617SOL    HW229539   9.980  10.487   1.365
 3618SOL     OW29540   1.597   9.072   7.008
 3618SOL    HW129541   1.671   9.117   7.058
 3618SOL    HW229542   1.517   9.062   7.067
 3619SOL     OW29543   5.360   2.662   8.042
 3619SOL    HW129544   5.440   2.696   8.092
 3619SOL    HW229545   5.277   2.702   8.081
 3620SOL     OW29546   7.007   9.403   0.414
 3620SOL    HW129547   6.953   9.321   0.396
 3620SOL    HW229548   7.095   9.376   0.453
 3621SOL     OW29549   2.832   8.864   0.062
 3621SOL    HW129550   2.746   8.823   0.094
 3621SOL    HW229551   2.811   8.949   0.012
 3622SOL     OW29552   3.512   5.205   1.651
 3622SOL    HW129553   3.517   5.237   1.556
 3622SOL    HW229554   3.420   5.220   1.687
 3623SOL     OW29555   3.815   4.027   1.961
 3623SOL    HW129556   3.716   4.035   1.963
 3623SOL    HW229557   3.853   4.100   1.904
 3624SOL     OW29558   5.778  10.094   6.988
 3624SOL    HW129559   5.827  10.050   6.913
 3624SOL    HW229560   5.693  10.134   6.954
 3625SOL     OW29561   5.533   7.632   1.472
 3625SOL    HW129562   5.605   7.660   1.409
 3625SOL    HW229563   5.540   7.685   1.557
 3626SOL     OW29564   7.656   5.223   7.090
 3626SOL    HW129565   7.603   5.234   7.006
 3626SOL    HW229566   7.627   5.141   7.138
 3627SOL     OW29567   4.865   8.578   0.058
 3627SOL    HW129568   4.913   8.510   0.112
 3627SOL    HW229569   4.899   8.670   0.080
 3628SOL     OW29570   0.499   4.244   7.299
 3628SOL    HW129571   0.414   4.284   7.264
 3628SOL    HW229572   0.559   4.220   7.223
 3629SOL     OW29573   1.378   4.056   0.077
 3629SOL    HW129574   1.360   4.068   8.761
 3629SOL    HW229575   1.400   4.144   0.119
 3630SOL     OW29576   2.830   2.722   1.743
 3630SOL    HW129577   2.813   2.759   1.834
 3630SOL    HW229578   2.787   2.781   1.674
 3631SOL     OW29579   1.434   4.743   0.129
 3631SOL    HW129580   1.512   4.763   0.188
 3631SOL    HW229581   1.387   4.828   0.104
 3632SOL     OW29582   9.019   2.874   0.909
 3632SOL    HW129583   9.010   2.883   1.008
 3632SOL    HW229584   9.027   2.965   0.868
 3633SOL     OW29585   6.620   2.697   7.157
 3633SOL    HW129586   6.648   2.777   7.210
 3633SOL    HW229587   6.614   2.722   7.060
 3634SOL     OW29588   5.630   4.241   2.225
 3634SOL    HW129589   5.649   4.265   2.130
 3634SOL    HW229590   5.554   4.176   2.229
 3635SOL     OW29591   7.162  10.100   8.396
 3635SOL    HW129592   7.083  10.046   8.368
 3635SOL    HW229593   7.143  10.197   8.385
 3636SOL     OW29594   0.334   2.104   8.017
 3636SOL    HW129595   0.275   2.176   7.980
 3636SOL    HW229596   0.314   2.090   8.114
 3637SOL     OW29597   9.250   8.562   8.562
 3637SOL    HW129598   9.243   8.488   8.630
 3637SOL    HW229599   9.161   8.574   8.517
 3638SOL     OW29600   5.473   3.704   7.874
 3638SOL    HW129601   5.481   3.750   7.963
 3638SOL    HW229602   5.514   3.613   7.879
 3639SOL     OW29603   3.871   8.754   0.445
 3639SOL    HW129604   3.792   8.785   0.498
 3639SOL    HW229605   3.922   8.833   0.411
 3640SOL     OW29606   7.583   0.941   6.885
 3640SOL    HW129607   7.551   1.029   6.918
 3640SOL    HW229608   7.539   0.868   6.937
 3641SOL     OW29609   6.844   8.059   1.253
 3641SOL    HW129610   6.779   8.019   1.317
 3641SOL    HW229611   6.934   8.015   1.265
 3642SOL     OW29612   6.124   1.647   7.831
 3642SOL    HW129613   6.085   1.634   7.740
 3642SOL    HW229614   6.069   1.714   7.881
 3643SOL     OW29615   0.960   9.712   6.317
 3643SOL    HW129616   0.870   9.753   6.328
 3643SOL    HW229617   0.962   9.659   6.231
 3644SOL     OW29618   3.743   7.437   2.241
 3644SOL    HW129619   3.705   7.503   2.305
 3644SOL    HW229620   3.816   7.386   2.285
 3645SOL     OW29621   1.924   5.402   0.297
 3645SOL    HW129622   1.975   5.318   0.281
 3645SOL    HW229623   1.876   5.429   0.214
 3646SOL     OW29624   5.993   6.092   7.676
 3646SOL    HW129625   6.038   6.146   7.606
 3646SOL    HW229626   5.952   6.153   7.744
 3647SOL     OW29627   3.128   9.666   7.250
 3647SOL    HW129628   3.136   9.703   7.342
 3647SOL    HW229629   3.142   9.738   7.183
 3648SOL     OW29630   5.230   6.442   1.981
 3648SOL    HW129631   5.263   6.522   2.032
 3648SOL    HW229632   5.132   6.452   1.964
 3649SOL     OW29633   6.004   6.924   8.536
 3649SOL    HW129634   5.990   7.023   8.544
 3649SOL    HW229635   6.043   6.889   8.621
 3650SOL     OW29636   5.804   5.129   0.496
 3650SOL    HW129637   5.817   5.060   0.567
 3650SOL    HW229638   5.848   5.215   0.525
 3651SOL     OW29639   4.347   7.990   1.824
 3651SOL    HW129640   4.443   8.011   1.810
 3651SOL    HW229641   4.338   7.904   1.875
 3652SOL     OW29642   7.682   3.816   8.646
 3652SOL    HW129643   7.745   3.891   8.629
 3652SOL    HW229644   7.689   3.788   8.742
 3653SOL     OW29645   9.396  10.201   7.259
 3653SOL    HW129646   9.371  10.139   7.333
 3653SOL    HW229647   9.477  10.254   7.286
 3654SOL     OW29648   5.437   5.526   8.341
 3654SOL    HW129649   5.455   5.597   8.274
 3654SOL    HW229650   5.338   5.512   8.348
 3655SOL     OW29651   9.357   3.819   7.189
 3655SOL    HW129652   9.270   3.811   7.141
 3655SOL    HW229653   9.432   3.811   7.123
 3656SOL     OW29654   5.198   5.906   0.015
 3656SOL    HW129655   5.127   5.960   8.751
 3656SOL    HW229656   5.211   5.941   0.108
 3657SOL     OW29657   7.326   5.956   0.807
 3657SOL    HW129658   7.265   5.880   0.786
 3657SOL    HW229659   7.320   6.025   0.734
 3658SOL     OW29660   0.036   5.237   7.785
 3658SOL    HW129661  10.125   5.186   7.836
 3658SOL    HW229662   0.001   5.327   7.762
 3659SOL     OW29663   1.622   9.724   8.691
 3659SOL    HW129664   1.714   9.762   8.683
 3659SOL    HW229665   1.557   9.797   8.712
 3660SOL     OW29666   0.413   3.298   7.197
 3660SOL    HW129667   0.378   3.335   7.111
 3660SOL    HW229668   0.479   3.226   7.178
 3661SOL     OW29669   2.548   8.533   1.869
 3661SOL    HW129670   2.469   8.544   1.930
 3661SOL    HW229671   2.631   8.521   1.923
 3662SOL     OW29672   0.998   8.162   6.705
 3662SOL    HW129673   1.052   8.202   6.631
 3662SOL    HW229674   0.934   8.096   6.667
 3663SOL     OW29675   5.185   5.300   0.614
 3663SOL    HW129676   5.211   5.205   0.628
 3663SOL    HW229677   5.173   5.317   0.516
 3664SOL     OW29678   7.726   4.835   8.156
 3664SOL    HW129679   7.718   4.929   8.189
 3664SOL    HW229680   7.637   4.803   8.124
 3665SOL     OW29681   2.745   1.817   8.428
 3665SOL    HW129682   2.733   1.895   8.367
 3665SOL    HW229683   2.752   1.849   8.523
 3666SOL     OW29684   3.344   1.643   7.638
 3666SOL    HW129685   3.432   1.600   7.620
 3666SOL    HW229686   3.272   1.573   7.638
 3667SOL     OW29687   6.831   1.220   8.771
 3667SOL    HW129688   6.926   1.232   8.743
 3667SOL    HW229689   6.807   1.291   0.056
 3668SOL     OW29690   7.121   2.579   1.484
 3668SOL    HW129691   7.105   2.481   1.479
 3668SOL    HW229692   7.173   2.600   1.567
 3669SOL     OW29693   3.833   9.743   8.541
 3669SOL    HW129694   3.914   9.698   8.578
 3669SOL    HW229695   3.821   9.715   8.446
 3670SOL     OW29696   0.315   8.461   1.693
 3670SOL    HW129697   0.299   8.427   1.786
 3670SOL    HW229698   0.309   8.385   1.628
 3671SOL     OW29699   4.809   1.096   6.667
 3671SOL    HW129700   4.813   1.196   6.665
 3671SOL    HW229701   4.846   1.060   6.581
 3672SOL     OW29702   5.820   2.015   1.346
 3672SOL    HW129703   5.895   1.990   1.407
 3672SOL    HW229704   5.780   2.102   1.377
 3673SOL     OW29705   5.660   6.783   6.907
 3673SOL    HW129706   5.658   6.714   6.834
 3673SOL    HW229707   5.730   6.851   6.888
 3674SOL     OW29708   8.964   0.051   0.340
 3674SOL    HW129709   8.871   0.088   0.328
 3674SOL    HW229710   8.989  10.501   0.259
 3675SOL     OW29711   7.454   0.533   0.519
 3675SOL    HW129712   7.423   0.611   0.464
 3675SOL    HW229713   7.497   0.567   0.602
 3676SOL     OW29714   1.920   1.304   6.757
 3676SOL    HW129715   1.829   1.346   6.764
 3676SOL    HW229716   1.948   1.303   6.661
 3677SOL     OW29717   3.676   9.529   1.554
 3677SOL    HW129718   3.654   9.619   1.516
 3677SOL    HW229719   3.695   9.538   1.651
 3678SOL     OW29720   3.870   8.826   7.801
 3678SOL    HW129721   3.784   8.784   7.828
 3678SOL    HW229722   3.854   8.891   7.727
 3679SOL     OW29723   4.868   7.180   0.168
 3679SOL    HW129724   4.876   7.240   0.248
 3679SOL    HW229725   4.846   7.087   0.198
 3680SOL     OW29726   8.077   7.078   7.859
 3680SOL    HW129727   8.033   7.062   7.771
 3680SOL    HW229728   8.034   7.020   7.929
 3681SOL     OW29729   7.312   8.870   0.254
 3681SOL    HW129730   7.242   8.935   0.283
 3681SOL    HW229731   7.272   8.803   0.191
 3682SOL     OW29732   1.884   2.045   1.412
 3682SOL    HW129733   1.983   2.034   1.404
 3682SOL    HW229734   1.864   2.136   1.448
 3683SOL     OW29735   0.845   1.118   1.385
 3683SOL    HW129736   0.875   1.150   1.295
 3683SOL    HW229737   0.745   1.111   1.387
 3684SOL     OW29738   8.501   3.492   2.255
 3684SOL    HW129739   8.599   3.482   2.270
 3684SOL    HW229740   8.451   3.432   2.317
 3685SOL     OW29741   0.528   8.645   7.929
 3685SOL    HW129742   0.430   8.662   7.915
 3685SOL    HW229743   0.563   8.709   7.998
 3686SOL     OW29744   7.882   6.195   0.602
 3686SOL    HW129745   7.928   6.168   0.517
 3686SOL    HW229746   7.835   6.117   0.642
 3687SOL     OW29747   4.245   0.843   1.349
 3687SOL    HW129748   4.223   0.750   1.320
 3687SOL    HW229749   4.320   0.841   1.415
 3688SOL     OW29750   2.662   1.105   0.504
 3688SOL    HW129751   2.674   1.129   0.408
 3688SOL    HW229752   2.745   1.126   0.554
 3689SOL     OW29753   7.038   0.305   2.086
 3689SOL    HW129754   7.100   0.275   2.159
 3689SOL    HW229755   6.969   0.366   2.125
 3690SOL     OW29756   1.055   3.285   7.438
 3690SOL    HW129757   1.031   3.202   7.387
 3690SOL    HW229758   0.971   3.327   7.473
 3691SOL     OW29759   6.666   7.090   0.856
 3691SOL    HW129760   6.599   7.164   0.856
 3691SOL    HW229761   6.662   7.043   0.767
 3692SOL     OW29762   7.307   0.567   7.622
 3692SOL    HW129763   7.289   0.636   7.552
 3692SOL    HW229764   7.327   0.480   7.579
 3693SOL     OW29765   2.481   2.752   0.439
 3693SOL    HW129766   2.499   2.654   0.432
 3693SOL    HW229767   2.443   2.772   0.529
 3694SOL     OW29768   6.367   2.457   7.519
 3694SOL    HW129769   6.378   2.359   7.500
 3694SOL    HW229770   6.447   2.507   7.485
 3695SOL     OW29771   8.698   7.059   1.796
 3695SOL    HW129772   8.682   7.100   1.886
 3695SOL    HW229773   8.656   7.116   1.725
 3696SOL     OW29774   2.174   7.363   0.086
 3696SOL    HW129775   2.137   7.430   0.150
 3696SOL    HW229776   2.219   7.290   0.137
 3697SOL     OW29777   2.618   5.937   6.319
 3697SOL    HW129778   2.630   6.032   6.290
 3697SOL    HW229779   2.571   5.886   6.248
 3698SOL     OW29780   2.676   9.725   2.062
 3698SOL    HW129781   2.598   9.708   2.122
 3698SOL    HW229782   2.760   9.722   2.116
 3699SOL     OW29783  10.000  10.154   7.609
 3699SOL    HW129784  10.030  10.062   7.584
 3699SOL    HW229785  10.079  10.215   7.609
 3700SOL     OW29786   1.135   4.913   0.387
 3700SOL    HW129787   1.125   5.013   0.390
 3700SOL    HW229788   1.117   4.881   0.294
 3701SOL     OW29789   0.822   0.368   1.167
 3701SOL    HW129790   0.766   0.434   1.117
 3701SOL    HW229791   0.906   0.350   1.115
 3702SOL     OW29792   8.084   7.845   8.182
 3702SOL    HW129793   7.997   7.889   8.163
 3702SOL    HW229794   8.128   7.820   8.095
 3703SOL     OW29795   7.717  10.169   0.905
 3703SOL    HW129796   7.773  10.252   0.907
 3703SOL    HW229797   7.764  10.096   0.955
 3704SOL     OW29798   4.144   0.563   8.290
 3704SOL    HW129799   4.072   0.624   8.325
 3704SOL    HW229800   4.160   0.490   8.356
 3705SOL     OW29801   7.064   1.658   8.657
 3705SOL    HW129802   7.150   1.613   8.679
 3705SOL    HW229803   7.014   1.604   8.590
 3706SOL     OW29804   0.588   3.291   1.199
 3706SOL    HW129805   0.619   3.353   1.270
 3706SOL    HW229806   0.526   3.340   1.137
 3707SOL     OW29807   2.658   6.943   7.089
 3707SOL    HW129808   2.682   7.031   7.049
 3707SOL    HW229809   2.653   6.952   7.189
 3708SOL     OW29810   2.733   1.820   0.636
 3708SOL    HW129811   2.785   1.879   0.575
 3708SOL    HW229812   2.748   1.724   0.611
 3709SOL     OW29813   7.090   0.195   8.706
 3709SOL    HW129814   7.097   0.189   8.607
 3709SOL    HW229815   7.174   0.159   8.748
 3710SOL     OW29816   5.434   5.278   1.485
 3710SOL    HW129817   5.468   5.361   1.441
 3710SOL    HW229818   5.501   5.245   1.551
 3711SOL     OW29819   0.349   2.375   8.512
 3711SOL    HW129820   0.432   2.326   8.538
 3711SOL    HW229821   0.274   2.348   8.573
 3712SOL     OW29822   4.935   0.753   8.565
 3712SOL    HW129823   4.855   0.696   8.582
 3712SOL    HW229824   4.978   0.777   8.652
 3713SOL     OW29825   1.199   2.388   0.476
 3713SOL    HW129826   1.191   2.439   0.391
 3713SOL    HW229827   1.131   2.314   0.477
 3714SOL     OW29828   4.982   6.077   1.169
 3714SOL    HW129829   4.901   6.034   1.207
 3714SOL    HW229830   5.028   6.131   1.240
 3715SOL     OW29831   7.336   6.609   1.087
 3715SOL    HW129832   7.300   6.537   1.027
 3715SOL    HW229833   7.267   6.632   1.156
 3716SOL     OW29834   7.997   3.450   1.564
 3716SOL    HW129835   8.089   3.471   1.528
 3716SOL    HW229836   8.006   3.403   1.652
 3717SOL     OW29837   4.439   2.048   1.375
 3717SOL    HW129838   4.412   2.017   1.466
 3717SOL    HW229839   4.408   1.981   1.307
 3718SOL     OW29840   5.199   8.120   7.188
 3718SOL    HW129841   5.121   8.147   7.131
 3718SOL    HW229842   5.167   8.100   7.280
 3719SOL     OW29843   7.897   4.464   8.349
 3719SOL    HW129844   7.859   4.502   8.265
 3719SOL    HW229845   7.867   4.519   8.427
 3720SOL     OW29846   4.603  10.369   8.646
 3720SOL    HW129847   4.631  10.435   8.577
 3720SOL    HW229848   4.562  10.417   8.723
 3721SOL     OW29849   8.917   4.324   1.043
 3721SOL    HW129850   8.922   4.228   1.016
 3721SOL    HW229851   8.903   4.330   1.142
 3722SOL     OW29852   2.968   5.780   8.028
 3722SOL    HW129853   2.963   5.717   8.105
 3722SOL    HW229854   2.935   5.870   8.056
 3723SOL     OW29855   5.269   0.304   6.839
 3723SOL    HW129856   5.206   0.245   6.890
 3723SOL    HW229857   5.324   0.248   6.777
 3724SOL     OW29858   6.342   2.032   7.245
 3724SOL    HW129859   6.314   2.090   7.169
 3724SOL    HW229860   6.400   1.958   7.212
 3725SOL     OW29861   7.918   3.693   6.989
 3725SOL    HW129862   7.923   3.792   6.999
 3725SOL    HW229863   7.936   3.668   6.894
 3726SOL     OW29864   0.143   2.861   7.652
 3726SOL    HW129865   0.081   2.792   7.690
 3726SOL    HW229866   0.102   2.952   7.662
 3727SOL     OW29867   1.715   3.826   8.769
 3727SOL    HW129868   1.799   3.808   8.717
 3727SOL    HW229869   1.697   3.925   8.768
 3728SOL     OW29870   0.771   4.269   8.701
 3728SOL    HW129871   0.811   4.247   8.612
 3728SOL    HW229872   0.749   4.184   8.749
 3729SOL     OW29873   5.332   8.453   6.919
 3729SOL    HW129874   5.350   8.403   7.003
 3729SOL    HW229875   5.235   8.446   6.894
 3730SOL     OW29876   8.368   6.793   0.859
 3730SOL    HW129877   8.394   6.860   0.790
 3730SOL    HW229878   8.426   6.804   0.940
 3731SOL     OW29879   9.319   8.774   6.438
 3731SOL    HW129880   9.346   8.708   6.368
 3731SOL    HW229881   9.348   8.866   6.411
 3732SOL     OW29882   7.463   9.875   0.993
 3732SOL    HW129883   7.429   9.828   0.911
 3732SOL    HW229884   7.452   9.974   0.982
 3733SOL     OW29885   9.157   8.847   8.208
 3733SOL    HW129886   9.081   8.892   8.255
 3733SOL    HW229887   9.223   8.814   8.276
 3734SOL     OW29888   2.575   5.463   7.886
 3734SOL    HW129889   2.480   5.462   7.857
 3734SOL    HW229890   2.615   5.552   7.868
 3735SOL     OW29891   7.360  10.374   8.705
 3735SOL    HW129892   7.437  10.320   8.739
 3735SOL    HW229893   7.352  10.458   8.758
 3736SOL     OW29894   8.623   3.512   6.311
 3736SOL    HW129895   8.558   3.436   6.315
 3736SOL    HW229896   8.705   3.483   6.262
 3737SOL     OW29897   3.820   8.622   8.272
 3737SOL    HW129898   3.794   8.717   8.282
 3737SOL    HW229899   3.831   8.581   8.363
 3738SOL     OW29900   4.787   0.212   6.153
 3738SOL    HW129901   4.745   0.242   6.068
 3738SOL    HW229902   4.852   0.138   6.134
 3739SOL     OW29903   4.941   9.157   8.314
 3739SOL    HW129904   4.910   9.219   8.386
 3739SOL    HW229905   5.038   9.137   8.327
 3740SOL     OW29906   9.339   5.777   8.216
 3740SOL    HW129907   9.340   5.830   8.301
 3740SOL    HW229908   9.247   5.778   8.177
 3741SOL     OW29909   0.850   3.421   6.840
 3741SOL    HW129910   0.934   3.472   6.861
 3741SOL    HW229911   0.873   3.327   6.816
 3742SOL     OW29912   8.843   4.816   7.225
 3742SOL    HW129913   8.849   4.896   7.285
 3742SOL    HW229914   8.921   4.815   7.163
 3743SOL     OW29915   7.201   9.301   7.518
 3743SOL    HW129916   7.214   9.389   7.472
 3743SOL    HW229917   7.118   9.304   7.573
 3744SOL     OW29918   6.931   5.996   0.986
 3744SOL    HW129919   6.908   6.066   0.917
 3744SOL    HW229920   6.893   5.908   0.957
 3745SOL     OW29921   1.139   5.441   7.939
 3745SOL    HW129922   1.202   5.414   7.866
 3745SOL    HW229923   1.045   5.426   7.909
 3746SOL     OW29924   5.671   2.400   8.035
 3746SOL    HW129925   5.706   2.320   7.987
 3746SOL    HW229926   5.572   2.403   8.028
 3747SOL     OW29927   8.255   1.214   1.269
 3747SOL    HW129928   8.342   1.264   1.267
 3747SOL    HW229929   8.270   1.122   1.304
 3748SOL     OW29930   6.632   8.002   1.423
 3748SOL    HW129931   6.626   7.943   1.504
 3748SOL    HW229932   6.540   8.015   1.385
 3749SOL     OW29933   4.536   0.328   8.281
 3749SOL    HW129934   4.451   0.336   8.228
 3749SOL    HW229935   4.514   0.329   8.378
 3750SOL     OW29936   0.439   0.326   0.324
 3750SOL    HW129937   0.371   0.293   0.259
 3750SOL    HW229938   0.432   0.426   0.332
 3751SOL     OW29939   2.326   2.099   0.140
 3751SOL    HW129940   2.261   2.109   0.065
 3751SOL    HW229941   2.277   2.074   0.224
 3752SOL     OW29942   9.867   2.434   8.398
 3752SOL    HW129943   9.813   2.462   8.319
 3752SOL    HW229944   9.932   2.363   8.371
 3753SOL     OW29945   3.309   4.792   6.758
 3753SOL    HW129946   3.216   4.762   6.736
 3753SOL    HW229947   3.314   4.892   6.752
 3754SOL     OW29948   1.132   6.769   0.052
 3754SOL    HW129949   1.175   6.766   0.142
 3754SOL    HW229950   1.203   6.771   8.763
 3755SOL     OW29951   3.029   4.438   0.074
 3755SOL    HW129952   3.078   4.443   8.769
 3755SOL    HW229953   2.995   4.529   0.099
 3756SOL     OW29954  10.056   8.882   2.060
 3756SOL    HW129955   9.979   8.846   2.113
 3756SOL    HW229956  10.044   8.980   2.046
 3757SOL     OW29957   7.994   0.325   7.953
 3757SOL    HW129958   7.977   0.323   8.052
 3757SOL    HW229959   7.917   0.369   7.907
 3758SOL     OW29960   7.049   8.340   7.908
 3758SOL    HW129961   6.985   8.416   7.900
 3758SOL    HW229962   7.136   8.374   7.947
 3759SOL     OW29963   8.412   7.164   6.151
 3759SOL    HW129964   8.450   7.227   6.084
 3759SOL    HW229965   8.484   7.104   6.185
 3760SOL     OW29966   4.940   9.575   8.362
 3760SOL    HW129967   4.929   9.488   8.411
 3760SOL    HW229968   4.951   9.649   8.429
 3761SOL     OW29969   0.809   7.750   8.481
 3761SOL    HW129970   0.755   7.832   8.501
 3761SOL    HW229971   0.755   7.668   8.500
 3762SOL     OW29972   6.829   1.468   6.557
 3762SOL    HW129973   6.898   1.478   6.485
 3762SOL    HW229974   6.763   1.543   6.550
 3763SOL     OW29975   8.541   2.749   0.921
 3763SOL    HW129976   8.640   2.734   0.923
 3763SOL    HW229977   8.508   2.746   0.827
 3764SOL     OW29978   0.771   2.891   8.651
 3764SOL    HW129979   0.826   2.875   8.733
 3764SOL    HW229980   0.686   2.838   8.657
 3765SOL     OW29981   3.194   3.050   1.451
 3765SOL    HW129982   3.219   3.146   1.461
 3765SOL    HW229983   3.135   3.022   1.527
 3766SOL     OW29984   6.703   9.586   1.848
 3766SOL    HW129985   6.732   9.649   1.776
 3766SOL    HW229986   6.718   9.629   1.938
 3767SOL     OW29987   9.927   1.248   7.827
 3767SOL    HW129988   9.973   1.159   7.825
 3767SOL    HW229989   9.862   1.250   7.903
 3768SOL     OW29990   5.762   3.441   1.281
 3768SOL    HW129991   5.687   3.507   1.285
 3768SOL    HW229992   5.771   3.396   1.370
 3769SOL     OW29993   5.987   8.186   1.822
 3769SOL    HW129994   5.921   8.206   1.750
 3769SOL    HW229995   6.047   8.266   1.835
 3770SOL     OW29996   6.500   2.144   6.941
 3770SOL    HW129997   6.557   2.062   6.942
 3770SOL    HW229998   6.556   2.223   6.917
 3771SOL     OW29999   1.129   3.262   8.567
 3771SOL    HW130000   1.192   3.332   8.599
 3771SOL    HW230001   1.123   3.265   8.468
 3772SOL     OW30002   8.604   0.285   6.621
 3772SOL    HW130003   8.672   0.212   6.622
 3772SOL    HW230004   8.591   0.317   6.527
 3773SOL     OW30005   3.714   5.445   0.190
 3773SOL    HW130006   3.800   5.418   0.233
 3773SOL    HW230007   3.730   5.524   0.131
 3774SOL     OW30008   6.447   1.796   6.537
 3774SOL    HW130009   6.352   1.765   6.529
 3774SOL    HW230010   6.463   1.868   6.469
 3775SOL     OW30011   2.509   9.012   6.069
 3775SOL    HW130012   2.518   9.110   6.053
 3775SOL    HW230013   2.598   8.973   6.093
 3776SOL     OW30014   7.389   6.213   2.356
 3776SOL    HW130015   7.444   6.247   2.433
 3776SOL    HW230016   7.428   6.128   2.322
 3777SOL     OW30017   8.395   6.659   6.480
 3777SOL    HW130018   8.416   6.582   6.419
 3777SOL    HW230019   8.382   6.742   6.427
 3778SOL     OW30020   2.035   8.512   2.007
 3778SOL    HW130021   2.087   8.447   2.063
 3778SOL    HW230022   2.083   8.527   1.920
 3779SOL     OW30023   0.975   1.508   6.627
 3779SOL    HW130024   1.073   1.507   6.608
 3779SOL    HW230025   0.934   1.590   6.586
 3780SOL     OW30026   8.865   5.935   7.583
 3780SOL    HW130027   8.958   5.935   7.544
 3780SOL    HW230028   8.861   5.998   7.660
 3781SOL     OW30029   0.682   7.555   0.859
 3781SOL    HW130030   0.780   7.567   0.872
 3781SOL    HW230031   0.639   7.643   0.839
 3782SOL     OW30032   1.563   0.587   7.139
 3782SOL    HW130033   1.525   0.653   7.074
 3782SOL    HW230034   1.498   0.574   7.214
 3783SOL     OW30035   0.759   8.411   2.309
 3783SOL    HW130036   0.736   8.323   2.349
 3783SOL    HW230037   0.804   8.469   2.377
 3784SOL     OW30038   7.794   0.285   7.372
 3784SOL    HW130039   7.870   0.315   7.315
 3784SOL    HW230040   7.736   0.364   7.394
 3785SOL     OW30041   1.293   9.509   7.595
 3785SOL    HW130042   1.231   9.471   7.664
 3785SOL    HW230043   1.372   9.448   7.584
 3786SOL     OW30044   7.124   5.911   1.352
 3786SOL    HW130045   7.134   5.978   1.279
 3786SOL    HW230046   7.214   5.886   1.388
 3787SOL     OW30047   7.787   5.051   7.492
 3787SOL    HW130048   7.818   5.082   7.402
 3787SOL    HW230049   7.786   4.951   7.494
 3788SOL     OW30050   9.153   7.763   0.225
 3788SOL    HW130051   9.124   7.673   0.257
 3788SOL    HW230052   9.110   7.783   0.137
 3789SOL     OW30053   3.824   7.785   2.115
 3789SOL    HW130054   3.787   7.709   2.062
 3789SOL    HW230055   3.923   7.790   2.101
 3790SOL     OW30056   3.494   1.065   0.600
 3790SOL    HW130057   3.562   1.075   0.673
 3790SOL    HW230058   3.402   1.071   0.639
 3791SOL     OW30059   5.915   7.637   1.079
 3791SOL    HW130060   6.009   7.653   1.109
 3791SOL    HW230061   5.905   7.540   1.055
 3792SOL     OW30062   0.910   1.677   0.841
 3792SOL    HW130063   0.946   1.597   0.889
 3792SOL    HW230064   0.973   1.703   0.767
 3793SOL     OW30065   7.729   6.259   8.126
 3793SOL    HW130066   7.679   6.278   8.211
 3793SOL    HW230067   7.819   6.222   8.148
 3794SOL     OW30068   6.261   1.454   7.967
 3794SOL    HW130069   6.315   1.512   8.027
 3794SOL    HW230070   6.198   1.511   7.914
 3795SOL     OW30071   6.157   0.412   1.389
 3795SOL    HW130072   6.201   0.323   1.403
 3795SOL    HW230073   6.196   0.455   1.307
 3796SOL     OW30074   9.501   6.063   2.139
 3796SOL    HW130075   9.418   6.034   2.186
 3796SOL    HW230076   9.551   6.127   2.197
 3797SOL     OW30077   4.302   9.545   7.215
 3797SOL    HW130078   4.248   9.482   7.158
 3797SOL    HW230079   4.244   9.620   7.245
 3798SOL     OW30080   1.672   1.996   1.586
 3798SOL    HW130081   1.618   1.919   1.552
 3798SOL    HW230082   1.757   2.003   1.533
 3799SOL     OW30083   0.038   4.110   1.899
 3799SOL    HW130084  10.115   4.071   1.855
 3799SOL    HW230085   0.081   4.041   1.957
 3800SOL     OW30086   8.824   6.225   0.026
 3800SOL    HW130087   8.811   6.324   0.034
 3800SOL    HW230088   8.744   6.178   0.066
 3801SOL     OW30089   1.154   9.403   1.559
 3801SOL    HW130090   1.117   9.360   1.642
 3801SOL    HW230091   1.194   9.333   1.501
 3802SOL     OW30092   1.487   2.189   1.531
 3802SOL    HW130093   1.562   2.126   1.551
 3802SOL    HW230094   1.517   2.255   1.462
 3803SOL     OW30095   6.726   0.173   6.515
 3803SOL    HW130096   6.714   0.262   6.470
 3803SOL    HW230097   6.798   0.122   6.467
 3804SOL     OW30098   0.225   5.352   0.159
 3804SOL    HW130099   0.280   5.382   0.236
 3804SOL    HW230100   0.170   5.273   0.186
 3805SOL     OW30101   7.039  10.382   0.195
 3805SOL    HW130102   7.104  10.441   0.243
 3805SOL    HW230103   7.027  10.297   0.247
 3806SOL     OW30104   8.063   7.319   7.982
 3806SOL    HW130105   7.978   7.319   8.035
 3806SOL    HW230106   8.072   7.232   7.933
 3807SOL     OW30107   6.147  10.047   2.514
 3807SOL    HW130108   6.240  10.061   2.548
 3807SOL    HW230109   6.111  10.134   2.479
 3808SOL     OW30110   5.702   0.268   6.663
 3808SOL    HW130111   5.685   0.235   6.756
 3808SOL    HW230112   5.662   0.204   6.597
 3809SOL     OW30113   7.002   4.662   0.719
 3809SOL    HW130114   7.017   4.623   0.628
 3809SOL    HW230115   6.961   4.753   0.711
 3810SOL     OW30116   3.682   2.242   7.088
 3810SOL    HW130117   3.612   2.171   7.080
 3810SOL    HW230118   3.638   2.332   7.085
 3811SOL     OW30119   7.640   4.956   1.911
 3811SOL    HW130120   7.670   4.936   2.004
 3811SOL    HW230121   7.601   5.048   1.908
 3812SOL     OW30122   9.422   5.441   1.191
 3812SOL    HW130123   9.400   5.355   1.237
 3812SOL    HW230124   9.338   5.482   1.155
 3813SOL     OW30125   3.616   2.418   7.371
 3813SOL    HW130126   3.536   2.462   7.414
 3813SOL    HW230127   3.627   2.453   7.278
 3814SOL     OW30128   4.089   2.416   6.661
 3814SOL    HW130129   4.135   2.334   6.627
 3814SOL    HW230130   4.154   2.492   6.663
 3815SOL     OW30131   4.309   3.752   7.937
 3815SOL    HW130132   4.368   3.693   7.991
 3815SOL    HW230133   4.272   3.825   7.994
 3816SOL     OW30134   2.665   9.898   7.545
 3816SOL    HW130135   2.706   9.894   7.637
 3816SOL    HW230136   2.577   9.850   7.546
 3817SOL     OW30137   9.555   4.864   7.507
 3817SOL    HW130138   9.487   4.937   7.500
 3817SOL    HW230139   9.533   4.805   7.584
 3818SOL     OW30140   7.314   8.948   1.340
 3818SOL    HW130141   7.251   9.010   1.386
 3818SOL    HW230142   7.355   8.996   1.262
 3819SOL     OW30143   8.855   5.698   0.631
 3819SOL    HW130144   8.908   5.719   0.713
 3819SOL    HW230145   8.776   5.641   0.656
 3820SOL     OW30146   9.950   9.047   6.587
 3820SOL    HW130147   9.856   9.078   6.569
 3820SOL    HW230148  10.014   9.108   6.540
 3821SOL     OW30149   3.259   4.025   6.212
 3821SOL    HW130150   3.208   4.084   6.149
 3821SOL    HW230151   3.335   3.982   6.164
 3822SOL     OW30152   6.739   0.722   7.238
 3822SOL    HW130153   6.641   0.741   7.246
 3822SOL    HW230154   6.763   0.644   7.295
 3823SOL     OW30155   4.392   5.898   7.069
 3823SOL    HW130156   4.333   5.895   6.988
 3823SOL    HW230157   4.340   5.932   7.147
 3824SOL     OW30158   2.496   3.440   0.467
 3824SOL    HW130159   2.425   3.494   0.421
 3824SOL    HW230160   2.578   3.437   0.409
 3825SOL     OW30161   0.535   4.137   1.139
 3825SOL    HW130162   0.553   4.112   1.043
 3825SOL    HW230163   0.534   4.237   1.148
 3826SOL     OW30164   5.341   8.719   6.430
 3826SOL    HW130165   5.264   8.716   6.365
 3826SOL    HW230166   5.416   8.770   6.390
 3827SOL     OW30167   1.014   4.293   8.092
 3827SOL    HW130168   1.073   4.297   8.011
 3827SOL    HW230169   1.068   4.311   8.174
 3828SOL     OW30170   5.421   0.658   1.224
 3828SOL    HW130171   5.446   0.742   1.175
 3828SOL    HW230172   5.497   0.594   1.222
 3829SOL     OW30173   6.431   0.919   0.654
 3829SOL    HW130174   6.408   0.983   0.581
 3829SOL    HW230175   6.428   0.967   0.742
 3830SOL     OW30176   9.536   6.127   7.088
 3830SOL    HW130177   9.437   6.131   7.102
 3830SOL    HW230178   9.573   6.219   7.095
 3831SOL     OW30179   9.016   4.550   8.622
 3831SOL    HW130180   9.017   4.450   8.627
 3831SOL    HW230181   9.075   4.580   8.546
 3832SOL     OW30182   2.320   3.953   8.364
 3832SOL    HW130183   2.274   3.879   8.413
 3832SOL    HW230184   2.265   4.036   8.369
 3833SOL     OW30185   0.760   7.292   0.950
 3833SOL    HW130186   0.849   7.268   0.911
 3833SOL    HW230187   0.733   7.383   0.917
 3834SOL     OW30188   0.349  10.004   7.300
 3834SOL    HW130189   0.320  10.051   7.383
 3834SOL    HW230190   0.428   9.947   7.319
 3835SOL     OW30191   1.385   1.589   1.197
 3835SOL    HW130192   1.333   1.551   1.274
 3835SOL    HW230193   1.453   1.522   1.167
 3836SOL     OW30194   3.458   4.946   0.210
 3836SOL    HW130195   3.416   4.999   0.136
 3836SOL    HW230196   3.557   4.940   0.194
 3837SOL     OW30197   7.961   0.958   6.816
 3837SOL    HW130198   8.011   1.037   6.782
 3837SOL    HW230199   7.887   0.936   6.752
 3838SOL     OW30200   8.088   5.269   6.576
 3838SOL    HW130201   8.128   5.222   6.654
 3838SOL    HW230202   8.033   5.346   6.607
 3839SOL     OW30203   9.168   8.600   1.287
 3839SOL    HW130204   9.174   8.516   1.341
 3839SOL    HW230205   9.255   8.617   1.241
 3840SOL     OW30206   7.021   1.886   7.951
 3840SOL    HW130207   7.119   1.887   7.929
 3840SOL    HW230208   6.990   1.980   7.965
 3841SOL     OW30209   8.713   7.258   1.548
 3841SOL    HW130210   8.808   7.228   1.547
 3841SOL    HW230211   8.701   7.329   1.617
 3842SOL     OW30212   7.939   3.968   7.019
 3842SOL    HW130213   8.027   3.957   6.974
 3842SOL    HW230214   7.947   4.034   7.094
 3843SOL     OW30215   8.192   4.172   7.031
 3843SOL    HW130216   8.202   4.083   6.988
 3843SOL    HW230217   8.127   4.166   7.107
 3844SOL     OW30218   5.427   1.588   1.198
 3844SOL    HW130219   5.405   1.632   1.111
 3844SOL    HW230220   5.352   1.602   1.263
 3845SOL     OW30221   1.392   1.762   6.959
 3845SOL    HW130222   1.446   1.679   6.976
 3845SOL    HW230223   1.305   1.737   6.917
 3846SOL     OW30224   9.547   1.258   7.117
 3846SOL    HW130225   9.486   1.241   7.039
 3846SOL    HW230226   9.525   1.194   7.191
 3847SOL     OW30227   1.740   1.411   0.889
 3847SOL    HW130228   1.725   1.509   0.878
 3847SOL    HW230229   1.835   1.389   0.866
 3848SOL     OW30230   6.421   9.684   7.428
 3848SOL    HW130231   6.390   9.756   7.366
 3848SOL    HW230232   6.351   9.612   7.433
 3849SOL     OW30233   1.823   0.011   0.383
 3849SOL    HW130234   1.850  10.417   0.383
 3849SOL    HW230235   1.904   0.067   0.401
 3850SOL     OW30236   5.611   9.777   6.438
 3850SOL    HW130237   5.547   9.797   6.364
 3850SOL    HW230238   5.705   9.781   6.405
 3851SOL     OW30239   7.240   5.636   0.254
 3851SOL    HW130240   7.338   5.626   0.242
 3851SOL    HW230241   7.196   5.546   0.247
 3852SOL     OW30242   9.230  10.065   1.963
 3852SOL    HW130243   9.320  10.109   1.960
 3852SOL    HW230244   9.241   9.971   1.994
 3853SOL     OW30245   6.111   9.442   7.241
 3853SOL    HW130246   6.153   9.451   7.331
 3853SOL    HW230247   6.021   9.486   7.241
 3854SOL     OW30248   7.716   2.826   1.298
 3854SOL    HW130249   7.789   2.791   1.358
 3854SOL    HW230250   7.627   2.809   1.341
 3855SOL     OW30251   5.188   8.425   1.370
 3855SOL    HW130252   5.212   8.480   1.290
 3855SOL    HW230253   5.089   8.422   1.380
 3856SOL     OW30254   8.508  10.065   1.218
 3856SOL    HW130255   8.501  10.049   1.119
 3856SOL    HW230256   8.418  10.052   1.260
 3857SOL     OW30257   7.526   2.134   7.122
 3857SOL    HW130258   7.476   2.067   7.177
 3857SOL    HW230259   7.603   2.088   7.077
 3858SOL     OW30260   7.675   9.663   7.851
 3858SOL    HW130261   7.642   9.630   7.939
 3858SOL    HW230262   7.775   9.670   7.853
 3859SOL     OW30263   2.236   9.057   6.014
 3859SOL    HW130264   2.192   9.120   6.077
 3859SOL    HW230265   2.331   9.043   6.042
 3860SOL     OW30266   1.188   7.125   7.709
 3860SOL    HW130267   1.248   7.045   7.713
 3860SOL    HW230268   1.186   7.169   7.799
 3861SOL     OW30269   9.808   2.810   7.403
 3861SOL    HW130270   9.786   2.800   7.500
 3861SOL    HW230271   9.762   2.891   7.366
 3862SOL     OW30272   3.915   4.364   7.232
 3862SOL    HW130273   3.848   4.438   7.228
 3862SOL    HW230274   3.921   4.328   7.325
 3863SOL     OW30275   9.922   9.402   6.928
 3863SOL    HW130276   9.929   9.390   6.829
 3863SOL    HW230277   9.913   9.500   6.950
 3864SOL     OW30278   0.183   4.405   1.158
 3864SOL    HW130279   0.221   4.444   1.242
 3864SOL    HW230280   0.248   4.416   1.083
 3865SOL     OW30281   8.932   3.605   6.057
 3865SOL    HW130282   8.891   3.693   6.036
 3865SOL    HW230283   8.953   3.601   6.155
 3866SOL     OW30284   1.700   3.340   8.647
 3866SOL    HW130285   1.762   3.284   8.703
 3866SOL    HW230286   1.637   3.280   8.598
 3867SOL     OW30287   3.369   0.960   8.042
 3867SOL    HW130288   3.287   1.014   8.063
 3867SOL    HW230289   3.361   0.870   8.086
 3868SOL     OW30290   2.979   7.344   7.977
 3868SOL    HW130291   2.910   7.320   8.045
 3868SOL    HW230292   3.048   7.272   7.972
 3869SOL     OW30293   1.782   6.070   7.916
 3869SOL    HW130294   1.764   5.998   7.984
 3869SOL    HW230295   1.793   6.158   7.963
 3870SOL     OW30296   2.348   7.277   8.541
 3870SOL    HW130297   2.388   7.237   8.623
 3870SOL    HW230298   2.274   7.219   8.508
 3871SOL     OW30299   4.826   1.939   8.178
 3871SOL    HW130300   4.749   1.916   8.118
 3871SOL    HW230301   4.813   1.897   8.267
 3872SOL     OW30302   7.416   3.841   1.409
 3872SOL    HW130303   7.477   3.902   1.360
 3872SOL    HW230304   7.324   3.849   1.373
 3873SOL     OW30305   4.008   9.529   1.274
 3873SOL    HW130306   4.043   9.468   1.203
 3873SOL    HW230307   3.973   9.475   1.350
 3874SOL     OW30308   0.801   9.299   0.201
 3874SOL    HW130309   0.820   9.231   0.272
 3874SOL    HW230310   0.703   9.319   0.200
 3875SOL     OW30311   9.324   5.276   8.330
 3875SOL    HW130312   9.241   5.271   8.385
 3875SOL    HW230313   9.360   5.369   8.333
 3876SOL     OW30314   8.660   5.459   7.707
 3876SOL    HW130315   8.728   5.386   7.706
 3876SOL    HW230316   8.697   5.540   7.661
 3877SOL     OW30317   6.259   0.161   1.416
 3877SOL    HW130318   6.237   0.066   1.440
 3877SOL    HW230319   6.355   0.179   1.439
 3878SOL     OW30320   0.370   6.603   8.531
 3878SOL    HW130321   0.452   6.549   8.548
 3878SOL    HW230322   0.346   6.596   8.434
 3879SOL     OW30323   2.715   0.365   0.988
 3879SOL    HW130324   2.639   0.412   0.943
 3879SOL    HW230325   2.801   0.404   0.958
 3880SOL     OW30326   6.354   6.822   8.782
 3880SOL    HW130327   6.254   6.823   8.780
 3880SOL    HW230328   6.385   6.776   0.083
 3881SOL     OW30329   7.213   5.501   8.257
 3881SOL    HW130330   7.184   5.410   8.286
 3881SOL    HW230331   7.272   5.542   8.328
 3882SOL     OW30332   1.240   0.845   0.690
 3882SOL    HW130333   1.222   0.943   0.698
 3882SOL    HW230334   1.337   0.827   0.709
 3883SOL     OW30335   3.158   0.004   6.851
 3883SOL    HW130336   3.252  10.502   6.886
 3883SOL    HW230337   3.151  10.458   6.765
 3884SOL     OW30338  10.114   7.898   1.294
 3884SOL    HW130339  10.153   7.864   1.380
 3884SOL    HW230340  10.141   7.838   1.219
 3885SOL     OW30341   4.613   1.840   1.627
 3885SOL    HW130342   4.638   1.937   1.622
 3885SOL    HW230343   4.548   1.827   1.702
 3886SOL     OW30344  10.031   4.595   1.844
 3886SOL    HW130345   9.991   4.507   1.868
 3886SOL    HW230346  10.128   4.584   1.822
 3887SOL     OW30347   0.161   0.913   8.590
 3887SOL    HW130348   0.259   0.900   8.607
 3887SOL    HW230349   0.149   0.976   8.514
 3888SOL     OW30350   4.668   5.095   8.026
 3888SOL    HW130351   4.621   5.179   8.052
 3888SOL    HW230352   4.669   5.032   8.104
 3889SOL     OW30353   4.945   8.831   0.124
 3889SOL    HW130354   4.887   8.913   0.118
 3889SOL    HW230355   5.022   8.849   0.185
 3890SOL     OW30356   9.629   5.305   0.617
 3890SOL    HW130357   9.575   5.369   0.563
 3890SOL    HW230358   9.568   5.238   0.660
 3891SOL     OW30359   7.590   3.463   1.529
 3891SOL    HW130360   7.655   3.389   1.512
 3891SOL    HW230361   7.551   3.453   1.621
 3892SOL     OW30362   4.633   9.183   7.747
 3892SOL    HW130363   4.685   9.253   7.796
 3892SOL    HW230364   4.696   9.127   7.693
 3893SOL     OW30365   5.851   0.586   8.517
 3893SOL    HW130366   5.762   0.632   8.519
 3893SOL    HW230367   5.888   0.590   8.424
 3894SOL     OW30368   1.751   4.562   0.105
 3894SOL    HW130369   1.792   4.605   0.025
 3894SOL    HW230370   1.688   4.490   0.076
 3895SOL     OW30371   2.592   6.820   0.577
 3895SOL    HW130372   2.606   6.792   0.672
 3895SOL    HW230373   2.565   6.916   0.574
 3896SOL     OW30374   6.331   8.043   8.123
 3896SOL    HW130375   6.274   7.963   8.142
 3896SOL    HW230376   6.272   8.123   8.114
 3897SOL     OW30377  10.127   7.786   8.775
 3897SOL    HW130378  10.126   7.885   8.763
 3897SOL    HW230379   0.062   7.752   8.759
 3898SOL     OW30380   0.793  10.056   1.644
 3898SOL    HW130381   0.790   9.981   1.710
 3898SOL    HW230382   0.886  10.064   1.607
 3899SOL     OW30383   9.422   5.015   6.557
 3899SOL    HW130384   9.453   5.080   6.625
 3899SOL    HW230385   9.366   4.945   6.601
 3900SOL     OW30386   4.678   6.929   7.771
 3900SOL    HW130387   4.695   6.958   7.866
 3900SOL    HW230388   4.764   6.901   7.729
 3901SOL     OW30389   6.964   0.806   7.661
 3901SOL    HW130390   6.947   0.905   7.662
 3901SOL    HW230391   7.017   0.783   7.579
 3902SOL     OW30392   5.547   9.883   7.812
 3902SOL    HW130393   5.612   9.814   7.781
 3902SOL    HW230394   5.537   9.878   7.911
 3903SOL     OW30395   6.675   8.492   0.930
 3903SOL    HW130396   6.644   8.400   0.910
 3903SOL    HW230397   6.632   8.524   1.015
 3904SOL     OW30398   4.693   8.730   1.483
 3904SOL    HW130399   4.772   8.688   1.528
 3904SOL    HW230400   4.679   8.688   1.394
 3905SOL     OW30401   9.142   6.782   7.555
 3905SOL    HW130402   9.223   6.842   7.555
 3905SOL    HW230403   9.159   6.702   7.612
 3906SOL     OW30404   5.629   4.259   0.731
 3906SOL    HW130405   5.686   4.193   0.779
 3906SOL    HW230406   5.619   4.342   0.787
 3907SOL     OW30407   6.879   1.234   8.068
 3907SOL    HW130408   6.887   1.177   8.150
 3907SOL    HW230409   6.783   1.254   8.050
 3908SOL     OW30410   8.191   4.681   1.675
 3908SOL    HW130411   8.101   4.642   1.656
 3908SOL    HW230412   8.186   4.737   1.757
 3909SOL     OW30413   2.545   4.804   2.239
 3909SOL    HW130414   2.482   4.880   2.256
 3909SOL    HW230415   2.518   4.725   2.294
 3910SOL     OW30416   9.182   0.091   0.505
 3910SOL    HW130417   9.099   0.066   0.456
 3910SOL    HW230418   9.238   0.150   0.448
 3911SOL     OW30419   5.562   0.236   1.143
 3911SOL    HW130420   5.483   0.193   1.188
 3911SOL    HW230421   5.535   0.267   1.052
 3912SOL     OW30422   6.876  10.148   8.651
 3912SOL    HW130423   6.891  10.051   8.672
 3912SOL    HW230424   6.959  10.200   8.671
 3913SOL     OW30425   6.066   4.521   7.306
 3913SOL    HW130426   6.150   4.574   7.317
 3913SOL    HW230427   6.083   4.446   7.242
 3914SOL     OW30428   2.564   8.450   8.186
 3914SOL    HW130429   2.627   8.426   8.113
 3914SOL    HW230430   2.613   8.453   8.273
 3915SOL     OW30431   3.561   6.898   6.828
 3915SOL    HW130432   3.626   6.929   6.897
 3915SOL    HW230433   3.610   6.872   6.745
 3916SOL     OW30434   0.491   2.387   2.130
 3916SOL    HW130435   0.469   2.404   2.034
 3916SOL    HW230436   0.575   2.436   2.154
 3917SOL     OW30437   6.377   2.090   6.697
 3917SOL    HW130438   6.308   2.018   6.696
 3917SOL    HW230439   6.403   2.109   6.792
 3918SOL     OW30440   1.096   3.473   1.171
 3918SOL    HW130441   1.134   3.489   1.261
 3918SOL    HW230442   1.001   3.506   1.168
 3919SOL     OW30443   0.726   4.200   6.821
 3919SOL    HW130444   0.779   4.120   6.793
 3919SOL    HW230445   0.772   4.284   6.791
 3920SOL     OW30446   7.847   6.802   7.308
 3920SOL    HW130447   7.831   6.718   7.360
 3920SOL    HW230448   7.761   6.852   7.297
 3921SOL     OW30449   2.088   5.392   0.723
 3921SOL    HW130450   2.156   5.323   0.699
 3921SOL    HW230451   2.114   5.480   0.684
 3922SOL     OW30452   9.242   8.341   8.730
 3922SOL    HW130453   9.259   8.393   0.032
 3922SOL    HW230454   9.199   8.254   8.753
 3923SOL     OW30455   4.862   4.325   6.175
 3923SOL    HW130456   4.827   4.393   6.239
 3923SOL    HW230457   4.951   4.293   6.206
 3924SOL     OW30458   1.425   8.001   8.392
 3924SOL    HW130459   1.514   8.045   8.403
 3924SOL    HW230460   1.411   7.981   8.295
 3925SOL     OW30461   4.096   9.352   1.078
 3925SOL    HW130462   4.082   9.382   0.983
 3925SOL    HW230463   4.025   9.284   1.101
 3926SOL     OW30464  10.005   2.226   7.372
 3926SOL    HW130465   9.991   2.130   7.393
 3926SOL    HW230466   9.976   2.282   7.450
 3927SOL     OW30467   6.788   3.595   7.926
 3927SOL    HW130468   6.862   3.661   7.911
 3927SOL    HW230469   6.757   3.559   7.838
 3928SOL     OW30470   7.223   8.435   8.447
 3928SOL    HW130471   7.158   8.463   8.376
 3928SOL    HW230472   7.310   8.410   8.404
 3929SOL     OW30473   1.421   7.345   1.484
 3929SOL    HW130474   1.420   7.425   1.423
 3929SOL    HW230475   1.332   7.338   1.530
 3930SOL     OW30476   6.342   3.837   0.303
 3930SOL    HW130477   6.338   3.937   0.301
 3930SOL    HW230478   6.399   3.807   0.379
 3931SOL     OW30479   1.501   0.556   1.110
 3931SOL    HW130480   1.579   0.587   1.056
 3931SOL    HW230481   1.466   0.632   1.165
 3932SOL     OW30482   6.916   9.338   6.843
 3932SOL    HW130483   6.948   9.263   6.902
 3932SOL    HW230484   6.846   9.304   6.781
 3933SOL     OW30485   8.810   2.705   0.865
 3933SOL    HW130486   8.783   2.703   0.769
 3933SOL    HW230487   8.886   2.768   0.877
 3934SOL     OW30488   3.964   9.501   7.288
 3934SOL    HW130489   4.001   9.456   7.206
 3934SOL    HW230490   3.865   9.484   7.293
 3935SOL     OW30491   1.610   4.776   0.878
 3935SOL    HW130492   1.612   4.711   0.802
 3935SOL    HW230493   1.679   4.847   0.862
 3936SOL     OW30494   0.112   5.512   8.747
 3936SOL    HW130495   0.181   5.573   8.709
 3936SOL    HW230496   0.149   5.464   0.044
 3937SOL     OW30497   3.909   7.982   8.365
 3937SOL    HW130498   3.821   8.008   8.325
 3937SOL    HW230499   3.896   7.960   8.462
 3938SOL     OW30500   3.759   6.248   7.556
 3938SOL    HW130501   3.672   6.264   7.603
 3938SOL    HW230502   3.802   6.165   7.593
 3939SOL     OW30503   5.943   5.762   0.563
 3939SOL    HW130504   5.963   5.730   0.655
 3939SOL    HW230505   6.027   5.762   0.509
 3940SOL     OW30506   1.130   5.970   0.812
 3940SOL    HW130507   1.058   6.033   0.841
 3940SOL    HW230508   1.219   6.013   0.823
 3941SOL     OW30509   8.162   9.358   7.505
 3941SOL    HW130510   8.115   9.272   7.486
 3941SOL    HW230511   8.111   9.410   7.573
 3942SOL     OW30512   0.858   5.083   0.931
 3942SOL    HW130513   0.926   5.040   0.872
 3942SOL    HW230514   0.839   5.024   1.010
 3943SOL     OW30515   3.791   8.285   1.142
 3943SOL    HW130516   3.779   8.228   1.061
 3943SOL    HW230517   3.772   8.231   1.224
 3944SOL     OW30518   0.919   6.558   1.736
 3944SOL    HW130519   1.017   6.545   1.749
 3944SOL    HW230520   0.887   6.632   1.795
 3945SOL     OW30521   8.489   4.628   8.727
 3945SOL    HW130522   8.582   4.593   8.711
 3945SOL    HW230523   8.473   4.635   0.044
 3946SOL     OW30524   7.700   9.699   7.574
 3946SOL    HW130525   7.684   9.682   7.671
 3946SOL    HW230526   7.622   9.665   7.520
 3947SOL     OW30527   5.069   7.050   7.557
 3947SOL    HW130528   5.051   7.054   7.459
 3947SOL    HW230529   5.032   7.131   7.601
 3948SOL     OW30530   1.438  10.466   8.178
 3948SOL    HW130531   1.356   0.020   8.188
 3948SOL    HW230532   1.412  10.376   8.142
 3949SOL     OW30533   1.650   1.180   0.764
 3949SOL    HW130534   1.684   1.261   0.812
 3949SOL    HW230535   1.551   1.173   0.775
 3950SOL     OW30536   8.590   9.319   7.181
 3950SOL    HW130537   8.649   9.395   7.207
 3950SOL    HW230538   8.507   9.321   7.237
 3951SOL     OW30539   2.114   2.353   1.568
 3951SOL    HW130540   2.120   2.273   1.628
 3951SOL    HW230541   2.071   2.429   1.618
 3952SOL     OW30542   2.330   4.576   7.978
 3952SOL    HW130543   2.276   4.492   7.994
 3952SOL    HW230544   2.410   4.575   8.038
 3953SOL     OW30545   2.414   6.565   6.015
 3953SOL    HW130546   2.389   6.504   6.090
 3953SOL    HW230547   2.334   6.620   5.989
 3954SOL     OW30548   2.733   1.102   1.355
 3954SOL    HW130549   2.687   1.153   1.429
 3954SOL    HW230550   2.668   1.086   1.281
 3955SOL     OW30551   4.589   2.534   0.467
 3955SOL    HW130552   4.516   2.472   0.441
 3955SOL    HW230553   4.571   2.571   0.558
 3956SOL     OW30554   3.576   4.026   0.526
 3956SOL    HW130555   3.518   3.978   0.592
 3956SOL    HW230556   3.564   3.986   0.436
 3957SOL     OW30557   7.403   0.473   7.038
 3957SOL    HW130558   7.454   0.465   6.953
 3957SOL    HW230559   7.342   0.394   7.048
 3958SOL     OW30560   9.292   6.593   6.459
 3958SOL    HW130561   9.194   6.576   6.465
 3958SOL    HW230562   9.339   6.546   6.534
 3959SOL     OW30563   2.260   6.800   2.209
 3959SOL    HW130564   2.359   6.797   2.194
 3959SOL    HW230565   2.237   6.741   2.286
 3960SOL     OW30566   0.890   5.374   0.414
 3960SOL    HW130567   0.813   5.408   0.361
 3960SOL    HW230568   0.966   5.438   0.407
 3961SOL     OW30569   2.462   2.441   6.442
 3961SOL    HW130570   2.448   2.358   6.388
 3961SOL    HW230571   2.380   2.498   6.438
 3962SOL     OW30572   9.600   0.003   0.924
 3962SOL    HW130573   9.627   0.096   0.899
 3962SOL    HW230574   9.673  10.463   0.976
 3963SOL     OW30575   0.170   6.239   8.560
 3963SOL    HW130576   0.074   6.252   8.534
 3963SOL    HW230577   0.177   6.163   8.625
 3964SOL     OW30578   2.897   4.275   8.528
 3964SOL    HW130579   2.939   4.250   8.440
 3964SOL    HW230580   2.895   4.375   8.537
 3965SOL     OW30581   7.137   1.991   8.298
 3965SOL    HW130582   7.138   1.956   8.391
 3965SOL    HW230583   7.042   2.007   8.270
 3966SOL     OW30584   8.112   6.517   0.417
 3966SOL    HW130585   8.095   6.576   0.338
 3966SOL    HW230586   8.048   6.539   0.490
 3967SOL     OW30587   3.072   0.994   0.502
 3967SOL    HW130588   2.994   1.053   0.524
 3967SOL    HW230589   3.147   1.013   0.566
 3968SOL     OW30590   7.520   5.641   0.230
 3968SOL    HW130591   7.596   5.628   0.293
 3968SOL    HW230592   7.549   5.617   0.137
 3969SOL     OW30593   3.545   5.633   1.823
 3969SOL    HW130594   3.492   5.687   1.888
 3969SOL    HW230595   3.631   5.604   1.865
 3970SOL     OW30596   5.376   3.384   8.480
 3970SOL    HW130597   5.402   3.356   8.387
 3970SOL    HW230598   5.284   3.350   8.501
 3971SOL     OW30599   3.970   8.991   0.356
 3971SOL    HW130600   3.924   9.077   0.375
 3971SOL    HW230601   4.050   9.007   0.299
 3972SOL     OW30602   7.779   2.170   1.688
 3972SOL    HW130603   7.856   2.125   1.643
 3972SOL    HW230604   7.781   2.267   1.668
 3973SOL     OW30605   6.192   9.102   1.110
 3973SOL    HW130606   6.143   9.089   1.023
 3973SOL    HW230607   6.273   9.043   1.111
 3974SOL     OW30608   3.669   4.412   7.906
 3974SOL    HW130609   3.749   4.454   7.949
 3974SOL    HW230610   3.622   4.355   7.972
 3975SOL     OW30611   3.301   6.494   6.676
 3975SOL    HW130612   3.341   6.558   6.742
 3975SOL    HW230613   3.337   6.402   6.692
 3976SOL     OW30614   0.072   7.598   0.732
 3976SOL    HW130615   0.114   7.689   0.722
 3976SOL    HW230616  10.156   7.588   0.664
 3977SOL     OW30617   4.566  10.271   6.598
 3977SOL    HW130618   4.567  10.272   6.498
 3977SOL    HW230619   4.528  10.185   6.630
 3978SOL     OW30620   4.404   3.198   1.236
 3978SOL    HW130621   4.418   3.106   1.199
 3978SOL    HW230622   4.407   3.195   1.335
 3979SOL     OW30623   2.940   0.811   1.188
 3979SOL    HW130624   3.000   0.862   1.249
 3979SOL    HW230625   2.890   0.741   1.239
 3980SOL     OW30626   9.727   8.230   6.419
 3980SOL    HW130627   9.769   8.277   6.497
 3980SOL    HW230628   9.756   8.273   6.334
 3981SOL     OW30629   2.466   3.169   8.412
 3981SOL    HW130630   2.483   3.151   8.509
 3981SOL    HW230631   2.372   3.145   8.390
 3982SOL     OW30632   4.002   7.060   8.640
 3982SOL    HW130633   4.092   7.100   8.658
 3982SOL    HW230634   3.977   7.077   8.544
 3983SOL     OW30635   7.588   4.636   7.876
 3983SOL    HW130636   7.605   4.540   7.896
 3983SOL    HW230637   7.536   4.677   7.951
 3984SOL     OW30638   7.288   3.411   7.103
 3984SOL    HW130639   7.245   3.329   7.064
 3984SOL    HW230640   7.375   3.427   7.056
 3985SOL     OW30641   4.709   6.755   7.062
 3985SOL    HW130642   4.693   6.656   7.069
 3985SOL    HW230643   4.635   6.804   7.109
 3986SOL     OW30644   3.294   0.415   0.350
 3986SOL    HW130645   3.277   0.395   0.446
 3986SOL    HW230646   3.221   0.474   0.315
 3987SOL     OW30647   7.022   2.350   7.889
 3987SOL    HW130648   6.980   2.276   7.837
 3987SOL    HW230649   7.008   2.334   7.987
 3988SOL     OW30650   5.467   6.900   1.543
 3988SOL    HW130651   5.428   6.981   1.498
 3988SOL    HW230652   5.556   6.922   1.582
 3989SOL     OW30653   9.007   4.945   6.464
 3989SOL    HW130654   8.961   5.031   6.446
 3989SOL    HW230655   9.047   4.946   6.556
 3990SOL     OW30656   9.489   4.688   7.711
 3990SOL    HW130657   9.547   4.667   7.790
 3990SOL    HW230658   9.397   4.654   7.728
 3991SOL     OW30659   9.977   4.910   0.964
 3991SOL    HW130660   9.970   4.993   0.910
 3991SOL    HW230661   9.982   4.831   0.903
 3992SOL     OW30662   6.755   1.880   1.376
 3992SOL    HW130663   6.714   1.842   1.294
 3992SOL    HW230664   6.689   1.874   1.452
 3993SOL     OW30665   1.239   7.494   6.896
 3993SOL    HW130666   1.279   7.577   6.857
 3993SOL    HW230667   1.149   7.478   6.858
 3994SOL     OW30668   6.366   9.074   2.542
 3994SOL    HW130669   6.362   8.986   2.589
 3994SOL    HW230670   6.284   9.086   2.486
 3995SOL     OW30671   5.150   8.760   6.625
 3995SOL    HW130672   5.132   8.858   6.631
 3995SOL    HW230673   5.222   8.743   6.557
 3996SOL     OW30674   4.301   0.005   0.921
 3996SOL    HW130675   4.316  10.410   0.910
 3996SOL    HW230676   4.387   0.054   0.903
 3997SOL     OW30677   7.671   1.853   1.506
 3997SOL    HW130678   7.694   1.820   1.598
 3997SOL    HW230679   7.588   1.908   1.510
 3998SOL     OW30680   0.483   0.271   8.706
 3998SOL    HW130681   0.474   0.359   8.753
 3998SOL    HW230682   0.394   0.243   8.669
 3999SOL     OW30683   6.978   3.302   8.755
 3999SOL    HW130684   6.884   3.336   8.765
 3999SOL    HW230685   7.033   3.370   8.707
 4000SOL     OW30686   6.697   5.341   7.876
 4000SOL    HW130687   6.777   5.394   7.904
 4000SOL    HW230688   6.618   5.367   7.931
 4001SOL     OW30689   4.851   0.524   0.440
 4001SOL    HW130690   4.888   0.448   0.494
 4001SOL    HW230691   4.873   0.511   0.344
 4002SOL     OW30692   5.179   1.582   6.733
 4002SOL    HW130693   5.181   1.664   6.675
 4002SOL    HW230694   5.143   1.606   6.823
 4003SOL     OW30695   1.616   7.696   8.379
 4003SOL    HW130696   1.714   7.704   8.359
 4003SOL    HW230697   1.601   7.701   8.477
 4004SOL     OW30698   1.792   5.758   0.243
 4004SOL    HW130699   1.862   5.717   0.301
 4004SOL    HW230700   1.832   5.783   0.154
 4005SOL     OW30701   5.661   4.441   8.094
 4005SOL    HW130702   5.686   4.474   8.003
 4005SOL    HW230703   5.681   4.343   8.101
 4006SOL     OW30704   8.977   2.406   1.920
 4006SOL    HW130705   9.058   2.414   1.978
 4006SOL    HW230706   8.985   2.469   1.843
 4007SOL     OW30707   6.757   6.977   8.029
 4007SOL    HW130708   6.798   7.023   8.107
 4007SOL    HW230709   6.657   6.989   8.031
 4008SOL     OW30710   0.939   8.831   1.306
 4008SOL    HW130711   0.969   8.889   1.230
 4008SOL    HW230712   0.991   8.746   1.306
 4009SOL     OW30713   3.110   4.015   2.001
 4009SOL    HW130714   3.123   4.114   1.993
 4009SOL    HW230715   3.153   3.982   2.085
 4010SOL     OW30716   2.383   3.033   1.296
 4010SOL    HW130717   2.363   3.110   1.236
 4010SOL    HW230718   2.442   2.967   1.248
 4011SOL     OW30719   0.406   4.913   0.932
 4011SOL    HW130720   0.431   4.974   1.007
 4011SOL    HW230721   0.327   4.859   0.959
 4012SOL     OW30722   3.311   7.436   8.498
 4012SOL    HW130723   3.222   7.466   8.464
 4012SOL    HW230724   3.303   7.344   8.537
 4013SOL     OW30725   6.055   7.534   7.991
 4013SOL    HW130726   6.048   7.627   7.956
 4013SOL    HW230727   6.145   7.496   7.967
 4014SOL     OW30728   1.010   7.826   7.379
 4014SOL    HW130729   0.946   7.768   7.430
 4014SOL    HW230730   1.047   7.774   7.302
 4015SOL     OW30731   9.835   7.278   1.171
 4015SOL    HW130732   9.784   7.359   1.200
 4015SOL    HW230733   9.892   7.246   1.247
 4016SOL     OW30734   8.805  10.421   7.207
 4016SOL    HW130735   8.768   0.002   7.167
 4016SOL    HW230736   8.753  10.342   7.174
 4017SOL     OW30737   3.619  10.415   0.353
 4017SOL    HW130738   3.520  10.418   0.345
 4017SOL    HW230739   3.660  10.410   0.262
 4018SOL     OW30740   6.979   6.906   1.160
 4018SOL    HW130741   6.955   6.819   1.118
 4018SOL    HW230742   6.959   6.980   1.096
 4019SOL     OW30743   8.741   1.179   2.134
 4019SOL    HW130744   8.715   1.083   2.136
 4019SOL    HW230745   8.743   1.215   2.227
 4020SOL     OW30746   1.564   0.431   6.401
 4020SOL    HW130747   1.655   0.473   6.393
 4020SOL    HW230748   1.557   0.355   6.336
 4021SOL     OW30749   5.720   1.266   0.498
 4021SOL    HW130750   5.739   1.358   0.534
 4021SOL    HW230751   5.794   1.204   0.524
 4022SOL     OW30752   4.070   6.157   7.163
 4022SOL    HW130753   4.057   6.090   7.091
 4022SOL    HW230754   3.983   6.203   7.181
 4023SOL     OW30755   9.444   9.444   7.961
 4023SOL    HW130756   9.474   9.536   7.985
 4023SOL    HW230757   9.344   9.438   7.969
 4024SOL     OW30758   7.590  10.303   7.840
 4024SOL    HW130759   7.667  10.366   7.852
 4024SOL    HW230760   7.511  10.353   7.806
 4025SOL     OW30761   5.280   5.688   0.705
 4025SOL    HW130762   5.314   5.739   0.783
 4025SOL    HW230763   5.314   5.594   0.709
 4026SOL     OW30764   1.574   1.456   1.546
 4026SOL    HW130765   1.603   1.515   1.471
 4026SOL    HW230766   1.478   1.473   1.567
 4027SOL     OW30767   4.469   7.106   7.718
 4027SOL    HW130768   4.457   7.125   7.621
 4027SOL    HW230769   4.548   7.046   7.731
 4028SOL     OW30770   7.628   6.860   7.689
 4028SOL    HW130771   7.713   6.807   7.695
 4028SOL    HW230772   7.578   6.853   7.775
 4029SOL     OW30773   8.097   6.416   8.314
 4029SOL    HW130774   8.166   6.392   8.382
 4029SOL    HW230775   8.019   6.458   8.359
 4030SOL     OW30776   9.818   6.040   8.112
 4030SOL    HW130777   9.869   6.056   8.028
 4030SOL    HW230778   9.721   6.060   8.097
 4031SOL     OW30779   3.074   9.903   7.761
 4031SOL    HW130780   3.056   9.812   7.800
 4031SOL    HW230781   3.150   9.946   7.808
 4032SOL     OW30782   1.678   2.998   8.349
 4032SOL    HW130783   1.623   2.916   8.335
 4032SOL    HW230784   1.698   3.041   8.261
 4033SOL     OW30785   7.498   4.389   6.856
 4033SOL    HW130786   7.491   4.446   6.775
 4033SOL    HW230787   7.425   4.320   6.854
 4034SOL     OW30788   3.442  10.322   0.959
 4034SOL    HW130789   3.374  10.396   0.962
 4034SOL    HW230790   3.520  10.352   0.904
 4035SOL     OW30791   5.489   1.054   7.154
 4035SOL    HW130792   5.528   1.075   7.064
 4035SOL    HW230793   5.520   1.123   7.220
 4036SOL     OW30794  10.059   5.884   1.567
 4036SOL    HW130795  10.017   5.794   1.582
 4036SOL    HW230796  10.134   5.898   1.632
 4037SOL     OW30797   0.232   1.864   1.816
 4037SOL    HW130798   0.208   1.937   1.880
 4037SOL    HW230799   0.162   1.792   1.819
 4038SOL     OW30800   6.876   8.097   0.554
 4038SOL    HW130801   6.902   8.193   0.545
 4038SOL    HW230802   6.932   8.041   0.493
 4039SOL     OW30803   2.214   1.171   0.773
 4039SOL    HW130804   2.198   1.078   0.804
 4039SOL    HW230805   2.312   1.190   0.771
 4040SOL     OW30806   9.471   0.643   7.003
 4040SOL    HW130807   9.422   0.580   7.063
 4040SOL    HW230808   9.426   0.732   7.004
 4041SOL     OW30809   7.123   9.747   2.503
 4041SOL    HW130810   7.053   9.750   2.574
 4041SOL    HW230811   7.156   9.839   2.484
 4042SOL     OW30812   3.337   5.267   0.233
 4042SOL    HW130813   3.280   5.346   0.212
 4042SOL    HW230814   3.332   5.201   0.158
 4043SOL     OW30815   4.795   1.940   7.479
 4043SOL    HW130816   4.840   1.906   7.562
 4043SOL    HW230817   4.826   2.033   7.460
 4044SOL     OW30818   8.654   1.275   0.353
 4044SOL    HW130819   8.555   1.268   0.349
 4044SOL    HW230820   8.684   1.271   0.449
 4045SOL     OW30821   3.089   3.792   0.739
 4045SOL    HW130822   3.062   3.875   0.690
 4045SOL    HW230823   3.105   3.814   0.836
 4046SOL     OW30824   6.308   2.529   7.218
 4046SOL    HW130825   6.384   2.483   7.173
 4046SOL    HW230826   6.300   2.496   7.313
 4047SOL     OW30827   4.084   5.652   6.890
 4047SOL    HW130828   4.141   5.730   6.863
 4047SOL    HW230829   4.128   5.568   6.859
 4048SOL     OW30830   6.298   5.713   7.229
 4048SOL    HW130831   6.263   5.759   7.148
 4048SOL    HW230832   6.238   5.637   7.253
 4049SOL     OW30833   0.767   5.767   7.663
 4049SOL    HW130834   0.719   5.728   7.742
 4049SOL    HW230835   0.778   5.697   7.593
 4050SOL     OW30836   2.145   3.001   1.454
 4050SOL    HW130837   2.079   2.964   1.388
 4050SOL    HW230838   2.232   3.015   1.408
 4051SOL     OW30839   0.709   3.388   0.466
 4051SOL    HW130840   0.706   3.361   0.369
 4051SOL    HW230841   0.800   3.422   0.489
 4052SOL     OW30842   6.379   6.043   6.892
 4052SOL    HW130843   6.464   6.074   6.850
 4052SOL    HW230844   6.304   6.050   6.825
 4053SOL     OW30845   1.635   6.474   7.664
 4053SOL    HW130846   1.733   6.489   7.647
 4053SOL    HW230847   1.598   6.413   7.594
 4054SOL     OW30848   4.799   4.421   8.312
 4054SOL    HW130849   4.787   4.436   8.410
 4054SOL    HW230850   4.801   4.510   8.265
 4055SOL     OW30851   9.101   2.488   7.343
 4055SOL    HW130852   9.175   2.481   7.410
 4055SOL    HW230853   9.045   2.568   7.363
 4056SOL     OW30854   9.585   0.076   7.901
 4056SOL    HW130855   9.613   0.031   7.817
 4056SOL    HW230856   9.511   0.141   7.881
 4057SOL     OW30857   2.378   3.472   6.757
 4057SOL    HW130858   2.423   3.549   6.801
 4057SOL    HW230859   2.375   3.487   6.658
 4058SOL     OW30860   4.242   6.159   1.552
 4058SOL    HW130861   4.176   6.141   1.480
 4058SOL    HW230862   4.278   6.251   1.542
 4059SOL     OW30863   6.331   8.311   2.479
 4059SOL    HW130864   6.409   8.265   2.523
 4059SOL    HW230865   6.246   8.269   2.511
 4060SOL     OW30866   5.585   6.951   0.362
 4060SOL    HW130867   5.502   6.993   0.326
 4060SOL    HW230868   5.586   6.854   0.339
 4061SOL     OW30869   0.093   5.564   1.344
 4061SOL    HW130870   0.092   5.652   1.297
 4061SOL    HW230871   0.079   5.578   1.442
 4062SOL     OW30872   1.085   8.913   7.896
 4062SOL    HW130873   1.149   8.855   7.845
 4062SOL    HW230874   1.120   8.929   7.988
 4063SOL     OW30875   7.860   5.281   6.896
 4063SOL    HW130876   7.898   5.192   6.870
 4063SOL    HW230877   7.804   5.270   6.978
 4064SOL     OW30878   9.855   0.384   0.704
 4064SOL    HW130879   9.808   0.455   0.651
 4064SOL    HW230880   9.945   0.418   0.733
 4065SOL     OW30881   6.638  10.227   7.435
 4065SOL    HW130882   6.660  10.160   7.506
 4065SOL    HW230883   6.560  10.196   7.382
 4066SOL     OW30884   5.513   6.084   7.989
 4066SOL    HW130885   5.447   6.104   8.062
 4066SOL    HW230886   5.606   6.090   8.025
 4067SOL     OW30887   9.666  10.341   2.006
 4067SOL    HW130888   9.731  10.395   1.954
 4067SOL    HW230889   9.626  10.397   2.079
 4068SOL     OW30890   1.073   3.565   6.897
 4068SOL    HW130891   1.137   3.505   6.850
 4068SOL    HW230892   1.097   3.661   6.880
 4069SOL     OW30893   9.798   4.972   8.056
 4069SOL    HW130894   9.821   4.875   8.062
 4069SOL    HW230895   9.703   4.982   8.027
 4070SOL     OW30896   7.820   7.379   7.422
 4070SOL    HW130897   7.772   7.303   7.377
 4070SOL    HW230898   7.913   7.384   7.387
 4071SOL     OW30899   3.627   7.394   6.523
 4071SOL    HW130900   3.604   7.314   6.466
 4071SOL    HW230901   3.647   7.472   6.464
 4072SOL     OW30902   6.719   0.328   0.962
 4072SOL    HW130903   6.789   0.393   0.993
 4072SOL    HW230904   6.730   0.241   1.011
 4073SOL     OW30905   9.748   8.732   7.908
 4073SOL    HW130906   9.769   8.658   7.972
 4073SOL    HW230907   9.740   8.695   7.816
 4074SOL     OW30908   9.218   3.080   6.675
 4074SOL    HW130909   9.180   3.173   6.682
 4074SOL    HW230910   9.145   3.014   6.693
 4075SOL     OW30911   0.764   8.652   1.434
 4075SOL    HW130912   0.773   8.664   1.533
 4075SOL    HW230913   0.818   8.722   1.387
 4076SOL     OW30914   3.689   3.980   8.331
 4076SOL    HW130915   3.594   3.950   8.324
 4076SOL    HW230916   3.718   4.021   8.244
 4077SOL     OW30917   4.943   1.225   7.371
 4077SOL    HW130918   4.910   1.158   7.304
 4077SOL    HW230919   4.940   1.185   7.462
 4078SOL     OW30920   4.969   1.973   1.305
 4078SOL    HW130921   4.997   2.052   1.250
 4078SOL    HW230922   4.903   1.919   1.253
 4079SOL     OW30923   2.968   0.394   7.270
 4079SOL    HW130924   3.065   0.402   7.246
 4079SOL    HW230925   2.916   0.365   7.189
 4080SOL     OW30926   2.173   1.775   6.425
 4080SOL    HW130927   2.233   1.768   6.345
 4080SOL    HW230928   2.104   1.702   6.422
 4081SOL     OW30929   6.684   6.744   8.189
 4081SOL    HW130930   6.676   6.806   8.267
 4081SOL    HW230931   6.722   6.793   8.111
 4082SOL     OW30932   8.127   5.300   8.027
 4082SOL    HW130933   8.118   5.363   8.105
 4082SOL    HW230934   8.044   5.304   7.971
 4083SOL     OW30935   8.831   7.606   8.731
 4083SOL    HW130936   8.750   7.661   8.712
 4083SOL    HW230937   8.913   7.663   8.723
 4084SOL     OW30938   8.004   7.831   6.382
 4084SOL    HW130939   8.044   7.784   6.304
 4084SOL    HW230940   7.907   7.849   6.364
 4085SOL     OW30941   1.111   8.243   6.465
 4085SOL    HW130942   1.067   8.272   6.380
 4085SOL    HW230943   1.138   8.147   6.458
 4086SOL     OW30944   4.793   8.484   8.132
 4086SOL    HW130945   4.789   8.580   8.104
 4086SOL    HW230946   4.784   8.425   8.051
 4087SOL     OW30947   9.200   2.858   7.048
 4087SOL    HW130948   9.144   2.778   7.073
 4087SOL    HW230949   9.272   2.829   6.986
 4088SOL     OW30950   9.099   5.335   7.574
 4088SOL    HW130951   9.154   5.346   7.657
 4088SOL    HW230952   9.159   5.320   7.496
 4089SOL     OW30953   0.959   4.263   0.474
 4089SOL    HW130954   1.017   4.331   0.518
 4089SOL    HW230955   0.969   4.270   0.375
 4090SOL     OW30956  10.141   0.934   0.013
 4090SOL    HW130957   0.048   0.934   8.718
 4090SOL    HW230958  10.137   0.842   0.053
 4091SOL     OW30959   4.344   0.015   6.986
 4091SOL    HW130960   4.347   0.063   6.898
 4091SOL    HW230961   4.278   0.060   7.046
 4092SOL     OW30962   0.539   6.484   6.952
 4092SOL    HW130963   0.592   6.399   6.957
 4092SOL    HW230964   0.586   6.555   7.003
 4093SOL     OW30965   2.512   1.486   7.133
 4093SOL    HW130966   2.578   1.486   7.208
 4093SOL    HW230967   2.479   1.579   7.116
 4094SOL     OW30968   1.472   3.491   0.799
 4094SOL    HW130969   1.399   3.452   0.856
 4094SOL    HW230970   1.443   3.579   0.763
 4095SOL     OW30971   1.658   7.670   1.848
 4095SOL    HW130972   1.737   7.622   1.810
 4095SOL    HW230973   1.682   7.711   1.936
 4096SOL     OW30974   9.841   2.638   6.637
 4096SOL    HW130975   9.885   2.723   6.607
 4096SOL    HW230976   9.905   2.562   6.626
 4097SOL     OW30977   2.576   2.189   1.437
 4097SOL    HW130978   2.522   2.119   1.483
 4097SOL    HW230979   2.521   2.232   1.365
 4098SOL     OW30980   8.290   2.806   7.225
 4098SOL    HW130981   8.313   2.899   7.254
 4098SOL    HW230982   8.370   2.747   7.238
 4099SOL     OW30983   7.710   0.169   0.306
 4099SOL    HW130984   7.670   0.159   0.215
 4099SOL    HW230985   7.692   0.087   0.359
 4100SOL     OW30986   7.867   9.624   2.350
 4100SOL    HW130987   7.829   9.532   2.357
 4100SOL    HW230988   7.954   9.621   2.300
 4101SOL     OW30989   7.851  10.495   8.437
 4101SOL    HW130990   7.951  10.491   8.434
 4101SOL    HW230991   7.814  10.423   8.378
 4102SOL     OW30992   1.627   0.156   8.548
 4102SOL    HW130993   1.622   0.255   8.560
 4102SOL    HW230994   1.534   0.119   8.545
 4103SOL     OW30995   2.315   9.054   1.591
 4103SOL    HW130996   2.373   8.996   1.649
 4103SOL    HW230997   2.284   9.133   1.644
 4104SOL     OW30998   3.878   5.369   6.988
 4104SOL    HW130999   3.902   5.371   7.085
 4104SOL    HW231000   3.841   5.458   6.960
 4105SOL     OW31001   3.398   8.203   0.718
 4105SOL    HW131002   3.300   8.183   0.716
 4105SOL    HW231003   3.414   8.284   0.774
 4106SOL     OW31004   5.326   9.692   1.039
 4106SOL    HW131005   5.355   9.778   0.997
 4106SOL    HW231006   5.246   9.707   1.095
 4107SOL     OW31007   9.574  10.218   8.224
 4107SOL    HW131008   9.546  10.251   8.134
 4107SOL    HW231009   9.673  10.223   8.232
 4108SOL     OW31010   9.419   3.684   1.486
 4108SOL    HW131011   9.378   3.661   1.574
 4108SOL    HW231012   9.350   3.678   1.413
 4109SOL     OW31013   5.887   9.792   1.594
 4109SOL    HW131014   5.873   9.702   1.552
 4109SOL    HW231015   5.924   9.855   1.525
 4110SOL     OW31016   2.091  10.158   1.384
 4110SOL    HW131017   2.058  10.096   1.313
 4110SOL    HW231018   2.179  10.197   1.356
 4111SOL     OW31019   6.437   6.120   7.157
 4111SOL    HW131020   6.419   6.087   7.064
 4111SOL    HW231021   6.516   6.071   7.195
 4112SOL     OW31022   6.223   4.577   6.437
 4112SOL    HW131023   6.156   4.565   6.364
 4112SOL    HW231024   6.300   4.515   6.422
 4113SOL     OW31025   1.008   4.583   0.192
 4113SOL    HW131026   0.918   4.577   0.235
 4113SOL    HW231027   1.025   4.677   0.163
 4114SOL     OW31028   3.815   9.009   7.597
 4114SOL    HW131029   3.765   9.064   7.664
 4114SOL    HW231030   3.890   9.062   7.559
 4115SOL     OW31031   4.758   3.495   0.786
 4115SOL    HW131032   4.698   3.515   0.864
 4115SOL    HW231033   4.835   3.559   0.786
 4116SOL     OW31034   4.658   1.951   0.846
 4116SOL    HW131035   4.660   1.969   0.748
 4116SOL    HW231036   4.582   1.889   0.867
 4117SOL     OW31037   4.812   3.380   6.895
 4117SOL    HW131038   4.840   3.303   6.838
 4117SOL    HW231039   4.890   3.440   6.912
 4118SOL     OW31040   7.977   7.102   1.108
 4118SOL    HW131041   7.879   7.087   1.125
 4118SOL    HW231042   7.993   7.113   1.010
 4119SOL     OW31043   0.115   3.743   7.489
 4119SOL    HW131044   0.165   3.814   7.440
 4119SOL    HW231045   0.102   3.771   7.584
 4120SOL     OW31046   6.898   5.428   8.607
 4120SOL    HW131047   6.862   5.408   8.516
 4120SOL    HW231048   6.956   5.510   8.603
 4121SOL     OW31049   8.588   9.866   2.033
 4121SOL    HW131050   8.522   9.920   1.981
 4121SOL    HW231051   8.570   9.877   2.131
 4122SOL     OW31052   5.290  10.339   0.940
 4122SOL    HW131053   5.290  10.336   1.040
 4122SOL    HW231054   5.264  10.250   0.904
 4123SOL     OW31055   2.636   4.833   0.529
 4123SOL    HW131056   2.660   4.781   0.446
 4123SOL    HW231057   2.552   4.796   0.567
 4124SOL     OW31058   7.503   6.869   0.112
 4124SOL    HW131059   7.576   6.804   0.090
 4124SOL    HW231060   7.524   6.914   0.199
 4125SOL     OW31061   7.298   5.875   6.084
 4125SOL    HW131062   7.270   5.943   6.151
 4125SOL    HW231063   7.219   5.821   6.056
 4126SOL     OW31064   5.489   5.109   8.451
 4126SOL    HW131065   5.576   5.157   8.440
 4126SOL    HW231066   5.469   5.097   8.548
 4127SOL     OW31067   3.792   1.947   1.351
 4127SOL    HW131068   3.694   1.966   1.357
 4127SOL    HW231069   3.823   1.901   1.434
 4128SOL     OW31070   5.998   2.951   8.722
 4128SOL    HW131071   5.959   3.043   8.722
 4128SOL    HW231072   6.092   2.955   8.688
 4129SOL     OW31073   7.923  10.113   1.706
 4129SOL    HW131074   8.001  10.051   1.703
 4129SOL    HW231075   7.875  10.110   1.618
 4130SOL     OW31076   7.872   9.389   0.691
 4130SOL    HW131077   7.782   9.430   0.696
 4130SOL    HW231078   7.866   9.292   0.714
 4131SOL     OW31079   9.308   0.728   0.554
 4131SOL    HW131080   9.332   0.633   0.539
 4131SOL    HW231081   9.213   0.743   0.524
 4132SOL     OW31082   5.075   4.948   6.369
 4132SOL    HW131083   5.136   4.914   6.298
 4132SOL    HW231084   5.013   4.874   6.397
 4133SOL     OW31085   0.549   6.770   1.882
 4133SOL    HW131086   0.490   6.721   1.945
 4133SOL    HW231087   0.515   6.863   1.869
 4134SOL     OW31088   4.885   3.836   7.318
 4134SOL    HW131089   4.851   3.742   7.316
 4134SOL    HW231090   4.855   3.885   7.236
 4135SOL     OW31091   7.483   6.870   7.923
 4135SOL    HW131092   7.474   6.777   7.959
 4135SOL    HW231093   7.396   6.918   7.932
 4136SOL     OW31094   0.431   3.854   1.650
 4136SOL    HW131095   0.357   3.833   1.714
 4136SOL    HW231096   0.518   3.859   1.700
 4137SOL     OW31097   4.722   5.832   8.075
 4137SOL    HW131098   4.783   5.839   8.154
 4137SOL    HW231099   4.660   5.910   8.074
 4138SOL     OW31100   7.208   3.704   8.730
 4138SOL    HW131101   7.243   3.680   0.038
 4138SOL    HW231102   7.188   3.621   8.678
 4139SOL     OW31103   3.582   1.407   1.026
 4139SOL    HW131104   3.502   1.396   0.968
 4139SOL    HW231105   3.631   1.320   1.032
 4140SOL     OW31106   1.898   6.582   7.652
 4140SOL    HW131107   1.873   6.643   7.727
 4140SOL    HW231108   1.986   6.539   7.672
 4141SOL     OW31109   0.113  10.453   1.755
 4141SOL    HW131110   0.055  10.372   1.764
 4141SOL    HW231111   0.141  10.463   1.659
 4142SOL     OW31112   4.565   1.289   0.719
 4142SOL    HW131113   4.542   1.204   0.767
 4142SOL    HW231114   4.488   1.318   0.662
 4143SOL     OW31115   1.248   2.244   2.307
 4143SOL    HW131116   1.314   2.177   2.272
 4143SOL    HW231117   1.298   2.320   2.350
 4144SOL     OW31118   6.546   4.770   7.425
 4144SOL    HW131119   6.560   4.834   7.502
 4144SOL    HW231120   6.595   4.804   7.345
 4145SOL     OW31121   8.759   1.712   2.170
 4145SOL    HW131122   8.730   1.762   2.088
 4145SOL    HW231123   8.717   1.754   2.251
 4146SOL     OW31124   5.088   1.446   7.720
 4146SOL    HW131125   4.991   1.440   7.697
 4146SOL    HW231126   5.102   1.422   7.816
 4147SOL     OW31127   1.901   3.370   8.252
 4147SOL    HW131128   1.933   3.325   8.335
 4147SOL    HW231129   1.956   3.340   8.174
 4148SOL     OW31130   7.022   7.535   8.562
 4148SOL    HW131131   7.062   7.446   8.582
 4148SOL    HW231132   7.049   7.601   8.632
 4149SOL     OW31133   3.675   3.373   1.112
 4149SOL    HW131134   3.596   3.342   1.164
 4149SOL    HW231135   3.752   3.387   1.174
 4150SOL     OW31136   9.643   3.928   7.725
 4150SOL    HW131137   9.549   3.930   7.692
 4150SOL    HW231138   9.689   3.846   7.690
 4151SOL     OW31139   7.853   9.295   1.723
 4151SOL    HW131140   7.880   9.273   1.629
 4151SOL    HW231141   7.776   9.237   1.750
 4152SOL     OW31142   2.987   0.681   8.704
 4152SOL    HW131143   3.040   0.717   8.781
 4152SOL    HW231144   2.912   0.624   8.739
 4153SOL     OW31145   6.053   1.613   1.826
 4153SOL    HW131146   6.115   1.607   1.747
 4153SOL    HW231147   6.053   1.525   1.874
 4154SOL     OW31148   3.981   5.320   7.247
 4154SOL    HW131149   3.990   5.392   7.315
 4154SOL    HW231150   3.965   5.232   7.292
 4155SOL     OW31151   8.098   4.531   7.130
 4155SOL    HW131152   8.186   4.490   7.107
 4155SOL    HW231153   8.087   4.617   7.080
 4156SOL     OW31154   7.394   1.686   7.394
 4156SOL    HW131155   7.403   1.589   7.372
 4156SOL    HW231156   7.481   1.722   7.427
 4157SOL     OW31157   1.955   8.764   7.518
 4157SOL    HW131158   1.876   8.717   7.477
 4157SOL    HW231159   1.926   8.814   7.600
 4158SOL     OW31160   0.398   7.644   7.148
 4158SOL    HW131161   0.386   7.545   7.138
 4158SOL    HW231162   0.495   7.667   7.137
 4159SOL     OW31163   6.011   9.098   0.022
 4159SOL    HW131164   6.087   9.070   0.079
 4159SOL    HW231165   5.932   9.121   0.080
 4160SOL     OW31166   0.619   0.561   8.559
 4160SOL    HW131167   0.718   0.574   8.567
 4160SOL    HW231168   0.599   0.476   8.511
 4161SOL     OW31169   3.111  10.170   8.469
 4161SOL    HW131170   3.114  10.095   8.403
 4161SOL    HW231171   3.173  10.150   8.545
 4162SOL     OW31172   8.913   6.457   1.143
 4162SOL    HW131173   8.984   6.528   1.141
 4162SOL    HW231174   8.890   6.430   1.050
 4163SOL     OW31175   3.671   7.867   2.316
 4163SOL    HW131176   3.729   7.838   2.240
 4163SOL    HW231177   3.707   7.952   2.355
 4164SOL     OW31178   7.146   3.466   8.597
 4164SOL    HW131179   7.232   3.420   8.578
 4164SOL    HW231180   7.091   3.470   8.513
 4165SOL     OW31181   8.440   1.468   1.834
 4165SOL    HW131182   8.348   1.468   1.794
 4165SOL    HW231183   8.461   1.377   1.868
 4166SOL     OW31184  10.084   5.268   8.251
 4166SOL    HW131185  10.059   5.361   8.276
 4166SOL    HW231186   0.017   5.267   8.208
 4167SOL     OW31187   5.723   6.831   0.580
 4167SOL    HW131188   5.679   6.745   0.553
 4167SOL    HW231189   5.679   6.906   0.531
 4168SOL     OW31190   2.115   7.067   0.942
 4168SOL    HW131191   2.187   7.003   0.969
 4168SOL    HW231192   2.089   7.123   1.021
 4169SOL     OW31193   7.932   3.684   6.456
 4169SOL    HW131194   8.003   3.754   6.455
 4169SOL    HW231195   7.912   3.656   6.362
 4170SOL     OW31196   6.797   2.609   1.251
 4170SOL    HW131197   6.749   2.662   1.321
 4170SOL    HW231198   6.739   2.602   1.170
 4171SOL     OW31199   3.983   1.583   6.564
 4171SOL    HW131200   4.037   1.501   6.548
 4171SOL    HW231201   3.957   1.588   6.661
 4172SOL     OW31202   9.416   6.753   7.902
 4172SOL    HW131203   9.454   6.696   7.829
 4172SOL    HW231204   9.319   6.769   7.884
 4173SOL     OW31205   4.830   9.934   6.753
 4173SOL    HW131206   4.845   9.996   6.676
 4173SOL    HW231207   4.890   9.855   6.744
 4174SOL     OW31208   8.123   0.670   7.969
 4174SOL    HW131209   8.173   0.586   7.950
 4174SOL    HW231210   8.026   0.650   7.982
 4175SOL     OW31211   9.062   8.942   7.499
 4175SOL    HW131212   9.145   8.957   7.445
 4175SOL    HW231213   9.086   8.893   7.583
 4176SOL     OW31214   2.079   6.189   7.952
 4176SOL    HW131215   1.996   6.217   8.001
 4176SOL    HW231216   2.157   6.244   7.984
 4177SOL     OW31217   7.147   9.613   0.805
 4177SOL    HW131218   7.121   9.519   0.784
 4177SOL    HW231219   7.079   9.676   0.768
 4178SOL     OW31220   0.598   2.200   8.015
 4178SOL    HW131221   0.520   2.138   8.005
 4178SOL    HW231222   0.573   2.276   8.074
 4179SOL     OW31223   2.797   3.193   1.487
 4179SOL    HW131224   2.853   3.145   1.419
 4179SOL    HW231225   2.798   3.291   1.467
 4180SOL     OW31226   9.869   2.645   6.907
 4180SOL    HW131227   9.803   2.582   6.947
 4180SOL    HW231228   9.863   2.642   6.807
 4181SOL     OW31229   8.488   7.793   0.212
 4181SOL    HW131230   8.438   7.721   0.260
 4181SOL    HW231231   8.534   7.852   0.279
 4182SOL     OW31232   8.792   9.663   7.584
 4182SOL    HW131233   8.704   9.710   7.595
 4182SOL    HW231234   8.777   9.565   7.582
 4183SOL     OW31235   5.924   3.628   6.487
 4183SOL    HW131236   5.900   3.716   6.448
 4183SOL    HW231237   5.860   3.558   6.453
 4184SOL     OW31238   8.502   7.781   1.188
 4184SOL    HW131239   8.416   7.799   1.139
 4184SOL    HW231240   8.489   7.799   1.286
 4185SOL     OW31241   5.076   1.844   0.534
 4185SOL    HW131242   5.055   1.795   0.449
 4185SOL    HW231243   5.025   1.803   0.609
 4186SOL     OW31244   1.195   1.650   8.265
 4186SOL    HW131245   1.284   1.613   8.239
 4186SOL    HW231246   1.129   1.633   8.191
 4187SOL     OW31247   8.406   4.037   7.598
 4187SOL    HW131248   8.436   4.126   7.564
 4187SOL    HW231249   8.417   3.968   7.526
 4188SOL     OW31250   2.953   4.149   1.309
 4188SOL    HW131251   2.936   4.240   1.348
 4188SOL    HW231252   2.867   4.102   1.294
 4189SOL     OW31253   0.911   5.688   8.489
 4189SOL    HW131254   0.848   5.764   8.473
 4189SOL    HW231255   0.987   5.694   8.424
 4190SOL     OW31256   0.938   9.815   1.437
 4190SOL    HW131257   0.875   9.821   1.360
 4190SOL    HW231258   0.940   9.721   1.472
 4191SOL     OW31259   5.460   8.680   8.033
 4191SOL    HW131260   5.383   8.629   8.072
 4191SOL    HW231261   5.467   8.662   7.935
 4192SOL     OW31262   2.865   9.196   6.814
 4192SOL    HW131263   2.843   9.261   6.742
 4192SOL    HW231264   2.810   9.113   6.803
 4193SOL     OW31265   4.610   7.643   7.130
 4193SOL    HW131266   4.532   7.634   7.068
 4193SOL    HW231267   4.667   7.720   7.103
 4194SOL     OW31268   4.691   9.237   1.120
 4194SOL    HW131269   4.620   9.173   1.151
 4194SOL    HW231270   4.666   9.275   1.031
 4195SOL     OW31271   7.389   0.756   0.354
 4195SOL    HW131272   7.451   0.763   0.276
 4195SOL    HW231273   7.296   0.773   0.325
 4196SOL     OW31274   7.297   3.955   8.659
 4196SOL    HW131275   7.338   3.956   8.567
 4196SOL    HW231276   7.264   3.863   8.679
 4197SOL     OW31277   3.572   9.743   0.568
 4197SOL    HW131278   3.513   9.705   0.497
 4197SOL    HW231279   3.586   9.841   0.552
 4198SOL     OW31280   2.346   5.607   1.539
 4198SOL    HW131281   2.423   5.608   1.603
 4198SOL    HW231282   2.299   5.519   1.544
 4199SOL     OW31283   9.320   5.949   7.849
 4199SOL    HW131284   9.259   5.878   7.813
 4199SOL    HW231285   9.304   6.035   7.799
 4200SOL     OW31286   6.333   3.866   7.468
 4200SOL    HW131287   6.252   3.891   7.522
 4200SOL    HW231288   6.393   3.946   7.460
 4201SOL     OW31289   8.024   1.976   8.268
 4201SOL    HW131290   8.057   1.882   8.262
 4201SOL    HW231291   8.078   2.034   8.207
 4202SOL     OW31292   7.824   2.565   0.699
 4202SOL    HW131293   7.771   2.497   0.649
 4202SOL    HW231294   7.761   2.628   0.746
 4203SOL     OW31295   2.940   3.100   8.003
 4203SOL    HW131296   2.993   3.057   8.076
 4203SOL    HW231297   3.000   3.119   7.926
 4204SOL     OW31298   1.606   2.556   6.565
 4204SOL    HW131299   1.556   2.489   6.511
 4204SOL    HW231300   1.547   2.590   6.638
 4205SOL     OW31301   7.305   7.982   0.177
 4205SOL    HW131302   7.365   7.907   0.208
 4205SOL    HW231303   7.293   7.976   0.078
 4206SOL     OW31304   9.685   7.302   1.925
 4206SOL    HW131305   9.606   7.308   1.865
 4206SOL    HW231306   9.711   7.206   1.937
 4207SOL     OW31307   4.781   3.863   8.305
 4207SOL    HW131308   4.732   3.826   8.226
 4207SOL    HW231309   4.805   3.789   8.367
 4208SOL     OW31310  10.074   8.396   0.524
 4208SOL    HW131311  10.124   8.417   0.608
 4208SOL    HW231312  10.107   8.455   0.450
 4209SOL     OW31313   5.275   7.008   6.302
 4209SOL    HW131314   5.365   6.974   6.327
 4209SOL    HW231315   5.248   7.081   6.365
 4210SOL     OW31316   4.611   3.323   8.114
 4210SOL    HW131317   4.560   3.405   8.141
 4210SOL    HW231318   4.602   3.253   8.185
 4211SOL     OW31319   6.651   2.254   0.577
 4211SOL    HW131320   6.620   2.273   0.483
 4211SOL    HW231321   6.724   2.317   0.602
 4212SOL     OW31322   8.685   3.562   1.756
 4212SOL    HW131323   8.677   3.623   1.834
 4212SOL    HW231324   8.774   3.516   1.758
 4213SOL     OW31325   7.484   9.671   8.340
 4213SOL    HW131326   7.518   9.637   8.252
 4213SOL    HW231327   7.500   9.769   8.346
 4214SOL     OW31328   2.777   6.785   0.166
 4214SOL    HW131329   2.781   6.807   0.068
 4214SOL    HW231330   2.840   6.844   0.216
 4215SOL     OW31331   2.150   5.088   0.452
 4215SOL    HW131332   2.115   5.127   0.367
 4215SOL    HW231333   2.095   5.008   0.478
 4216SOL     OW31334   1.516   0.284   6.630
 4216SOL    HW131335   1.592   0.309   6.691
 4216SOL    HW231336   1.529   0.327   6.541
 4217SOL     OW31337   3.288   0.270   8.656
 4217SOL    HW131338   3.364   0.283   8.720
 4217SOL    HW231339   3.202   0.288   8.703
 4218SOL     OW31340   6.473   5.390   0.369
 4218SOL    HW131341   6.523   5.313   0.331
 4218SOL    HW231342   6.534   5.469   0.378
 4219SOL     OW31343   5.078   7.751   8.752
 4219SOL    HW131344   5.140   7.746   0.048
 4219SOL    HW231345   5.052   7.658   8.724
 4220SOL     OW31346   2.636   2.657   6.475
 4220SOL    HW131347   2.726   2.625   6.445
 4220SOL    HW231348   2.569   2.584   6.461
 4221SOL     OW31349   5.717   0.449   2.033
 4221SOL    HW131350   5.678   0.377   2.091
 4221SOL    HW231351   5.776   0.508   2.088
 4222SOL     OW31352   6.473  10.412   1.575
 4222SOL    HW131353   6.520  10.358   1.645
 4222SOL    HW231354   6.453  10.355   1.496
 4223SOL     OW31355   8.856   9.657   8.473
 4223SOL    HW131356   8.943   9.672   8.520
 4223SOL    HW231357   8.862   9.572   8.419
 4224SOL     OW31358   2.327   3.975   0.180
 4224SOL    HW131359   2.380   3.945   0.101
 4224SOL    HW231360   2.354   4.068   0.205
 4225SOL     OW31361   3.090   2.403   8.163
 4225SOL    HW131362   3.157   2.343   8.121
 4225SOL    HW231363   3.070   2.371   8.256
 4226SOL     OW31364   1.866   8.989   6.698
 4226SOL    HW131365   1.864   8.924   6.622
 4226SOL    HW231366   1.908   9.075   6.667
 4227SOL     OW31367   4.290   7.298   0.586
 4227SOL    HW131368   4.323   7.392   0.590
 4227SOL    HW231369   4.299   7.256   0.677
 4228SOL     OW31370   8.144   1.709   7.602
 4228SOL    HW131371   8.239   1.703   7.570
 4228SOL    HW231372   8.139   1.679   7.698
 4229SOL     OW31373   0.736   1.572   7.285
 4229SOL    HW131374   0.787   1.588   7.200
 4229SOL    HW231375   0.642   1.604   7.273
 4230SOL     OW31376   7.917   5.798   0.277
 4230SOL    HW131377   8.007   5.784   0.317
 4230SOL    HW231378   7.923   5.867   0.204
 4231SOL     OW31379   3.344   3.023   0.829
 4231SOL    HW131380   3.324   2.938   0.781
 4231SOL    HW231381   3.438   3.051   0.810
 4232SOL     OW31382   5.397   9.156   8.163
 4232SOL    HW131383   5.449   9.186   8.243
 4232SOL    HW231384   5.426   9.208   8.083
 4233SOL     OW31385   2.560   9.178   7.568
 4233SOL    HW131386   2.572   9.080   7.586
 4233SOL    HW231387   2.630   9.209   7.504
 4234SOL     OW31388   9.259   3.824   8.054
 4234SOL    HW131389   9.257   3.922   8.077
 4234SOL    HW231390   9.170   3.798   8.017
 4235SOL     OW31391   1.499   3.825   1.319
 4235SOL    HW131392   1.406   3.859   1.305
 4235SOL    HW231393   1.551   3.834   1.234
 4236SOL     OW31394   5.174   4.090   6.995
 4236SOL    HW131395   5.091   4.125   7.039
 4236SOL    HW231396   5.179   3.991   7.006
 4237SOL     OW31397   2.286   6.638   7.005
 4237SOL    HW131398   2.227   6.640   6.925
 4237SOL    HW231399   2.252   6.702   7.073
 4238SOL     OW31400   9.703   0.056   6.854
 4238SOL    HW131401   9.686  10.480   6.914
 4238SOL    HW231402   9.731   0.023   6.764
 4239SOL     OW31403   6.180   5.489   7.366
 4239SOL    HW131404   6.254   5.525   7.422
 4239SOL    HW231405   6.105   5.458   7.424
 4240SOL     OW31406   7.787   2.860   8.458
 4240SOL    HW131407   7.805   2.794   8.531
 4240SOL    HW231408   7.827   2.826   8.373
 4241SOL     OW31409   1.137   2.341   1.398
 4241SOL    HW131410   1.198   2.415   1.425
 4241SOL    HW231411   1.181   2.253   1.414
 4242SOL     OW31412   1.636   7.022   0.147
 4242SOL    HW131413   1.542   7.015   0.115
 4242SOL    HW231414   1.684   7.093   0.095
 4243SOL     OW31415   0.775   2.678   7.594
 4243SOL    HW131416   0.794   2.608   7.525
 4243SOL    HW231417   0.751   2.634   7.680
 4244SOL     OW31418   1.191   6.449   0.901
 4244SOL    HW131419   1.186   6.472   0.804
 4244SOL    HW231420   1.136   6.514   0.953
 4245SOL     OW31421   7.325   9.259   7.204
 4245SOL    HW131422   7.419   9.260   7.170
 4245SOL    HW231423   7.324   9.223   7.298
 4246SOL     OW31424   7.747   0.567   8.255
 4246SOL    HW131425   7.757   0.580   8.354
 4246SOL    HW231426   7.657   0.599   8.226
 4247SOL     OW31427   1.601   1.714   0.421
 4247SOL    HW131428   1.520   1.770   0.436
 4247SOL    HW231429   1.630   1.722   0.326
 4248SOL     OW31430   4.113   8.020   7.294
 4248SOL    HW131431   4.046   8.072   7.348
 4248SOL    HW231432   4.185   7.985   7.355
 4249SOL     OW31433   2.675   1.470   1.342
 4249SOL    HW131434   2.683   1.515   1.254
 4249SOL    HW231435   2.578   1.458   1.366
 4250SOL     OW31436   3.279   6.441   8.707
 4250SOL    HW131437   3.238   6.355   8.738
 4250SOL    HW231438   3.247   6.516   8.765
 4251SOL     OW31439   5.462   8.306   1.067
 4251SOL    HW131440   5.499   8.390   1.028
 4251SOL    HW231441   5.363   8.304   1.054
 4252SOL     OW31442   0.833   7.334   6.948
 4252SOL    HW131443   0.873   7.366   7.034
 4252SOL    HW231444   0.733   7.337   6.956
 4253SOL     OW31445   2.007   9.573   8.574
 4253SOL    HW131446   2.039   9.563   8.480
 4253SOL    HW231447   2.077   9.539   8.637
 4254SOL     OW31448   1.169   8.485   6.580
 4254SOL    HW131449   1.159   8.557   6.511
 4254SOL    HW231450   1.143   8.397   6.540
 4255SOL     OW31451   6.329   4.800   1.892
 4255SOL    HW131452   6.405   4.736   1.899
 4255SOL    HW231453   6.348   4.867   1.819
 4256SOL     OW31454   0.705   2.982   0.484
 4256SOL    HW131455   0.782   3.030   0.526
 4256SOL    HW231456   0.712   2.884   0.506
 4257SOL     OW31457   7.509   2.756   8.253
 4257SOL    HW131458   7.522   2.848   8.289
 4257SOL    HW231459   7.495   2.692   8.328
 4258SOL     OW31460   8.716   5.076   8.027
 4258SOL    HW131461   8.721   5.176   8.028
 4258SOL    HW231462   8.736   5.041   8.118
 4259SOL     OW31463   5.341   3.140   0.589
 4259SOL    HW131464   5.380   3.175   0.674
 4259SOL    HW231465   5.301   3.216   0.537
 4260SOL     OW31466   1.978   5.950   1.049
 4260SOL    HW131467   2.044   6.021   1.074
 4260SOL    HW231468   1.975   5.881   1.122
 4261SOL     OW31469   5.327   5.015   6.783
 4261SOL    HW131470   5.382   5.090   6.821
 4261SOL    HW231471   5.370   4.981   6.699
 4262SOL     OW31472   9.361   6.973   7.546
 4262SOL    HW131473   9.402   7.064   7.554
 4262SOL    HW231474   9.378   6.937   7.455
 4263SOL     OW31475   9.451   1.369   8.127
 4263SOL    HW131476   9.497   1.452   8.095
 4263SOL    HW231477   9.357   1.390   8.153
 4264SOL     OW31478   8.933   5.916   8.566
 4264SOL    HW131479   8.882   5.894   8.649
 4264SOL    HW231480   8.982   5.834   8.535
 4265SOL     OW31481   5.661   0.655   7.634
 4265SOL    HW131482   5.569   0.658   7.672
 4265SOL    HW231483   5.700   0.564   7.647
 4266SOL     OW31484   9.204   1.570   6.907
 4266SOL    HW131485   9.219   1.532   6.816
 4266SOL    HW231486   9.106   1.580   6.923
 4267SOL     OW31487   5.291   2.991   0.968
 4267SOL    HW131488   5.213   3.054   0.968
 4267SOL    HW231489   5.368   3.034   1.014
 4268SOL     OW31490   1.359   1.510   7.500
 4268SOL    HW131491   1.353   1.503   7.600
 4268SOL    HW231492   1.414   1.590   7.475
 4269SOL     OW31493   6.819   1.016   1.050
 4269SOL    HW131494   6.873   1.021   0.966
 4269SOL    HW231495   6.876   1.041   1.128
 4270SOL     OW31496   5.387   0.123   6.682
 4270SOL    HW131497   5.365   0.047   6.743
 4270SOL    HW231498   5.462   0.097   6.622
 4271SOL     OW31499   2.950   6.379   0.550
 4271SOL    HW131500   2.913   6.373   0.457
 4271SOL    HW231501   2.980   6.289   0.580
 4272SOL     OW31502   9.965   6.533   0.668
 4272SOL    HW131503   9.994   6.464   0.601
 4272SOL    HW231504  10.008   6.515   0.756
 4273SOL     OW31505   6.059   8.063   7.890
 4273SOL    HW131506   6.079   8.121   7.968
 4273SOL    HW231507   6.116   8.090   7.812
 4274SOL     OW31508   2.525   2.138   0.596
 4274SOL    HW131509   2.510   2.048   0.555
 4274SOL    HW231510   2.456   2.202   0.561
 4275SOL     OW31511   9.065   5.695   7.283
 4275SOL    HW131512   9.013   5.620   7.324
 4275SOL    HW231513   9.092   5.760   7.354
 4276SOL     OW31514   1.291   9.001   1.740
 4276SOL    HW131515   1.228   8.926   1.761
 4276SOL    HW231516   1.348   9.019   1.821
 4277SOL     OW31517   4.548   1.781   0.538
 4277SOL    HW131518   4.591   1.871   0.541
 4277SOL    HW231519   4.595   1.720   0.602
 4278SOL     OW31520   5.075   4.217   0.391
 4278SOL    HW131521   5.082   4.169   0.478
 4278SOL    HW231522   5.152   4.191   0.332
 4279SOL     OW31523   3.091  10.060   6.438
 4279SOL    HW131524   3.030  10.129   6.476
 4279SOL    HW231525   3.100  10.073   6.339
 4280SOL     OW31526   5.916   1.075   1.268
 4280SOL    HW131527   5.954   0.988   1.236
 4280SOL    HW231528   5.933   1.085   1.366
 4281SOL     OW31529   2.714   8.008   7.743
 4281SOL    HW131530   2.755   8.007   7.834
 4281SOL    HW231531   2.694   7.914   7.715
 4282SOL     OW31532   3.313   1.886   8.034
 4282SOL    HW131533   3.402   1.853   8.064
 4282SOL    HW231534   3.314   1.899   7.934
 4283SOL     OW31535   8.605   6.165   8.221
 4283SOL    HW131536   8.673   6.123   8.282
 4283SOL    HW231537   8.630   6.147   8.126
 4284SOL     OW31538   4.778   2.269   6.779
 4284SOL    HW131539   4.870   2.252   6.814
 4284SOL    HW231540   4.735   2.182   6.755
 4285SOL     OW31541   7.275   3.678   1.791
 4285SOL    HW131542   7.194   3.627   1.761
 4285SOL    HW231543   7.281   3.675   1.891
 4286SOL     OW31544   0.888   4.183   8.463
 4286SOL    HW131545   0.848   4.235   8.387
 4286SOL    HW231546   0.893   4.086   8.438
 4287SOL     OW31547   8.170   4.572   7.394
 4287SOL    HW131548   8.138   4.664   7.415
 4287SOL    HW231549   8.130   4.542   7.307
 4288SOL     OW31550   9.959   7.270   7.596
 4288SOL    HW131551  10.041   7.218   7.621
 4288SOL    HW231552   9.909   7.295   7.678
 4289SOL     OW31553   2.433   1.517   1.703
 4289SOL    HW131554   2.471   1.496   1.793
 4289SOL    HW231555   2.469   1.604   1.671
 4290SOL     OW31556   8.742   1.269   1.196
 4290SOL    HW131557   8.787   1.181   1.207
 4290SOL    HW231558   8.805   1.342   1.221
 4291SOL     OW31559   5.197   1.841   6.634
 4291SOL    HW131560   5.139   1.920   6.653
 4291SOL    HW231561   5.279   1.845   6.690
 4292SOL     OW31562   6.861   5.293   1.138
 4292SOL    HW131563   6.934   5.226   1.123
 4292SOL    HW231564   6.874   5.371   1.077
 4293SOL     OW31565   7.720   0.667   0.252
 4293SOL    HW131566   7.649   0.715   0.201
 4293SOL    HW231567   7.687   0.577   0.279
 4294SOL     OW31568   9.223   6.303   6.772
 4294SOL    HW131569   9.138   6.316   6.723
 4294SOL    HW231570   9.295   6.360   6.732
 4295SOL     OW31571   1.688   6.146   6.455
 4295SOL    HW131572   1.612   6.205   6.481
 4295SOL    HW231573   1.655   6.069   6.401
 4296SOL     OW31574   3.911   3.388   0.555
 4296SOL    HW131575   3.892   3.458   0.623
 4296SOL    HW231576   3.992   3.414   0.503
 4297SOL     OW31577   0.286   8.935   7.546
 4297SOL    HW131578   0.363   8.873   7.561
 4297SOL    HW231579   0.208   8.905   7.600
 4298SOL     OW31580   4.132   0.686   0.290
 4298SOL    HW131581   4.227   0.706   0.269
 4298SOL    HW231582   4.126   0.598   0.337
 4299SOL     OW31583   1.484   6.946   8.339
 4299SOL    HW131584   1.490   6.846   8.337
 4299SOL    HW231585   1.529   6.984   8.259
 4300SOL     OW31586   7.123   9.136   1.439
 4300SOL    HW131587   7.033   9.179   1.433
 4300SOL    HW231588   7.167   9.163   1.524
 4301SOL     OW31589   6.630   8.039   1.052
 4301SOL    HW131590   6.676   8.068   1.136
 4301SOL    HW231591   6.686   7.969   1.007
 4302SOL     OW31592   3.500   0.490   7.222
 4302SOL    HW131593   3.573   0.451   7.277
 4302SOL    HW231594   3.525   0.485   7.125
 4303SOL     OW31595   4.721   5.478   1.558
 4303SOL    HW131596   4.755   5.548   1.495
 4303SOL    HW231597   4.794   5.454   1.623
 4304SOL     OW31598   8.973   8.796   2.610
 4304SOL    HW131599   8.926   8.874   2.569
 4304SOL    HW231600   9.069   8.818   2.626
 4305SOL     OW31601   9.140   6.510   8.266
 4305SOL    HW131602   9.090   6.492   8.351
 4305SOL    HW231603   9.205   6.584   8.282
 4306SOL     OW31604   9.308   2.992   0.328
 4306SOL    HW131605   9.372   2.917   0.345
 4306SOL    HW231606   9.254   2.972   0.246
 4307SOL     OW31607   1.467  10.411   0.047
 4307SOL    HW131608   1.552  10.380   0.005
 4307SOL    HW231609   1.465  10.384   0.143
 4308SOL     OW31610   9.995   9.390   1.544
 4308SOL    HW131611  10.079   9.439   1.569
 4308SOL    HW231612   9.981   9.314   1.608
 4309SOL     OW31613   4.122   3.456   1.663
 4309SOL    HW131614   4.117   3.364   1.701
 4309SOL    HW231615   4.208   3.467   1.613
 4310SOL     OW31616   1.864   5.412   6.887
 4310SOL    HW131617   1.810   5.331   6.909
 4310SOL    HW231618   1.813   5.494   6.914
 4311SOL     OW31619   1.031   2.128   0.993
 4311SOL    HW131620   1.055   2.149   0.898
 4311SOL    HW231621   0.970   2.048   0.995
 4312SOL     OW31622   1.700   4.038   2.291
 4312SOL    HW131623   1.798   4.024   2.284
 4312SOL    HW231624   1.680   4.136   2.287
 4313SOL     OW31625   2.781   8.125   8.744
 4313SOL    HW131626   2.840   8.055   8.704
 4313SOL    HW231627   2.801   8.133   0.059
 4314SOL     OW31628   7.919   5.355   7.865
 4314SOL    HW131629   7.915   5.309   7.777
 4314SOL    HW231630   7.934   5.453   7.851
 4315SOL     OW31631   1.517   1.955   7.124
 4315SOL    HW131632   1.593   1.904   7.163
 4315SOL    HW231633   1.456   1.892   7.075
 4316SOL     OW31634   6.102   7.713   0.756
 4316SOL    HW131635   6.091   7.614   0.761
 4316SOL    HW231636   6.012   7.756   0.741
 4317SOL     OW31637   6.095   4.245   1.206
 4317SOL    HW131638   6.071   4.211   1.115
 4317SOL    HW231639   6.125   4.340   1.199
 4318SOL     OW31640   3.549   1.688   6.497
 4318SOL    HW131641   3.575   1.748   6.421
 4318SOL    HW231642   3.606   1.606   6.495
 4319SOL     OW31643   2.245   2.723   7.005
 4319SOL    HW131644   2.316   2.713   6.935
 4319SOL    HW231645   2.275   2.790   7.073
 4320SOL     OW31646   7.798   6.352   7.862
 4320SOL    HW131647   7.721   6.412   7.837
 4320SOL    HW231648   7.784   6.319   7.955
 4321SOL     OW31649   7.815   2.114   8.644
 4321SOL    HW131650   7.793   2.082   8.552
 4321SOL    HW231651   7.901   2.165   8.642
 4322SOL     OW31652   8.361   4.891   7.128
 4322SOL    HW131653   8.335   4.886   7.032
 4322SOL    HW231654   8.293   4.946   7.178
 4323SOL     OW31655   5.100   2.252   0.059
 4323SOL    HW131656   5.197   2.273   0.069
 4323SOL    HW231657   5.074   2.180   0.123
 4324SOL     OW31658   1.501   2.365   6.346
 4324SOL    HW131659   1.444   2.447   6.338
 4324SOL    HW231660   1.517   2.326   6.255
 4325SOL     OW31661   4.783   5.247   1.238
 4325SOL    HW131662   4.686   5.262   1.252
 4325SOL    HW231663   4.797   5.166   1.181
 4326SOL     OW31664   4.364   2.231   1.744
 4326SOL    HW131665   4.439   2.231   1.811
 4326SOL    HW231666   4.290   2.289   1.778
 4327SOL     OW31667   4.799   0.457   1.386
 4327SOL    HW131668   4.788   0.408   1.473
 4327SOL    HW231669   4.709   0.485   1.352
 4328SOL     OW31670   2.597   1.029   7.770
 4328SOL    HW131671   2.665   1.052   7.700
 4328SOL    HW231672   2.580   0.931   7.769
 4329SOL     OW31673   7.683   2.490   1.158
 4329SOL    HW131674   7.726   2.568   1.112
 4329SOL    HW231675   7.588   2.482   1.128
 4330SOL     OW31676  10.039   6.246   7.014
 4330SOL    HW131677  10.073   6.219   6.924
 4330SOL    HW231678  10.049   6.345   7.025
 4331SOL     OW31679   8.446   8.519   2.207
 4331SOL    HW131680   8.440   8.601   2.264
 4331SOL    HW231681   8.427   8.438   2.263
 4332SOL     OW31682   4.295   4.714   7.476
 4332SOL    HW131683   4.276   4.665   7.391
 4332SOL    HW231684   4.209   4.749   7.514
 4333SOL     OW31685   0.411   2.636   8.458
 4333SOL    HW131686   0.390   2.540   8.480
 4333SOL    HW231687   0.476   2.639   8.382
 4334SOL     OW31688   9.137   6.924   1.331
 4334SOL    HW131689   9.159   7.003   1.274
 4334SOL    HW231690   9.222   6.880   1.361
 4335SOL     OW31691   2.246   2.036   0.810
 4335SOL    HW131692   2.207   2.125   0.788
 4335SOL    HW231693   2.340   2.047   0.841
 4336SOL     OW31694   2.938   5.870   6.105
 4336SOL    HW131695   2.994   5.868   6.188
 4336SOL    HW231696   2.980   5.929   6.037
 4337SOL     OW31697   8.545   3.706   8.002
 4337SOL    HW131698   8.531   3.732   8.098
 4337SOL    HW231699   8.518   3.782   7.943
 4338SOL     OW31700   1.209   4.307   7.899
 4338SOL    HW131701   1.230   4.401   7.926
 4338SOL    HW231702   1.270   4.244   7.946
 4339SOL     OW31703   4.536   0.540   1.346
 4339SOL    HW131704   4.501   0.574   1.433
 4339SOL    HW231705   4.518   0.442   1.339
 4340SOL     OW31706   3.328   4.991   7.302
 4340SOL    HW131707   3.396   5.060   7.277
 4340SOL    HW231708   3.269   4.971   7.224
 4341SOL     OW31709   1.195   3.042   8.724
 4341SOL    HW131710   1.165   3.115   8.661
 4341SOL    HW231711   1.164   2.954   8.689
 4342SOL     OW31712   8.198   9.330   6.892
 4342SOL    HW131713   8.279   9.285   6.929
 4342SOL    HW231714   8.221   9.371   6.803
 4343SOL     OW31715   0.819   6.117   8.139
 4343SOL    HW131716   0.858   6.203   8.106
 4343SOL    HW231717   0.726   6.131   8.171
 4344SOL     OW31718   2.554   2.540   0.801
 4344SOL    HW131719   2.491   2.468   0.830
 4344SOL    HW231720   2.639   2.499   0.768
 4345SOL     OW31721   1.641   0.262   7.251
 4345SOL    HW131722   1.674   0.253   7.345
 4345SOL    HW231723   1.589   0.347   7.242
 4346SOL     OW31724   4.730   0.399   7.880
 4346SOL    HW131725   4.666   0.382   7.805
 4346SOL    HW231726   4.759   0.494   7.878
 4347SOL     OW31727   9.569   4.742   7.261
 4347SOL    HW131728   9.660   4.702   7.256
 4347SOL    HW231729   9.554   4.780   7.353
 4348SOL     OW31730   9.691   7.361   0.103
 4348SOL    HW131731   9.772   7.303   0.107
 4348SOL    HW231732   9.718   7.456   0.087
 4349SOL     OW31733  10.087   9.247   6.463
 4349SOL    HW131734   0.022   9.211   6.458
 4349SOL    HW231735  10.071   9.310   6.387
 4350SOL     OW31736   9.600   5.913   7.248
 4350SOL    HW131737   9.688   5.919   7.294
 4350SOL    HW231738   9.587   5.992   7.188
 4351SOL     OW31739   9.075   5.777   8.138
 4351SOL    HW131740   9.055   5.756   8.043
 4351SOL    HW231741   9.026   5.712   8.197
 4352SOL     OW31742   2.132  10.139   8.583
 4352SOL    HW131743   2.229  10.144   8.605
 4352SOL    HW231744   2.113  10.053   8.536
 4353SOL     OW31745   8.817   0.637   0.409
 4353SOL    HW131746   8.837   0.614   0.313
 4353SOL    HW231747   8.718   0.646   0.421
 4354SOL     OW31748   6.443   5.088   0.076
 4354SOL    HW131749   6.460   5.142   8.776
 4354SOL    HW231750   6.350   5.105   0.108
 4355SOL     OW31751   7.538   5.746   6.050
 4355SOL    HW131752   7.451   5.792   6.064
 4355SOL    HW231753   7.603   5.809   6.007
 4356SOL     OW31754   3.934   8.005   0.739
 4356SOL    HW131755   3.898   7.912   0.742
 4356SOL    HW231756   4.023   8.007   0.785
 4357SOL     OW31757   3.274   2.629   0.903
 4357SOL    HW131758   3.202   2.686   0.941
 4357SOL    HW231759   3.355   2.634   0.961
 4358SOL     OW31760   6.065   1.827   8.311
 4358SOL    HW131761   6.132   1.849   8.240
 4358SOL    HW231762   6.043   1.729   8.307
 4359SOL     OW31763   1.993   4.375   1.052
 4359SOL    HW131764   1.934   4.445   1.012
 4359SOL    HW231765   1.973   4.366   1.150
 4360SOL     OW31766   2.523   0.505   0.852
 4360SOL    HW131767   2.427   0.527   0.832
 4360SOL    HW231768   2.579   0.588   0.843
 4361SOL     OW31769   6.190   6.331   0.425
 4361SOL    HW131770   6.120   6.291   0.367
 4361SOL    HW231771   6.151   6.356   0.514
 4362SOL     OW31772   6.876   4.695   2.283
 4362SOL    HW131773   6.879   4.620   2.348
 4362SOL    HW231774   6.832   4.774   2.325
 4363SOL     OW31775   7.044   1.380   0.448
 4363SOL    HW131776   7.028   1.295   0.398
 4363SOL    HW231777   6.962   1.437   0.445
 4364SOL     OW31778   7.056   9.367   0.743
 4364SOL    HW131779   6.995   9.293   0.771
 4364SOL    HW231780   7.114   9.336   0.668
 4365SOL     OW31781   8.973   1.406   0.999
 4365SOL    HW131782   9.028   1.326   1.021
 4365SOL    HW231783   8.942   1.450   1.084
 4366SOL     OW31784   5.236   3.346   1.758
 4366SOL    HW131785   5.256   3.270   1.697
 4366SOL    HW231786   5.144   3.380   1.739
 4367SOL     OW31787   5.603   5.893   7.220
 4367SOL    HW131788   5.688   5.941   7.198
 4367SOL    HW231789   5.533   5.959   7.245
 4368SOL     OW31790   4.187   8.719   0.063
 4368SOL    HW131791   4.242   8.798   0.037
 4368SOL    HW231792   4.245   8.639   0.072
 4369SOL     OW31793   6.882   4.729   7.367
 4369SOL    HW131794   6.980   4.718   7.356
 4369SOL    HW231795   6.863   4.815   7.415
 4370SOL     OW31796   3.972   4.177   6.598
 4370SOL    HW131797   4.061   4.216   6.622
 4370SOL    HW231798   3.945   4.109   6.668
 4371SOL     OW31799   5.762   0.607   1.813
 4371SOL    HW131800   5.743   0.553   1.895
 4371SOL    HW231801   5.822   0.683   1.837
 4372SOL     OW31802   8.950   1.549   2.062
 4372SOL    HW131803   8.882   1.611   2.102
 4372SOL    HW231804   9.039   1.567   2.103
 4373SOL     OW31805   3.114   7.585   0.335
 4373SOL    HW131806   3.150   7.492   0.335
 4373SOL    HW231807   3.111   7.619   0.241
 4374SOL     OW31808  10.078   5.477   7.738
 4374SOL    HW131809   9.978   5.476   7.745
 4374SOL    HW231810  10.104   5.502   7.644
 4375SOL     OW31811   5.115   1.471   0.388
 4375SOL    HW131812   5.077   1.558   0.356
 4375SOL    HW231813   5.083   1.452   0.481
 4376SOL     OW31814   8.250   9.457   6.650
 4376SOL    HW131815   8.165   9.421   6.611
 4376SOL    HW231816   8.316   9.474   6.577
 4377SOL     OW31817   9.640   5.875   6.628
 4377SOL    HW131818   9.644   5.936   6.707
 4377SOL    HW231819   9.647   5.780   6.658
 4378SOL     OW31820   8.780   8.623   1.185
 4378SOL    HW131821   8.744   8.682   1.113
 4378SOL    HW231822   8.774   8.671   1.273
 4379SOL     OW31823   2.871   8.026   1.345
 4379SOL    HW131824   2.786   8.039   1.396
 4379SOL    HW231825   2.883   8.100   1.279
 4380SOL     OW31826   2.128   8.131   7.956
 4380SOL    HW131827   2.197   8.059   7.965
 4380SOL    HW231828   2.090   8.152   8.047
 4381SOL     OW31829   0.974   7.341   6.300
 4381SOL    HW131830   0.927   7.360   6.214
 4381SOL    HW231831   0.974   7.243   6.318
 4382SOL     OW31832   1.751   5.899   8.135
 4382SOL    HW131833   1.673   5.836   8.133
 4382SOL    HW231834   1.836   5.846   8.139
 4383SOL     OW31835   6.209   9.377   1.051
 4383SOL    HW131836   6.146   9.446   1.087
 4383SOL    HW231837   6.188   9.288   1.092
 4384SOL     OW31838   0.622   8.418   7.808
 4384SOL    HW131839   0.584   8.494   7.861
 4384SOL    HW231840   0.707   8.447   7.764
 4385SOL     OW31841   1.840   6.514   1.021
 4385SOL    HW131842   1.758   6.520   1.079
 4385SOL    HW231843   1.813   6.486   0.929
 4386SOL     OW31844   5.099   4.254   6.306
 4386SOL    HW131845   5.144   4.166   6.320
 4386SOL    HW231846   5.160   4.328   6.333
 4387SOL     OW31847   7.144   7.694   2.394
 4387SOL    HW131848   7.155   7.616   2.456
 4387SOL    HW231849   7.211   7.765   2.418
 4388SOL     OW31850   1.474   8.936   1.257
 4388SOL    HW131851   1.402   8.940   1.326
 4388SOL    HW231852   1.562   8.917   1.302
 4389SOL     OW31853   7.615   8.924   6.469
 4389SOL    HW131854   7.611   9.023   6.484
 4389SOL    HW231855   7.709   8.898   6.447
 4390SOL     OW31856   1.061   6.647   7.886
 4390SOL    HW131857   0.981   6.635   7.945
 4390SOL    HW231858   1.052   6.587   7.807
 4391SOL     OW31859   3.705   0.112   6.484
 4391SOL    HW131860   3.755   0.113   6.397
 4391SOL    HW231861   3.634   0.042   6.480
 4392SOL     OW31862   4.547   7.188   7.209
 4392SOL    HW131863   4.621   7.252   7.189
 4392SOL    HW231864   4.463   7.220   7.166
 4393SOL     OW31865   7.031   4.943   8.631
 4393SOL    HW131866   7.037   4.845   8.647
 4393SOL    HW231867   6.936   4.973   8.645
 4394SOL     OW31868   7.561   2.567   1.832
 4394SOL    HW131869   7.525   2.491   1.777
 4394SOL    HW231870   7.535   2.554   1.928
 4395SOL     OW31871   4.497   5.759   7.610
 4395SOL    HW131872   4.460   5.812   7.685
 4395SOL    HW231873   4.588   5.793   7.586
 4396SOL     OW31874   3.047  10.126   0.067
 4396SOL    HW131875   2.961  10.125   0.016
 4396SOL    HW231876   3.068  10.034   0.100
 4397SOL     OW31877   3.074   0.969   1.389
 4397SOL    HW131878   3.004   0.939   1.453
 4397SOL    HW231879   3.053   1.062   1.358
 4398SOL     OW31880   7.092   0.980   1.870
 4398SOL    HW131881   7.002   0.940   1.887
 4398SOL    HW231882   7.135   1.004   1.957
 4399SOL     OW31883   3.947   5.101   7.011
 4399SOL    HW131884   3.929   5.199   6.998
 4399SOL    HW231885   3.869   5.059   7.057
 4400SOL     OW31886   9.893   4.665   0.544
 4400SOL    HW131887   9.960   4.717   0.490
 4400SOL    HW231888   9.885   4.573   0.506
 4401SOL     OW31889   9.866   6.580   7.425
 4401SOL    HW131890   9.786   6.531   7.460
 4401SOL    HW231891   9.844   6.677   7.414
 4402SOL     OW31892   4.334  10.235   0.873
 4402SOL    HW131893   4.417  10.254   0.821
 4402SOL    HW231894   4.343  10.147   0.919
 4403SOL     OW31895   0.291   7.502   8.187
 4403SOL    HW131896   0.232   7.494   8.267
 4403SOL    HW231897   0.378   7.543   8.215
 4404SOL     OW31898   1.879   2.130   8.109
 4404SOL    HW131899   1.969   2.107   8.070
 4404SOL    HW231900   1.860   2.227   8.093
 4405SOL     OW31901   4.123   8.076   1.688
 4405SOL    HW131902   4.201   8.036   1.736
 4405SOL    HW231903   4.128   8.051   1.591
 4406SOL     OW31904   0.514   4.691   8.757
 4406SOL    HW131905   0.587   4.622   8.764
 4406SOL    HW231906   0.549   4.773   8.712
 4407SOL     OW31907   9.987   4.092   1.568
 4407SOL    HW131908  10.024   4.183   1.587
 4407SOL    HW231909   9.984   4.039   1.652
 4408SOL     OW31910   4.991   9.722   6.733
 4408SOL    HW131911   5.055   9.681   6.668
 4408SOL    HW231912   5.025   9.709   6.826
 4409SOL     OW31913   3.325   3.748   7.846
 4409SOL    HW131914   3.279   3.785   7.927
 4409SOL    HW231915   3.333   3.649   7.855
 4410SOL     OW31916   7.946   0.203   1.707
 4410SOL    HW131917   7.983   0.181   1.798
 4410SOL    HW231918   8.020   0.205   1.640
 4411SOL     OW31919   6.997   7.632   1.051
 4411SOL    HW131920   7.051   7.653   1.132
 4411SOL    HW231921   7.043   7.668   0.970
 4412SOL     OW31922   9.195   1.452   8.194
 4412SOL    HW131923   9.130   1.411   8.130
 4412SOL    HW231924   9.184   1.410   8.284
 4413SOL     OW31925   3.413   9.439   7.311
 4413SOL    HW131926   3.391   9.366   7.376
 4413SOL    HW231927   3.346   9.439   7.237
 4414SOL     OW31928   9.133   9.643   7.908
 4414SOL    HW131929   9.158   9.643   8.005
 4414SOL    HW231930   9.067   9.570   7.891
 4415SOL     OW31931   1.311   3.557   0.192
 4415SOL    HW131932   1.318   3.656   0.203
 4415SOL    HW231933   1.384   3.525   0.131
 4416SOL     OW31934   3.818   1.308   0.679
 4416SOL    HW131935   3.771   1.396   0.688
 4416SOL    HW231936   3.874   1.309   0.596
 4417SOL     OW31937   1.595   8.627   0.915
 4417SOL    HW131938   1.572   8.549   0.974
 4417SOL    HW231939   1.646   8.594   0.835
 4418SOL     OW31940   5.852   6.958   6.830
 4418SOL    HW131941   5.840   7.046   6.784
 4418SOL    HW231942   5.919   6.904   6.781
 4419SOL     OW31943   7.840   3.735   7.681
 4419SOL    HW131944   7.782   3.654   7.689
 4419SOL    HW231945   7.895   3.728   7.597
 4420SOL     OW31946   5.808   2.997   1.169
 4420SOL    HW131947   5.740   2.982   1.242
 4420SOL    HW231948   5.796   3.089   1.132
 4421SOL     OW31949   6.988   1.151   0.325
 4421SOL    HW131950   7.042   1.124   0.245
 4421SOL    HW231951   6.905   1.095   0.329
 4422SOL     OW31952   5.301   9.052   7.570
 4422SOL    HW131953   5.290   8.956   7.592
 4422SOL    HW231954   5.211   9.094   7.557
 4423SOL     OW31955   5.840  10.147   6.421
 4423SOL    HW131956   5.776  10.085   6.466
 4423SOL    HW231957   5.818  10.242   6.445
 4424SOL     OW31958   2.511   5.878   7.004
 4424SOL    HW131959   2.493   5.973   6.980
 4424SOL    HW231960   2.609   5.865   7.019
 4425SOL     OW31961   1.361   2.590   6.349
 4425SOL    HW131962   1.308   2.604   6.432
 4425SOL    HW231963   1.316   2.636   6.272
 4426SOL     OW31964   7.876   6.889   0.009
 4426SOL    HW131965   7.831   6.970   0.046
 4426SOL    HW231966   7.814   6.811   0.016
 4427SOL     OW31967   7.399   8.274   0.622
 4427SOL    HW131968   7.404   8.214   0.542
 4427SOL    HW231969   7.308   8.268   0.663
 4428SOL     OW31970   9.261   8.821   7.944
 4428SOL    HW131971   9.355   8.856   7.940
 4428SOL    HW231972   9.224   8.835   8.036
 4429SOL     OW31973   0.410   9.729   0.683
 4429SOL    HW131974   0.447   9.688   0.767
 4429SOL    HW231975   0.467   9.704   0.605
 4430SOL     OW31976   8.940   9.464   7.849
 4430SOL    HW131977   8.937   9.395   7.776
 4430SOL    HW231978   8.910   9.423   7.935
 4431SOL     OW31979   1.694   4.262   1.702
 4431SOL    HW131980   1.779   4.220   1.734
 4431SOL    HW231981   1.618   4.231   1.759
 4432SOL     OW31982   5.616   9.486   2.151
 4432SOL    HW131983   5.699   9.462   2.201
 4432SOL    HW231984   5.548   9.525   2.214
 4433SOL     OW31985   5.263   7.665   1.447
 4433SOL    HW131986   5.230   7.607   1.373
 4433SOL    HW231987   5.362   7.657   1.455
 4434SOL     OW31988   7.607   2.035   8.161
 4434SOL    HW131989   7.642   2.052   8.069
 4434SOL    HW231990   7.527   1.975   8.156
 4435SOL     OW31991   0.841   5.590   7.041
 4435SOL    HW131992   0.805   5.681   7.020
 4435SOL    HW231993   0.937   5.585   7.014
 4436SOL     OW31994   5.092   7.755   8.013
 4436SOL    HW131995   5.053   7.828   8.070
 4436SOL    HW231996   5.018   7.696   7.979
 4437SOL     OW31997   6.046   3.356   7.440
 4437SOL    HW131998   5.996   3.435   7.405
 4437SOL    HW231999   6.103   3.385   7.517
 4438SOL     OW32000   7.890   8.628   7.609
 4438SOL    HW132001   7.892   8.690   7.531
 4438SOL    HW232002   7.964   8.561   7.601
 4439SOL     OW32003   1.195   7.588   0.054
 4439SOL    HW132004   1.150   7.506   0.091
 4439SOL    HW232005   1.133   7.634   8.772
 4440SOL     OW32006   6.930  10.159   0.927
 4440SOL    HW132007   6.902  10.067   0.899
 4440SOL    HW232008   6.929  10.220   0.847
 4441SOL     OW32009   1.694   0.971   7.197
 4441SOL    HW132010   1.628   1.006   7.131
 4441SOL    HW232011   1.659   0.984   7.290
 4442SOL     OW32012   2.770   4.930   0.756
 4442SOL    HW132013   2.719   5.009   0.789
 4442SOL    HW232014   2.729   4.896   0.671
 4443SOL     OW32015   7.228   9.169   0.966
 4443SOL    HW132016   7.230   9.269   0.970
 4443SOL    HW232017   7.157   9.135   1.028
 4444SOL     OW32018   2.206   0.721   0.215
 4444SOL    HW132019   2.259   0.806   0.214
 4444SOL    HW232020   2.134   0.727   0.146
 4445SOL     OW32021   8.265  10.099   8.004
 4445SOL    HW132022   8.229  10.193   8.001
 4445SOL    HW232023   8.191  10.034   7.988
 4446SOL     OW32024   6.048   9.726   1.806
 4446SOL    HW132025   5.997   9.714   1.891
 4446SOL    HW232026   5.987   9.759   1.735
 4447SOL     OW32027   2.749   4.701   0.912
 4447SOL    HW132028   2.832   4.657   0.946
 4447SOL    HW232029   2.773   4.786   0.866
 4448SOL     OW32030   0.686   4.650   6.790
 4448SOL    HW132031   0.743   4.573   6.762
 4448SOL    HW232032   0.679   4.652   6.890
 4449SOL     OW32033   0.109   4.031   0.758
 4449SOL    HW132034   0.155   3.991   0.838
 4449SOL    HW232035   0.044   3.966   0.721
 4450SOL     OW32036   4.491   0.776   6.748
 4450SOL    HW132037   4.397   0.744   6.734
 4450SOL    HW232038   4.515   0.842   6.676
 4451SOL     OW32039   6.993   5.716   1.202
 4451SOL    HW132040   6.907   5.695   1.248
 4451SOL    HW232041   7.043   5.784   1.256
 4452SOL     OW32042   2.527   2.985   0.298
 4452SOL    HW132043   2.510   2.896   0.341
 4452SOL    HW232044   2.486   3.057   0.354
 4453SOL     OW32045   7.035   6.528   7.155
 4453SOL    HW132046   7.061   6.591   7.228
 4453SOL    HW232047   7.072   6.437   7.175
 4454SOL     OW32048   2.471   9.780   8.004
 4454SOL    HW132049   2.391   9.783   7.944
 4454SOL    HW232050   2.494   9.872   8.034
 4455SOL     OW32051   1.458   2.176   0.151
 4455SOL    HW132052   1.436   2.274   0.153
 4455SOL    HW232053   1.385   2.127   0.104
 4456SOL     OW32054   0.227   2.744   1.367
 4456SOL    HW132055   0.130   2.767   1.356
 4456SOL    HW232056   0.239   2.645   1.359
 4457SOL     OW32057   5.524   7.806   7.854
 4457SOL    HW132058   5.557   7.714   7.876
 4457SOL    HW232059   5.542   7.826   7.758
 4458SOL     OW32060   5.528   5.163   0.487
 4458SOL    HW132061   5.628   5.164   0.486
 4458SOL    HW232062   5.493   5.239   0.432
 4459SOL     OW32063   5.018   1.476   0.668
 4459SOL    HW132064   4.926   1.453   0.634
 4459SOL    HW232065   5.044   1.411   0.739
 4460SOL     OW32066   3.065   3.775   8.307
 4460SOL    HW132067   3.061   3.688   8.257
 4460SOL    HW232068   2.976   3.794   8.348
 4461SOL     OW32069   5.420   9.195   1.001
 4461SOL    HW132070   5.389   9.283   0.965
 4461SOL    HW232071   5.410   9.195   1.101
 4462SOL     OW32072   2.257   6.603   1.095
 4462SOL    HW132073   2.248   6.674   1.165
 4462SOL    HW232074   2.251   6.646   1.004
 4463SOL     OW32075   7.281   0.903   8.584
 4463SOL    HW132076   7.340   0.974   8.622
 4463SOL    HW232077   7.302   0.815   8.627
 4464SOL     OW32078   4.403   3.647   6.600
 4464SOL    HW132079   4.491   3.685   6.630
 4464SOL    HW232080   4.358   3.713   6.540
 4465SOL     OW32081   3.242   9.147   1.100
 4465SOL    HW132082   3.257   9.240   1.135
 4465SOL    HW232083   3.272   9.080   1.168
 4466SOL     OW32084   8.918   1.873   7.093
 4466SOL    HW132085   8.979   1.921   7.031
 4466SOL    HW232086   8.910   1.777   7.063
 4467SOL     OW32087   1.031   7.689   8.632
 4467SOL    HW132088   0.952   7.714   8.577
 4467SOL    HW232089   1.113   7.732   8.594
 4468SOL     OW32090   7.840   6.319   8.525
 4468SOL    HW132091   7.849   6.412   8.491
 4468SOL    HW232092   7.894   6.308   8.608
 4469SOL     OW32093   6.795   7.594   1.439
 4469SOL    HW132094   6.777   7.578   1.343
 4469SOL    HW232095   6.709   7.607   1.488
 4470SOL     OW32096   8.813   9.711   1.733
 4470SOL    HW132097   8.732   9.652   1.723
 4470SOL    HW232098   8.813   9.752   1.824
 4471SOL     OW32099   9.298   7.376   8.206
 4471SOL    HW132100   9.235   7.301   8.190
 4471SOL    HW232101   9.341   7.365   8.296
 4472SOL     OW32102   3.005   9.329   1.645
 4472SOL    HW132103   2.923   9.331   1.588
 4472SOL    HW232104   3.076   9.386   1.603
 4473SOL     OW32105   3.749   6.271   0.702
 4473SOL    HW132106   3.652   6.254   0.681
 4473SOL    HW232107   3.765   6.258   0.799
 4474SOL     OW32108   0.893   0.967   0.507
 4474SOL    HW132109   0.899   0.948   0.605
 4474SOL    HW232110   0.961   1.035   0.481
 4475SOL     OW32111   1.509   6.894   7.305
 4475SOL    HW132112   1.433   6.870   7.366
 4475SOL    HW232113   1.486   6.866   7.212
 4476SOL     OW32114   2.039   4.821   0.025
 4476SOL    HW132115   2.051   4.805   0.123
 4476SOL    HW232116   2.128   4.826   8.763
 4477SOL     OW32117   0.923   3.123   0.609
 4477SOL    HW132118   0.858   3.165   0.672
 4477SOL    HW232119   1.002   3.184   0.597
 4478SOL     OW32120   6.707   7.650   2.271
 4478SOL    HW132121   6.796   7.695   2.267
 4478SOL    HW232122   6.720   7.553   2.291
 4479SOL     OW32123   5.088   5.793   1.498
 4479SOL    HW132124   5.132   5.726   1.558
 4479SOL    HW232125   5.058   5.871   1.552
 4480SOL     OW32126   4.193   5.210   7.800
 4480SOL    HW132127   4.102   5.235   7.769
 4480SOL    HW232128   4.251   5.292   7.805
 4481SOL     OW32129   8.043   7.546   1.735
 4481SOL    HW132130   8.017   7.570   1.642
 4481SOL    HW232131   7.986   7.597   1.800
 4482SOL     OW32132   7.890  10.094   8.207
 4482SOL    HW132133   7.852  10.002   8.201
 4482SOL    HW232134   7.893  10.135   8.116
 4483SOL     OW32135  10.019   1.744   8.567
 4483SOL    HW132136   9.945   1.706   8.510
 4483SOL    HW232137  10.022   1.843   8.556
 4484SOL     OW32138   6.900   1.812   6.586
 4484SOL    HW132139   6.891   1.765   6.674
 4484SOL    HW232140   6.831   1.776   6.522
 4485SOL     OW32141   7.988   5.271   0.573
 4485SOL    HW132142   7.888   5.279   0.565
 4485SOL    HW232143   8.011   5.238   0.664
 4486SOL     OW32144   0.297   3.683   7.118
 4486SOL    HW132145   0.336   3.775   7.128
 4486SOL    HW232146   0.295   3.638   7.207
 4487SOL     OW32147   0.392   3.632   8.413
 4487SOL    HW132148   0.432   3.667   8.328
 4487SOL    HW232149   0.411   3.696   8.488
 4488SOL     OW32150   3.492   9.699   7.249
 4488SOL    HW132151   3.466   9.610   7.286
 4488SOL    HW232152   3.581   9.726   7.286
 4489SOL     OW32153   2.913   9.214   7.692
 4489SOL    HW132154   2.868   9.295   7.729
 4489SOL    HW232155   2.869   9.132   7.730
 4490SOL     OW32156   5.292   4.948   7.498
 4490SOL    HW132157   5.255   4.937   7.590
 4490SOL    HW232158   5.244   5.024   7.453
 4491SOL     OW32159   2.950   5.038   1.769
 4491SOL    HW132160   2.925   5.113   1.830
 4491SOL    HW232161   2.911   5.054   1.679
 4492SOL     OW32162   8.314   8.630   1.988
 4492SOL    HW132163   8.226   8.673   2.010
 4492SOL    HW232164   8.347   8.579   2.067
 4493SOL     OW32165   9.328   2.758   7.611
 4493SOL    HW132166   9.349   2.724   7.702
 4493SOL    HW232167   9.237   2.800   7.612
 4494SOL     OW32168   7.144   3.201   2.190
 4494SOL    HW132169   7.166   3.106   2.166
 4494SOL    HW232170   7.096   3.244   2.114
 4495SOL     OW32171   9.234   3.296   6.939
 4495SOL    HW132172   9.179   3.298   6.856
 4495SOL    HW232173   9.307   3.364   6.932
 4496SOL     OW32174   6.294   0.007   0.668
 4496SOL    HW132175   6.370  10.446   0.655
 4496SOL    HW232176   6.236  10.479   0.743
 4497SOL     OW32177   6.289   4.707   7.335
 4497SOL    HW132178   6.380   4.724   7.373
 4497SOL    HW232179   6.228   4.783   7.359
 4498SOL     OW32180   2.041   6.858   6.550
 4498SOL    HW132181   1.942   6.859   6.538
 4498SOL    HW232182   2.077   6.769   6.521
 4499SOL     OW32183   7.592   9.001   7.148
 4499SOL    HW132184   7.608   8.980   7.244
 4499SOL    HW232185   7.596   9.100   7.134
 4500SOL     OW32186   6.519   6.716   7.707
 4500SOL    HW132187   6.616   6.722   7.685
 4500SOL    HW232188   6.494   6.621   7.724
 4501SOL     OW32189   7.288   2.931   7.002
 4501SOL    HW132190   7.220   2.901   7.068
 4501SOL    HW232191   7.364   2.976   7.050
 4502SOL     OW32192   8.864   4.658   6.868
 4502SOL    HW132193   8.765   4.675   6.872
 4502SOL    HW232194   8.884   4.567   6.903
 4503SOL     OW32195   2.541   0.770   6.836
 4503SOL    HW132196   2.485   0.734   6.762
 4503SOL    HW232197   2.486   0.778   6.919
 4504SOL     OW32198   4.327   1.339   8.420
 4504SOL    HW132199   4.252   1.295   8.470
 4504SOL    HW232200   4.378   1.269   8.369
 4505SOL     OW32201   9.574   9.112   1.042
 4505SOL    HW132202   9.577   9.129   0.943
 4505SOL    HW232203   9.501   9.047   1.062
 4506SOL     OW32204   4.667   5.232   7.303
 4506SOL    HW132205   4.646   5.175   7.223
 4506SOL    HW232206   4.582   5.252   7.353
 4507SOL     OW32207   3.578   2.919   6.343
 4507SOL    HW132208   3.621   3.003   6.310
 4507SOL    HW232209   3.648   2.853   6.368
 4508SOL     OW32210   9.504   5.878   7.658
 4508SOL    HW132211   9.445   5.902   7.735
 4508SOL    HW232212   9.457   5.902   7.573
 4509SOL     OW32213   2.220   2.681   8.727
 4509SOL    HW132214   2.244   2.756   8.665
 4509SOL    HW232215   2.249   2.705   0.038
 4510SOL     OW32216   4.249   5.546   0.778
 4510SOL    HW132217   4.322   5.605   0.812
 4510SOL    HW232218   4.225   5.479   0.848
 4511SOL     OW32219   3.279   2.614   1.329
 4511SOL    HW132220   3.284   2.527   1.279
 4511SOL    HW232221   3.202   2.612   1.392
 4512SOL     OW32222   0.273   8.206   0.155
 4512SOL    HW132223   0.346   8.217   0.088
 4512SOL    HW232224   0.193   8.257   0.126
 4513SOL     OW32225   9.328   2.281   1.768
 4513SOL    HW132226   9.407   2.230   1.734
 4513SOL    HW232227   9.251   2.270   1.706
 4514SOL     OW32228   4.275   4.984   7.681
 4514SOL    HW132229   4.317   4.928   7.753
 4514SOL    HW232230   4.247   5.072   7.720
 4515SOL     OW32231   8.208   2.278   7.845
 4515SOL    HW132232   8.300   2.243   7.827
 4515SOL    HW232233   8.164   2.302   7.758
 4516SOL     OW32234   4.688   7.380   8.286
 4516SOL    HW132235   4.627   7.306   8.314
 4516SOL    HW232236   4.633   7.459   8.258
 4517SOL     OW32237   2.353   1.843   7.602
 4517SOL    HW132238   2.380   1.933   7.567
 4517SOL    HW232239   2.349   1.778   7.526
 4518SOL     OW32240   7.758  10.073   2.404
 4518SOL    HW132241   7.829  10.139   2.430
 4518SOL    HW232242   7.697  10.058   2.482
 4519SOL     OW32243   8.253  10.066   7.436
 4519SOL    HW132244   8.289  10.060   7.529
 4519SOL    HW232245   8.203   9.982   7.414
 4520SOL     OW32246   9.531   7.787   7.151
 4520SOL    HW132247   9.521   7.736   7.237
 4520SOL    HW232248   9.628   7.797   7.129
 4521SOL     OW32249   1.545   7.860   6.951
 4521SOL    HW132250   1.528   7.877   6.854
 4521SOL    HW232251   1.615   7.788   6.960
 4522SOL     OW32252   9.694   2.495   7.051
 4522SOL    HW132253   9.769   2.470   7.112
 4522SOL    HW232254   9.642   2.571   7.090
 4523SOL     OW32255   1.363   4.810   0.515
 4523SOL    HW132256   1.282   4.845   0.468
 4523SOL    HW232257   1.335   4.741   0.582
 4524SOL     OW32258   4.888   3.938   7.779
 4524SOL    HW132259   4.863   3.973   7.688
 4524SOL    HW232260   4.812   3.883   7.814
 4525SOL     OW32261   8.303   1.048   7.043
 4525SOL    HW132262   8.363   1.122   7.073
 4525SOL    HW232263   8.226   1.040   7.107
 4526SOL     OW32264   0.970   7.622   7.749
 4526SOL    HW132265   0.962   7.692   7.820
 4526SOL    HW232266   1.067   7.607   7.728
 4527SOL     OW32267   0.348   2.089   6.697
 4527SOL    HW132268   0.284   2.161   6.672
 4527SOL    HW232269   0.297   2.006   6.722
 4528SOL     OW32270   5.203   7.395   0.367
 4528SOL    HW132271   5.174   7.402   0.271
 4528SOL    HW232272   5.294   7.354   0.371
 4529SOL     OW32273   5.216  10.091   0.858
 4529SOL    HW132274   5.168  10.066   0.773
 4529SOL    HW232275   5.292  10.028   0.872
 4530SOL     OW32276   3.271   4.376   1.756
 4530SOL    HW132277   3.245   4.467   1.788
 4530SOL    HW232278   3.342   4.384   1.685
 4531SOL     OW32279   3.842  10.055   7.280
 4531SOL    HW132280   3.779  10.129   7.305
 4531SOL    HW232281   3.893  10.081   7.198
 4532SOL     OW32282   6.943   0.454   7.909
 4532SOL    HW132283   6.943   0.516   7.830
 4532SOL    HW232284   6.861   0.398   7.909
 4533SOL     OW32285   9.597   8.934   6.628
 4533SOL    HW132286   9.675   8.896   6.677
 4533SOL    HW232287   9.624   9.018   6.581
 4534SOL     OW32288   2.672   2.631   8.658
 4534SOL    HW132289   2.627   2.714   8.625
 4534SOL    HW232290   2.760   2.654   8.698
 4535SOL     OW32291   2.989   0.156   7.679
 4535SOL    HW132292   2.960   0.089   7.611
 4535SOL    HW232293   2.932   0.147   7.761
 4536SOL     OW32294   5.782   7.891   1.724
 4536SOL    HW132295   5.826   7.826   1.786
 4536SOL    HW232296   5.849   7.927   1.659
 4537SOL     OW32297   6.701   4.198   2.254
 4537SOL    HW132298   6.643   4.274   2.224
 4537SOL    HW232299   6.738   4.218   2.345
 4538SOL     OW32300   3.882   8.512   2.383
 4538SOL    HW132301   3.912   8.444   2.450
 4538SOL    HW232302   3.783   8.525   2.392
 4539SOL     OW32303   2.120   9.316   7.275
 4539SOL    HW132304   2.205   9.286   7.320
 4539SOL    HW232305   2.042   9.292   7.332
 4540SOL     OW32306   3.145   4.990   7.815
 4540SOL    HW132307   3.145   5.067   7.751
 4540SOL    HW232308   3.051   4.970   7.843
 4541SOL     OW32309   9.910   5.668   8.123
 4541SOL    HW132310   9.930   5.717   8.038
 4541SOL    HW232311   9.866   5.731   8.188
 4542SOL     OW32312   6.897   3.122   8.557
 4542SOL    HW132313   6.921   3.186   8.630
 4542SOL    HW232314   6.798   3.108   8.557
 4543SOL     OW32315   6.824   7.359   7.882
 4543SOL    HW132316   6.844   7.352   7.980
 4543SOL    HW232317   6.789   7.271   7.849
 4544SOL     OW32318   9.533   0.656   1.416
 4544SOL    HW132319   9.591   0.731   1.447
 4544SOL    HW232320   9.446   0.692   1.382
 4545SOL     OW32321   1.139   3.626   0.645
 4545SOL    HW132322   1.235   3.650   0.651
 4545SOL    HW232323   1.086   3.706   0.615
 4546SOL     OW32324   0.388   6.381   8.142
 4546SOL    HW132325   0.405   6.355   8.047
 4546SOL    HW232326   0.356   6.302   8.193
 4547SOL     OW32327   9.205   7.870   8.455
 4547SOL    HW132328   9.161   7.785   8.427
 4547SOL    HW232329   9.304   7.857   8.458
 4548SOL     OW32330   8.407   9.494   6.431
 4548SOL    HW132331   8.449   9.404   6.424
 4548SOL    HW232332   8.339   9.505   6.358
 4549SOL     OW32333   5.032   0.461   1.249
 4549SOL    HW132334   5.018   0.522   1.171
 4549SOL    HW232335   4.947   0.454   1.301
 4550SOL     OW32336   7.431   2.191   6.871
 4550SOL    HW132337   7.463   2.174   6.964
 4550SOL    HW232338   7.508   2.218   6.813
 4551SOL     OW32339   0.240   3.835   1.450
 4551SOL    HW132340   0.150   3.830   1.496
 4551SOL    HW232341   0.312   3.843   1.519
 4552SOL     OW32342   9.583   0.853   8.551
 4552SOL    HW132343   9.672   0.883   8.585
 4552SOL    HW232344   9.528   0.932   8.525
 4553SOL     OW32345   3.373   3.555   8.131
 4553SOL    HW132346   3.320   3.471   8.121
 4553SOL    HW232347   3.460   3.545   8.081
 4554SOL     OW32348   8.258   0.440   0.694
 4554SOL    HW132349   8.282   0.403   0.604
 4554SOL    HW232350   8.197   0.518   0.682
 4555SOL     OW32351   1.881   5.026   8.700
 4555SOL    HW132352   1.864   4.997   8.606
 4555SOL    HW232353   1.944   4.961   8.744
 4556SOL     OW32354   5.457   9.442   0.106
 4556SOL    HW132355   5.488   9.402   0.192
 4556SOL    HW232356   5.504   9.529   0.092
 4557SOL     OW32357   0.356   4.336   6.573
 4557SOL    HW132358   0.309   4.339   6.485
 4557SOL    HW232359   0.320   4.408   6.633
 4558SOL     OW32360   4.538   0.317   6.670
 4558SOL    HW132361   4.541   0.283   6.576
 4558SOL    HW232362   4.582   0.407   6.673
 4559SOL     OW32363   4.103   4.862   1.106
 4559SOL    HW132364   4.018   4.889   1.061
 4559SOL    HW232365   4.135   4.775   1.069
 4560SOL     OW32366   3.809   7.543   0.923
 4560SOL    HW132367   3.870   7.476   0.966
 4560SOL    HW232368   3.737   7.495   0.872
 4561SOL     OW32369   6.376   9.490   0.662
 4561SOL    HW132370   6.292   9.446   0.694
 4561SOL    HW232371   6.363   9.589   0.659
 4562SOL     OW32372   8.632   5.989   7.441
 4562SOL    HW132373   8.608   6.086   7.441
 4562SOL    HW232374   8.721   5.976   7.485
 4563SOL     OW32375   6.280   7.926   8.448
 4563SOL    HW132376   6.247   7.894   8.359
 4563SOL    HW232377   6.205   7.921   8.514
 4564SOL     OW32378   6.129   8.579   8.492
 4564SOL    HW132379   6.116   8.554   8.396
 4564SOL    HW232380   6.047   8.554   8.544
 4565SOL     OW32381   8.392   3.616   7.246
 4565SOL    HW132382   8.476   3.595   7.196
 4565SOL    HW232383   8.368   3.540   7.307
 4566SOL     OW32384   8.309   9.140   0.412
 4566SOL    HW132385   8.228   9.081   0.415
 4566SOL    HW232386   8.296   9.217   0.475
 4567SOL     OW32387   6.281   8.489   7.320
 4567SOL    HW132388   6.327   8.417   7.268
 4567SOL    HW232389   6.237   8.553   7.256
 4568SOL     OW32390   9.202   1.731   0.024
 4568SOL    HW132391   9.276   1.783   0.068
 4568SOL    HW232392   9.147   1.686   0.094
 4569SOL     OW32393   4.098  10.490   7.414
 4569SOL    HW132394   4.021  10.440   7.454
 4569SOL    HW232395   4.082   0.085   7.421
 4570SOL     OW32396   9.510   9.575   0.422
 4570SOL    HW132397   9.470   9.651   0.475
 4570SOL    HW232398   9.554   9.611   0.340
 4571SOL     OW32399   3.371   2.019   8.414
 4571SOL    HW132400   3.299   2.019   8.344
 4571SOL    HW232401   3.391   1.925   8.440
 4572SOL     OW32402   9.110   6.895   0.693
 4572SOL    HW132403   9.107   6.956   0.772
 4572SOL    HW232404   9.153   6.808   0.720
 4573SOL     OW32405   1.524   6.522   1.828
 4573SOL    HW132406   1.460   6.455   1.867
 4573SOL    HW232407   1.533   6.600   1.890
 4574SOL     OW32408   9.412   7.516   0.460
 4574SOL    HW132409   9.503   7.477   0.445
 4574SOL    HW232410   9.358   7.454   0.516
 4575SOL     OW32411   5.368   8.732   0.566
 4575SOL    HW132412   5.284   8.710   0.616
 4575SOL    HW232413   5.398   8.825   0.590
 4576SOL     OW32414   2.385   6.994   6.180
 4576SOL    HW132415   2.459   6.985   6.113
 4576SOL    HW232416   2.421   7.032   6.265
 4577SOL     OW32417   5.566   7.891   7.591
 4577SOL    HW132418   5.664   7.881   7.608
 4577SOL    HW232419   5.542   7.989   7.591
 4578SOL     OW32420   3.816   2.697   0.884
 4578SOL    HW132421   3.869   2.776   0.851
 4578SOL    HW232422   3.875   2.640   0.942
 4579SOL     OW32423   5.753   5.026   1.193
 4579SOL    HW132424   5.757   4.968   1.274
 4579SOL    HW232425   5.735   5.121   1.220
 4580SOL     OW32426   4.531   7.651   0.805
 4580SOL    HW132427   4.609   7.590   0.818
 4580SOL    HW232428   4.562   7.745   0.792
 4581SOL     OW32429   2.496   7.474   6.289
 4581SOL    HW132430   2.455   7.427   6.210
 4581SOL    HW232431   2.590   7.501   6.266
 4582SOL     OW32432   1.951   9.029   1.002
 4582SOL    HW132433   1.949   8.947   0.946
 4582SOL    HW232434   1.903   9.103   0.956
 4583SOL     OW32435   2.881   4.911   7.850
 4583SOL    HW132436   2.787   4.884   7.870
 4583SOL    HW232437   2.898   4.899   7.752
 4584SOL     OW32438   8.449   3.155   7.887
 4584SOL    HW132439   8.452   3.056   7.873
 4584SOL    HW232440   8.356   3.189   7.869
 4585SOL     OW32441   2.534   3.738   7.789
 4585SOL    HW132442   2.592   3.714   7.867
 4585SOL    HW232443   2.528   3.660   7.726
 4586SOL     OW32444   1.732   9.626   6.660
 4586SOL    HW132445   1.718   9.695   6.731
 4586SOL    HW232446   1.733   9.535   6.701
 4587SOL     OW32447   7.437   8.720   1.889
 4587SOL    HW132448   7.449   8.622   1.876
 4587SOL    HW232449   7.401   8.760   1.805
 4588SOL     OW32450   9.094   7.074   0.908
 4588SOL    HW132451   9.139   7.125   0.981
 4588SOL    HW232452   9.022   7.130   0.868
 4589SOL     OW32453   1.764   8.244   0.286
 4589SOL    HW132454   1.806   8.154   0.272
 4589SOL    HW232455   1.778   8.300   0.204
 4590SOL     OW32456   4.769   3.548   7.719
 4590SOL    HW132457   4.858   3.592   7.711
 4590SOL    HW232458   4.744   3.507   7.631
 4591SOL     OW32459   5.093   6.259   1.348
 4591SOL    HW132460   5.144   6.321   1.407
 4591SOL    HW232461   5.021   6.310   1.300
 4592SOL     OW32462   2.540   1.196   5.905
 4592SOL    HW132463   2.524   1.116   5.847
 4592SOL    HW232464   2.453   1.242   5.922
 4593SOL     OW32465   8.905   4.855   2.174
 4593SOL    HW132466   8.969   4.930   2.186
 4593SOL    HW232467   8.922   4.810   2.086
 4594SOL     OW32468   7.929   4.407   1.841
 4594SOL    HW132469   7.905   4.427   1.937
 4594SOL    HW232470   7.965   4.315   1.835
 4595SOL     OW32471   5.717   2.331   0.178
 4595SOL    HW132472   5.665   2.371   0.103
 4595SOL    HW232473   5.686   2.370   0.265
 4596SOL     OW32474   3.319   9.224   8.576
 4596SOL    HW132475   3.250   9.198   8.644
 4596SOL    HW232476   3.404   9.176   8.595
 4597SOL     OW32477   2.878   8.888   8.195
 4597SOL    HW132478   2.954   8.931   8.242
 4597SOL    HW232479   2.824   8.958   8.148
 4598SOL     OW32480   5.211   4.883   7.751
 4598SOL    HW132481   5.188   4.949   7.822
 4598SOL    HW232482   5.147   4.806   7.755
 4599SOL     OW32483   6.869   6.534   0.549
 4599SOL    HW132484   6.965   6.514   0.567
 4599SOL    HW232485   6.861   6.610   0.485
 4600SOL     OW32486   6.162   0.977   7.490
 4600SOL    HW132487   6.090   1.023   7.542
 4600SOL    HW232488   6.220   0.924   7.553
 4601SOL     OW32489   7.356   1.647   0.414
 4601SOL    HW132490   7.370   1.744   0.430
 4601SOL    HW232491   7.287   1.634   0.343
 4602SOL     OW32492   0.294   0.257   7.422
 4602SOL    HW132493   0.383   0.234   7.463
 4602SOL    HW232494   0.262   0.179   7.367
 4603SOL     OW32495   6.065   3.780   8.273
 4603SOL    HW132496   6.090   3.872   8.301
 4603SOL    HW232497   5.975   3.757   8.311
 4604SOL     OW32498   2.063   5.338   8.149
 4604SOL    HW132499   2.108   5.426   8.137
 4604SOL    HW232500   2.133   5.266   8.156
 4605SOL     OW32501   8.607   9.249   6.734
 4605SOL    HW132502   8.581   9.160   6.770
 4605SOL    HW232503   8.596   9.318   6.805
 4606SOL     OW32504   7.198   2.653   0.092
 4606SOL    HW132505   7.179   2.618   0.000
 4606SOL    HW232506   7.169   2.749   0.098
 4607SOL     OW32507   7.070   9.570   2.305
 4607SOL    HW132508   7.082   9.632   2.382
 4607SOL    HW232509   7.145   9.581   2.240
 4608SOL     OW32510   2.096   0.089   8.386
 4608SOL    HW132511   1.997   0.089   8.377
 4608SOL    HW232512   2.124   0.171   8.437
 4609SOL     OW32513   3.121   8.170   0.730
 4609SOL    HW132514   3.109   8.074   0.707
 4609SOL    HW232515   3.060   8.226   0.673
 4610SOL     OW32516   1.804   7.093   7.158
 4610SOL    HW132517   1.712   7.126   7.177
 4610SOL    HW232518   1.804   6.993   7.156
 4611SOL     OW32519   8.036  10.194   7.096
 4611SOL    HW132520   8.120  10.142   7.084
 4611SOL    HW232521   7.968  10.137   7.143
 4612SOL     OW32522   5.606   5.832   7.606
 4612SOL    HW132523   5.629   5.746   7.652
 4612SOL    HW232524   5.688   5.870   7.564
 4613SOL     OW32525   7.964   6.946   0.636
 4613SOL    HW132526   7.904   6.975   0.561
 4613SOL    HW232527   8.051   6.915   0.598
 4614SOL     OW32528   7.413   5.657   8.414
 4614SOL    HW132529   7.473   5.704   8.479
 4614SOL    HW232530   7.368   5.725   8.355
 4615SOL     OW32531   0.494   4.799   7.691
 4615SOL    HW132532   0.494   4.817   7.790
 4615SOL    HW232533   0.408   4.833   7.652
 4616SOL     OW32534   4.655   0.564   6.688
 4616SOL    HW132535   4.590   0.634   6.717
 4616SOL    HW232536   4.747   0.604   6.681
 4617SOL     OW32537   4.629   9.989   0.766
 4617SOL    HW132538   4.546   9.972   0.819
 4617SOL    HW232539   4.621   9.947   0.676
 4618SOL     OW32540   0.755   5.140   8.272
 4618SOL    HW132541   0.747   5.041   8.281
 4618SOL    HW232542   0.821   5.162   8.200
 4619SOL     OW32543   0.965   3.492   0.468
 4619SOL    HW132544   0.931   3.558   0.400
 4619SOL    HW232545   1.027   3.538   0.530
 4620SOL     OW32546   8.142   0.240   1.514
 4620SOL    HW132547   8.102   0.311   1.456
 4620SOL    HW232548   8.191   0.283   1.589
 4621SOL     OW32549   7.959   0.682   2.521
 4621SOL    HW132550   7.938   0.744   2.597
 4621SOL    HW232551   8.049   0.703   2.484
 4622SOL     OW32552   6.848   9.967   7.934
 4622SOL    HW132553   6.938  10.007   7.916
 4622SOL    HW232554   6.824   9.905   7.859
 4623SOL     OW32555   4.221   4.718   0.114
 4623SOL    HW132556   4.150   4.718   0.184
 4623SOL    HW232557   4.183   4.752   0.028
 4624SOL     OW32558   1.179   9.245   0.911
 4624SOL    HW132559   1.199   9.341   0.892
 4624SOL    HW232560   1.244   9.210   0.978
 4625SOL     OW32561   0.978   8.924   1.568
 4625SOL    HW132562   1.033   8.868   1.629
 4625SOL    HW232563   0.977   8.884   1.477
 4626SOL     OW32564   8.271   4.544   8.587
 4626SOL    HW132565   8.353   4.568   8.638
 4626SOL    HW232566   8.278   4.579   8.493
 4627SOL     OW32567   3.325   7.728   0.430
 4627SOL    HW132568   3.340   7.806   0.369
 4627SOL    HW232569   3.241   7.681   0.404
 4628SOL     OW32570   7.431   1.662   0.916
 4628SOL    HW132571   7.523   1.628   0.894
 4628SOL    HW232572   7.370   1.645   0.839
 4629SOL     OW32573   9.213   0.850   7.450
 4629SOL    HW132574   9.150   0.899   7.390
 4629SOL    HW232575   9.215   0.893   7.540
 4630SOL     OW32576   8.042   2.634   6.889
 4630SOL    HW132577   7.989   2.575   6.827
 4630SOL    HW232578   7.980   2.695   6.938
 4631SOL     OW32579   6.143   9.949   0.724
 4631SOL    HW132580   6.202  10.019   0.765
 4631SOL    HW232581   6.111   9.981   0.635
 4632SOL     OW32582   4.152   1.086   0.502
 4632SOL    HW132583   4.093   1.022   0.454
 4632SOL    HW232584   4.219   1.125   0.438
 4633SOL     OW32585   6.484   7.799   6.453
 4633SOL    HW132586   6.427   7.717   6.445
 4633SOL    HW232587   6.467   7.860   6.376
 4634SOL     OW32588   4.071   2.432   2.086
 4634SOL    HW132589   3.991   2.382   2.119
 4634SOL    HW232590   4.051   2.530   2.085
 4635SOL     OW32591   8.933   5.307   7.071
 4635SOL    HW132592   8.859   5.278   7.010
 4635SOL    HW232593   8.902   5.303   7.166
 4636SOL     OW32594   9.634   0.053   0.394
 4636SOL    HW132595   9.597   0.099   0.475
 4636SOL    HW232596   9.734   0.051   0.401
 4637SOL     OW32597   3.382   7.094   7.772
 4637SOL    HW132598   3.350   7.001   7.790
 4637SOL    HW232599   3.482   7.096   7.768
 4638SOL     OW32600   9.665   7.788   0.996
 4638SOL    HW132601   9.643   7.814   1.090
 4638SOL    HW232602   9.646   7.691   0.983
 4639SOL     OW32603   2.312   1.375   8.086
 4639SOL    HW132604   2.341   1.469   8.070
 4639SOL    HW232605   2.365   1.314   8.027
 4640SOL     OW32606   9.456   1.119   7.340
 4640SOL    HW132607   9.386   1.054   7.311
 4640SOL    HW232608   9.413   1.207   7.360
 4641SOL     OW32609   0.919   2.414   0.798
 4641SOL    HW132610   0.992   2.346   0.797
 4641SOL    HW232611   0.940   2.485   0.865
 4642SOL     OW32612   9.330   3.217   5.992
 4642SOL    HW132613   9.252   3.271   6.025
 4642SOL    HW232614   9.371   3.168   6.069
 4643SOL     OW32615   9.329   2.031   7.481
 4643SOL    HW132616   9.253   1.998   7.537
 4643SOL    HW232617   9.370   2.111   7.524
 4644SOL     OW32618  10.131   8.579   1.482
 4644SOL    HW132619   0.035   8.615   1.552
 4644SOL    HW232620   0.026   8.532   1.411
 4645SOL     OW32621   6.254   6.825   0.596
 4645SOL    HW132622   6.155   6.813   0.602
 4645SOL    HW232623   6.278   6.919   0.621
 4646SOL     OW32624   5.688   5.952   0.035
 4646SOL    HW132625   5.643   5.863   0.042
 4646SOL    HW232626   5.641   6.017   0.095
 4647SOL     OW32627   3.170   2.013   8.223
 4647SOL    HW132628   3.072   2.013   8.203
 4647SOL    HW232629   3.218   1.958   8.155
 4648SOL     OW32630   9.871   9.784   8.357
 4648SOL    HW132631   9.857   9.760   8.261
 4648SOL    HW232632   9.854   9.703   8.414
 4649SOL     OW32633   4.105   4.815   8.656
 4649SOL    HW132634   4.050   4.898   8.643
 4649SOL    HW232635   4.201   4.836   8.636
 4650SOL     OW32636   4.360   9.148   0.865
 4650SOL    HW132637   4.309   9.175   0.783
 4650SOL    HW232638   4.429   9.080   0.840
 4651SOL     OW32639   9.911   9.034   0.811
 4651SOL    HW132640   9.893   9.104   0.880
 4651SOL    HW232641   9.902   9.074   0.720
 4652SOL     OW32642   2.262   6.761   6.244
 4652SOL    HW132643   2.224   6.730   6.156
 4652SOL    HW232644   2.304   6.851   6.232
 4653SOL     OW32645   2.594   8.992   7.283
 4653SOL    HW132646   2.518   9.038   7.238
 4653SOL    HW232647   2.626   8.917   7.226
 4654SOL     OW32648   6.042   0.449   2.074
 4654SOL    HW132649   5.997   0.532   2.106
 4654SOL    HW232650   6.011   0.371   2.129
 4655SOL     OW32651   8.421   6.248   0.188
 4655SOL    HW132652   8.466   6.160   0.201
 4655SOL    HW232653   8.344   6.257   0.251
 4656SOL     OW32654   0.076   9.864   7.757
 4656SOL    HW132655   0.150   9.832   7.698
 4656SOL    HW232656   0.111   9.935   7.818
 4657SOL     OW32657   8.945   0.539   7.287
 4657SOL    HW132658   8.869   0.477   7.269
 4657SOL    HW232659   8.919   0.632   7.262
 4658SOL     OW32660   3.060   1.227   1.078
 4658SOL    HW132661   3.035   1.227   1.175
 4658SOL    HW232662   3.157   1.203   1.069
 4659SOL     OW32663   0.851   3.988   6.458
 4659SOL    HW132664   0.809   4.072   6.424
 4659SOL    HW232665   0.913   3.951   6.389
 4660SOL     OW32666   3.184   5.286   6.644
 4660SOL    HW132667   3.198   5.301   6.547
 4660SOL    HW232668   3.239   5.208   6.675
 4661SOL     OW32669   7.415   8.278   0.023
 4661SOL    HW132670   7.395   8.351   0.089
 4661SOL    HW232671   7.333   8.259   8.750
 4662SOL     OW32672   4.350   8.374   2.346
 4662SOL    HW132673   4.436   8.346   2.302
 4662SOL    HW232674   4.290   8.295   2.354
 4663SOL     OW32675   9.996   9.264   7.553
 4663SOL    HW132676  10.037   9.345   7.511
 4663SOL    HW232677   9.922   9.230   7.495
 4664SOL     OW32678   8.670   1.896   1.139
 4664SOL    HW132679   8.733   1.972   1.123
 4664SOL    HW232680   8.625   1.871   1.052
 4665SOL     OW32681   2.688   6.371   8.726
 4665SOL    HW132682   2.631   6.302   8.681
 4665SOL    HW232683   2.762   6.326   8.776
 4666SOL     OW32684   0.669   0.175   0.293
 4666SOL    HW132685   0.588   0.229   0.315
 4666SOL    HW232686   0.663   0.141   0.199
 4667SOL     OW32687   8.944   7.609   1.932
 4667SOL    HW132688   8.976   7.653   2.016
 4667SOL    HW232689   8.851   7.573   1.947
 4668SOL     OW32690   1.849   6.874   1.104
 4668SOL    HW132691   1.840   6.970   1.078
 4668SOL    HW232692   1.896   6.824   1.032
 4669SOL     OW32693   9.795   8.448   7.634
 4669SOL    HW132694   9.794   8.544   7.608
 4669SOL    HW232695   9.726   8.432   7.705
 4670SOL     OW32696   3.632  10.001   0.500
 4670SOL    HW132697   3.690  10.053   0.563
 4670SOL    HW232698   3.556  10.058   0.469
 4671SOL     OW32699   6.845   7.932   1.827
 4671SOL    HW132700   6.863   8.013   1.883
 4671SOL    HW232701   6.883   7.851   1.872
 4672SOL     OW32702   0.413   7.242   0.663
 4672SOL    HW132703   0.329   7.278   0.705
 4672SOL    HW232704   0.462   7.187   0.730
 4673SOL     OW32705   6.763   5.303   7.183
 4673SOL    HW132706   6.787   5.214   7.145
 4673SOL    HW232707   6.666   5.307   7.203
 4674SOL     OW32708   8.487   3.626   8.494
 4674SOL    HW132709   8.554   3.563   8.532
 4674SOL    HW232710   8.426   3.658   8.566
 4675SOL     OW32711   2.310   0.474   0.154
 4675SOL    HW132712   2.334   0.422   0.236
 4675SOL    HW232713   2.280   0.566   0.180
 4676SOL     OW32714   6.680   1.179   7.767
 4676SOL    HW132715   6.600   1.139   7.724
 4676SOL    HW232716   6.659   1.201   7.863
 4677SOL     OW32717   4.325   5.131   6.559
 4677SOL    HW132718   4.291   5.214   6.516
 4677SOL    HW232719   4.395   5.089   6.502
 4678SOL     OW32720   8.659   6.858   0.322
 4678SOL    HW132721   8.660   6.915   0.405
 4678SOL    HW232722   8.747   6.813   0.312
 4679SOL     OW32723   5.479   6.459   0.691
 4679SOL    HW132724   5.499   6.414   0.778
 4679SOL    HW232725   5.458   6.389   0.622
 4680SOL     OW32726   5.226   7.568   0.901
 4680SOL    HW132727   5.269   7.498   0.958
 4680SOL    HW232728   5.149   7.528   0.852
 4681SOL     OW32729   7.379   0.406   8.684
 4681SOL    HW132730   7.426   0.425   8.598
 4681SOL    HW232731   7.328   0.320   8.676
 4682SOL     OW32732   1.373   4.848   6.358
 4682SOL    HW132733   1.358   4.903   6.277
 4682SOL    HW232734   1.370   4.751   6.334
 4683SOL     OW32735   7.267  10.048   7.318
 4683SOL    HW132736   7.351  10.034   7.369
 4683SOL    HW232737   7.208  10.113   7.367
 4684SOL     OW32738   4.586   7.045   0.663
 4684SOL    HW132739   4.632   6.976   0.606
 4684SOL    HW232740   4.505   7.005   0.705
 4685SOL     OW32741   2.341   3.922   0.745
 4685SOL    HW132742   2.319   3.825   0.753
 4685SOL    HW232743   2.426   3.932   0.694
 4686SOL     OW32744   2.035  10.260   7.937
 4686SOL    HW132745   2.120  10.228   7.896
 4686SOL    HW232746   2.040  10.359   7.952
 4687SOL     OW32747   4.705   3.163   2.007
 4687SOL    HW132748   4.719   3.121   1.918
 4687SOL    HW232749   4.759   3.247   2.013
 4688SOL     OW32750   4.531   7.178   1.780
 4688SOL    HW132751   4.597   7.251   1.761
 4688SOL    HW232752   4.556   7.132   1.865
 4689SOL     OW32753   8.122   3.170   8.218
 4689SOL    HW132754   8.163   3.237   8.156
 4689SOL    HW232755   8.147   3.193   8.313
 4690SOL     OW32756   6.872   9.037   1.860
 4690SOL    HW132757   6.947   9.011   1.799
 4690SOL    HW232758   6.894   9.123   1.905
 4691SOL     OW32759   9.337   0.483   1.762
 4691SOL    HW132760   9.408   0.438   1.709
 4691SOL    HW232761   9.289   0.549   1.704
 4692SOL     OW32762   3.791   6.204   0.963
 4692SOL    HW132763   3.703   6.240   0.994
 4692SOL    HW232764   3.797   6.107   0.987
 4693SOL     OW32765   5.060   0.310   8.464
 4693SOL    HW132766   5.035   0.309   8.561
 4693SOL    HW232767   5.049   0.403   8.428
 4694SOL     OW32768   6.823   7.532   8.372
 4694SOL    HW132769   6.898   7.543   8.437
 4694SOL    HW232770   6.775   7.619   8.361
 4695SOL     OW32771   7.769   2.836   7.381
 4695SOL    HW132772   7.751   2.742   7.411
 4695SOL    HW232773   7.738   2.847   7.287
 4696SOL     OW32774   5.699   8.543   8.391
 4696SOL    HW132775   5.604   8.530   8.420
 4696SOL    HW232776   5.754   8.468   8.426
 4697SOL     OW32777   3.971   7.611   7.188
 4697SOL    HW132778   3.969   7.624   7.287
 4697SOL    HW232779   3.993   7.516   7.167
 4698SOL     OW32780   5.848   6.873   7.471
 4698SOL    HW132781   5.895   6.791   7.439
 4698SOL    HW232782   5.911   6.951   7.465
 4699SOL     OW32783   4.937   4.754   6.943
 4699SOL    HW132784   4.845   4.735   6.910
 4699SOL    HW232785   4.933   4.787   7.037
 4700SOL     OW32786   7.985   7.631   1.473
 4700SOL    HW132787   8.070   7.683   1.472
 4700SOL    HW232788   7.909   7.691   1.447
 4701SOL     OW32789   6.191   9.889   7.002
 4701SOL    HW132790   6.245   9.973   7.005
 4701SOL    HW232791   6.183   9.858   6.907
 4702SOL     OW32792   5.654  10.273   0.138
 4702SOL    HW132793   5.635  10.359   0.089
 4702SOL    HW232794   5.745  10.241   0.115
 4703SOL     OW32795   0.710   3.993   7.766
 4703SOL    HW132796   0.748   4.065   7.825
 4703SOL    HW232797   0.690   4.031   7.676
 4704SOL     OW32798   9.194   8.178   7.568
 4704SOL    HW132799   9.187   8.214   7.661
 4704SOL    HW232800   9.153   8.243   7.504
 4705SOL     OW32801   2.760   9.486   0.249
 4705SOL    HW132802   2.769   9.390   0.275
 4705SOL    HW232803   2.726   9.492   0.155
 4706SOL     OW32804   5.232   6.173   2.005
 4706SOL    HW132805   5.241   6.272   2.007
 4706SOL    HW232806   5.179   6.142   2.085
 4707SOL     OW32807   6.955   8.594   0.076
 4707SOL    HW132808   6.908   8.590   8.769
 4707SOL    HW232809   6.918   8.670   0.129
 4708SOL     OW32810   7.449   1.163   8.325
 4708SOL    HW132811   7.468   1.184   8.229
 4708SOL    HW232812   7.523   1.108   8.363
 4709SOL     OW32813   8.130   9.119   2.285
 4709SOL    HW132814   8.037   9.145   2.261
 4709SOL    HW232815   8.135   9.099   2.383
 4710SOL     OW32816   8.991   0.761   1.610
 4710SOL    HW132817   8.968   0.750   1.513
 4710SOL    HW232818   9.088   0.740   1.623
 4711SOL     OW32819   5.969   7.936   7.211
 4711SOL    HW132820   5.978   7.993   7.292
 4711SOL    HW232821   5.872   7.923   7.190
 4712SOL     OW32822   1.540   5.167   7.334
 4712SOL    HW132823   1.613   5.234   7.340
 4712SOL    HW232824   1.464   5.195   7.393
 4713SOL     OW32825   3.055   1.994   0.680
 4713SOL    HW132826   3.126   2.029   0.740
 4713SOL    HW232827   3.097   1.960   0.595
 4714SOL     OW32828   5.325   7.503   7.094
 4714SOL    HW132829   5.369   7.584   7.056
 4714SOL    HW232830   5.378   7.470   7.172
 4715SOL     OW32831   8.464   1.190   0.620
 4715SOL    HW132832   8.422   1.115   0.671
 4715SOL    HW232833   8.429   1.192   0.527
 4716SOL     OW32834   6.727   1.767   8.491
 4716SOL    HW132835   6.775   1.847   8.529
 4716SOL    HW232836   6.697   1.788   8.397
 4717SOL     OW32837   7.084   6.219   8.421
 4717SOL    HW132838   7.109   6.125   8.395
 4717SOL    HW232839   7.090   6.229   8.520
 4718SOL     OW32840   9.036   8.828   1.368
 4718SOL    HW132841   8.943   8.800   1.392
 4718SOL    HW232842   9.089   8.748   1.341
 4719SOL     OW32843   5.695   6.150   1.607
 4719SOL    HW132844   5.758   6.073   1.608
 4719SOL    HW232845   5.701   6.199   1.694
 4720SOL     OW32846   3.294   7.185   8.604
 4720SOL    HW132847   3.366   7.165   8.671
 4720SOL    HW232848   3.216   7.125   8.620
 4721SOL     OW32849   2.031   0.963   1.353
 4721SOL    HW132850   1.978   0.969   1.438
 4721SOL    HW232851   2.044   1.054   1.315
 4722SOL     OW32852   3.315  10.350   7.784
 4722SOL    HW132853   3.395  10.310   7.828
 4722SOL    HW232854   3.267  10.409   7.850
 4723SOL     OW32855   6.909   0.017   6.393
 4723SOL    HW132856   6.959   0.014   6.307
 4723SOL    HW232857   6.963  10.477   6.465
 4724SOL     OW32858   0.703   1.488   6.305
 4724SOL    HW132859   0.772   1.453   6.242
 4724SOL    HW232860   0.700   1.432   6.387
 4725SOL     OW32861   1.463   6.285   6.529
 4725SOL    HW132862   1.430   6.332   6.447
 4725SOL    HW232863   1.388   6.232   6.570
 4726SOL     OW32864   3.857   8.557   8.538
 4726SOL    HW132865   3.805   8.613   8.603
 4726SOL    HW232866   3.953   8.582   8.542
 4727SOL     OW32867   0.079   4.635   2.154
 4727SOL    HW132868   0.053   4.721   2.111
 4727SOL    HW232869   0.081   4.563   2.085
 4728SOL     OW32870   6.352   0.910   0.254
 4728SOL    HW132871   6.275   0.933   0.193
 4728SOL    HW232872   6.356   0.977   0.328
 4729SOL     OW32873   3.123   5.114   0.497
 4729SOL    HW132874   3.070   5.031   0.513
 4729SOL    HW232875   3.070   5.194   0.526
 4730SOL     OW32876   6.823   5.541   1.932
 4730SOL    HW132877   6.724   5.549   1.940
 4730SOL    HW232878   6.859   5.489   2.011
 4731SOL     OW32879   0.167   2.272   8.684
 4731SOL    HW132880   0.200   2.210   8.756
 4731SOL    HW232881   0.094   2.330   8.721
 4732SOL     OW32882   3.198   4.093   0.329
 4732SOL    HW132883   3.203   4.008   0.276
 4732SOL    HW232884   3.146   4.076   0.413
 4733SOL     OW32885   8.289   3.303   7.083
 4733SOL    HW132886   8.359   3.338   7.020
 4733SOL    HW232887   8.211   3.365   7.084
 4734SOL     OW32888   7.031   7.932   0.393
 4734SOL    HW132889   7.066   8.000   0.328
 4734SOL    HW232890   6.999   7.852   0.343
 4735SOL     OW32891   8.385   8.976   8.441
 4735SOL    HW132892   8.479   8.979   8.475
 4735SOL    HW232893   8.384   8.944   8.347
 4736SOL     OW32894   2.349   8.671   7.833
 4736SOL    HW132895   2.415   8.597   7.819
 4736SOL    HW232896   2.275   8.663   7.767
 4737SOL     OW32897   2.574   4.662   1.112
 4737SOL    HW132898   2.607   4.576   1.151
 4737SOL    HW232899   2.628   4.686   1.032
 4738SOL     OW32900   2.500   9.133   8.623
 4738SOL    HW132901   2.418   9.075   8.629
 4738SOL    HW232902   2.532   9.136   8.529
 4739SOL     OW32903   1.681   0.373   0.843
 4739SOL    HW132904   1.672   0.396   0.746
 4739SOL    HW232905   1.697   0.457   0.895
 4740SOL     OW32906   2.678   0.003   6.889
 4740SOL    HW132907   2.768  10.498   6.933
 4740SOL    HW232908   2.610  10.458   6.943
 4741SOL     OW32909   4.212   8.949   0.999
 4741SOL    HW132910   4.262   9.026   0.961
 4741SOL    HW232911   4.224   8.946   1.098
 4742SOL     OW32912   9.456   8.564   0.611
 4742SOL    HW132913   9.554   8.547   0.597
 4742SOL    HW232914   9.434   8.553   0.707
 4743SOL     OW32915   3.575   5.757   0.547
 4743SOL    HW132916   3.629   5.832   0.508
 4743SOL    HW232917   3.557   5.690   0.475
 4744SOL     OW32918   3.184   1.306   7.313
 4744SOL    HW132919   3.174   1.268   7.405
 4744SOL    HW232920   3.095   1.336   7.279
 4745SOL     OW32921   1.868   0.826   1.181
 4745SOL    HW132922   1.892   0.730   1.171
 4745SOL    HW232923   1.932   0.872   1.242
 4746SOL     OW32924   0.434  10.311   0.740
 4746SOL    HW132925   0.402  10.264   0.822
 4746SOL    HW232926   0.453  10.407   0.762
 4747SOL     OW32927   1.160   9.810   0.531
 4747SOL    HW132928   1.223   9.813   0.608
 4747SOL    HW232929   1.072   9.773   0.561
 4748SOL     OW32930   3.123   0.769   0.924
 4748SOL    HW132931   3.123   0.701   0.850
 4748SOL    HW232932   3.058   0.741   0.994
 4749SOL     OW32933   5.448   7.278   7.628
 4749SOL    HW132934   5.514   7.253   7.698
 4749SOL    HW232935   5.409   7.195   7.587
 4750SOL     OW32936   8.878   8.506   7.638
 4750SOL    HW132937   8.812   8.431   7.640
 4750SOL    HW232938   8.884   8.547   7.729
 4751SOL     OW32939   5.016   3.081   7.462
 4751SOL    HW132940   5.026   2.983   7.475
 4751SOL    HW232941   5.086   3.114   7.398
 4752SOL     OW32942   2.263   0.374   6.284
 4752SOL    HW132943   2.204   0.339   6.210
 4752SOL    HW232944   2.349   0.406   6.245
 4753SOL     OW32945   9.876   2.861   2.109
 4753SOL    HW132946   9.845   2.946   2.152
 4753SOL    HW232947   9.825   2.784   2.147
 4754SOL     OW32948   1.733   3.491   1.281
 4754SOL    HW132949   1.652   3.478   1.223
 4754SOL    HW232950   1.805   3.536   1.228
 4755SOL     OW32951   5.406   8.580   7.259
 4755SOL    HW132952   5.388   8.494   7.211
 4755SOL    HW232953   5.390   8.567   7.357
 4756SOL     OW32954   7.906   8.890   6.421
 4756SOL    HW132955   7.908   8.988   6.439
 4756SOL    HW232956   7.998   8.859   6.397
 4757SOL     OW32957   5.246   8.376   7.924
 4757SOL    HW132958   5.189   8.392   7.843
 4757SOL    HW232959   5.337   8.344   7.895
 4758SOL     OW32960   0.582   2.343   7.776
 4758SOL    HW132961   0.601   2.297   7.689
 4758SOL    HW232962   0.593   2.278   7.851
 4759SOL     OW32963   1.481   5.461   1.429
 4759SOL    HW132964   1.435   5.484   1.343
 4759SOL    HW232965   1.580   5.455   1.413
 4760SOL     OW32966   1.525   9.605   7.253
 4760SOL    HW132967   1.437   9.564   7.278
 4760SOL    HW232968   1.527   9.621   7.155
 4761SOL     OW32969   1.928   9.945   8.386
 4761SOL    HW132970   1.934  10.018   8.319
 4761SOL    HW232971   1.884   9.865   8.345
 4762SOL     OW32972   1.831   7.850   0.709
 4762SOL    HW132973   1.783   7.903   0.639
 4762SOL    HW232974   1.929   7.867   0.702
 4763SOL     OW32975   1.263   1.172   7.236
 4763SOL    HW132976   1.171   1.199   7.264
 4763SOL    HW232977   1.329   1.201   7.306
 4764SOL     OW32978   4.431   5.660   0.194
 4764SOL    HW132979   4.354   5.705   0.149
 4764SOL    HW232980   4.439   5.566   0.161
 4765SOL     OW32981   8.873   2.496   8.302
 4765SOL    HW132982   8.862   2.537   8.212
 4765SOL    HW232983   8.960   2.446   8.305
 4766SOL     OW32984   9.158   3.294   1.580
 4766SOL    HW132985   9.195   3.331   1.495
 4766SOL    HW232986   9.080   3.235   1.560
 4767SOL     OW32987   3.816   5.508   0.708
 4767SOL    HW132988   3.810   5.415   0.671
 4767SOL    HW232989   3.725   5.539   0.737
 4768SOL     OW32990   0.405   3.227   7.652
 4768SOL    HW132991   0.341   3.234   7.728
 4768SOL    HW232992   0.357   3.242   7.566
 4769SOL     OW32993   7.939   8.524   7.282
 4769SOL    HW132994   7.986   8.470   7.352
 4769SOL    HW232995   7.973   8.498   7.192
 4770SOL     OW32996   5.471   9.864   2.185
 4770SOL    HW132997   5.396   9.922   2.216
 4770SOL    HW232998   5.469   9.778   2.236
 4771SOL     OW32999   8.267  10.323   7.725
 4771SOL    HW133000   8.220  10.338   7.812
 4771SOL    HW233001   8.295  10.228   7.718
 4772SOL     OW33002   0.992   3.835   0.548
 4772SOL    HW133003   1.011   3.846   0.450
 4772SOL    HW233004   1.007   3.922   0.595
 4773SOL     OW33005   1.413   7.691   8.193
 4773SOL    HW133006   1.383   7.785   8.180
 4773SOL    HW233007   1.491   7.690   8.256
 4774SOL     OW33008   9.490   2.019   1.177
 4774SOL    HW133009   9.468   1.996   1.082
 4774SOL    HW233010   9.433   1.965   1.238
 4775SOL     OW33011   8.929   5.497   7.424
 4775SOL    HW133012   8.995   5.455   7.487
 4775SOL    HW233013   8.878   5.425   7.378
 4776SOL     OW33014   5.590   3.704   0.740
 4776SOL    HW133015   5.611   3.636   0.810
 4776SOL    HW233016   5.521   3.767   0.775
 4777SOL     OW33017   0.022   5.878   7.010
 4777SOL    HW133018  10.091   5.900   6.971
 4777SOL    HW233019   0.094   5.923   6.956
 4778SOL     OW33020   6.032  10.050   0.496
 4778SOL    HW133021   5.935  10.067   0.512
 4778SOL    HW233022   6.070  10.124   0.441
 4779SOL     OW33023   7.238   4.987   0.905
 4779SOL    HW133024   7.331   5.003   0.871
 4779SOL    HW233025   7.209   4.895   0.880
 4780SOL     OW33026   9.983   9.273   0.120
 4780SOL    HW133027   9.965   9.175   0.115
 4780SOL    HW233028   9.910   9.318   0.171
 4781SOL     OW33029   5.853   4.513   6.874
 4781SOL    HW133030   5.874   4.525   6.777
 4781SOL    HW233031   5.799   4.591   6.906
 4782SOL     OW33032   2.751   2.367   6.754
 4782SOL    HW133033   2.815   2.344   6.681
 4782SOL    HW233034   2.659   2.339   6.726
 4783SOL     OW33035   7.995   3.559   1.001
 4783SOL    HW133036   7.989   3.630   1.071
 4783SOL    HW233037   8.055   3.590   0.927
 4784SOL     OW33038   1.193   9.494   8.179
 4784SOL    HW133039   1.158   9.499   8.272
 4784SOL    HW233040   1.135   9.547   8.118
 4785SOL     OW33041   0.228   8.696   0.314
 4785SOL    HW133042   0.239   8.676   0.217
 4785SOL    HW233043   0.184   8.785   0.325
 4786SOL     OW33044   4.251   3.003   1.619
 4786SOL    HW133045   4.192   2.963   1.548
 4786SOL    HW233046   4.199   3.072   1.670
 4787SOL     OW33047   3.871   7.697   7.790
 4787SOL    HW133048   3.888   7.600   7.773
 4787SOL    HW233049   3.930   7.753   7.731
 4788SOL     OW33050   9.357   4.750   8.250
 4788SOL    HW133051   9.343   4.793   8.161
 4788SOL    HW233052   9.447   4.774   8.285
 4789SOL     OW33053   3.008   7.187   1.588
 4789SOL    HW133054   3.055   7.273   1.566
 4789SOL    HW233055   2.955   7.199   1.672
 4790SOL     OW33056   9.247   3.904   0.094
 4790SOL    HW133057   9.255   3.806   0.108
 4790SOL    HW233058   9.168   3.939   0.146
 4791SOL     OW33059   1.682   4.430   7.843
 4791SOL    HW133060   1.753   4.471   7.785
 4791SOL    HW233061   1.692   4.331   7.843
 4792SOL     OW33062   9.563   4.045   6.633
 4792SOL    HW133063   9.547   4.144   6.631
 4792SOL    HW233064   9.481   3.997   6.604
 4793SOL     OW33065   2.531   9.707   0.822
 4793SOL    HW133066   2.584   9.644   0.766
 4793SOL    HW233067   2.547   9.801   0.792
 4794SOL     OW33068   5.812   3.836   7.156
 4794SOL    HW133069   5.825   3.756   7.097
 4794SOL    HW233070   5.896   3.890   7.156
 4795SOL     OW33071   7.294   8.660   8.589
 4795SOL    HW133072   7.270   8.740   8.534
 4795SOL    HW233073   7.259   8.578   8.544
 4796SOL     OW33074   0.487   5.351   7.318
 4796SOL    HW133075   0.576   5.391   7.297
 4796SOL    HW233076   0.491   5.309   7.409
 4797SOL     OW33077   3.512   9.751   1.751
 4797SOL    HW133078   3.523   9.851   1.751
 4797SOL    HW233079   3.602   9.708   1.765
 4798SOL     OW33080   1.875   7.259   1.571
 4798SOL    HW133081   1.802   7.294   1.631
 4798SOL    HW233082   1.917   7.179   1.613
 4799SOL     OW33083   5.316   5.300   7.684
 4799SOL    HW133084   5.316   5.329   7.780
 4799SOL    HW233085   5.344   5.376   7.626
 4800SOL     OW33086   9.101   1.705   7.570
 4800SOL    HW133087   9.107   1.798   7.608
 4800SOL    HW233088   9.122   1.708   7.472
 4801SOL     OW33089   0.336   2.665   7.707
 4801SOL    HW133090   0.265   2.730   7.682
 4801SOL    HW233091   0.335   2.651   7.806
 4802SOL     OW33092   6.164   8.260   8.071
 4802SOL    HW133093   6.143   8.331   8.139
 4802SOL    HW233094   6.193   8.304   7.986
 4803SOL     OW33095   0.569   5.113   1.781
 4803SOL    HW133096   0.520   5.152   1.859
 4803SOL    HW233097   0.658   5.078   1.812
 4804SOL     OW33098   1.763   0.988   7.635
 4804SOL    HW133099   1.859   1.008   7.612
 4804SOL    HW233100   1.724   1.067   7.684
 4805SOL     OW33101   6.378   8.041   1.328
 4805SOL    HW133102   6.294   8.070   1.373
 4805SOL    HW233103   6.361   8.028   1.230
 4806SOL     OW33104   9.016   0.109   7.605
 4806SOL    HW133105   9.079   0.102   7.682
 4806SOL    HW233106   9.062   0.155   7.528
 4807SOL     OW33107   5.552   3.608   6.554
 4807SOL    HW133108   5.624   3.556   6.508
 4807SOL    HW233109   5.474   3.619   6.493
 4808SOL     OW33110   9.677   8.052   0.925
 4808SOL    HW133111   9.666   7.954   0.941
 4808SOL    HW233112   9.606   8.102   0.974
 4809SOL     OW33113   6.100   3.726   0.535
 4809SOL    HW133114   6.078   3.667   0.457
 4809SOL    HW233115   6.107   3.821   0.504
 4810SOL     OW33116   2.234   2.681   6.678
 4810SOL    HW133117   2.240   2.640   6.587
 4810SOL    HW233118   2.153   2.644   6.725
 4811SOL     OW33119   8.384   0.691   0.000
 4811SOL    HW133120   8.448   0.661   8.711
 4811SOL    HW233121   8.435   0.732   0.076
 4812SOL     OW33122   2.110   1.714   7.098
 4812SOL    HW133123   2.077   1.718   7.192
 4812SOL    HW233124   2.070   1.636   7.051
 4813SOL     OW33125   8.699   4.803   0.323
 4813SOL    HW133126   8.629   4.758   0.378
 4813SOL    HW233127   8.662   4.886   0.283
 4814SOL     OW33128   8.530   6.415   8.123
 4814SOL    HW133129   8.614   6.450   8.082
 4814SOL    HW233130   8.549   6.331   8.173
 4815SOL     OW33131   6.791   2.768   7.722
 4815SOL    HW133132   6.843   2.692   7.760
 4815SOL    HW233133   6.854   2.838   7.687
 4816SOL     OW33134   9.017   8.844   8.607
 4816SOL    HW133135   9.033   8.757   8.561
 4816SOL    HW233136   9.095   8.866   8.665
 4817SOL     OW33137   5.317   8.100   8.429
 4817SOL    HW133138   5.272   8.185   8.456
 4817SOL    HW233139   5.285   8.025   8.488
 4818SOL     OW33140   1.662   7.730   7.834
 4818SOL    HW133141   1.672   7.755   7.738
 4818SOL    HW233142   1.565   7.718   7.855
 4819SOL     OW33143   2.023   8.838   1.197
 4819SOL    HW133144   1.988   8.914   1.142
 4819SOL    HW233145   2.067   8.875   1.279
 4820SOL     OW33146   4.136   0.958   1.122
 4820SOL    HW133147   4.202   0.928   1.191
 4820SOL    HW233148   4.084   0.878   1.090
 4821SOL     OW33149   8.303   8.284   6.244
 4821SOL    HW133150   8.350   8.310   6.329
 4821SOL    HW233151   8.359   8.216   6.196
 4822SOL     OW33152   7.557   0.794   2.357
 4822SOL    HW133153   7.532   0.838   2.443
 4822SOL    HW233154   7.485   0.729   2.331
 4823SOL     OW33155   3.636   8.693   7.880
 4823SOL    HW133156   3.557   8.734   7.835
 4823SOL    HW233157   3.609   8.660   7.970
 4824SOL     OW33158   4.109   0.935   0.065
 4824SOL    HW133159   4.035   0.945   8.780
 4824SOL    HW233160   4.070   0.925   0.156
 4825SOL     OW33161   3.664   9.614   1.031
 4825SOL    HW133162   3.728   9.623   0.954
 4825SOL    HW233163   3.588   9.677   1.017
 4826SOL     OW33164   6.725   9.566   7.176
 4826SOL    HW133165   6.664   9.620   7.118
 4826SOL    HW233166   6.812   9.614   7.186
 4827SOL     OW33167   4.781   8.989   1.466
 4827SOL    HW133168   4.706   9.052   1.485
 4827SOL    HW233169   4.748   8.895   1.476
 4828SOL     OW33170   8.731   4.698   8.211
 4828SOL    HW133171   8.676   4.707   8.127
 4828SOL    HW233172   8.809   4.638   8.193
 4829SOL     OW33173   6.945   0.435   8.720
 4829SOL    HW133174   6.849   0.424   8.744
 4829SOL    HW233175   6.992   0.347   8.727
 4830SOL     OW33176   2.961   0.077   8.410
 4830SOL    HW133177   2.903   0.149   8.450
 4830SOL    HW233178   3.011   0.030   8.483
 4831SOL     OW33179   3.081   0.682   7.828
 4831SOL    HW133180   3.111   0.652   7.738
 4831SOL    HW233181   3.125   0.627   7.899
 4832SOL     OW33182   3.649   5.288   6.113
 4832SOL    HW133183   3.639   5.211   6.051
 4832SOL    HW233184   3.594   5.365   6.080
 4833SOL     OW33185   2.965   1.819   0.879
 4833SOL    HW133186   2.867   1.810   0.897
 4833SOL    HW233187   2.979   1.883   0.804
 4834SOL     OW33188   7.856   6.701   7.708
 4834SOL    HW133189   7.870   6.692   7.807
 4834SOL    HW233190   7.940   6.733   7.665
 4835SOL     OW33191   6.237   6.290   7.807
 4835SOL    HW133192   6.195   6.291   7.898
 4835SOL    HW233193   6.247   6.195   7.776
 4836SOL     OW33194   9.329   8.087   1.861
 4836SOL    HW133195   9.332   8.182   1.828
 4836SOL    HW233196   9.399   8.074   1.931
 4837SOL     OW33197   2.727   3.093   1.018
 4837SOL    HW133198   2.665   3.021   1.049
 4837SOL    HW233199   2.807   3.051   0.976
 4838SOL     OW33200   8.170   1.992   0.953
 4838SOL    HW133201   8.097   2.043   0.907
 4838SOL    HW233202   8.249   2.052   0.965
 4839SOL     OW33203   9.685   1.057   0.692
 4839SOL    HW133204   9.654   0.965   0.667
 4839SOL    HW233205   9.649   1.080   0.783
 4840SOL     OW33206   0.820   6.770   1.874
 4840SOL    HW133207   0.721   6.765   1.879
 4840SOL    HW233208   0.847   6.863   1.847
 4841SOL     OW33209   0.578   9.954   0.466
 4841SOL    HW133210   0.540  10.001   0.546
 4841SOL    HW233211   0.568   9.855   0.478
 4842SOL     OW33212   9.951   0.723   8.230
 4842SOL    HW133213  10.034   0.675   8.258
 4842SOL    HW233214   9.949   0.732   8.131
 4843SOL     OW33215   5.925   3.754   1.416
 4843SOL    HW133216   5.859   3.825   1.441
 4843SOL    HW233217   5.912   3.675   1.475
 4844SOL     OW33218   4.681   4.693   6.869
 4844SOL    HW133219   4.599   4.727   6.914
 4844SOL    HW233220   4.677   4.715   6.772
 4845SOL     OW33221   0.659   1.276   7.623
 4845SOL    HW133222   0.573   1.227   7.610
 4845SOL    HW233223   0.654   1.329   7.708
 4846SOL     OW33224   7.007   0.580   6.321
 4846SOL    HW133225   6.937   0.543   6.260
 4846SOL    HW233226   6.985   0.675   6.344
 4847SOL     OW33227   4.665   9.644   1.125
 4847SOL    HW133228   4.728   9.572   1.154
 4847SOL    HW233229   4.574   9.627   1.164
 4848SOL     OW33230   2.346   0.109   1.067
 4848SOL    HW133231   2.406   0.052   1.123
 4848SOL    HW233232   2.392   0.134   0.982
 4849SOL     OW33233   1.704   5.174   1.488
 4849SOL    HW133234   1.707   5.087   1.439
 4849SOL    HW233235   1.616   5.183   1.536
 4850SOL     OW33236   3.990   5.162   0.107
 4850SOL    HW133237   3.978   5.077   0.159
 4850SOL    HW233238   3.999   5.141   0.010
 4851SOL     OW33239   4.705   5.393   6.578
 4851SOL    HW133240   4.772   5.373   6.506
 4851SOL    HW233241   4.619   5.421   6.536
 4852SOL     OW33242   4.457   0.540   0.410
 4852SOL    HW133243   4.438   0.613   0.345
 4852SOL    HW233244   4.526   0.571   0.475
 4853SOL     OW33245   0.432   3.645   7.727
 4853SOL    HW133246   0.341   3.612   7.751
 4853SOL    HW233247   0.425   3.728   7.672
 4854SOL     OW33248   4.277   9.738   8.755
 4854SOL    HW133249   4.333   9.664   0.010
 4854SOL    HW233250   4.336   9.803   8.707
 4855SOL     OW33251   1.421   0.213   1.621
 4855SOL    HW133252   1.507   0.259   1.603
 4855SOL    HW233253   1.408   0.139   1.554
 4856SOL     OW33254   2.083   3.438   1.322
 4856SOL    HW133255   2.033   3.505   1.269
 4856SOL    HW233256   2.027   3.356   1.334
 4857SOL     OW33257   9.775   9.707   1.025
 4857SOL    HW133258   9.727   9.629   0.984
 4857SOL    HW233259   9.711   9.783   1.038
 4858SOL     OW33260   2.655   8.886   1.956
 4858SOL    HW133261   2.568   8.906   1.912
 4858SOL    HW233262   2.724   8.864   1.887
 4859SOL     OW33263   5.478   4.465   1.673
 4859SOL    HW133264   5.529   4.382   1.693
 4859SOL    HW233265   5.540   4.544   1.675
 4860SOL     OW33266   2.142   6.791   7.190
 4860SOL    HW133267   2.080   6.712   7.196
 4860SOL    HW233268   2.178   6.811   7.281
 4861SOL     OW33269   5.577   0.687   8.229
 4861SOL    HW133270   5.634   0.765   8.257
 4861SOL    HW233271   5.505   0.719   8.168
 4862SOL     OW33272   7.802   5.831   7.440
 4862SOL    HW133273   7.889   5.821   7.392
 4862SOL    HW233274   7.817   5.878   7.527
 4863SOL     OW33275   2.371   9.906   2.150
 4863SOL    HW133276   2.373  10.005   2.161
 4863SOL    HW233277   2.295   9.881   2.089
 4864SOL     OW33278   4.943   9.884   7.505
 4864SOL    HW133279   4.925   9.970   7.554
 4864SOL    HW233280   4.977   9.904   7.413
 4865SOL     OW33281   3.994   1.917   2.275
 4865SOL    HW133282   4.044   1.961   2.201
 4865SOL    HW233283   3.896   1.920   2.256
 4866SOL     OW33284   3.073   9.128   1.812
 4866SOL    HW133285   3.041   9.197   1.746
 4866SOL    HW233286   3.143   9.169   1.871
 4867SOL     OW33287   2.421   6.413   0.508
 4867SOL    HW133288   2.498   6.355   0.481
 4867SOL    HW233289   2.377   6.374   0.589
 4868SOL     OW33290   1.482   3.894   2.221
 4868SOL    HW133291   1.410   3.954   2.256
 4868SOL    HW233292   1.571   3.932   2.246
 4869SOL     OW33293   3.853   8.744   1.949
 4869SOL    HW133294   3.894   8.694   2.026
 4869SOL    HW233295   3.788   8.684   1.903
 4870SOL     OW33296   8.643   5.916   6.742
 4870SOL    HW133297   8.737   5.883   6.729
 4870SOL    HW233298   8.605   5.944   6.654
 4871SOL     OW33299  10.059   5.407   7.249
 4871SOL    HW133300  10.105   5.465   7.182
 4871SOL    HW233301  10.078   5.441   7.341
 4872SOL     OW33302   2.592  10.189   0.042
 4872SOL    HW133303   2.581  10.288   0.054
 4872SOL    HW233304   2.674  10.171   8.769
 4873SOL     OW33305   9.991   9.443   7.928
 4873SOL    HW133306   9.943   9.370   7.880
 4873SOL    HW233307   9.962   9.444   8.024
 4874SOL     OW33308   4.225   2.184   6.575
 4874SOL    HW133309   4.138   2.140   6.556
 4874SOL    HW233310   4.276   2.196   6.490
 4875SOL     OW33311   8.689   0.035   8.060
 4875SOL    HW133312   8.646   0.112   8.013
 4875SOL    HW233313   8.678  10.455   8.004
 4876SOL     OW33314   0.733   8.195   7.935
 4876SOL    HW133315   0.697   8.282   7.902
 4876SOL    HW233316   0.813   8.170   7.882
 4877SOL     OW33317   5.368   7.821   6.783
 4877SOL    HW133318   5.269   7.821   6.796
 4877SOL    HW233319   5.397   7.733   6.746
 4878SOL     OW33320   9.697   7.818   2.016
 4878SOL    HW133321   9.793   7.822   2.041
 4878SOL    HW233322   9.666   7.723   2.018
 4879SOL     OW33323   4.566   9.536   7.107
 4879SOL    HW133324   4.477   9.538   7.153
 4879SOL    HW233325   4.595   9.442   7.095
 4880SOL     OW33326   4.838   1.360   6.577
 4880SOL    HW133327   4.750   1.338   6.534
 4880SOL    HW233328   4.881   1.435   6.527
 4881SOL     OW33329   9.008   4.334   6.752
 4881SOL    HW133330   8.989   4.372   6.842
 4881SOL    HW233331   8.935   4.358   6.688
 4882SOL     OW33332   6.388   8.507   1.401
 4882SOL    HW133333   6.324   8.448   1.450
 4882SOL    HW233334   6.475   8.511   1.451
 4883SOL     OW33335   9.074   7.495   0.248
 4883SOL    HW133336   8.982   7.535   0.251
 4883SOL    HW233337   9.070   7.401   0.281
 4884SOL     OW33338   0.023   1.717   1.128
 4884SOL    HW133339   0.022   1.793   1.193
 4884SOL    HW233340  10.086   1.689   1.108
 4885SOL     OW33341   2.680   0.873   6.371
 4885SOL    HW133342   2.722   0.936   6.437
 4885SOL    HW233343   2.591   0.908   6.343
 4886SOL     OW33344   6.861   8.550   7.895
 4886SOL    HW133345   6.886   8.638   7.855
 4886SOL    HW233346   6.793   8.564   7.966
 4887SOL     OW33347   0.609   9.779   7.054
 4887SOL    HW133348   0.616   9.717   6.976
 4887SOL    HW233349   0.623   9.728   7.139
 4888SOL     OW33350   8.393   3.710   2.133
 4888SOL    HW133351   8.429   3.629   2.180
 4888SOL    HW233352   8.330   3.758   2.194
 4889SOL     OW33353   3.622   4.547   2.461
 4889SOL    HW133354   3.619   4.571   2.558
 4889SOL    HW233355   3.529   4.547   2.424
 4890SOL     OW33356   0.044   6.194   7.242
 4890SOL    HW133357   0.141   6.181   7.220
 4890SOL    HW233358  10.150   6.210   7.158
 4891SOL     OW33359   6.373   6.170   8.187
 4891SOL    HW133360   6.285   6.125   8.206
 4891SOL    HW233361   6.361   6.269   8.192
 4892SOL     OW33362   3.531   8.011   1.524
 4892SOL    HW133363   3.463   8.072   1.563
 4892SOL    HW233364   3.485   7.939   1.472
 4893SOL     OW33365   5.147   1.057   7.753
 4893SOL    HW133366   5.061   1.028   7.793
 4893SOL    HW233367   5.196   1.115   7.818
 4894SOL     OW33368   0.958   0.294   0.729
 4894SOL    HW133369   1.044   0.266   0.688
 4894SOL    HW233370   0.924   0.376   0.682
 4895SOL     OW33371   1.126   8.872   8.725
 4895SOL    HW133372   1.141   8.903   0.037
 4895SOL    HW233373   1.076   8.786   8.726
 4896SOL     OW33374   5.579   6.892   8.616
 4896SOL    HW133375   5.487   6.859   8.593
 4896SOL    HW233376   5.583   6.991   8.605
 4897SOL     OW33377   4.068   0.260   7.469
 4897SOL    HW133378   4.030   0.237   7.559
 4897SOL    HW233379   4.152   0.312   7.481
 4898SOL     OW33380   3.679   2.849   1.071
 4898SOL    HW133381   3.723   2.794   1.001
 4898SOL    HW233382   3.694   2.946   1.050
 4899SOL     OW33383   6.270   1.205   8.071
 4899SOL    HW133384   6.340   1.209   8.142
 4899SOL    HW233385   6.261   1.294   8.027
 4900SOL     OW33386   8.820   1.182   7.625
 4900SOL    HW133387   8.744   1.233   7.664
 4900SOL    HW233388   8.802   1.084   7.632
 4901SOL     OW33389   4.018   0.043   6.893
 4901SOL    HW133390   4.072   0.017   6.973
 4901SOL    HW233391   4.034   0.140   6.873
 4902SOL     OW33392   6.611   4.318   6.911
 4902SOL    HW133393   6.554   4.390   6.871
 4902SOL    HW233394   6.702   4.355   6.930
 4903SOL     OW33395   7.693   8.554   6.751
 4903SOL    HW133396   7.766   8.616   6.721
 4903SOL    HW233397   7.645   8.517   6.672
 4904SOL     OW33398   7.997   0.734   0.891
 4904SOL    HW133399   7.912   0.780   0.915
 4904SOL    HW233400   8.075   0.787   0.926
 4905SOL     OW33401   5.856   8.953   7.724
 4905SOL    HW133402   5.865   8.966   7.625
 4905SOL    HW233403   5.947   8.936   7.763
 4906SOL     OW33404   9.320   0.420   7.638
 4906SOL    HW133405   9.254   0.462   7.576
 4906SOL    HW233406   9.368   0.346   7.590
 4907SOL     OW33407   3.549   8.189   8.455
 4907SOL    HW133408   3.484   8.254   8.414
 4907SOL    HW233409   3.620   8.239   8.504
 4908SOL     OW33410   5.070   5.242   1.851
 4908SOL    HW133411   5.101   5.205   1.939
 4908SOL    HW233412   5.149   5.268   1.796
 4909SOL     OW33413   2.797   9.331   1.210
 4909SOL    HW133414   2.709   9.300   1.172
 4909SOL    HW233415   2.842   9.391   1.144
 4910SOL     OW33416   0.914   6.809   8.675
 4910SOL    HW133417   0.990   6.798   8.738
 4910SOL    HW233418   0.845   6.739   8.693
 4911SOL     OW33419   9.988   6.326   1.700
 4911SOL    HW133420  10.075   6.291   1.735
 4911SOL    HW233421   9.943   6.379   1.771
 4912SOL     OW33422   8.665   7.018   0.549
 4912SOL    HW133423   8.720   6.976   0.621
 4912SOL    HW233424   8.701   7.108   0.528
 4913SOL     OW33425   5.068   6.097   2.220
 4913SOL    HW133426   5.025   6.014   2.186
 4913SOL    HW233427   5.023   6.125   2.305
 4914SOL     OW33428   4.956   9.235   0.815
 4914SOL    HW133429   5.017   9.267   0.743
 4914SOL    HW233430   4.869   9.205   0.775
 4915SOL     OW33431   9.249   4.567   7.757
 4915SOL    HW133432   9.189   4.647   7.767
 4915SOL    HW233433   9.198   4.492   7.717
 4916SOL     OW33434   6.725   9.221   6.685
 4916SOL    HW133435   6.749   9.125   6.674
 4916SOL    HW233436   6.726   9.267   6.597
 4917SOL     OW33437   6.847   8.946   1.230
 4917SOL    HW133438   6.926   9.003   1.209
 4917SOL    HW233439   6.783   8.949   1.153
 4918SOL     OW33440   0.009   7.889   6.576
 4918SOL    HW133441  10.084   7.834   6.587
 4918SOL    HW233442   0.057   7.860   6.493
 4919SOL     OW33443   3.530   6.386   1.544
 4919SOL    HW133444   3.555   6.481   1.527
 4919SOL    HW233445   3.501   6.375   1.639
 4920SOL     OW33446   4.677   2.091   1.242
 4920SOL    HW133447   4.725   2.176   1.264
 4920SOL    HW233448   4.595   2.083   1.298
 4921SOL     OW33449   5.703   7.883   6.794
 4921SOL    HW133450   5.645   7.940   6.853
 4921SOL    HW233451   5.653   7.859   6.711
 4922SOL     OW33452   0.726   8.325   1.015
 4922SOL    HW133453   0.683   8.279   1.093
 4922SOL    HW233454   0.770   8.409   1.046
 4923SOL     OW33455   3.176   6.063   8.581
 4923SOL    HW133456   3.144   6.126   8.510
 4923SOL    HW233457   3.170   6.109   8.670
 4924SOL     OW33458   8.936   7.151   7.546
 4924SOL    HW133459   8.838   7.169   7.550
 4924SOL    HW233460   8.959   7.109   7.459
 4925SOL     OW33461   3.937   4.271   7.498
 4925SOL    HW133462   4.023   4.236   7.535
 4925SOL    HW233463   3.898   4.338   7.562
 4926SOL     OW33464   7.049   9.125   1.171
 4926SOL    HW133465   6.997   9.210   1.158
 4926SOL    HW233466   7.092   9.125   1.261
 4927SOL     OW33467   9.314   5.935   8.443
 4927SOL    HW133468   9.249   6.008   8.420
 4927SOL    HW233469   9.309   5.916   8.541
 4928SOL     OW33470   8.954   7.941   8.568
 4928SOL    HW133471   8.928   8.018   8.626
 4928SOL    HW233472   9.043   7.958   8.527
 4929SOL     OW33473   1.279   9.449   6.635
 4929SOL    HW133474   1.212   9.477   6.567
 4929SOL    HW233475   1.362   9.504   6.625
 4930SOL     OW33476   2.928   1.355   7.227
 4930SOL    HW133477   2.854   1.413   7.259
 4930SOL    HW233478   2.920   1.343   7.128
 4931SOL     OW33479   4.395   2.741   1.579
 4931SOL    HW133480   4.387   2.838   1.556
 4931SOL    HW233481   4.333   2.719   1.654
 4932SOL     OW33482   4.975   3.322   8.304
 4932SOL    HW133483   5.044   3.290   8.239
 4932SOL    HW233484   4.930   3.404   8.267
 4933SOL     OW33485   3.554   0.002   8.432
 4933SOL    HW133486   3.603   0.068   8.489
 4933SOL    HW233487   3.456   0.009   8.450
 4934SOL     OW33488   8.775   0.361   6.902
 4934SOL    HW133489   8.854   0.387   6.846
 4934SOL    HW233490   8.695   0.412   6.873
 4935SOL     OW33491   2.558   3.643   1.772
 4935SOL    HW133492   2.588   3.735   1.746
 4935SOL    HW233493   2.490   3.650   1.846
 4936SOL     OW33494   7.769   2.239   0.115
 4936SOL    HW133495   7.783   2.209   0.021
 4936SOL    HW233496   7.692   2.303   0.118
 4937SOL     OW33497   1.286  10.327   7.798
 4937SOL    HW133498   1.381  10.357   7.806
 4937SOL    HW233499   1.226  10.396   7.839
 4938SOL     OW33500   6.695   3.508   7.684
 4938SOL    HW133501   6.734   3.578   7.625
 4938SOL    HW233502   6.605   3.482   7.650
 4939SOL     OW33503   1.854   8.658   8.204
 4939SOL    HW133504   1.895   8.744   8.235
 4939SOL    HW233505   1.925   8.600   8.165
 4940SOL     OW33506   4.443   4.400   0.710
 4940SOL    HW133507   4.406   4.333   0.646
 4940SOL    HW233508   4.459   4.355   0.798
 4941SOL     OW33509   8.393   2.954   8.742
 4941SOL    HW133510   8.402   2.990   0.053
 4941SOL    HW233511   8.296   2.948   8.718
 4942SOL     OW33512   3.895   7.549   1.529
 4942SOL    HW133513   3.824   7.583   1.467
 4942SOL    HW233514   3.870   7.571   1.623
 4943SOL     OW33515   1.669   8.603   0.465
 4943SOL    HW133516   1.743   8.574   0.404
 4943SOL    HW233517   1.582   8.593   0.416
 4944SOL     OW33518   7.666   2.778   7.814
 4944SOL    HW133519   7.591   2.765   7.879
 4944SOL    HW233520   7.728   2.700   7.819
 4945SOL     OW33521   6.533   8.231   1.654
 4945SOL    HW133522   6.627   8.204   1.633
 4945SOL    HW233523   6.478   8.148   1.670
 4946SOL     OW33524   9.327   0.268   6.682
 4946SOL    HW133525   9.253   0.201   6.674
 4946SOL    HW233526   9.348   0.305   6.591
 4947SOL     OW33527   4.535   5.261   6.255
 4947SOL    HW133528   4.490   5.282   6.168
 4947SOL    HW233529   4.529   5.340   6.316
 4948SOL     OW33530   8.215   6.091   0.779
 4948SOL    HW133531   8.275   6.025   0.825
 4948SOL    HW233532   8.166   6.144   0.847
 4949SOL     OW33533   4.611  10.477   7.358
 4949SOL    HW133534   4.593  10.448   7.264
 4949SOL    HW233535   4.524  10.493   7.405
 4950SOL     OW33536   7.452   4.070   7.144
 4950SOL    HW133537   7.373   4.066   7.082
 4950SOL    HW233538   7.533   4.036   7.097
 4951SOL     OW33539   8.618   3.730   1.973
 4951SOL    HW133540   8.537   3.722   2.031
 4951SOL    HW233541   8.695   3.764   2.027
 4952SOL     OW33542   5.526   1.920   8.583
 4952SOL    HW133543   5.462   1.993   8.606
 4952SOL    HW233544   5.586   1.951   8.509
 4953SOL     OW33545   0.721   2.953   1.097
 4953SOL    HW133546   0.808   2.907   1.109
 4953SOL    HW233547   0.687   2.984   1.185
 4954SOL     OW33548   0.013   2.128   6.991
 4954SOL    HW133549  10.149   2.032   7.010
 4954SOL    HW233550  10.105   2.165   6.925
 4955SOL     OW33551   2.649   6.700   5.982
 4955SOL    HW133552   2.727   6.638   5.972
 4955SOL    HW233553   2.564   6.647   5.985
 4956SOL     OW33554   8.389   9.863   0.719
 4956SOL    HW133555   8.338   9.817   0.647
 4956SOL    HW233556   8.420   9.953   0.686
 4957SOL     OW33557   7.187   9.568   8.069
 4957SOL    HW133558   7.187   9.557   7.970
 4957SOL    HW233559   7.247   9.498   8.110
 4958SOL     OW33560   8.850   9.727   0.697
 4958SOL    HW133561   8.942   9.703   0.664
 4958SOL    HW233562   8.795   9.643   0.704
 4959SOL     OW33563   7.987   3.001   0.375
 4959SOL    HW133564   7.998   2.934   0.449
 4959SOL    HW233565   7.897   3.043   0.382
 4960SOL     OW33566   1.893   2.851   7.702
 4960SOL    HW133567   1.829   2.816   7.633
 4960SOL    HW233568   1.847   2.919   7.758
 4961SOL     OW33569   4.843   1.605   7.102
 4961SOL    HW133570   4.932   1.632   7.067
 4961SOL    HW233571   4.781   1.587   7.025
 4962SOL     OW33572   9.306   3.264   7.198
 4962SOL    HW133573   9.302   3.352   7.246
 4962SOL    HW233574   9.272   3.277   7.104
 4963SOL     OW33575   1.434   7.932   1.037
 4963SOL    HW133576   1.426   7.995   1.115
 4963SOL    HW233577   1.348   7.883   1.026
 4964SOL     OW33578   8.700   6.161   0.700
 4964SOL    HW133579   8.647   6.111   0.631
 4964SOL    HW233580   8.646   6.170   0.783
 4965SOL     OW33581   5.279   1.192   7.952
 4965SOL    HW133582   5.310   1.150   8.037
 4965SOL    HW233583   5.226   1.274   7.972
 4966SOL     OW33584   2.581   3.657   8.375
 4966SOL    HW133585   2.589   3.561   8.351
 4966SOL    HW233586   2.672   3.695   8.393
 4967SOL     OW33587   4.277   4.883   2.285
 4967SOL    HW133588   4.195   4.894   2.341
 4967SOL    HW233589   4.353   4.932   2.326
 4968SOL     OW33590   3.827   9.700   7.087
 4968SOL    HW133591   3.801   9.722   7.181
 4968SOL    HW233592   3.748   9.712   7.027
 4969SOL     OW33593   5.922   0.317   1.510
 4969SOL    HW133594   5.993   0.359   1.453
 4969SOL    HW233595   5.965   0.262   1.582
 4970SOL     OW33596   2.138   4.099   0.659
 4970SOL    HW133597   2.081   4.112   0.740
 4970SOL    HW233598   2.204   4.026   0.676
 4971SOL     OW33599   9.786   0.064   6.578
 4971SOL    HW133600   9.697   0.099   6.547
 4971SOL    HW233601   9.818  10.497   6.514
 4972SOL     OW33602   8.659   1.859   1.971
 4972SOL    HW133603   8.606   1.813   1.900
 4972SOL    HW233604   8.614   1.946   1.994
 4973SOL     OW33605   6.356   6.469   8.494
 4973SOL    HW133606   6.370   6.568   8.496
 4973SOL    HW233607   6.316   6.439   8.580
 4974SOL     OW33608   8.011   6.095   0.368
 4974SOL    HW133609   8.082   6.164   0.358
 4974SOL    HW233610   8.041   6.025   0.434
 4975SOL     OW33611   6.513   3.667   7.937
 4975SOL    HW133612   6.611   3.647   7.942
 4975SOL    HW233613   6.467   3.633   8.019
 4976SOL     OW33614   1.705   6.987   6.286
 4976SOL    HW133615   1.750   6.982   6.197
 4976SOL    HW233616   1.687   7.083   6.309
 4977SOL     OW33617   7.684   5.764   1.399
 4977SOL    HW133618   7.783   5.768   1.389
 4977SOL    HW233619   7.655   5.820   1.477
 4978SOL     OW33620   0.257   9.954   2.293
 4978SOL    HW133621   0.198   9.876   2.311
 4978SOL    HW233622   0.328   9.959   2.363
 4979SOL     OW33623   9.588   1.713   1.377
 4979SOL    HW133624   9.514   1.779   1.361
 4979SOL    HW233625   9.592   1.691   1.474
 4980SOL     OW33626   1.801   4.447   7.284
 4980SOL    HW133627   1.838   4.507   7.355
 4980SOL    HW233628   1.858   4.454   7.202
 4981SOL     OW33629   2.524   0.966   8.263
 4981SOL    HW133630   2.444   0.982   8.205
 4981SOL    HW233631   2.606   0.959   8.205
 4982SOL     OW33632   7.974   2.821   0.580
 4982SOL    HW133633   8.014   2.729   0.581
 4982SOL    HW233634   7.967   2.855   0.674
 4983SOL     OW33635   8.006   3.624   6.739
 4983SOL    HW133636   7.976   3.631   6.644
 4983SOL    HW233637   8.091   3.573   6.744
 4984SOL     OW33638   8.098   8.919   7.271
 4984SOL    HW133639   8.070   8.923   7.175
 4984SOL    HW233640   8.192   8.887   7.276
 4985SOL     OW33641   0.701   4.353   0.488
 4985SOL    HW133642   0.645   4.333   0.568
 4985SOL    HW233643   0.794   4.321   0.502
 4986SOL     OW33644   6.543   0.332   1.269
 4986SOL    HW133645   6.589   0.421   1.265
 4986SOL    HW233646   6.545   0.298   1.363
 4987SOL     OW33647   7.773   0.878   0.967
 4987SOL    HW133648   7.685   0.867   0.920
 4987SOL    HW233649   7.805   0.972   0.954
 4988SOL     OW33650   6.159   8.233   6.830
 4988SOL    HW133651   6.252   8.262   6.811
 4988SOL    HW233652   6.146   8.139   6.799
 4989SOL     OW33653   9.237   7.957   7.394
 4989SOL    HW133654   9.143   7.934   7.369
 4989SOL    HW233655   9.237   8.028   7.464
 4990SOL     OW33656   7.025   2.339   8.169
 4990SOL    HW133657   6.949   2.351   8.232
 4990SOL    HW233658   7.101   2.295   8.217
 4991SOL     OW33659   7.714   2.356   7.768
 4991SOL    HW133660   7.723   2.312   7.678
 4991SOL    HW233661   7.771   2.438   7.770
 4992SOL     OW33662   5.060   1.681   8.000
 4992SOL    HW133663   4.967   1.687   7.965
 4992SOL    HW233664   5.122   1.728   7.937
 4993SOL     OW33665   6.919   6.954   1.783
 4993SOL    HW133666   6.909   7.033   1.723
 4993SOL    HW233667   6.931   6.984   1.877
 4994SOL     OW33668   2.493   2.580   1.879
 4994SOL    HW133669   2.520   2.655   1.939
 4994SOL    HW233670   2.574   2.527   1.853
 4995SOL     OW33671   7.916   1.030   7.978
 4995SOL    HW133672   7.831   1.014   8.028
 4995SOL    HW233673   7.965   1.108   8.019
 4996SOL     OW33674   0.011   2.631   7.745
 4996SOL    HW133675   0.005   2.594   7.652
 4996SOL    HW233676   0.043   2.559   7.807
 4997SOL     OW33677   6.957   3.103   1.051
 4997SOL    HW133678   6.886   3.137   0.990
 4997SOL    HW233679   6.973   3.006   1.034
 4998SOL     OW33680   5.036   3.492   7.989
 4998SOL    HW133681   5.092   3.566   7.952
 4998SOL    HW233682   5.058   3.407   7.942
 4999SOL     OW33683   5.713  10.300   8.069
 4999SOL    HW133684   5.697  10.249   8.153
 4999SOL    HW233685   5.682  10.247   7.990
 5000SOL     OW33686   5.210   5.607   1.659
 5000SOL    HW133687   5.225   5.508   1.666
 5000SOL    HW233688   5.273   5.654   1.721
 5001SOL     OW33689   3.696   8.086   6.882
 5001SOL    HW133690   3.730   8.128   6.966
 5001SOL    HW233691   3.767   8.027   6.844
 5002SOL     OW33692   9.084   4.979   6.728
 5002SOL    HW133693   8.995   4.974   6.772
 5002SOL    HW233694   9.118   5.074   6.731
 5003SOL     OW33695   2.048   5.912   0.410
 5003SOL    HW133696   1.984   5.956   0.472
 5003SOL    HW233697   2.028   5.814   0.405
 5004SOL     OW33698   5.761   4.093   0.918
 5004SOL    HW133699   5.773   3.995   0.931
 5004SOL    HW233700   5.685   4.126   0.974
 5005SOL     OW33701   9.105   6.560   0.522
 5005SOL    HW133702   9.112   6.650   0.480
 5005SOL    HW233703   9.193   6.513   0.514
 5006SOL     OW33704   9.104   3.381   6.027
 5006SOL    HW133705   9.040   3.457   6.033
 5006SOL    HW233706   9.073   3.316   5.958
 5007SOL     OW33707   9.821   9.680   8.098
 5007SOL    HW133708   9.836   9.585   8.124
 5007SOL    HW233709   9.895   9.710   8.038
 5008SOL     OW33710   9.297   0.768   8.634
 5008SOL    HW133711   9.260   0.815   8.714
 5008SOL    HW233712   9.392   0.796   8.620
 5009SOL     OW33713   6.719   5.255   6.205
 5009SOL    HW133714   6.630   5.242   6.248
 5009SOL    HW233715   6.706   5.293   6.113
 5010SOL     OW33716   8.525   8.209   0.307
 5010SOL    HW133717   8.512   8.230   0.210
 5010SOL    HW233718   8.602   8.262   0.342
 5011SOL     OW33719   0.741   5.984   0.134
 5011SOL    HW133720   0.809   5.911   0.132
 5011SOL    HW233721   0.733   6.025   0.043
 5012SOL     OW33722   4.855   8.551   0.846
 5012SOL    HW133723   4.874   8.646   0.872
 5012SOL    HW233724   4.923   8.520   0.780
 5013SOL     OW33725   0.298   2.063   8.284
 5013SOL    HW133726   0.233   2.076   8.359
 5013SOL    HW233727   0.387   2.098   8.311
 5014SOL     OW33728   3.059   7.010   8.632
 5014SOL    HW133729   3.033   6.988   8.538
 5014SOL    HW233730   3.009   7.091   8.663
 5015SOL     OW33731   8.992   1.765   1.488
 5015SOL    HW133732   8.956   1.749   1.580
 5015SOL    HW233733   8.918   1.756   1.421
 5016SOL     OW33734   9.647  10.108   7.876
 5016SOL    HW133735   9.746  10.120   7.882
 5016SOL    HW233736   9.601  10.185   7.921
 5017SOL     OW33737   4.476   3.264   6.939
 5017SOL    HW133738   4.536   3.217   6.874
 5017SOL    HW233739   4.490   3.363   6.931
 5018SOL     OW33740   4.758   0.349   1.635
 5018SOL    HW133741   4.810   0.384   1.713
 5018SOL    HW233742   4.663   0.334   1.661
 5019SOL     OW33743   8.667   6.347   1.224
 5019SOL    HW133744   8.653   6.347   1.323
 5019SOL    HW233745   8.759   6.381   1.204
 5020SOL     OW33746   0.048   1.012   1.112
 5020SOL    HW133747  10.106   1.019   1.110
 5020SOL    HW233748   0.080   0.974   1.025
 5021SOL     OW33749   8.875   8.367   2.524
 5021SOL    HW133750   8.965   8.322   2.531
 5021SOL    HW233751   8.821   8.322   2.453
 5022SOL     OW33752   0.106   0.081   0.986
 5022SOL    HW133753   0.185   0.115   1.038
 5022SOL    HW233754   0.098   0.133   0.901
 5023SOL     OW33755   2.145   5.918   7.937
 5023SOL    HW133756   2.244   5.931   7.934
 5023SOL    HW233757   2.099   6.007   7.938
 5024SOL     OW33758   3.067   2.355   1.054
 5024SOL    HW133759   3.102   2.348   0.960
 5024SOL    HW233760   3.015   2.273   1.076
 5025SOL     OW33761   3.760   1.380   6.907
 5025SOL    HW133762   3.676   1.362   6.857
 5025SOL    HW233763   3.809   1.456   6.865
 5026SOL     OW33764   8.599   9.294   1.572
 5026SOL    HW133765   8.698   9.290   1.579
 5026SOL    HW233766   8.573   9.317   1.478
 5027SOL     OW33767   1.443   1.612   0.807
 5027SOL    HW133768   1.371   1.649   0.865
 5027SOL    HW233769   1.533   1.641   0.841
 5028SOL     OW33770   9.632   2.391   0.631
 5028SOL    HW133771   9.713   2.443   0.602
 5028SOL    HW233772   9.659   2.297   0.651
 5029SOL     OW33773   1.184   6.744   8.384
 5029SOL    HW133774   1.189   6.821   8.321
 5029SOL    HW233775   1.089   6.716   8.394
 5030SOL     OW33776   2.590   1.132   8.767
 5030SOL    HW133777   2.603   1.033   8.767
 5030SOL    HW233778   2.587   1.165   8.672
 5031SOL     OW33779   8.514   1.594   8.414
 5031SOL    HW133780   8.503   1.640   8.326
 5031SOL    HW233781   8.489   1.656   8.488
 5032SOL     OW33782   8.429   9.130   7.750
 5032SOL    HW133783   8.461   9.177   7.667
 5032SOL    HW233784   8.503   9.075   7.788
 5033SOL     OW33785   5.060   3.481   7.537
 5033SOL    HW133786   5.035   3.563   7.589
 5033SOL    HW233787   5.016   3.401   7.577
 5034SOL     OW33788   0.706   0.170   1.331
 5034SOL    HW133789   0.744   0.244   1.274
 5034SOL    HW233790   0.741   0.082   1.298
 5035SOL     OW33791   5.423   6.497   0.008
 5035SOL    HW133792   5.456   6.431   8.722
 5035SOL    HW233793   5.496   6.519   0.072
 5036SOL     OW33794   6.185   2.309   8.585
 5036SOL    HW133795   6.266   2.341   8.536
 5036SOL    HW233796   6.104   2.317   8.526
 5037SOL     OW33797   0.035   4.491   0.071
 5037SOL    HW133798  10.137   4.533   8.781
 5037SOL    HW233799   0.127   4.530   0.068
 5038SOL     OW33800   5.001   4.913   8.758
 5038SOL    HW133801   4.988   4.839   0.042
 5038SOL    HW233802   5.044   4.876   8.676
 5039SOL     OW33803   5.272   4.632   6.608
 5039SOL    HW133804   5.354   4.680   6.639
 5039SOL    HW233805   5.191   4.685   6.633
 5040SOL     OW33806   5.742   4.472   0.114
 5040SOL    HW133807   5.680   4.469   0.192
 5040SOL    HW233808   5.740   4.385   0.066
 5041SOL     OW33809   6.974   9.947   6.980
 5041SOL    HW133810   7.031  10.017   6.936
 5041SOL    HW233811   6.915   9.904   6.911
 5042SOL     OW33812   1.264   3.155   1.854
 5042SOL    HW133813   1.222   3.101   1.927
 5042SOL    HW233814   1.356   3.120   1.835
 5043SOL     OW33815   0.042   4.458   8.502
 5043SOL    HW133816  10.121   4.414   8.460
 5043SOL    HW233817   0.122   4.398   8.495
 5044SOL     OW33818   9.983   5.018   8.257
 5044SOL    HW133819   9.912   5.011   8.188
 5044SOL    HW233820  10.015   5.113   8.264
 5045SOL     OW33821   0.249   9.323   0.024
 5045SOL    HW133822   0.294   9.241   0.059
 5045SOL    HW233823   0.317   9.379   8.758
 5046SOL     OW33824   5.017   6.108   0.554
 5046SOL    HW133825   5.115   6.092   0.565
 5046SOL    HW233826   4.967   6.023   0.571
 5047SOL     OW33827   8.101   1.054   7.231
 5047SOL    HW133828   8.094   0.998   7.313
 5047SOL    HW233829   8.023   1.037   7.171
 5048SOL     OW33830   6.071   4.042   8.359
 5048SOL    HW133831   6.142   4.061   8.427
 5048SOL    HW233832   6.061   4.122   8.299
 5049SOL     OW33833   4.588   7.435   6.648
 5049SOL    HW133834   4.615   7.518   6.695
 5049SOL    HW233835   4.546   7.458   6.560
 5050SOL     OW33836   2.438   7.143   8.771
 5050SOL    HW133837   2.391   7.156   0.076
 5050SOL    HW233838   2.434   7.046   8.746
 5051SOL     OW33839   0.007   7.446   1.223
 5051SOL    HW133840   0.018   7.347   1.230
 5051SOL    HW233841  10.141   7.470   1.129
 5052SOL     OW33842   9.880   0.395   7.986
 5052SOL    HW133843   9.906   0.406   7.890
 5052SOL    HW233844   9.810   0.462   8.009
 5053SOL     OW33845   8.945   3.481   0.091
 5053SOL    HW133846   8.926   3.544   0.015
 5053SOL    HW233847   8.985   3.397   0.055
 5054SOL     OW33848   3.989   9.252   0.122
 5054SOL    HW133849   4.064   9.192   0.149
 5054SOL    HW233850   3.948   9.219   0.037
 5055SOL     OW33851   8.348   8.581   7.453
 5055SOL    HW133852   8.426   8.527   7.422
 5055SOL    HW233853   8.379   8.645   7.523
 5056SOL     OW33854   5.250  10.026   8.418
 5056SOL    HW133855   5.206  10.112   8.444
 5056SOL    HW233856   5.235  10.010   8.321
 5057SOL     OW33857   6.074   1.123   0.349
 5057SOL    HW133858   6.075   1.222   0.330
 5057SOL    HW233859   6.072   1.073   0.263
 5058SOL     OW33860   7.347   0.607   7.889
 5058SOL    HW133861   7.389   0.524   7.926
 5058SOL    HW233862   7.333   0.595   7.790
 5059SOL     OW33863   1.224   0.670   1.773
 5059SOL    HW133864   1.308   0.638   1.731
 5059SOL    HW233865   1.246   0.727   1.853
 5060SOL     OW33866   6.796   2.236   0.967
 5060SOL    HW133867   6.794   2.171   0.892
 5060SOL    HW233868   6.704   2.271   0.983
 5061SOL     OW33869   0.830   9.643   7.551
 5061SOL    HW133870   0.811   9.548   7.574
 5061SOL    HW233871   0.765   9.702   7.598
 5062SOL     OW33872   3.661   3.106   7.988
 5062SOL    HW133873   3.689   3.170   8.059
 5062SOL    HW233874   3.563   3.087   7.996
 5063SOL     OW33875   5.912   7.501   1.730
 5063SOL    HW133876   5.833   7.441   1.746
 5063SOL    HW233877   5.904   7.581   1.788
 5064SOL     OW33878   2.850   5.255   1.909
 5064SOL    HW133879   2.759   5.214   1.903
 5064SOL    HW233880   2.860   5.302   1.996
 5065SOL     OW33881   2.634   9.416   7.200
 5065SOL    HW133882   2.702   9.396   7.129
 5065SOL    HW233883   2.644   9.351   7.275
 5066SOL     OW33884   8.644   2.834   0.000
 5066SOL    HW133885   8.650   2.749   8.730
 5066SOL    HW233886   8.557   2.880   8.763
 5067SOL     OW33887   3.926   3.161   0.714
 5067SOL    HW133888   3.933   3.238   0.650
 5067SOL    HW233889   3.865   3.091   0.676
 5068SOL     OW33890   1.148   3.826   6.848
 5068SOL    HW133891   1.152   3.828   6.749
 5068SOL    HW233892   1.241   3.830   6.885
 5069SOL     OW33893   9.261   5.722   6.005
 5069SOL    HW133894   9.322   5.652   5.968
 5069SOL    HW233895   9.226   5.778   5.930
 5070SOL     OW33896   2.241   7.260   0.798
 5070SOL    HW133897   2.196   7.182   0.841
 5070SOL    HW233898   2.235   7.340   0.858
 5071SOL     OW33899   3.287   3.394   0.305
 5071SOL    HW133900   3.321   3.336   0.379
 5071SOL    HW233901   3.331   3.484   0.310
 5072SOL     OW33902   0.756   8.449   8.449
 5072SOL    HW133903   0.848   8.457   8.488
 5072SOL    HW233904   0.733   8.532   8.399
 5073SOL     OW33905   7.057   2.947   6.629
 5073SOL    HW133906   7.057   2.869   6.692
 5073SOL    HW233907   7.127   2.934   6.559
 5074SOL     OW33908   6.546   3.219   7.407
 5074SOL    HW133909   6.480   3.173   7.348
 5074SOL    HW233910   6.637   3.212   7.367
 5075SOL     OW33911   8.061   3.615   8.760
 5075SOL    HW133912   8.003   3.578   8.687
 5075SOL    HW233913   8.029   3.706   0.004
 5076SOL     OW33914   7.888   0.985   2.306
 5076SOL    HW133915   7.799   1.005   2.265
 5076SOL    HW233916   7.893   0.888   2.329
 5077SOL     OW33917   3.716   3.332   1.578
 5077SOL    HW133918   3.677   3.269   1.511
 5077SOL    HW233919   3.655   3.340   1.656
 5078SOL     OW33920   4.695   2.220   0.903
 5078SOL    HW133921   4.794   2.204   0.906
 5078SOL    HW233922   4.647   2.134   0.888
 5079SOL     OW33923   1.055   0.327   7.192
 5079SOL    HW133924   0.999   0.389   7.247
 5079SOL    HW233925   1.088   0.252   7.249
 5080SOL     OW33926   4.714   0.590   8.589
 5080SOL    HW133927   4.703   0.532   8.669
 5080SOL    HW233928   4.627   0.636   8.568
 5081SOL     OW33929   5.614   1.950   7.526
 5081SOL    HW133930   5.534   1.892   7.511
 5081SOL    HW233931   5.691   1.893   7.554
 5082SOL     OW33932   1.773   4.065   0.807
 5082SOL    HW133933   1.768   3.968   0.834
 5082SOL    HW233934   1.858   4.105   0.842
 5083SOL     OW33935   3.225   7.094   6.192
 5083SOL    HW133936   3.129   7.114   6.174
 5083SOL    HW233937   3.269   7.175   6.231
 5084SOL     OW33938   1.075   7.539   1.411
 5084SOL    HW133939   1.152   7.586   1.368
 5084SOL    HW233940   1.108   7.458   1.459
 5085SOL     OW33941   4.974   8.062   1.583
 5085SOL    HW133942   5.003   8.119   1.659
 5085SOL    HW233943   5.050   8.003   1.555
 5086SOL     OW33944   6.620   2.943   6.710
 5086SOL    HW133945   6.620   2.941   6.610
 5086SOL    HW233946   6.701   2.990   6.743
 5087SOL     OW33947   9.285   0.359   0.738
 5087SOL    HW133948   9.222   0.434   0.759
 5087SOL    HW233949   9.243   0.272   0.762
 5088SOL     OW33950  10.023   2.003   8.488
 5088SOL    HW133951   9.992   2.014   8.394
 5088SOL    HW233952   9.954   2.041   8.551
 5089SOL     OW33953   0.479   1.508   1.366
 5089SOL    HW133954   0.569   1.518   1.326
 5089SOL    HW233955   0.483   1.534   1.463
 5090SOL     OW33956   7.238   6.744   1.735
 5090SOL    HW133957   7.180   6.671   1.700
 5090SOL    HW233958   7.222   6.828   1.683
 5091SOL     OW33959   2.694   3.417   0.273
 5091SOL    HW133960   2.679   3.326   0.235
 5091SOL    HW233961   2.790   3.427   0.299
 5092SOL     OW33962   8.815   8.988   2.480
 5092SOL    HW133963   8.759   8.909   2.455
 5092SOL    HW233964   8.770   9.041   2.552
 5093SOL     OW33965   1.313   0.017   7.503
 5093SOL    HW133966   1.395   0.061   7.540
 5093SOL    HW233967   1.325  10.421   7.505
 5094SOL     OW33968   1.136   8.910   0.224
 5094SOL    HW133969   1.207   8.846   0.256
 5094SOL    HW233970   1.048   8.884   0.264
 5095SOL     OW33971   9.990   5.162   0.837
 5095SOL    HW133972   9.989   5.130   0.743
 5095SOL    HW233973   9.924   5.236   0.849
 5096SOL     OW33974   4.770   0.926   8.403
 5096SOL    HW133975   4.833   0.870   8.456
 5096SOL    HW233976   4.718   0.867   8.341
 5097SOL     OW33977   9.112   9.605   1.240
 5097SOL    HW133978   9.201   9.566   1.216
 5097SOL    HW233979   9.119   9.705   1.243
 5098SOL     OW33980   9.213   9.900   0.693
 5098SOL    HW133981   9.172   9.809   0.686
 5098SOL    HW233982   9.219   9.926   0.789
 5099SOL     OW33983   8.053   9.931   7.936
 5099SOL    HW133984   8.104   9.901   7.855
 5099SOL    HW233985   7.966   9.970   7.907
 5100SOL     OW33986   4.107   6.350   1.198
 5100SOL    HW133987   4.165   6.273   1.170
 5100SOL    HW233988   4.062   6.389   1.117
 5101SOL     OW33989   3.182   4.319   8.074
 5101SOL    HW133990   3.234   4.237   8.048
 5101SOL    HW233991   3.162   4.372   7.992
 5102SOL     OW33992   0.122   7.672   7.120
 5102SOL    HW133993   0.091   7.678   7.025
 5102SOL    HW233994   0.222   7.668   7.122
 5103SOL     OW33995   9.388   0.262   2.021
 5103SOL    HW133996   9.421   0.326   2.091
 5103SOL    HW233997   9.362   0.176   2.065
 5104SOL     OW33998   4.151   2.392   1.828
 5104SOL    HW133999   4.163   2.480   1.783
 5104SOL    HW234000   4.126   2.406   1.924
 5105SOL     OW34001   1.445   0.989   7.966
 5105SOL    HW134002   1.527   1.029   8.006
 5105SOL    HW234003   1.471   0.933   7.887
 5106SOL     OW34004   3.496   2.840   8.692
 5106SOL    HW134005   3.543   2.903   8.629
 5106SOL    HW234006   3.556   2.821   8.770
 5107SOL     OW34007   9.376   6.313   8.512
 5107SOL    HW134008   9.384   6.412   8.512
 5107SOL    HW234009   9.348   6.281   8.603
 5108SOL     OW34010   3.242   3.314   1.496
 5108SOL    HW134011   3.245   3.375   1.416
 5108SOL    HW234012   3.225   3.369   1.578
 5109SOL     OW34013   2.659   4.560   8.390
 5109SOL    HW134014   2.661   4.531   8.485
 5109SOL    HW234015   2.747   4.601   8.365
 5110SOL     OW34016   7.148   6.530   0.581
 5110SOL    HW134017   7.147   6.600   0.510
 5110SOL    HW234018   7.203   6.452   0.550
 5111SOL     OW34019   6.760   7.562   1.170
 5111SOL    HW134020   6.687   7.560   1.102
 5111SOL    HW234021   6.847   7.583   1.126
 5112SOL     OW34022   2.452   3.196   7.983
 5112SOL    HW134023   2.399   3.188   7.899
 5112SOL    HW234024   2.413   3.269   8.040
 5113SOL     OW34025   8.280   1.166   6.572
 5113SOL    HW134026   8.321   1.170   6.481
 5113SOL    HW234027   8.271   1.071   6.600
 5114SOL     OW34028   8.635   4.288   8.390
 5114SOL    HW134029   8.593   4.242   8.468
 5114SOL    HW234030   8.603   4.382   8.386
 5115SOL     OW34031   4.586   5.100   0.886
 5115SOL    HW134032   4.600   5.008   0.923
 5115SOL    HW234033   4.537   5.093   0.799
 5116SOL     OW34034   2.451   5.971   6.537
 5116SOL    HW134035   2.475   5.892   6.593
 5116SOL    HW234036   2.511   5.976   6.457
 5117SOL     OW34037   9.140   0.082   6.615
 5117SOL    HW134038   9.067   0.114   6.554
 5117SOL    HW234039   9.199   0.018   6.564
 5118SOL     OW34040   9.886   7.817   6.855
 5118SOL    HW134041   9.849   7.908   6.871
 5118SOL    HW234042   9.899   7.803   6.757
 5119SOL     OW34043   1.185   0.087   7.271
 5119SOL    HW134044   1.237   0.081   7.356
 5119SOL    HW234045   1.144  10.502   7.250
 5120SOL     OW34046   0.626   6.312   0.448
 5120SOL    HW134047   0.581   6.366   0.376
 5120SOL    HW234048   0.697   6.256   0.408
 5121SOL     OW34049   9.870   4.820   8.412
 5121SOL    HW134050   9.912   4.896   8.363
 5121SOL    HW234051   9.915   4.734   8.386
 5122SOL     OW34052   9.071   9.437   7.194
 5122SOL    HW134053   9.001   9.462   7.127
 5122SOL    HW234054   9.081   9.338   7.196
 5123SOL     OW34055   2.391   8.879   0.086
 5123SOL    HW134056   2.362   8.946   0.154
 5123SOL    HW234057   2.355   8.905   8.778
 5124SOL     OW34058   3.300   9.003   1.332
 5124SOL    HW134059   3.233   8.950   1.383
 5124SOL    HW234060   3.392   8.970   1.353
 5125SOL     OW34061   1.818   6.997   7.804
 5125SOL    HW134062   1.900   7.053   7.813
 5125SOL    HW234063   1.838   6.902   7.826
 5126SOL     OW34064   9.821   1.601   7.589
 5126SOL    HW134065   9.755   1.558   7.651
 5126SOL    HW234066   9.795   1.584   7.494
 5127SOL     OW34067   5.137   0.353   7.494
 5127SOL    HW134068   5.180   0.438   7.525
 5127SOL    HW234069   5.093   0.308   7.572
 5128SOL     OW34070   1.585   7.066   8.566
 5128SOL    HW134071   1.558   7.026   8.479
 5128SOL    HW234072   1.517   7.135   8.593
 5129SOL     OW34073   3.102   4.563   1.481
 5129SOL    HW134074   3.146   4.637   1.532
 5129SOL    HW234075   3.150   4.548   1.394
 5130SOL     OW34076   2.449  10.394   7.990
 5130SOL    HW134077   2.548  10.391   8.001
 5130SOL    HW234078   2.418  10.489   7.988
 5131SOL     OW34079   4.105   3.495   1.132
 5131SOL    HW134080   4.159   3.417   1.101
 5131SOL    HW234081   4.165   3.569   1.162
 5132SOL     OW34082   8.642   8.967   7.825
 5132SOL    HW134083   8.643   8.870   7.852
 5132SOL    HW234084   8.711   8.982   7.755
 5133SOL     OW34085   3.137   8.376   6.941
 5133SOL    HW134086   3.149   8.473   6.963
 5133SOL    HW234087   3.140   8.322   7.025
 5134SOL     OW34088   1.791   2.228   7.542
 5134SOL    HW134089   1.825   2.252   7.632
 5134SOL    HW234090   1.858   2.255   7.473
 5135SOL     OW34091   4.671   4.483   1.416
 5135SOL    HW134092   4.664   4.528   1.326
 5135SOL    HW234093   4.759   4.506   1.458
 5136SOL     OW34094   1.386   7.246   8.631
 5136SOL    HW134095   1.405   7.336   8.670
 5136SOL    HW234096   1.344   7.256   8.541
 5137SOL     OW34097   9.279   2.100   8.620
 5137SOL    HW134098   9.211   2.028   8.635
 5137SOL    HW234099   9.236   2.189   8.633
 5138SOL     OW34100   0.123   2.364   7.816
 5138SOL    HW134101   0.174   2.371   7.730
 5138SOL    HW234102   0.061   2.286   7.811
 5139SOL     OW34103   6.677   8.206   8.685
 5139SOL    HW134104   6.666   8.259   8.601
 5139SOL    HW234105   6.646   8.260   8.764
 5140SOL     OW34106   7.639   7.687   7.807
 5140SOL    HW134107   7.658   7.784   7.794
 5140SOL    HW234108   7.695   7.633   7.744
 5141SOL     OW34109   1.392   7.241   6.200
 5141SOL    HW134110   1.392   7.188   6.116
 5141SOL    HW234111   1.481   7.233   6.245
 5142SOL     OW34112   1.973   8.339   6.365
 5142SOL    HW134113   2.042   8.361   6.296
 5142SOL    HW234114   1.929   8.252   6.342
 5143SOL     OW34115   7.915   7.445   0.277
 5143SOL    HW134116   7.873   7.385   0.344
 5143SOL    HW234117   7.912   7.401   0.187
 5144SOL     OW34118   0.254   8.532   1.083
 5144SOL    HW134119   0.193   8.608   1.060
 5144SOL    HW234120   0.336   8.536   1.027
 5145SOL     OW34121   4.907   8.457   1.359
 5145SOL    HW134122   4.897   8.457   1.259
 5145SOL    HW234123   4.825   8.419   1.401
 5146SOL     OW34124   2.043   6.249   0.791
 5146SOL    HW134125   1.956   6.216   0.830
 5146SOL    HW234126   2.025   6.306   0.711
 5147SOL     OW34127   7.480   6.784   7.077
 5147SOL    HW134128   7.481   6.684   7.076
 5147SOL    HW234129   7.390   6.816   7.106
 5148SOL     OW34130   4.582   4.250   2.283
 5148SOL    HW134131   4.605   4.339   2.323
 5148SOL    HW234132   4.485   4.231   2.296
 5149SOL     OW34133   4.746   3.340   8.729
 5149SOL    HW134134   4.662   3.394   8.731
 5149SOL    HW234135   4.742   3.271   0.019
 5150SOL     OW34136   6.985   1.979   0.308
 5150SOL    HW134137   7.077   1.997   0.274
 5150SOL    HW234138   6.979   2.008   0.404
 5151SOL     OW34139   9.790   3.132   1.639
 5151SOL    HW134140   9.861   3.081   1.590
 5151SOL    HW234141   9.742   3.071   1.701
 5152SOL     OW34142   8.452   5.899   8.106
 5152SOL    HW134143   8.496   5.870   8.191
 5152SOL    HW234144   8.356   5.922   8.124
 5153SOL     OW34145   4.246   0.657   6.712
 5153SOL    HW134146   4.241   0.606   6.798
 5153SOL    HW234147   4.214   0.598   6.637
 5154SOL     OW34148   1.330   3.833   0.220
 5154SOL    HW134149   1.398   3.821   0.293
 5154SOL    HW234150   1.351   3.916   0.168
 5155SOL     OW34151   5.596   8.630   1.627
 5155SOL    HW134152   5.649   8.579   1.695
 5155SOL    HW234153   5.513   8.580   1.606
 5156SOL     OW34154   0.316   9.036   8.017
 5156SOL    HW134155   0.358   9.101   8.081
 5156SOL    HW234156   0.382   9.015   7.944
 5157SOL     OW34157   7.465   0.286   8.244
 5157SOL    HW134158   7.481   0.351   8.318
 5157SOL    HW234159   7.512   0.200   8.266
 5158SOL     OW34160   0.043   7.080   0.270
 5158SOL    HW134161   0.016   7.112   0.361
 5158SOL    HW234162   0.104   7.001   0.280
 5159SOL     OW34163   9.819   8.405   6.225
 5159SOL    HW134164   9.747   8.474   6.232
 5159SOL    HW234165   9.895   8.441   6.170
 5160SOL     OW34166   0.871   9.169   1.560
 5160SOL    HW134167   0.909   9.076   1.561
 5160SOL    HW234168   0.912   9.222   1.635
 5161SOL     OW34169   9.822   9.888   1.999
 5161SOL    HW134170   9.834   9.895   2.099
 5161SOL    HW234171   9.849   9.797   1.968
 5162SOL     OW34172   0.391   2.015   1.428
 5162SOL    HW134173   0.310   1.970   1.466
 5162SOL    HW234174   0.362   2.082   1.360
 5163SOL     OW34175   8.854   4.027   0.400
 5163SOL    HW134176   8.831   3.947   0.455
 5163SOL    HW234177   8.920   4.084   0.449
 5164SOL     OW34178   2.429   6.460   6.585
 5164SOL    HW134179   2.463   6.525   6.654
 5164SOL    HW234180   2.351   6.500   6.537
 5165SOL     OW34181   1.009   6.302   8.353
 5165SOL    HW134182   0.982   6.324   8.259
 5165SOL    HW234183   1.101   6.336   8.371
 5166SOL     OW34184   1.951   4.154   0.459
 5166SOL    HW134185   1.994   4.200   0.381
 5166SOL    HW234186   2.022   4.124   0.523
 5167SOL     OW34187   8.416   1.891   0.222
 5167SOL    HW134188   8.503   1.930   0.194
 5167SOL    HW234189   8.420   1.866   0.319
 5168SOL     OW34190   5.763   3.038   6.934
 5168SOL    HW134191   5.819   2.976   6.989
 5168SOL    HW234192   5.686   3.071   6.990
 5169SOL     OW34193   5.389   4.638   1.004
 5169SOL    HW134194   5.324   4.676   0.939
 5169SOL    HW234195   5.454   4.709   1.032
 5170SOL     OW34196   3.528   5.180   7.236
 5170SOL    HW134197   3.527   5.279   7.227
 5170SOL    HW234198   3.583   5.154   7.315
 5171SOL     OW34199   5.638   7.146   7.115
 5171SOL    HW134200   5.689   7.064   7.141
 5171SOL    HW234201   5.572   7.169   7.186
 5172SOL     OW34202   9.019   4.462   7.436
 5172SOL    HW134203   9.008   4.528   7.509
 5172SOL    HW234204   8.993   4.371   7.469
 5173SOL     OW34205   7.401   8.366   7.821
 5173SOL    HW134206   7.363   8.374   7.729
 5173SOL    HW234207   7.460   8.445   7.839
 5174SOL     OW34208   8.177   0.839   2.456
 5174SOL    HW134209   8.268   0.859   2.490
 5174SOL    HW234210   8.109   0.892   2.507
 5175SOL     OW34211   7.553   4.651   0.861
 5175SOL    HW134212   7.595   4.643   0.770
 5175SOL    HW234213   7.455   4.665   0.852
 5176SOL     OW34214   5.197   3.810   7.021
 5176SOL    HW134215   5.174   3.797   7.118
 5176SOL    HW234216   5.285   3.768   7.002
 5177SOL     OW34217   4.272   2.554   0.238
 5177SOL    HW134218   4.325   2.488   0.291
 5177SOL    HW234219   4.200   2.592   0.296
 5178SOL     OW34220   6.045   0.245   8.002
 5178SOL    HW134221   6.071   0.340   8.019
 5178SOL    HW234222   6.123   0.185   8.020
 5179SOL     OW34223   8.152   7.006   8.302
 5179SOL    HW134224   8.247   7.031   8.317
 5179SOL    HW234225   8.139   6.909   8.323
 5180SOL     OW34226   2.998   0.298   1.364
 5180SOL    HW134227   2.910   0.256   1.384
 5180SOL    HW234228   3.001   0.389   1.405
 5181SOL     OW34229   0.003   4.545   7.942
 5181SOL    HW134230   0.093   4.524   7.981
 5181SOL    HW234231  10.153   4.643   7.926
 5182SOL     OW34232   2.056   0.987   8.178
 5182SOL    HW134233   1.988   1.061   8.171
 5182SOL    HW234234   2.016   0.902   8.146
 5183SOL     OW34235   0.172   9.890   0.295
 5183SOL    HW134236   0.166   9.928   0.387
 5183SOL    HW234237   0.101   9.931   0.237
 5184SOL     OW34238   8.541   6.251   7.441
 5184SOL    HW134239   8.545   6.338   7.489
 5184SOL    HW234240   8.450   6.211   7.453
 5185SOL     OW34241   6.923   1.064   8.280
 5185SOL    HW134242   6.997   1.106   8.332
 5185SOL    HW234243   6.957   0.980   8.237
 5186SOL     OW34244   5.027   5.694   0.582
 5186SOL    HW134245   4.969   5.771   0.609
 5186SOL    HW234246   5.114   5.699   0.630
 5187SOL     OW34247   4.337   8.937   0.001
 5187SOL    HW134248   4.425   8.906   8.749
 5187SOL    HW234249   4.288   8.986   8.711
 5188SOL     OW34250   8.578   1.754   7.911
 5188SOL    HW134251   8.586   1.667   7.863
 5188SOL    HW234252   8.549   1.825   7.846
 5189SOL     OW34253   6.653   4.537   1.639
 5189SOL    HW134254   6.652   4.468   1.567
 5189SOL    HW234255   6.731   4.520   1.700
 5190SOL     OW34256   7.116   3.219   1.492
 5190SOL    HW134257   7.105   3.242   1.589
 5190SOL    HW234258   7.026   3.204   1.451
 5191SOL     OW34259   8.536   0.040   1.478
 5191SOL    HW134260   8.452   0.086   1.449
 5191SOL    HW234261   8.557  10.470   1.414
 5192SOL     OW34262   5.785   7.140   0.712
 5192SOL    HW134263   5.856   7.169   0.648
 5192SOL    HW234264   5.695   7.158   0.673
 5193SOL     OW34265   9.890   6.323   7.960
 5193SOL    HW134266   9.806   6.377   7.960
 5193SOL    HW234267   9.954   6.362   8.027
 5194SOL     OW34268   7.670   0.991   8.094
 5194SOL    HW134269   7.618   1.076   8.091
 5194SOL    HW234270   7.615   0.917   8.055
 5195SOL     OW34271   8.670   8.512   2.050
 5195SOL    HW134272   8.594   8.516   2.115
 5195SOL    HW234273   8.656   8.435   1.988
 5196SOL     OW34274   4.177   2.198   7.072
 5196SOL    HW134275   4.192   2.159   6.981
 5196SOL    HW234276   4.091   2.250   7.071
 5197SOL     OW34277   4.760   8.749   8.073
 5197SOL    HW134278   4.799   8.795   7.994
 5197SOL    HW234279   4.777   8.804   8.155
 5198SOL     OW34280   7.048  10.388   6.581
 5198SOL    HW134281   7.131  10.417   6.629
 5198SOL    HW234282   7.021  10.297   6.612
 5199SOL     OW34283   0.288   5.854   0.790
 5199SOL    HW134284   0.292   5.845   0.691
 5199SOL    HW234285   0.274   5.950   0.815
 5200SOL     OW34286   0.010   8.318   8.554
 5200SOL    HW134287  10.151   8.415   8.533
 5200SOL    HW234288   0.056   8.275   8.477
 5201SOL     OW34289   6.886   7.901   0.012
 5201SOL    HW134290   6.838   7.936   0.093
 5201SOL    HW234291   6.912   7.977   8.735
 5202SOL     OW34292   7.350   1.162   0.558
 5202SOL    HW134293   7.347   1.233   0.487
 5202SOL    HW234294   7.386   1.200   0.643
 5203SOL     OW34295   0.977   9.164   2.012
 5203SOL    HW134296   0.979   9.248   2.067
 5203SOL    HW234297   1.005   9.086   2.069
 5204SOL     OW34298   8.891   7.728   7.940
 5204SOL    HW134299   8.881   7.637   7.982
 5204SOL    HW234300   8.988   7.747   7.925
 5205SOL     OW34301   6.985   2.913   7.595
 5205SOL    HW134302   6.973   2.845   7.523
 5205SOL    HW234303   7.082   2.919   7.619
 5206SOL     OW34304   3.939   9.710   7.622
 5206SOL    HW134305   3.944   9.792   7.566
 5206SOL    HW234306   3.888   9.729   7.705
 5207SOL     OW34307   1.087   0.450   1.488
 5207SOL    HW134308   1.175   0.486   1.455
 5207SOL    HW234309   1.013   0.503   1.447
 5208SOL     OW34310   1.449   0.649   6.549
 5208SOL    HW134311   1.487   0.580   6.487
 5208SOL    HW234312   1.362   0.683   6.511
 5209SOL     OW34313   4.162   1.796   0.033
 5209SOL    HW134314   4.175   1.730   8.741
 5209SOL    HW234315   4.182   1.752   0.121
 5210SOL     OW34316   1.042   6.921   7.013
 5210SOL    HW134317   0.998   6.976   6.942
 5210SOL    HW234318   1.059   6.829   6.978
 5211SOL     OW34319   4.864   5.738   1.132
 5211SOL    HW134320   4.864   5.794   1.049
 5211SOL    HW234321   4.958   5.720   1.160
 5212SOL     OW34322   2.534   6.207   1.096
 5212SOL    HW134323   2.603   6.189   1.026
 5212SOL    HW234324   2.473   6.127   1.103
 5213SOL     OW34325   4.562   7.928   0.768
 5213SOL    HW134326   4.584   8.021   0.796
 5213SOL    HW234327   4.482   7.928   0.709
 5214SOL     OW34328   2.798   4.505   7.306
 5214SOL    HW134329   2.849   4.421   7.286
 5214SOL    HW234330   2.827   4.541   7.395
 5215SOL     OW34331   7.578   7.097   0.648
 5215SOL    HW134332   7.494   7.151   0.650
 5215SOL    HW234333   7.653   7.151   0.684
 5216SOL     OW34334   7.730   1.381   1.473
 5216SOL    HW134335   7.806   1.402   1.535
 5216SOL    HW234336   7.680   1.465   1.453
 5217SOL     OW34337   7.256   0.588   8.306
 5217SOL    HW134338   7.210   0.599   8.218
 5217SOL    HW234339   7.189   0.563   8.376
 5218SOL     OW34340   2.683   8.791   7.124
 5218SOL    HW134341   2.779   8.815   7.131
 5218SOL    HW234342   2.666   8.704   7.170
 5219SOL     OW34343   8.677  10.426   2.271
 5219SOL    HW134344   8.583  10.395   2.277
 5219SOL    HW234345   8.731  10.359   2.220
 5220SOL     OW34346   5.130   5.471   7.440
 5220SOL    HW134347   5.229   5.472   7.449
 5220SOL    HW234348   5.090   5.408   7.506
 5221SOL     OW34349   5.776   0.096   8.362
 5221SOL    HW134350   5.793   0.179   8.416
 5221SOL    HW234351   5.783   0.118   8.265
 5222SOL     OW34352   9.922   9.568   7.685
 5222SOL    HW134353   9.849   9.511   7.648
 5222SOL    HW234354   9.953   9.531   7.772
 5223SOL     OW34355   5.020   6.028   1.629
 5223SOL    HW134356   5.085   6.100   1.650
 5223SOL    HW234357   4.934   6.068   1.599
 5224SOL     OW34358   9.358   5.474   0.013
 5224SOL    HW134359   9.421   5.398   8.778
 5224SOL    HW234360   9.343   5.524   8.710
 5225SOL     OW34361   5.714   0.386   0.549
 5225SOL    HW134362   5.684   0.411   0.641
 5225SOL    HW234363   5.810   0.410   0.538
 5226SOL     OW34364   4.715   1.550   8.031
 5226SOL    HW134365   4.631   1.596   8.058
 5226SOL    HW234366   4.766   1.608   7.967
 5227SOL     OW34367   2.311   6.307   0.743
 5227SOL    HW134368   2.214   6.293   0.762
 5227SOL    HW234369   2.353   6.356   0.819
 5228SOL     OW34370   8.887   0.099   8.723
 5228SOL    HW134371   8.934   0.030   8.778
 5228SOL    HW234372   8.790   0.100   8.747
 5229SOL     OW34373   5.075   1.689   6.971
 5229SOL    HW134374   5.135   1.742   7.030
 5229SOL    HW234375   5.015   1.751   6.920
 5230SOL     OW34376   0.667   0.156   8.069
 5230SOL    HW134377   0.678   0.236   8.010
 5230SOL    HW234378   0.692   0.179   8.163
 5231SOL     OW34379   3.558   5.651   8.666
 5231SOL    HW134380   3.528   5.675   8.574
 5231SOL    HW234381   3.498   5.581   8.704
 5232SOL     OW34382   7.667   9.088   0.369
 5232SOL    HW134383   7.601   9.097   0.445
 5232SOL    HW234384   7.680   9.178   0.327
 5233SOL     OW34385   0.114   7.337   1.996
 5233SOL    HW134386   0.182   7.336   2.069
 5233SOL    HW234387   0.048   7.411   2.013
 5234SOL     OW34388   6.192   0.017   8.493
 5234SOL    HW134389   6.147   0.093   8.541
 5234SOL    HW234390   6.289   0.037   8.482
 5235SOL     OW34391   9.072   5.261   1.562
 5235SOL    HW134392   8.985   5.210   1.562
 5235SOL    HW234393   9.146   5.199   1.535
 5236SOL     OW34394   1.626   8.467   6.730
 5236SOL    HW134395   1.647   8.528   6.654
 5236SOL    HW234396   1.527   8.460   6.741
 5237SOL     OW34397   8.590   9.549   1.699
 5237SOL    HW134398   8.574   9.463   1.650
 5237SOL    HW234399   8.550   9.625   1.647
 5238SOL     OW34400   4.746   5.872   7.594
 5238SOL    HW134401   4.719   5.968   7.597
 5238SOL    HW234402   4.776   5.843   7.684
 5239SOL     OW34403   7.202   1.016   7.403
 5239SOL    HW134404   7.125   0.961   7.371
 5239SOL    HW234405   7.238   0.977   7.488
 5240SOL     OW34406   8.167  10.327   7.466
 5240SOL    HW134407   8.205  10.240   7.436
 5240SOL    HW234408   8.196  10.347   7.559
 5241SOL     OW34409   4.711   6.788   1.414
 5241SOL    HW134410   4.744   6.858   1.477
 5241SOL    HW234411   4.724   6.698   1.455
 5242SOL     OW34412   0.822   7.391   8.167
 5242SOL    HW134413   0.779   7.473   8.129
 5242SOL    HW234414   0.892   7.419   8.233
 5243SOL     OW34415   4.904   3.171   6.746
 5243SOL    HW134416   4.929   3.224   6.665
 5243SOL    HW234417   4.981   3.112   6.771
 5244SOL     OW34418   2.146   7.890   0.102
 5244SOL    HW134419   2.162   7.962   0.169
 5244SOL    HW234420   2.161   7.801   0.143
 5245SOL     OW34421   9.284   9.677   1.670
 5245SOL    HW134422   9.190   9.644   1.678
 5245SOL    HW234423   9.326   9.640   1.587
 5246SOL     OW34424   6.645   4.447   0.633
 5246SOL    HW134425   6.723   4.397   0.593
 5246SOL    HW234426   6.661   4.545   0.626
 5247SOL     OW34427   4.596   5.366   0.940
 5247SOL    HW134428   4.625   5.407   0.854
 5247SOL    HW234429   4.599   5.266   0.933
 5248SOL     OW34430   6.670   1.303   7.432
 5248SOL    HW134431   6.746   1.332   7.489
 5248SOL    HW234432   6.697   1.224   7.377
 5249SOL     OW34433   4.035   3.968   6.422
 5249SOL    HW134434   3.955   3.962   6.363
 5249SOL    HW234435   4.022   4.041   6.489
 5250SOL     OW34436   5.402   1.872   6.812
 5250SOL    HW134437   5.426   1.969   6.804
 5250SOL    HW234438   5.428   1.839   6.902
 5251SOL     OW34439   2.009   2.012   2.099
 5251SOL    HW134440   1.936   2.015   2.167
 5251SOL    HW234441   1.993   2.081   2.029
 5252SOL     OW34442   3.275   6.035   7.722
 5252SOL    HW134443   3.317   6.072   7.639
 5252SOL    HW234444   3.217   6.105   7.764
 5253SOL     OW34445   9.628   1.694   0.613
 5253SOL    HW134446   9.576   1.611   0.631
 5253SOL    HW234447   9.726   1.674   0.618
 5254SOL     OW34448   2.198   5.620   1.122
 5254SOL    HW134449   2.247   5.672   1.052
 5254SOL    HW234450   2.161   5.536   1.083
 5255SOL     OW34451   0.877   1.424   8.240
 5255SOL    HW134452   0.943   1.392   8.308
 5255SOL    HW234453   0.920   1.492   8.181
 5256SOL     OW34454   2.242   0.866   6.474
 5256SOL    HW134455   2.189   0.816   6.406
 5256SOL    HW234456   2.277   0.803   6.543
 5257SOL     OW34457   7.700   3.553   6.538
 5257SOL    HW134458   7.681   3.478   6.474
 5257SOL    HW234459   7.786   3.597   6.514
 5258SOL     OW34460   3.614   9.859   7.568
 5258SOL    HW134461   3.599   9.954   7.596
 5258SOL    HW234462   3.531   9.806   7.586
 5259SOL     OW34463   2.178   8.475   7.397
 5259SOL    HW134464   2.119   8.526   7.335
 5259SOL    HW234465   2.268   8.464   7.356
 5260SOL     OW34466   1.628   9.554   6.180
 5260SOL    HW134467   1.580   9.625   6.231
 5260SOL    HW234468   1.698   9.596   6.122
 5261SOL     OW34469   3.742   7.274   1.196
 5261SOL    HW134470   3.810   7.315   1.135
 5261SOL    HW234471   3.788   7.211   1.259
 5262SOL     OW34472   9.279   4.803   0.123
 5262SOL    HW134473   9.194   4.752   0.119
 5262SOL    HW234474   9.260   4.901   0.119
 5263SOL     OW34475   8.715   9.137   8.336
 5263SOL    HW134476   8.780   9.062   8.351
 5263SOL    HW234477   8.659   9.116   8.255
 5264SOL     OW34478   1.996   1.081   6.930
 5264SOL    HW134479   1.977   0.990   6.895
 5264SOL    HW234480   1.971   1.150   6.862
 5265SOL     OW34481   0.234   3.626   5.845
 5265SOL    HW134482   0.315   3.571   5.825
 5265SOL    HW234483   0.189   3.651   5.759
 5266SOL     OW34484   0.917   3.545   8.653
 5266SOL    HW134485   0.967   3.519   8.736
 5266SOL    HW234486   0.972   3.609   8.599
 5267SOL     OW34487   4.834   5.514   6.794
 5267SOL    HW134488   4.791   5.465   6.718
 5267SOL    HW234489   4.906   5.458   6.834
 5268SOL     OW34490   0.952   6.450   1.480
 5268SOL    HW134491   1.000   6.516   1.423
 5268SOL    HW234492   0.933   6.490   1.569
 5269SOL     OW34493   9.702   7.141   6.997
 5269SOL    HW134494   9.751   7.227   7.014
 5269SOL    HW234495   9.706   7.119   6.900
 5270SOL     OW34496   9.127   6.221   5.870
 5270SOL    HW134497   9.030   6.200   5.855
 5270SOL    HW234498   9.137   6.319   5.888
 5271SOL     OW34499   1.942   5.298   8.613
 5271SOL    HW134500   1.918   5.205   8.643
 5271SOL    HW234501   1.909   5.312   8.520
 5272SOL     OW34502   3.804  10.009   8.487
 5272SOL    HW134503   3.726  10.018   8.425
 5272SOL    HW234504   3.814   9.914   8.515
 5273SOL     OW34505   1.838   3.682   1.873
 5273SOL    HW134506   1.937   3.671   1.885
 5273SOL    HW234507   1.791   3.647   1.954
 5274SOL     OW34508   5.663   7.659   8.467
 5274SOL    HW134509   5.688   7.573   8.423
 5274SOL    HW234510   5.570   7.651   8.504
 5275SOL     OW34511   0.195   7.979   0.293
 5275SOL    HW134512   0.224   8.063   0.246
 5275SOL    HW234513   0.096   7.979   0.302
 5276SOL     OW34514   2.795   0.802   7.514
 5276SOL    HW134515   2.789   0.898   7.542
 5276SOL    HW234516   2.868   0.792   7.446
 5277SOL     OW34517   4.940  10.250   6.760
 5277SOL    HW134518   4.916  10.187   6.686
 5277SOL    HW234519   4.878  10.329   6.758
 5278SOL     OW34520   6.899   8.794   2.001
 5278SOL    HW134521   6.819   8.753   2.045
 5278SOL    HW234522   6.872   8.879   1.955
 5279SOL     OW34523   9.886   6.614   8.547
 5279SOL    HW134524   9.890   6.523   8.589
 5279SOL    HW234525   9.792   6.649   8.552
 5280SOL     OW34526   2.232   7.825   7.145
 5280SOL    HW134527   2.210   7.864   7.055
 5280SOL    HW234528   2.316   7.770   7.138
 5281SOL     OW34529   4.353  10.486   1.366
 5281SOL    HW134530   4.280  10.496   1.433
 5281SOL    HW234531   4.438  10.459   1.413
 5282SOL     OW34532   1.195   7.980   8.753
 5282SOL    HW134533   1.292   7.995   8.773
 5282SOL    HW234534   1.144   8.065   8.768
 5283SOL     OW34535   7.815   7.374   2.384
 5283SOL    HW134536   7.750   7.342   2.453
 5283SOL    HW234537   7.908   7.356   2.415
 5284SOL     OW34538   7.982   6.128   1.622
 5284SOL    HW134539   7.913   6.066   1.662
 5284SOL    HW234540   8.047   6.155   1.693
 5285SOL     OW34541   9.360   5.376   8.042
 5285SOL    HW134542   9.305   5.369   8.126
 5285SOL    HW234543   9.449   5.332   8.057
 5286SOL     OW34544   7.466   0.841   7.973
 5286SOL    HW134545   7.387   0.898   7.994
 5286SOL    HW234546   7.436   0.755   7.932
 5287SOL     OW34547   4.966   2.444   1.500
 5287SOL    HW134548   5.021   2.525   1.484
 5287SOL    HW234549   5.022   2.373   1.543
 5288SOL     OW34550   0.629   1.868   7.231
 5288SOL    HW134551   0.564   1.791   7.230
 5288SOL    HW234552   0.664   1.883   7.139
 5289SOL     OW34553   6.235   0.557   6.684
 5289SOL    HW134554   6.187   0.569   6.598
 5289SOL    HW234555   6.227   0.641   6.738
 5290SOL     OW34556   3.375   5.174   8.468
 5290SOL    HW134557   3.326   5.261   8.473
 5290SOL    HW234558   3.315   5.100   8.499
 5291SOL     OW34559   0.911   2.439   1.298
 5291SOL    HW134560   0.998   2.401   1.329
 5291SOL    HW234561   0.846   2.439   1.373
 5292SOL     OW34562   4.473   1.224   8.746
 5292SOL    HW134563   4.521   1.159   8.687
 5292SOL    HW234564   4.482   1.316   8.708
 5293SOL     OW34565   2.086   2.166   1.124
 5293SOL    HW134566   2.163   2.199   1.070
 5293SOL    HW234567   2.007   2.151   1.064
 5294SOL     OW34568  10.116   2.448   8.740
 5294SOL    HW134569  10.122   2.473   8.643
 5294SOL    HW234570  10.086   2.527   0.011
 5295SOL     OW34571   9.513   9.812   8.626
 5295SOL    HW134572   9.551   9.872   8.555
 5295SOL    HW234573   9.513   9.718   8.594
 5296SOL     OW34574   8.022   5.258   8.630
 5296SOL    HW134575   7.948   5.195   8.606
 5296SOL    HW234576   8.007   5.346   8.586
 5297SOL     OW34577   0.768   6.077   1.474
 5297SOL    HW134578   0.832   6.034   1.410
 5297SOL    HW234579   0.765   6.025   1.559
 5298SOL     OW34580   9.244   0.069   1.241
 5298SOL    HW134581   9.145   0.061   1.236
 5298SOL    HW234582   9.282   0.064   1.148
 5299SOL     OW34583   4.751   0.185   7.616
 5299SOL    HW134584   4.773   0.158   7.522
 5299SOL    HW234585   4.689   0.263   7.615
 5300SOL     OW34586   0.464   1.638   7.245
 5300SOL    HW134587   0.478   1.571   7.173
 5300SOL    HW234588   0.368   1.640   7.272
 5301SOL     OW34589   9.681   0.240   1.366
 5301SOL    HW134590   9.656   0.269   1.459
 5301SOL    HW234591   9.662   0.314   1.302
 5302SOL     OW34592   5.944   5.885   8.088
 5302SOL    HW134593   5.951   5.868   7.990
 5302SOL    HW234594   6.000   5.820   8.138
 5303SOL     OW34595   5.703   3.454   2.026
 5303SOL    HW134596   5.787   3.456   1.973
 5303SOL    HW234597   5.627   3.424   1.968
 5304SOL     OW34598   4.022   6.833   0.016
 5304SOL    HW134599   4.015   6.917   8.743
 5304SOL    HW234600   3.942   6.776   8.781
 5305SOL     OW34601   9.859   7.224   0.401
 5305SOL    HW134602   9.873   7.218   0.303
 5305SOL    HW234603   9.946   7.216   0.449
 5306SOL     OW34604   7.586   3.381   6.727
 5306SOL    HW134605   7.619   3.459   6.673
 5306SOL    HW234606   7.635   3.299   6.698
 5307SOL     OW34607   6.175   6.447   7.134
 5307SOL    HW134608   6.158   6.353   7.163
 5307SOL    HW234609   6.097   6.481   7.082
 5308SOL     OW34610   0.856   3.892   8.119
 5308SOL    HW134611   0.929   3.932   8.063
 5308SOL    HW234612   0.831   3.803   8.083
 5309SOL     OW34613   7.963   2.480   1.423
 5309SOL    HW134614   7.905   2.458   1.501
 5309SOL    HW234615   7.939   2.419   1.347
 5310SOL     OW34616   8.215   0.598   8.221
 5310SOL    HW134617   8.241   0.507   8.191
 5310SOL    HW234618   8.179   0.650   8.144
 5311SOL     OW34619   5.083   7.611   6.997
 5311SOL    HW134620   5.171   7.573   7.026
 5311SOL    HW234621   5.098   7.685   6.933
 5312SOL     OW34622   4.397   3.211   8.482
 5312SOL    HW134623   4.474   3.176   8.428
 5312SOL    HW234624   4.319   3.229   8.423
 5313SOL     OW34625   9.019   3.924   8.709
 5313SOL    HW134626   9.116   3.905   8.725
 5313SOL    HW234627   8.981   3.973   0.005
 5314SOL     OW34628   0.804   4.637   7.830
 5314SOL    HW134629   0.730   4.585   7.787
 5314SOL    HW234630   0.812   4.726   7.786
 5315SOL     OW34631   5.461   2.310   1.602
 5315SOL    HW134632   5.555   2.279   1.617
 5315SOL    HW234633   5.410   2.239   1.553
 5316SOL     OW34634   1.801   2.912   0.333
 5316SOL    HW134635   1.768   2.994   0.287
 5316SOL    HW234636   1.742   2.891   0.412
 5317SOL     OW34637   8.227   0.975   8.128
 5317SOL    HW134638   8.175   1.061   8.129
 5317SOL    HW234639   8.230   0.939   8.035
 5318SOL     OW34640   8.454   0.463   7.588
 5318SOL    HW134641   8.551   0.461   7.565
 5318SOL    HW234642   8.416   0.371   7.586
 5319SOL     OW34643   6.149   0.599   0.188
 5319SOL    HW134644   6.166   0.503   0.210
 5319SOL    HW234645   6.225   0.634   0.133
 5320SOL     OW34646   4.676   8.755   7.247
 5320SOL    HW134647   4.611   8.827   7.268
 5320SOL    HW234648   4.733   8.782   7.169
 5321SOL     OW34649   4.929   2.658   7.291
 5321SOL    HW134650   4.865   2.726   7.327
 5321SOL    HW234651   4.878   2.579   7.256
 5322SOL     OW34652   8.114   8.649   1.363
 5322SOL    HW134653   8.039   8.588   1.388
 5322SOL    HW234654   8.122   8.721   1.432
 5323SOL     OW34655   7.541   6.212   7.596
 5323SOL    HW134656   7.597   6.142   7.641
 5323SOL    HW234657   7.458   6.227   7.650
 5324SOL     OW34658   1.790   3.082   7.834
 5324SOL    HW134659   1.709   3.095   7.777
 5324SOL    HW234660   1.871   3.115   7.784
 5325SOL     OW34661   5.035   8.891   1.530
 5325SOL    HW134662   5.101   8.949   1.483
 5325SOL    HW234663   4.943   8.929   1.520
 5326SOL     OW34664   8.414   7.224   1.147
 5326SOL    HW134665   8.340   7.279   1.184
 5326SOL    HW234666   8.498   7.277   1.146
 5327SOL     OW34667   0.066  10.321   7.612
 5327SOL    HW134668   0.148  10.280   7.652
 5327SOL    HW234669   0.051  10.411   7.653
 5328SOL     OW34670   3.611   7.773   7.838
 5328SOL    HW134671   3.706   7.744   7.825
 5328SOL    HW234672   3.601   7.867   7.806
 5329SOL     OW34673   8.651   9.539   8.631
 5329SOL    HW134674   8.653   9.440   8.614
 5329SOL    HW234675   8.713   9.585   8.567
 5330SOL     OW34676   3.726   5.193   8.124
 5330SOL    HW134677   3.724   5.292   8.136
 5330SOL    HW234678   3.820   5.160   8.133
 5331SOL     OW34679   6.675  10.318   0.463
 5331SOL    HW134680   6.631  10.312   0.373
 5331SOL    HW234681   6.701  10.412   0.481
 5332SOL     OW34682   4.149   2.292   1.307
 5332SOL    HW134683   4.118   2.198   1.293
 5332SOL    HW234684   4.222   2.293   1.376
 5333SOL     OW34685   4.980   0.195   1.901
 5333SOL    HW134686   4.957   0.289   1.877
 5333SOL    HW234687   5.079   0.186   1.912
 5334SOL     OW34688   0.053   6.142   5.984
 5334SOL    HW134689   0.143   6.118   5.946
 5334SOL    HW234690   0.017   6.065   6.036
 5335SOL     OW34691   4.767   6.555   1.553
 5335SOL    HW134692   4.859   6.544   1.590
 5335SOL    HW234693   4.744   6.476   1.495
 5336SOL     OW34694   8.162   4.807   1.907
 5336SOL    HW134695   8.247   4.853   1.932
 5336SOL    HW234696   8.120   4.767   1.989
 5337SOL     OW34697   9.026   3.535   7.424
 5337SOL    HW134698   9.054   3.448   7.465
 5337SOL    HW234699   8.987   3.594   7.495
 5338SOL     OW34700   7.399   5.035   1.216
 5338SOL    HW134701   7.394   5.093   1.134
 5338SOL    HW234702   7.335   4.959   1.206
 5339SOL     OW34703   7.435   7.978   0.894
 5339SOL    HW134704   7.376   7.906   0.931
 5339SOL    HW234705   7.455   7.959   0.798
 5340SOL     OW34706   9.715   9.829   1.577
 5340SOL    HW134707   9.733   9.734   1.604
 5340SOL    HW234708   9.624   9.835   1.537
 5341SOL     OW34709   2.647   8.386   0.301
 5341SOL    HW134710   2.619   8.405   0.207
 5341SOL    HW234711   2.611   8.456   0.361
 5342SOL     OW34712   6.953   7.724   1.967
 5342SOL    HW134713   7.038   7.683   1.933
 5342SOL    HW234714   6.958   7.735   2.066
 5343SOL     OW34715   8.977   3.689   0.268
 5343SOL    HW134716   8.907   3.753   0.236
 5343SOL    HW234717   8.964   3.601   0.221
 5344SOL     OW34718   2.367   5.759   0.960
 5344SOL    HW134719   2.466   5.756   0.947
 5344SOL    HW234720   2.323   5.785   0.874
 5345SOL     OW34721   6.019   1.614   0.423
 5345SOL    HW134722   6.068   1.650   0.502
 5345SOL    HW234723   5.981   1.689   0.369
 5346SOL     OW34724   9.402   7.588   1.263
 5346SOL    HW134725   9.324   7.560   1.320
 5346SOL    HW234726   9.373   7.593   1.167
 5347SOL     OW34727   0.336   4.903   6.865
 5347SOL    HW134728   0.294   4.823   6.909
 5347SOL    HW234729   0.272   4.979   6.866
 5348SOL     OW34730   6.883   8.967   0.011
 5348SOL    HW134731   6.968   8.977   8.743
 5348SOL    HW234732   6.898   8.911   0.093
 5349SOL     OW34733   8.487   0.024   0.626
 5349SOL    HW134734   8.486   0.116   0.662
 5349SOL    HW234735   8.506  10.462   0.699
 5350SOL     OW34736   9.488   5.676   7.154
 5350SOL    HW134737   9.555   5.635   7.091
 5350SOL    HW234738   9.523   5.764   7.186
 5351SOL     OW34739   9.818  10.380   6.372
 5351SOL    HW134740   9.800  10.409   6.278
 5351SOL    HW234741   9.905  10.331   6.376
 5352SOL     OW34742   6.225   9.187   0.543
 5352SOL    HW134743   6.215   9.245   0.624
 5352SOL    HW234744   6.151   9.119   0.541
 5353SOL     OW34745   0.034   6.793   7.693
 5353SOL    HW134746   0.112   6.815   7.751
 5353SOL    HW234747  10.148   6.709   7.726
 5354SOL     OW34748   2.717   4.426   1.164
 5354SOL    HW134749   2.792   4.473   1.117
 5354SOL    HW234750   2.703   4.335   1.124
 5355SOL     OW34751   9.173   9.254   2.006
 5355SOL    HW134752   9.166   9.335   2.065
 5355SOL    HW234753   9.216   9.179   2.056
 5356SOL     OW34754   2.336   1.529   1.086
 5356SOL    HW134755   2.317   1.559   1.180
 5356SOL    HW234756   2.393   1.598   1.041
 5357SOL     OW34757   9.866   9.154   0.568
 5357SOL    HW134758   9.781   9.200   0.541
 5357SOL    HW234759   9.896   9.094   0.495
 5358SOL     OW34760   2.893   6.481   1.652
 5358SOL    HW134761   2.847   6.397   1.679
 5358SOL    HW234762   2.922   6.532   1.733
 5359SOL     OW34763   8.252   5.414   7.385
 5359SOL    HW134764   8.307   5.435   7.305
 5359SOL    HW234765   8.311   5.408   7.466
 5360SOL     OW34766   9.084   6.157   0.101
 5360SOL    HW134767   8.991   6.169   0.067
 5360SOL    HW234768   9.087   6.183   0.198
 5361SOL     OW34769   8.088   9.049   1.945
 5361SOL    HW134770   8.024   9.124   1.960
 5361SOL    HW234771   8.173   9.067   1.994
 5362SOL     OW34772   1.334   5.494   1.655
 5362SOL    HW134773   1.391   5.476   1.575
 5362SOL    HW234774   1.392   5.500   1.737
 5363SOL     OW34775   9.171   1.723   8.279
 5363SOL    HW134776   9.094   1.732   8.342
 5363SOL    HW234777   9.170   1.632   8.238
 5364SOL     OW34778   0.203   2.081   1.088
 5364SOL    HW134779   0.107   2.068   1.063
 5364SOL    HW234780   0.252   2.124   1.012
 5365SOL     OW34781   2.116   6.908   1.897
 5365SOL    HW134782   2.136   6.969   1.974
 5365SOL    HW234783   2.083   6.820   1.931
 5366SOL     OW34784   4.631   7.678   6.769
 5366SOL    HW134785   4.703   7.745   6.786
 5366SOL    HW234786   4.559   7.689   6.837
 5367SOL     OW34787   0.005   7.719   6.875
 5367SOL    HW134788  10.065   7.739   6.869
 5367SOL    HW234789   0.056   7.804   6.890
 5368SOL     OW34790   1.951  10.185   0.012
 5368SOL    HW134791   2.008  10.172   8.712
 5368SOL    HW234792   2.006  10.228   0.083
 5369SOL     OW34793   7.276  10.048   0.741
 5369SOL    HW134794   7.321  10.090   0.819
 5369SOL    HW234795   7.295   9.950   0.741
 5370SOL     OW34796   7.040   1.792   0.607
 5370SOL    HW134797   7.035   1.892   0.608
 5370SOL    HW234798   6.967   1.755   0.550
 5371SOL     OW34799   7.098   6.230   8.691
 5371SOL    HW134800   7.095   6.149   8.749
 5371SOL    HW234801   7.041   6.302   8.732
 5372SOL     OW34802   5.154   9.412   6.870
 5372SOL    HW134803   5.247   9.423   6.906
 5372SOL    HW234804   5.158   9.394   6.771
 5373SOL     OW34805   9.992   7.023   7.235
 5373SOL    HW134806   9.931   7.089   7.278
 5373SOL    HW234807  10.044   6.976   7.306
 5374SOL     OW34808   1.099   7.675   7.164
 5374SOL    HW134809   1.197   7.684   7.147
 5374SOL    HW234810   1.074   7.578   7.161
 5375SOL     OW34811   4.053   4.265   0.763
 5375SOL    HW134812   4.064   4.200   0.838
 5375SOL    HW234813   4.120   4.246   0.692
 5376SOL     OW34814   2.913   2.470   7.967
 5376SOL    HW134815   2.988   2.454   8.032
 5376SOL    HW234816   2.840   2.404   7.984
 5377SOL     OW34817   3.350   3.951   7.339
 5377SOL    HW134818   3.334   3.913   7.430
 5377SOL    HW234819   3.292   4.032   7.326
 5378SOL     OW34820   0.875   6.456   7.092
 5378SOL    HW134821   0.814   6.534   7.075
 5378SOL    HW234822   0.958   6.488   7.136
 5379SOL     OW34823   9.582   6.189   7.894
 5379SOL    HW134824   9.508   6.251   7.867
 5379SOL    HW234825   9.559   6.145   7.981
 5380SOL     OW34826   6.325   8.622   8.035
 5380SOL    HW134827   6.331   8.678   7.953
 5380SOL    HW234828   6.387   8.544   8.027
 5381SOL     OW34829   0.785   9.513   8.588
 5381SOL    HW134830   0.789   9.495   8.489
 5381SOL    HW234831   0.801   9.610   8.605
 5382SOL     OW34832   4.326   0.175   6.767
 5382SOL    HW134833   4.399   0.237   6.738
 5382SOL    HW234834   4.245   0.228   6.793
 5383SOL     OW34835   2.368   3.484   7.902
 5383SOL    HW134836   2.439   3.467   7.835
 5383SOL    HW234837   2.294   3.536   7.860
 5384SOL     OW34838   4.106   7.335   0.107
 5384SOL    HW134839   4.007   7.337   0.120
 5384SOL    HW234840   4.151   7.309   0.193
 5385SOL     OW34841   0.290   4.632   0.350
 5385SOL    HW134842   0.238   4.694   0.409
 5385SOL    HW234843   0.297   4.542   0.394
 5386SOL     OW34844   2.951   7.304   8.298
 5386SOL    HW134845   2.881   7.368   8.265
 5386SOL    HW234846   2.932   7.213   8.261
 5387SOL     OW34847   3.731   6.463   1.228
 5387SOL    HW134848   3.740   6.495   1.134
 5387SOL    HW234849   3.645   6.412   1.238
 5388SOL     OW34850   3.421   3.896   0.725
 5388SOL    HW134851   3.423   3.858   0.817
 5388SOL    HW234852   3.349   3.966   0.719
 5389SOL     OW34853   2.134   6.985   7.783
 5389SOL    HW134854   2.215   7.019   7.735
 5389SOL    HW234855   2.069   6.947   7.717
 5390SOL     OW34856   8.664   7.203   7.497
 5390SOL    HW134857   8.664   7.242   7.405
 5390SOL    HW234858   8.595   7.131   7.502
 5391SOL     OW34859   8.038   7.537   6.605
 5391SOL    HW134860   7.939   7.537   6.618
 5391SOL    HW234861   8.074   7.628   6.623
 5392SOL     OW34862   6.958   5.574   8.183
 5392SOL    HW134863   6.947   5.537   8.090
 5392SOL    HW234864   7.053   5.562   8.212
 5393SOL     OW34865   4.749   3.892   0.437
 5393SOL    HW134866   4.749   3.917   0.340
 5393SOL    HW234867   4.671   3.831   0.455
 5394SOL     OW34868   5.079   3.524   1.507
 5394SOL    HW134869   5.142   3.594   1.540
 5394SOL    HW234870   5.024   3.490   1.583
 5395SOL     OW34871   1.700   4.936   1.360
 5395SOL    HW134872   1.788   4.926   1.314
 5395SOL    HW234873   1.691   4.865   1.431
 5396SOL     OW34874   2.155   3.032   7.948
 5396SOL    HW134875   2.195   2.941   7.942
 5396SOL    HW234876   2.196   3.092   7.879
 5397SOL     OW34877   1.804   6.769   1.351
 5397SOL    HW134878   1.810   6.792   1.253
 5397SOL    HW234879   1.876   6.819   1.400
 5398SOL     OW34880   0.591  10.446   6.943
 5398SOL    HW134881   0.582  10.418   6.848
 5398SOL    HW234882   0.547   0.032   6.955
 5399SOL     OW34883   7.531   3.701   8.452
 5399SOL    HW134884   7.587   3.734   8.528
 5399SOL    HW234885   7.461   3.770   8.429
 5400SOL     OW34886   7.092   0.654   2.316
 5400SOL    HW134887   7.021   0.594   2.279
 5400SOL    HW234888   7.059   0.749   2.315
 5401SOL     OW34889   9.736   6.977   0.333
 5401SOL    HW134890   9.799   6.902   0.351
 5401SOL    HW234891   9.771   7.061   0.374
 5402SOL     OW34892   9.693   6.907   8.408
 5402SOL    HW134893   9.668   6.830   8.466
 5402SOL    HW234894   9.715   6.874   8.316
 5403SOL     OW34895   0.791   4.548   1.193
 5403SOL    HW134896   0.819   4.578   1.101
 5403SOL    HW234897   0.873   4.532   1.249
 5404SOL     OW34898   7.947   5.453   0.872
 5404SOL    HW134899   7.872   5.473   0.809
 5404SOL    HW234900   7.987   5.364   0.850
 5405SOL     OW34901   9.248   6.041   6.872
 5405SOL    HW134902   9.262   6.060   6.969
 5405SOL    HW234903   9.249   6.127   6.821
 5406SOL     OW34904   1.535   3.795   0.401
 5406SOL    HW134905   1.587   3.737   0.339
 5406SOL    HW234906   1.591   3.875   0.426
 5407SOL     OW34907   5.385   8.319   7.152
 5407SOL    HW134908   5.472   8.274   7.173
 5407SOL    HW234909   5.309   8.255   7.167
 5408SOL     OW34910   9.106   7.276   7.277
 5408SOL    HW134911   9.055   7.191   7.288
 5408SOL    HW234912   9.047   7.345   7.233
 5409SOL     OW34913   5.363   7.133   1.435
 5409SOL    HW134914   5.267   7.149   1.455
 5409SOL    HW234915   5.412   7.220   1.437
 5410SOL     OW34916   5.946   6.141   0.808
 5410SOL    HW134917   5.924   6.092   0.892
 5410SOL    HW234918   6.041   6.170   0.810
 5411SOL     OW34919   2.701   4.652   1.711
 5411SOL    HW134920   2.691   4.740   1.667
 5411SOL    HW234921   2.753   4.663   1.796
 5412SOL     OW34922   7.418   5.493   6.044
 5412SOL    HW134923   7.470   5.418   6.003
 5412SOL    HW234924   7.471   5.577   6.041
 5413SOL     OW34925   9.629   5.940   1.936
 5413SOL    HW134926   9.720   5.911   1.966
 5413SOL    HW234927   9.582   5.987   2.011
 5414SOL     OW34928   3.075   5.929   7.306
 5414SOL    HW134929   3.008   5.881   7.364
 5414SOL    HW234930   3.117   5.864   7.244
 5415SOL     OW34931   1.566   8.298   8.757
 5415SOL    HW134932   1.543   8.329   8.665
 5415SOL    HW234933   1.656   8.335   0.002
 5416SOL     OW34934   8.875   9.828   8.245
 5416SOL    HW134935   8.877   9.774   8.329
 5416SOL    HW234936   8.966   9.866   8.228
 5417SOL     OW34937   2.866   6.023   8.106
 5417SOL    HW134938   2.803   6.010   8.182
 5417SOL    HW234939   2.826   6.085   8.039
 5418SOL     OW34940   3.504   0.646   8.520
 5418SOL    HW134941   3.490   0.677   8.614
 5418SOL    HW234942   3.432   0.581   8.495
 5419SOL     OW34943   1.248   5.205   0.162
 5419SOL    HW134944   1.192   5.198   0.245
 5419SOL    HW234945   1.315   5.278   0.174
 5420SOL     OW34946   2.912   2.723   8.763
 5420SOL    HW134947   2.878   2.761   0.067
 5420SOL    HW234948   2.988   2.661   8.781
 5421SOL     OW34949   3.319   3.182   0.129
 5421SOL    HW134950   3.298   3.261   0.187
 5421SOL    HW234951   3.277   3.195   0.039
 5422SOL     OW34952   0.837   9.726   2.214
 5422SOL    HW134953   0.771   9.792   2.250
 5422SOL    HW234954   0.925   9.738   2.261
 5423SOL     OW34955   4.595   2.897   6.641
 5423SOL    HW134956   4.679   2.897   6.587
 5423SOL    HW234957   4.519   2.867   6.585
 5424SOL     OW34958   1.948   8.601   7.823
 5424SOL    HW134959   1.937   8.529   7.892
 5424SOL    HW234960   2.036   8.589   7.777
 5425SOL     OW34961   7.416   3.980   7.941
 5425SOL    HW134962   7.492   4.043   7.956
 5425SOL    HW234963   7.446   3.886   7.956
 5426SOL     OW34964   3.977   8.312   2.552
 5426SOL    HW134965   4.057   8.274   2.504
 5426SOL    HW234966   3.933   8.240   2.605
 5427SOL     OW34967   0.380   1.473   7.914
 5427SOL    HW134968   0.354   1.532   7.837
 5427SOL    HW234969   0.331   1.502   7.996
 5428SOL     OW34970   9.995   2.225   0.071
 5428SOL    HW134971  10.039   2.302   0.025
 5428SOL    HW234972   9.919   2.257   0.127
 5429SOL     OW34973   0.522   7.618   8.310
 5429SOL    HW134974   0.552   7.561   8.387
 5429SOL    HW234975   0.588   7.610   8.235
 5430SOL     OW34976   3.874   8.172   1.731
 5430SOL    HW134977   3.962   8.126   1.721
 5430SOL    HW234978   3.802   8.104   1.746
 5431SOL     OW34979   2.116  10.172   1.658
 5431SOL    HW134980   2.184  10.107   1.691
 5431SOL    HW234981   2.112  10.169   1.558
 5432SOL     OW34982   7.657   3.101   8.745
 5432SOL    HW134983   7.600   3.170   8.700
 5432SOL    HW234984   7.750   3.136   8.757
 5433SOL     OW34985   0.140   8.173   8.348
 5433SOL    HW134986   0.222   8.228   8.333
 5433SOL    HW234987   0.161   8.076   8.329
 5434SOL     OW34988   2.440   5.923   8.204
 5434SOL    HW134989   2.534   5.926   8.239
 5434SOL    HW234990   2.392   6.006   8.232
 5435SOL     OW34991   4.999   8.986   7.291
 5435SOL    HW134992   5.051   8.936   7.222
 5435SOL    HW234993   4.912   9.016   7.252
 5436SOL     OW34994   4.079   4.803   7.633
 5436SOL    HW134995   3.987   4.832   7.660
 5436SOL    HW234996   4.144   4.876   7.652
 5437SOL     OW34997   8.999   6.871   8.091
 5437SOL    HW134998   8.988   6.962   8.050
 5437SOL    HW234999   8.917   6.848   8.144
 5438SOL     OW35000   0.695   0.972   0.866
 5438SOL    HW135001   0.681   0.980   0.965
 5438SOL    HW235002   0.791   0.952   0.848
 5439SOL     OW35003   1.844   5.753   7.647
 5439SOL    HW135004   1.835   5.853   7.644
 5439SOL    HW235005   1.764   5.714   7.692
 5440SOL     OW35006   8.051   4.450   1.325
 5440SOL    HW135007   8.089   4.395   1.399
 5440SOL    HW235008   8.123   4.477   1.262
 5441SOL     OW35009   9.688   8.294   8.509
 5441SOL    HW135010   9.628   8.215   8.520
 5441SOL    HW235011   9.637   8.378   8.527
 5442SOL     OW35012   5.206   6.489   0.168
 5442SOL    HW135013   5.123   6.524   0.125
 5442SOL    HW235014   5.282   6.494   0.104
 5443SOL     OW35015   8.297  10.160   0.480
 5443SOL    HW135016   8.223  10.094   0.496
 5443SOL    HW235017   8.370  10.145   0.547
 5444SOL     OW35018   9.591   9.480   8.774
 5444SOL    HW135019   9.562   9.509   8.682
 5444SOL    HW235020   9.526   9.414   0.029
 5445SOL     OW35021   4.924   1.160   0.504
 5445SOL    HW135022   4.952   1.126   0.594
 5445SOL    HW235023   4.999   1.149   0.439
 5446SOL     OW35024   4.876   6.584   8.114
 5446SOL    HW135025   4.782   6.613   8.133
 5446SOL    HW235026   4.924   6.567   8.200
 5447SOL     OW35027   9.419   4.785   2.293
 5447SOL    HW135028   9.408   4.700   2.345
 5447SOL    HW235029   9.475   4.850   2.345
 5448SOL     OW35030   0.271   6.584   8.278
 5448SOL    HW135031   0.313   6.512   8.223
 5448SOL    HW235032   0.178   6.558   8.302
 5449SOL     OW35033   4.340   1.907   8.461
 5449SOL    HW135034   4.264   1.868   8.408
 5449SOL    HW235035   4.304   1.954   8.541
 5450SOL     OW35036   4.445   4.419   6.063
 5450SOL    HW135037   4.358   4.370   6.060
 5450SOL    HW235038   4.520   4.355   6.047
 5451SOL     OW35039   3.903   1.920   7.986
 5451SOL    HW135040   3.957   1.974   8.051
 5451SOL    HW235041   3.945   1.830   7.973
 5452SOL     OW35042   9.018   1.935   1.872
 5452SOL    HW135043   8.967   2.020   1.858
 5452SOL    HW235044   9.113   1.948   1.843
 5453SOL     OW35045   9.636   1.202   1.857
 5453SOL    HW135046   9.602   1.273   1.919
 5453SOL    HW235047   9.653   1.118   1.909
 5454SOL     OW35048   8.723   1.726   8.668
 5454SOL    HW135049   8.768   1.654   8.616
 5454SOL    HW235050   8.625   1.725   8.648
 5455SOL     OW35051   9.178  10.360   8.509
 5455SOL    HW135052   9.098  10.303   8.526
 5455SOL    HW235053   9.156  10.456   8.532
 5456SOL     OW35054   8.957   3.727   1.353
 5456SOL    HW135055   8.974   3.687   1.443
 5456SOL    HW235056   8.894   3.668   1.302
 5457SOL     OW35057   4.558   8.831   8.637
 5457SOL    HW135058   4.635   8.892   8.619
 5457SOL    HW235059   4.524   8.793   8.551
 5458SOL     OW35060   2.254   9.931   7.338
 5458SOL    HW135061   2.193   9.969   7.268
 5458SOL    HW235062   2.309  10.005   7.377
 5459SOL     OW35063   4.585   1.684   1.236
 5459SOL    HW135064   4.612   1.660   1.329
 5459SOL    HW235065   4.652   1.746   1.196
 5460SOL     OW35066   7.096   7.260   7.132
 5460SOL    HW135067   7.151   7.291   7.209
 5460SOL    HW235068   7.154   7.254   7.050
 5461SOL     OW35069   0.255   3.389   1.229
 5461SOL    HW135070   0.155   3.386   1.239
 5461SOL    HW235071   0.292   3.459   1.289
 5462SOL     OW35072   2.031   4.896   7.987
 5462SOL    HW135073   1.944   4.921   8.029
 5462SOL    HW235074   2.063   4.970   7.928
 5463SOL     OW35075   8.763   9.047   1.383
 5463SOL    HW135076   8.764   9.128   1.325
 5463SOL    HW235077   8.838   9.052   1.449
 5464SOL     OW35078   0.952   6.152   7.815
 5464SOL    HW135079   0.997   6.233   7.777
 5464SOL    HW235080   0.967   6.074   7.754
 5465SOL     OW35081   5.705   6.395   1.126
 5465SOL    HW135082   5.668   6.482   1.159
 5465SOL    HW235083   5.719   6.334   1.204
 5466SOL     OW35084   6.124   0.416   0.821
 5466SOL    HW135085   6.043   0.359   0.836
 5466SOL    HW235086   6.206   0.360   0.832
 5467SOL     OW35087   4.089   8.524   7.514
 5467SOL    HW135088   4.182   8.522   7.550
 5467SOL    HW235089   4.092   8.502   7.416
 5468SOL     OW35090   6.294   3.401   7.954
 5468SOL    HW135091   6.289   3.440   7.862
 5468SOL    HW235092   6.319   3.472   8.020
 5469SOL     OW35093   3.704   4.264   6.640
 5469SOL    HW135094   3.793   4.225   6.617
 5469SOL    HW235095   3.711   4.317   6.724
 5470SOL     OW35096   8.470   6.490   7.575
 5470SOL    HW135097   8.526   6.532   7.646
 5470SOL    HW235098   8.386   6.454   7.614
 5471SOL     OW35099   6.597   7.418   0.642
 5471SOL    HW135100   6.551   7.363   0.712
 5471SOL    HW235101   6.651   7.489   0.685
 5472SOL     OW35102   7.417   8.129   0.388
 5472SOL    HW135103   7.500   8.171   0.353
 5472SOL    HW235104   7.372   8.078   0.315
 5473SOL     OW35105   9.624   6.704   8.588
 5473SOL    HW135106   9.539   6.654   8.570
 5473SOL    HW235107   9.624   6.738   8.682
 5474SOL     OW35108   0.587   4.374   7.946
 5474SOL    HW135109   0.584   4.412   7.853
 5474SOL    HW235110   0.560   4.445   8.011
 5475SOL     OW35111   9.301   5.066   0.504
 5475SOL    HW135112   9.339   5.092   0.593
 5475SOL    HW235113   9.363   5.096   0.431
 5476SOL     OW35114   0.909   1.405   8.610
 5476SOL    HW135115   0.928   1.475   8.680
 5476SOL    HW235116   0.975   1.413   8.536
 5477SOL     OW35117   5.443   9.936   0.926
 5477SOL    HW135118   5.531   9.951   0.881
 5477SOL    HW235119   5.442   9.985   1.014
 5478SOL     OW35120   7.636   4.132   7.982
 5478SOL    HW135121   7.659   4.229   7.974
 5478SOL    HW235122   7.687   4.080   7.913
 5479SOL     OW35123   3.911   9.513   0.065
 5479SOL    HW135124   3.943   9.420   0.085
 5479SOL    HW235125   3.962   9.549   8.769
 5480SOL     OW35126  10.032  10.444   0.885
 5480SOL    HW135127  10.105  10.487   0.938
 5480SOL    HW235128   9.995   0.008   0.820
 5481SOL     OW35129   8.991   2.232   7.351
 5481SOL    HW135130   9.044   2.316   7.344
 5481SOL    HW235131   8.897   2.250   7.321
 5482SOL     OW35132   6.272   9.159   1.503
 5482SOL    HW135133   6.325   9.087   1.458
 5482SOL    HW235134   6.333   9.235   1.528
 5483SOL     OW35135   5.592   2.842   1.007
 5483SOL    HW135136   5.684   2.882   1.012
 5483SOL    HW235137   5.578   2.805   0.915
 5484SOL     OW35138   0.308   8.809   7.025
 5484SOL    HW135139   0.379   8.856   7.078
 5484SOL    HW235140   0.319   8.830   6.928
 5485SOL     OW35141   9.772   1.050   6.301
 5485SOL    HW135142   9.820   1.077   6.217
 5485SOL    HW235143   9.740   1.132   6.348
 5486SOL     OW35144   1.554   8.378   1.024
 5486SOL    HW135145   1.622   8.368   1.097
 5486SOL    HW235146   1.583   8.327   0.944
 5487SOL     OW35147   7.051   3.466   2.246
 5487SOL    HW135148   7.101   3.382   2.268
 5487SOL    HW235149   6.998   3.494   2.326
 5488SOL     OW35150   7.830   3.004   7.800
 5488SOL    HW135151   7.910   2.983   7.857
 5488SOL    HW235152   7.762   2.930   7.810
 5489SOL     OW35153   2.103   4.582   8.297
 5489SOL    HW135154   2.046   4.537   8.228
 5489SOL    HW235155   2.148   4.661   8.257
 5490SOL     OW35156   3.966   7.153   7.394
 5490SOL    HW135157   3.907   7.179   7.318
 5490SOL    HW235158   4.052   7.205   7.390
 5491SOL     OW35159  10.142   9.340   1.302
 5491SOL    HW135160   0.004   9.424   1.251
 5491SOL    HW235161  10.091   9.362   1.385
 5492SOL     OW35162   7.905   2.442   6.697
 5492SOL    HW135163   7.824   2.384   6.684
 5492SOL    HW235164   7.886   2.534   6.663
 5493SOL     OW35165   0.922   9.548   1.507
 5493SOL    HW135166   1.007   9.500   1.530
 5493SOL    HW235167   0.878   9.503   1.429
 5494SOL     OW35168   4.325   6.598   7.874
 5494SOL    HW135169   4.323   6.513   7.822
 5494SOL    HW235170   4.394   6.659   7.835
 5495SOL     OW35171   3.740   7.776   8.179
 5495SOL    HW135172   3.815   7.802   8.118
 5495SOL    HW235173   3.694   7.858   8.212
 5496SOL     OW35174   5.562   4.868   0.174
 5496SOL    HW135175   5.640   4.930   0.184
 5496SOL    HW235176   5.582   4.801   0.102
 5497SOL     OW35177   5.386   1.276   8.654
 5497SOL    HW135178   5.434   1.209   8.710
 5497SOL    HW235179   5.370   1.238   8.563
 5498SOL     OW35180   4.973   9.599   7.280
 5498SOL    HW135181   4.984   9.521   7.341
 5498SOL    HW235182   5.062   9.641   7.262
 5499SOL     OW35183   7.277   0.557   1.800
 5499SOL    HW135184   7.245   0.635   1.747
 5499SOL    HW235185   7.297   0.586   1.894
 5500SOL     OW35186   6.465   8.778   8.214
 5500SOL    HW135187   6.402   8.737   8.147
 5500SOL    HW235188   6.450   8.736   8.303
 5501SOL     OW35189   7.672   4.683   2.197
 5501SOL    HW135190   7.675   4.783   2.187
 5501SOL    HW235191   7.749   4.654   2.254
 5502SOL     OW35192   7.351   2.086   7.667
 5502SOL    HW135193   7.419   2.029   7.714
 5502SOL    HW235194   7.308   2.033   7.594
 5503SOL     OW35195   2.016   0.734   0.028
 5503SOL    HW135196   1.920   0.731   0.055
 5503SOL    HW235197   2.023   0.727   8.710
 5504SOL     OW35198   4.828   5.412   7.162
 5504SOL    HW135199   4.759   5.366   7.219
 5504SOL    HW235200   4.861   5.493   7.210
 5505SOL     OW35201   3.161   9.509   1.043
 5505SOL    HW135202   3.068   9.480   1.018
 5505SOL    HW235203   3.182   9.596   0.997
 5506SOL     OW35204   8.942   8.022   0.678
 5506SOL    HW135205   8.865   7.963   0.702
 5506SOL    HW235206   9.021   7.999   0.734
 5507SOL     OW35207   3.113   2.477   6.636
 5507SOL    HW135208   3.064   2.565   6.636
 5507SOL    HW235209   3.209   2.492   6.614
 5508SOL     OW35210   4.386   3.120   0.888
 5508SOL    HW135211   4.422   3.054   0.954
 5508SOL    HW235212   4.430   3.104   0.799
 5509SOL     OW35213   4.902  10.199   8.390
 5509SOL    HW135214   4.919  10.109   8.349
 5509SOL    HW235215   4.888  10.266   8.318
 5510SOL     OW35216   7.788   2.439   1.626
 5510SOL    HW135217   7.798   2.500   1.704
 5510SOL    HW235218   7.712   2.469   1.569
 5511SOL     OW35219   0.561   0.680   6.695
 5511SOL    HW135220   0.623   0.645   6.624
 5511SOL    HW235221   0.496   0.743   6.653
 5512SOL     OW35222   7.717   1.281   2.421
 5512SOL    HW135223   7.779   1.227   2.477
 5512SOL    HW235224   7.751   1.285   2.327
 5513SOL     OW35225   1.505   0.970   6.384
 5513SOL    HW135226   1.596   0.964   6.343
 5513SOL    HW235227   1.443   0.907   6.337
 5514SOL     OW35228   1.251   5.100   1.374
 5514SOL    HW135229   1.317   5.042   1.327
 5514SOL    HW235230   1.158   5.069   1.354
 5515SOL     OW35231   3.544   4.246   8.096
 5515SOL    HW135232   3.624   4.186   8.100
 5515SOL    HW235233   3.469   4.199   8.051
 5516SOL     OW35234   4.333   2.368   2.130
 5516SOL    HW135235   4.341   2.268   2.130
 5516SOL    HW235236   4.236   2.393   2.127
 5517SOL     OW35237   0.595  10.273   1.138
 5517SOL    HW135238   0.665  10.328   1.185
 5517SOL    HW235239   0.536  10.333   1.085
 5518SOL     OW35240   7.666   3.478   7.412
 5518SOL    HW135241   7.708   3.544   7.350
 5518SOL    HW235242   7.568   3.470   7.391
 5519SOL     OW35243   4.286   0.262   1.525
 5519SOL    HW135244   4.236   0.177   1.540
 5519SOL    HW235245   4.222   0.337   1.513
 5520SOL     OW35246   7.214   1.983   1.375
 5520SOL    HW135247   7.254   1.998   1.285
 5520SOL    HW235248   7.120   2.015   1.376
 5521SOL     OW35249   0.479   9.596   1.303
 5521SOL    HW135250   0.554   9.567   1.243
 5521SOL    HW235251   0.458   9.692   1.286
 5522SOL     OW35252   4.066   1.524   0.889
 5522SOL    HW135253   4.058   1.428   0.865
 5522SOL    HW235254   3.976   1.567   0.884
 5523SOL     OW35255   1.298   4.050   8.585
 5523SOL    HW135256   1.326   4.027   8.492
 5523SOL    HW235257   1.249   3.972   8.625
 5524SOL     OW35258   3.315   1.885   7.766
 5524SOL    HW135259   3.332   1.794   7.728
 5524SOL    HW235260   3.258   1.937   7.702
 5525SOL     OW35261   7.920   6.366   0.802
 5525SOL    HW135262   7.832   6.410   0.821
 5525SOL    HW235263   7.908   6.298   0.730
 5526SOL     OW35264   3.846   4.870   7.770
 5526SOL    HW135265   3.784   4.948   7.782
 5526SOL    HW235266   3.887   4.846   7.858
 5527SOL     OW35267   5.023   7.098   7.290
 5527SOL    HW135268   4.983   7.026   7.232
 5527SOL    HW235269   5.091   7.149   7.238
 5528SOL     OW35270   8.508  10.338   1.664
 5528SOL    HW135271   8.511  10.424   1.613
 5528SOL    HW235272   8.546  10.352   1.755
 5529SOL     OW35273   1.248   1.430   0.274
 5529SOL    HW135274   1.342   1.397   0.284
 5529SOL    HW235275   1.217   1.468   0.361
 5530SOL     OW35276   9.353   4.567   6.903
 5530SOL    HW135277   9.318   4.502   6.835
 5530SOL    HW235278   9.334   4.660   6.872
 5531SOL     OW35279   9.928   0.677   8.690
 5531SOL    HW135280   9.851   0.619   8.665
 5531SOL    HW235281   9.898   0.773   8.690
 5532SOL     OW35282   9.935   7.601   7.858
 5532SOL    HW135283  10.004   7.659   7.814
 5532SOL    HW235284   9.852   7.655   7.874
 5533SOL     OW35285   8.767   6.629   6.491
 5533SOL    HW135286   8.700   6.650   6.562
 5533SOL    HW235287   8.744   6.542   6.448
 5534SOL     OW35288   4.544   3.486   0.618
 5534SOL    HW135289   4.626   3.490   0.675
 5534SOL    HW235290   4.512   3.392   0.611
 5535SOL     OW35291   0.607   8.905   6.882
 5535SOL    HW135292   0.589   8.910   6.980
 5535SOL    HW235293   0.520   8.905   6.832
 5536SOL     OW35294   7.177   2.071   6.379
 5536SOL    HW135295   7.255   2.108   6.329
 5536SOL    HW235296   7.095   2.074   6.322
 5537SOL     OW35297   1.187   4.154   7.224
 5537SOL    HW135298   1.136   4.100   7.157
 5537SOL    HW235299   1.140   4.149   7.313
 5538SOL     OW35300   9.761   7.134   8.547
 5538SOL    HW135301   9.702   7.135   8.628
 5538SOL    HW235302   9.744   7.051   8.494
 5539SOL     OW35303   4.242   7.841   1.241
 5539SOL    HW135304   4.298   7.825   1.159
 5539SOL    HW235305   4.292   7.810   1.322
 5540SOL     OW35306   3.204   1.499   1.666
 5540SOL    HW135307   3.238   1.478   1.575
 5540SOL    HW235308   3.269   1.558   1.714
 5541SOL     OW35309   6.196   0.793   8.308
 5541SOL    HW135310   6.214   0.765   8.214
 5541SOL    HW235311   6.199   0.713   8.368
 5542SOL     OW35312   6.138   1.746   0.633
 5542SOL    HW135313   6.153   1.828   0.576
 5542SOL    HW235314   6.106   1.774   0.723
 5543SOL     OW35315   4.959   3.691   0.064
 5543SOL    HW135316   4.994   3.613   0.012
 5543SOL    HW235317   4.889   3.738   0.011
 5544SOL     OW35318   3.237   9.522   8.173
 5544SOL    HW135319   3.171   9.569   8.232
 5544SOL    HW235320   3.191   9.486   8.092
 5545SOL     OW35321   5.906   6.699   8.134
 5545SOL    HW135322   5.809   6.700   8.160
 5545SOL    HW235323   5.954   6.775   8.178
 5546SOL     OW35324   9.974   3.954   7.225
 5546SOL    HW135325   9.936   3.862   7.221
 5546SOL    HW235326   9.901   4.021   7.211
 5547SOL     OW35327   2.166   2.032   1.350
 5547SOL    HW135328   2.140   2.083   1.268
 5547SOL    HW235329   2.216   2.093   1.412
 5548SOL     OW35330   9.122   7.014   8.780
 5548SOL    HW135331   9.105   6.973   8.691
 5548SOL    HW235332   9.175   6.951   0.055
 5549SOL     OW35333   4.598   8.653   0.062
 5549SOL    HW135334   4.582   8.715   8.767
 5549SOL    HW235335   4.692   8.618   0.056
 5550SOL     OW35336   4.042   7.733   8.530
 5550SOL    HW135337   3.996   7.811   8.574
 5550SOL    HW235338   3.981   7.694   8.461
 5551SOL     OW35339   9.591   2.150   7.151
 5551SOL    HW135340   9.585   2.216   7.076
 5551SOL    HW235341   9.521   2.079   7.138
 5552SOL     OW35342   7.952   8.538   0.020
 5552SOL    HW135343   7.945   8.563   0.116
 5552SOL    HW235344   8.001   8.610   8.752
 5553SOL     OW35345   5.425  10.047   8.621
 5553SOL    HW135346   5.359  10.027   8.548
 5553SOL    HW235347   5.378  10.048   8.709
 5554SOL     OW35348   0.611   7.948   0.568
 5554SOL    HW135349   0.640   8.043   0.557
 5554SOL    HW235350   0.513   7.941   0.549
 5555SOL     OW35351   2.138   6.987   6.999
 5555SOL    HW135352   2.236   6.992   6.982
 5555SOL    HW235353   2.119   6.921   7.071
 5556SOL     OW35354   2.148   6.169   1.038
 5556SOL    HW135355   2.123   6.183   0.942
 5556SOL    HW235356   2.124   6.251   1.091
 5557SOL     OW35357   6.266   1.514   0.679
 5557SOL    HW135358   6.224   1.604   0.672
 5557SOL    HW235359   6.346   1.509   0.619
 5558SOL     OW35360   8.684   1.999   8.636
 5558SOL    HW135361   8.585   1.996   8.624
 5558SOL    HW235362   8.718   1.907   8.652
 5559SOL     OW35363   4.001   5.089   8.617
 5559SOL    HW135364   4.066   5.137   8.558
 5559SOL    HW235365   3.907   5.109   8.587
 5560SOL     OW35366   1.949   4.887   0.429
 5560SOL    HW135367   1.900   4.951   0.489
 5560SOL    HW235368   1.884   4.834   0.375
 5561SOL     OW35369   6.475   9.395   7.723
 5561SOL    HW135370   6.446   9.345   7.804
 5561SOL    HW235371   6.448   9.491   7.731
 5562SOL     OW35372   0.055   0.207   0.748
 5562SOL    HW135373   0.099   0.256   0.673
 5562SOL    HW235374  10.124   0.172   0.719
 5563SOL     OW35375  10.028   2.276   0.842
 5563SOL    HW135376   9.940   2.293   0.886
 5563SOL    HW235377  10.013   2.233   0.753
 5564SOL     OW35378   0.866   7.766   0.210
 5564SOL    HW135379   0.828   7.743   0.300
 5564SOL    HW235380   0.957   7.806   0.221
 5565SOL     OW35381   7.926   4.427   0.781
 5565SOL    HW135382   7.843   4.425   0.837
 5565SOL    HW235383   7.901   4.445   0.686
 5566SOL     OW35384   0.888   0.512   0.570
 5566SOL    HW135385   0.950   0.590   0.558
 5566SOL    HW235386   0.874   0.468   0.481
 5567SOL     OW35387   4.486   0.066   0.037
 5567SOL    HW135388   4.390   0.055   0.010
 5567SOL    HW235389   4.492   0.070   0.137
 5568SOL     OW35390   2.873   7.634   7.593
 5568SOL    HW135391   2.951   7.696   7.603
 5568SOL    HW235392   2.898   7.544   7.629
 5569SOL     OW35393   9.857   0.059   1.259
 5569SOL    HW135394   9.936   0.108   1.222
 5569SOL    HW235395   9.790   0.125   1.294
 5570SOL     OW35396   6.141   4.917   7.445
 5570SOL    HW135397   6.096   4.845   7.497
 5570SOL    HW235398   6.074   4.986   7.418
 5571SOL     OW35399   1.539   9.398   7.977
 5571SOL    HW135400   1.623   9.343   7.982
 5571SOL    HW235401   1.518   9.436   8.067
 5572SOL     OW35402   0.763   1.258   8.036
 5572SOL    HW135403   0.719   1.317   7.969
 5572SOL    HW235404   0.780   1.311   8.120
 5573SOL     OW35405   9.307   0.590   6.343
 5573SOL    HW135406   9.355   0.662   6.294
 5573SOL    HW235407   9.218   0.573   6.300
 5574SOL     OW35408   5.086   9.018   6.656
 5574SOL    HW135409   5.118   9.111   6.642
 5574SOL    HW235410   4.986   9.018   6.667
 5575SOL     OW35411   0.572   2.326   1.062
 5575SOL    HW135412   0.618   2.409   1.093
 5575SOL    HW235413   0.631   2.246   1.081
 5576SOL     OW35414   5.124   5.965   8.078
 5576SOL    HW135415   5.143   5.880   8.127
 5576SOL    HW235416   5.110   5.945   7.981
 5577SOL     OW35417   1.388   7.794   1.585
 5577SOL    HW135418   1.396   7.725   1.657
 5577SOL    HW235419   1.467   7.788   1.524
 5578SOL     OW35420   1.268   0.617   8.070
 5578SOL    HW135421   1.259   0.711   8.103
 5578SOL    HW235422   1.358   0.606   8.026
 5579SOL     OW35423   4.578   3.557   0.984
 5579SOL    HW135424   4.492   3.599   0.954
 5579SOL    HW235425   4.623   3.616   1.051
 5580SOL     OW35426   3.903   4.514   8.009
 5580SOL    HW135427   3.956   4.552   7.933
 5580SOL    HW235428   3.893   4.585   8.080
 5581SOL     OW35429   5.671   4.955   7.056
 5581SOL    HW135430   5.688   5.054   7.053
 5581SOL    HW235431   5.577   4.938   7.084
 5582SOL     OW35432   0.384   8.754   0.702
 5582SOL    HW135433   0.398   8.693   0.624
 5582SOL    HW235434   0.296   8.800   0.692
 5583SOL     OW35435   3.404   5.777   6.812
 5583SOL    HW135436   3.503   5.784   6.800
 5583SOL    HW235437   3.373   5.686   6.782
 5584SOL     OW35438   4.200   2.055   6.827
 5584SOL    HW135439   4.102   2.039   6.838
 5584SOL    HW235440   4.217   2.099   6.738
 5585SOL     OW35441   1.841   2.839   6.874
 5585SOL    HW135442   1.854   2.867   6.779
 5585SOL    HW235443   1.743   2.823   6.891
 5586SOL     OW35444   1.790   2.521   1.344
 5586SOL    HW135445   1.876   2.480   1.312
 5586SOL    HW235446   1.724   2.448   1.365
 5587SOL     OW35447   7.790   4.394   0.268
 5587SOL    HW135448   7.716   4.335   0.235
 5587SOL    HW235449   7.873   4.376   0.215
 5588SOL     OW35450   9.718   8.975   7.542
 5588SOL    HW135451   9.736   9.061   7.495
 5588SOL    HW235452   9.768   8.972   7.628
 5589SOL     OW35453   0.412   9.742   6.679
 5589SOL    HW135454   0.337   9.759   6.742
 5589SOL    HW235455   0.382   9.759   6.585
 5590SOL     OW35456   0.534   6.610   1.442
 5590SOL    HW135457   0.525   6.650   1.351
 5590SOL    HW235458   0.611   6.653   1.490
 5591SOL     OW35459   0.452   1.647   8.514
 5591SOL    HW135460   0.492   1.626   8.603
 5591SOL    HW235461   0.383   1.719   8.524
 5592SOL     OW35462   1.829   3.792   7.638
 5592SOL    HW135463   1.792   3.742   7.716
 5592SOL    HW235464   1.853   3.884   7.666
 5593SOL     OW35465   1.262   2.687   6.115
 5593SOL    HW135466   1.244   2.608   6.056
 5593SOL    HW235467   1.298   2.763   6.059
 5594SOL     OW35468   8.268   5.770   1.513
 5594SOL    HW135469   8.197   5.700   1.526
 5594SOL    HW235470   8.226   5.857   1.491
 5595SOL     OW35471   5.671   7.324   6.909
 5595SOL    HW135472   5.582   7.343   6.869
 5595SOL    HW235473   5.661   7.261   6.986
 5596SOL     OW35474   3.746   2.419   8.405
 5596SOL    HW135475   3.714   2.358   8.478
 5596SOL    HW235476   3.845   2.435   8.417
 5597SOL     OW35477   3.025   7.800   7.908
 5597SOL    HW135478   3.066   7.788   7.818
 5597SOL    HW235479   3.057   7.727   7.969
 5598SOL     OW35480   6.169   1.656   1.091
 5598SOL    HW135481   6.233   1.712   1.143
 5598SOL    HW235482   6.207   1.564   1.079
 5599SOL     OW35483  10.001   9.790   0.891
 5599SOL    HW135484   9.923   9.757   0.944
 5599SOL    HW235485   9.988   9.886   0.869
 5600SOL     OW35486   2.632   9.520   8.781
 5600SOL    HW135487   2.560   9.451   0.005
 5600SOL    HW235488   2.661   9.531   8.686
 5601SOL     OW35489   3.803   0.152   0.044
 5601SOL    HW135490   3.747   0.154   8.744
 5601SOL    HW235491   3.879   0.217   0.034
 5602SOL     OW35492   0.765   6.074   7.389
 5602SOL    HW135493   0.716   6.040   7.469
 5602SOL    HW235494   0.779   6.173   7.398
 5603SOL     OW35495   4.462   0.520   1.071
 5603SOL    HW135496   4.379   0.465   1.073
 5603SOL    HW235497   4.495   0.535   1.165
 5604SOL     OW35498  10.157   2.918   8.603
 5604SOL    HW135499   0.049   2.946   8.684
 5604SOL    HW235500   0.056   2.855   8.549
 5605SOL     OW35501   7.299   5.886   7.485
 5605SOL    HW135502   7.201   5.893   7.463
 5605SOL    HW235503   7.310   5.879   7.584
 5606SOL     OW35504   7.378   7.594   7.811
 5606SOL    HW135505   7.470   7.633   7.813
 5606SOL    HW235506   7.380   7.501   7.848
 5607SOL     OW35507   3.657   5.641   1.559
 5607SOL    HW135508   3.610   5.636   1.647
 5607SOL    HW235509   3.681   5.549   1.529
 5608SOL     OW35510   2.914   2.293   6.550
 5608SOL    HW135511   3.006   2.324   6.571
 5608SOL    HW235512   2.919   2.203   6.506
 5609SOL     OW35513   1.441   5.402   0.242
 5609SOL    HW135514   1.490   5.475   0.194
 5609SOL    HW235515   1.506   5.329   0.266
 5610SOL     OW35516   9.955   8.794   1.469
 5610SOL    HW135517  10.004   8.865   1.418
 5610SOL    HW235518  10.009   8.710   1.470
 5611SOL     OW35519   8.271   3.662   1.886
 5611SOL    HW135520   8.312   3.689   1.973
 5611SOL    HW235521   8.183   3.618   1.904
 5612SOL     OW35522   1.859   9.486   0.247
 5612SOL    HW135523   1.953   9.512   0.228
 5612SOL    HW235524   1.824   9.430   0.172
 5613SOL     OW35525   1.544   7.139   0.656
 5613SOL    HW135526   1.623   7.199   0.675
 5613SOL    HW235527   1.563   7.083   0.576
 5614SOL     OW35528   5.129   3.284   8.527
 5614SOL    HW135529   5.070   3.294   8.446
 5614SOL    HW235530   5.134   3.188   8.553
 5615SOL     OW35531   2.931   7.287   0.590
 5615SOL    HW135532   2.944   7.252   0.683
 5615SOL    HW235533   2.951   7.385   0.588
 5616SOL     OW35534   4.469   6.157   7.363
 5616SOL    HW135535   4.421   6.240   7.391
 5616SOL    HW235536   4.402   6.089   7.332
 5617SOL     OW35537   6.245   3.017   8.625
 5617SOL    HW135538   6.294   3.044   8.708
 5617SOL    HW235539   6.304   2.957   8.570
 5618SOL     OW35540   0.568  10.376   6.679
 5618SOL    HW135541   0.569  10.277   6.691
 5618SOL    HW235542   0.474  10.409   6.684
 5619SOL     OW35543   1.703   7.792   2.089
 5619SOL    HW135544   1.701   7.725   2.163
 5619SOL    HW235545   1.623   7.851   2.095
 5620SOL     OW35546   2.963   3.482   0.332
 5620SOL    HW135547   2.916   3.561   0.372
 5620SOL    HW235548   3.062   3.493   0.344
 5621SOL     OW35549   8.848   5.096   1.561
 5621SOL    HW135550   8.749   5.093   1.545
 5621SOL    HW235551   8.890   5.013   1.523
 5622SOL     OW35552   7.066   5.602   6.746
 5622SOL    HW135553   7.033   5.518   6.704
 5622SOL    HW235554   7.093   5.667   6.675
 5623SOL     OW35555   1.803   6.117   1.399
 5623SOL    HW135556   1.855   6.200   1.381
 5623SOL    HW235557   1.712   6.140   1.431
 5624SOL     OW35558   5.344   7.056   7.508
 5624SOL    HW135559   5.246   7.050   7.530
 5624SOL    HW235560   5.386   6.966   7.523
 5625SOL     OW35561   7.888   4.369   7.064
 5625SOL    HW135562   7.799   4.414   7.069
 5625SOL    HW235563   7.960   4.435   7.086
 5626SOL     OW35564   0.692   5.474   6.143
 5626SOL    HW135565   0.658   5.438   6.056
 5626SOL    HW235566   0.622   5.461   6.214
 5627SOL     OW35567   2.076   9.571   8.309
 5627SOL    HW135568   1.997   9.630   8.290
 5627SOL    HW235569   2.158   9.611   8.267
 5628SOL     OW35570   1.865   9.671   8.017
 5628SOL    HW135571   1.929   9.600   7.989
 5628SOL    HW235572   1.784   9.668   7.959
 5629SOL     OW35573   3.164   8.560   0.198
 5629SOL    HW135574   3.223   8.614   0.259
 5629SOL    HW235575   3.199   8.467   0.190
 5630SOL     OW35576   8.217   2.376   7.068
 5630SOL    HW135577   8.134   2.363   7.013
 5630SOL    HW235578   8.218   2.468   7.106
 5631SOL     OW35579   3.988   3.951   2.165
 5631SOL    HW135580   3.928   3.969   2.087
 5631SOL    HW235581   3.956   4.004   2.244
 5632SOL     OW35582   5.853   4.541   0.454
 5632SOL    HW135583   5.756   4.534   0.430
 5632SOL    HW235584   5.909   4.521   0.374
 5633SOL     OW35585   7.363  10.069   8.210
 5633SOL    HW135586   7.293  10.083   8.280
 5633SOL    HW235587   7.334   9.996   8.148
 5634SOL     OW35588   3.276   9.010   1.659
 5634SOL    HW135589   3.363   9.054   1.679
 5634SOL    HW235590   3.204   9.047   1.717
 5635SOL     OW35591   4.907   1.205   8.031
 5635SOL    HW135592   4.924   1.117   7.985
 5635SOL    HW235593   4.889   1.190   8.128
 5636SOL     OW35594   7.879   5.956   6.768
 5636SOL    HW135595   7.885   5.997   6.678
 5636SOL    HW235596   7.840   5.864   6.761
 5637SOL     OW35597   4.319   4.268   7.311
 5637SOL    HW135598   4.314   4.168   7.306
 5637SOL    HW235599   4.392   4.294   7.375
 5638SOL     OW35600   4.730   2.687   1.044
 5638SOL    HW135601   4.668   2.731   0.979
 5638SOL    HW235602   4.679   2.623   1.101
 5639SOL     OW35603   3.241   4.106   0.711
 5639SOL    HW135604   3.160   4.079   0.659
 5639SOL    HW235605   3.289   4.178   0.661
 5640SOL     OW35606   5.914   2.435   0.405
 5640SOL    HW135607   5.816   2.439   0.424
 5640SOL    HW235608   5.933   2.477   0.316
 5641SOL     OW35609   7.065   3.520   1.715
 5641SOL    HW135610   7.099   3.428   1.735
 5641SOL    HW235611   7.002   3.516   1.637
 5642SOL     OW35612   0.248   8.351   7.087
 5642SOL    HW135613   0.213   8.280   7.148
 5642SOL    HW235614   0.199   8.347   7.000
 5643SOL     OW35615   5.606   5.255   7.468
 5643SOL    HW135616   5.656   5.181   7.513
 5643SOL    HW235617   5.663   5.336   7.462
 5644SOL     OW35618   1.346   4.919   6.992
 5644SOL    HW135619   1.358   4.932   7.090
 5644SOL    HW235620   1.404   4.843   6.961
 5645SOL     OW35621   7.807   0.436   1.656
 5645SOL    HW135622   7.735   0.401   1.596
 5645SOL    HW235623   7.865   0.360   1.685
 5646SOL     OW35624   4.874   3.558   8.195
 5646SOL    HW135625   4.797   3.611   8.159
 5646SOL    HW235626   4.938   3.537   8.121
 5647SOL     OW35627   2.572   2.065   7.989
 5647SOL    HW135628   2.587   1.974   8.028
 5647SOL    HW235629   2.576   2.059   7.889
 5648SOL     OW35630   3.666   3.638   1.019
 5648SOL    HW135631   3.668   3.542   1.046
 5648SOL    HW235632   3.706   3.647   0.927
 5649SOL     OW35633   6.107   2.195   1.305
 5649SOL    HW135634   6.069   2.207   1.213
 5649SOL    HW235635   6.177   2.264   1.322
 5650SOL     OW35636   1.519   9.897   2.260
 5650SOL    HW135637   1.574   9.886   2.178
 5650SOL    HW235638   1.468   9.983   2.254
 5651SOL     OW35639   4.405   6.514   8.124
 5651SOL    HW135640   4.368   6.550   8.038
 5651SOL    HW235641   4.491   6.561   8.146
 5652SOL     OW35642   4.019   0.332   0.905
 5652SOL    HW135643   3.920   0.327   0.923
 5652SOL    HW235644   4.049   0.248   0.860
 5653SOL     OW35645   5.425   4.091   8.635
 5653SOL    HW135646   5.425   3.998   8.600
 5653SOL    HW235647   5.463   4.093   8.728
 5654SOL     OW35648   0.798   5.497   1.618
 5654SOL    HW135649   0.826   5.581   1.572
 5654SOL    HW235650   0.819   5.418   1.560
 5655SOL     OW35651   8.621   4.064   0.943
 5655SOL    HW135652   8.669   4.006   1.008
 5655SOL    HW235653   8.682   4.085   0.866
 5656SOL     OW35654   4.554   8.960   0.811
 5656SOL    HW135655   4.583   8.923   0.899
 5656SOL    HW235656   4.518   8.886   0.753
 5657SOL     OW35657   6.781   6.744   7.627
 5657SOL    HW135658   6.795   6.746   7.528
 5657SOL    HW235659   6.853   6.690   7.669
 5658SOL     OW35660   3.447   2.116   0.540
 5658SOL    HW135661   3.481   2.042   0.598
 5658SOL    HW235662   3.436   2.081   0.446
 5659SOL     OW35663   8.038   0.896   8.338
 5659SOL    HW135664   8.097   0.864   8.264
 5659SOL    HW235665   8.059   0.992   8.359
 5660SOL     OW35666   6.457   7.792   0.418
 5660SOL    HW135667   6.557   7.795   0.426
 5660SOL    HW235668   6.426   7.867   0.360
 5661SOL     OW35669   1.922   9.163   8.600
 5661SOL    HW135670   1.865   9.084   8.578
 5661SOL    HW235671   1.981   9.141   8.678
 5662SOL     OW35672   7.382  10.436   0.498
 5662SOL    HW135673   7.374  10.336   0.504
 5662SOL    HW235674   7.478  10.461   0.486
 5663SOL     OW35675   6.219   1.036   1.612
 5663SOL    HW135676   6.318   1.043   1.601
 5663SOL    HW235677   6.197   0.958   1.670
 5664SOL     OW35678   3.778   9.408   8.310
 5664SOL    HW135679   3.743   9.386   8.401
 5664SOL    HW235680   3.878   9.399   8.310
 5665SOL     OW35681   3.178   3.052   6.682
 5665SOL    HW135682   3.228   3.027   6.599
 5665SOL    HW235683   3.080   3.053   6.662
 5666SOL     OW35684   2.953   3.729   1.164
 5666SOL    HW135685   2.882   3.662   1.141
 5666SOL    HW235686   2.930   3.773   1.251
 5667SOL     OW35687   7.888   1.715   2.515
 5667SOL    HW135688   7.968   1.697   2.572
 5667SOL    HW235689   7.891   1.808   2.479
 5668SOL     OW35690   0.884   4.577   7.518
 5668SOL    HW135691   0.961   4.583   7.581
 5668SOL    HW235692   0.864   4.480   7.500
 5669SOL     OW35693   7.963   7.972   8.540
 5669SOL    HW135694   8.056   8.007   8.553
 5669SOL    HW235695   7.966   7.882   8.498
 5670SOL     OW35696   9.830   8.115   1.226
 5670SOL    HW135697   9.757   8.047   1.223
 5670SOL    HW235698   9.884   8.109   1.142
 5671SOL     OW35699   2.589   2.005   0.133
 5671SOL    HW135700   2.580   1.917   0.178
 5671SOL    HW235701   2.501   2.052   0.130
 5672SOL     OW35702   3.119   8.299   1.644
 5672SOL    HW135703   3.054   8.357   1.693
 5672SOL    HW235704   3.124   8.328   1.549
 5673SOL     OW35705   6.204   4.618   0.351
 5673SOL    HW135706   6.288   4.624   0.296
 5673SOL    HW235707   6.131   4.579   0.295
 5674SOL     OW35708   0.359   8.555   7.468
 5674SOL    HW135709   0.362   8.553   7.368
 5674SOL    HW235710   0.395   8.469   7.504
 5675SOL     OW35711   2.126   2.122   1.718
 5675SOL    HW135712   2.214   2.097   1.757
 5675SOL    HW235713   2.075   2.039   1.694
 5676SOL     OW35714   8.862   2.063   1.569
 5676SOL    HW135715   8.787   1.998   1.575
 5676SOL    HW235716   8.884   2.098   1.660
 5677SOL     OW35717   6.559   4.396   7.260
 5677SOL    HW135718   6.489   4.443   7.207
 5677SOL    HW235719   6.561   4.300   7.235
 5678SOL     OW35720   5.874   3.788   0.320
 5678SOL    HW135721   5.823   3.810   0.403
 5678SOL    HW235722   5.911   3.695   0.327
 5679SOL     OW35723   0.392   8.381   1.278
 5679SOL    HW135724   0.432   8.454   1.333
 5679SOL    HW235725   0.339   8.420   1.203
 5680SOL     OW35726   2.295   8.020   1.786
 5680SOL    HW135727   2.265   7.979   1.872
 5680SOL    HW235728   2.361   8.092   1.805
 5681SOL     OW35729   0.998   5.932   7.663
 5681SOL    HW135730   0.921   5.869   7.663
 5681SOL    HW235731   1.081   5.883   7.638
 5682SOL     OW35732   7.177   7.430   1.377
 5682SOL    HW135733   7.186   7.425   1.477
 5682SOL    HW235734   7.093   7.384   1.349
 5683SOL     OW35735   4.220   6.986   0.547
 5683SOL    HW135736   4.254   6.968   0.454
 5683SOL    HW235737   4.244   7.080   0.573
 5684SOL     OW35738   9.261  10.302   7.843
 5684SOL    HW135739   9.248  10.300   7.744
 5684SOL    HW235740   9.242  10.212   7.881
 5685SOL     OW35741   7.111  10.240   7.426
 5685SOL    HW135742   7.091  10.259   7.522
 5685SOL    HW235743   7.026  10.233   7.374
 5686SOL     OW35744   1.578   8.128   6.995
 5686SOL    HW135745   1.593   8.155   7.091
 5686SOL    HW235746   1.568   8.028   6.990
 5687SOL     OW35747   7.574   3.799   7.290
 5687SOL    HW135748   7.497   3.779   7.351
 5687SOL    HW235749   7.547   3.781   7.195
 5688SOL     OW35750   8.783   4.694   0.755
 5688SOL    HW135751   8.866   4.749   0.749
 5688SOL    HW235752   8.704   4.749   0.729
 5689SOL     OW35753   4.015   3.432   7.077
 5689SOL    HW135754   4.096   3.490   7.067
 5689SOL    HW235755   3.933   3.486   7.058
 5690SOL     OW35756   5.457   3.698   0.321
 5690SOL    HW135757   5.507   3.648   0.392
 5690SOL    HW235758   5.516   3.769   0.283
 5691SOL     OW35759   2.678   8.062   6.975
 5691SOL    HW135760   2.583   8.089   6.963
 5691SOL    HW235761   2.694   7.975   6.929
 5692SOL     OW35762   5.385   5.741   1.822
 5692SOL    HW135763   5.376   5.813   1.753
 5692SOL    HW235764   5.462   5.761   1.881
 5693SOL     OW35765   7.366   3.176   1.935
 5693SOL    HW135766   7.393   3.103   1.999
 5693SOL    HW235767   7.384   3.265   1.976
 5694SOL     OW35768   1.358   6.908   7.752
 5694SOL    HW135769   1.307   6.875   7.831
 5694SOL    HW235770   1.435   6.963   7.782
 5695SOL     OW35771   7.746   3.987   7.766
 5695SOL    HW135772   7.825   4.046   7.759
 5695SOL    HW235773   7.773   3.892   7.746
 5696SOL     OW35774   4.303   1.642   0.541
 5696SOL    HW135775   4.388   1.693   0.550
 5696SOL    HW235776   4.322   1.544   0.551
 5697SOL     OW35777   9.631   4.140   0.450
 5697SOL    HW135778   9.681   4.080   0.512
 5697SOL    HW235779   9.673   4.137   0.359
 5698SOL     OW35780   2.662   4.897   1.610
 5698SOL    HW135781   2.731   4.969   1.599
 5698SOL    HW235782   2.592   4.908   1.540
 5699SOL     OW35783   7.431   5.184   8.314
 5699SOL    HW135784   7.463   5.278   8.322
 5699SOL    HW235785   7.363   5.165   8.385
 5700SOL     OW35786   3.183   6.202   0.044
 5700SOL    HW135787   3.167   6.262   0.122
 5700SOL    HW235788   3.274   6.162   0.050
 5701SOL     OW35789   7.478   9.421   0.306
 5701SOL    HW135790   7.464   9.520   0.308
 5701SOL    HW235791   7.480   9.385   0.399
 5702SOL     OW35792   8.972   9.776   7.410
 5702SOL    HW135793   8.904   9.741   7.474
 5702SOL    HW235794   8.946   9.752   7.317
 5703SOL     OW35795   9.507  10.322   7.977
 5703SOL    HW135796   9.541  10.416   7.966
 5703SOL    HW235797   9.416  10.315   7.937
 5704SOL     OW35798   1.880   5.356   8.349
 5704SOL    HW135799   1.948   5.341   8.277
 5704SOL    HW235800   1.862   5.454   8.358
 5705SOL     OW35801   1.351   2.909   0.862
 5705SOL    HW135802   1.272   2.848   0.855
 5705SOL    HW235803   1.431   2.857   0.892
 5706SOL     OW35804   0.391   9.397   0.374
 5706SOL    HW135805   0.450   9.375   0.297
 5706SOL    HW235806   0.353   9.489   0.361
 5707SOL     OW35807   8.369   6.823   0.117
 5707SOL    HW135808   8.281   6.869   0.121
 5707SOL    HW235809   8.442   6.890   0.106
 5708SOL     OW35810   1.770   1.157   0.276
 5708SOL    HW135811   1.795   1.152   0.372
 5708SOL    HW235812   1.678   1.119   0.264
 5709SOL     OW35813   2.939   5.112   8.619
 5709SOL    HW135814   3.030   5.072   8.605
 5709SOL    HW235815   2.870   5.040   8.613
 5710SOL     OW35816   6.919   9.776   7.425
 5710SOL    HW135817   6.994   9.732   7.475
 5710SOL    HW235818   6.833   9.732   7.450
 5711SOL     OW35819   3.053   7.947   0.381
 5711SOL    HW135820   3.034   7.903   0.293
 5711SOL    HW235821   3.070   8.045   0.365
 5712SOL     OW35822   4.824   4.568   1.746
 5712SOL    HW135823   4.757   4.642   1.740
 5712SOL    HW235824   4.878   4.564   1.662
 5713SOL     OW35825   9.050   5.458   0.917
 5713SOL    HW135826   9.093   5.498   0.998
 5713SOL    HW235827   9.001   5.375   0.942
 5714SOL     OW35828   3.313   1.122   2.130
 5714SOL    HW135829   3.369   1.136   2.048
 5714SOL    HW235830   3.299   1.024   2.143
 5715SOL     OW35831   7.422   1.436   7.044
 5715SOL    HW135832   7.413   1.503   6.970
 5715SOL    HW235833   7.444   1.347   7.005
 5716SOL     OW35834   2.896   4.246   7.270
 5716SOL    HW135835   2.892   4.229   7.172
 5716SOL    HW235836   2.821   4.198   7.316
 5717SOL     OW35837   8.324   7.993   8.188
 5717SOL    HW135838   8.379   7.922   8.232
 5717SOL    HW235839   8.230   7.961   8.177
 5718SOL     OW35840   7.596   3.783   6.651
 5718SOL    HW135841   7.550   3.821   6.571
 5718SOL    HW235842   7.637   3.695   6.627
 5719SOL     OW35843   6.953   0.592   1.672
 5719SOL    HW135844   7.028   0.658   1.678
 5719SOL    HW235845   6.986   0.509   1.627
 5720SOL     OW35846   2.324   3.400   8.153
 5720SOL    HW135847   2.336   3.449   8.066
 5720SOL    HW235848   2.407   3.408   8.207
 5721SOL     OW35849   6.206  10.208   1.209
 5721SOL    HW135850   6.202  10.302   1.174
 5721SOL    HW235851   6.282  10.199   1.273
 5722SOL     OW35852   1.916   4.128   1.783
 5722SOL    HW135853   1.863   4.045   1.766
 5722SOL    HW235854   1.973   4.115   1.864
 5723SOL     OW35855   8.146   9.928   1.050
 5723SOL    HW135856   8.184   9.838   1.072
 5723SOL    HW235857   8.186   9.997   1.111
 5724SOL     OW35858   2.358   6.005   1.107
 5724SOL    HW135859   2.352   5.913   1.068
 5724SOL    HW235860   2.277   6.058   1.081
 5725SOL     OW35861   5.860   3.734   7.980
 5725SOL    HW135862   5.959   3.737   7.997
 5725SOL    HW235863   5.844   3.703   7.886
 5726SOL     OW35864   5.195   6.206   1.728
 5726SOL    HW135865   5.283   6.230   1.687
 5726SOL    HW235866   5.205   6.203   1.827
 5727SOL     OW35867   4.264   1.136   7.902
 5727SOL    HW135868   4.262   1.039   7.926
 5727SOL    HW235869   4.332   1.151   7.831
 5728SOL     OW35870   5.832   7.301   1.410
 5728SOL    HW135871   5.888   7.383   1.424
 5728SOL    HW235872   5.771   7.315   1.332
 5729SOL     OW35873   2.307  10.006   7.015
 5729SOL    HW135874   2.398  10.046   7.005
 5729SOL    HW235875   2.303   9.919   6.966
 5730SOL     OW35876   8.614   3.566   0.285
 5730SOL    HW135877   8.550   3.565   0.362
 5730SOL    HW235878   8.565   3.537   0.202
 5731SOL     OW35879   6.648   9.161   7.334
 5731SOL    HW135880   6.589   9.228   7.379
 5731SOL    HW235881   6.740   9.165   7.374
 5732SOL     OW35882   0.424   2.959   8.423
 5732SOL    HW135883   0.457   3.019   8.496
 5732SOL    HW235884   0.402   2.869   8.461
 5733SOL     OW35885   9.826   0.905   6.851
 5733SOL    HW135886   9.765   0.908   6.929
 5733SOL    HW235887   9.814   0.988   6.796
 5734SOL     OW35888   1.155   3.068   0.211
 5734SOL    HW135889   1.095   3.143   0.237
 5734SOL    HW235890   1.161   3.063   0.111
 5735SOL     OW35891   7.078   5.630   8.582
 5735SOL    HW135892   7.087   5.721   8.541
 5735SOL    HW235893   7.168   5.591   8.598
 5736SOL     OW35894   2.261   8.206   8.651
 5736SOL    HW135895   2.347   8.176   8.692
 5736SOL    HW235896   2.260   8.305   8.645
 5737SOL     OW35897   2.135   6.454   7.723
 5737SOL    HW135898   2.234   6.438   7.726
 5737SOL    HW235899   2.088   6.367   7.707
 5738SOL     OW35900   4.514   1.509   8.712
 5738SOL    HW135901   4.515   1.590   8.653
 5738SOL    HW235902   4.605   1.494   8.750
 5739SOL     OW35903   8.040   3.529   1.946
 5739SOL    HW135904   7.993   3.509   2.032
 5739SOL    HW235905   8.051   3.444   1.894
 5740SOL     OW35906   2.130   5.889   2.231
 5740SOL    HW135907   2.035   5.877   2.201
 5740SOL    HW235908   2.157   5.813   2.291
 5741SOL     OW35909   4.238   7.192   8.706
 5741SOL    HW135910   4.191   7.244   8.776
 5741SOL    HW235911   4.279   7.255   8.639
 5742SOL     OW35912   4.521   2.492   7.305
 5742SOL    HW135913   4.458   2.570   7.297
 5742SOL    HW235914   4.475   2.409   7.272
 5743SOL     OW35915   6.315   2.346   2.010
 5743SOL    HW135916   6.358   2.341   2.100
 5743SOL    HW235917   6.285   2.440   1.993
 5744SOL     OW35918   4.751   8.759   7.513
 5744SOL    HW135919   4.719   8.749   7.419
 5744SOL    HW235920   4.851   8.757   7.515
 5745SOL     OW35921   9.984   5.895   8.628
 5745SOL    HW135922   9.890   5.913   8.600
 5745SOL    HW235923   9.998   5.797   8.638
 5746SOL     OW35924   5.817   4.973   0.726
 5746SOL    HW135925   5.866   4.965   0.813
 5746SOL    HW235926   5.731   5.022   0.740
 5747SOL     OW35927   8.178   1.785   0.662
 5747SOL    HW135928   8.247   1.739   0.607
 5747SOL    HW235929   8.187   1.884   0.651
 5748SOL     OW35930   2.507   7.010   8.014
 5748SOL    HW135931   2.534   7.088   7.958
 5748SOL    HW235932   2.540   7.024   8.108
 5749SOL     OW35933   6.573   6.561   0.943
 5749SOL    HW135934   6.588   6.595   1.036
 5749SOL    HW235935   6.493   6.606   0.903
 5750SOL     OW35936   8.518   1.922   7.695
 5750SOL    HW135937   8.493   2.017   7.710
 5750SOL    HW235938   8.601   1.917   7.640
 5751SOL     OW35939   1.725   4.098   8.113
 5751SOL    HW135940   1.815   4.103   8.156
 5751SOL    HW235941   1.731   4.128   8.018
 5752SOL     OW35942   0.170   8.162   0.679
 5752SOL    HW135943   0.083   8.141   0.635
 5752SOL    HW235944   0.217   8.076   0.701
 5753SOL     OW35945   1.533   2.554   0.756
 5753SOL    HW135946   1.448   2.569   0.705
 5753SOL    HW235947   1.550   2.632   0.816
 5754SOL     OW35948   2.035   5.165   0.219
 5754SOL    HW135949   2.081   5.171   0.130
 5754SOL    HW235950   1.946   5.121   0.208
 5755SOL     OW35951   2.722   7.677   0.477
 5755SOL    HW135952   2.794   7.617   0.514
 5755SOL    HW235953   2.751   7.772   0.485
 5756SOL     OW35954   2.856   7.405   1.153
 5756SOL    HW135955   2.874   7.311   1.179
 5756SOL    HW235956   2.860   7.464   1.233
 5757SOL     OW35957   0.391   7.244   1.074
 5757SOL    HW135958   0.416   7.243   1.171
 5757SOL    HW235959   0.399   7.338   1.039
 5758SOL     OW35960   1.422   9.770   8.400
 5758SOL    HW135961   1.479   9.850   8.416
 5758SOL    HW235962   1.378   9.743   8.485
 5759SOL     OW35963   2.793   8.974   7.775
 5759SOL    HW135964   2.856   8.897   7.784
 5759SOL    HW235965   2.727   8.955   7.702
 5760SOL     OW35966   3.503   8.529   0.283
 5760SOL    HW135967   3.431   8.559   0.346
 5760SOL    HW235968   3.585   8.507   0.335
 5761SOL     OW35969   4.301   4.030   6.702
 5761SOL    HW135970   4.276   4.117   6.661
 5761SOL    HW235971   4.385   3.995   6.660
 5762SOL     OW35972   1.434   5.212   1.546
 5762SOL    HW135973   1.366   5.162   1.493
 5762SOL    HW235974   1.448   5.303   1.506
 5763SOL     OW35975   6.400   3.073   7.226
 5763SOL    HW135976   6.363   2.980   7.232
 5763SOL    HW235977   6.409   3.099   7.130
 5764SOL     OW35978   5.475   3.214   0.819
 5764SOL    HW135979   5.565   3.188   0.784
 5764SOL    HW235980   5.471   3.196   0.917
 5765SOL     OW35981   1.750   9.743   0.249
 5765SOL    HW135982   1.811   9.808   0.204
 5765SOL    HW235983   1.790   9.652   0.246
 5766SOL     OW35984   6.630   3.120   0.098
 5766SOL    HW135985   6.684   3.117   0.182
 5766SOL    HW235986   6.654   3.202   0.045
 5767SOL     OW35987   9.817   8.484   8.034
 5767SOL    HW135988   9.915   8.474   8.013
 5767SOL    HW235989   9.797   8.435   8.119
 5768SOL     OW35990   0.013   0.293   8.659
 5768SOL    HW135991  10.114   0.232   8.716
 5768SOL    HW235992  10.120   0.317   8.576
 5769SOL     OW35993   9.444   7.701   7.833
 5769SOL    HW135994   9.437   7.635   7.907
 5769SOL    HW235995   9.539   7.730   7.821
 5770SOL     OW35996   9.960   9.820   1.461
 5770SOL    HW135997   9.866   9.833   1.493
 5770SOL    HW235998  10.018   9.792   1.538
 5771SOL     OW35999   2.776   6.554   7.189
 5771SOL    HW136000   2.796   6.457   7.177
 5771SOL    HW236001   2.723   6.586   7.110
 5772SOL     OW36002   0.842   5.702   2.095
 5772SOL    HW136003   0.857   5.770   2.168
 5772SOL    HW236004   0.867   5.741   2.007
 5773SOL     OW36005   0.937   6.364   8.099
 5773SOL    HW136006   1.031   6.349   8.070
 5773SOL    HW236007   0.908   6.456   8.071
 5774SOL     OW36008   0.075   3.062   7.366
 5774SOL    HW136009   0.160   3.011   7.375
 5774SOL    HW236010   0.004   3.004   7.326
 5775SOL     OW36011   0.377   0.271   7.880
 5775SOL    HW136012   0.371   0.183   7.832
 5775SOL    HW236013   0.353   0.258   7.976
 5776SOL     OW36014   1.956   7.979   1.188
 5776SOL    HW136015   1.956   7.963   1.287
 5776SOL    HW236016   1.909   7.904   1.142
 5777SOL     OW36017   1.251   5.812   8.127
 5777SOL    HW136018   1.192   5.883   8.087
 5777SOL    HW236019   1.200   5.762   8.197
 5778SOL     OW36020   5.474   8.625   1.301
 5778SOL    HW136021   5.503   8.537   1.337
 5778SOL    HW236022   5.509   8.698   1.359
 5779SOL     OW36023   0.094   9.888   0.994
 5779SOL    HW136024   0.004   9.856   0.967
 5779SOL    HW236025   0.152   9.900   0.913
 5780SOL     OW36026   8.812   0.815   0.643
 5780SOL    HW136027   8.828   0.737   0.583
 5780SOL    HW236028   8.818   0.900   0.590
 5781SOL     OW36029   9.570   9.311   7.755
 5781SOL    HW136030   9.525   9.365   7.826
 5781SOL    HW236031   9.522   9.225   7.743
 5782SOL     OW36032   8.875   9.510   6.980
 5782SOL    HW136033   8.922   9.477   6.899
 5782SOL    HW236034   8.776   9.501   6.967
 5783SOL     OW36035   5.743   4.639   1.945
 5783SOL    HW136036   5.807   4.563   1.951
 5783SOL    HW236037   5.735   4.683   2.034
 5784SOL     OW36038   9.680   1.937   1.577
 5784SOL    HW136039   9.765   1.892   1.551
 5784SOL    HW236040   9.610   1.868   1.595
 5785SOL     OW36041   7.264   0.958   8.303
 5785SOL    HW136042   7.330   1.033   8.310
 5785SOL    HW236043   7.253   0.914   8.392
 5786SOL     OW36044   4.751   4.161   0.540
 5786SOL    HW136045   4.742   4.231   0.469
 5786SOL    HW236046   4.754   4.070   0.497
 5787SOL     OW36047   4.388   6.923   2.049
 5787SOL    HW136048   4.472   6.975   2.037
 5787SOL    HW236049   4.370   6.910   2.147
 5788SOL     OW36050   7.142   7.745   0.568
 5788SOL    HW136051   7.099   7.821   0.519
 5788SOL    HW236052   7.212   7.703   0.511
 5789SOL     OW36053   2.942   9.220   0.074
 5789SOL    HW136054   2.875   9.170   0.019
 5789SOL    HW236055   3.033   9.179   0.060
 5790SOL     OW36056   9.986   7.518   1.427
 5790SOL    HW136057   9.946   7.432   1.459
 5790SOL    HW236058  10.052   7.500   1.354
 5791SOL     OW36059   6.663   2.143   1.533
 5791SOL    HW136060   6.631   2.215   1.595
 5791SOL    HW236061   6.641   2.168   1.439
 5792SOL     OW36062   8.362   8.203   8.357
 5792SOL    HW136063   8.434   8.260   8.318
 5792SOL    HW236064   8.340   8.130   8.294
 5793SOL     OW36065   1.765   7.294   0.698
 5793SOL    HW136066   1.759   7.344   0.785
 5793SOL    HW236067   1.829   7.218   0.709
 5794SOL     OW36068   4.682   5.708   6.909
 5794SOL    HW136069   4.639   5.676   6.993
 5794SOL    HW236070   4.738   5.635   6.870
 5795SOL     OW36071   0.490   6.608   0.796
 5795SOL    HW136072   0.488   6.708   0.800
 5795SOL    HW236073   0.397   6.573   0.811
 5796SOL     OW36074   1.702   2.544   7.311
 5796SOL    HW136075   1.626   2.480   7.324
 5796SOL    HW236076   1.770   2.504   7.250
 5797SOL     OW36077   3.720   4.417   8.276
 5797SOL    HW136078   3.664   4.432   8.357
 5797SOL    HW236079   3.673   4.356   8.213
 5798SOL     OW36080   1.938   3.671   0.251
 5798SOL    HW136081   1.840   3.657   0.238
 5798SOL    HW236082   1.977   3.594   0.301
 5799SOL     OW36083   8.605   5.818   8.333
 5799SOL    HW136084   8.670   5.893   8.326
 5799SOL    HW236085   8.613   5.774   8.423
 5800SOL     OW36086   7.813   9.771   1.220
 5800SOL    HW136087   7.716   9.788   1.238
 5800SOL    HW236088   7.856   9.733   1.302
 5801SOL     OW36089   9.438   1.072   8.487
 5801SOL    HW136090   9.369   1.035   8.424
 5801SOL    HW236091   9.488   1.145   8.441
 5802SOL     OW36092   1.726   5.882   1.266
 5802SOL    HW136093   1.806   5.825   1.248
 5802SOL    HW236094   1.756   5.968   1.308
 5803SOL     OW36095   3.780   9.058   8.164
 5803SOL    HW136096   3.867   9.013   8.182
 5803SOL    HW236097   3.797   9.149   8.127
 5804SOL     OW36098   7.474   8.574   1.207
 5804SOL    HW136099   7.458   8.657   1.154
 5804SOL    HW236100   7.527   8.596   1.289
 5805SOL     OW36101   9.980   3.103   8.505
 5805SOL    HW136102  10.041   3.032   8.538
 5805SOL    HW236103   9.998   3.121   8.408
 5806SOL     OW36104   5.879   7.882   0.961
 5806SOL    HW136105   5.825   7.945   1.017
 5806SOL    HW236106   5.877   7.791   1.002
 5807SOL     OW36107   0.087   8.359   0.030
 5807SOL    HW136108   0.072   8.341   8.715
 5807SOL    HW236109   0.015   8.421   0.064
 5808SOL     OW36110   7.536   3.712   7.036
 5808SOL    HW136111   7.542   3.613   7.024
 5808SOL    HW236112   7.474   3.750   6.966
 5809SOL     OW36113   9.953   8.193   6.778
 5809SOL    HW136114   9.911   8.258   6.716
 5809SOL    HW236115   9.883   8.151   6.836
 5810SOL     OW36116   8.524   9.775   1.563
 5810SOL    HW136117   8.443   9.814   1.519
 5810SOL    HW236118   8.601   9.838   1.553
 5811SOL     OW36119  10.061   4.279   2.336
 5811SOL    HW136120  10.082   4.186   2.367
 5811SOL    HW236121  10.144   4.334   2.337
 5812SOL     OW36122   3.809   5.623   6.891
 5812SOL    HW136123   3.756   5.685   6.833
 5812SOL    HW236124   3.906   5.642   6.880
 5813SOL     OW36125   7.326   8.554   1.539
 5813SOL    HW136126   7.356   8.462   1.510
 5813SOL    HW236127   7.276   8.597   1.464
 5814SOL     OW36128   1.941   4.095   8.277
 5814SOL    HW136129   1.892   4.063   8.358
 5814SOL    HW236130   2.027   4.137   8.305
 5815SOL     OW36131   6.789   3.122   0.327
 5815SOL    HW136132   6.783   3.040   0.383
 5815SOL    HW236133   6.754   3.200   0.380
 5816SOL     OW36134   6.787   9.223   2.567
 5816SOL    HW136135   6.697   9.231   2.611
 5816SOL    HW236136   6.816   9.127   2.568
 5817SOL     OW36137   8.651   1.359   8.389
 5817SOL    HW136138   8.743   1.367   8.349
 5817SOL    HW236139   8.614   1.451   8.405
 5818SOL     OW36140   6.569   2.836   7.584
 5818SOL    HW136141   6.482   2.809   7.624
 5818SOL    HW236142   6.644   2.807   7.645
 5819SOL     OW36143   2.718   2.657   6.739
 5819SOL    HW136144   2.679   2.666   6.648
 5819SOL    HW236145   2.717   2.561   6.767
 5820SOL     OW36146   8.953   2.205   7.626
 5820SOL    HW136147   8.971   2.214   7.528
 5820SOL    HW236148   8.857   2.227   7.645
 5821SOL     OW36149   3.837   2.112   0.781
 5821SOL    HW136150   3.934   2.123   0.806
 5821SOL    HW236151   3.795   2.044   0.840
 5822SOL     OW36152   8.959   3.264   0.494
 5822SOL    HW136153   8.916   3.300   0.411
 5822SOL    HW236154   8.901   3.287   0.573
 5823SOL     OW36155   3.127   7.905   0.640
 5823SOL    HW136156   3.226   7.897   0.648
 5823SOL    HW236157   3.102   7.913   0.543
 5824SOL     OW36158   9.867   3.003   1.245
 5824SOL    HW136159   9.895   2.997   1.341
 5824SOL    HW236160   9.946   2.989   1.186
 5825SOL     OW36161   5.222   3.902   6.626
 5825SOL    HW136162   5.315   3.875   6.654
 5825SOL    HW236163   5.156   3.858   6.686
 5826SOL     OW36164   4.397   5.103   1.504
 5826SOL    HW136165   4.471   5.042   1.533
 5826SOL    HW236166   4.416   5.136   1.411
 5827SOL     OW36167   7.481   7.649   0.612
 5827SOL    HW136168   7.489   7.748   0.625
 5827SOL    HW236169   7.422   7.631   0.534
 5828SOL     OW36170   5.221   0.578   7.144
 5828SOL    HW136171   5.299   0.540   7.094
 5828SOL    HW236172   5.157   0.621   7.079
 5829SOL     OW36173   3.128   1.630   0.764
 5829SOL    HW136174   3.072   1.553   0.731
 5829SOL    HW236175   3.068   1.700   0.803
 5830SOL     OW36176   2.670   1.885   6.288
 5830SOL    HW136177   2.699   1.806   6.342
 5830SOL    HW236178   2.625   1.854   6.204
 5831SOL     OW36179   3.412   8.355   8.066
 5831SOL    HW136180   3.459   8.444   8.069
 5831SOL    HW236181   3.337   8.359   8.001
 5832SOL     OW36182   2.083   0.089   7.302
 5832SOL    HW136183   2.102   0.182   7.271
 5832SOL    HW236184   2.015   0.047   7.242
 5833SOL     OW36185   3.137   4.773   8.729
 5833SOL    HW136186   3.066   4.748   0.013
 5833SOL    HW236187   3.214   4.709   8.736
 5834SOL     OW36188   6.668   4.368   8.277
 5834SOL    HW136189   6.715   4.423   8.345
 5834SOL    HW236190   6.728   4.294   8.246
 5835SOL     OW36191   2.761   7.909   7.320
 5835SOL    HW136192   2.806   7.860   7.246
 5835SOL    HW236193   2.755   8.006   7.298
 5836SOL     OW36194   1.819   6.140   0.927
 5836SOL    HW136195   1.866   6.064   0.972
 5836SOL    HW236196   1.763   6.189   0.994
 5837SOL     OW36197   8.890   7.915   5.994
 5837SOL    HW136198   8.815   7.964   6.039
 5837SOL    HW236199   8.858   7.881   5.906
 5838SOL     OW36200   1.144   5.668   8.339
 5838SOL    HW136201   1.172   5.582   8.296
 5838SOL    HW236202   1.196   5.683   8.423
 5839SOL     OW36203   9.119   9.232   1.245
 5839SOL    HW136204   9.141   9.288   1.325
 5839SOL    HW236205   9.137   9.285   1.161
 5840SOL     OW36206   4.615   4.889   1.232
 5840SOL    HW136207   4.690   4.935   1.184
 5840SOL    HW236208   4.528   4.921   1.195
 5841SOL     OW36209   0.917   9.176   0.924
 5841SOL    HW136210   0.867   9.228   0.994
 5841SOL    HW236211   1.012   9.207   0.921
 5842SOL     OW36212   4.506   2.527   1.449
 5842SOL    HW136213   4.465   2.608   1.492
 5842SOL    HW236214   4.443   2.450   1.457
 5843SOL     OW36215   4.961   8.430   8.347
 5843SOL    HW136216   4.925   8.477   8.427
 5843SOL    HW236217   4.908   8.457   8.266
 5844SOL     OW36218   2.546  10.114   6.961
 5844SOL    HW136219   2.536  10.208   6.993
 5844SOL    HW236220   2.594  10.113   6.873
 5845SOL     OW36221   5.504   0.320   1.458
 5845SOL    HW136222   5.421   0.363   1.422
 5845SOL    HW236223   5.564   0.390   1.497
 5846SOL     OW36224   3.173   7.507   7.302
 5846SOL    HW136225   3.181   7.487   7.205
 5846SOL    HW236226   3.235   7.448   7.354
 5847SOL     OW36227   3.443   5.986   8.512
 5847SOL    HW136228   3.501   5.982   8.594
 5847SOL    HW236229   3.352   6.017   8.538
 5848SOL     OW36230   5.314   6.239   0.259
 5848SOL    HW136231   5.264   6.321   0.230
 5848SOL    HW236232   5.252   6.161   0.259
 5849SOL     OW36233   4.260   1.584   8.028
 5849SOL    HW136234   4.274   1.488   8.053
 5849SOL    HW236235   4.163   1.599   8.010
 5850SOL     OW36236   6.297   2.804   7.191
 5850SOL    HW136237   6.299   2.826   7.093
 5850SOL    HW236238   6.311   2.706   7.203
 5851SOL     OW36239   6.351   9.658   8.526
 5851SOL    HW136240   6.282   9.725   8.553
 5851SOL    HW236241   6.306   9.570   8.510
 5852SOL     OW36242  10.122   3.586   0.940
 5852SOL    HW136243  10.135   3.658   1.008
 5852SOL    HW236244  10.050   3.612   0.876
 5853SOL     OW36245   7.386   9.337   7.870
 5853SOL    HW136246   7.398   9.268   7.799
 5853SOL    HW236247   7.446   9.317   7.947
 5854SOL     OW36248   9.537   6.057   8.133
 5854SOL    HW136249   9.538   6.077   8.231
 5854SOL    HW236250   9.475   5.981   8.116
 5855SOL     OW36251   3.311   2.239   6.300
 5855SOL    HW136252   3.362   2.160   6.265
 5855SOL    HW236253   3.337   2.255   6.395
 5856SOL     OW36254   3.441   8.358   6.467
 5856SOL    HW136255   3.415   8.408   6.384
 5856SOL    HW236256   3.364   8.299   6.495
 5857SOL     OW36257   2.477   0.942   0.900
 5857SOL    HW136258   2.500   0.968   0.993
 5857SOL    HW236259   2.536   0.866   0.871
 5858SOL     OW36260   5.076   3.937   0.112
 5858SOL    HW136261   5.061   3.987   0.026
 5858SOL    HW236262   5.034   3.846   0.105
 5859SOL     OW36263   5.329   8.932   8.015
 5859SOL    HW136264   5.361   9.005   8.075
 5859SOL    HW236265   5.385   8.850   8.029
 5860SOL     OW36266   2.112   9.573   0.185
 5860SOL    HW136267   2.131   9.671   0.190
 5860SOL    HW236268   2.148   9.536   0.099
 5861SOL     OW36269   4.103   2.242   8.621
 5861SOL    HW136270   4.101   2.305   8.698
 5861SOL    HW236271   4.170   2.169   8.639
 5862SOL     OW36272   7.397   3.446   7.354
 5862SOL    HW136273   7.397   3.358   7.400
 5862SOL    HW236274   7.352   3.438   7.265
 5863SOL     OW36275   8.827   3.976   6.894
 5863SOL    HW136276   8.903   4.039   6.911
 5863SOL    HW236277   8.740   4.025   6.902
 5864SOL     OW36278   7.699   9.369   7.344
 5864SOL    HW136279   7.681   9.302   7.415
 5864SOL    HW236280   7.794   9.360   7.313
 5865SOL     OW36281   4.486   7.516   6.409
 5865SOL    HW136282   4.567   7.547   6.359
 5865SOL    HW236283   4.407   7.515   6.347
 5866SOL     OW36284   6.843   4.559   0.015
 5866SOL    HW136285   6.800   4.643   8.764
 5866SOL    HW236286   6.803   4.481   8.750
 5867SOL     OW36287   5.472   2.090   0.244
 5867SOL    HW136288   5.404   2.017   0.242
 5867SOL    HW236289   5.440   2.167   0.189
 5868SOL     OW36290   7.477   2.753   1.418
 5868SOL    HW136291   7.408   2.793   1.358
 5868SOL    HW236292   7.458   2.781   1.513
 5869SOL     OW36293   0.272   1.849   8.573
 5869SOL    HW136294   0.211   1.791   8.627
 5869SOL    HW236295   0.222   1.930   8.543
 5870SOL     OW36296   4.615   7.990   7.295
 5870SOL    HW136297   4.577   7.901   7.320
 5870SOL    HW236298   4.576   8.020   7.208
 5871SOL     OW36299   2.065   9.981   6.245
 5871SOL    HW136300   2.138   9.913   6.250
 5871SOL    HW236301   1.997   9.952   6.177
 5872SOL     OW36302   6.095   8.876   8.192
 5872SOL    HW136303   6.057   8.959   8.150
 5872SOL    HW236304   6.059   8.795   8.145
 5873SOL     OW36305   0.748  10.396   7.641
 5873SOL    HW136306   0.769  10.478   7.588
 5873SOL    HW236307   0.832  10.346   7.661
 5874SOL     OW36308   8.424   3.473   1.757
 5874SOL    HW136309   8.519   3.502   1.746
 5874SOL    HW236310   8.371   3.546   1.800
 5875SOL     OW36311   0.823   6.169   0.319
 5875SOL    HW136312   0.791   6.111   0.244
 5875SOL    HW236313   0.860   6.112   0.392
 5876SOL     OW36314   1.353   2.904   5.992
 5876SOL    HW136315   1.304   2.983   6.028
 5876SOL    HW236316   1.406   2.932   5.912
 5877SOL     OW36317   1.982   7.478   7.204
 5877SOL    HW136318   1.907   7.438   7.256
 5877SOL    HW236319   2.003   7.569   7.239
 5878SOL     OW36320   3.245   3.425   1.024
 5878SOL    HW136321   3.328   3.394   0.978
 5878SOL    HW236322   3.166   3.410   0.964
 5879SOL     OW36323   5.616   9.398   1.890
 5879SOL    HW136324   5.622   9.421   1.987
 5879SOL    HW236325   5.657   9.309   1.873
 5880SOL     OW36326   7.698   2.457   8.351
 5880SOL    HW136327   7.647   2.387   8.301
 5880SOL    HW236328   7.635   2.528   8.383
 5881SOL     OW36329   9.097   5.456   6.904
 5881SOL    HW136330   9.032   5.407   6.962
 5881SOL    HW236331   9.149   5.521   6.958
 5882SOL     OW36332   0.684   1.815   8.489
 5882SOL    HW136333   0.633   1.875   8.550
 5882SOL    HW236334   0.632   1.731   8.472
 5883SOL     OW36335   4.620   2.768   8.674
 5883SOL    HW136336   4.586   2.800   8.586
 5883SOL    HW236337   4.543   2.738   8.731
 5884SOL     OW36338   5.710   8.654   8.139
 5884SOL    HW136339   5.707   8.620   8.233
 5884SOL    HW236340   5.616   8.666   8.105
 5885SOL     OW36341   8.071   8.436   0.915
 5885SOL    HW136342   8.098   8.371   0.845
 5885SOL    HW236343   8.149   8.454   0.976
 5886SOL     OW36344   6.572   1.891   1.599
 5886SOL    HW136345   6.586   1.985   1.568
 5886SOL    HW236346   6.583   1.887   1.698
 5887SOL     OW36347   6.357   6.844   1.950
 5887SOL    HW136348   6.420   6.919   1.971
 5887SOL    HW236349   6.384   6.763   2.002
 5888SOL     OW36350   2.576  10.154   1.699
 5888SOL    HW136351   2.641  10.104   1.757
 5888SOL    HW236352   2.511  10.203   1.757
 5889SOL     OW36353   5.429   6.466   7.207
 5889SOL    HW136354   5.353   6.426   7.259
 5889SOL    HW236355   5.456   6.404   7.134
 5890SOL     OW36356  10.130   9.041   8.189
 5890SOL    HW136357  10.151   8.990   8.273
 5890SOL    HW236358  10.155   8.986   8.109
 5891SOL     OW36359   5.499   6.882   0.867
 5891SOL    HW136360   5.598   6.878   0.855
 5891SOL    HW236361   5.477   6.874   0.965
 5892SOL     OW36362   8.246   2.925   0.844
 5892SOL    HW136363   8.336   2.926   0.887
 5892SOL    HW236364   8.239   3.002   0.780
 5893SOL     OW36365   7.812   6.112   6.986
 5893SOL    HW136366   7.843   6.062   6.905
 5893SOL    HW236367   7.745   6.056   7.036
 5894SOL     OW36368   6.193   0.529   8.405
 5894SOL    HW136369   6.269   0.487   8.355
 5894SOL    HW236370   6.107   0.508   8.359
 5895SOL     OW36371   7.939   8.479   0.534
 5895SOL    HW136372   7.871   8.510   0.601
 5895SOL    HW236373   7.947   8.379   0.540
 5896SOL     OW36374   1.640   0.469   8.321
 5896SOL    HW136375   1.635   0.568   8.308
 5896SOL    HW236376   1.629   0.448   8.419
 5897SOL     OW36377   1.191   9.317   6.864
 5897SOL    HW136378   1.092   9.330   6.867
 5897SOL    HW236379   1.228   9.366   6.785
 5898SOL     OW36380   3.076   1.915   1.985
 5898SOL    HW136381   3.027   1.993   2.025
 5898SOL    HW236382   3.168   1.910   2.025
 5899SOL     OW36383   4.976   0.322   8.737
 5899SOL    HW136384   5.007   0.232   8.766
 5899SOL    HW236385   4.877   0.322   8.725
 5900SOL     OW36386   1.835  10.496   8.058
 5900SOL    HW136387   1.756   0.049   8.030
 5900SOL    HW236388   1.806  10.430   8.128
 5901SOL     OW36389   6.891   2.223   6.715
 5901SOL    HW136390   6.795   2.205   6.691
 5901SOL    HW236391   6.948   2.148   6.682
 5902SOL     OW36392   9.243   0.380   2.268
 5902SOL    HW136393   9.192   0.428   2.339
 5902SOL    HW236394   9.336   0.415   2.265
 5903SOL     OW36395   7.532  10.038   7.438
 5903SOL    HW136396   7.553   9.952   7.391
 5903SOL    HW236397   7.604  10.104   7.419
 5904SOL     OW36398   1.179   5.027   8.036
 5904SOL    HW136399   1.270   4.984   8.033
 5904SOL    HW236400   1.116   4.968   8.086
 5905SOL     OW36401   7.683   0.335   1.068
 5905SOL    HW136402   7.604   0.353   1.008
 5905SOL    HW236403   7.762   0.385   1.034
 5906SOL     OW36404   1.391   7.960   7.861
 5906SOL    HW136405   1.308   8.015   7.857
 5906SOL    HW236406   1.461   8.002   7.802
 5907SOL     OW36407   4.899   7.486   2.417
 5907SOL    HW136408   4.884   7.436   2.502
 5907SOL    HW236409   4.838   7.565   2.413
 5908SOL     OW36410   4.915   8.596   7.019
 5908SOL    HW136411   4.907   8.695   7.035
 5908SOL    HW236412   4.829   8.562   6.981
 5909SOL     OW36413   9.528  10.461   6.243
 5909SOL    HW136414   9.605  10.434   6.186
 5909SOL    HW236415   9.457  10.391   6.237
 5910SOL     OW36416   5.332   8.622   0.321
 5910SOL    HW136417   5.349   8.524   0.325
 5910SOL    HW236418   5.349   8.664   0.410
 5911SOL     OW36419   6.276   5.591   0.387
 5911SOL    HW136420   6.344   5.517   0.382
 5911SOL    HW236421   6.184   5.552   0.388
 5912SOL     OW36422   1.822   4.945   0.823
 5912SOL    HW136423   1.890   4.873   0.812
 5912SOL    HW236424   1.814   4.996   0.737
 5913SOL     OW36425   7.928   3.098   8.496
 5913SOL    HW136426   8.019   3.062   8.519
 5913SOL    HW236427   7.866   3.022   8.475
 5914SOL     OW36428   4.334   1.983   1.621
 5914SOL    HW136429   4.358   2.068   1.667
 5914SOL    HW236430   4.245   1.951   1.654
 5915SOL     OW36431   3.967   4.054   0.122
 5915SOL    HW136432   3.894   3.985   0.125
 5915SOL    HW236433   4.023   4.048   0.205
 5916SOL     OW36434   3.604   2.614   6.683
 5916SOL    HW136435   3.569   2.708   6.682
 5916SOL    HW236436   3.704   2.615   6.683
 5917SOL     OW36437   4.818   2.158   1.882
 5917SOL    HW136438   4.841   2.082   1.944
 5917SOL    HW236439   4.878   2.236   1.901
 5918SOL     OW36440   9.948   3.939   7.977
 5918SOL    HW136441   9.974   3.918   7.882
 5918SOL    HW236442  10.030   3.937   8.034
 5919SOL     OW36443   4.564   3.921   7.607
 5919SOL    HW136444   4.506   4.002   7.619
 5919SOL    HW236445   4.652   3.948   7.568
 5920SOL     OW36446   9.502   5.161   7.730
 5920SOL    HW136447   9.435   5.233   7.749
 5920SOL    HW236448   9.581   5.201   7.683
 5921SOL     OW36449   4.391   2.361   0.393
 5921SOL    HW136450   4.426   2.281   0.344
 5921SOL    HW236451   4.307   2.335   0.441
 5922SOL     OW36452   6.680   0.084   8.696
 5922SOL    HW136453   6.748   0.091   8.768
 5922SOL    HW236454   6.722   0.106   8.608
 5923SOL     OW36455   0.955   6.403   0.273
 5923SOL    HW136456   1.046   6.390   0.232
 5923SOL    HW236457   0.909   6.314   0.281
 5924SOL     OW36458   9.098   1.043   0.367
 5924SOL    HW136459   9.114   1.083   0.276
 5924SOL    HW236460   9.184   1.043   0.418
 5925SOL     OW36461   1.662   5.375   1.821
 5925SOL    HW136462   1.589   5.436   1.851
 5925SOL    HW236463   1.635   5.280   1.838
 5926SOL     OW36464   3.874   2.176   7.548
 5926SOL    HW136465   3.814   2.097   7.560
 5926SOL    HW236466   3.827   2.259   7.579
 5927SOL     OW36467   5.010   5.218   7.143
 5927SOL    HW136468   4.968   5.140   7.190
 5927SOL    HW236469   4.947   5.295   7.144
 5928SOL     OW36470   5.197   9.986   8.145
 5928SOL    HW136471   5.278  10.036   8.115
 5928SOL    HW236472   5.135   9.974   8.068
 5929SOL     OW36473   2.720   0.712   0.545
 5929SOL    HW136474   2.668   0.628   0.530
 5929SOL    HW236475   2.676   0.787   0.497
 5930SOL     OW36476   2.473   4.852   6.521
 5930SOL    HW136477   2.548   4.865   6.587
 5930SOL    HW236478   2.400   4.800   6.564
 5931SOL     OW36479   5.565  10.067   1.641
 5931SOL    HW136480   5.607   9.996   1.697
 5931SOL    HW236481   5.614  10.075   1.555
 5932SOL     OW36482   1.178   2.956   8.061
 5932SOL    HW136483   1.203   2.864   8.031
 5932SOL    HW236484   1.260   3.011   8.074
 5933SOL     OW36485   8.757   7.018   7.869
 5933SOL    HW136486   8.787   6.942   7.811
 5933SOL    HW236487   8.694   6.984   7.939
 5934SOL     OW36488   2.125   8.841   8.063
 5934SOL    HW136489   2.127   8.741   8.056
 5934SOL    HW236490   2.192   8.880   8.000
 5935SOL     OW36491   6.374  10.087   6.616
 5935SOL    HW136492   6.395  10.121   6.524
 5935SOL    HW236493   6.445  10.022   6.644
 5936SOL     OW36494   8.029   0.417   1.343
 5936SOL    HW136495   8.058   0.506   1.307
 5936SOL    HW236496   7.929   0.411   1.341
 5937SOL     OW36497   4.795   5.149   8.336
 5937SOL    HW136498   4.738   5.193   8.405
 5937SOL    HW236499   4.747   5.070   8.298
 5938SOL     OW36500   8.328   4.716   1.436
 5938SOL    HW136501   8.286   4.703   1.526
 5938SOL    HW236502   8.297   4.643   1.375
 5939SOL     OW36503   9.285   6.849   0.151
 5939SOL    HW136504   9.275   6.750   0.153
 5939SOL    HW236505   9.382   6.873   0.149
 5940SOL     OW36506   2.209   0.330   8.526
 5940SOL    HW136507   2.238   0.415   8.570
 5940SOL    HW236508   2.274   0.257   8.549
 5941SOL     OW36509   1.721   8.489   0.714
 5941SOL    HW136510   1.699   8.393   0.731
 5941SOL    HW236511   1.699   8.512   0.619
 5942SOL     OW36512  10.039   9.887   7.563
 5942SOL    HW136513   9.950   9.860   7.600
 5942SOL    HW236514  10.111   9.869   7.631
 5943SOL     OW36515   4.123   5.500   7.646
 5943SOL    HW136516   4.049   5.434   7.658
 5943SOL    HW236517   4.123   5.533   7.552
 5944SOL     OW36518   2.592   5.626   8.541
 5944SOL    HW136519   2.503   5.595   8.509
 5944SOL    HW236520   2.597   5.617   8.641
 5945SOL     OW36521   3.577   2.742   7.468
 5945SOL    HW136522   3.532   2.782   7.389
 5945SOL    HW236523   3.527   2.660   7.497
 5946SOL     OW36524   7.711   0.798   7.155
 5946SOL    HW136525   7.620   0.776   7.120
 5946SOL    HW236526   7.770   0.717   7.146
 5947SOL     OW36527   7.280   8.430   1.073
 5947SOL    HW136528   7.282   8.471   0.982
 5947SOL    HW236529   7.345   8.478   1.132
 5948SOL     OW36530   2.625   5.096   0.448
 5948SOL    HW136531   2.621   5.098   0.348
 5948SOL    HW236532   2.631   5.001   0.478
 5949SOL     OW36533   1.546   7.279   6.903
 5949SOL    HW136534   1.504   7.269   6.993
 5949SOL    HW236535   1.631   7.228   6.899
 5950SOL     OW36536   8.924   0.462   8.544
 5950SOL    HW136537   8.866   0.543   8.532
 5950SOL    HW236538   9.019   0.486   8.525
 5951SOL     OW36539   1.944   4.347   1.323
 5951SOL    HW136540   2.036   4.352   1.360
 5951SOL    HW236541   1.880   4.393   1.386
 5952SOL     OW36542   1.786   8.812   1.938
 5952SOL    HW136543   1.789   8.713   1.947
 5952SOL    HW236544   1.857   8.853   1.996
 5953SOL     OW36545   9.339   5.377   6.546
 5953SOL    HW136546   9.361   5.439   6.622
 5953SOL    HW236547   9.423   5.354   6.497
 5954SOL     OW36548   9.299   8.238   1.307
 5954SOL    HW136549   9.361   8.280   1.373
 5954SOL    HW236550   9.205   8.265   1.326
 5955SOL     OW36551   5.684   7.711   2.090
 5955SOL    HW136552   5.595   7.732   2.129
 5955SOL    HW236553   5.728   7.638   2.143
 5956SOL     OW36554   6.270   4.017   6.946
 5956SOL    HW136555   6.328   3.977   7.017
 5956SOL    HW236556   6.327   4.067   6.881
 5957SOL     OW36557   9.174   5.109   8.169
 5957SOL    HW136558   9.219   5.049   8.104
 5957SOL    HW236559   9.242   5.163   8.218
 5958SOL     OW36560   8.933   0.011   2.351
 5958SOL    HW136561   8.838  10.490   2.330
 5958SOL    HW236562   8.959  10.472   2.438
 5959SOL     OW36563   2.659   1.797   1.313
 5959SOL    HW136564   2.693   1.730   1.247
 5959SOL    HW236565   2.566   1.825   1.287
 5960SOL     OW36566   7.630   8.352   1.139
 5960SOL    HW136567   7.562   8.420   1.166
 5960SOL    HW236568   7.697   8.395   1.078
 5961SOL     OW36569   4.930   9.369   0.398
 5961SOL    HW136570   4.847   9.381   0.451
 5961SOL    HW236571   4.908   9.370   0.300
 5962SOL     OW36572   3.766   2.186   0.329
 5962SOL    HW136573   3.764   2.086   0.325
 5962SOL    HW236574   3.679   2.222   0.293
 5963SOL     OW36575   6.090   0.779   7.299
 5963SOL    HW136576   6.128   0.850   7.359
 5963SOL    HW236577   5.992   0.796   7.286
 5964SOL     OW36578   0.353   9.373   1.920
 5964SOL    HW136579   0.406   9.346   1.839
 5964SOL    HW236580   0.354   9.299   1.986
 5965SOL     OW36581   0.818   3.293   1.046
 5965SOL    HW136582   0.845   3.386   1.071
 5965SOL    HW236583   0.735   3.268   1.096
 5966SOL     OW36584   8.226   2.641   0.848
 5966SOL    HW136585   8.234   2.740   0.833
 5966SOL    HW236586   8.255   2.620   0.942
 5967SOL     OW36587   5.252   2.719   1.000
 5967SOL    HW136588   5.152   2.722   1.006
 5967SOL    HW236589   5.287   2.812   0.990
 5968SOL     OW36590   2.801   0.221   0.074
 5968SOL    HW136591   2.703   0.234   0.059
 5968SOL    HW236592   2.831   0.276   0.152
 5969SOL     OW36593   9.429   8.316   6.837
 5969SOL    HW136594   9.333   8.346   6.838
 5969SOL    HW236595   9.478   8.366   6.766
 5970SOL     OW36596   2.307   7.338   6.692
 5970SOL    HW136597   2.214   7.319   6.722
 5970SOL    HW236598   2.306   7.364   6.596
 5971SOL     OW36599   6.650   4.572   8.098
 5971SOL    HW136600   6.698   4.652   8.132
 5971SOL    HW236601   6.663   4.495   8.161
 5972SOL     OW36602   0.531   2.390   0.351
 5972SOL    HW136603   0.513   2.449   0.430
 5972SOL    HW236604   0.456   2.325   0.341
 5973SOL     OW36605   3.544   0.019   0.602
 5973SOL    HW136606   3.587  10.470   0.676
 5973SOL    HW236607   3.583  10.493   0.515
 5974SOL     OW36608   4.105   3.859   7.108
 5974SOL    HW136609   4.011   3.847   7.138
 5974SOL    HW236610   4.106   3.877   7.009
 5975SOL     OW36611   0.337   6.351   7.538
 5975SOL    HW136612   0.414   6.347   7.474
 5975SOL    HW236613   0.255   6.379   7.488
 5976SOL     OW36614   9.527   3.192   8.409
 5976SOL    HW136615   9.601   3.137   8.447
 5976SOL    HW236616   9.516   3.275   8.464
 5977SOL     OW36617   0.376   5.199   7.121
 5977SOL    HW136618   0.318   5.126   7.156
 5977SOL    HW236619   0.415   5.250   7.198
 5978SOL     OW36620   2.007  10.124   8.180
 5978SOL    HW136621   2.003  10.164   8.089
 5978SOL    HW236622   2.054  10.186   8.243
 5979SOL     OW36623   4.870   4.764   6.440
 5979SOL    HW136624   4.796   4.764   6.507
 5979SOL    HW236625   4.834   4.790   6.351
 5980SOL     OW36626   0.396   5.029   8.690
 5980SOL    HW136627   0.332   4.999   8.620
 5980SOL    HW236628   0.487   4.990   8.671
 5981SOL     OW36629   5.980   1.267   1.079
 5981SOL    HW136630   5.957   1.234   0.988
 5981SOL    HW236631   5.954   1.199   1.148
 5982SOL     OW36632   2.794   1.079   7.584
 5982SOL    HW136633   2.829   1.091   7.491
 5982SOL    HW236634   2.870   1.083   7.649
 5983SOL     OW36635   5.148   7.794   1.045
 5983SOL    HW136636   5.087   7.770   1.120
 5983SOL    HW236637   5.178   7.710   0.998
 5984SOL     OW36638   6.250   3.555   1.348
 5984SOL    HW136639   6.166   3.539   1.297
 5984SOL    HW236640   6.272   3.475   1.404
 5985SOL     OW36641   7.340  10.488   0.776
 5985SOL    HW136642   7.433  10.484   0.815
 5985SOL    HW236643   7.346  10.478   0.677
 5986SOL     OW36644   7.037   8.454   1.407
 5986SOL    HW136645   7.083   8.540   1.385
 5986SOL    HW236646   6.941   8.459   1.380
 5987SOL     OW36647   9.042   2.856   1.658
 5987SOL    HW136648   9.038   2.940   1.605
 5987SOL    HW236649   9.028   2.876   1.755
 5988SOL     OW36650   0.519   8.711   8.630
 5988SOL    HW136651   0.514   8.736   8.727
 5988SOL    HW236652   0.588   8.767   8.584
 5989SOL     OW36653   2.449   2.532   8.300
 5989SOL    HW136654   2.407   2.523   8.391
 5989SOL    HW236655   2.548   2.544   8.310
 5990SOL     OW36656  10.154   0.359   8.044
 5990SOL    HW136657  10.058   0.388   8.051
 5990SOL    HW236658   0.055   0.440   8.042
 5991SOL     OW36659   4.795   2.922   7.668
 5991SOL    HW136660   4.724   2.978   7.711
 5991SOL    HW236661   4.876   2.920   7.727
 5992SOL     OW36662   2.255   7.473   0.970
 5992SOL    HW136663   2.306   7.456   1.054
 5992SOL    HW236664   2.299   7.546   0.918
 5993SOL     OW36665   5.785   2.585   1.664
 5993SOL    HW136666   5.824   2.514   1.723
 5993SOL    HW236667   5.856   2.620   1.602
 5994SOL     OW36668   3.527   2.189   8.001
 5994SOL    HW136669   3.586   2.214   8.077
 5994SOL    HW236670   3.559   2.105   7.958
 5995SOL     OW36671   4.350   8.209   8.044
 5995SOL    HW136672   4.289   8.269   8.096
 5995SOL    HW236673   4.439   8.204   8.088
 5996SOL     OW36674   2.194   4.338   8.033
 5996SOL    HW136675   2.108   4.379   8.066
 5996SOL    HW236676   2.174   4.259   7.977
 5997SOL     OW36677   4.651  10.062   0.077
 5997SOL    HW136678   4.709  10.098   0.003
 5997SOL    HW236679   4.610  10.138   0.126
 5998SOL     OW36680   6.264   8.877   7.446
 5998SOL    HW136681   6.264   8.884   7.347
 5998SOL    HW236682   6.312   8.956   7.485
 5999SOL     OW36683   2.206  10.403   1.780
 5999SOL    HW136684   2.131  10.461   1.812
 5999SOL    HW236685   2.169  10.330   1.724
 6000SOL     OW36686   3.455   1.267   5.902
 6000SOL    HW136687   3.380   1.269   5.968
 6000SOL    HW236688   3.509   1.351   5.912
 6001SOL     OW36689   7.158   5.351   2.030
 6001SOL    HW136690   7.229   5.400   2.080
 6001SOL    HW236691   7.068   5.376   2.066
 6002SOL     OW36692   5.679   9.995   7.250
 6002SOL    HW136693   5.711  10.052   7.174
 6002SOL    HW236694   5.643  10.053   7.323
 6003SOL     OW36695   3.507   3.138   6.948
 6003SOL    HW136696   3.570   3.088   7.007
 6003SOL    HW236697   3.456   3.204   7.003
 6004SOL     OW36698   3.643   7.125   0.455
 6004SOL    HW136699   3.584   7.169   0.388
 6004SOL    HW236700   3.739   7.140   0.430
 6005SOL     OW36701   2.150   9.627   6.466
 6005SOL    HW136702   2.211   9.626   6.546
 6005SOL    HW236703   2.143   9.535   6.428
 6006SOL     OW36704   1.229   5.253   0.619
 6006SOL    HW136705   1.198   5.326   0.681
 6006SOL    HW236706   1.303   5.202   0.662
 6007SOL     OW36707   8.945   4.297   1.704
 6007SOL    HW136708   8.997   4.370   1.660
 6007SOL    HW236709   8.983   4.278   1.795
 6008SOL     OW36710   7.100   3.612   7.076
 6008SOL    HW136711   7.132   3.695   7.123
 6008SOL    HW236712   7.164   3.537   7.093
 6009SOL     OW36713   9.418   5.531   8.317
 6009SOL    HW136714   9.395   5.618   8.273
 6009SOL    HW236715   9.514   5.510   8.302
 6010SOL     OW36716   4.057   4.572   7.780
 6010SOL    HW136717   4.069   4.656   7.726
 6010SOL    HW236718   3.986   4.515   7.738
 6011SOL     OW36719   8.525   6.584   7.323
 6011SOL    HW136720   8.481   6.672   7.307
 6011SOL    HW236721   8.497   6.548   7.412
 6012SOL     OW36722   0.109   9.480   7.944
 6012SOL    HW136723   0.158   9.522   7.867
 6012SOL    HW236724   0.011   9.480   7.925
 6013SOL     OW36725   7.230   5.401   1.768
 6013SOL    HW136726   7.202   5.385   1.863
 6013SOL    HW236727   7.291   5.327   1.738
 6014SOL     OW36728   8.455   2.837   0.386
 6014SOL    HW136729   8.404   2.765   0.339
 6014SOL    HW236730   8.441   2.924   0.339
 6015SOL     OW36731   4.241   4.448   0.149
 6015SOL    HW136732   4.240   4.547   0.136
 6015SOL    HW236733   4.191   4.404   0.074
 6016SOL     OW36734   2.768   8.391   8.688
 6016SOL    HW136735   2.770   8.292   8.697
 6016SOL    HW236736   2.858   8.429   8.708
 6017SOL     OW36737   4.352   0.745   8.302
 6017SOL    HW136738   4.309   0.829   8.270
 6017SOL    HW236739   4.288   0.669   8.294
 6018SOL     OW36740   0.261   4.658   0.075
 6018SOL    HW136741   0.351   4.671   0.034
 6018SOL    HW236742   0.271   4.651   0.174
 6019SOL     OW36743   4.216   6.567   0.905
 6019SOL    HW136744   4.196   6.640   0.839
 6019SOL    HW236745   4.134   6.512   0.920
 6020SOL     OW36746   7.175   1.620   0.213
 6020SOL    HW136747   7.078   1.638   0.198
 6020SOL    HW236748   7.218   1.594   0.126
 6021SOL     OW36749   3.676   2.250   6.465
 6021SOL    HW136750   3.748   2.235   6.533
 6021SOL    HW236751   3.692   2.189   6.387
 6022SOL     OW36752   4.926   7.558   7.913
 6022SOL    HW136753   4.902   7.483   7.974
 6022SOL    HW236754   5.001   7.529   7.853
 6023SOL     OW36755   6.082   3.647   1.723
 6023SOL    HW136756   6.000   3.623   1.672
 6023SOL    HW236757   6.143   3.700   1.665
 6024SOL     OW36758   9.375   8.935   1.104
 6024SOL    HW136759   9.333   8.964   1.190
 6024SOL    HW236760   9.307   8.936   1.031
 6025SOL     OW36761   4.409   1.871   6.829
 6025SOL    HW136762   4.330   1.932   6.828
 6025SOL    HW236763   4.384   1.784   6.786
 6026SOL     OW36764   7.905   4.924   1.302
 6026SOL    HW136765   7.915   4.835   1.347
 6026SOL    HW236766   7.809   4.939   1.277
 6027SOL     OW36767   8.537   2.736   0.639
 6027SOL    HW136768   8.582   2.651   0.612
 6027SOL    HW236769   8.503   2.783   0.558
 6028SOL     OW36770   1.583   4.198   8.328
 6028SOL    HW136771   1.640   4.164   8.253
 6028SOL    HW236772   1.640   4.252   8.390
 6029SOL     OW36773   3.597   1.282   7.321
 6029SOL    HW136774   3.534   1.359   7.322
 6029SOL    HW236775   3.548   1.197   7.341
 6030SOL     OW36776   3.090   8.980   8.351
 6030SOL    HW136777   3.096   8.959   8.449
 6030SOL    HW236778   3.145   9.061   8.331
 6031SOL     OW36779   3.223   3.319   8.126
 6031SOL    HW136780   3.252   3.256   8.199
 6031SOL    HW236781   3.215   3.268   8.040
 6032SOL     OW36782   8.982   1.361   8.724
 6032SOL    HW136783   9.000   1.270   8.685
 6032SOL    HW236784   8.919   1.352   0.020
 6033SOL     OW36785   1.378   2.753   1.235
 6033SOL    HW136786   1.341   2.700   1.159
 6033SOL    HW236787   1.334   2.723   1.320
 6034SOL     OW36788   6.684   3.319   0.483
 6034SOL    HW136789   6.713   3.406   0.523
 6034SOL    HW236790   6.604   3.285   0.532
 6035SOL     OW36791   7.950   5.397   1.375
 6035SOL    HW136792   7.964   5.432   1.283
 6035SOL    HW236793   7.986   5.462   1.442
 6036SOL     OW36794   7.203   1.894   2.058
 6036SOL    HW136795   7.171   1.988   2.047
 6036SOL    HW236796   7.291   1.883   2.011
 6037SOL     OW36797   9.385   5.969   7.420
 6037SOL    HW136798   9.457   5.944   7.356
 6037SOL    HW236799   9.374   6.069   7.420
 6038SOL     OW36800   2.157   8.617   7.639
 6038SOL    HW136801   2.187   8.554   7.568
 6038SOL    HW236802   2.093   8.684   7.600
 6039SOL     OW36803   2.531  10.465   1.202
 6039SOL    HW136804   2.502  10.464   1.298
 6039SOL    HW236805   2.609   0.023   1.192
 6040SOL     OW36806   1.580   2.383   7.937
 6040SOL    HW136807   1.523   2.382   8.019
 6040SOL    HW236808   1.540   2.324   7.867
 6041SOL     OW36809   8.252   7.780   1.061
 6041SOL    HW136810   8.231   7.683   1.072
 6041SOL    HW236811   8.244   7.806   0.965
 6042SOL     OW36812   3.942   0.436   6.655
 6042SOL    HW136813   3.865   0.414   6.596
 6042SOL    HW236814   4.019   0.467   6.599
 6043SOL     OW36815   4.151   2.304   0.521
 6043SOL    HW136816   4.153   2.338   0.614
 6043SOL    HW236817   4.066   2.332   0.476
 6044SOL     OW36818   2.646   1.285   7.000
 6044SOL    HW136819   2.602   1.361   7.047
 6044SOL    HW236820   2.607   1.199   7.033
 6045SOL     OW36821   1.927   0.871   0.911
 6045SOL    HW136822   1.905   0.868   1.009
 6045SOL    HW236823   2.024   0.892   0.899
 6046SOL     OW36824   3.755   1.905   0.297
 6046SOL    HW136825   3.685   1.839   0.269
 6046SOL    HW236826   3.777   1.891   0.393
 6047SOL     OW36827  10.086   8.819   0.820
 6047SOL    HW136828  10.031   8.737   0.802
 6047SOL    HW236829  10.026   8.899   0.825
 6048SOL     OW36830   0.228   9.148   0.724
 6048SOL    HW136831   0.176   9.221   0.679
 6048SOL    HW236832   0.237   9.168   0.821
 6049SOL     OW36833   6.277   1.712   2.054
 6049SOL    HW136834   6.253   1.623   2.092
 6049SOL    HW236835   6.322   1.767   2.124
 6050SOL     OW36836   2.161   8.076   0.311
 6050SOL    HW136837   2.246   8.043   0.351
 6050SOL    HW236838   2.154   8.175   0.325
 6051SOL     OW36839   8.445   5.164   6.683
 6051SOL    HW136840   8.419   5.125   6.595
 6051SOL    HW236841   8.538   5.200   6.677
 6052SOL     OW36842   7.009   4.919   1.228
 6052SOL    HW136843   7.095   4.868   1.231
 6052SOL    HW236844   7.027   5.012   1.195
 6053SOL     OW36845   6.219  10.095   7.751
 6053SOL    HW136846   6.268  10.134   7.673
 6053SOL    HW236847   6.267  10.013   7.784
 6054SOL     OW36848   9.415   8.556   0.891
 6054SOL    HW136849   9.387   8.601   0.976
 6054SOL    HW236850   9.489   8.491   0.910
 6055SOL     OW36851   1.297   6.244   8.644
 6055SOL    HW136852   1.336   6.308   8.711
 6055SOL    HW236853   1.369   6.182   8.612
 6056SOL     OW36854   5.944   9.222   7.493
 6056SOL    HW136855   6.039   9.224   7.524
 6056SOL    HW236856   5.886   9.268   7.561
 6057SOL     OW36857   1.515   7.894   6.687
 6057SOL    HW136858   1.484   7.980   6.648
 6057SOL    HW236859   1.568   7.843   6.619
 6058SOL     OW36860   9.379   3.718   0.714
 6058SOL    HW136861   9.451   3.673   0.661
 6058SOL    HW236862   9.412   3.806   0.747
 6059SOL     OW36863   2.232   3.077   8.724
 6059SOL    HW136864   2.177   3.160   8.722
 6059SOL    HW236865   2.211   3.021   8.644
 6060SOL     OW36866   1.009   8.613   8.292
 6060SOL    HW136867   1.029   8.710   8.310
 6060SOL    HW236868   1.024   8.560   8.376
 6061SOL     OW36869   2.630   1.438   6.775
 6061SOL    HW136870   2.638   1.371   6.850
 6061SOL    HW236871   2.714   1.491   6.769
 6062SOL     OW36872   7.914   2.817   7.048
 6062SOL    HW136873   7.817   2.830   7.068
 6062SOL    HW236874   7.959   2.907   7.044
 6063SOL     OW36875   9.203   9.516   8.523
 6063SOL    HW136876   9.167   9.607   8.544
 6063SOL    HW236877   9.183   9.493   8.428
 6064SOL     OW36878   0.526   6.015   1.136
 6064SOL    HW136879   0.431   5.985   1.123
 6064SOL    HW236880   0.556   6.063   1.053
 6065SOL     OW36881   4.979   7.381   6.679
 6065SOL    HW136882   4.933   7.399   6.592
 6065SOL    HW236883   5.077   7.395   6.668
 6066SOL     OW36884   5.192   2.856   1.269
 6066SOL    HW136885   5.287   2.835   1.249
 6066SOL    HW236886   5.136   2.839   1.189
 6067SOL     OW36887   3.642   9.149   1.484
 6067SOL    HW136888   3.610   9.229   1.432
 6067SOL    HW236889   3.601   9.150   1.575
 6068SOL     OW36890   4.695   7.530   1.112
 6068SOL    HW136891   4.599   7.547   1.135
 6068SOL    HW236892   4.724   7.444   1.155
 6069SOL     OW36893   5.985   2.250   1.070
 6069SOL    HW136894   5.925   2.171   1.052
 6069SOL    HW236895   5.948   2.330   1.024
 6070SOL     OW36896   0.941   9.465   0.032
 6070SOL    HW136897   0.886   9.475   8.731
 6070SOL    HW236898   0.891   9.410   0.099
 6071SOL     OW36899   7.263   4.711   0.797
 6071SOL    HW136900   7.299   4.764   0.720
 6071SOL    HW236901   7.170   4.681   0.775
 6072SOL     OW36902   8.932   6.938   6.792
 6072SOL    HW136903   8.868   7.012   6.813
 6072SOL    HW236904   8.926   6.917   6.694
 6073SOL     OW36905   8.458   2.500   7.767
 6073SOL    HW136906   8.446   2.401   7.754
 6073SOL    HW236907   8.428   2.547   7.684
 6074SOL     OW36908   0.741   1.056   6.708
 6074SOL    HW136909   0.645   1.066   6.680
 6074SOL    HW236910   0.778   1.145   6.732
 6075SOL     OW36911   3.161   3.718   1.407
 6075SOL    HW136912   3.165   3.812   1.372
 6075SOL    HW236913   3.071   3.701   1.447
 6076SOL     OW36914   1.484   4.862   7.786
 6076SOL    HW136915   1.450   4.861   7.880
 6076SOL    HW236916   1.571   4.910   7.782
 6077SOL     OW36917   5.373   2.301   0.084
 6077SOL    HW136918   5.449   2.339   0.031
 6077SOL    HW236919   5.338   2.371   0.147
 6078SOL     OW36920   2.709   8.964   6.782
 6078SOL    HW136921   2.790   8.921   6.821
 6078SOL    HW236922   2.627   8.931   6.829
 6079SOL     OW36923   4.278   3.817   6.432
 6079SOL    HW136924   4.324   3.833   6.345
 6079SOL    HW236925   4.196   3.874   6.438
 6080SOL     OW36926   4.810   6.179   8.387
 6080SOL    HW136927   4.860   6.173   8.301
 6080SOL    HW236928   4.810   6.090   8.433
 6081SOL     OW36929   3.299   5.334   1.017
 6081SOL    HW136930   3.254   5.245   1.010
 6081SOL    HW236931   3.388   5.330   0.971
 6082SOL     OW36932   9.867   3.503   7.061
 6082SOL    HW136933   9.935   3.454   7.116
 6082SOL    HW236934   9.791   3.442   7.039
 6083SOL     OW36935   0.106   3.234   1.793
 6083SOL    HW136936   0.086   3.254   1.697
 6083SOL    HW236937   0.127   3.320   1.841
 6084SOL     OW36938   8.290   6.172   7.491
 6084SOL    HW136939   8.237   6.237   7.545
 6084SOL    HW236940   8.231   6.130   7.422
 6085SOL     OW36941   8.252   4.410   7.604
 6085SOL    HW136942   8.215   4.466   7.530
 6085SOL    HW236943   8.338   4.368   7.575
 6086SOL     OW36944   1.025   3.106   1.076
 6086SOL    HW136945   0.946   3.168   1.070
 6086SOL    HW236946   1.088   3.125   1.000
 6087SOL     OW36947   5.587   8.058   0.524
 6087SOL    HW136948   5.507   8.086   0.576
 6087SOL    HW236949   5.600   7.959   0.532
 6088SOL     OW36950   5.351   0.796   8.103
 6088SOL    HW136951   5.356   0.890   8.138
 6088SOL    HW236952   5.337   0.799   8.004
 6089SOL     OW36953   1.748   4.450   1.510
 6089SOL    HW136954   1.657   4.484   1.490
 6089SOL    HW236955   1.744   4.386   1.587
 6090SOL     OW36956   5.958   2.043   7.751
 6090SOL    HW136957   6.033   2.071   7.690
 6090SOL    HW236958   5.902   1.973   7.706
 6091SOL     OW36959   7.417   2.372   1.702
 6091SOL    HW136960   7.434   2.331   1.612
 6091SOL    HW236961   7.340   2.435   1.695
 6092SOL     OW36962   0.239   9.164   7.412
 6092SOL    HW136963   0.158   9.152   7.355
 6092SOL    HW236964   0.262   9.078   7.457
 6093SOL     OW36965   9.983   6.783   7.084
 6093SOL    HW136966  10.071   6.799   7.037
 6093SOL    HW236967   9.965   6.858   7.147
 6094SOL     OW36968   8.117   0.754   7.078
 6094SOL    HW136969   8.163   0.788   6.996
 6094SOL    HW236970   8.178   0.762   7.157
 6095SOL     OW36971   8.600   4.820   6.857
 6095SOL    HW136972   8.610   4.779   6.947
 6095SOL    HW236973   8.507   4.853   6.844
 6096SOL     OW36974   7.359   0.316   0.660
 6096SOL    HW136975   7.260   0.308   0.668
 6096SOL    HW236976   7.381   0.392   0.599
 6097SOL     OW36977   9.542   2.958   7.581
 6097SOL    HW136978   9.616   2.901   7.616
 6097SOL    HW236979   9.456   2.906   7.584
 6098SOL     OW36980   8.899   6.353   7.448
 6098SOL    HW136981   8.910   6.265   7.403
 6098SOL    HW236982   8.852   6.416   7.386
 6099SOL     OW36983   4.936   0.006   7.960
 6099SOL    HW136984   5.012   0.001   7.896
 6099SOL    HW236985   4.849  10.500   7.911
 6100SOL     OW36986   5.496   4.673   0.608
 6100SOL    HW136987   5.510   4.709   0.700
 6100SOL    HW236988   5.506   4.747   0.542
 6101SOL     OW36989   1.781   9.546   7.365
 6101SOL    HW136990   1.801   9.603   7.445
 6101SOL    HW236991   1.692   9.571   7.327
 6102SOL     OW36992   4.958   1.359   8.701
 6102SOL    HW136993   4.875   1.398   8.741
 6102SOL    HW236994   5.028   1.348   8.772
 6103SOL     OW36995   1.370   0.288   7.780
 6103SOL    HW136996   1.441   0.237   7.730
 6103SOL    HW236997   1.406   0.316   7.869
 6104SOL     OW36998   1.951   3.449   7.871
 6104SOL    HW136999   1.936   3.396   7.788
 6104SOL    HW237000   1.998   3.393   7.939
 6105SOL     OW37001   7.402   7.330   7.902
 6105SOL    HW137002   7.482   7.270   7.909
 6105SOL    HW237003   7.332   7.286   7.846
 6106SOL     OW37004   3.285   1.459   1.405
 6106SOL    HW137005   3.369   1.512   1.417
 6106SOL    HW237006   3.214   1.517   1.365
 6107SOL     OW37007   6.133   6.245   7.499
 6107SOL    HW137008   6.195   6.319   7.523
 6107SOL    HW237009   6.139   6.226   7.401
 6108SOL     OW37010   8.173   3.177   7.824
 6108SOL    HW137011   8.133   3.098   7.870
 6108SOL    HW237012   8.120   3.259   7.846
 6109SOL     OW37013   1.364   8.343   7.781
 6109SOL    HW137014   1.292   8.412   7.778
 6109SOL    HW237015   1.449   8.385   7.813
 6110SOL     OW37016   4.265   0.086   7.731
 6110SOL    HW137017   4.278  10.490   7.729
 6110SOL    HW237018   4.312   0.124   7.811
 6111SOL     OW37019   5.427   5.370   0.321
 6111SOL    HW137020   5.440   5.469   0.316
 6111SOL    HW237021   5.329   5.350   0.323
 6112SOL     OW37022  10.124   1.119   7.539
 6112SOL    HW137023  10.044   1.178   7.552
 6112SOL    HW237024  10.108   1.058   7.461
 6113SOL     OW37025   7.139   6.087   1.142
 6113SOL    HW137026   7.072   6.048   1.080
 6113SOL    HW237027   7.223   6.109   1.092
 6114SOL     OW37028   4.175   4.696   6.642
 6114SOL    HW137029   4.113   4.645   6.702
 6114SOL    HW237030   4.121   4.746   6.573
 6115SOL     OW37031   8.074   3.479   7.057
 6115SOL    HW137032   8.048   3.408   6.991
 6115SOL    HW237033   8.021   3.562   7.039
 6116SOL     OW37034   4.776   4.888   1.961
 6116SOL    HW137035   4.838   4.811   1.981
 6116SOL    HW237036   4.702   4.889   2.028
 6117SOL     OW37037   7.189   3.662   6.810
 6117SOL    HW137038   7.268   3.723   6.818
 6117SOL    HW237039   7.149   3.647   6.901
 6118SOL     OW37040   3.211   2.374   0.816
 6118SOL    HW137041   3.238   2.466   0.844
 6118SOL    HW237042   3.223   2.364   0.718
 6119SOL     OW37043   4.646   1.243   0.186
 6119SOL    HW137044   4.684   1.159   0.225
 6119SOL    HW237045   4.583   1.219   0.112
 6120SOL     OW37046   0.238   5.289   6.908
 6120SOL    HW137047   0.184   5.208   6.888
 6120SOL    HW237048   0.294   5.273   6.989
 6121SOL     OW37049   4.554   9.481   1.555
 6121SOL    HW137050   4.522   9.514   1.644
 6121SOL    HW237051   4.483   9.424   1.513
 6122SOL     OW37052   2.110   1.205   0.522
 6122SOL    HW137053   2.154   1.196   0.611
 6122SOL    HW237054   2.157   1.276   0.469
 6123SOL     OW37055   1.881   8.138   7.831
 6123SOL    HW137056   1.815   8.080   7.878
 6123SOL    HW237057   1.973   8.121   7.868
 6124SOL     OW37058   1.438   8.832   8.321
 6124SOL    HW137059   1.437   8.905   8.254
 6124SOL    HW237060   1.395   8.863   8.406
 6125SOL     OW37061   3.822  10.244   8.690
 6125SOL    HW137062   3.763  10.198   8.624
 6125SOL    HW237063   3.856  10.178   8.757
 6126SOL     OW37064   1.870   6.769   6.891
 6126SOL    HW137065   1.858   6.798   6.986
 6126SOL    HW237066   1.800   6.812   6.833
 6127SOL     OW37067   3.883   2.572   6.996
 6127SOL    HW137068   3.905   2.480   7.029
 6127SOL    HW237069   3.948   2.637   7.035
 6128SOL     OW37070   7.890  10.229   7.965
 6128SOL    HW137071   7.846  10.316   7.942
 6128SOL    HW237072   7.857  10.157   7.904
 6129SOL     OW37073   8.784   1.363   0.136
 6129SOL    HW137074   8.742   1.333   0.222
 6129SOL    HW237075   8.784   1.463   0.132
 6130SOL     OW37076   9.549   5.693   0.591
 6130SOL    HW137077   9.533   5.775   0.535
 6130SOL    HW237078   9.529   5.611   0.538
 6131SOL     OW37079   9.260   6.130   7.132
 6131SOL    HW137080   9.229   6.098   7.222
 6131SOL    HW237081   9.202   6.207   7.103
 6132SOL     OW37082   6.874   1.493   7.033
 6132SOL    HW137083   6.896   1.442   6.949
 6132SOL    HW237084   6.942   1.472   7.103
 6133SOL     OW37085   1.312   4.608   0.692
 6133SOL    HW137086   1.279   4.623   0.785
 6133SOL    HW237087   1.360   4.520   0.687
 6134SOL     OW37088   4.730   4.791   0.547
 6134SOL    HW137089   4.664   4.834   0.485
 6134SOL    HW237090   4.703   4.697   0.565
 6135SOL     OW37091   6.008   5.415   7.050
 6135SOL    HW137092   6.082   5.475   7.018
 6135SOL    HW237093   6.011   5.329   7.000
 6136SOL     OW37094   3.581  10.243   8.518
 6136SOL    HW137095   3.578  10.337   8.484
 6136SOL    HW237096   3.576  10.180   8.441
 6137SOL     OW37097   1.423   6.067   0.268
 6137SOL    HW137098   1.385   5.975   0.279
 6137SOL    HW237099   1.523   6.061   0.264
 6138SOL     OW37100   6.371   6.652   0.778
 6138SOL    HW137101   6.331   6.724   0.722
 6138SOL    HW237102   6.424   6.590   0.720
 6139SOL     OW37103   7.100   4.219   7.869
 6139SOL    HW137104   7.138   4.177   7.952
 6139SOL    HW237105   7.174   4.264   7.818
 6140SOL     OW37106   9.410   0.458   8.318
 6140SOL    HW137107   9.389   0.392   8.390
 6140SOL    HW237108   9.437   0.409   8.235
 6141SOL     OW37109   5.360   8.509   1.577
 6141SOL    HW137110   5.306   8.482   1.497
 6141SOL    HW237111   5.311   8.483   1.660
 6142SOL     OW37112   6.617   8.860   1.778
 6142SOL    HW137113   6.709   8.842   1.743
 6142SOL    HW237114   6.587   8.951   1.750
 6143SOL     OW37115   0.415   8.592   0.485
 6143SOL    HW137116   0.394   8.500   0.518
 6143SOL    HW237117   0.343   8.622   0.423
 6144SOL     OW37118   9.225   2.698   1.231
 6144SOL    HW137119   9.306   2.754   1.242
 6144SOL    HW237120   9.152   2.733   1.291
 6145SOL     OW37121   9.275   4.943   8.550
 6145SOL    HW137122   9.305   4.855   8.588
 6145SOL    HW237123   9.354   4.990   8.511
 6146SOL     OW37124   6.325   2.657   0.765
 6146SOL    HW137125   6.259   2.659   0.840
 6146SOL    HW237126   6.288   2.602   0.690
 6147SOL     OW37127   4.745   0.671   0.177
 6147SOL    HW137128   4.724   0.691   0.272
 6147SOL    HW237129   4.832   0.620   0.172
 6148SOL     OW37130   1.671  10.188   0.399
 6148SOL    HW137131   1.770  10.203   0.403
 6148SOL    HW237132   1.637  10.163   0.489
 6149SOL     OW37133   8.968   0.459   6.725
 6149SOL    HW137134   9.036   0.412   6.781
 6149SOL    HW237135   8.990   0.447   6.628
 6150SOL     OW37136   2.150   8.646   6.537
 6150SOL    HW137137   2.147   8.670   6.440
 6150SOL    HW237138   2.159   8.546   6.546
 6151SOL     OW37139   8.758   2.224   8.063
 6151SOL    HW137140   8.847   2.199   8.024
 6151SOL    HW237141   8.730   2.314   8.029
 6152SOL     OW37142   2.200   5.048   7.183
 6152SOL    HW137143   2.124   5.044   7.118
 6152SOL    HW237144   2.285   5.020   7.138
 6153SOL     OW37145   3.711   5.002   7.115
 6153SOL    HW137146   3.643   5.066   7.151
 6153SOL    HW237147   3.677   4.960   7.031
 6154SOL     OW37148   6.756   8.501   1.323
 6154SOL    HW137149   6.686   8.528   1.257
 6154SOL    HW237150   6.714   8.484   1.412
 6155SOL     OW37151   5.828   0.377   7.262
 6155SOL    HW137152   5.909   0.424   7.298
 6155SOL    HW237153   5.782   0.329   7.337
 6156SOL     OW37154   9.240   2.467   0.068
 6156SOL    HW137155   9.334   2.461   0.034
 6156SOL    HW237156   9.235   2.539   0.137
 6157SOL     OW37157   0.881   9.307   8.137
 6157SOL    HW137158   0.965   9.294   8.084
 6157SOL    HW237159   0.900   9.289   8.234
 6158SOL     OW37160   7.451   9.910   2.376
 6158SOL    HW137161   7.358   9.947   2.385
 6158SOL    HW237162   7.508   9.947   2.448
 6159SOL     OW37163   4.092   8.370   2.051
 6159SOL    HW137164   4.171   8.311   2.034
 6159SOL    HW237165   4.043   8.386   1.965
 6160SOL     OW37166   7.113   6.697   0.360
 6160SOL    HW137167   7.020   6.734   0.371
 6160SOL    HW237168   7.108   6.611   0.309
 6161SOL     OW37169   1.227   0.951   1.344
 6161SOL    HW137170   1.227   1.024   1.412
 6161SOL    HW237171   1.226   0.991   1.252
 6162SOL     OW37172   8.547   4.010   6.907
 6162SOL    HW137173   8.532   3.920   6.866
 6162SOL    HW237174   8.527   4.005   7.005
 6163SOL     OW37175   6.186   7.821   8.209
 6163SOL    HW137176   6.260   7.753   8.207
 6163SOL    HW237177   6.100   7.776   8.234
 6164SOL     OW37178   2.714   6.249   6.939
 6164SOL    HW137179   2.628   6.198   6.943
 6164SOL    HW237180   2.751   6.260   7.032
 6165SOL     OW37181   6.003   5.963   7.271
 6165SOL    HW137182   5.926   6.024   7.251
 6165SOL    HW237183   6.021   5.905   7.191
 6166SOL     OW37184   8.368   9.253   8.448
 6166SOL    HW137185   8.362   9.153   8.447
 6166SOL    HW237186   8.306   9.289   8.518
 6167SOL     OW37187   9.303   6.170   7.690
 6167SOL    HW137188   9.324   6.254   7.741
 6167SOL    HW237189   9.317   6.186   7.592
 6168SOL     OW37190  10.067   0.388   6.914
 6168SOL    HW137191  10.094   0.458   6.848
 6168SOL    HW237192  10.024   0.312   6.867
 6169SOL     OW37193   0.045   1.629   0.187
 6169SOL    HW137194  10.147   1.701   0.228
 6169SOL    HW237195   0.030   1.543   0.236
 6170SOL     OW37196   7.898   5.621   8.757
 6170SOL    HW137197   7.941   5.582   8.676
 6170SOL    HW237198   7.958   5.605   0.055
 6171SOL     OW37199   7.338   4.944   7.701
 6171SOL    HW137200   7.266   4.880   7.729
 6171SOL    HW237201   7.421   4.893   7.677
 6172SOL     OW37202   1.465   2.800   7.813
 6172SOL    HW137203   1.383   2.773   7.864
 6172SOL    HW237204   1.439   2.850   7.731
 6173SOL     OW37205   4.707   1.047   7.474
 6173SOL    HW137206   4.734   1.044   7.378
 6173SOL    HW237207   4.677   1.139   7.497
 6174SOL     OW37208   8.338   0.661   6.559
 6174SOL    HW137209   8.434   0.683   6.577
 6174SOL    HW237210   8.326   0.562   6.555
 6175SOL     OW37211   0.640   4.700   7.466
 6175SOL    HW137212   0.723   4.650   7.493
 6175SOL    HW237213   0.587   4.721   7.548
 6176SOL     OW37214   3.953   4.568   6.792
 6176SOL    HW137215   3.877   4.517   6.831
 6176SOL    HW237216   3.930   4.666   6.790
 6177SOL     OW37217   8.112   6.538   8.758
 6177SOL    HW137218   8.075   6.445   8.753
 6177SOL    HW237219   8.212   6.534   8.750
 6178SOL     OW37220   0.123   1.014   7.216
 6178SOL    HW137221   0.201   1.003   7.277
 6178SOL    HW237222   0.040   0.982   7.262
 6179SOL     OW37223   3.358   0.308   1.257
 6179SOL    HW137224   3.320   0.237   1.317
 6179SOL    HW237225   3.314   0.395   1.278
 6180SOL     OW37226   6.360   4.486   8.776
 6180SOL    HW137227   6.392   4.523   0.082
 6180SOL    HW237228   6.359   4.559   8.708
 6181SOL     OW37229   7.827   9.659   0.971
 6181SOL    HW137230   7.829   9.728   0.899
 6181SOL    HW237231   7.831   9.704   1.060
 6182SOL     OW37232   4.320   6.993   0.286
 6182SOL    HW137233   4.313   6.936   0.204
 6182SOL    HW237234   4.414   7.026   0.296
 6183SOL     OW37235   4.069   7.043   1.625
 6183SOL    HW137236   4.065   7.136   1.590
 6183SOL    HW237237   3.986   7.023   1.676
 6184SOL     OW37238   1.546   4.364   1.287
 6184SOL    HW137239   1.498   4.416   1.358
 6184SOL    HW237240   1.583   4.280   1.326
 6185SOL     OW37241   9.316   5.949   8.724
 6185SOL    HW137242   9.325   6.048   8.737
 6185SOL    HW237243   9.240   5.915   8.778
 6186SOL     OW37244   7.402   2.167   6.260
 6186SOL    HW137245   7.433   2.158   6.165
 6186SOL    HW237246   7.468   2.222   6.312
 6187SOL     OW37247   8.561   7.701   1.664
 6187SOL    HW137248   8.504   7.709   1.745
 6187SOL    HW237249   8.597   7.608   1.658
 6188SOL     OW37250   4.477   5.466   6.438
 6188SOL    HW137251   4.385   5.427   6.442
 6188SOL    HW237252   4.471   5.565   6.449
 6189SOL     OW37253   6.741   3.566   0.590
 6189SOL    HW137254   6.834   3.594   0.564
 6189SOL    HW237255   6.676   3.635   0.559
 6190SOL     OW37256   6.895   9.157   0.794
 6190SOL    HW137257   6.837   9.140   0.715
 6190SOL    HW237258   6.916   9.071   0.840
 6191SOL     OW37259   3.021   0.866   6.779
 6191SOL    HW137260   2.931   0.889   6.819
 6191SOL    HW237261   3.093   0.890   6.844
 6192SOL     OW37262   2.050   8.264   7.158
 6192SOL    HW137263   2.120   8.328   7.128
 6192SOL    HW237264   1.971   8.314   7.193
 6193SOL     OW37265   2.497   1.801   2.170
 6193SOL    HW137266   2.595   1.790   2.160
 6193SOL    HW237267   2.476   1.897   2.189
 6194SOL     OW37268   6.331   9.670   2.454
 6194SOL    HW137269   6.387   9.612   2.513
 6194SOL    HW237270   6.256   9.709   2.507
 6195SOL     OW37271   8.782   5.347   0.563
 6195SOL    HW137272   8.739   5.264   0.597
 6195SOL    HW237273   8.741   5.427   0.608
 6196SOL     OW37274   7.643   3.730   1.546
 6196SOL    HW137275   7.624   3.631   1.543
 6196SOL    HW237276   7.569   3.780   1.502
 6197SOL     OW37277   2.621   5.947   0.696
 6197SOL    HW137278   2.531   5.987   0.680
 6197SOL    HW237279   2.687   5.982   0.629
 6198SOL     OW37280   0.662   5.459   1.321
 6198SOL    HW137281   0.740   5.411   1.361
 6198SOL    HW237282   0.683   5.556   1.313
 6199SOL     OW37283   0.508   6.730   1.199
 6199SOL    HW137284   0.563   6.686   1.128
 6199SOL    HW237285   0.417   6.749   1.163
 6200SOL     OW37286   0.455   6.931   0.539
 6200SOL    HW137287   0.454   7.027   0.513
 6200SOL    HW237288   0.539   6.888   0.503
 6201SOL     OW37289   4.459   9.414   8.398
 6201SOL    HW137290   4.493   9.387   8.308
 6201SOL    HW237291   4.536   9.439   8.456
 6202SOL     OW37292   0.121  10.314   1.049
 6202SOL    HW137293   0.120  10.412   1.027
 6202SOL    HW237294   0.185  10.267   0.989
 6203SOL     OW37295   9.119   2.377   7.766
 6203SOL    HW137296   9.164   2.325   7.839
 6203SOL    HW237297   9.056   2.317   7.718
 6204SOL     OW37298   7.644   4.680   8.752
 6204SOL    HW137299   7.570   4.744   8.769
 6204SOL    HW237300   7.608   4.587   8.747
 6205SOL     OW37301   5.594   2.878   2.308
 6205SOL    HW137302   5.627   2.789   2.339
 6205SOL    HW237303   5.494   2.881   2.318
 6206SOL     OW37304   2.852   8.395   7.349
 6206SOL    HW137305   2.821   8.313   7.301
 6206SOL    HW237306   2.941   8.423   7.312
 6207SOL     OW37307   2.151   9.192   0.790
 6207SOL    HW137308   2.055   9.206   0.813
 6207SOL    HW237309   2.180   9.101   0.820
 6208SOL     OW37310   9.884   1.345   1.169
 6208SOL    HW137311   9.901   1.361   1.267
 6208SOL    HW237312   9.937   1.266   1.139
 6209SOL     OW37313   3.622   9.748   6.913
 6209SOL    HW137314   3.601   9.679   6.844
 6209SOL    HW237315   3.538   9.778   6.957
 6210SOL     OW37316   1.788   3.840   7.019
 6210SOL    HW137317   1.816   3.766   7.081
 6210SOL    HW237318   1.757   3.801   6.932
 6211SOL     OW37319   4.537   7.533   1.840
 6211SOL    HW137320   4.540   7.513   1.938
 6211SOL    HW237321   4.602   7.474   1.792
 6212SOL     OW37322   5.580   2.177   7.376
 6212SOL    HW137323   5.674   2.205   7.352
 6212SOL    HW237324   5.583   2.088   7.419
 6213SOL     OW37325   9.691   4.230   6.100
 6213SOL    HW137326   9.616   4.292   6.124
 6213SOL    HW237327   9.657   4.137   6.095
 6214SOL     OW37328   0.546   7.129   0.883
 6214SOL    HW137329   0.636   7.169   0.898
 6214SOL    HW237330   0.483   7.160   0.955
 6215SOL     OW37331   4.108   6.840   7.685
 6215SOL    HW137332   4.179   6.784   7.643
 6215SOL    HW237333   4.071   6.792   7.765
 6216SOL     OW37334   5.979   7.766   0.452
 6216SOL    HW137335   5.940   7.789   0.541
 6216SOL    HW237336   5.980   7.847   0.394
 6217SOL     OW37337   4.518   4.814   0.910
 6217SOL    HW137338   4.457   4.755   0.856
 6217SOL    HW237339   4.612   4.800   0.881
 6218SOL     OW37340   8.267  10.047   7.044
 6218SOL    HW137341   8.314  10.134   7.028
 6218SOL    HW237342   8.332   9.979   7.076
 6219SOL     OW37343   1.368  10.069   6.556
 6219SOL    HW137344   1.354   9.974   6.584
 6219SOL    HW237345   1.466  10.091   6.559
 6220SOL     OW37346   8.518   8.086   1.568
 6220SOL    HW137347   8.434   8.108   1.619
 6220SOL    HW237348   8.586   8.050   1.631
 6221SOL     OW37349   4.815   8.577   1.814
 6221SOL    HW137350   4.870   8.577   1.898
 6221SOL    HW237351   4.876   8.588   1.735
 6222SOL     OW37352   4.633   3.142   6.748
 6222SOL    HW137353   4.611   3.051   6.713
 6222SOL    HW237354   4.733   3.152   6.755
 6223SOL     OW37355   7.539   7.562   0.866
 6223SOL    HW137356   7.636   7.539   0.855
 6223SOL    HW237357   7.503   7.594   0.778
 6224SOL     OW37358   8.706   8.079   7.467
 6224SOL    HW137359   8.647   8.091   7.386
 6224SOL    HW237360   8.716   7.982   7.487
 6225SOL     OW37361  10.076   6.737   2.080
 6225SOL    HW137362  10.024   6.763   2.161
 6225SOL    HW237363   0.006   6.697   2.107
 6226SOL     OW37364   3.181   3.878   8.053
 6226SOL    HW137365   3.096   3.886   8.000
 6226SOL    HW237366   3.159   3.851   8.147
 6227SOL     OW37367   7.494   2.945   0.305
 6227SOL    HW137368   7.565   2.899   0.358
 6227SOL    HW237369   7.510   2.930   0.207
 6228SOL     OW37370   8.173   9.109   1.461
 6228SOL    HW137371   8.197   9.138   1.554
 6228SOL    HW237372   8.249   9.129   1.399
 6229SOL     OW37373   7.388   5.863   1.788
 6229SOL    HW137374   7.385   5.899   1.881
 6229SOL    HW237375   7.295   5.841   1.758
 6230SOL     OW37376  10.092   0.168   1.190
 6230SOL    HW137377  10.156   0.147   1.117
 6230SOL    HW237378  10.143   0.195   1.272
 6231SOL     OW37379  10.087   6.563   7.802
 6231SOL    HW137380  10.150   6.498   7.845
 6231SOL    HW237381  10.017   6.590   7.868
 6232SOL     OW37382   9.157  10.255   0.788
 6232SOL    HW137383   9.187  10.173   0.837
 6232SOL    HW237384   9.106  10.314   0.851
 6233SOL     OW37385   5.342   5.340   1.027
 6233SOL    HW137386   5.308   5.313   1.117
 6233SOL    HW237387   5.438   5.314   1.019
 6234SOL     OW37388   7.697   3.474   0.002
 6234SOL    HW137389   7.692   3.570   0.031
 6234SOL    HW237390   7.730   3.418   0.078
 6235SOL     OW37391   8.417   6.987   0.668
 6235SOL    HW137392   8.502   6.995   0.617
 6235SOL    HW237393   8.410   7.061   0.734
 6236SOL     OW37394   5.855   6.037   0.566
 6236SOL    HW137395   5.886   6.076   0.653
 6236SOL    HW237396   5.881   5.941   0.562
 6237SOL     OW37397   3.540   6.296   1.024
 6237SOL    HW137398   3.524   6.379   0.971
 6237SOL    HW237399   3.502   6.307   1.116
 6238SOL     OW37400   3.862   9.990   1.878
 6238SOL    HW137401   3.946  10.033   1.911
 6238SOL    HW237402   3.804   9.965   1.955
 6239SOL     OW37403   8.874   5.252   8.772
 6239SOL    HW137404   8.960   5.214   8.737
 6239SOL    HW237405   8.884   5.272   0.088
 6240SOL     OW37406   1.777   8.531   1.940
 6240SOL    HW137407   1.875   8.523   1.961
 6240SOL    HW237408   1.724   8.503   2.020
 6241SOL     OW37409   6.076   4.749   1.961
 6241SOL    HW137410   6.061   4.699   2.047
 6241SOL    HW237411   6.173   4.771   1.953
 6242SOL     OW37412   0.158   6.556   6.559
 6242SOL    HW137413   0.177   6.652   6.538
 6242SOL    HW237414   0.244   6.507   6.568
 6243SOL     OW37415   1.809   6.461   0.755
 6243SOL    HW137416   1.896   6.469   0.706
 6243SOL    HW237417   1.745   6.406   0.701
 6244SOL     OW37418   9.958   2.936   1.500
 6244SOL    HW137419   9.900   2.876   1.555
 6244SOL    HW237420  10.050   2.940   1.540
 6245SOL     OW37421   2.711  10.485   0.862
 6245SOL    HW137422   2.745  10.445   0.777
 6245SOL    HW237423   2.665  10.415   0.916
 6246SOL     OW37424   6.166   7.953   6.747
 6246SOL    HW137425   6.122   7.912   6.827
 6246SOL    HW237426   6.170   7.886   6.673
 6247SOL     OW37427   9.043   7.860   6.211
 6247SOL    HW137428   9.002   7.775   6.244
 6247SOL    HW237429   8.999   7.887   6.126
 6248SOL     OW37430   5.544   5.098   8.049
 6248SOL    HW137431   5.521   5.001   8.058
 6248SOL    HW237432   5.542   5.124   7.953
 6249SOL     OW37433   5.134   7.788   7.562
 6249SOL    HW137434   5.116   7.700   7.517
 6249SOL    HW237435   5.188   7.773   7.645
 6250SOL     OW37436   8.979   3.795   8.005
 6250SOL    HW137437   8.921   3.716   7.987
 6250SOL    HW237438   8.971   3.860   7.929
 6251SOL     OW37439   3.521   0.708   0.821
 6251SOL    HW137440   3.465   0.775   0.871
 6251SOL    HW237441   3.603   0.752   0.787
 6252SOL     OW37442   7.519   9.666   2.267
 6252SOL    HW137443   7.540   9.604   2.343
 6252SOL    HW237444   7.501   9.757   2.302
 6253SOL     OW37445   9.720   9.000   6.949
 6253SOL    HW137446   9.761   8.946   6.875
 6253SOL    HW237447   9.742   8.959   7.037
 6254SOL     OW37448   6.299   0.337   2.033
 6254SOL    HW137449   6.212   0.378   2.058
 6254SOL    HW237450   6.328   0.372   1.944
 6255SOL     OW37451   5.393   6.660   1.423
 6255SOL    HW137452   5.430   6.738   1.475
 6255SOL    HW237453   5.329   6.694   1.354
 6256SOL     OW37454   1.422   4.883   8.057
 6256SOL    HW137455   1.504   4.921   8.099
 6256SOL    HW237456   1.391   4.803   8.108
 6257SOL     OW37457   5.422   8.989   0.651
 6257SOL    HW137458   5.459   8.984   0.744
 6257SOL    HW237459   5.482   9.047   0.595
 6258SOL     OW37460   1.147   4.101   6.525
 6258SOL    HW137461   1.084   4.151   6.465
 6258SOL    HW237462   1.235   4.148   6.528
 6259SOL     OW37463   7.584   3.008   0.855
 6259SOL    HW137464   7.627   3.068   0.922
 6259SOL    HW237465   7.494   2.980   0.888
 6260SOL     OW37466   5.380   5.430   0.750
 6260SOL    HW137467   5.370   5.405   0.847
 6260SOL    HW237468   5.310   5.382   0.697
 6261SOL     OW37469   5.603   3.528   0.949
 6261SOL    HW137470   5.677   3.527   1.017
 6261SOL    HW237471   5.517   3.506   0.994
 6262SOL     OW37472   1.170   4.375   8.308
 6262SOL    HW137473   1.113   4.457   8.306
 6262SOL    HW237474   1.164   4.333   8.399
 6263SOL     OW37475   4.962   0.306   0.543
 6263SOL    HW137476   5.033   0.273   0.481
 6263SOL    HW237477   4.992   0.292   0.638
 6264SOL     OW37478   9.942   2.809   8.737
 6264SOL    HW137479   9.889   2.749   8.677
 6264SOL    HW237480  10.019   2.848   8.686
 6265SOL     OW37481   7.076   7.438   0.326
 6265SOL    HW137482   7.114   7.383   0.400
 6265SOL    HW237483   6.988   7.399   0.298
 6266SOL     OW37484   2.025   3.365   0.902
 6266SOL    HW137485   1.927   3.384   0.910
 6266SOL    HW237486   2.077   3.435   0.950
 6267SOL     OW37487   1.547  10.423   7.822
 6267SOL    HW137488   1.625  10.360   7.823
 6267SOL    HW237489   1.562  10.496   7.889
 6268SOL     OW37490   2.739   3.543   6.489
 6268SOL    HW137491   2.751   3.447   6.513
 6268SOL    HW237492   2.747   3.554   6.390
 6269SOL     OW37493   1.365   6.653   6.509
 6269SOL    HW137494   1.320   6.704   6.436
 6269SOL    HW237495   1.449   6.611   6.474
 6270SOL     OW37496   1.162   2.268   8.555
 6270SOL    HW137497   1.158   2.281   8.456
 6270SOL    HW237498   1.247   2.308   8.590
 6271SOL     OW37499   0.235   0.252   0.152
 6271SOL    HW137500   0.211   0.173   0.096
 6271SOL    HW237501   0.209   0.336   0.104
 6272SOL     OW37502   3.559   5.984   7.415
 6272SOL    HW137503   3.640   5.931   7.443
 6272SOL    HW237504   3.478   5.925   7.420
 6273SOL     OW37505   1.142   4.011   1.764
 6273SOL    HW137506   1.235   3.988   1.793
 6273SOL    HW237507   1.096   4.063   1.836
 6274SOL     OW37508   1.188   5.483   7.298
 6274SOL    HW137509   1.176   5.435   7.384
 6274SOL    HW237510   1.160   5.424   7.222
 6275SOL     OW37511   7.377   0.213   7.723
 6275SOL    HW137512   7.372   0.259   7.634
 6275SOL    HW237513   7.346   0.276   7.794
 6276SOL     OW37514   6.860   4.936   0.975
 6276SOL    HW137515   6.890   5.019   0.928
 6276SOL    HW237516   6.908   4.927   1.062
 6277SOL     OW37517   3.893   9.070   1.412
 6277SOL    HW137518   3.909   8.979   1.451
 6277SOL    HW237519   3.803   9.103   1.440
 6278SOL     OW37520   1.470   3.092   1.493
 6278SOL    HW137521   1.518   3.036   1.425
 6278SOL    HW237522   1.445   3.179   1.452
 6279SOL     OW37523   2.134   6.768   0.446
 6279SOL    HW137524   2.059   6.704   0.430
 6279SOL    HW237525   2.202   6.726   0.506
 6280SOL     OW37526   6.483   2.905   0.516
 6280SOL    HW137527   6.423   2.831   0.485
 6280SOL    HW237528   6.429   2.988   0.532
 6281SOL     OW37529   5.332   9.447   0.913
 6281SOL    HW137530   5.381   9.457   0.826
 6281SOL    HW237531   5.329   9.536   0.959
 6282SOL     OW37532   7.948   9.287   1.982
 6282SOL    HW137533   7.995   9.374   1.999
 6282SOL    HW237534   7.907   9.288   1.891
 6283SOL     OW37535   4.571   7.707   1.627
 6283SOL    HW137536   4.565   7.662   1.716
 6283SOL    HW237537   4.642   7.777   1.630
 6284SOL     OW37538   6.480   9.328   1.083
 6284SOL    HW137539   6.517   9.354   0.994
 6284SOL    HW237540   6.385   9.360   1.089
 6285SOL     OW37541   1.769   7.429   7.377
 6285SOL    HW137542   1.838   7.453   7.445
 6285SOL    HW237543   1.721   7.346   7.407
 6286SOL     OW37544   9.529   4.806   0.222
 6286SOL    HW137545   9.539   4.743   0.299
 6286SOL    HW237546   9.433   4.809   0.194
 6287SOL     OW37547   5.317  10.221   7.012
 6287SOL    HW137548   5.348  10.227   7.107
 6287SOL    HW237549   5.222  10.190   7.010
 6288SOL     OW37550   8.797   4.961   8.261
 6288SOL    HW137551   8.881   4.965   8.314
 6288SOL    HW237552   8.766   4.866   8.254
 6289SOL     OW37553   1.313   1.263   6.762
 6289SOL    HW137554   1.269   1.337   6.712
 6289SOL    HW237555   1.380   1.218   6.703
 6290SOL     OW37556   7.993   8.937   7.017
 6290SOL    HW137557   7.976   9.035   7.004
 6290SOL    HW237558   7.906   8.888   7.017
 6291SOL     OW37559   7.336   6.277   7.772
 6291SOL    HW137560   7.396   6.248   7.846
 6291SOL    HW237561   7.241   6.254   7.795
 6292SOL     OW37562   0.999   7.462   6.765
 6292SOL    HW137563   0.933   7.413   6.822
 6292SOL    HW237564   0.964   7.468   6.671
 6293SOL     OW37565   5.147   2.783   8.182
 6293SOL    HW137566   5.179   2.871   8.218
 6293SOL    HW237567   5.062   2.797   8.130
 6294SOL     OW37568   1.537   6.733   0.809
 6294SOL    HW137569   1.626   6.772   0.786
 6294SOL    HW237570   1.510   6.761   0.901
 6295SOL     OW37571   3.201   4.599   1.891
 6295SOL    HW137572   3.242   4.589   1.982
 6295SOL    HW237573   3.158   4.689   1.885
 6296SOL     OW37574   9.888   5.852   7.624
 6296SOL    HW137575   9.832   5.928   7.657
 6296SOL    HW237576   9.892   5.856   7.524
 6297SOL     OW37577   4.097   0.307   6.834
 6297SOL    HW137578   4.032   0.352   6.773
 6297SOL    HW237579   4.147   0.376   6.886
 6298SOL     OW37580   4.483   9.350   0.363
 6298SOL    HW137581   4.421   9.406   0.308
 6298SOL    HW237582   4.438   9.263   0.385
 6299SOL     OW37583   0.186   2.340   6.915
 6299SOL    HW137584   0.193   2.407   6.989
 6299SOL    HW237585   0.124   2.266   6.943
 6300SOL     OW37586   8.335   0.068   2.378
 6300SOL    HW137587   8.349   0.161   2.412
 6300SOL    HW237588   8.244   0.036   2.405
 6301SOL     OW37589   8.721   5.878   6.298
 6301SOL    HW137590   8.818   5.889   6.280
 6301SOL    HW237591   8.671   5.873   6.211
 6302SOL     OW37592   8.843   1.031   0.469
 6302SOL    HW137593   8.937   1.048   0.437
 6302SOL    HW237594   8.809   1.111   0.518
 6303SOL     OW37595   6.220   1.215   7.356
 6303SOL    HW137596   6.295   1.271   7.393
 6303SOL    HW237597   6.214   1.130   7.407
 6304SOL     OW37598   3.048   2.720   7.028
 6304SOL    HW137599   3.026   2.642   6.969
 6304SOL    HW237600   3.043   2.692   7.124
 6305SOL     OW37601   2.049   3.460   0.384
 6305SOL    HW137602   2.090   3.376   0.349
 6305SOL    HW237603   2.068   3.467   0.482
 6306SOL     OW37604   8.828   8.563   0.041
 6306SOL    HW137605   8.830   8.661   0.022
 6306SOL    HW237606   8.744   8.523   0.005
 6307SOL     OW37607   0.200   7.220   8.650
 6307SOL    HW137608   0.258   7.301   8.659
 6307SOL    HW237609   0.173   7.209   8.554
 6308SOL     OW37610   2.495   3.476   0.742
 6308SOL    HW137611   2.509   3.390   0.790
 6308SOL    HW237612   2.502   3.461   0.644
 6309SOL     OW37613   0.722   1.914   6.983
 6309SOL    HW137614   0.771   1.841   6.936
 6309SOL    HW237615   0.745   2.002   6.941
 6310SOL     OW37616   0.066   8.304   7.655
 6310SOL    HW137617  10.129   8.273   7.663
 6310SOL    HW237618   0.070   8.379   7.589
 6311SOL     OW37619   3.110   7.450   1.553
 6311SOL    HW137620   3.133   7.489   1.464
 6311SOL    HW237621   3.064   7.518   1.609
 6312SOL     OW37622   6.537   5.241   8.652
 6312SOL    HW137623   6.488   5.292   8.581
 6312SOL    HW237624   6.594   5.305   8.705
 6313SOL     OW37625   1.362   1.869   8.572
 6313SOL    HW137626   1.414   1.873   8.486
 6313SOL    HW237627   1.278   1.817   8.558
 6314SOL     OW37628   2.734   3.557   1.129
 6314SOL    HW137629   2.723   3.578   1.031
 6314SOL    HW237630   2.715   3.460   1.144
 6315SOL     OW37631   9.434   1.665   8.338
 6315SOL    HW137632   9.338   1.692   8.346
 6315SOL    HW237633   9.457   1.651   8.241
 6316SOL     OW37634   0.782   1.785   0.045
 6316SOL    HW137635   0.791   1.845   8.747
 6316SOL    HW237636   0.778   1.840   0.128
 6317SOL     OW37637   6.632   0.778   8.767
 6317SOL    HW137638   6.654   0.794   0.081
 6317SOL    HW237639   6.651   0.861   8.714
 6318SOL     OW37640   9.327   6.708   8.309
 6318SOL    HW137641   9.407   6.704   8.249
 6318SOL    HW237642   9.284   6.798   8.302
 6319SOL     OW37643   2.540   2.905   1.094
 6319SOL    HW137644   2.583   2.815   1.086
 6319SOL    HW237645   2.456   2.907   1.040
 6320SOL     OW37646   2.686   8.710   0.806
 6320SOL    HW137647   2.692   8.795   0.753
 6320SOL    HW237648   2.687   8.732   0.904
 6321SOL     OW37649   6.153   3.176   8.414
 6321SOL    HW137650   6.057   3.206   8.410
 6321SOL    HW237651   6.168   3.125   8.498
 6322SOL     OW37652   0.732   6.724   1.586
 6322SOL    HW137653   0.791   6.660   1.635
 6322SOL    HW237654   0.784   6.806   1.561
 6323SOL     OW37655   5.061   2.060   0.243
 6323SOL    HW137656   5.002   2.059   0.324
 6323SOL    HW237657   5.137   1.996   0.257
 6324SOL     OW37658   6.404   9.087   7.552
 6324SOL    HW137659   6.424   9.172   7.503
 6324SOL    HW237660   6.489   9.050   7.590
 6325SOL     OW37661   9.059   7.758   8.743
 6325SOL    HW137662   9.152   7.730   8.722
 6325SOL    HW237663   9.029   7.825   8.675
 6326SOL     OW37664   0.746   9.099   7.784
 6326SOL    HW137665   0.844   9.117   7.786
 6326SOL    HW237666   0.709   9.121   7.693
 6327SOL     OW37667   7.119   6.455   7.555
 6327SOL    HW137668   7.120   6.359   7.528
 6327SOL    HW237669   7.212   6.486   7.574
 6328SOL     OW37670   5.806   3.524   0.088
 6328SOL    HW137671   5.768   3.503   0.178
 6328SOL    HW237672   5.894   3.478   0.077
 6329SOL     OW37673   9.884   7.375   7.041
 6329SOL    HW137674   9.851   7.439   6.971
 6329SOL    HW237675   9.960   7.417   7.090
 6330SOL     OW37676   7.806   5.527   8.344
 6330SOL    HW137677   7.793   5.617   8.304
 6330SOL    HW237678   7.719   5.477   8.343
 6331SOL     OW37679   9.655   6.432   7.525
 6331SOL    HW137680   9.712   6.351   7.524
 6331SOL    HW237681   9.592   6.429   7.447
 6332SOL     OW37682   0.021   5.919   7.282
 6332SOL    HW137683   0.027   5.888   7.187
 6332SOL    HW237684   0.018   6.019   7.284
 6333SOL     OW37685   0.070   9.108   1.801
 6333SOL    HW137686   0.100   9.087   1.708
 6333SOL    HW237687   0.088   9.205   1.820
 6334SOL     OW37688   0.610   7.023   8.403
 6334SOL    HW137689   0.619   7.118   8.375
 6334SOL    HW237690   0.514   6.995   8.398
 6335SOL     OW37691   8.069   0.825   8.719
 6335SOL    HW137692   8.014   0.760   8.772
 6335SOL    HW237693   8.164   0.822   8.750
 6336SOL     OW37694   6.974   1.002   0.814
 6336SOL    HW137695   7.034   0.925   0.835
 6336SOL    HW237696   7.008   1.051   0.734
 6337SOL     OW37697   6.407   3.917   6.586
 6337SOL    HW137698   6.429   3.981   6.660
 6337SOL    HW237699   6.328   3.950   6.536
 6338SOL     OW37700   4.536   7.851   2.099
 6338SOL    HW137701   4.520   7.949   2.112
 6338SOL    HW237702   4.457   7.810   2.055
 6339SOL     OW37703   9.574   7.252   0.899
 6339SOL    HW137704   9.586   7.190   0.977
 6339SOL    HW237705   9.636   7.225   0.825
 6340SOL     OW37706   3.874   2.033   7.294
 6340SOL    HW137707   3.968   2.009   7.270
 6340SOL    HW237708   3.874   2.091   7.375
 6341SOL     OW37709   9.060   7.149   0.584
 6341SOL    HW137710   8.988   7.179   0.646
 6341SOL    HW237711   9.084   7.054   0.604
 6342SOL     OW37712   0.754   5.749   0.758
 6342SOL    HW137713   0.720   5.832   0.714
 6342SOL    HW237714   0.701   5.671   0.725
 6343SOL     OW37715   8.581   8.474   8.750
 6343SOL    HW137716   8.544   8.384   8.772
 6343SOL    HW237717   8.547   8.541   0.035
 6344SOL     OW37718   7.515   9.186   8.726
 6344SOL    HW137719   7.534   9.115   0.013
 6344SOL    HW237720   7.449   9.251   8.764
 6345SOL     OW37721   5.270   2.248   1.070
 6345SOL    HW137722   5.309   2.340   1.063
 6345SOL    HW237723   5.328   2.192   1.130
 6346SOL     OW37724   1.176   1.790   1.881
 6346SOL    HW137725   1.180   1.714   1.945
 6346SOL    HW237726   1.250   1.782   1.815
 6347SOL     OW37727   1.847   0.269   6.553
 6347SOL    HW137728   1.826   0.316   6.467
 6347SOL    HW237729   1.800   0.316   6.629
 6348SOL     OW37730   0.373   3.993   2.156
 6348SOL    HW137731   0.393   4.056   2.231
 6348SOL    HW237732   0.459   3.957   2.119
 6349SOL     OW37733   9.292   1.172   0.862
 6349SOL    HW137734   9.208   1.173   0.807
 6349SOL    HW237735   9.318   1.266   0.883
 6350SOL     OW37736   5.534   5.364   8.132
 6350SOL    HW137737   5.540   5.264   8.130
 6350SOL    HW237738   5.504   5.394   8.223
 6351SOL     OW37739   0.674  10.279   7.132
 6351SOL    HW137740   0.676  10.187   7.092
 6351SOL    HW237741   0.651  10.345   7.062
 6352SOL     OW37742   3.814   0.739   8.005
 6352SOL    HW137743   3.822   0.688   7.919
 6352SOL    HW237744   3.730   0.712   8.051
 6353SOL     OW37745   6.944   7.782   2.238
 6353SOL    HW137746   7.010   7.747   2.304
 6353SOL    HW237747   6.969   7.875   2.211
 6354SOL     OW37748   3.237   7.980   0.031
 6354SOL    HW137749   3.312   7.985   8.747
 6354SOL    HW237750   3.173   8.055   0.013
 6355SOL     OW37751   2.340   6.171   8.269
 6355SOL    HW137752   2.255   6.220   8.284
 6355SOL    HW237753   2.418   6.233   8.280
 6356SOL     OW37754   6.836   7.329   0.278
 6356SOL    HW137755   6.854   7.231   0.275
 6356SOL    HW237756   6.741   7.344   0.307
 6357SOL     OW37757   9.486   2.011   6.147
 6357SOL    HW137758   9.481   1.914   6.121
 6357SOL    HW237759   9.405   2.035   6.201
 6358SOL     OW37760   8.367   9.282   1.119
 6358SOL    HW137761   8.337   9.360   1.064
 6358SOL    HW237762   8.292   9.217   1.129
 6359SOL     OW37763   1.435   2.085   2.187
 6359SOL    HW137764   1.515   2.134   2.153
 6359SOL    HW237765   1.458   1.988   2.199
 6360SOL     OW37766   2.637   5.708   0.540
 6360SOL    HW137767   2.717   5.730   0.485
 6360SOL    HW237768   2.615   5.785   0.599
 6361SOL     OW37769   3.537   1.282   6.780
 6361SOL    HW137770   3.537   1.278   6.680
 6361SOL    HW237771   3.553   1.191   6.817
 6362SOL     OW37772   1.498   8.018   0.786
 6362SOL    HW137773   1.477   7.988   0.879
 6362SOL    HW237774   1.521   7.939   0.729
 6363SOL     OW37775   1.184   9.863   7.993
 6363SOL    HW137776   1.185   9.885   8.091
 6363SOL    HW237777   1.278   9.862   7.958
 6364SOL     OW37778   4.123   2.406   0.775
 6364SOL    HW137779   4.032   2.442   0.794
 6364SOL    HW237780   4.191   2.477   0.793
 6365SOL     OW37781   6.119   4.838   7.791
 6365SOL    HW137782   6.218   4.829   7.787
 6365SOL    HW237783   6.078   4.786   7.716
 6366SOL     OW37784   5.015   6.591   7.677
 6366SOL    HW137785   5.075   6.588   7.597
 6366SOL    HW237786   4.987   6.685   7.695
 6367SOL     OW37787   5.233   3.580   8.303
 6367SOL    HW137788   5.246   3.563   8.400
 6367SOL    HW237789   5.290   3.516   8.250
 6368SOL     OW37790   9.895   1.849   7.679
 6368SOL    HW137791   9.863   1.760   7.648
 6368SOL    HW237792   9.823   1.917   7.668
 6369SOL     OW37793   3.115   9.768   0.669
 6369SOL    HW137794   3.157   9.801   0.584
 6369SOL    HW237795   3.028   9.814   0.684
 6370SOL     OW37796   2.518   8.874   8.292
 6370SOL    HW137797   2.434   8.928   8.296
 6370SOL    HW237798   2.516   8.814   8.213
 6371SOL     OW37799   3.293   4.186   6.427
 6371SOL    HW137800   3.287   4.118   6.354
 6371SOL    HW237801   3.277   4.141   6.515
 6372SOL     OW37802   9.011   1.303   8.048
 6372SOL    HW137803   9.004   1.305   7.948
 6372SOL    HW237804   9.042   1.212   8.077
 6373SOL     OW37805   6.574   0.521   7.868
 6373SOL    HW137806   6.627   0.590   7.817
 6373SOL    HW237807   6.624   0.434   7.868
 6374SOL     OW37808   3.942   7.101   8.368
 6374SOL    HW137809   4.005   7.035   8.330
 6374SOL    HW237810   3.849   7.080   8.339
 6375SOL     OW37811   2.716   9.060   8.034
 6375SOL    HW137812   2.617   9.073   8.046
 6375SOL    HW237813   2.734   9.028   7.941
 6376SOL     OW37814   3.398   3.770   6.720
 6376SOL    HW137815   3.494   3.795   6.719
 6376SOL    HW237816   3.367   3.751   6.627
 6377SOL     OW37817   6.385   2.863   2.297
 6377SOL    HW137818   6.472   2.905   2.271
 6377SOL    HW237819   6.317   2.935   2.312
 6378SOL     OW37820   4.369  10.446   5.810
 6378SOL    HW137821   4.309  10.383   5.860
 6378SOL    HW237822   4.333   0.036   5.816
 6379SOL     OW37823   0.599   4.084   0.872
 6379SOL    HW137824   0.697   4.063   0.869
 6379SOL    HW237825   0.580   4.163   0.813
 6380SOL     OW37826   5.381   1.549   6.374
 6380SOL    HW137827   5.327   1.633   6.366
 6380SOL    HW237828   5.428   1.532   6.288
 6381SOL     OW37829   9.300   5.983   1.642
 6381SOL    HW137830   9.301   5.956   1.738
 6381SOL    HW237831   9.263   6.076   1.635
 6382SOL     OW37832   2.534   7.668   8.423
 6382SOL    HW137833   2.625   7.661   8.463
 6382SOL    HW237834   2.477   7.729   8.478
 6383SOL     OW37835   5.732   3.247   1.090
 6383SOL    HW137836   5.777   3.272   1.005
 6383SOL    HW237837   5.747   3.319   1.158
 6384SOL     OW37838  10.143   3.377   1.280
 6384SOL    HW137839  10.118   3.473   1.293
 6384SOL    HW237840  10.080   3.335   1.215
 6385SOL     OW37841   4.514   3.538   0.101
 6385SOL    HW137842   4.477   3.496   0.018
 6385SOL    HW237843   4.534   3.634   0.083
 6386SOL     OW37844   2.362   6.125   0.379
 6386SOL    HW137845   2.330   6.072   0.300
 6386SOL    HW237846   2.454   6.160   0.360
 6387SOL     OW37847   0.422   1.611   0.936
 6387SOL    HW137848   0.330   1.646   0.920
 6387SOL    HW237849   0.452   1.636   1.028
 6388SOL     OW37850   0.275   8.693   7.819
 6388SOL    HW137851   0.238   8.603   7.842
 6388SOL    HW237852   0.203   8.750   7.781
 6389SOL     OW37853   8.355   2.776   1.891
 6389SOL    HW137854   8.355   2.706   1.962
 6389SOL    HW237855   8.318   2.737   1.806
 6390SOL     OW37856   0.217   6.865   0.207
 6390SOL    HW137857   0.172   6.786   0.165
 6390SOL    HW237858   0.261   6.920   0.136
 6391SOL     OW37859   9.600   2.506   0.194
 6391SOL    HW137860   9.605   2.604   0.173
 6391SOL    HW237861   9.548   2.493   0.278
 6392SOL     OW37862   0.850   8.489   7.677
 6392SOL    HW137863   0.944   8.485   7.712
 6392SOL    HW237864   0.845   8.437   7.592
 6393SOL     OW37865   5.078   4.469   8.541
 6393SOL    HW137866   5.125   4.381   8.539
 6393SOL    HW237867   5.110   4.525   8.465
 6394SOL     OW37868   6.713   8.899   7.279
 6394SOL    HW137869   6.639   8.834   7.266
 6394SOL    HW237870   6.676   8.984   7.317
 6395SOL     OW37871   5.004   2.446   0.347
 6395SOL    HW137872   4.957   2.523   0.390
 6395SOL    HW237873   5.032   2.381   0.418
 6396SOL     OW37874   1.898   2.695   2.108
 6396SOL    HW137875   1.955   2.655   2.180
 6396SOL    HW237876   1.956   2.749   2.047
 6397SOL     OW37877   0.957   7.420   7.183
 6397SOL    HW137878   0.990   7.345   7.240
 6397SOL    HW237879   0.887   7.471   7.233
 6398SOL     OW37880   0.819   7.165   6.582
 6398SOL    HW137881   0.750   7.227   6.546
 6398SOL    HW237882   0.883   7.140   6.509
 6399SOL     OW37883   5.320  10.043   0.097
 6399SOL    HW137884   5.410  10.026   0.138
 6399SOL    HW237885   5.287  10.133   0.125
 6400SOL     OW37886   3.966   7.368   8.283
 6400SOL    HW137887   4.049   7.407   8.323
 6400SOL    HW237888   3.955   7.274   8.314
 6401SOL     OW37889   8.112   9.127   8.780
 6401SOL    HW137890   8.046   9.072   8.729
 6401SOL    HW237891   8.069   9.163   0.081
 6402SOL     OW37892   8.023   4.703   7.971
 6402SOL    HW137893   8.095   4.645   7.932
 6402SOL    HW237894   8.062   4.758   8.046
 6403SOL     OW37895   3.267   2.539   7.279
 6403SOL    HW137896   3.170   2.562   7.275
 6403SOL    HW237897   3.279   2.443   7.253
 6404SOL     OW37898   2.952   1.911   7.756
 6404SOL    HW137899   2.923   2.004   7.779
 6404SOL    HW237900   3.030   1.915   7.693
 6405SOL     OW37901   3.422   7.147   1.490
 6405SOL    HW137902   3.396   7.057   1.454
 6405SOL    HW237903   3.366   7.167   1.571
 6406SOL     OW37904   7.252   2.662   7.207
 6406SOL    HW137905   7.183   2.733   7.198
 6406SOL    HW237906   7.209   2.572   7.203
 6407SOL     OW37907   0.600   5.657   7.855
 6407SOL    HW137908   0.605   5.593   7.932
 6407SOL    HW237909   0.549   5.738   7.883
 6408SOL     OW37910   4.240   4.614   7.984
 6408SOL    HW137911   4.169   4.594   7.916
 6408SOL    HW237912   4.197   4.632   8.072
 6409SOL     OW37913   5.944   7.169   6.370
 6409SOL    HW137914   5.856   7.178   6.324
 6409SOL    HW237915   6.012   7.134   6.305
 6410SOL     OW37916   7.801   0.107   8.139
 6410SOL    HW137917   7.722   0.083   8.194
 6410SOL    HW237918   7.834   0.198   8.166
 6411SOL     OW37919   5.478   4.708   7.289
 6411SOL    HW137920   5.397   4.678   7.340
 6411SOL    HW237921   5.454   4.785   7.230
 6412SOL     OW37922   2.379   5.310   1.327
 6412SOL    HW137923   2.460   5.278   1.375
 6412SOL    HW237924   2.309   5.336   1.393
 6413SOL     OW37925   9.677   4.840   1.538
 6413SOL    HW137926   9.726   4.912   1.488
 6413SOL    HW237927   9.733   4.808   1.613
 6414SOL     OW37928   1.434   5.603   7.315
 6414SOL    HW137929   1.491   5.559   7.246
 6414SOL    HW237930   1.341   5.568   7.310
 6415SOL     OW37931   4.212   9.626   8.080
 6415SOL    HW137932   4.278   9.645   8.008
 6415SOL    HW237933   4.208   9.527   8.095
 6416SOL     OW37934  10.070   6.837   8.756
 6416SOL    HW137935  10.079   6.816   8.659
 6416SOL    HW237936  10.089   6.934   8.771
 6417SOL     OW37937   6.749   7.993   0.225
 6417SOL    HW137938   6.716   8.087   0.234
 6417SOL    HW237939   6.728   7.942   0.308
 6418SOL     OW37940   4.124   2.740   0.644
 6418SOL    HW137941   4.170   2.816   0.598
 6418SOL    HW237942   4.188   2.693   0.704
 6419SOL     OW37943   0.459   1.443   6.580
 6419SOL    HW137944   0.428   1.525   6.533
 6419SOL    HW237945   0.389   1.372   6.575
 6420SOL     OW37946   8.636   3.555   1.475
 6420SOL    HW137947   8.652   3.588   1.569
 6420SOL    HW237948   8.636   3.455   1.474
 6421SOL     OW37949   7.159   4.678   6.988
 6421SOL    HW137950   7.173   4.611   7.061
 6421SOL    HW237951   7.097   4.641   6.920
 6422SOL     OW37952   9.106   1.058   8.115
 6422SOL    HW137953   9.050   0.998   8.172
 6422SOL    HW237954   9.201   1.057   8.148
 6423SOL     OW37955   3.401   1.562   8.062
 6423SOL    HW137956   3.458   1.644   8.073
 6423SOL    HW237957   3.457   1.487   8.025
 6424SOL     OW37958   9.238   7.500   7.033
 6424SOL    HW137959   9.267   7.596   7.025
 6424SOL    HW237960   9.154   7.496   7.087
 6425SOL     OW37961   3.932   3.151   7.387
 6425SOL    HW137962   3.832   3.140   7.386
 6425SOL    HW237963   3.968   3.114   7.472
 6426SOL     OW37964   3.917   8.914   7.277
 6426SOL    HW137965   3.980   8.880   7.348
 6426SOL    HW237966   3.829   8.936   7.319
 6427SOL     OW37967   0.150  10.344   6.581
 6427SOL    HW137968   0.144  10.250   6.547
 6427SOL    HW237969   0.128  10.408   6.507
 6428SOL     OW37970   9.440   3.063   1.634
 6428SOL    HW137971   9.372   3.104   1.696
 6428SOL    HW237972   9.514   3.024   1.688
 6429SOL     OW37973   9.243   5.169   2.034
 6429SOL    HW137974   9.299   5.086   2.041
 6429SOL    HW237975   9.298   5.249   2.059
 6430SOL     OW37976   4.722   7.368   1.733
 6430SOL    HW137977   4.790   7.366   1.806
 6430SOL    HW237978   4.766   7.393   1.647
 6431SOL     OW37979   7.862   2.268   0.371
 6431SOL    HW137980   7.919   2.350   0.368
 6431SOL    HW237981   7.831   2.245   0.278
 6432SOL     OW37982   9.384   1.873   0.176
 6432SOL    HW137983   9.443   1.826   0.242
 6432SOL    HW237984   9.335   1.947   0.223
 6433SOL     OW37985   2.898   2.052   6.395
 6433SOL    HW137986   2.814   2.015   6.358
 6433SOL    HW237987   2.957   2.084   6.320
 6434SOL     OW37988   8.234   5.653   8.406
 6434SOL    HW137989   8.169   5.692   8.341
 6434SOL    HW237990   8.295   5.590   8.359
 6435SOL     OW37991   8.384   4.894   8.167
 6435SOL    HW137992   8.428   4.966   8.220
 6435SOL    HW237993   8.306   4.932   8.116
 6436SOL     OW37994   6.568   1.524   7.893
 6436SOL    HW137995   6.665   1.532   7.915
 6436SOL    HW237996   6.554   1.543   7.796
 6437SOL     OW37997   8.652   7.355   1.104
 6437SOL    HW137998   8.741   7.389   1.134
 6437SOL    HW237999   8.598   7.431   1.067
 6438SOL     OW38000   1.883   1.456   7.352
 6438SOL    HW138001   1.955   1.391   7.324
 6438SOL    HW238002   1.834   1.488   7.271
 6439SOL     OW38003   8.754   3.606   6.793
 6439SOL    HW138004   8.789   3.615   6.700
 6439SOL    HW238005   8.671   3.661   6.802
 6440SOL     OW38006   9.337   0.273   7.871
 6440SOL    HW138007   9.336   0.324   7.785
 6440SOL    HW238008   9.273   0.196   7.866
 6441SOL     OW38009   8.380   9.391   2.086
 6441SOL    HW138010   8.352   9.420   2.178
 6441SOL    HW238011   8.355   9.296   2.071
 6442SOL     OW38012   9.013   4.846   0.744
 6442SOL    HW138013   8.982   4.941   0.748
 6442SOL    HW238014   9.063   4.824   0.827
 6443SOL     OW38015   8.527   4.531   1.121
 6443SOL    HW138016   8.521   4.431   1.119
 6443SOL    HW238017   8.615   4.560   1.084
 6444SOL     OW38018   4.892   0.155   8.312
 6444SOL    HW138019   4.955   0.203   8.372
 6444SOL    HW238020   4.886   0.202   8.224
 6445SOL     OW38021   6.895   4.731   1.399
 6445SOL    HW138022   6.930   4.805   1.342
 6445SOL    HW238023   6.872   4.653   1.341
 6446SOL     OW38024   4.557   2.213   1.944
 6446SOL    HW138025   4.568   2.290   2.007
 6446SOL    HW238026   4.647   2.184   1.911
 6447SOL     OW38027   3.629   7.381   1.807
 6447SOL    HW138028   3.602   7.429   1.723
 6447SOL    HW238029   3.622   7.282   1.792
 6448SOL     OW38030   4.050   0.029   0.506
 6448SOL    HW138031   3.980  10.460   0.509
 6448SOL    HW238032   4.112   0.011   0.430
 6449SOL     OW38033   0.519   9.630   7.858
 6449SOL    HW138034   0.431   9.599   7.822
 6449SOL    HW238035   0.580   9.551   7.868
 6450SOL     OW38036   0.990   2.053   1.563
 6450SOL    HW138037   0.985   1.962   1.605
 6450SOL    HW238038   1.082   2.069   1.528
 6451SOL     OW38039   3.930   8.412   1.838
 6451SOL    HW138040   3.863   8.478   1.802
 6451SOL    HW238041   3.912   8.322   1.799
 6452SOL     OW38042   9.277   7.970   0.363
 6452SOL    HW138043   9.218   8.050   0.374
 6452SOL    HW238044   9.229   7.901   0.309
 6453SOL     OW38045   3.373   4.997   0.471
 6453SOL    HW138046   3.400   4.985   0.375
 6453SOL    HW238047   3.286   5.045   0.475
 6454SOL     OW38048   9.382   3.989   7.650
 6454SOL    HW138049   9.309   3.995   7.718
 6454SOL    HW238050   9.423   4.079   7.637
 6455SOL     OW38051   5.904   1.820   0.277
 6455SOL    HW138052   5.851   1.900   0.251
 6455SOL    HW238053   5.925   1.766   0.195
 6456SOL     OW38054   8.300   5.902   8.528
 6456SOL    HW138055   8.328   5.972   8.462
 6456SOL    HW238056   8.277   5.818   8.480
 6457SOL     OW38057   6.622   2.189   6.627
 6457SOL    HW138058   6.652   2.165   6.535
 6457SOL    HW238059   6.532   2.148   6.644
 6458SOL     OW38060   9.357   8.002   7.146
 6458SOL    HW138061   9.420   7.924   7.140
 6458SOL    HW238062   9.311   8.001   7.235
 6459SOL     OW38063   8.974  10.328   8.068
 6459SOL    HW138064   8.974  10.427   8.083
 6459SOL    HW238065   8.967  10.310   7.970
 6460SOL     OW38066   4.997   2.141   6.453
 6460SOL    HW138067   5.060   2.167   6.380
 6460SOL    HW238068   4.943   2.062   6.423
 6461SOL     OW38069   2.737   2.466   1.806
 6461SOL    HW138070   2.801   2.408   1.856
 6461SOL    HW238071   2.781   2.555   1.788
 6462SOL     OW38072   0.894   2.370   7.901
 6462SOL    HW138073   0.822   2.438   7.889
 6462SOL    HW238074   0.882   2.324   7.989
 6463SOL     OW38075   1.441   2.177   6.521
 6463SOL    HW138076   1.463   2.250   6.456
 6463SOL    HW238077   1.353   2.137   6.497
 6464SOL     OW38078   7.377   5.685   0.572
 6464SOL    HW138079   7.304   5.704   0.637
 6464SOL    HW238080   7.375   5.752   0.498
 6465SOL     OW38081   9.235   8.871   2.614
 6465SOL    HW138082   9.328   8.863   2.651
 6465SOL    HW238083   9.240   8.895   2.517
 6466SOL     OW38084   5.377   5.898   7.466
 6466SOL    HW138085   5.402   5.978   7.412
 6466SOL    HW238086   5.457   5.868   7.519
 6467SOL     OW38087   2.432   0.984   6.312
 6467SOL    HW138088   2.380   1.013   6.232
 6467SOL    HW238089   2.371   0.943   6.379
 6468SOL     OW38090   1.602   6.430   6.718
 6468SOL    HW138091   1.541   6.378   6.658
 6468SOL    HW238092   1.547   6.482   6.784
 6469SOL     OW38093   0.922   7.284   8.560
 6469SOL    HW138094   0.886   7.358   8.617
 6469SOL    HW238095   0.875   7.198   8.584
 6470SOL     OW38096   9.709   6.053   7.693
 6470SOL    HW138097   9.682   6.111   7.769
 6470SOL    HW238098   9.636   5.986   7.675
 6471SOL     OW38099   4.513   6.906   7.170
 6471SOL    HW138100   4.448   6.888   7.244
 6471SOL    HW238101   4.541   7.002   7.172
 6472SOL     OW38102   0.386   9.598   7.408
 6472SOL    HW138103   0.470   9.622   7.360
 6472SOL    HW238104   0.308   9.611   7.346
 6473SOL     OW38105   2.655   8.990   1.521
 6473SOL    HW138106   2.580   8.954   1.465
 6473SOL    HW238107   2.627   9.077   1.561
 6474SOL     OW38108   4.875   4.820   7.204
 6474SOL    HW138109   4.894   4.907   7.248
 6474SOL    HW238110   4.778   4.798   7.212
 6475SOL     OW38111   1.648   7.758   6.497
 6475SOL    HW138112   1.715   7.802   6.437
 6475SOL    HW238113   1.596   7.691   6.444
 6476SOL     OW38114   3.512   0.430   0.857
 6476SOL    HW138115   3.496   0.386   0.769
 6476SOL    HW238116   3.507   0.529   0.847
 6477SOL     OW38117   1.623   9.106   6.739
 6477SOL    HW138118   1.601   9.096   6.836
 6477SOL    HW238119   1.704   9.052   6.718
 6478SOL     OW38120   6.099   3.841   0.162
 6478SOL    HW138121   6.180   3.833   0.220
 6478SOL    HW238122   6.017   3.836   0.218
 6479SOL     OW38123   6.165   9.327   0.781
 6479SOL    HW138124   6.194   9.366   0.869
 6479SOL    HW238125   6.115   9.242   0.798
 6480SOL     OW38126   9.267   5.815   1.142
 6480SOL    HW138127   9.284   5.898   1.195
 6480SOL    HW238128   9.269   5.838   1.044
 6481SOL     OW38129   6.745   9.622   8.191
 6481SOL    HW138130   6.682   9.591   8.262
 6481SOL    HW238131   6.756   9.721   8.196
 6482SOL     OW38132   6.450   4.425   0.832
 6482SOL    HW138133   6.527   4.441   0.770
 6482SOL    HW238134   6.416   4.332   0.820
 6483SOL     OW38135   4.514   8.975   7.328
 6483SOL    HW138136   4.487   9.060   7.374
 6483SOL    HW238137   4.434   8.915   7.320
 6484SOL     OW38138   3.338   6.893   1.421
 6484SOL    HW138139   3.390   6.855   1.345
 6484SOL    HW238140   3.338   6.829   1.497
 6485SOL     OW38141   1.407   3.242   7.841
 6485SOL    HW138142   1.331   3.250   7.777
 6485SOL    HW238143   1.487   3.206   7.794
 6486SOL     OW38144   1.338   6.322   0.239
 6486SOL    HW138145   1.369   6.360   0.152
 6486SOL    HW238146   1.367   6.226   0.245
 6487SOL     OW38147   0.515   7.166   0.082
 6487SOL    HW138148   0.606   7.125   0.091
 6487SOL    HW238149   0.451   7.097   0.047
 6488SOL     OW38150   3.723   1.169   1.066
 6488SOL    HW138151   3.682   1.150   1.155
 6488SOL    HW238152   3.823   1.175   1.076
 6489SOL     OW38153   0.651   7.331   6.441
 6489SOL    HW138154   0.657   7.429   6.458
 6489SOL    HW238155   0.648   7.315   6.342
 6490SOL     OW38156   6.413   3.760   1.993
 6490SOL    HW138157   6.375   3.677   1.953
 6490SOL    HW238158   6.504   3.776   1.956
 6491SOL     OW38159   2.497   1.089   7.130
 6491SOL    HW138160   2.408   1.073   7.086
 6491SOL    HW238161   2.483   1.143   7.214
 6492SOL     OW38162   4.648   3.042   1.445
 6492SOL    HW138163   4.729   3.093   1.473
 6492SOL    HW238164   4.667   2.991   1.361
 6493SOL     OW38165   5.605   0.318   1.809
 6493SOL    HW138166   5.636   0.363   1.726
 6493SOL    HW238167   5.641   0.366   1.889
 6494SOL     OW38168   3.289   6.825   8.126
 6494SOL    HW138169   3.299   6.924   8.140
 6494SOL    HW238170   3.253   6.783   8.210
 6495SOL     OW38171   8.320   1.740   1.366
 6495SOL    HW138172   8.253   1.726   1.439
 6495SOL    HW238173   8.271   1.753   1.279
 6496SOL     OW38174   6.424   8.386   8.325
 6496SOL    HW138175   6.406   8.477   8.361
 6496SOL    HW238176   6.359   8.321   8.366
 6497SOL     OW38177   1.926   8.091   6.986
 6497SOL    HW138178   1.966   8.155   7.052
 6497SOL    HW238179   1.867   8.140   6.923
 6498SOL     OW38180   8.925   7.877   1.009
 6498SOL    HW138181   9.000   7.915   0.954
 6498SOL    HW238182   8.963   7.831   1.090
 6499SOL     OW38183   4.816   5.460   8.555
 6499SOL    HW138184   4.835   5.489   8.462
 6499SOL    HW238185   4.750   5.385   8.555
 6500SOL     OW38186   5.332   1.013   0.466
 6500SOL    HW138187   5.401   0.945   0.442
 6500SOL    HW238188   5.377   1.096   0.499
 6501SOL     OW38189   4.522   6.016   8.033
 6501SOL    HW138190   4.489   5.986   7.943
 6501SOL    HW238191   4.487   6.107   8.053
 6502SOL     OW38192   6.232   1.375   1.099
 6502SOL    HW138193   6.144   1.331   1.086
 6502SOL    HW238194   6.271   1.348   1.187
 6503SOL     OW38195   9.069  10.199   2.213
 6503SOL    HW138196   9.163  10.216   2.183
 6503SOL    HW238197   9.065  10.198   2.313
 6504SOL     OW38198   8.599   1.417   6.738
 6504SOL    HW138199   8.641   1.409   6.648
 6504SOL    HW238200   8.501   1.404   6.730
 6505SOL     OW38201   4.064   2.816   1.148
 6505SOL    HW138202   4.034   2.900   1.103
 6505SOL    HW238203   4.019   2.738   1.105
 6506SOL     OW38204   8.367   1.205   8.776
 6506SOL    HW138205   8.269   1.201   0.014
 6506SOL    HW238206   8.384   1.277   8.709
 6507SOL     OW38207   2.253   4.412   0.969
 6507SOL    HW138208   2.312   4.352   1.024
 6507SOL    HW238209   2.158   4.400   0.998
 6508SOL     OW38210   7.725   7.827   6.332
 6508SOL    HW138211   7.656   7.861   6.268
 6508SOL    HW238212   7.711   7.729   6.347
 6509SOL     OW38213   8.509   3.744   6.800
 6509SOL    HW138214   8.495   3.696   6.713
 6509SOL    HW238215   8.434   3.723   6.862
 6510SOL     OW38216   4.105   4.377   8.706
 6510SOL    HW138217   4.033   4.308   8.693
 6510SOL    HW238218   4.092   4.451   8.639
 6511SOL     OW38219   8.651   6.596   7.758
 6511SOL    HW138220   8.712   6.674   7.744
 6511SOL    HW238221   8.702   6.511   7.746
 6512SOL     OW38222   2.019   4.936   1.620
 6512SOL    HW138223   1.970   4.850   1.603
 6512SOL    HW238224   1.982   4.979   1.703
 6513SOL     OW38225   1.283   7.301   8.378
 6513SOL    HW138226   1.264   7.399   8.382
 6513SOL    HW238227   1.197   7.252   8.362
 6514SOL     OW38228   7.137   3.256   1.783
 6514SOL    HW138229   7.227   3.225   1.813
 6514SOL    HW238230   7.084   3.288   1.861
 6515SOL     OW38231   6.449   4.920   8.155
 6515SOL    HW138232   6.393   5.002   8.139
 6515SOL    HW238233   6.542   4.937   8.122
 6516SOL     OW38234   8.122   9.809   8.170
 6516SOL    HW138235   8.086   9.868   8.097
 6516SOL    HW238236   8.206   9.765   8.138
 6517SOL     OW38237   0.234   1.524   8.142
 6517SOL    HW138238   0.292   1.490   8.216
 6517SOL    HW238239   0.213   1.620   8.158
 6518SOL     OW38240   8.885   4.434   1.348
 6518SOL    HW138241   8.827   4.354   1.365
 6518SOL    HW238242   8.981   4.410   1.362
 6519SOL     OW38243   6.719   7.808   8.361
 6519SOL    HW138244   6.684   7.883   8.305
 6519SOL    HW238245   6.815   7.824   8.382
 6520SOL     OW38246   7.925   6.706   7.973
 6520SOL    HW138247   7.944   6.795   8.013
 6520SOL    HW238248   7.887   6.646   8.044
 6521SOL     OW38249   5.380   1.690   8.564
 6521SOL    HW138250   5.435   1.773   8.572
 6521SOL    HW238251   5.293   1.711   8.520
 6522SOL     OW38252   4.614   7.541   1.412
 6522SOL    HW138253   4.594   7.599   1.490
 6522SOL    HW238254   4.546   7.557   1.340
 6523SOL     OW38255   9.566   0.814   0.595
 6523SOL    HW138256   9.588   0.852   0.505
 6523SOL    HW238257   9.473   0.779   0.595
 6524SOL     OW38258   1.417   5.972   7.084
 6524SOL    HW138259   1.368   6.057   7.104
 6524SOL    HW238260   1.359   5.912   7.030
 6525SOL     OW38261   5.304  10.322   1.215
 6525SOL    HW138262   5.323  10.420   1.223
 6525SOL    HW238263   5.234  10.296   1.281
 6526SOL     OW38264   7.930   4.037   0.517
 6526SOL    HW138265   7.930   3.949   0.470
 6526SOL    HW238266   7.978   4.105   0.461
 6527SOL     OW38267   0.349   5.023   0.183
 6527SOL    HW138268   0.258   5.055   0.207
 6527SOL    HW238269   0.360   5.024   0.084
 6528SOL     OW38270   5.123   4.660   1.646
 6528SOL    HW138271   5.058   4.626   1.578
 6528SOL    HW238272   5.161   4.583   1.697
 6529SOL     OW38273   7.767   0.375   8.697
 6529SOL    HW138274   7.847   0.378   8.756
 6529SOL    HW238275   7.778   0.301   8.630
 6530SOL     OW38276   8.225   8.219   2.155
 6530SOL    HW138277   8.168   8.151   2.202
 6530SOL    HW238278   8.285   8.264   2.221
 6531SOL     OW38279   4.691   3.320   7.853
 6531SOL    HW138280   4.734   3.405   7.823
 6531SOL    HW238281   4.676   3.323   7.952
 6532SOL     OW38282   0.094   4.486   2.377
 6532SOL    HW138283   0.093   4.539   2.293
 6532SOL    HW238284   0.060   4.542   2.453
 6533SOL     OW38285   0.644   1.433   7.851
 6533SOL    HW138286   0.551   1.443   7.884
 6533SOL    HW238287   0.676   1.519   7.811
 6534SOL     OW38288   7.494   3.407   0.941
 6534SOL    HW138289   7.418   3.367   0.890
 6534SOL    HW238290   7.461   3.481   0.999
 6535SOL     OW38291   1.223   6.968   8.234
 6535SOL    HW138292   1.316   6.981   8.271
 6535SOL    HW238293   1.162   7.037   8.272
 6536SOL     OW38294   4.550   7.605   8.227
 6536SOL    HW138295   4.619   7.647   8.168
 6536SOL    HW238296   4.527   7.669   8.301
 6537SOL     OW38297   2.311   5.467   8.090
 6537SOL    HW138298   2.324   5.372   8.118
 6537SOL    HW238299   2.313   5.473   7.990
 6538SOL     OW38300   4.772  10.368   0.229
 6538SOL    HW138301   4.839  10.440   0.247
 6538SOL    HW238302   4.772  10.303   0.304
 6539SOL     OW38303   4.425   2.979   7.599
 6539SOL    HW138304   4.492   3.008   7.667
 6539SOL    HW238305   4.350   3.045   7.595
 6540SOL     OW38306   4.744   7.727   0.499
 6540SOL    HW138307   4.689   7.651   0.465
 6540SOL    HW238308   4.821   7.742   0.437
 6541SOL     OW38309   0.723   9.136   7.085
 6541SOL    HW138310   0.806   9.121   7.138
 6541SOL    HW238311   0.745   9.140   6.988
 6542SOL     OW38312   4.224   3.949   8.117
 6542SOL    HW138313   4.127   3.972   8.130
 6542SOL    HW238314   4.275   4.030   8.090
 6543SOL     OW38315   3.217   4.508   1.239
 6543SOL    HW138316   3.256   4.575   1.175
 6543SOL    HW238317   3.164   4.440   1.188
 6544SOL     OW38318   7.719   1.938   7.563
 6544SOL    HW138319   7.659   1.934   7.643
 6544SOL    HW238320   7.703   1.857   7.506
 6545SOL     OW38321   6.681   8.266   0.239
 6545SOL    HW138322   6.624   8.318   0.174
 6545SOL    HW238323   6.772   8.306   0.243
 6546SOL     OW38324   0.710   8.176   0.315
 6546SOL    HW138325   0.762   8.191   0.400
 6546SOL    HW238326   0.620   8.218   0.324
 6547SOL     OW38327   3.449   5.462   6.299
 6547SOL    HW138328   3.466   5.468   6.201
 6547SOL    HW238329   3.512   5.523   6.347
 6548SOL     OW38330   7.343   9.351   0.072
 6548SOL    HW138331   7.387   9.377   0.158
 6548SOL    HW238332   7.247   9.378   0.074
 6549SOL     OW38333   8.299   0.196   8.118
 6549SOL    HW138334   8.220   0.136   8.116
 6549SOL    HW238335   8.331   0.206   8.212
 6550SOL     OW38336   5.936   5.051   5.966
 6550SOL    HW138337   5.988   5.076   5.884
 6550SOL    HW238338   5.863   4.987   5.940
 6551SOL     OW38339   6.410   8.327   6.753
 6551SOL    HW138340   6.375   8.417   6.729
 6551SOL    HW238341   6.472   8.295   6.681
 6552SOL     OW38342   7.653   7.737   1.601
 6552SOL    HW138343   7.661   7.793   1.684
 6552SOL    HW238344   7.705   7.780   1.527
 6553SOL     OW38345   6.574   5.140   0.881
 6553SOL    HW138346   6.654   5.085   0.859
 6553SOL    HW238347   6.500   5.119   0.817
 6554SOL     OW38348   5.111   2.544   6.256
 6554SOL    HW138349   5.204   2.508   6.263
 6554SOL    HW238350   5.058   2.487   6.193
 6555SOL     OW38351   4.112   1.500   8.348
 6555SOL    HW138352   4.196   1.446   8.358
 6555SOL    HW238353   4.055   1.458   8.278
 6556SOL     OW38354   0.815   2.940   7.502
 6556SOL    HW138355   0.806   2.842   7.517
 6556SOL    HW238356   0.838   2.986   7.588
 6557SOL     OW38357   9.887   7.544   0.793
 6557SOL    HW138358   9.894   7.643   0.811
 6557SOL    HW238359   9.931   7.523   0.706
 6558SOL     OW38360   7.353   5.016   8.108
 6558SOL    HW138361   7.354   5.073   8.025
 6558SOL    HW238362   7.381   5.071   8.186
 6559SOL     OW38363   8.558   2.271   6.524
 6559SOL    HW138364   8.552   2.370   6.517
 6559SOL    HW238365   8.622   2.237   6.454
 6560SOL     OW38366   4.296   8.193   2.010
 6560SOL    HW138367   4.374   8.177   2.070
 6560SOL    HW238368   4.298   8.128   1.934
 6561SOL     OW38369   9.904   0.936   6.512
 6561SOL    HW138370   9.955   0.851   6.499
 6561SOL    HW238371   9.858   0.960   6.426
 6562SOL     OW38372   2.379   3.911   7.284
 6562SOL    HW138373   2.412   3.824   7.321
 6562SOL    HW238374   2.451   3.980   7.291
 6563SOL     OW38375   7.775   8.711   1.193
 6563SOL    HW138376   7.726   8.797   1.205
 6563SOL    HW238377   7.751   8.649   1.268
 6564SOL     OW38378   6.840   0.203   0.323
 6564SOL    HW138379   6.851   0.161   0.233
 6564SOL    HW238380   6.930   0.231   0.358
 6565SOL     OW38381   5.068   8.528   7.473
 6565SOL    HW138382   5.037   8.623   7.476
 6565SOL    HW238383   5.052   8.490   7.382
 6566SOL     OW38384   8.094   5.932   0.573
 6566SOL    HW138385   8.026   5.872   0.617
 6566SOL    HW238386   8.139   5.988   0.643
 6567SOL     OW38387   2.687   2.066   8.320
 6567SOL    HW138388   2.597   2.055   8.362
 6567SOL    HW238389   2.712   2.163   8.320
 6568SOL     OW38390   9.582   4.528   7.500
 6568SOL    HW138391   9.531   4.574   7.572
 6568SOL    HW238392   9.527   4.455   7.461
 6569SOL     OW38393   0.941   3.558   1.476
 6569SOL    HW138394   0.959   3.638   1.420
 6569SOL    HW238395   0.889   3.584   1.557
 6570SOL     OW38396   6.030   5.327   8.378
 6570SOL    HW138397   6.068   5.373   8.458
 6570SOL    HW238398   6.079   5.242   8.362
 6571SOL     OW38399   6.142   6.369   1.317
 6571SOL    HW138400   6.205   6.369   1.395
 6571SOL    HW238401   6.068   6.434   1.335
 6572SOL     OW38402   8.232   1.668   7.027
 6572SOL    HW138403   8.155   1.691   7.087
 6572SOL    HW238404   8.243   1.741   6.959
 6573SOL     OW38405   8.329   6.843   1.961
 6573SOL    HW138406   8.275   6.780   2.018
 6573SOL    HW238407   8.412   6.868   2.010
 6574SOL     OW38408   4.346   4.074   2.048
 6574SOL    HW138409   4.375   4.108   2.138
 6574SOL    HW238410   4.274   4.134   2.012
 6575SOL     OW38411   0.449   3.314   8.121
 6575SOL    HW138412   0.376   3.382   8.115
 6575SOL    HW238413   0.518   3.332   8.051
 6576SOL     OW38414   0.290   0.467   7.249
 6576SOL    HW138415   0.287   0.395   7.318
 6576SOL    HW238416   0.365   0.449   7.185
 6577SOL     OW38417   3.877  10.377   7.534
 6577SOL    HW138418   3.882  10.291   7.585
 6577SOL    HW238419   3.833  10.446   7.590
 6578SOL     OW38420   2.057   2.516   7.512
 6578SOL    HW138421   2.094   2.598   7.469
 6578SOL    HW238422   1.989   2.543   7.581
 6579SOL     OW38423   3.885   9.168   8.660
 6579SOL    HW138424   3.832   9.084   8.660
 6579SOL    HW238425   3.941   9.173   8.577
 6580SOL     OW38426   0.410   6.792   7.530
 6580SOL    HW138427   0.496   6.789   7.479
 6580SOL    HW238428   0.335   6.814   7.469
 6581SOL     OW38429   7.715   1.325   0.462
 6581SOL    HW138430   7.807   1.363   0.449
 6581SOL    HW238431   7.690   1.272   0.381
 6582SOL     OW38432   0.104   3.078   6.161
 6582SOL    HW138433   0.121   2.980   6.152
 6582SOL    HW238434   0.006   3.093   6.176
 6583SOL     OW38435   6.882   6.499   7.967
 6583SOL    HW138436   6.904   6.539   7.878
 6583SOL    HW238437   6.967   6.474   8.014
 6584SOL     OW38438   0.343   7.930   0.529
 6584SOL    HW138439   0.289   7.945   0.446
 6584SOL    HW238440   0.285   7.892   0.600
 6585SOL     OW38441   6.250   1.980   1.404
 6585SOL    HW138442   6.203   2.052   1.352
 6585SOL    HW238443   6.297   1.919   1.340
 6586SOL     OW38444   6.662  10.417   6.621
 6586SOL    HW138445   6.690  10.334   6.573
 6586SOL    HW238446   6.697  10.497   6.572
 6587SOL     OW38447   6.669   1.033   8.652
 6587SOL    HW138448   6.728   1.098   8.700
 6587SOL    HW238449   6.579   1.075   8.637
 6588SOL     OW38450   8.326   1.395   6.713
 6588SOL    HW138451   8.263   1.464   6.677
 6588SOL    HW238452   8.314   1.310   6.663
 6589SOL     OW38453   8.288   3.850   1.677
 6589SOL    HW138454   8.274   3.810   1.586
 6589SOL    HW238455   8.260   3.785   1.747
 6590SOL     OW38456   4.075   8.824   1.810
 6590SOL    HW138457   3.988   8.796   1.851
 6590SOL    HW238458   4.138   8.852   1.882
 6591SOL     OW38459   6.133   9.464   8.035
 6591SOL    HW138460   6.096   9.462   8.127
 6591SOL    HW238461   6.231   9.485   8.038
 6592SOL     OW38462   9.748   0.564   8.329
 6592SOL    HW138463   9.823   0.627   8.309
 6592SOL    HW238464   9.723   0.572   8.425
 6593SOL     OW38465   2.136   0.114   0.685
 6593SOL    HW138466   2.058   0.056   0.709
 6593SOL    HW238467   2.221   0.063   0.695
 6594SOL     OW38468   0.793   4.943   1.160
 6594SOL    HW138469   0.787   4.930   1.259
 6594SOL    HW238470   0.735   4.876   1.114
 6595SOL     OW38471   0.619   5.458   8.058
 6595SOL    HW138472   0.572   5.377   8.093
 6595SOL    HW238473   0.614   5.531   8.126
 6596SOL     OW38474   0.028   9.472   0.088
 6596SOL    HW138475   0.112   9.421   0.066
 6596SOL    HW238476  10.109   9.407   0.095
 6597SOL     OW38477   1.465   3.709   8.574
 6597SOL    HW138478   1.540   3.736   8.515
 6597SOL    HW238479   1.495   3.710   8.669
 6598SOL     OW38480   2.741   8.507   2.062
 6598SOL    HW138481   2.820   8.561   2.032
 6598SOL    HW238482   2.698   8.552   2.141
 6599SOL     OW38483   4.050   3.246   8.740
 6599SOL    HW138484   3.965   3.275   8.695
 6599SOL    HW238485   4.045   3.267   0.055
 6600SOL     OW38486   1.772   3.908   1.724
 6600SOL    HW138487   1.684   3.908   1.676
 6600SOL    HW238488   1.776   3.828   1.785
 6601SOL     OW38489   8.043   3.099   7.326
 6601SOL    HW138490   7.982   3.178   7.329
 6601SOL    HW238491   8.020   3.036   7.399
 6602SOL     OW38492   4.718   2.501   6.917
 6602SOL    HW138493   4.741   2.415   6.869
 6602SOL    HW238494   4.626   2.530   6.889
 6603SOL     OW38495   9.777   2.547   1.355
 6603SOL    HW138496   9.697   2.486   1.350
 6603SOL    HW238497   9.755   2.634   1.311
 6604SOL     OW38498   6.252   7.652   2.195
 6604SOL    HW138499   6.335   7.701   2.221
 6604SOL    HW238500   6.214   7.606   2.275
 6605SOL     OW38501   1.919  10.454   0.714
 6605SOL    HW138502   1.886  10.411   0.629
 6605SOL    HW238503   1.846   0.007   0.753
 6606SOL     OW38504   8.548   6.489   0.179
 6606SOL    HW138505   8.517   6.548   0.253
 6606SOL    HW238506   8.507   6.398   0.190
 6607SOL     OW38507   5.987   6.475   8.267
 6607SOL    HW138508   5.964   6.556   8.213
 6607SOL    HW238509   6.086   6.461   8.266
 6608SOL     OW38510   3.962   9.195   7.868
 6608SOL    HW138511   3.921   9.243   7.945
 6608SOL    HW238512   4.046   9.151   7.897
 6609SOL     OW38513   8.724   0.445   7.523
 6609SOL    HW138514   8.781   0.527   7.529
 6609SOL    HW238515   8.727   0.410   7.429
 6610SOL     OW38516   4.880  10.399   8.207
 6610SOL    HW138517   4.903  10.419   8.112
 6610SOL    HW238518   4.885  10.483   8.261
 6611SOL     OW38519   3.118   7.003   0.940
 6611SOL    HW138520   3.206   7.051   0.947
 6611SOL    HW238521   3.108   6.966   0.848
 6612SOL     OW38522   2.200   6.164   1.400
 6612SOL    HW138523   2.281   6.177   1.342
 6612SOL    HW238524   2.183   6.066   1.411
 6613SOL     OW38525   5.642   2.914   6.732
 6613SOL    HW138526   5.689   2.970   6.800
 6613SOL    HW238527   5.544   2.912   6.752
 6614SOL     OW38528   8.814   9.012   7.607
 6614SOL    HW138529   8.899   8.984   7.562
 6614SOL    HW238530   8.737   8.998   7.544
 6615SOL     OW38531   6.089   0.476   7.635
 6615SOL    HW138532   6.183   0.468   7.667
 6615SOL    HW238533   6.053   0.566   7.661
 6616SOL     OW38534   7.058   2.028   6.617
 6616SOL    HW138535   7.104   2.047   6.530
 6616SOL    HW238536   6.998   1.949   6.606
 6617SOL     OW38537   1.075   8.597   1.308
 6617SOL    HW138538   1.025   8.514   1.335
 6617SOL    HW238539   1.094   8.595   1.210
 6618SOL     OW38540   4.375   9.548   6.166
 6618SOL    HW138541   4.456   9.575   6.114
 6618SOL    HW238542   4.298   9.607   6.142
 6619SOL     OW38543   4.331   1.195   0.329
 6619SOL    HW138544   4.391   1.116   0.320
 6619SOL    HW238545   4.340   1.253   0.248
 6620SOL     OW38546   8.913   6.740   0.278
 6620SOL    HW138547   8.935   6.643   0.273
 6620SOL    HW238548   8.983   6.788   0.332
 6621SOL     OW38549   7.216   3.376   1.281
 6621SOL    HW138550   7.186   3.323   1.361
 6621SOL    HW238551   7.283   3.444   1.310
 6622SOL     OW38552   2.010   1.370   1.487
 6622SOL    HW138553   1.925   1.348   1.533
 6622SOL    HW238554   2.086   1.369   1.552
 6623SOL     OW38555   8.130   0.589   8.485
 6623SOL    HW138556   8.101   0.678   8.519
 6623SOL    HW238557   8.164   0.598   8.392
 6624SOL     OW38558   0.170   3.296   0.452
 6624SOL    HW138559   0.247   3.274   0.393
 6624SOL    HW238560   0.202   3.311   0.545
 6625SOL     OW38561   9.163   6.554   7.200
 6625SOL    HW138562   9.172   6.502   7.285
 6625SOL    HW238563   9.117   6.641   7.219
 6626SOL     OW38564   9.663   0.967   2.000
 6626SOL    HW138565   9.576   0.921   1.983
 6626SOL    HW238566   9.738   0.903   1.983
 6627SOL     OW38567   3.034   7.640   1.739
 6627SOL    HW138568   3.064   7.587   1.819
 6627SOL    HW238569   2.965   7.706   1.768
 6628SOL     OW38570   5.691   7.862   8.290
 6628SOL    HW138571   5.652   7.943   8.334
 6628SOL    HW238572   5.687   7.785   8.353
 6629SOL     OW38573   0.187   1.980   2.306
 6629SOL    HW138574   0.221   1.936   2.389
 6629SOL    HW238575   0.255   2.048   2.274
 6630SOL     OW38576   5.283   7.850   7.224
 6630SOL    HW138577   5.277   7.949   7.208
 6630SOL    HW238578   5.192   7.812   7.234
 6631SOL     OW38579   9.950   2.778   7.822
 6631SOL    HW138580  10.026   2.719   7.795
 6631SOL    HW238581   9.985   2.870   7.841
 6632SOL     OW38582   5.845   7.650   7.514
 6632SOL    HW138583   5.840   7.734   7.567
 6632SOL    HW238584   5.790   7.579   7.558
 6633SOL     OW38585   5.879   4.806   7.167
 6633SOL    HW138586   5.801   4.862   7.138
 6633SOL    HW238587   5.855   4.755   7.250
 6634SOL     OW38588   1.801   3.409   6.456
 6634SOL    HW138589   1.796   3.460   6.542
 6634SOL    HW238590   1.818   3.472   6.381
 6635SOL     OW38591   0.194   7.942   1.740
 6635SOL    HW138592   0.263   7.932   1.811
 6635SOL    HW238593   0.119   7.998   1.774
 6636SOL     OW38594   2.209   6.795   7.460
 6636SOL    HW138595   2.127   6.831   7.503
 6636SOL    HW238596   2.210   6.695   7.467
 6637SOL     OW38597   5.297   0.692   0.057
 6637SOL    HW138598   5.376   0.749   0.077
 6637SOL    HW238599   5.220   0.750   0.032
 6638SOL     OW38600   7.950   5.498   5.996
 6638SOL    HW138601   8.047   5.476   5.981
 6638SOL    HW238602   7.940   5.597   6.004
 6639SOL     OW38603   5.731   8.068   1.102
 6639SOL    HW138604   5.684   8.035   1.183
 6639SOL    HW238605   5.665   8.081   1.028
 6640SOL     OW38606   4.930   3.032   1.327
 6640SOL    HW138607   4.961   3.116   1.282
 6640SOL    HW238608   4.991   3.010   1.403
 6641SOL     OW38609   3.672   3.823   6.672
 6641SOL    HW138610   3.649   3.830   6.575
 6641SOL    HW238611   3.735   3.897   6.697
 6642SOL     OW38612   1.916   0.670   7.899
 6642SOL    HW138613   1.909   0.686   7.800
 6642SOL    HW238614   2.012   0.671   7.926
 6643SOL     OW38615   0.865  10.467   8.036
 6643SOL    HW138616   0.910  10.452   8.124
 6643SOL    HW238617   0.792   0.031   8.047
 6644SOL     OW38618   8.230   4.350   6.447
 6644SOL    HW138619   8.321   4.340   6.407
 6644SOL    HW238620   8.183   4.261   6.444
 6645SOL     OW38621   1.485   4.701   7.307
 6645SOL    HW138622   1.394   4.677   7.341
 6645SOL    HW238623   1.514   4.634   7.238
 6646SOL     OW38624   8.846   3.250   7.090
 6646SOL    HW138625   8.928   3.196   7.072
 6646SOL    HW238626   8.822   3.243   7.187
 6647SOL     OW38627   2.624   6.229   0.406
 6647SOL    HW138628   2.687   6.293   0.362
 6647SOL    HW238629   2.676   6.156   0.451
 6648SOL     OW38630   6.686   9.651   7.504
 6648SOL    HW138631   6.597   9.671   7.463
 6648SOL    HW238632   6.700   9.552   7.506
 6649SOL     OW38633   5.431   0.574   7.771
 6649SOL    HW138634   5.447   0.485   7.812
 6649SOL    HW238635   5.396   0.638   7.840
 6650SOL     OW38636   3.822   5.412   8.428
 6650SOL    HW138637   3.804   5.330   8.482
 6650SOL    HW238638   3.832   5.491   8.488
 6651SOL     OW38639   9.408   6.726   6.254
 6651SOL    HW138640   9.507   6.728   6.268
 6651SOL    HW238641   9.365   6.675   6.328
 6652SOL     OW38642   7.256   1.656   0.686
 6652SOL    HW138643   7.307   1.633   0.603
 6652SOL    HW238644   7.172   1.703   0.662
 6653SOL     OW38645   0.655   5.810   6.451
 6653SOL    HW138646   0.720   5.829   6.378
 6653SOL    HW238647   0.570   5.774   6.412
 6654SOL     OW38648   4.373  10.172   7.280
 6654SOL    HW138649   4.348  10.079   7.307
 6654SOL    HW238650   4.463  10.171   7.236
 6655SOL     OW38651   7.835   9.696   0.516
 6655SOL    HW138652   7.818   9.709   0.418
 6655SOL    HW238653   7.918   9.641   0.528
 6656SOL     OW38654   0.351   6.321   1.068
 6656SOL    HW138655   0.292   6.400   1.085
 6656SOL    HW238656   0.396   6.295   1.153
 6657SOL     OW38657   8.053   3.958   7.392
 6657SOL    HW138658   8.049   4.028   7.321
 6657SOL    HW238659   8.118   3.985   7.462
 6658SOL     OW38660   9.451   9.747   1.230
 6658SOL    HW138661   9.497   9.809   1.166
 6658SOL    HW238662   9.415   9.668   1.180
 6659SOL     OW38663   2.328   2.476   1.454
 6659SOL    HW138664   2.245   2.434   1.492
 6659SOL    HW238665   2.363   2.419   1.380
 6660SOL     OW38666   6.025   7.087   7.435
 6660SOL    HW138667   6.015   7.171   7.383
 6660SOL    HW238668   6.092   7.027   7.389
 6661SOL     OW38669   7.012   0.621   1.976
 6661SOL    HW138670   6.968   0.576   2.053
 6661SOL    HW238671   6.996   0.568   1.893
 6662SOL     OW38672   3.502   2.681   0.273
 6662SOL    HW138673   3.581   2.712   0.220
 6662SOL    HW238674   3.418   2.707   0.225
 6663SOL     OW38675   4.293   7.024   8.122
 6663SOL    HW138676   4.272   7.015   8.024
 6663SOL    HW238677   4.222   6.979   8.175
 6664SOL     OW38678   8.824   6.662   7.043
 6664SOL    HW138679   8.918   6.687   7.019
 6664SOL    HW238680   8.787   6.602   6.971
 6665SOL     OW38681   2.318   8.938   7.886
 6665SOL    HW138682   2.344   8.845   7.860
 6665SOL    HW238683   2.266   8.980   7.811
 6666SOL     OW38684   5.495   5.237   6.857
 6666SOL    HW138685   5.530   5.239   6.950
 6666SOL    HW238686   5.468   5.329   6.829
 6667SOL     OW38687   6.201   7.961   0.664
 6667SOL    HW138688   6.300   7.951   0.668
 6667SOL    HW238689   6.157   7.876   0.694
 6668SOL     OW38690   4.020   2.443   8.438
 6668SOL    HW138691   4.062   2.370   8.492
 6668SOL    HW238692   4.052   2.437   8.344
 6669SOL     OW38693   3.303   0.909   1.862
 6669SOL    HW138694   3.369   0.984   1.862
 6669SOL    HW238695   3.323   0.847   1.786
 6670SOL     OW38696   9.763   5.686   8.780
 6670SOL    HW138697   9.843   5.660   8.726
 6670SOL    HW238698   9.684   5.696   8.719
 6671SOL     OW38699   9.339  10.053   7.491
 6671SOL    HW138700   9.355   9.955   7.497
 6671SOL    HW238701   9.406  10.101   7.548
 6672SOL     OW38702   6.395   8.645   7.516
 6672SOL    HW138703   6.360   8.736   7.494
 6672SOL    HW238704   6.359   8.579   7.450
 6673SOL     OW38705   4.619   7.072   6.895
 6673SOL    HW138706   4.570   7.157   6.877
 6673SOL    HW238707   4.553   6.996   6.899
 6674SOL     OW38708   9.421   4.414   8.269
 6674SOL    HW138709   9.508   4.457   8.244
 6674SOL    HW238710   9.363   4.408   8.187
 6675SOL     OW38711   8.907   1.387   8.300
 6675SOL    HW138712   8.919   1.368   8.203
 6675SOL    HW238713   8.991   1.366   8.350
 6676SOL     OW38714   7.707   7.078   1.154
 6676SOL    HW138715   7.618   7.096   1.114
 6676SOL    HW238716   7.699   7.075   1.254
 6677SOL     OW38717   4.394   4.808   6.272
 6677SOL    HW138718   4.460   4.739   6.242
 6677SOL    HW238719   4.312   4.801   6.214
 6678SOL     OW38720   8.808  10.223   2.127
 6678SOL    HW138721   8.904  10.227   2.157
 6678SOL    HW238722   8.773  10.131   2.140
 6679SOL     OW38723   0.248   2.270   0.615
 6679SOL    HW138724   0.225   2.173   0.611
 6679SOL    HW238725   0.347   2.281   0.619
 6680SOL     OW38726   2.108   0.373   7.531
 6680SOL    HW138727   2.020   0.420   7.523
 6680SOL    HW238728   2.141   0.348   7.440
 6681SOL     OW38729  10.085   6.877   7.454
 6681SOL    HW138730   9.987   6.856   7.452
 6681SOL    HW238731  10.123   6.850   7.542
 6682SOL     OW38732   0.729   6.337   8.369
 6682SOL    HW138733   0.828   6.319   8.374
 6682SOL    HW238734   0.682   6.255   8.337
 6683SOL     OW38735   1.836   3.151   0.018
 6683SOL    HW138736   1.782   3.154   0.102
 6683SOL    HW238737   1.853   3.056   8.774
 6684SOL     OW38738   6.668   6.323   1.649
 6684SOL    HW138739   6.694   6.310   1.744
 6684SOL    HW238740   6.730   6.271   1.590
 6685SOL     OW38741   5.568   4.840   1.092
 6685SOL    HW138742   5.637   4.912   1.105
 6685SOL    HW238743   5.532   4.812   1.181
 6686SOL     OW38744   5.096   0.117   6.964
 6686SOL    HW138745   5.131   0.163   7.046
 6686SOL    HW238746   5.008   0.075   6.985
 6687SOL     OW38747   9.007   9.074   6.486
 6687SOL    HW138748   8.997   9.173   6.478
 6687SOL    HW238749   8.966   9.030   6.407
 6688SOL     OW38750   6.534   8.570   1.168
 6688SOL    HW138751   6.485   8.631   1.106
 6688SOL    HW238752   6.474   8.543   1.243
 6689SOL     OW38753   8.952   8.870   1.781
 6689SOL    HW138754   8.931   8.782   1.737
 6689SOL    HW238755   9.045   8.868   1.816
 6690SOL     OW38756   2.940   1.668   1.960
 6690SOL    HW138757   2.980   1.755   1.988
 6690SOL    HW238758   2.851   1.656   2.005
 6691SOL     OW38759   3.720   9.341   6.764
 6691SOL    HW138760   3.692   9.288   6.684
 6691SOL    HW238761   3.665   9.424   6.770
 6692SOL     OW38762   8.005   0.311   0.777
 6692SOL    HW138763   8.089   0.348   0.737
 6692SOL    HW238764   7.927   0.341   0.723
 6693SOL     OW38765   4.852   7.837   8.624
 6693SOL    HW138766   4.926   7.818   8.689
 6693SOL    HW238767   4.784   7.764   8.628
 6694SOL     OW38768   3.324   8.988   7.930
 6694SOL    HW138769   3.360   8.929   7.858
 6694SOL    HW238770   3.399   9.037   7.974
 6695SOL     OW38771   9.425   8.599   7.894
 6695SOL    HW138772   9.343   8.656   7.895
 6695SOL    HW238773   9.469   8.602   7.984
 6696SOL     OW38774   9.572   3.983   6.113
 6696SOL    HW138775   9.503   3.990   6.185
 6696SOL    HW238776   9.560   3.897   6.062
 6697SOL     OW38777   0.033   4.338   0.390
 6697SOL    HW138778  10.142   4.421   0.362
 6697SOL    HW238779  10.125   4.270   0.422
 6698SOL     OW38780   8.048   0.164   1.964
 6698SOL    HW138781   8.070   0.261   1.959
 6698SOL    HW238782   8.005   0.144   2.052
 6699SOL     OW38783   4.595   9.505   8.028
 6699SOL    HW138784   4.526   9.554   7.975
 6699SOL    HW238785   4.656   9.571   8.072
 6700SOL     OW38786   1.701   9.258   7.698
 6700SOL    HW138787   1.733   9.267   7.792
 6700SOL    HW238788   1.688   9.161   7.677
 6701SOL     OW38789   4.000   7.211   0.778
 6701SOL    HW138790   3.941   7.135   0.750
 6701SOL    HW238791   3.984   7.290   0.718
 6702SOL     OW38792   9.404  10.227   6.989
 6702SOL    HW138793   9.444  10.146   6.946
 6702SOL    HW238794   9.393  10.212   7.087
 6703SOL     OW38795   9.129   0.388   1.502
 6703SOL    HW138796   9.137   0.456   1.428
 6703SOL    HW238797   9.207   0.326   1.498
 6704SOL     OW38798   0.304   3.989   1.214
 6704SOL    HW138799   0.299   3.933   1.297
 6704SOL    HW238800   0.394   4.032   1.208
 6705SOL     OW38801   8.291   8.871   2.544
 6705SOL    HW138802   8.373   8.905   2.590
 6705SOL    HW238803   8.219   8.940   2.547
 6706SOL     OW38804   1.006   7.891   2.171
 6706SOL    HW138805   1.094   7.938   2.180
 6706SOL    HW238806   1.012   7.801   2.215
 6707SOL     OW38807   3.277   5.700   0.314
 6707SOL    HW138808   3.369   5.665   0.330
 6707SOL    HW238809   3.281   5.794   0.281
 6708SOL     OW38810   7.131   4.127   1.288
 6708SOL    HW138811   7.139   4.184   1.369
 6708SOL    HW238812   7.203   4.152   1.223
 6709SOL     OW38813   9.130   2.242   0.531
 6709SOL    HW138814   9.142   2.341   0.516
 6709SOL    HW238815   9.182   2.214   0.612
 6710SOL     OW38816   6.109   8.638   7.149
 6710SOL    HW138817   6.085   8.553   7.103
 6710SOL    HW238818   6.037   8.663   7.214
 6711SOL     OW38819   1.873   8.914   6.968
 6711SOL    HW138820   1.868   8.920   6.868
 6711SOL    HW238821   1.936   8.983   7.002
 6712SOL     OW38822   8.374   6.220   0.585
 6712SOL    HW138823   8.399   6.316   0.596
 6712SOL    HW238824   8.322   6.190   0.664
 6713SOL     OW38825   1.820   0.091   8.363
 6713SOL    HW138826   1.755   0.122   8.433
 6713SOL    HW238827   1.785   0.007   8.321
 6714SOL     OW38828   6.395   7.988   7.692
 6714SOL    HW138829   6.384   7.895   7.727
 6714SOL    HW238830   6.489   8.018   7.706
 6715SOL     OW38831   4.237   8.993   7.107
 6715SOL    HW138832   4.249   8.920   7.175
 6715SOL    HW238833   4.304   8.981   7.034
 6716SOL     OW38834   2.584  10.284   1.000
 6716SOL    HW138835   2.566  10.334   1.085
 6716SOL    HW238836   2.641  10.204   1.020
 6717SOL     OW38837   6.469   1.764   0.186
 6717SOL    HW138838   6.461   1.665   0.172
 6717SOL    HW238839   6.384   1.808   0.156
 6718SOL     OW38840   4.342   6.636   1.152
 6718SOL    HW138841   4.304   6.604   1.065
 6718SOL    HW238842   4.275   6.696   1.197
 6719SOL     OW38843   5.723   5.630   0.437
 6719SOL    HW138844   5.795   5.691   0.470
 6719SOL    HW238845   5.689   5.575   0.514
 6720SOL     OW38846   9.226   3.405   7.917
 6720SOL    HW138847   9.248   3.455   8.001
 6720SOL    HW238848   9.127   3.388   7.913
 6721SOL     OW38849   1.685   9.152   1.351
 6721SOL    HW138850   1.682   9.064   1.397
 6721SOL    HW238851   1.611   9.210   1.384
 6722SOL     OW38852   5.594   7.127   6.562
 6722SOL    HW138853   5.549   7.216   6.559
 6722SOL    HW238854   5.683   7.137   6.608
 6723SOL     OW38855   3.537   1.314   6.510
 6723SOL    HW138856   3.497   1.312   6.418
 6723SOL    HW238857   3.620   1.370   6.509
 6724SOL     OW38858   3.753   6.812   1.133
 6724SOL    HW138859   3.808   6.821   1.216
 6724SOL    HW238860   3.779   6.884   1.068
 6725SOL     OW38861   9.390   4.943   2.065
 6725SOL    HW138862   9.383   4.884   2.145
 6725SOL    HW238863   9.375   4.889   1.982
 6726SOL     OW38864   8.762   7.265   0.487
 6726SOL    HW138865   8.784   7.338   0.551
 6726SOL    HW238866   8.745   7.304   0.396
 6727SOL     OW38867  10.069   8.012   0.320
 6727SOL    HW138868  10.070   8.045   0.414
 6727SOL    HW238869  10.022   8.079   0.262
 6728SOL     OW38870   5.249   8.542   8.145
 6728SOL    HW138871   5.247   8.480   8.066
 6728SOL    HW238872   5.169   8.525   8.203
 6729SOL     OW38873   1.129   1.082   7.684
 6729SOL    HW138874   1.063   1.155   7.668
 6729SOL    HW238875   1.115   1.043   7.776
 6730SOL     OW38876   2.042   6.192   7.680
 6730SOL    HW138877   2.055   6.181   7.779
 6730SOL    HW238878   1.966   6.133   7.650
 6731SOL     OW38879   1.978   2.279   6.283
 6731SOL    HW138880   2.027   2.300   6.199
 6731SOL    HW238881   1.999   2.185   6.312
 6732SOL     OW38882   6.558   8.247   0.879
 6732SOL    HW138883   6.581   8.179   0.949
 6732SOL    HW238884   6.574   8.208   0.789
 6733SOL     OW38885   5.103   7.109   8.578
 6733SOL    HW138886   5.033   7.168   8.617
 6733SOL    HW238887   5.061   7.024   8.545
 6734SOL     OW38888   7.446   5.211   1.005
 6734SOL    HW138889   7.530   5.262   1.028
 6734SOL    HW238890   7.463   5.155   0.924
 6735SOL     OW38891   1.515   9.642   6.980
 6735SOL    HW138892   1.419   9.655   6.954
 6735SOL    HW238893   1.572   9.708   6.932
 6736SOL     OW38894   8.086   6.178   2.065
 6736SOL    HW138895   8.113   6.171   1.968
 6736SOL    HW238896   8.095   6.089   2.109
 6737SOL     OW38897   0.109   6.375   7.904
 6737SOL    HW138898   0.206   6.395   7.894
 6737SOL    HW238899   0.087   6.293   7.851
 6738SOL     OW38900   7.670   5.447   7.271
 6738SOL    HW138901   7.677   5.539   7.231
 6738SOL    HW238902   7.661   5.380   7.197
 6739SOL     OW38903   6.127   8.525   8.206
 6739SOL    HW138904   6.048   8.569   8.163
 6739SOL    HW238905   6.211   8.554   8.160
 6740SOL     OW38906   6.448   6.456   7.765
 6740SOL    HW138907   6.371   6.396   7.785
 6740SOL    HW238908   6.518   6.445   7.835
 6741SOL     OW38909   0.152   2.731   8.465
 6741SOL    HW138910   0.244   2.691   8.474
 6741SOL    HW238911   0.084   2.657   8.470
 6742SOL     OW38912   1.107   4.772   1.354
 6742SOL    HW138913   1.070   4.680   1.346
 6742SOL    HW238914   1.061   4.819   1.430
 6743SOL     OW38915   2.073   7.612   0.720
 6743SOL    HW138916   2.092   7.677   0.794
 6743SOL    HW238917   1.990   7.560   0.742
 6744SOL     OW38918   3.346   7.156   0.896
 6744SOL    HW138919   3.335   7.144   0.797
 6744SOL    HW238920   3.326   7.250   0.920
 6745SOL     OW38921   9.338   7.209   7.851
 6745SOL    HW138922   9.268   7.163   7.796
 6745SOL    HW238923   9.386   7.142   7.907
 6746SOL     OW38924   6.726   5.434   6.939
 6746SOL    HW138925   6.784   5.382   6.877
 6746SOL    HW238926   6.741   5.403   7.033
 6747SOL     OW38927   5.995   2.583   2.022
 6747SOL    HW138928   6.093   2.603   2.012
 6747SOL    HW238929   5.983   2.508   2.087
 6748SOL     OW38930   2.046   9.152   0.295
 6748SOL    HW138931   2.058   9.206   0.379
 6748SOL    HW238932   1.957   9.106   0.297
 6749SOL     OW38933   5.843   0.242   1.121
 6749SOL    HW138934   5.747   0.224   1.139
 6749SOL    HW238935   5.900   0.187   1.182
 6750SOL     OW38936   3.600   3.797   7.804
 6750SOL    HW138937   3.654   3.747   7.871
 6750SOL    HW238938   3.502   3.783   7.822
 6751SOL     OW38939   1.593   2.059   0.362
 6751SOL    HW138940   1.528   1.990   0.395
 6751SOL    HW238941   1.553   2.110   0.287
 6752SOL     OW38942   9.304   1.020   2.155
 6752SOL    HW138943   9.234   1.091   2.159
 6752SOL    HW238944   9.391   1.056   2.188
 6753SOL     OW38945   9.572   2.154   1.718
 6753SOL    HW138946   9.647   2.176   1.781
 6753SOL    HW238947   9.601   2.083   1.655
 6754SOL     OW38948   0.357   9.675   0.288
 6754SOL    HW138949   0.294   9.752   0.299
 6754SOL    HW238950   0.383   9.666   0.192
 6755SOL     OW38951   4.228   1.066   0.762
 6755SOL    HW138952   4.170   1.132   0.810
 6755SOL    HW238953   4.209   1.070   0.664
 6756SOL     OW38954   1.254   2.600   8.508
 6756SOL    HW138955   1.304   2.532   8.560
 6756SOL    HW238956   1.219   2.671   8.570
 6757SOL     OW38957   1.266   9.177   6.092
 6757SOL    HW138958   1.286   9.097   6.036
 6757SOL    HW238959   1.227   9.148   6.179
 6758SOL     OW38960   8.300   9.578   7.708
 6758SOL    HW138961   8.382   9.549   7.757
 6758SOL    HW238962   8.322   9.598   7.613
 6759SOL     OW38963   1.172   8.217   1.144
 6759SOL    HW138964   1.094   8.211   1.206
 6759SOL    HW238965   1.244   8.155   1.174
 6760SOL     OW38966   3.046   3.958   7.487
 6760SOL    HW138967   3.088   4.032   7.434
 6760SOL    HW238968   3.018   3.993   7.576
 6761SOL     OW38969   9.360   7.955   8.760
 6761SOL    HW138970   9.414   8.013   8.699
 6761SOL    HW238971   9.279   8.004   0.008
 6762SOL     OW38972   1.362   6.267   6.869
 6762SOL    HW138973   1.361   6.243   6.966
 6762SOL    HW238974   1.293   6.337   6.851
 6763SOL     OW38975   2.174   0.693   8.256
 6763SOL    HW138976   2.124   0.620   8.303
 6763SOL    HW238977   2.247   0.726   8.315
 6764SOL     OW38978   8.793   6.113   7.802
 6764SOL    HW138979   8.828   6.148   7.888
 6764SOL    HW238980   8.709   6.061   7.819
 6765SOL     OW38981   4.640   4.175   0.127
 6765SOL    HW138982   4.652   4.184   0.028
 6765SOL    HW238983   4.726   4.147   0.169
 6766SOL     OW38984   8.942   3.728   0.546
 6766SOL    HW138985   8.955   3.713   0.448
 6766SOL    HW238986   9.008   3.674   0.597
 6767SOL     OW38987   7.574   7.902   7.461
 6767SOL    HW138988   7.498   7.880   7.521
 6767SOL    HW238989   7.551   7.983   7.406
 6768SOL     OW38990   2.147   7.788   0.929
 6768SOL    HW138991   2.234   7.750   0.899
 6768SOL    HW238992   2.164   7.876   0.975
 6769SOL     OW38993   6.501   9.520   2.611
 6769SOL    HW138994   6.515   9.423   2.629
 6769SOL    HW238995   6.589   9.568   2.613
 6770SOL     OW38996   7.566   7.685   1.116
 6770SOL    HW138997   7.549   7.646   1.025
 6770SOL    HW238998   7.566   7.611   1.184
 6771SOL     OW38999   7.916   4.674   1.411
 6771SOL    HW139000   7.966   4.600   1.366
 6771SOL    HW239001   7.915   4.659   1.509
 6772SOL     OW39002   8.765   2.703   6.592
 6772SOL    HW139003   8.745   2.801   6.592
 6772SOL    HW239004   8.863   2.688   6.605
 6773SOL     OW39005   2.409   8.418   7.251
 6773SOL    HW139006   2.432   8.326   7.282
 6773SOL    HW239007   2.354   8.411   7.167
 6774SOL     OW39008   2.347   7.963   7.968
 6774SOL    HW139009   2.370   7.937   7.874
 6774SOL    HW239010   2.386   7.896   8.031
 6775SOL     OW39011   8.692   2.776   0.265
 6775SOL    HW139012   8.675   2.798   0.169
 6775SOL    HW239013   8.609   2.791   0.318
 6776SOL     OW39014   5.434   2.823   7.224
 6776SOL    HW139015   5.469   2.866   7.308
 6776SOL    HW239016   5.368   2.885   7.180
 6777SOL     OW39017   4.656   9.454   7.497
 6777SOL    HW139018   4.677   9.384   7.429
 6777SOL    HW239019   4.559   9.476   7.493
 6778SOL     OW39020   9.651   9.761   7.062
 6778SOL    HW139021   9.621   9.668   7.039
 6778SOL    HW239022   9.611   9.826   6.998
 6779SOL     OW39023   1.664   3.776   8.404
 6779SOL    HW139024   1.707   3.686   8.413
 6779SOL    HW239025   1.645   3.794   8.307
 6780SOL     OW39026   6.671   6.037   7.281
 6780SOL    HW139027   6.675   6.012   7.378
 6780SOL    HW239028   6.747   6.100   7.260
 6781SOL     OW39029   8.218   2.178   1.572
 6781SOL    HW139030   8.312   2.144   1.576
 6781SOL    HW239031   8.162   2.117   1.516
 6782SOL     OW39032   6.621   2.369   6.834
 6782SOL    HW139033   6.614   2.305   6.757
 6782SOL    HW239034   6.672   2.450   6.806
 6783SOL     OW39035   8.101   5.541   0.184
 6783SOL    HW139036   8.100   5.604   0.262
 6783SOL    HW239037   8.190   5.546   0.139
 6784SOL     OW39038   8.394   2.151   1.013
 6784SOL    HW139039   8.433   2.242   1.023
 6784SOL    HW239040   8.364   2.117   1.102
 6785SOL     OW39041   1.997   3.158   7.680
 6785SOL    HW139042   1.993   3.204   7.591
 6785SOL    HW239043   2.071   3.091   7.679
 6786SOL     OW39044   0.431   1.295   1.202
 6786SOL    HW139045   0.434   1.378   1.257
 6786SOL    HW239046   0.338   1.281   1.167
 6787SOL     OW39047   6.555   0.982   7.429
 6787SOL    HW139048   6.638   1.013   7.382
 6787SOL    HW239049   6.521   0.898   7.387
 6788SOL     OW39050   0.491   8.949   0.333
 6788SOL    HW139051   0.551   8.889   0.385
 6788SOL    HW239052   0.455   9.021   0.393
 6789SOL     OW39053  10.018   6.885   0.963
 6789SOL    HW139054  10.062   6.884   0.873
 6789SOL    HW239055   9.983   6.976   0.983
 6790SOL     OW39056   2.952   3.611   7.934
 6790SOL    HW139057   2.955   3.709   7.914
 6790SOL    HW239058   2.977   3.559   7.852
 6791SOL     OW39059   5.223   1.744   8.217
 6791SOL    HW139060   5.154   1.724   8.147
 6791SOL    HW239061   5.180   1.745   8.307
 6792SOL     OW39062   1.296   4.354   6.831
 6792SOL    HW139063   1.385   4.323   6.799
 6792SOL    HW239064   1.225   4.323   6.768
 6793SOL     OW39065   5.578   6.699   7.152
 6793SOL    HW139066   5.509   6.627   7.159
 6793SOL    HW239067   5.596   6.720   7.056
 6794SOL     OW39068   7.137   3.763   1.075
 6794SOL    HW139069   7.120   3.843   1.018
 6794SOL    HW239070   7.139   3.790   1.171
 6795SOL     OW39071   8.794   3.204   7.365
 6795SOL    HW139072   8.776   3.276   7.432
 6795SOL    HW239073   8.877   3.155   7.390
 6796SOL     OW39074   7.173   5.633   1.015
 6796SOL    HW139075   7.104   5.668   1.080
 6796SOL    HW239076   7.195   5.538   1.039
 6797SOL     OW39077   5.725   1.534   1.839
 6797SOL    HW139078   5.777   1.492   1.764
 6797SOL    HW239079   5.767   1.509   1.926
 6798SOL     OW39080   6.570   8.547   7.051
 6798SOL    HW139081   6.565   8.450   7.028
 6798SOL    HW239082   6.528   8.601   6.978
 6799SOL     OW39083   7.058   2.681   1.241
 6799SOL    HW139084   7.096   2.647   1.327
 6799SOL    HW239085   6.961   2.656   1.235
 6800SOL     OW39086   8.750   8.765   0.946
 6800SOL    HW139087   8.837   8.764   0.896
 6800SOL    HW239088   8.676   8.740   0.884
 6801SOL     OW39089   2.841   4.732   1.947
 6801SOL    HW139090   2.790   4.813   1.978
 6801SOL    HW239091   2.935   4.759   1.927
 6802SOL     OW39092   0.626   6.514   8.183
 6802SOL    HW139093   0.674   6.460   8.252
 6802SOL    HW239094   0.538   6.471   8.162
 6803SOL     OW39095   1.061   8.589   7.364
 6803SOL    HW139096   1.047   8.554   7.271
 6803SOL    HW239097   1.080   8.512   7.426
 6804SOL     OW39098   5.800   2.850   0.755
 6804SOL    HW139099   5.711   2.805   0.744
 6804SOL    HW239100   5.865   2.812   0.689
 6805SOL     OW39101   3.429   8.526   1.131
 6805SOL    HW139102   3.516   8.525   1.180
 6805SOL    HW239103   3.360   8.573   1.186
 6806SOL     OW39104   8.082   7.772   7.399
 6806SOL    HW139105   7.987   7.770   7.431
 6806SOL    HW239106   8.133   7.699   7.444
 6807SOL     OW39107   6.915   8.895   0.881
 6807SOL    HW139108   6.994   8.846   0.917
 6807SOL    HW239109   6.887   8.854   0.794
 6808SOL     OW39110   4.668   6.550   0.842
 6808SOL    HW139111   4.716   6.473   0.885
 6808SOL    HW239112   4.691   6.635   0.890
 6809SOL     OW39113   5.352   4.223   0.690
 6809SOL    HW139114   5.321   4.318   0.683
 6809SOL    HW239115   5.452   4.221   0.691
 6810SOL     OW39116   7.380  10.445   7.747
 6810SOL    HW139117   7.385  10.399   7.659
 6810SOL    HW239118   7.368   0.040   7.733
 6811SOL     OW39119   0.178   2.299   6.646
 6811SOL    HW139120   0.184   2.323   6.742
 6811SOL    HW239121   0.157   2.380   6.591
 6812SOL     OW39122   8.966   7.596   0.938
 6812SOL    HW139123   9.014   7.580   0.851
 6812SOL    HW239124   8.950   7.694   0.949
 6813SOL     OW39125   2.679   0.409   1.256
 6813SOL    HW139126   2.701   0.402   1.159
 6813SOL    HW239127   2.585   0.381   1.271
 6814SOL     OW39128   3.214   5.758   7.153
 6814SOL    HW139129   3.180   5.730   7.063
 6814SOL    HW239130   3.249   5.677   7.201
 6815SOL     OW39131   8.457   6.507   1.145
 6815SOL    HW139132   8.481   6.604   1.142
 6815SOL    HW239133   8.537   6.454   1.172
 6816SOL     OW39134   1.296  10.463   1.199
 6816SOL    HW139135   1.233   0.014   1.143
 6816SOL    HW239136   1.265  10.368   1.202
 6817SOL     OW39137   1.012   3.516   8.177
 6817SOL    HW139138   0.953   3.521   8.257
 6817SOL    HW239139   0.960   3.538   8.095
 6818SOL     OW39140   3.750   8.936   8.614
 6818SOL    HW139141   3.737   8.910   8.519
 6818SOL    HW239142   3.817   8.875   8.657
 6819SOL     OW39143   7.285  10.301   1.143
 6819SOL    HW139144   7.247  10.392   1.160
 6819SOL    HW239145   7.212  10.233   1.145
 6820SOL     OW39146   7.189   8.245   8.646
 6820SOL    HW139147   7.097   8.209   8.658
 6820SOL    HW239148   7.187   8.322   8.582
 6821SOL     OW39149   8.448   2.885   7.816
 6821SOL    HW139150   8.387   2.816   7.854
 6821SOL    HW239151   8.439   2.886   7.716
 6822SOL     OW39152   9.168   1.989   1.524
 6822SOL    HW139153   9.205   1.982   1.617
 6822SOL    HW239154   9.094   1.924   1.512
 6823SOL     OW39155   2.731  10.153   7.471
 6823SOL    HW139156   2.826  10.171   7.497
 6823SOL    HW239157   2.710  10.057   7.488
 6824SOL     OW39158   0.222   9.220   1.373
 6824SOL    HW139159   0.199   9.154   1.444
 6824SOL    HW239160   0.139   9.267   1.343
 6825SOL     OW39161   8.220   5.967   8.778
 6825SOL    HW139162   8.265   5.911   0.065
 6825SOL    HW239163   8.246   5.935   8.687
 6826SOL     OW39164   3.369   0.927   0.154
 6826SOL    HW139165   3.414   0.915   0.243
 6826SOL    HW239166   3.407   0.861   0.089
 6827SOL     OW39167   7.667   1.013   6.273
 6827SOL    HW139168   7.761   1.047   6.274
 6827SOL    HW239169   7.610   1.075   6.218
 6828SOL     OW39170   4.520   2.126   8.762
 6828SOL    HW139171   4.532   2.198   8.694
 6828SOL    HW239172   4.606   2.076   8.774
 6829SOL     OW39173   6.379   3.826   8.230
 6829SOL    HW139174   6.381   3.730   8.202
 6829SOL    HW239175   6.360   3.831   8.328
 6830SOL     OW39176   7.802   4.379   1.222
 6830SOL    HW139177   7.806   4.280   1.215
 6830SOL    HW239178   7.892   4.414   1.248
 6831SOL     OW39179   4.341   1.741   7.816
 6831SOL    HW139180   4.321   1.672   7.885
 6831SOL    HW239181   4.301   1.828   7.844
 6832SOL     OW39182   6.204   0.339   0.245
 6832SOL    HW139183   6.228   0.273   0.174
 6832SOL    HW239184   6.285   0.361   0.300
 6833SOL     OW39185   1.227   0.779   6.858
 6833SOL    HW139186   1.307   0.741   6.904
 6833SOL    HW239187   1.214   0.874   6.889
 6834SOL     OW39188   0.227   4.077   6.761
 6834SOL    HW139189   0.192   4.010   6.695
 6834SOL    HW239190   0.320   4.104   6.736
 6835SOL     OW39191   1.300   5.952   8.390
 6835SOL    HW139192   1.330   5.912   8.303
 6835SOL    HW239193   1.205   5.983   8.380
 6836SOL     OW39194   8.305   0.351   0.441
 6836SOL    HW139195   8.251   0.268   0.424
 6836SOL    HW239196   8.396   0.339   0.401
 6837SOL     OW39197   0.303   1.150   0.735
 6837SOL    HW139198   0.316   1.250   0.736
 6837SOL    HW239199   0.330   1.113   0.824
 6838SOL     OW39200   5.528   3.132   7.054
 6838SOL    HW139201   5.553   3.193   7.130
 6838SOL    HW239202   5.440   3.088   7.074
 6839SOL     OW39203   6.285   7.080   7.682
 6839SOL    HW139204   6.186   7.090   7.693
 6839SOL    HW239205   6.329   7.168   7.703
 6840SOL     OW39206   6.596   2.352   0.325
 6840SOL    HW139207   6.682   2.393   0.294
 6840SOL    HW239208   6.525   2.423   0.328
 6841SOL     OW39209   0.133  10.087   6.490
 6841SOL    HW139210   0.195  10.089   6.412
 6841SOL    HW239211   0.049  10.040   6.465
 6842SOL     OW39212   0.491   3.397   8.536
 6842SOL    HW139213   0.551   3.372   8.460
 6842SOL    HW239214   0.438   3.478   8.511
 6843SOL     OW39215   8.291   0.678   7.531
 6843SOL    HW139216   8.201   0.677   7.575
 6843SOL    HW239217   8.338   0.593   7.551
 6844SOL     OW39218   5.586   0.518   6.596
 6844SOL    HW139219   5.668   0.576   6.600
 6844SOL    HW239220   5.611   0.424   6.620
 6845SOL     OW39221   2.969   6.638   6.744
 6845SOL    HW139222   3.014   6.624   6.656
 6845SOL    HW239223   2.896   6.571   6.755
 6846SOL     OW39224   8.349   9.609   7.189
 6846SOL    HW139225   8.263   9.580   7.147
 6846SOL    HW239226   8.387   9.687   7.138
 6847SOL     OW39227   0.472   4.519   2.085
 6847SOL    HW139228   0.411   4.469   2.147
 6847SOL    HW239229   0.511   4.597   2.132
 6848SOL     OW39230   2.566   6.956   5.977
 6848SOL    HW139231   2.601   6.862   5.975
 6848SOL    HW239232   2.642   7.020   5.988
 6849SOL     OW39233   1.495   6.302   7.491
 6849SOL    HW139234   1.416   6.271   7.544
 6849SOL    HW239235   1.555   6.225   7.471
 6850SOL     OW39236   1.777   4.950   8.094
 6850SOL    HW139237   1.756   4.865   8.143
 6850SOL    HW239238   1.764   5.028   8.155
 6851SOL     OW39239   2.900   4.337   0.521
 6851SOL    HW139240   2.897   4.307   0.616
 6851SOL    HW239241   2.817   4.390   0.500
 6852SOL     OW39242   0.497   2.306   1.483
 6852SOL    HW139243   0.431   2.359   1.535
 6852SOL    HW239244   0.454   2.268   1.402
 6853SOL     OW39245   2.696   7.049   0.833
 6853SOL    HW139246   2.642   7.075   0.753
 6853SOL    HW239247   2.779   7.105   0.836
 6854SOL     OW39248   3.994   5.652   0.035
 6854SOL    HW139249   4.077   5.707   0.031
 6854SOL    HW239250   4.012   5.569   0.089
 6855SOL     OW39251   9.834   1.601   0.060
 6855SOL    HW139252   9.778   1.531   0.016
 6855SOL    HW239253   9.893   1.645   8.774
 6856SOL     OW39254   9.489   0.617   0.295
 6856SOL    HW139255   9.405   0.644   0.249
 6856SOL    HW239256   9.467   0.558   0.373
 6857SOL     OW39257   1.309   1.908   7.397
 6857SOL    HW139258   1.237   1.871   7.337
 6857SOL    HW239259   1.285   2.001   7.425
 6858SOL     OW39260   5.092   1.299   0.861
 6858SOL    HW139261   5.057   1.320   0.953
 6858SOL    HW239262   5.056   1.210   0.832
 6859SOL     OW39263   6.481   1.524   0.513
 6859SOL    HW139264   6.508   1.613   0.477
 6859SOL    HW239265   6.444   1.468   0.439
 6860SOL     OW39266   2.399  10.203   0.819
 6860SOL    HW139267   2.371  10.281   0.762
 6860SOL    HW239268   2.467  10.234   0.885
 6861SOL     OW39269   7.110   2.303   1.572
 6861SOL    HW139270   7.031   2.335   1.625
 6861SOL    HW239271   7.162   2.238   1.627
 6862SOL     OW39272   3.412   3.231   0.496
 6862SOL    HW139273   3.403   3.132   0.507
 6862SOL    HW239274   3.508   3.256   0.485
 6863SOL     OW39275   9.964   8.966   0.379
 6863SOL    HW139276  10.060   8.943   0.394
 6863SOL    HW239277   9.947   8.978   0.281
 6864SOL     OW39278   8.277   4.251   2.373
 6864SOL    HW139279   8.217   4.219   2.445
 6864SOL    HW239280   8.225   4.261   2.288
 6865SOL     OW39281   7.182   8.746   7.593
 6865SOL    HW139282   7.231   8.708   7.514
 6865SOL    HW239283   7.084   8.740   7.576
 6866SOL     OW39284   6.701  10.058   1.310
 6866SOL    HW139285   6.740  10.147   1.335
 6866SOL    HW239286   6.772  10.002   1.267
 6867SOL     OW39287   7.687   8.744   8.259
 6867SOL    HW139288   7.769   8.688   8.250
 6867SOL    HW239289   7.627   8.704   8.329
 6868SOL     OW39290   4.193  10.455   0.273
 6868SOL    HW139291   4.142  10.370   0.279
 6868SOL    HW239292   4.197  10.485   0.177
 6869SOL     OW39293   4.227   0.791   0.773
 6869SOL    HW139294   4.133   0.757   0.785
 6869SOL    HW239295   4.226   0.891   0.776
 6870SOL     OW39296   1.035   0.751   8.252
 6870SOL    HW139297   1.096   0.818   8.210
 6870SOL    HW239298   0.995   0.693   8.180
 6871SOL     OW39299   0.080   8.881   7.989
 6871SOL    HW139300   0.067   8.863   7.892
 6871SOL    HW239301   0.167   8.928   8.003
 6872SOL     OW39302   7.892   1.711   1.408
 6872SOL    HW139303   7.871   1.686   1.314
 6872SOL    HW239304   7.818   1.769   1.445
 6873SOL     OW39305  10.036   8.445   0.955
 6873SOL    HW139306   9.981   8.488   0.884
 6873SOL    HW239307  10.045   8.507   1.033
 6874SOL     OW39308   7.962   2.546   7.454
 6874SOL    HW139309   7.999   2.582   7.368
 6874SOL    HW239310   7.862   2.542   7.448
 6875SOL     OW39311   2.175   0.657   7.991
 6875SOL    HW139312   2.228   0.574   7.971
 6875SOL    HW239313   2.174   0.673   8.090
 6876SOL     OW39314   2.950   5.550   6.864
 6876SOL    HW139315   2.879   5.561   6.934
 6876SOL    HW239316   3.015   5.626   6.871
 6877SOL     OW39317   8.217   6.932   1.731
 6877SOL    HW139318   8.264   6.903   1.814
 6877SOL    HW239319   8.281   6.984   1.673
 6878SOL     OW39320   9.033   5.137   0.477
 6878SOL    HW139321   9.132   5.125   0.489
 6878SOL    HW239322   8.996   5.056   0.430
 6879SOL     OW39323   4.272   0.863   7.934
 6879SOL    HW139324   4.356   0.824   7.895
 6879SOL    HW239325   4.193   0.830   7.883
 6880SOL     OW39326   3.250   9.494   8.620
 6880SOL    HW139327   3.154   9.466   8.627
 6880SOL    HW239328   3.307   9.414   8.600
 6881SOL     OW39329   9.377   6.394   7.828
 6881SOL    HW139330   9.344   6.393   7.922
 6881SOL    HW239331   9.450   6.462   7.818
 6882SOL     OW39332   4.349   3.612   0.315
 6882SOL    HW139333   4.404   3.575   0.240
 6882SOL    HW239334   4.409   3.659   0.380
 6883SOL     OW39335   8.975   3.256   7.796
 6883SOL    HW139336   8.879   3.234   7.780
 6883SOL    HW239337   9.017   3.288   7.711
 6884SOL     OW39338   6.481   7.296   0.861
 6884SOL    HW139339   6.383   7.277   0.859
 6884SOL    HW239340   6.498   7.376   0.919
 6885SOL     OW39341   7.266   3.670   0.216
 6885SOL    HW139342   7.179   3.683   0.264
 6885SOL    HW239343   7.310   3.586   0.247
 6886SOL     OW39344   9.734   7.967   8.636
 6886SOL    HW139345   9.709   7.917   8.719
 6886SOL    HW239346   9.655   8.019   8.603
 6887SOL     OW39347   9.686   8.896   0.718
 6887SOL    HW139348   9.769   8.922   0.767
 6887SOL    HW239349   9.710   8.856   0.630
 6888SOL     OW39350  10.099   5.827   0.268
 6888SOL    HW139351  10.088   5.875   0.354
 6888SOL    HW239352  10.024   5.762   0.255
 6889SOL     OW39353   5.831   6.394   0.164
 6889SOL    HW139354   5.859   6.390   0.260
 6889SOL    HW239355   5.846   6.304   0.121
 6890SOL     OW39356   1.972   1.084   0.108
 6890SOL    HW139357   1.891   1.118   0.155
 6890SOL    HW239358   2.025   1.026   0.170
 6891SOL     OW39359   9.104   0.117   8.295
 6891SOL    HW139360   9.050   0.115   8.211
 6891SOL    HW239361   9.202   0.116   8.272
 6892SOL     OW39362   6.595   2.319   1.313
 6892SOL    HW139363   6.694   2.329   1.321
 6892SOL    HW239364   6.552   2.409   1.312
 6893SOL     OW39365   2.798   0.109   7.874
 6893SOL    HW139366   2.765   0.190   7.922
 6893SOL    HW239367   2.730   0.079   7.808
 6894SOL     OW39368   6.105   0.636   0.987
 6894SOL    HW139369   6.114   0.563   0.919
 6894SOL    HW239370   6.140   0.721   0.949
 6895SOL     OW39371   7.592  10.205   6.453
 6895SOL    HW139372   7.572  10.118   6.500
 6895SOL    HW239373   7.510  10.237   6.407
 6896SOL     OW39374   7.876   3.590   6.201
 6896SOL    HW139375   7.902   3.644   6.121
 6896SOL    HW239376   7.782   3.558   6.192
 6897SOL     OW39377   3.608   1.062   6.927
 6897SOL    HW139378   3.564   1.027   7.010
 6897SOL    HW239379   3.704   1.080   6.946
 6898SOL     OW39380   1.248   8.753   7.736
 6898SOL    HW139381   1.283   8.800   7.655
 6898SOL    HW239382   1.324   8.712   7.786
 6899SOL     OW39383   4.333   3.679   0.933
 6899SOL    HW139384   4.323   3.699   1.031
 6899SOL    HW239385   4.242   3.671   0.892
 6900SOL     OW39386   7.450   2.649   0.197
 6900SOL    HW139387   7.489   2.731   0.155
 6900SOL    HW239388   7.353   2.642   0.171
 6901SOL     OW39389   7.537   4.763   7.637
 6901SOL    HW139390   7.626   4.776   7.592
 6901SOL    HW239391   7.551   4.714   7.723
 6902SOL     OW39392   3.376   4.274   7.124
 6902SOL    HW139393   3.284   4.275   7.163
 6902SOL    HW239394   3.375   4.321   7.036
 6903SOL     OW39395   2.300  10.410   8.708
 6903SOL    HW139396   2.366  10.427   8.781
 6903SOL    HW239397   2.320  10.323   8.664
 6904SOL     OW39398   6.423   9.252   7.950
 6904SOL    HW139399   6.444   9.296   8.038
 6904SOL    HW239400   6.399   9.156   7.966
 6905SOL     OW39401   6.781  10.312   6.260
 6905SOL    HW139402   6.809  10.394   6.309
 6905SOL    HW239403   6.837  10.301   6.178
 6906SOL     OW39404   8.167   8.026   7.334
 6906SOL    HW139405   8.141   7.933   7.359
 6906SOL    HW239406   8.137   8.089   7.405
 6907SOL     OW39407   0.979   9.293   1.335
 6907SOL    HW139408   0.944   9.246   1.416
 6907SOL    HW239409   1.077   9.275   1.327
 6908SOL     OW39410   2.838   9.343   7.040
 6908SOL    HW139411   2.896   9.308   7.114
 6908SOL    HW239412   2.850   9.287   6.958
 6909SOL     OW39413   3.794   6.654   8.748
 6909SOL    HW139414   3.850   6.593   0.023
 6909SOL    HW239415   3.706   6.611   8.730
 6910SOL     OW39416   4.144   1.096   1.847
 6910SOL    HW139417   4.066   1.044   1.882
 6910SOL    HW239418   4.145   1.187   1.890
 6911SOL     OW39419   6.348   7.240   0.143
 6911SOL    HW139420   6.358   7.337   0.122
 6911SOL    HW239421   6.290   7.197   0.074
 6912SOL     OW39422   8.171   1.788   1.137
 6912SOL    HW139423   8.183   1.855   1.064
 6912SOL    HW239424   8.180   1.696   1.099
 6913SOL     OW39425   0.947   7.620   0.866
 6913SOL    HW139426   0.943   7.633   0.767
 6913SOL    HW239427   1.039   7.590   0.892
 6914SOL     OW39428   3.178  10.360   0.132
 6914SOL    HW139429   3.177  10.419   0.052
 6914SOL    HW239430   3.127  10.276   0.114
 6915SOL     OW39431   4.172   2.838   8.729
 6915SOL    HW139432   4.207   2.929   8.711
 6915SOL    HW239433   4.126   2.837   0.037
 6916SOL     OW39434   8.696   9.495   0.728
 6916SOL    HW139435   8.625   9.549   0.772
 6916SOL    HW239436   8.655   9.411   0.691
 6917SOL     OW39437   9.952   6.700   1.846
 6917SOL    HW139438   9.909   6.611   1.858
 6917SOL    HW239439  10.001   6.725   1.929
 6918SOL     OW39440   3.741  10.500   1.665
 6918SOL    HW139441   3.714  10.410   1.700
 6918SOL    HW239442   3.830   0.022   1.702
 6919SOL     OW39443   4.751   3.229   0.719
 6919SOL    HW139444   4.762   3.325   0.744
 6919SOL    HW239445   4.745   3.173   0.802
 6920SOL     OW39446   2.194   8.912   7.157
 6920SOL    HW139447   2.122   8.973   7.124
 6920SOL    HW239448   2.187   8.903   7.257
 6921SOL     OW39449   6.901   6.202   7.630
 6921SOL    HW139450   6.983   6.198   7.572
 6921SOL    HW239451   6.928   6.224   7.724
 6922SOL     OW39452   4.384   4.130   6.944
 6922SOL    HW139453   4.351   4.091   6.858
 6922SOL    HW239454   4.308   4.173   6.992
 6923SOL     OW39455  10.046   5.490   1.170
 6923SOL    HW139456  10.095   5.482   1.084
 6923SOL    HW239457  10.111   5.506   1.244
 6924SOL     OW39458   3.903   0.592   7.516
 6924SOL    HW139459   3.907   0.691   7.533
 6924SOL    HW239460   3.989   0.561   7.477
 6925SOL     OW39461   1.517   1.738   7.423
 6925SOL    HW139462   1.438   1.799   7.417
 6925SOL    HW239463   1.578   1.754   7.345
 6926SOL     OW39464   1.821   5.799   6.325
 6926SOL    HW139465   1.849   5.734   6.396
 6926SOL    HW239466   1.731   5.836   6.347
 6927SOL     OW39467   0.352   8.920   0.988
 6927SOL    HW139468   0.426   8.927   0.921
 6927SOL    HW239469   0.367   8.987   1.061
 6928SOL     OW39470   8.194   5.135   6.795
 6928SOL    HW139471   8.286   5.130   6.757
 6928SOL    HW239472   8.198   5.155   6.893
 6929SOL     OW39473   7.756   3.636   8.059
 6929SOL    HW139474   7.754   3.539   8.084
 6929SOL    HW239475   7.842   3.655   8.011
 6930SOL     OW39476   5.051   3.514   7.214
 6930SOL    HW139477   4.955   3.519   7.244
 6930SOL    HW239478   5.100   3.595   7.246
 6931SOL     OW39479   8.227   3.382   8.053
 6931SOL    HW139480   8.246   3.462   8.110
 6931SOL    HW239481   8.146   3.400   7.998
 6932SOL     OW39482   2.517   8.152   7.612
 6932SOL    HW139483   2.583   8.101   7.667
 6932SOL    HW239484   2.443   8.186   7.671
 6933SOL     OW39485   2.349   7.999   0.674
 6933SOL    HW139486   2.377   7.987   0.579
 6933SOL    HW239487   2.251   7.981   0.682
 6934SOL     OW39488   6.531   3.106   7.664
 6934SOL    HW139489   6.554   3.011   7.641
 6934SOL    HW239490   6.536   3.162   7.582
 6935SOL     OW39491   7.267   9.569   1.392
 6935SOL    HW139492   7.241   9.658   1.429
 6935SOL    HW239493   7.188   9.528   1.347
 6936SOL     OW39494   1.117   1.480   1.404
 6936SOL    HW139495   1.023   1.448   1.418
 6936SOL    HW239496   1.172   1.407   1.363
 6937SOL     OW39497   7.915   5.754   0.692
 6937SOL    HW139498   7.982   5.752   0.767
 6937SOL    HW239499   7.851   5.678   0.702
 6938SOL     OW39500   2.660   7.958   8.454
 6938SOL    HW139501   2.720   7.904   8.514
 6938SOL    HW239502   2.565   7.950   8.486
 6939SOL     OW39503   3.054   7.517   8.428
 6939SOL    HW139504   3.006   7.595   8.386
 6939SOL    HW239505   3.025   7.433   8.383
 6940SOL     OW39506   0.867   3.984   6.731
 6940SOL    HW139507   0.961   3.969   6.761
 6940SOL    HW239508   0.863   3.984   6.631
 6941SOL     OW39509   1.517   1.054   0.316
 6941SOL    HW139510   1.456   1.065   0.393
 6941SOL    HW239511   1.551   0.959   0.313
 6942SOL     OW39512   2.997   0.724   0.507
 6942SOL    HW139513   3.025   0.820   0.500
 6942SOL    HW239514   2.899   0.719   0.523
 6943SOL     OW39515   6.392   3.657   8.708
 6943SOL    HW139516   6.403   3.584   8.641
 6943SOL    HW239517   6.386   3.617   0.018
 6944SOL     OW39518   1.549   6.554   8.547
 6944SOL    HW139519   1.579   6.633   8.599
 6944SOL    HW239520   1.513   6.584   8.458
 6945SOL     OW39521   6.695   5.410   0.014
 6945SOL    HW139522   6.771   5.431   8.734
 6945SOL    HW239523   6.650   5.495   0.042
 6946SOL     OW39524   3.338  10.160   0.703
 6946SOL    HW139525   3.263  10.185   0.764
 6946SOL    HW239526   3.408  10.110   0.754
 6947SOL     OW39527   9.741   6.324   0.373
 6947SOL    HW139528   9.785   6.244   0.413
 6947SOL    HW239529   9.796   6.357   0.296
 6948SOL     OW39530   1.374  10.105   1.031
 6948SOL    HW139531   1.304  10.079   0.966
 6948SOL    HW239532   1.457  10.134   0.983
 6949SOL     OW39533   6.884   8.313   1.161
 6949SOL    HW139534   6.830   8.373   1.220
 6949SOL    HW239535   6.874   8.218   1.192
 6950SOL     OW39536   9.122   6.627   1.149
 6950SOL    HW139537   9.206   6.582   1.179
 6950SOL    HW239538   9.144   6.716   1.109
 6951SOL     OW39539   2.988   5.373   8.110
 6951SOL    HW139540   2.944   5.300   8.059
 6951SOL    HW239541   3.072   5.402   8.063
 6952SOL     OW39542   4.245   1.670   0.268
 6952SOL    HW139543   4.243   1.657   0.367
 6952SOL    HW239544   4.287   1.590   0.225
 6953SOL     OW39545   4.624   0.756   8.245
 6953SOL    HW139546   4.526   0.745   8.260
 6953SOL    HW239547   4.669   0.667   8.252
 6954SOL     OW39548   7.589   5.897   1.614
 6954SOL    HW139549   7.517   5.883   1.682
 6954SOL    HW239550   7.675   5.919   1.660
 6955SOL     OW39551   7.746   5.379   0.279
 6955SOL    HW139552   7.819   5.359   0.215
 6955SOL    HW239553   7.753   5.473   0.311
 6956SOL     OW39554   6.147   6.519   0.159
 6956SOL    HW139555   6.123   6.568   0.243
 6956SOL    HW239556   6.077   6.535   0.090
 6957SOL     OW39557   3.512   4.719   8.570
 6957SOL    HW139558   3.465   4.760   8.491
 6957SOL    HW239559   3.578   4.784   8.606
 6958SOL     OW39560   8.193   6.730   1.144
 6958SOL    HW139561   8.290   6.734   1.122
 6958SOL    HW239562   8.142   6.694   1.065
 6959SOL     OW39563   2.526   3.401   1.427
 6959SOL    HW139564   2.482   3.414   1.339
 6959SOL    HW239565   2.621   3.431   1.422
 6960SOL     OW39566   9.648   4.087   8.424
 6960SOL    HW139567   9.683   4.146   8.352
 6960SOL    HW239568   9.591   4.141   8.486
 6961SOL     OW39569   9.520   0.412   1.559
 6961SOL    HW139570   9.521   0.497   1.505
 6961SOL    HW239571   9.457   0.347   1.516
 6962SOL     OW39572   5.836   9.252   0.811
 6962SOL    HW139573   5.777   9.211   0.742
 6962SOL    HW239574   5.795   9.338   0.843
 6963SOL     OW39575   3.491   8.745   7.192
 6963SOL    HW139576   3.567   8.711   7.137
 6963SOL    HW239577   3.436   8.668   7.224
 6964SOL     OW39578   8.717   2.934   7.838
 6964SOL    HW139579   8.620   2.909   7.831
 6964SOL    HW239580   8.728   3.029   7.807
 6965SOL     OW39581   4.174   3.468   8.621
 6965SOL    HW139582   4.129   3.387   8.658
 6965SOL    HW239583   4.273   3.461   8.636
 6966SOL     OW39584   0.528   6.477   0.257
 6966SOL    HW139585   0.484   6.434   0.178
 6966SOL    HW239586   0.608   6.528   0.226
 6967SOL     OW39587   6.346   5.100   0.722
 6967SOL    HW139588   6.294   5.015   0.734
 6967SOL    HW239589   6.283   5.177   0.716
 6968SOL     OW39590  10.119   9.860   8.469
 6968SOL    HW139591  10.135   9.795   8.543
 6968SOL    HW239592  10.026   9.849   8.434
 6969SOL     OW39593   8.884   4.316   2.157
 6969SOL    HW139594   8.818   4.388   2.179
 6969SOL    HW239595   8.968   4.332   2.209
 6970SOL     OW39596   1.427   5.141   0.771
 6970SOL    HW139597   1.460   5.234   0.784
 6970SOL    HW239598   1.375   5.112   0.852
 6971SOL     OW39599   9.066   0.980   1.038
 6971SOL    HW139600   9.082   1.078   1.055
 6971SOL    HW239601   9.152   0.931   1.042
 6972SOL     OW39602   5.137   3.269   7.854
 6972SOL    HW139603   5.062   3.256   7.789
 6972SOL    HW239604   5.208   3.326   7.811
 6973SOL     OW39605   8.137   3.473   8.355
 6973SOL    HW139606   8.120   3.571   8.356
 6973SOL    HW239607   8.050   3.424   8.351
 6974SOL     OW39608   9.713   2.777   1.219
 6974SOL    HW139609   9.699   2.759   1.122
 6974SOL    HW239610   9.769   2.860   1.229
 6975SOL     OW39611   5.962  10.160   7.185
 6975SOL    HW139612   5.910  10.212   7.253
 6975SOL    HW239613   5.902  10.131   7.111
 6976SOL     OW39614   6.563   0.209   2.404
 6976SOL    HW139615   6.635   0.181   2.467
 6976SOL    HW239616   6.475   0.176   2.437
 6977SOL     OW39617   3.350   8.568   1.874
 6977SOL    HW139618   3.276   8.549   1.939
 6977SOL    HW239619   3.312   8.570   1.781
 6978SOL     OW39620   5.133   3.215   1.975
 6978SOL    HW139621   5.184   3.264   1.905
 6978SOL    HW239622   5.164   3.244   2.066
 6979SOL     OW39623   2.500   1.882   0.502
 6979SOL    HW139624   2.507   1.840   0.412
 6979SOL    HW239625   2.576   1.851   0.559
 6980SOL     OW39626   8.685   3.828   0.597
 6980SOL    HW139627   8.632   3.804   0.678
 6980SOL    HW239628   8.765   3.768   0.591
 6981SOL     OW39629   9.271   2.484   7.561
 6981SOL    HW139630   9.299   2.579   7.575
 6981SOL    HW239631   9.215   2.454   7.638
 6982SOL     OW39632   4.638   9.274   7.044
 6982SOL    HW139633   4.700   9.232   6.978
 6982SOL    HW239634   4.544   9.262   7.014
 6983SOL     OW39635   7.472   1.127   2.021
 6983SOL    HW139636   7.440   1.038   1.990
 6983SOL    HW239637   7.394   1.183   2.050
 6984SOL     OW39638   4.685   1.659   0.744
 6984SOL    HW139639   4.687   1.578   0.801
 6984SOL    HW239640   4.775   1.703   0.744
 6985SOL     OW39641   7.924  10.132   0.162
 6985SOL    HW139642   7.835  10.166   0.192
 6985SOL    HW239643   7.991  10.205   0.165
 6986SOL     OW39644   6.283   0.530   1.167
 6986SOL    HW139645   6.215   0.570   1.106
 6986SOL    HW239646   6.362   0.500   1.113
 6987SOL     OW39647   3.313   0.666   7.010
 6987SOL    HW139648   3.407   0.635   7.001
 6987SOL    HW239649   3.252   0.601   6.965
 6988SOL     OW39650   9.193   8.014   7.984
 6988SOL    HW139651   9.184   7.921   7.949
 6988SOL    HW239652   9.159   8.018   8.078
 6989SOL     OW39653   7.650  10.134   7.091
 6989SOL    HW139654   7.724  10.089   7.142
 6989SOL    HW239655   7.572  10.072   7.086
 6990SOL     OW39656   7.764   1.366   0.044
 6990SOL    HW139657   7.763   1.368   8.726
 6990SOL    HW239658   7.834   1.428   0.078
 6991SOL     OW39659   9.762   1.867   1.847
 6991SOL    HW139660   9.850   1.900   1.881
 6991SOL    HW239661   9.747   1.902   1.754
 6992SOL     OW39662   6.388   4.694   8.586
 6992SOL    HW139663   6.468   4.702   8.527
 6992SOL    HW239664   6.305   4.695   8.531
 6993SOL     OW39665   0.872   1.232   2.227
 6993SOL    HW139666   0.931   1.310   2.205
 6993SOL    HW239667   0.776   1.257   2.214
 6994SOL     OW39668   9.309   7.209   8.714
 6994SOL    HW139669   9.244   7.136   8.736
 6994SOL    HW239670   9.273   7.296   8.746
 6995SOL     OW39671   8.696   9.932   0.589
 6995SOL    HW139672   8.651   9.888   0.512
 6995SOL    HW239673   8.753   9.865   0.637
 6996SOL     OW39674   9.570   6.074   1.394
 6996SOL    HW139675   9.580   6.066   1.493
 6996SOL    HW239676   9.656   6.105   1.354
 6997SOL     OW39677   0.185   5.272   8.158
 6997SOL    HW139678   0.229   5.188   8.126
 6997SOL    HW239679   0.225   5.300   8.245
 6998SOL     OW39680   3.749   1.195   8.693
 6998SOL    HW139681   3.741   1.267   8.624
 6998SOL    HW239682   3.658   1.159   8.714
 6999SOL     OW39683   4.276   2.509   8.647
 6999SOL    HW139684   4.205   2.479   8.710
 6999SOL    HW239685   4.335   2.576   8.692
 7000SOL     OW39686   7.459   6.510   7.018
 7000SOL    HW139687   7.538   6.450   7.006
 7000SOL    HW239688   7.407   6.515   6.932
 7001SOL     OW39689   9.050   1.624   0.223
 7001SOL    HW139690   8.958   1.615   0.184
 7001SOL    HW239691   9.056   1.708   0.277
 7002SOL     OW39692   2.534   2.489   0.408
 7002SOL    HW139693   2.628   2.456   0.420
 7002SOL    HW239694   2.503   2.469   0.316
 7003SOL     OW39695   2.319   8.070   8.232
 7003SOL    HW139696   2.317   8.064   8.132
 7003SOL    HW239697   2.376   7.996   8.268
 7004SOL     OW39698   5.349   4.397   1.441
 7004SOL    HW139699   5.392   4.439   1.521
 7004SOL    HW239700   5.318   4.468   1.379
 7005SOL     OW39701   8.393   4.951   1.920
 7005SOL    HW139702   8.410   5.048   1.936
 7005SOL    HW239703   8.469   4.912   1.868
 7006SOL     OW39704   3.996   2.554   1.042
 7006SOL    HW139705   3.946   2.479   1.000
 7006SOL    HW239706   4.088   2.524   1.064
 7007SOL     OW39707   0.060   2.259   1.838
 7007SOL    HW139708   0.101   2.182   1.888
 7007SOL    HW239709   0.033   2.330   1.903
 7008SOL     OW39710   2.259   2.496   7.701
 7008SOL    HW139711   2.180   2.496   7.640
 7008SOL    HW239712   2.341   2.470   7.649
 7009SOL     OW39713   9.957   0.123   0.691
 7009SOL    HW139714   9.909   0.210   0.687
 7009SOL    HW239715   9.903   0.052   0.646
 7010SOL     OW39716   3.026   4.088   7.732
 7010SOL    HW139717   2.974   4.168   7.702
 7010SOL    HW239718   3.124   4.112   7.736
 7011SOL     OW39719   5.585   8.850   1.475
 7011SOL    HW139720   5.572   8.931   1.533
 7011SOL    HW239721   5.593   8.769   1.533
 7012SOL     OW39722   1.210   7.115   0.961
 7012SOL    HW139723   1.306   7.142   0.950
 7012SOL    HW239724   1.203   7.016   0.957
 7013SOL     OW39725   6.436   0.825   1.798
 7013SOL    HW139726   6.427   0.808   1.896
 7013SOL    HW239727   6.524   0.870   1.780
 7014SOL     OW39728   8.367  10.171   8.408
 7014SOL    HW139729   8.268  10.162   8.393
 7014SOL    HW239730   8.390  10.268   8.419
 7015SOL     OW39731   4.287   2.318   7.479
 7015SOL    HW139732   4.340   2.295   7.561
 7015SOL    HW239733   4.338   2.290   7.398
 7016SOL     OW39734   2.376   7.105   7.238
 7016SOL    HW139735   2.368   7.054   7.152
 7016SOL    HW239736   2.413   7.196   7.219
 7017SOL     OW39737   3.858  10.335   0.471
 7017SOL    HW139738   3.772  10.362   0.429
 7017SOL    HW239739   3.917  10.294   0.402
 7018SOL     OW39740   2.224   7.124   6.008
 7018SOL    HW139741   2.236   7.065   5.928
 7018SOL    HW239742   2.269   7.083   6.087
 7019SOL     OW39743   3.089   7.892   8.424
 7019SOL    HW139744   3.148   7.849   8.356
 7019SOL    HW239745   3.125   7.983   8.447
 7020SOL     OW39746   7.107   5.905   8.478
 7020SOL    HW139747   7.026   5.936   8.529
 7020SOL    HW239748   7.190   5.930   8.529
 7021SOL     OW39749   7.762   3.084   1.939
 7021SOL    HW139750   7.748   3.174   1.979
 7021SOL    HW239751   7.760   3.015   2.012
 7022SOL     OW39752   7.520   0.779   0.108
 7022SOL    HW139753   7.571   0.843   0.050
 7022SOL    HW239754   7.445   0.739   0.054
 7023SOL     OW39755   5.511   3.579   8.621
 7023SOL    HW139756   5.475   3.573   8.714
 7023SOL    HW239757   5.465   3.511   8.563
 7024SOL     OW39758   7.026   9.118   7.907
 7024SOL    HW139759   7.096   9.066   7.858
 7024SOL    HW239760   7.058   9.140   7.998
 7025SOL     OW39761   2.131   6.279   0.360
 7025SOL    HW139762   2.211   6.223   0.381
 7025SOL    HW239763   2.143   6.321   0.270
 7026SOL     OW39764   6.136   4.401   8.401
 7026SOL    HW139765   6.081   4.350   8.335
 7026SOL    HW239766   6.232   4.396   8.375
 7027SOL     OW39767   9.730   4.959   6.759
 7027SOL    HW139768   9.662   5.032   6.758
 7027SOL    HW239769   9.818   4.996   6.791
 7028SOL     OW39770   5.627   5.692   1.070
 7028SOL    HW139771   5.653   5.781   1.108
 7028SOL    HW239772   5.587   5.636   1.143
 7029SOL     OW39773   3.047   0.301   1.086
 7029SOL    HW139774   3.016   0.217   1.041
 7029SOL    HW239775   3.034   0.293   1.184
 7030SOL     OW39776   0.849  10.468   0.295
 7030SOL    HW139777   0.913  10.495   0.222
 7030SOL    HW239778   0.783   0.038   0.311
 7031SOL     OW39779   2.311   8.353   8.228
 7031SOL    HW139780   2.405   8.380   8.206
 7031SOL    HW239781   2.307   8.253   8.240
 7032SOL     OW39782   8.703   3.201   7.761
 7032SOL    HW139783   8.706   3.269   7.688
 7032SOL    HW239784   8.616   3.207   7.810
 7033SOL     OW39785   1.269   2.704   7.989
 7033SOL    HW139786   1.291   2.671   8.081
 7033SOL    HW239787   1.214   2.636   7.941
 7034SOL     OW39788   1.570   2.744   1.907
 7034SOL    HW139789   1.475   2.765   1.882
 7034SOL    HW239790   1.584   2.763   2.004
 7035SOL     OW39791   7.253   2.612   1.717
 7035SOL    HW139792   7.327   2.679   1.713
 7035SOL    HW239793   7.248   2.574   1.810
 7036SOL     OW39794   1.700   6.754   0.513
 7036SOL    HW139795   1.630   6.684   0.525
 7036SOL    HW239796   1.730   6.788   0.602
 7037SOL     OW39797   7.076   8.275   0.967
 7037SOL    HW139798   6.997   8.283   1.029
 7037SOL    HW239799   7.154   8.321   1.008
 7038SOL     OW39800   1.504   2.405   6.866
 7038SOL    HW139801   1.511   2.378   6.962
 7038SOL    HW239802   1.533   2.328   6.808
 7039SOL     OW39803   9.501   8.085   8.549
 7039SOL    HW139804   9.431   8.148   8.516
 7039SOL    HW239805   9.487   7.995   8.507
 7040SOL     OW39806   6.613   6.115   8.321
 7040SOL    HW139807   6.534   6.139   8.264
 7040SOL    HW239808   6.624   6.016   8.322
 7041SOL     OW39809   4.983   7.052   0.606
 7041SOL    HW139810   4.990   7.002   0.520
 7041SOL    HW239811   4.936   6.995   0.674
 7042SOL     OW39812   6.158   7.184   8.732
 7042SOL    HW139813   6.108   7.198   0.036
 7042SOL    HW239814   6.092   7.178   8.656
 7043SOL     OW39815   6.600   2.739   6.884
 7043SOL    HW139816   6.658   2.669   6.842
 7043SOL    HW239817   6.602   2.822   6.828
 7044SOL     OW39818   8.771   5.892   0.458
 7044SOL    HW139819   8.798   5.819   0.522
 7044SOL    HW239820   8.680   5.924   0.481
 7045SOL     OW39821   8.488   1.744   8.172
 7045SOL    HW139822   8.526   1.742   8.080
 7045SOL    HW239823   8.434   1.828   8.184
 7046SOL     OW39824   7.233   2.155   1.779
 7046SOL    HW139825   7.322   2.200   1.774
 7046SOL    HW239826   7.198   2.161   1.872
 7047SOL     OW39827   5.619   4.673   7.654
 7047SOL    HW139828   5.575   4.752   7.696
 7047SOL    HW239829   5.671   4.703   7.574
 7048SOL     OW39830   7.641   4.491   7.064
 7048SOL    HW139831   7.582   4.446   6.997
 7048SOL    HW239832   7.651   4.587   7.041
 7049SOL     OW39833   8.750   2.255   8.675
 7049SOL    HW139834   8.734   2.158   8.658
 7049SOL    HW239835   8.844   2.278   8.651
 7050SOL     OW39836   6.178   1.720   6.503
 7050SOL    HW139837   6.177   1.629   6.462
 7050SOL    HW239838   6.099   1.772   6.473
 7051SOL     OW39839   3.399   5.538   7.582
 7051SOL    HW139840   3.358   5.616   7.629
 7051SOL    HW239841   3.397   5.458   7.643
 7052SOL     OW39842   2.618   2.036   7.718
 7052SOL    HW139843   2.549   2.058   7.649
 7052SOL    HW239844   2.643   1.939   7.710
 7053SOL     OW39845   3.749   4.027   7.848
 7053SOL    HW139846   3.679   3.959   7.824
 7053SOL    HW239847   3.838   3.995   7.818
 7054SOL     OW39848   5.808   8.402   7.766
 7054SOL    HW139849   5.760   8.399   7.854
 7054SOL    HW239850   5.893   8.454   7.776
 7055SOL     OW39851   4.842   6.342   7.969
 7055SOL    HW139852   4.866   6.273   8.037
 7055SOL    HW239853   4.846   6.433   8.011
 7056SOL     OW39854   2.308   0.522   7.641
 7056SOL    HW139855   2.400   0.495   7.612
 7056SOL    HW239856   2.241   0.462   7.599
 7057SOL     OW39857   8.018   4.014   7.959
 7057SOL    HW139858   7.979   3.997   8.049
 7057SOL    HW239859   8.096   3.954   7.943
 7058SOL     OW39860   7.563  10.054   7.727
 7058SOL    HW139861   7.545  10.053   7.628
 7058SOL    HW239862   7.567  10.148   7.760
 7059SOL     OW39863   2.531   6.790   2.207
 7059SOL    HW139864   2.551   6.870   2.263
 7059SOL    HW239865   2.557   6.707   2.256
 7060SOL     OW39866   1.820   9.322   1.591
 7060SOL    HW139867   1.766   9.247   1.630
 7060SOL    HW239868   1.867   9.370   1.665
 7061SOL     OW39869   8.994   2.081   7.990
 7061SOL    HW139870   8.935   2.009   7.955
 7061SOL    HW239871   9.040   2.050   8.073
 7062SOL     OW39872   1.484   7.033   1.645
 7062SOL    HW139873   1.476   7.052   1.547
 7062SOL    HW239874   1.424   7.095   1.695
 7063SOL     OW39875   9.908   5.217   6.289
 7063SOL    HW139876   9.988   5.205   6.230
 7063SOL    HW239877   9.826   5.220   6.232
 7064SOL     OW39878   8.609   4.474   7.989
 7064SOL    HW139879   8.587   4.430   7.902
 7064SOL    HW239880   8.580   4.570   7.985
 7065SOL     OW39881   2.886   4.298   7.613
 7065SOL    HW139882   2.835   4.266   7.533
 7065SOL    HW239883   2.941   4.377   7.588
 7066SOL     OW39884   8.099   4.113   6.410
 7066SOL    HW139885   8.155   4.039   6.371
 7066SOL    HW239886   8.011   4.116   6.363
 7067SOL     OW39887   4.127   1.471   7.506
 7067SOL    HW139888   4.206   1.409   7.496
 7067SOL    HW239889   4.159   1.562   7.532
 7068SOL     OW39890   3.366  10.294   8.097
 7068SOL    HW139891   3.462  10.277   8.117
 7068SOL    HW239892   3.317  10.317   8.182
 7069SOL     OW39893   9.924   0.443   1.278
 7069SOL    HW139894   9.934   0.390   1.363
 7069SOL    HW239895   9.828   0.451   1.254
 7070SOL     OW39896   1.790   8.810   7.208
 7070SOL    HW139897   1.819   8.841   7.118
 7070SOL    HW239898   1.734   8.880   7.251
 7071SOL     OW39899   6.858   5.520   1.663
 7071SOL    HW139900   6.767   5.518   1.622
 7071SOL    HW239901   6.849   5.525   1.763
 7072SOL     OW39902   5.778   2.032   0.577
 7072SOL    HW139903   5.852   2.041   0.645
 7072SOL    HW239904   5.760   1.935   0.561
 7073SOL     OW39905   8.469   8.605   8.431
 7073SOL    HW139906   8.410   8.536   8.472
 7073SOL    HW239907   8.446   8.615   8.335
 7074SOL     OW39908   4.493   1.695   8.123
 7074SOL    HW139909   4.505   1.649   8.211
 7074SOL    HW239910   4.407   1.665   8.082
 7075SOL     OW39911   0.297   6.801   7.155
 7075SOL    HW139912   0.323   6.710   7.186
 7075SOL    HW239913   0.261   6.854   7.232
 7076SOL     OW39914   4.813   6.908   1.894
 7076SOL    HW139915   4.909   6.934   1.905
 7076SOL    HW239916   4.802   6.811   1.916
 7077SOL     OW39917   8.871   9.293   1.590
 7077SOL    HW139918   8.927   9.211   1.575
 7077SOL    HW239919   8.896   9.363   1.523
 7078SOL     OW39920   0.648   5.965   0.614
 7078SOL    HW139921   0.616   5.941   0.523
 7078SOL    HW239922   0.591   6.039   0.651
 7079SOL     OW39923   1.244   5.912   0.556
 7079SOL    HW139924   1.179   5.914   0.633
 7079SOL    HW239925   1.277   6.005   0.538
 7080SOL     OW39926   0.884   6.946   1.560
 7080SOL    HW139927   0.882   7.012   1.486
 7080SOL    HW239928   0.882   6.994   1.648
 7081SOL     OW39929   8.906   0.229   0.854
 7081SOL    HW139930   8.920   0.268   0.946
 7081SOL    HW239931   8.863   0.297   0.795
 7082SOL     OW39932   8.831   9.796   8.760
 7082SOL    HW139933   8.758   9.747   8.712
 7082SOL    HW239934   8.918   9.782   8.712
 7083SOL     OW39935   0.391  10.383   0.368
 7083SOL    HW139936   0.407  10.469   0.417
 7083SOL    HW239937   0.478  10.349   0.332
 7084SOL     OW39938   7.293  10.027   0.316
 7084SOL    HW139939   7.355  10.006   0.241
 7084SOL    HW239940   7.342  10.079   0.387
 7085SOL     OW39941   6.573   0.872   7.891
 7085SOL    HW139942   6.622   0.868   7.978
 7085SOL    HW239943   6.625   0.824   7.821
 7086SOL     OW39944   5.265   4.129   8.080
 7086SOL    HW139945   5.230   4.220   8.104
 7086SOL    HW239946   5.286   4.079   8.164
 7087SOL     OW39947   8.861   2.152   0.534
 7087SOL    HW139948   8.957   2.175   0.546
 7087SOL    HW239949   8.849   2.053   0.542
 7088SOL     OW39950   2.317   7.046   7.576
 7088SOL    HW139951   2.406   7.088   7.558
 7088SOL    HW239952   2.309   6.961   7.523
 7089SOL     OW39953   2.615   8.263   2.082
 7089SOL    HW139954   2.584   8.255   2.176
 7089SOL    HW239955   2.662   8.350   2.069
 7090SOL     OW39956   2.394   1.737   7.105
 7090SOL    HW139957   2.437   1.814   7.059
 7090SOL    HW239958   2.295   1.740   7.089
 7091SOL     OW39959   2.273   8.982   8.646
 7091SOL    HW139960   2.196   9.020   8.698
 7091SOL    HW239961   2.238   8.928   8.569
 7092SOL     OW39962   3.862   6.007   7.662
 7092SOL    HW139963   3.822   5.987   7.751
 7092SOL    HW239964   3.834   5.937   7.596
 7093SOL     OW39965   6.780  10.323   1.086
 7093SOL    HW139966   6.831  10.261   1.027
 7093SOL    HW239967   6.804  10.305   1.182
 7094SOL     OW39968   1.045   9.622   7.981
 7094SOL    HW139969   0.951   9.639   7.951
 7094SOL    HW239970   1.097   9.708   7.979
 7095SOL     OW39971   7.554   6.670   1.471
 7095SOL    HW139972   7.642   6.717   1.465
 7095SOL    HW239973   7.480   6.736   1.461
 7096SOL     OW39974   1.282   2.178   7.478
 7096SOL    HW139975   1.247   2.221   7.561
 7096SOL    HW239976   1.381   2.163   7.488
 7097SOL     OW39977   9.500   2.060   0.433
 7097SOL    HW139978   9.404   2.058   0.405
 7097SOL    HW239979   9.559   2.070   0.353
 7098SOL     OW39980   0.441   5.973   2.092
 7098SOL    HW139981   0.422   6.053   2.148
 7098SOL    HW239982   0.354   5.930   2.065
 7099SOL     OW39983   3.698   2.804   0.110
 7099SOL    HW139984   3.766   2.731   0.097
 7099SOL    HW239985   3.734   2.890   0.075
 7100SOL     OW39986   6.829  10.350   8.438
 7100SOL    HW139987   6.838  10.270   8.497
 7100SOL    HW239988   6.741  10.345   8.390
 7101SOL     OW39989   9.031   6.739   1.510
 7101SOL    HW139990   8.980   6.798   1.572
 7101SOL    HW239991   9.077   6.794   1.441
 7102SOL     OW39992   9.465   3.203   0.014
 7102SOL    HW139993   9.551   3.192   0.065
 7102SOL    HW239994   9.429   3.113   8.772
 7103SOL     OW39995   0.612   9.623   6.828
 7103SOL    HW139996   0.686   9.584   6.772
 7103SOL    HW239997   0.542   9.661   6.768
 7104SOL     OW39998   6.125   0.980   0.099
 7104SOL    HW139999   6.121   0.980   8.781
 7104SOL    HW240000   6.057   0.915   0.135
 7105SOL     OW40001   8.493   7.560   1.018
 7105SOL    HW140002   8.395   7.544   1.005
 7105SOL    HW240003   8.506   7.635   1.083
 7106SOL     OW40004   0.169   3.506   6.948
 7106SOL    HW140005   0.204   3.578   7.009
 7106SOL    HW240006   0.240   3.437   6.933
 7107SOL     OW40007   3.364   7.936   0.270
 7107SOL    HW140008   3.444   7.997   0.276
 7107SOL    HW240009   3.313   7.956   0.186
 7108SOL     OW40010   4.113   4.903   6.939
 7108SOL    HW140011   4.190   4.930   6.881
 7108SOL    HW240012   4.064   4.984   6.970
 7109SOL     OW40013   4.427   1.709   7.292
 7109SOL    HW140014   4.471   1.715   7.203
 7109SOL    HW240015   4.328   1.716   7.281
 7110SOL     OW40016   7.212   2.936   2.120
 7110SOL    HW140017   7.312   2.946   2.117
 7110SOL    HW240018   7.184   2.904   2.210
 7111SOL     OW40019   3.942   7.715   7.451
 7111SOL    HW140020   3.983   7.779   7.516
 7111SOL    HW240021   3.851   7.748   7.425
 7112SOL     OW40022   6.550   3.248   6.738
 7112SOL    HW140023   6.491   3.319   6.776
 7112SOL    HW240024   6.646   3.273   6.752
 7113SOL     OW40025   1.114   0.084   1.036
 7113SOL    HW140026   1.094   0.182   1.036
 7113SOL    HW240027   1.029   0.033   1.027
 7114SOL     OW40028   6.021   7.335   6.574
 7114SOL    HW140029   6.001   7.275   6.497
 7114SOL    HW240030   6.114   7.317   6.607
 7115SOL     OW40031   4.141   5.311   2.145
 7115SOL    HW140032   4.133   5.384   2.213
 7115SOL    HW240033   4.059   5.311   2.087
 7116SOL     OW40034   3.808   9.314   8.056
 7116SOL    HW140035   3.788   9.379   7.983
 7116SOL    HW240036   3.789   9.356   8.145
 7117SOL     OW40037   1.970   2.900   1.270
 7117SOL    HW140038   1.914   2.964   1.216
 7117SOL    HW240039   1.911   2.846   1.329
 7118SOL     OW40040   6.800   3.620   6.543
 7118SOL    HW140041   6.806   3.529   6.502
 7118SOL    HW240042   6.704   3.646   6.555
 7119SOL     OW40043   7.500   5.023   0.808
 7119SOL    HW140044   7.568   4.969   0.857
 7119SOL    HW240045   7.523   5.025   0.711
 7120SOL     OW40046   5.725   0.679   0.031
 7120SOL    HW140047   5.671   0.673   8.729
 7120SOL    HW240048   5.796   0.609   0.030
 7121SOL     OW40049   8.703   5.220   6.940
 7121SOL    HW140050   8.670   5.150   7.004
 7121SOL    HW240051   8.632   5.289   6.928
 7122SOL     OW40052   5.992   9.527   0.657
 7122SOL    HW140053   6.043   9.566   0.580
 7122SOL    HW240054   6.043   9.448   0.693
 7123SOL     OW40055   1.878   9.694   7.573
 7123SOL    HW140056   1.938   9.651   7.641
 7123SOL    HW240057   1.927   9.768   7.527
 7124SOL     OW40058   3.401   4.120   2.186
 7124SOL    HW140059   3.358   4.209   2.198
 7124SOL    HW240060   3.334   4.048   2.202
 7125SOL     OW40061   7.810   4.774   7.536
 7125SOL    HW140062   7.812   4.680   7.502
 7125SOL    HW240063   7.827   4.775   7.634
 7126SOL     OW40064   5.833   3.825   0.966
 7126SOL    HW140065   5.892   3.810   1.046
 7126SOL    HW240066   5.877   3.788   0.885
 7127SOL     OW40067   0.713   6.138   6.740
 7127SOL    HW140068   0.671   6.187   6.664
 7127SOL    HW240069   0.704   6.193   6.823
 7128SOL     OW40070   2.803  10.349   0.641
 7128SOL    HW140071   2.724  10.319   0.588
 7128SOL    HW240072   2.866  10.273   0.654
 7129SOL     OW40073   8.518   8.946   2.659
 7129SOL    HW140074   8.548   8.862   2.704
 7129SOL    HW240075   8.587   9.017   2.672
 7130SOL     OW40076   7.222   9.259   0.544
 7130SOL    HW140077   7.223   9.181   0.607
 7130SOL    HW240078   7.314   9.299   0.540
 7131SOL     OW40079   0.807   5.324   7.649
 7131SOL    HW140080   0.871   5.255   7.614
 7131SOL    HW240081   0.713   5.297   7.629
 7132SOL     OW40082   8.869   0.615   8.249
 7132SOL    HW140083   8.818   0.531   8.237
 7132SOL    HW240084   8.967   0.596   8.245
 7133SOL     OW40085   5.085   2.846   7.015
 7133SOL    HW140086   5.128   2.767   7.059
 7133SOL    HW240087   4.993   2.821   6.985
 7134SOL     OW40088   7.222   9.235   1.681
 7134SOL    HW140089   7.274   9.254   1.764
 7134SOL    HW240090   7.132   9.278   1.688
 7135SOL     OW40091   9.958   6.677   6.692
 7135SOL    HW140092   9.871   6.707   6.732
 7135SOL    HW240093   9.965   6.710   6.598
 7136SOL     OW40094   6.995   4.663   1.649
 7136SOL    HW140095   6.950   4.583   1.689
 7136SOL    HW240096   6.956   4.681   1.558
 7137SOL     OW40097   5.213   0.786   1.356
 7137SOL    HW140098   5.280   0.735   1.303
 7137SOL    HW240099   5.152   0.835   1.294
 7138SOL     OW40100   6.405   9.331   8.657
 7138SOL    HW140101   6.470   9.293   8.591
 7138SOL    HW240102   6.331   9.376   8.609
 7139SOL     OW40103   7.612   5.521   6.848
 7139SOL    HW140104   7.545   5.505   6.920
 7139SOL    HW240105   7.654   5.434   6.821
 7140SOL     OW40106   8.521   2.210   8.410
 7140SOL    HW140107   8.544   2.307   8.414
 7140SOL    HW240108   8.601   2.157   8.383
 7141SOL     OW40109   6.049   7.830   6.958
 7141SOL    HW140110   5.982   7.773   6.911
 7141SOL    HW240111   6.010   7.865   7.043
 7142SOL     OW40112   1.940   4.911   1.224
 7142SOL    HW140113   2.037   4.930   1.205
 7142SOL    HW240114   1.929   4.816   1.252
 7143SOL     OW40115   3.627   0.740   7.254
 7143SOL    HW140116   3.576   0.654   7.255
 7143SOL    HW240117   3.636   0.774   7.348
 7144SOL     OW40118   1.036   1.255   8.009
 7144SOL    HW140119   1.052   1.333   7.948
 7144SOL    HW240120   0.938   1.245   8.025
 7145SOL     OW40121   9.641   0.689   7.211
 7145SOL    HW140122   9.593   0.662   7.127
 7145SOL    HW240123   9.575   0.704   7.284
 7146SOL     OW40124   0.025   1.688   8.333
 7146SOL    HW140125  10.151   1.724   8.421
 7146SOL    HW240126   0.111   1.732   8.308
 7147SOL     OW40127  10.007   4.152   0.480
 7147SOL    HW140128   9.919   4.114   0.505
 7147SOL    HW240129  10.067   4.079   0.447
 7148SOL     OW40130   6.914   1.074   7.660
 7148SOL    HW140131   6.944   1.126   7.580
 7148SOL    HW240132   6.825   1.109   7.691
 7149SOL     OW40133   5.486   0.437   7.291
 7149SOL    HW140134   5.475   0.446   7.192
 7149SOL    HW240135   5.453   0.520   7.336
 7150SOL     OW40136   5.699   7.338   1.843
 7150SOL    HW140137   5.739   7.355   1.933
 7150SOL    HW240138   5.656   7.248   1.842
 7151SOL     OW40139   4.053   4.845   6.456
 7151SOL    HW140140   4.042   4.925   6.514
 7151SOL    HW240141   4.036   4.869   6.361
 7152SOL     OW40142   0.828   7.558   1.281
 7152SOL    HW140143   0.916   7.544   1.326
 7152SOL    HW240144   0.785   7.469   1.264
 7153SOL     OW40145   1.874   2.901   6.615
 7153SOL    HW140146   1.873   2.807   6.579
 7153SOL    HW240147   1.833   2.962   6.548
 7154SOL     OW40148   4.934   4.217   6.525
 7154SOL    HW140149   4.975   4.284   6.586
 7154SOL    HW240150   4.983   4.218   6.437
 7155SOL     OW40151   3.132   2.551   8.781
 7155SOL    HW140152   3.129   2.480   0.068
 7155SOL    HW240153   3.164   2.512   8.694
 7156SOL     OW40154   1.580   4.390   8.731
 7156SOL    HW140155   1.635   4.377   8.649
 7156SOL    HW240156   1.510   4.460   8.714
 7157SOL     OW40157   2.982   0.400   7.548
 7157SOL    HW140158   2.975   0.385   7.450
 7157SOL    HW240159   2.984   0.312   7.595
 7158SOL     OW40160   5.472   6.113   1.256
 7158SOL    HW140161   5.428   6.184   1.200
 7158SOL    HW240162   5.404   6.074   1.318
 7159SOL     OW40163   4.743   4.637   0.021
 7159SOL    HW140164   4.823   4.668   0.073
 7159SOL    HW240165   4.659   4.665   0.068
 7160SOL     OW40166   9.577   3.470   7.366
 7160SOL    HW140167   9.559   3.495   7.272
 7160SOL    HW240168   9.651   3.403   7.369
 7161SOL     OW40169   5.784   1.381   7.615
 7161SOL    HW140170   5.883   1.377   7.603
 7161SOL    HW240171   5.746   1.452   7.556
 7162SOL     OW40172   8.423   2.567   8.124
 7162SOL    HW140173   8.498   2.516   8.083
 7162SOL    HW240174   8.373   2.616   8.053
 7163SOL     OW40175   9.602   4.778   0.841
 7163SOL    HW140176   9.617   4.789   0.939
 7163SOL    HW240177   9.607   4.681   0.817
 7164SOL     OW40178   8.238   6.358   1.226
 7164SOL    HW140179   8.183   6.334   1.146
 7164SOL    HW240180   8.313   6.417   1.198
 7165SOL     OW40181   6.175   7.895   7.465
 7165SOL    HW140182   6.090   7.947   7.461
 7165SOL    HW240183   6.253   7.957   7.450
 7166SOL     OW40184   6.031   3.036   7.211
 7166SOL    HW140185   5.954   3.091   7.241
 7166SOL    HW240186   6.106   3.044   7.277
 7167SOL     OW40187   6.556   0.448   7.131
 7167SOL    HW140188   6.521   0.376   7.190
 7167SOL    HW240189   6.484   0.478   7.068
 7168SOL     OW40190   2.804   4.351   6.534
 7168SOL    HW140191   2.892   4.386   6.567
 7168SOL    HW240192   2.730   4.394   6.585
 7169SOL     OW40193   0.240   4.272   8.467
 7169SOL    HW140194   0.285   4.270   8.557
 7169SOL    HW240195   0.309   4.291   8.397
 7170SOL     OW40196   1.366   5.689   0.674
 7170SOL    HW140197   1.367   5.614   0.608
 7170SOL    HW240198   1.333   5.772   0.630
 7171SOL     OW40199   1.029   8.918   2.146
 7171SOL    HW140200   1.117   8.919   2.192
 7171SOL    HW240201   0.964   8.864   2.198
 7172SOL     OW40202   0.374   3.076   2.080
 7172SOL    HW140203   0.292   3.023   2.106
 7172SOL    HW240204   0.393   3.144   2.151
 7173SOL     OW40205   2.199   8.323   2.128
 7173SOL    HW140206   2.145   8.259   2.074
 7173SOL    HW240207   2.226   8.280   2.214
 7174SOL     OW40208   3.067   2.856   7.748
 7174SOL    HW140209   3.084   2.781   7.684
 7174SOL    HW240210   3.033   2.818   7.835
 7175SOL     OW40211   1.427   9.048   8.142
 7175SOL    HW140212   1.413   9.079   8.048
 7175SOL    HW240213   1.469   9.121   8.196
 7176SOL     OW40214   5.098   3.256   7.013
 7176SOL    HW140215   5.085   3.348   6.975
 7176SOL    HW240216   5.134   3.263   7.105
 7177SOL     OW40217   6.802   5.794   8.137
 7177SOL    HW140218   6.805   5.801   8.037
 7177SOL    HW240219   6.863   5.721   8.167
 7178SOL     OW40220   4.750   0.900   0.020
 7178SOL    HW140221   4.732   0.817   0.073
 7178SOL    HW240222   4.848   0.920   0.020
 7179SOL     OW40223   0.851   0.251   7.029
 7179SOL    HW140224   0.930   0.273   7.087
 7179SOL    HW240225   0.838   0.324   6.963
 7180SOL     OW40226   6.695   4.848   7.197
 7180SOL    HW140227   6.770   4.800   7.243
 7180SOL    HW240228   6.660   4.791   7.123
 7181SOL     OW40229   7.839   7.942   8.096
 7181SOL    HW140230   7.755   7.997   8.093
 7181SOL    HW240231   7.817   7.851   8.133
 7182SOL     OW40232   6.398   3.519   0.605
 7182SOL    HW140233   6.328   3.540   0.673
 7182SOL    HW240234   6.427   3.423   0.614
 7183SOL     OW40235   6.030   5.776   1.800
 7183SOL    HW140236   6.109   5.812   1.850
 7183SOL    HW240237   5.950   5.777   1.860
 7184SOL     OW40238   3.471   0.654   0.550
 7184SOL    HW140239   3.458   0.678   0.646
 7184SOL    HW240240   3.541   0.582   0.544
 7185SOL     OW40241   2.836   9.251   8.463
 7185SOL    HW140242   2.760   9.194   8.432
 7185SOL    HW240243   2.849   9.327   8.399
 7186SOL     OW40244   3.109   3.124   0.734
 7186SOL    HW140245   3.199   3.099   0.770
 7186SOL    HW240246   3.101   3.090   0.640
 7187SOL     OW40247   4.000   3.923   7.807
 7187SOL    HW140248   4.045   3.899   7.721
 7187SOL    HW240249   4.042   4.005   7.846
 7188SOL     OW40250   1.252   9.466   1.135
 7188SOL    HW140251   1.206   9.504   1.055
 7188SOL    HW240252   1.232   9.521   1.216
 7189SOL     OW40253   1.539   3.212   7.271
 7189SOL    HW140254   1.613   3.205   7.338
 7189SOL    HW240255   1.488   3.126   7.268
 7190SOL     OW40256   5.573   1.226   7.358
 7190SOL    HW140257   5.597   1.176   7.441
 7190SOL    HW240258   5.515   1.304   7.383
 7191SOL     OW40259   4.484   7.597   7.716
 7191SOL    HW140260   4.578   7.630   7.723
 7191SOL    HW240261   4.476   7.509   7.762
 7192SOL     OW40262   0.481   4.755   6.408
 7192SOL    HW140263   0.552   4.826   6.397
 7192SOL    HW240264   0.464   4.741   6.506
 7193SOL     OW40265   2.609   8.748   0.162
 7193SOL    HW140266   2.626   8.777   0.256
 7193SOL    HW240267   2.526   8.791   0.127
 7194SOL     OW40268   9.110  10.004   7.348
 7194SOL    HW140269   9.193  10.017   7.402
 7194SOL    HW240270   9.067   9.917   7.374
 7195SOL     OW40271   8.235   5.241   1.175
 7195SOL    HW140272   8.184   5.203   1.253
 7195SOL    HW240273   8.231   5.177   1.099
 7196SOL     OW40274   5.841   5.336   7.249
 7196SOL    HW140275   5.822   5.405   7.319
 7196SOL    HW240276   5.905   5.373   7.182
 7197SOL     OW40277   8.355   5.883   0.891
 7197SOL    HW140278   8.392   5.832   0.969
 7197SOL    HW240279   8.401   5.856   0.807
 7198SOL     OW40280   1.835   1.794   8.321
 7198SOL    HW140281   1.781   1.760   8.398
 7198SOL    HW240282   1.849   1.893   8.331
 7199SOL     OW40283   1.703   3.513   1.706
 7199SOL    HW140284   1.752   3.581   1.761
 7199SOL    HW240285   1.665   3.557   1.625
 7200SOL     OW40286   5.999   5.697   7.591
 7200SOL    HW140287   6.086   5.733   7.557
 7200SOL    HW240288   5.924   5.755   7.560
 7201SOL     OW40289   9.497   6.716   1.191
 7201SOL    HW140290   9.592   6.687   1.203
 7201SOL    HW240291   9.490   6.776   1.112
 7202SOL     OW40292   4.404  10.434   1.740
 7202SOL    HW140293   4.434  10.503   1.806
 7202SOL    HW240294   4.379  10.350   1.789
 7203SOL     OW40295   4.385   6.685   1.911
 7203SOL    HW140296   4.372   6.774   1.955
 7203SOL    HW240297   4.458   6.692   1.843
 7204SOL     OW40298   7.293   5.269   0.668
 7204SOL    HW140299   7.218   5.306   0.723
 7204SOL    HW240300   7.313   5.176   0.698
 7205SOL     OW40301   1.260   9.632   0.342
 7205SOL    HW140302   1.219   9.638   0.251
 7205SOL    HW240303   1.218   9.700   0.402
 7206SOL     OW40304   9.373   0.465   0.499
 7206SOL    HW140305   9.352   0.431   0.591
 7206SOL    HW240306   9.357   0.392   0.433
 7207SOL     OW40307   5.632   2.424   0.425
 7207SOL    HW140308   5.556   2.489   0.432
 7207SOL    HW240309   5.604   2.336   0.463
 7208SOL     OW40310   1.467   4.039   7.796
 7208SOL    HW140311   1.447   4.075   7.705
 7208SOL    HW240312   1.473   3.940   7.792
 7209SOL     OW40313   1.887   6.347   6.517
 7209SOL    HW140314   1.837   6.434   6.518
 7209SOL    HW240315   1.825   6.273   6.492
 7210SOL     OW40316   6.506   8.176   7.950
 7210SOL    HW140317   6.556   8.127   7.878
 7210SOL    HW240318   6.442   8.114   7.995
 7211SOL     OW40319   1.859   6.732   7.890
 7211SOL    HW140320   1.913   6.657   7.929
 7211SOL    HW240321   1.795   6.766   7.959
 7212SOL     OW40322   8.518   7.388   7.035
 7212SOL    HW140323   8.479   7.471   6.996
 7212SOL    HW240324   8.449   7.316   7.037
 7213SOL     OW40325   9.649   3.286   6.520
 7213SOL    HW140326   9.704   3.206   6.498
 7213SOL    HW240327   9.698   3.369   6.494
 7214SOL     OW40328   7.807   5.278   2.112
 7214SOL    HW140329   7.843   5.212   2.178
 7214SOL    HW240330   7.862   5.362   2.116
 7215SOL     OW40331   0.616   1.522   6.794
 7215SOL    HW140332   0.705   1.475   6.793
 7215SOL    HW240333   0.558   1.487   6.721
 7216SOL     OW40334   3.805   8.866   6.726
 7216SOL    HW140335   3.805   8.898   6.631
 7216SOL    HW240336   3.731   8.911   6.776
 7217SOL     OW40337   5.314   0.072   1.531
 7217SOL    HW140338   5.331   0.146   1.596
 7217SOL    HW240339   5.373  10.497   1.552
 7218SOL     OW40340   2.289   6.245   8.688
 7218SOL    HW140341   2.259   6.286   8.775
 7218SOL    HW240342   2.215   6.190   8.650
 7219SOL     OW40343   1.428   6.449   0.000
 7219SOL    HW140344   1.473   6.465   8.694
 7219SOL    HW240345   1.441   6.528   0.059
 7220SOL     OW40346   0.006   7.196   0.767
 7220SOL    HW140347  10.096   7.194   0.840
 7220SOL    HW240348   0.082   7.255   0.793
 7221SOL     OW40349   4.849   3.631   8.458
 7221SOL    HW140350   4.870   3.600   8.365
 7221SOL    HW240351   4.903   3.579   8.523
 7222SOL     OW40352   9.620   7.853   0.077
 7222SOL    HW140353   9.653   7.759   0.089
 7222SOL    HW240354   9.520   7.852   0.075
 7223SOL     OW40355   4.526   6.705   7.715
 7223SOL    HW140356   4.569   6.793   7.737
 7223SOL    HW240357   4.597   6.639   7.692
 7224SOL     OW40358   3.641   8.776   1.187
 7224SOL    HW140359   3.713   8.765   1.119
 7224SOL    HW240360   3.634   8.693   1.242
 7225SOL     OW40361   2.305   8.258   7.762
 7225SOL    HW140362   2.257   8.222   7.842
 7225SOL    HW240363   2.239   8.271   7.688
 7226SOL     OW40364   7.794  10.485   7.896
 7226SOL    HW140365   7.797   0.024   7.987
 7226SOL    HW240366   7.862   0.025   7.837
 7227SOL     OW40367   3.337   8.314   8.329
 7227SOL    HW140368   3.281   8.393   8.355
 7227SOL    HW240369   3.361   8.321   8.232
 7228SOL     OW40370   0.998   4.261   6.354
 7228SOL    HW140371   1.028   4.306   6.270
 7228SOL    HW240372   0.901   4.238   6.346
 7229SOL     OW40373   9.299  10.091   2.622
 7229SOL    HW140374   9.309   9.999   2.661
 7229SOL    HW240375   9.336  10.159   2.686
 7230SOL     OW40376   7.362   3.393   8.154
 7230SOL    HW140377   7.277   3.343   8.170
 7230SOL    HW240378   7.344   3.491   8.150
 7231SOL     OW40379   6.736   1.764   6.047
 7231SOL    HW140380   6.663   1.731   6.107
 7231SOL    HW240381   6.773   1.688   5.994
 7232SOL     OW40382   5.473   4.780   1.339
 7232SOL    HW140383   5.405   4.708   1.330
 7232SOL    HW240384   5.431   4.862   1.376
 7233SOL     OW40385   3.241   6.028   0.494
 7233SOL    HW140386   3.164   6.072   0.541
 7233SOL    HW240387   3.307   5.996   0.562
 7234SOL     OW40388   0.949   7.633   0.591
 7234SOL    HW140389   1.015   7.698   0.551
 7234SOL    HW240390   0.861   7.642   0.545
 7235SOL     OW40391   3.547   7.725   1.034
 7235SOL    HW140392   3.502   7.655   1.089
 7235SOL    HW240393   3.608   7.780   1.092
 7236SOL     OW40394   2.853   1.731   0.325
 7236SOL    HW140395   2.851   1.727   0.225
 7236SOL    HW240396   2.830   1.823   0.356
 7237SOL     OW40397   2.900   8.210   1.145
 7237SOL    HW140398   2.980   8.232   1.090
 7237SOL    HW240399   2.824   8.184   1.085
 7238SOL     OW40400   9.764   2.764   0.423
 7238SOL    HW140401   9.826   2.753   0.345
 7238SOL    HW240402   9.761   2.861   0.450
 7239SOL     OW40403   2.205   8.839   0.385
 7239SOL    HW140404   2.247   8.915   0.337
 7239SOL    HW240405   2.246   8.830   0.476
 7240SOL     OW40406   5.666   0.428   8.248
 7240SOL    HW140407   5.633   0.521   8.232
 7240SOL    HW240408   5.642   0.401   8.342
 7241SOL     OW40409   0.646   8.248   8.291
 7241SOL    HW140410   0.713   8.186   8.249
 7241SOL    HW240411   0.693   8.323   8.336
 7242SOL     OW40412   0.953   4.787   0.735
 7242SOL    HW140413   0.915   4.785   0.642
 7242SOL    HW240414   1.008   4.869   0.747
 7243SOL     OW40415   0.344  10.113   7.554
 7243SOL    HW140416   0.411  10.179   7.519
 7243SOL    HW240417   0.316  10.140   7.646
 7244SOL     OW40418  10.084   6.478   7.542
 7244SOL    HW140419  10.007   6.518   7.493
 7244SOL    HW240420  10.085   6.510   7.637
 7245SOL     OW40421   7.696   1.956   0.060
 7245SOL    HW140422   7.744   2.008   8.772
 7245SOL    HW240423   7.675   2.015   0.138
 7246SOL     OW40424   2.880   1.105   7.334
 7246SOL    HW140425   2.836   1.049   7.264
 7246SOL    HW240426   2.904   1.194   7.295
 7247SOL     OW40427   0.093   4.635   0.753
 7247SOL    HW140428   0.110   4.537   0.764
 7247SOL    HW240429  10.156   4.656   0.777
 7248SOL     OW40430   9.196   4.084   8.130
 7248SOL    HW140431   9.097   4.075   8.125
 7248SOL    HW240432   9.227   4.069   8.224
 7249SOL     OW40433   1.500   6.104   8.498
 7249SOL    HW140434   1.424   6.054   8.459
 7249SOL    HW240435   1.586   6.059   8.474
 7250SOL     OW40436   0.724   5.894   8.449
 7250SOL    HW140437   0.744   5.884   8.351
 7250SOL    HW240438   0.625   5.897   8.462
 7251SOL     OW40439   1.807   0.318   7.032
 7251SOL    HW140440   1.743   0.290   7.104
 7251SOL    HW240441   1.856   0.238   6.997
 7252SOL     OW40442   4.391   2.698   0.032
 7252SOL    HW140443   4.316   2.755   8.782
 7252SOL    HW240444   4.361   2.646   0.112
 7253SOL     OW40445   0.599   7.894   8.266
 7253SOL    HW140446   0.584   7.796   8.281
 7253SOL    HW240447   0.606   7.941   8.354
 7254SOL     OW40448   8.030   8.615   7.985
 7254SOL    HW140449   7.991   8.603   8.076
 7254SOL    HW240450   7.973   8.677   7.932
 7255SOL     OW40451   6.036   2.915   1.314
 7255SOL    HW140452   5.950   2.943   1.272
 7255SOL    HW240453   6.112   2.959   1.266
 7256SOL     OW40454   3.901   2.405   0.448
 7256SOL    HW140455   3.848   2.330   0.409
 7256SOL    HW240456   3.845   2.452   0.517
 7257SOL     OW40457   2.930   1.440   0.714
 7257SOL    HW140458   2.861   1.487   0.659
 7257SOL    HW240459   2.897   1.431   0.808
 7258SOL     OW40460   4.661   4.921   8.236
 7258SOL    HW140461   4.645   4.914   8.335
 7258SOL    HW240462   4.694   4.834   8.201
 7259SOL     OW40463   6.627   3.503   8.282
 7259SOL    HW140464   6.673   3.440   8.220
 7259SOL    HW240465   6.649   3.479   8.377
 7260SOL     OW40466   4.208   8.831   8.410
 7260SOL    HW140467   4.301   8.796   8.397
 7260SOL    HW240468   4.211   8.906   8.476
 7261SOL     OW40469   8.000   2.501   0.370
 7261SOL    HW140470   8.025   2.575   0.307
 7261SOL    HW240471   8.034   2.521   0.461
 7262SOL     OW40472   7.727   7.080   8.146
 7262SOL    HW140473   7.669   7.036   8.215
 7262SOL    HW240474   7.672   7.098   8.064
 7263SOL     OW40475   1.573   0.917   1.795
 7263SOL    HW140476   1.563   0.855   1.872
 7263SOL    HW240477   1.484   0.957   1.772
 7264SOL     OW40478   1.723   2.478   1.680
 7264SOL    HW140479   1.696   2.467   1.775
 7264SOL    HW240480   1.813   2.523   1.676
 7265SOL     OW40481   8.498   1.347   1.288
 7265SOL    HW140482   8.583   1.314   1.246
 7265SOL    HW240483   8.509   1.442   1.314
 7266SOL     OW40484   4.361   0.267   7.307
 7266SOL    HW140485   4.384   0.176   7.342
 7266SOL    HW240486   4.346   0.329   7.384
 7267SOL     OW40487   5.535   1.468   8.511
 7267SOL    HW140488   5.501   1.401   8.578
 7267SOL    HW240489   5.485   1.554   8.522
 7268SOL     OW40490   3.218   5.401   8.513
 7268SOL    HW140491   3.222   5.484   8.458
 7268SOL    HW240492   3.123   5.381   8.537
 7269SOL     OW40493   4.120   9.722   7.338
 7269SOL    HW140494   4.060   9.643   7.324
 7269SOL    HW240495   4.069   9.795   7.384
 7270SOL     OW40496   4.088   4.085   0.976
 7270SOL    HW140497   4.064   3.990   0.997
 7270SOL    HW240498   4.051   4.145   1.047
 7271SOL     OW40499   3.458   9.345   8.193
 7271SOL    HW140500   3.540   9.382   8.238
 7271SOL    HW240501   3.388   9.416   8.188
 7272SOL     OW40502   0.128   8.333   6.845
 7272SOL    HW140503   0.102   8.242   6.811
 7272SOL    HW240504   0.154   8.391   6.768
 7273SOL     OW40505   0.565   2.827   7.967
 7273SOL    HW140506   0.595   2.862   8.056
 7273SOL    HW240507   0.574   2.899   7.898
 7274SOL     OW40508   4.561   4.814   7.500
 7274SOL    HW140509   4.465   4.787   7.506
 7274SOL    HW240510   4.589   4.813   7.404
 7275SOL     OW40511   8.494  10.117   0.664
 7275SOL    HW140512   8.510  10.192   0.729
 7275SOL    HW240513   8.579  10.066   0.651
 7276SOL     OW40514   3.223   2.522   7.777
 7276SOL    HW140515   3.184   2.431   7.788
 7276SOL    HW240516   3.319   2.520   7.805
 7277SOL     OW40517   6.695   0.962   8.390
 7277SOL    HW140518   6.780   1.000   8.354
 7277SOL    HW240519   6.686   0.984   8.487
 7278SOL     OW40520   2.472   2.020   8.506
 7278SOL    HW140521   2.456   2.114   8.536
 7278SOL    HW240522   2.389   1.966   8.519
 7279SOL     OW40523   6.938   5.715   0.604
 7279SOL    HW140524   6.889   5.768   0.535
 7279SOL    HW240525   6.878   5.642   0.638
 7280SOL     OW40526   9.059   1.980   0.715
 7280SOL    HW140527   9.026   1.946   0.803
 7280SOL    HW240528   9.138   2.039   0.729
 7281SOL     OW40529   0.120  10.012   0.537
 7281SOL    HW140530   0.020  10.007   0.542
 7281SOL    HW240531   0.149  10.108   0.544
 7282SOL     OW40532   4.585   0.403   7.607
 7282SOL    HW140533   4.487   0.402   7.590
 7282SOL    HW240534   4.628   0.474   7.550
 7283SOL     OW40535   2.016   1.793   7.915
 7283SOL    HW140536   2.113   1.771   7.903
 7283SOL    HW240537   1.995   1.875   7.862
 7284SOL     OW40538   8.122   6.935   0.139
 7284SOL    HW140539   8.117   7.002   0.214
 7284SOL    HW240540   8.037   6.938   0.087
 7285SOL     OW40541   0.862   4.009   0.874
 7285SOL    HW140542   0.867   3.909   0.870
 7285SOL    HW240543   0.908   4.041   0.956
 7286SOL     OW40544   7.576   0.055   1.850
 7286SOL    HW140545   7.645   0.001   1.898
 7286SOL    HW240546   7.497  10.501   1.831
 7287SOL     OW40547  10.142   6.941   6.535
 7287SOL    HW140548  10.085   6.868   6.499
 7287SOL    HW240549  10.090   6.995   6.601
 7288SOL     OW40550   3.438   6.047   1.343
 7288SOL    HW140551   3.357   5.996   1.316
 7288SOL    HW240552   3.502   5.986   1.389
 7289SOL     OW40553   8.332   4.395   7.073
 7289SOL    HW140554   8.403   4.370   7.140
 7289SOL    HW240555   8.282   4.312   7.046
 7290SOL     OW40556   8.003   4.446   8.664
 7290SOL    HW140557   7.945   4.520   8.631
 7290SOL    HW240558   8.095   4.455   8.625
 7291SOL     OW40559   3.214   6.426   1.191
 7291SOL    HW140560   3.299   6.394   1.231
 7291SOL    HW240561   3.167   6.486   1.256
 7292SOL     OW40562   0.199   5.834   0.156
 7292SOL    HW140563   0.106   5.818   0.189
 7292SOL    HW240564   0.259   5.761   0.188
 7293SOL     OW40565   9.592   4.823   8.377
 7293SOL    HW140566   9.560   4.916   8.395
 7293SOL    HW240567   9.691   4.819   8.393
 7294SOL     OW40568   6.718   3.388   7.119
 7294SOL    HW140569   6.620   3.407   7.111
 7294SOL    HW240570   6.732   3.308   7.177
 7295SOL     OW40571   3.492   0.537   0.193
 7295SOL    HW140572   3.424   0.503   0.258
 7295SOL    HW240573   3.579   0.550   0.240
 7296SOL     OW40574   7.798   6.923   6.694
 7296SOL    HW140575   7.765   6.996   6.634
 7296SOL    HW240576   7.772   6.834   6.655
 7297SOL     OW40577   3.933   6.373   6.944
 7297SOL    HW140578   3.947   6.469   6.969
 7297SOL    HW240579   3.883   6.327   7.017
 7298SOL     OW40580   2.597   5.883   1.368
 7298SOL    HW140581   2.581   5.977   1.396
 7298SOL    HW240582   2.510   5.841   1.340
 7299SOL     OW40583   6.097   2.500   0.610
 7299SOL    HW140584   6.123   2.425   0.671
 7299SOL    HW240585   6.041   2.464   0.535
 7300SOL     OW40586   9.468   9.721   8.294
 7300SOL    HW140587   9.503   9.708   8.201
 7300SOL    HW240588   9.501   9.808   8.331
 7301SOL     OW40589   9.472   7.222   7.539
 7301SOL    HW140590   9.556   7.272   7.559
 7301SOL    HW240591   9.410   7.281   7.487
 7302SOL     OW40592   5.262   7.576   8.130
 7302SOL    HW140593   5.340   7.628   8.165
 7302SOL    HW240594   5.197   7.639   8.087
 7303SOL     OW40595   0.229   5.037   7.832
 7303SOL    HW140596   0.243   4.980   7.751
 7303SOL    HW240597   0.160   5.106   7.812
 7304SOL     OW40598   5.435   2.345   6.971
 7304SOL    HW140599   5.411   2.313   7.062
 7304SOL    HW240600   5.517   2.402   6.976
 7305SOL     OW40601   2.091   1.222   1.271
 7305SOL    HW140602   2.064   1.270   1.187
 7305SOL    HW240603   2.057   1.273   1.350
 7306SOL     OW40604   1.939   7.148   7.389
 7306SOL    HW140605   1.860   7.169   7.446
 7306SOL    HW240606   1.909   7.131   7.295
 7307SOL     OW40607   0.465   8.606   0.924
 7307SOL    HW140608   0.428   8.660   0.848
 7307SOL    HW240609   0.536   8.659   0.971
 7308SOL     OW40610   6.416   0.428   8.275
 7308SOL    HW140611   6.487   0.384   8.329
 7308SOL    HW240612   6.457   0.498   8.216
 7309SOL     OW40613   4.405   5.968   1.662
 7309SOL    HW140614   4.343   6.039   1.628
 7309SOL    HW240615   4.365   5.925   1.743
 7310SOL     OW40616   2.659   6.496   7.437
 7310SOL    HW140617   2.666   6.562   7.511
 7310SOL    HW240618   2.711   6.529   7.358
 7311SOL     OW40619   8.743   8.586   8.157
 7311SOL    HW140620   8.843   8.580   8.155
 7311SOL    HW240621   8.706   8.510   8.210
 7312SOL     OW40622   9.152   2.475   1.100
 7312SOL    HW140623   9.182   2.564   1.135
 7312SOL    HW240624   9.056   2.480   1.072
 7313SOL     OW40625   0.018  10.368   7.337
 7313SOL    HW140626  10.112  10.300   7.300
 7313SOL    HW240627   0.034  10.350   7.434
 7314SOL     OW40628   0.975   0.334   8.413
 7314SOL    HW140629   1.075   0.331   8.411
 7314SOL    HW240630   0.941   0.388   8.336
 7315SOL     OW40631   8.908   0.284   1.375
 7315SOL    HW140632   8.988   0.327   1.416
 7315SOL    HW240633   8.859   0.231   1.444
 7316SOL     OW40634   8.874   0.615   1.078
 7316SOL    HW140635   8.922   0.669   1.008
 7316SOL    HW240636   8.776   0.635   1.072
 7317SOL     OW40637   9.994  10.184   7.238
 7317SOL    HW140638  10.002  10.094   7.195
 7317SOL    HW240639   9.915  10.186   7.299
 7318SOL     OW40640   4.130   0.439   0.405
 7318SOL    HW140641   4.174   0.468   0.490
 7318SOL    HW240642   4.055   0.377   0.426
 7319SOL     OW40643   9.175   5.413   6.327
 7319SOL    HW140644   9.226   5.369   6.253
 7319SOL    HW240645   9.225   5.400   6.413
 7320SOL     OW40646   3.934   1.381   8.170
 7320SOL    HW140647   3.869   1.448   8.134
 7320SOL    HW240648   3.961   1.318   8.098
 7321SOL     OW40649   2.459   4.991   7.097
 7321SOL    HW140650   2.463   4.892   7.108
 7321SOL    HW240651   2.507   5.035   7.172
 7322SOL     OW40652   7.818  10.011   7.820
 7322SOL    HW140653   7.719  10.021   7.804
 7322SOL    HW240654   7.859   9.961   7.744
 7323SOL     OW40655   0.477   0.896   1.497
 7323SOL    HW140656   0.550   0.828   1.496
 7323SOL    HW240657   0.508   0.979   1.452
 7324SOL     OW40658   5.669   3.377   8.226
 7324SOL    HW140659   5.684   3.475   8.213
 7324SOL    HW240660   5.745   3.339   8.278
 7325SOL     OW40661   2.803   7.545   6.593
 7325SOL    HW140662   2.808   7.645   6.585
 7325SOL    HW240663   2.896   7.509   6.604
 7326SOL     OW40664   8.277   1.861   1.752
 7326SOL    HW140665   8.247   1.948   1.789
 7326SOL    HW240666   8.206   1.824   1.692
 7327SOL     OW40667   7.448   9.830   7.826
 7327SOL    HW140668   7.490   9.915   7.794
 7327SOL    HW240669   7.517   9.758   7.834
 7328SOL     OW40670   0.290   8.287   8.040
 7328SOL    HW140671   0.289   8.189   8.018
 7328SOL    HW240672   0.322   8.300   8.134
 7329SOL     OW40673   7.241   2.930   8.033
 7329SOL    HW140674   7.246   2.969   8.125
 7329SOL    HW240675   7.155   2.879   8.023
 7330SOL     OW40676   9.296   1.512   1.941
 7330SOL    HW140677   9.255   1.535   2.029
 7330SOL    HW240678   9.373   1.449   1.955
 7331SOL     OW40679   8.398   1.684   0.531
 7331SOL    HW140680   8.426   1.636   0.448
 7331SOL    HW240681   8.443   1.773   0.535
 7332SOL     OW40682   2.327   0.729   0.563
 7332SOL    HW140683   2.316   0.695   0.656
 7332SOL    HW240684   2.238   0.730   0.517
 7333SOL     OW40685   1.170  10.102   7.380
 7333SOL    HW140686   1.201  10.017   7.338
 7333SOL    HW240687   1.080  10.088   7.421
 7334SOL     OW40688   2.141   9.287   7.587
 7334SOL    HW140689   2.171   9.375   7.623
 7334SOL    HW240690   2.209   9.253   7.522
 7335SOL     OW40691   3.119   7.749   7.651
 7335SOL    HW140692   3.171   7.669   7.681
 7335SOL    HW240693   3.147   7.774   7.558
 7336SOL     OW40694   8.112   8.942   0.402
 7336SOL    HW140695   8.111   8.867   0.468
 7336SOL    HW240696   8.140   8.907   0.312
 7337SOL     OW40697   2.468   9.663   2.225
 7337SOL    HW140698   2.432   9.755   2.206
 7337SOL    HW240699   2.409   9.618   2.292
 7338SOL     OW40700   8.399   9.621   0.298
 7338SOL    HW140701   8.318   9.562   0.287
 7338SOL    HW240702   8.474   9.585   0.242
 7339SOL     OW40703   6.804   5.106   8.697
 7339SOL    HW140704   6.708   5.115   8.670
 7339SOL    HW240705   6.850   5.194   8.688
 7340SOL     OW40706   4.725   7.267   1.216
 7340SOL    HW140707   4.734   7.232   1.309
 7340SOL    HW240708   4.658   7.212   1.166
 7341SOL     OW40709   6.017   3.774   1.163
 7341SOL    HW140710   5.991   3.778   1.259
 7341SOL    HW240711   6.093   3.837   1.146
 7342SOL     OW40712   2.275   6.497   1.977
 7342SOL    HW140713   2.193   6.552   1.992
 7342SOL    HW240714   2.271   6.457   1.885
 7343SOL     OW40715   0.713   7.639   8.116
 7343SOL    HW140716   0.686   7.678   8.028
 7343SOL    HW240717   0.791   7.690   8.152
 7344SOL     OW40718   3.927   0.774   6.921
 7344SOL    HW140719   3.996   0.844   6.901
 7344SOL    HW240720   3.916   0.764   7.019
 7345SOL     OW40721   2.949   5.505   1.300
 7345SOL    HW140722   2.951   5.504   1.400
 7345SOL    HW240723   2.860   5.539   1.269
 7346SOL     OW40724   2.685   8.421   1.476
 7346SOL    HW140725   2.762   8.420   1.412
 7346SOL    HW240726   2.692   8.502   1.535
 7347SOL     OW40727   0.403   9.093   0.090
 7347SOL    HW140728   0.423   9.033   0.168
 7347SOL    HW240729   0.455   9.063   0.011
 7348SOL     OW40730   3.840   8.462   6.572
 7348SOL    HW140731   3.856   8.526   6.497
 7348SOL    HW240732   3.784   8.386   6.540
 7349SOL     OW40733   9.960   4.680   7.632
 7349SOL    HW140734   9.973   4.775   7.659
 7349SOL    HW240735   9.902   4.676   7.550
 7350SOL     OW40736   2.092   9.586   1.390
 7350SOL    HW140737   2.138   9.556   1.474
 7350SOL    HW240738   1.998   9.553   1.390
 7351SOL     OW40739   8.495   3.324   0.959
 7351SOL    HW140740   8.501   3.291   1.053
 7351SOL    HW240741   8.508   3.248   0.895
 7352SOL     OW40742   4.242   4.120   8.449
 7352SOL    HW140743   4.296   4.162   8.522
 7352SOL    HW240744   4.166   4.181   8.424
 7353SOL     OW40745   0.504   6.172   8.664
 7353SOL    HW140746   0.599   6.140   8.667
 7353SOL    HW240747   0.447   6.102   8.621
 7354SOL     OW40748   0.198   6.476   8.699
 7354SOL    HW140749   0.175   6.392   8.650
 7354SOL    HW240750   0.258   6.533   8.641
 7355SOL     OW40751   4.790   3.806   8.668
 7355SOL    HW140752   4.798   3.898   8.629
 7355SOL    HW240753   4.806   3.739   8.596
 7356SOL     OW40754   8.131   4.248   0.786
 7356SOL    HW140755   8.099   4.154   0.796
 7356SOL    HW240756   8.053   4.310   0.792
 7357SOL     OW40757   0.405   5.725   1.252
 7357SOL    HW140758   0.367   5.808   1.211
 7357SOL    HW240759   0.350   5.646   1.225
 7358SOL     OW40760   2.393   5.321   0.309
 7358SOL    HW140761   2.330   5.247   0.334
 7358SOL    HW240762   2.380   5.398   0.372
 7359SOL     OW40763   9.511   6.976   1.963
 7359SOL    HW140764   9.603   6.996   1.928
 7359SOL    HW240765   9.504   7.008   2.058
 7360SOL     OW40766   4.857   3.777   6.331
 7360SOL    HW140767   4.872   3.735   6.420
 7360SOL    HW240768   4.805   3.715   6.272
 7361SOL     OW40769   9.763   3.356   2.284
 7361SOL    HW140770   9.803   3.420   2.349
 7361SOL    HW240771   9.664   3.367   2.284
 7362SOL     OW40772   8.819   4.999   7.686
 7362SOL    HW140773   8.873   4.959   7.760
 7362SOL    HW240774   8.722   4.983   7.703
 7363SOL     OW40775   7.172   1.069   0.139
 7363SOL    HW140776   7.262   1.108   0.160
 7363SOL    HW240777   7.168   0.975   0.172
 7364SOL     OW40778   3.447   7.904   2.167
 7364SOL    HW140779   3.372   7.845   2.197
 7364SOL    HW240780   3.524   7.895   2.231
 7365SOL     OW40781   3.268   6.897   8.777
 7365SOL    HW140782   3.190   6.935   8.726
 7365SOL    HW240783   3.261   6.923   0.091
 7366SOL     OW40784   3.383   8.994   1.986
 7366SOL    HW140785   3.382   8.974   2.084
 7366SOL    HW240786   3.339   9.082   1.970
 7367SOL     OW40787   6.032   3.714   0.794
 7367SOL    HW140788   6.119   3.728   0.842
 7367SOL    HW240789   6.046   3.730   0.696
 7368SOL     OW40790   9.154   6.437   7.453
 7368SOL    HW140791   9.060   6.404   7.451
 7368SOL    HW240792   9.171   6.484   7.540
 7369SOL     OW40793   4.566   5.614   8.015
 7369SOL    HW140794   4.624   5.555   7.960
 7369SOL    HW240795   4.615   5.699   8.036
 7370SOL     OW40796   1.862   2.643   6.538
 7370SOL    HW140797   1.924   2.565   6.537
 7370SOL    HW240798   1.769   2.612   6.556
 7371SOL     OW40799   8.597   6.926   8.071
 7371SOL    HW140800   8.656   6.888   8.142
 7371SOL    HW240801   8.542   6.853   8.031
 7372SOL     OW40802  10.035   1.884   6.512
 7372SOL    HW140803   9.948   1.873   6.560
 7372SOL    HW240804  10.076   1.972   6.537
 7373SOL     OW40805   4.173   4.423   6.874
 7373SOL    HW140806   4.092   4.478   6.853
 7373SOL    HW240807   4.156   4.367   6.955
 7374SOL     OW40808   9.790   6.169   0.999
 7374SOL    HW140809   9.716   6.104   0.984
 7374SOL    HW240810   9.801   6.226   0.918
 7375SOL     OW40811   8.329   4.677   8.336
 7375SOL    HW140812   8.348   4.747   8.267
 7375SOL    HW240813   8.265   4.610   8.298
 7376SOL     OW40814   0.069   5.100   6.361
 7376SOL    HW140815   0.089   5.179   6.418
 7376SOL    HW240816   0.036   5.130   6.272
 7377SOL     OW40817   5.302   9.383   7.359
 7377SOL    HW140818   5.394   9.375   7.398
 7377SOL    HW240819   5.296   9.328   7.276
 7378SOL     OW40820   3.554   3.200   8.361
 7378SOL    HW140821   3.626   3.220   8.295
 7378SOL    HW240822   3.510   3.286   8.390
 7379SOL     OW40823   9.105   3.301   8.213
 7379SOL    HW140824   9.081   3.238   8.287
 7379SOL    HW240825   9.204   3.299   8.199
 7380SOL     OW40826   3.428   1.078   7.392
 7380SOL    HW140827   3.469   1.076   7.484
 7380SOL    HW240828   3.333   1.049   7.398
 7381SOL     OW40829   0.762   6.078   8.656
 7381SOL    HW140830   0.850   6.126   8.651
 7381SOL    HW240831   0.758   6.010   8.583
 7382SOL     OW40832   4.616   8.052   1.806
 7382SOL    HW140833   4.640   8.149   1.802
 7382SOL    HW240834   4.679   8.005   1.867
 7383SOL     OW40835   5.372   2.895   6.781
 7383SOL    HW140836   5.306   2.966   6.805
 7383SOL    HW240837   5.323   2.813   6.751
 7384SOL     OW40838   1.257   4.829   7.642
 7384SOL    HW140839   1.346   4.845   7.685
 7384SOL    HW240840   1.270   4.806   7.545
 7385SOL     OW40841   0.242   6.792   7.902
 7385SOL    HW140842   0.292   6.724   7.849
 7385SOL    HW240843   0.286   6.805   7.991
 7386SOL     OW40844   0.209   6.848   0.878
 7386SOL    HW140845   0.305   6.860   0.850
 7386SOL    HW240846   0.187   6.916   0.948
 7387SOL     OW40847   6.599   2.182   7.869
 7387SOL    HW140848   6.610   2.175   7.770
 7387SOL    HW240849   6.514   2.137   7.897
 7388SOL     OW40850   9.866   0.945   8.683
 7388SOL    HW140851   9.851   1.011   8.609
 7388SOL    HW240852   9.953   0.964   8.728
 7389SOL     OW40853   5.591   3.306   7.257
 7389SOL    HW140854   5.531   3.282   7.333
 7389SOL    HW240855   5.577   3.403   7.233
 7390SOL     OW40856   4.994   9.803   8.545
 7390SOL    HW140857   5.074   9.749   8.571
 7390SOL    HW240858   4.986   9.882   8.605
 7391SOL     OW40859   2.072  10.271   0.850
 7391SOL    HW140860   2.121  10.306   0.930
 7391SOL    HW240861   2.018  10.345   0.809
 7392SOL     OW40862   1.895   7.999   0.274
 7392SOL    HW140863   1.992   8.022   0.282
 7392SOL    HW240864   1.885   7.917   0.217
 7393SOL     OW40865   4.682   0.214   2.075
 7393SOL    HW140866   4.766   0.163   2.092
 7393SOL    HW240867   4.702   0.311   2.064
 7394SOL     OW40868   0.803  10.285   8.654
 7394SOL    HW140869   0.713  10.298   8.696
 7394SOL    HW240870   0.810  10.342   8.572
 7395SOL     OW40871   3.170   8.416   1.399
 7395SOL    HW140872   3.214   8.337   1.358
 7395SOL    HW240873   3.196   8.499   1.348
 7396SOL     OW40874   7.452   5.040   8.649
 7396SOL    HW140875   7.441   4.977   8.725
 7396SOL    HW240876   7.517   5.002   8.583
 7397SOL     OW40877   6.384   1.360   0.870
 7397SOL    HW140878   6.336   1.411   0.799
 7397SOL    HW240879   6.330   1.359   0.954
 7398SOL     OW40880   8.885   2.507   1.040
 7398SOL    HW140881   8.861   2.581   0.977
 7398SOL    HW240882   8.835   2.424   1.015
 7399SOL     OW40883   0.475  10.361   6.220
 7399SOL    HW140884   0.573  10.360   6.240
 7399SOL    HW240885   0.454  10.441   6.163
 7400SOL     OW40886   7.913   7.932   0.589
 7400SOL    HW140887   7.973   7.923   0.509
 7400SOL    HW240888   7.825   7.969   0.561
 7401SOL     OW40889   4.899   3.915   1.718
 7401SOL    HW140890   4.917   3.990   1.782
 7401SOL    HW240891   4.969   3.845   1.730
 7402SOL     OW40892   6.831   9.653   1.266
 7402SOL    HW140893   6.735   9.629   1.276
 7402SOL    HW240894   6.872   9.667   1.357
 7403SOL     OW40895   3.842   7.328   0.189
 7403SOL    HW140896   3.863   7.275   0.271
 7403SOL    HW240897   3.754   7.375   0.201
 7404SOL     OW40898   8.494  10.376   8.690
 7404SOL    HW140899   8.538  10.446   8.746
 7404SOL    HW240900   8.558  10.301   8.675
 7405SOL     OW40901   8.517   9.763   1.098
 7405SOL    HW140902   8.514   9.855   1.059
 7405SOL    HW240903   8.426   9.737   1.129
 7406SOL     OW40904   4.038   3.304   0.228
 7406SOL    HW140905   3.946   3.339   0.214
 7406SOL    HW240906   4.084   3.357   0.298
 7407SOL     OW40907   1.782   6.510   1.450
 7407SOL    HW140908   1.863   6.455   1.429
 7407SOL    HW240909   1.797   6.604   1.421
 7408SOL     OW40910   7.940   5.790   1.109
 7408SOL    HW140911   7.887   5.866   1.070
 7408SOL    HW240912   7.943   5.799   1.208
 7409SOL     OW40913   4.065   6.733   6.771
 7409SOL    HW140914   4.161   6.712   6.752
 7409SOL    HW240915   4.009   6.703   6.693
 7410SOL     OW40916   2.914   5.336   1.650
 7410SOL    HW140917   2.916   5.433   1.628
 7410SOL    HW240918   2.896   5.324   1.748
 7411SOL     OW40919   4.292   7.326   1.498
 7411SOL    HW140920   4.300   7.381   1.581
 7411SOL    HW240921   4.366   7.258   1.496
 7412SOL     OW40922   2.306   1.546   0.799
 7412SOL    HW140923   2.310   1.507   0.891
 7412SOL    HW240924   2.248   1.627   0.799
 7413SOL     OW40925   1.988   2.299   7.362
 7413SOL    HW140926   2.017   2.375   7.420
 7413SOL    HW240927   1.952   2.334   7.275
 7414SOL     OW40928   6.411   7.200   8.612
 7414SOL    HW140929   6.320   7.194   8.654
 7414SOL    HW240930   6.437   7.297   8.605
 7415SOL     OW40931   1.166   1.651   6.839
 7415SOL    HW140932   1.200   1.604   6.757
 7415SOL    HW240933   1.073   1.683   6.821
 7416SOL     OW40934   6.847   2.046   8.256
 7416SOL    HW140935   6.789   1.965   8.243
 7416SOL    HW240936   6.807   2.105   8.326
 7417SOL     OW40937   4.690   3.413   7.487
 7417SOL    HW140938   4.591   3.399   7.490
 7417SOL    HW240939   4.734   3.335   7.441
 7418SOL     OW40940   3.777   9.677   8.279
 7418SOL    HW140941   3.685   9.713   8.263
 7418SOL    HW240942   3.773   9.577   8.285
 7419SOL     OW40943   5.385   7.139   1.159
 7419SOL    HW140944   5.388   7.236   1.133
 7419SOL    HW240945   5.381   7.133   1.259
 7420SOL     OW40946   6.969   9.354   1.713
 7420SOL    HW140947   6.951   9.329   1.808
 7420SOL    HW240948   6.883   9.378   1.667
 7421SOL     OW40949   4.284   0.749   8.748
 7421SOL    HW140950   4.234   0.828   0.000
 7421SOL    HW240951   4.220   0.685   8.705
 7422SOL     OW40952  10.090   9.774   7.316
 7422SOL    HW140953  10.043   9.826   7.245
 7422SOL    HW240954  10.077   9.819   7.404
 7423SOL     OW40955   2.564   3.392   8.286
 7423SOL    HW140956   2.527   3.322   8.346
 7423SOL    HW240957   2.651   3.360   8.246
 7424SOL     OW40958   9.729  10.339   2.362
 7424SOL    HW140959   9.655  10.373   2.305
 7424SOL    HW240960   9.769  10.414   2.415
 7425SOL     OW40961   7.226   5.090   8.502
 7425SOL    HW140962   7.150   5.039   8.542
 7425SOL    HW240963   7.308   5.076   8.557
 7426SOL     OW40964   6.219   7.485   8.446
 7426SOL    HW140965   6.295   7.478   8.511
 7426SOL    HW240966   6.132   7.489   8.496
 7427SOL     OW40967   8.067   5.136   1.375
 7427SOL    HW140968   8.005   5.064   1.342
 7427SOL    HW240969   8.020   5.224   1.374
 7428SOL     OW40970   4.513   3.938   7.107
 7428SOL    HW140971   4.488   3.996   7.029
 7428SOL    HW240972   4.447   3.953   7.181
 7429SOL     OW40973   1.348   0.521   1.433
 7429SOL    HW140974   1.390   0.441   1.390
 7429SOL    HW240975   1.386   0.534   1.524
 7430SOL     OW40976   9.640   9.290   8.352
 7430SOL    HW140977   9.646   9.209   8.409
 7430SOL    HW240978   9.593   9.267   8.267
 7431SOL     OW40979   9.308   2.431   0.727
 7431SOL    HW140980   9.382   2.473   0.779
 7431SOL    HW240981   9.303   2.333   0.749
 7432SOL     OW40982   3.906   9.397   1.484
 7432SOL    HW140983   3.820   9.440   1.511
 7432SOL    HW240984   3.916   9.309   1.532
 7433SOL     OW40985   3.518   8.783   1.885
 7433SOL    HW140986   3.467   8.865   1.912
 7433SOL    HW240987   3.455   8.705   1.880
 7434SOL     OW40988   9.955   0.588   2.115
 7434SOL    HW140989  10.012   0.615   2.192
 7434SOL    HW240990   9.876   0.536   2.148
 7435SOL     OW40991   9.462   0.448   8.727
 7435SOL    HW140992   9.422   0.395   8.652
 7435SOL    HW240993   9.396   0.456   0.020
 7436SOL     OW40994   4.744   6.550   7.632
 7436SOL    HW140995   4.838   6.548   7.664
 7436SOL    HW240996   4.741   6.590   7.540
 7437SOL     OW40997   4.147   8.504   1.280
 7437SOL    HW140998   4.088   8.494   1.199
 7437SOL    HW240999   4.092   8.529   1.359
 7438SOL     OW41000   3.434   8.763   0.809
 7438SOL    HW141001   3.360   8.702   0.779
 7438SOL    HW241002   3.521   8.714   0.807
 7439SOL     OW41003   6.109   6.075   8.214
 7439SOL    HW141004   6.088   6.065   8.311
 7439SOL    HW241005   6.055   6.009   8.162
 7440SOL     OW41006   6.261   2.364   0.285
 7440SOL    HW141007   6.215   2.384   0.198
 7440SOL    HW241008   6.314   2.444   0.314
 7441SOL     OW41009   5.650   1.514   8.267
 7441SOL    HW141010   5.657   1.612   8.248
 7441SOL    HW241011   5.620   1.501   8.362
 7442SOL     OW41012   9.732   0.610   1.736
 7442SOL    HW141013   9.686   0.525   1.710
 7442SOL    HW241014   9.820   0.617   1.688
 7443SOL     OW41015   1.787   9.929   7.699
 7443SOL    HW141016   1.709   9.972   7.653
 7443SOL    HW241017   1.801   9.837   7.663
 7444SOL     OW41018   6.722   6.744   6.746
 7444SOL    HW141019   6.690   6.837   6.766
 7444SOL    HW241020   6.691   6.717   6.655
 7445SOL     OW41021   3.115   3.978   8.523
 7445SOL    HW141022   3.111   3.923   8.440
 7445SOL    HW241023   3.167   4.062   8.505
 7446SOL     OW41024   2.016   5.847   6.618
 7446SOL    HW141025   2.083   5.885   6.554
 7446SOL    HW241026   1.981   5.761   6.581
 7447SOL     OW41027   4.572   0.965   1.111
 7447SOL    HW141028   4.501   0.898   1.088
 7447SOL    HW241029   4.662   0.922   1.105
 7448SOL     OW41030   4.007   0.192   7.726
 7448SOL    HW141031   3.990   0.259   7.799
 7448SOL    HW241032   4.098   0.153   7.738
 7449SOL     OW41033   9.279   0.935   8.309
 7449SOL    HW141034   9.185   0.903   8.300
 7449SOL    HW241035   9.341   0.856   8.304
 7450SOL     OW41036   4.919   5.065   1.523
 7450SOL    HW141037   4.891   5.072   1.619
 7450SOL    HW241038   4.942   5.157   1.489
 7451SOL     OW41039   2.194   2.203   8.505
 7451SOL    HW141040   2.152   2.286   8.468
 7451SOL    HW241041   2.284   2.225   8.541
 7452SOL     OW41042   0.215   7.376   0.798
 7452SOL    HW141043   0.287   7.407   0.860
 7452SOL    HW241044   0.164   7.455   0.764
 7453SOL     OW41045   2.919   5.789   7.487
 7453SOL    HW141046   2.820   5.784   7.474
 7453SOL    HW241047   2.940   5.808   7.583
 7454SOL     OW41048   2.729   1.162   0.235
 7454SOL    HW141049   2.789   1.241   0.231
 7454SOL    HW241050   2.679   1.153   0.149
 7455SOL     OW41051   3.299  10.404   7.261
 7455SOL    HW141052   3.257  10.495   7.264
 7455SOL    HW241053   3.229  10.335   7.246
 7456SOL     OW41054   0.888   0.580   1.341
 7456SOL    HW141055   0.920   0.646   1.273
 7456SOL    HW241056   0.862   0.495   1.295
 7457SOL     OW41057   1.155   1.688   8.527
 7457SOL    HW141058   1.163   1.678   8.427
 7457SOL    HW241059   1.201   1.611   8.572
 7458SOL     OW41060   6.258   8.869   7.169
 7458SOL    HW141061   6.228   8.944   7.110
 7458SOL    HW241062   6.198   8.790   7.155
 7459SOL     OW41063   4.872   0.533   7.106
 7459SOL    HW141064   4.791   0.589   7.123
 7459SOL    HW241065   4.903   0.492   7.192
 7460SOL     OW41066   9.023  10.420   0.101
 7460SOL    HW141067   9.112  10.463   0.085
 7460SOL    HW241068   9.035  10.320   0.107
 7461SOL     OW41069   0.751   9.975   0.264
 7461SOL    HW141070   0.693   9.964   0.345
 7461SOL    HW241071   0.816  10.050   0.279
 7462SOL     OW41072   9.774   0.290   8.340
 7462SOL    HW141073   9.770   0.245   8.252
 7462SOL    HW241074   9.755   0.388   8.328
 7463SOL     OW41075   0.355   8.584   7.191
 7463SOL    HW141076   0.318   8.498   7.156
 7463SOL    HW241077   0.326   8.659   7.131
 7464SOL     OW41078   8.685   8.100   6.896
 7464SOL    HW141079   8.636   8.094   6.809
 7464SOL    HW241080   8.744   8.019   6.906
 7465SOL     OW41081   7.251   9.051   0.718
 7465SOL    HW141082   7.243   9.094   0.808
 7465SOL    HW241083   7.214   8.958   0.723
 7466SOL     OW41084   7.953   4.823   1.045
 7466SOL    HW141085   7.935   4.861   1.136
 7466SOL    HW241086   8.050   4.835   1.023
 7467SOL     OW41087   2.119   7.729   8.491
 7467SOL    HW141088   2.173   7.668   8.550
 7467SOL    HW241089   2.163   7.819   8.486
 7468SOL     OW41090   8.813   2.944   0.448
 7468SOL    HW141091   8.783   2.869   0.388
 7468SOL    HW241092   8.913   2.948   0.449
 7469SOL     OW41093   8.921   4.726   1.933
 7469SOL    HW141094   8.953   4.722   1.838
 7469SOL    HW241095   8.830   4.685   1.939
 7470SOL     OW41096   7.982   4.169   7.217
 7470SOL    HW141097   7.947   4.238   7.154
 7470SOL    HW241098   7.957   4.194   7.311
 7471SOL     OW41099   8.998   2.852   8.251
 7471SOL    HW141100   8.946   2.814   8.327
 7471SOL    HW241101   8.935   2.888   8.182
 7472SOL     OW41102   4.202   8.601   1.681
 7472SOL    HW141103   4.162   8.665   1.747
 7472SOL    HW241104   4.286   8.640   1.644
 7473SOL     OW41105   5.285   9.215   7.142
 7473SOL    HW141106   5.197   9.195   7.099
 7473SOL    HW241107   5.312   9.138   7.200
 7474SOL     OW41108   1.863   2.880   8.746
 7474SOL    HW141109   1.913   2.829   0.034
 7474SOL    HW241110   1.768   2.849   8.743
 7475SOL     OW41111   7.716  10.296   7.507
 7475SOL    HW141112   7.617  10.307   7.518
 7475SOL    HW241113   7.759  10.386   7.512
 7476SOL     OW41114   4.271   7.151   0.817
 7476SOL    HW141115   4.172   7.149   0.803
 7476SOL    HW241116   4.307   7.057   0.813
 7477SOL     OW41117   4.614   1.311   7.597
 7477SOL    HW141118   4.669   1.319   7.681
 7477SOL    HW241119   4.609   1.400   7.552
 7478SOL     OW41120   8.990   8.024   1.367
 7478SOL    HW141121   9.079   7.998   1.330
 7478SOL    HW241122   8.918   7.970   1.323
 7479SOL     OW41123   7.044   3.228   7.922
 7479SOL    HW141124   6.997   3.278   7.849
 7479SOL    HW241125   7.131   3.192   7.887
 7480SOL     OW41126   5.309   2.731   8.415
 7480SOL    HW141127   5.314   2.631   8.421
 7480SOL    HW241128   5.252   2.756   8.337
 7481SOL     OW41129   8.180   1.623   7.862
 7481SOL    HW141130   8.218   1.531   7.868
 7481SOL    HW241131   8.102   1.632   7.923
 7482SOL     OW41132   1.473   2.027   7.936
 7482SOL    HW141133   1.475   2.104   7.872
 7482SOL    HW241134   1.382   1.986   7.937
 7483SOL     OW41135   1.455   4.371   0.668
 7483SOL    HW141136   1.536   4.423   0.693
 7483SOL    HW241137   1.474   4.317   0.586
 7484SOL     OW41138   7.054   6.675   8.424
 7484SOL    HW141139   6.960   6.641   8.409
 7484SOL    HW241140   7.061   6.714   8.515
 7485SOL     OW41141   5.022   9.699   6.091
 7485SOL    HW141142   5.019   9.599   6.082
 7485SOL    HW241143   5.112   9.733   6.063
 7486SOL     OW41144   5.816   7.201   6.709
 7486SOL    HW141145   5.889   7.256   6.667
 7486SOL    HW241146   5.770   7.255   6.780
 7487SOL     OW41147   7.987   5.610   7.118
 7487SOL    HW141148   7.894   5.645   7.111
 7487SOL    HW241149   8.033   5.620   7.030
 7488SOL     OW41150   4.894   7.251   8.690
 7488SOL    HW141151   4.815   7.217   8.639
 7488SOL    HW241152   4.885   7.226   0.005
 7489SOL     OW41153   3.756   4.626   0.212
 7489SOL    HW141154   3.719   4.566   0.140
 7489SOL    HW241155   3.706   4.610   0.297
 7490SOL     OW41156   7.092  10.360   8.339
 7490SOL    HW141157   6.999  10.367   8.375
 7490SOL    HW241158   7.089  10.343   8.241
 7491SOL     OW41159   7.681   1.181   0.228
 7491SOL    HW141160   7.732   1.095   0.224
 7491SOL    HW241161   7.714   1.243   0.157
 7492SOL     OW41162   4.255   9.177   6.406
 7492SOL    HW141163   4.317   9.216   6.337
 7492SOL    HW241164   4.302   9.176   6.494
 7493SOL     OW41165  10.033   9.783   7.951
 7493SOL    HW141166  10.081   9.802   8.037
 7493SOL    HW241167  10.096   9.796   7.874
 7494SOL     OW41168   0.516   3.132   8.618
 7494SOL    HW141169   0.512   3.227   8.589
 7494SOL    HW241170   0.610   3.107   8.641
 7495SOL     OW41171   8.085   0.659   1.230
 7495SOL    HW141172   7.991   0.690   1.214
 7495SOL    HW241173   8.143   0.737   1.251
 7496SOL     OW41174   3.463   0.877   7.797
 7496SOL    HW141175   3.426   0.914   7.883
 7496SOL    HW241176   3.499   0.785   7.814
 7497SOL     OW41177   0.673   0.941   8.708
 7497SOL    HW141178   0.687   1.014   8.775
 7497SOL    HW241179   0.760   0.921   8.664
 7498SOL     OW41180   4.101   8.536   6.892
 7498SOL    HW141181   4.191   8.502   6.865
 7498SOL    HW241182   4.112   8.616   6.952
 7499SOL     OW41183   5.855   0.459   6.203
 7499SOL    HW141184   5.887   0.412   6.121
 7499SOL    HW241185   5.809   0.544   6.177
 7500SOL     OW41186   2.978   2.709   6.659
 7500SOL    HW141187   2.963   2.764   6.577
 7500SOL    HW241188   2.890   2.691   6.704
 7501SOL     OW41189   3.829   2.452   8.042
 7501SOL    HW141190   3.863   2.449   7.948
 7501SOL    HW241191   3.787   2.364   8.066
 7502SOL     OW41192   0.315  10.155   0.929
 7502SOL    HW141193   0.346  10.133   1.022
 7502SOL    HW241194   0.294  10.070   0.880
 7503SOL     OW41195   0.531   8.927   7.141
 7503SOL    HW141196   0.558   8.846   7.194
 7503SOL    HW241197   0.591   9.003   7.163
 7504SOL     OW41198   4.822   0.656   7.815
 7504SOL    HW141199   4.906   0.605   7.797
 7504SOL    HW241200   4.797   0.711   7.735
 7505SOL     OW41201   2.426   3.587   0.056
 7505SOL    HW141202   2.396   3.623   8.749
 7505SOL    HW241203   2.526   3.589   0.061
 7506SOL     OW41204   4.472   4.163   8.299
 7506SOL    HW141205   4.451   4.257   8.274
 7506SOL    HW241206   4.393   4.122   8.344
 7507SOL     OW41207   0.805   5.047   1.890
 7507SOL    HW141208   0.890   5.050   1.836
 7507SOL    HW241209   0.827   5.048   1.987
 7508SOL     OW41210   0.828   6.902   7.764
 7508SOL    HW141211   0.884   6.909   7.846
 7508SOL    HW241212   0.733   6.928   7.785
 7509SOL     OW41213   8.689   7.144   0.932
 7509SOL    HW141214   8.693   7.051   0.969
 7509SOL    HW241215   8.680   7.210   1.007
 7510SOL     OW41216   7.536   7.506   1.552
 7510SOL    HW141217   7.584   7.592   1.573
 7510SOL    HW241218   7.534   7.492   1.453
 7511SOL     OW41219   6.838   9.244   8.471
 7511SOL    HW141220   6.850   9.179   8.395
 7511SOL    HW241221   6.921   9.244   8.527
 7512SOL     OW41222  10.068   9.039   8.681
 7512SOL    HW141223  10.016   9.072   8.603
 7512SOL    HW241224   0.008   9.039   8.659
 7513SOL     OW41225   7.649   0.994   2.186
 7513SOL    HW141226   7.605   0.923   2.242
 7513SOL    HW241227   7.580   1.040   2.130
 7514SOL     OW41228   8.035   1.202   6.701
 7514SOL    HW141229   7.961   1.192   6.635
 7514SOL    HW241230   8.123   1.198   6.653
 7515SOL     OW41231   4.492   1.067   0.857
 7515SOL    HW141232   4.396   1.060   0.830
 7515SOL    HW241233   4.502   1.038   0.952
 7516SOL     OW41234   4.726   8.273   7.062
 7516SOL    HW141235   4.706   8.344   7.130
 7516SOL    HW241236   4.657   8.201   7.068
 7517SOL     OW41237   9.249   0.593   1.027
 7517SOL    HW141238   9.195   0.576   0.945
 7517SOL    HW241239   9.267   0.691   1.035
 7518SOL     OW41240   9.431   3.471   6.881
 7518SOL    HW141241   9.428   3.555   6.827
 7518SOL    HW241242   9.486   3.402   6.834
 7519SOL     OW41243   1.676   8.996   0.773
 7519SOL    HW141244   1.725   8.923   0.724
 7519SOL    HW241245   1.648   8.962   0.863
 7520SOL     OW41246   6.341   3.836   8.496
 7520SOL    HW141247   6.316   3.927   8.526
 7520SOL    HW241248   6.368   3.780   8.575
 7521SOL     OW41249   7.227   2.373   6.930
 7521SOL    HW141250   7.302   2.309   6.913
 7521SOL    HW241251   7.217   2.388   7.028
 7522SOL     OW41252   3.055   9.044   2.240
 7522SOL    HW141253   2.966   9.064   2.281
 7522SOL    HW241254   3.100   8.970   2.291
 7523SOL     OW41255   9.067   2.867   7.622
 7523SOL    HW141256   8.994   2.812   7.661
 7523SOL    HW241257   9.101   2.931   7.691
 7524SOL     OW41258   8.252   4.534   1.167
 7524SOL    HW141259   8.199   4.540   1.083
 7524SOL    HW241260   8.350   4.527   1.145
 7525SOL     OW41261   2.931   1.631   8.345
 7525SOL    HW141262   2.865   1.704   8.362
 7525SOL    HW241263   3.016   1.651   8.393
 7526SOL     OW41264   9.504   1.460   1.292
 7526SOL    HW141265   9.535   1.554   1.305
 7526SOL    HW241266   9.418   1.446   1.342
 7527SOL     OW41267   2.728   5.705   6.040
 7527SOL    HW141268   2.763   5.644   5.969
 7527SOL    HW241269   2.800   5.770   6.066
 7528SOL     OW41270   0.089   4.368   2.053
 7528SOL    HW141271   0.063   4.284   2.006
 7528SOL    HW241272   0.171   4.352   2.108
 7529SOL     OW41273   2.426   8.921   1.339
 7529SOL    HW141274   2.428   9.017   1.311
 7529SOL    HW241275   2.338   8.899   1.379
 7530SOL     OW41276   9.178   1.560   0.905
 7530SOL    HW141277   9.263   1.508   0.914
 7530SOL    HW241278   9.100   1.503   0.931
 7531SOL     OW41279   8.963   2.715   7.398
 7531SOL    HW141280   9.004   2.778   7.464
 7531SOL    HW241281   8.868   2.742   7.380
 7532SOL     OW41282   7.997   0.382   0.071
 7532SOL    HW141283   8.088   0.413   0.044
 7532SOL    HW241284   7.996   0.358   0.168
 7533SOL     OW41285   6.824   1.774   7.796
 7533SOL    HW141286   6.897   1.826   7.840
 7533SOL    HW241287   6.823   1.681   7.832
 7534SOL     OW41288   8.475   8.447   0.852
 7534SOL    HW141289   8.553   8.389   0.875
 7534SOL    HW241290   8.415   8.456   0.931
 7535SOL     OW41291   2.451   7.705   0.450
 7535SOL    HW141292   2.423   7.621   0.402
 7535SOL    HW241293   2.548   7.699   0.473
 7536SOL     OW41294   3.537   4.463   0.723
 7536SOL    HW141295   3.488   4.391   0.673
 7536SOL    HW241296   3.632   4.434   0.738
 7537SOL     OW41297   9.862   3.710   7.241
 7537SOL    HW141298   9.778   3.721   7.295
 7537SOL    HW241299   9.847   3.640   7.170
 7538SOL     OW41300   5.987   1.215   8.604
 7538SOL    HW141301   6.020   1.120   8.605
 7538SOL    HW241302   5.921   1.226   8.530
 7539SOL     OW41303   2.511   9.258   0.277
 7539SOL    HW141304   2.493   9.324   0.350
 7539SOL    HW241305   2.606   9.228   0.282
 7540SOL     OW41306   8.551   8.697   0.773
 7540SOL    HW141307   8.521   8.607   0.805
 7540SOL    HW241308   8.473   8.747   0.734
 7541SOL     OW41309   6.054  10.414   7.134
 7541SOL    HW141310   6.151  10.430   7.118
 7541SOL    HW241311   6.040  10.318   7.157
 7542SOL     OW41312   5.504  10.277   8.476
 7542SOL    HW141313   5.470  10.205   8.537
 7542SOL    HW241314   5.427  10.333   8.444
 7543SOL     OW41315   6.372   2.835   8.454
 7543SOL    HW141316   6.409   2.756   8.504
 7543SOL    HW241317   6.294   2.806   8.399
 7544SOL     OW41318   9.246   6.139   6.108
 7544SOL    HW141319   9.276   6.049   6.139
 7544SOL    HW241320   9.208   6.132   6.015
 7545SOL     OW41321   1.293   0.464   7.580
 7545SOL    HW141322   1.201   0.502   7.587
 7545SOL    HW241323   1.309   0.400   7.655
 7546SOL     OW41324   4.939   3.661   1.299
 7546SOL    HW141325   4.974   3.608   1.376
 7546SOL    HW241326   5.003   3.735   1.278
 7547SOL     OW41327   2.908   4.491   7.888
 7547SOL    HW141328   2.838   4.420   7.885
 7547SOL    HW241329   2.997   4.451   7.864
 7548SOL     OW41330   1.016   9.551   7.269
 7548SOL    HW141331   1.023   9.649   7.285
 7548SOL    HW241332   0.954   9.533   7.193
 7549SOL     OW41333   1.586   8.798   6.922
 7549SOL    HW141334   1.640   8.723   6.960
 7549SOL    HW241335   1.625   8.885   6.952
 7550SOL     OW41336   7.698   3.812   8.260
 7550SOL    HW141337   7.720   3.748   8.186
 7550SOL    HW241338   7.644   3.765   8.329
 7551SOL     OW41339   7.404   8.284   1.479
 7551SOL    HW141340   7.444   8.197   1.507
 7551SOL    HW241341   7.338   8.268   1.405
 7552SOL     OW41342   1.053   3.986   7.054
 7552SOL    HW141343   1.090   3.940   6.974
 7552SOL    HW241344   1.005   3.919   7.112
 7553SOL     OW41345   9.944   2.020   8.226
 7553SOL    HW141346   9.852   2.047   8.198
 7553SOL    HW241347   9.964   1.929   8.190
 7554SOL     OW41348   9.814   1.165   0.254
 7554SOL    HW141349   9.890   1.216   0.293
 7554SOL    HW241350   9.728   1.214   0.272
 7555SOL     OW41351   0.937   5.774   0.383
 7555SOL    HW141352   0.850   5.732   0.408
 7555SOL    HW241353   0.942   5.786   0.284
 7556SOL     OW41354   9.227   8.919   8.778
 7556SOL    HW141355   9.320   8.955   8.773
 7556SOL    HW241356   9.222   8.849   0.066
 7557SOL     OW41357   6.441   8.508   7.744
 7557SOL    HW141358   6.421   8.552   7.656
 7557SOL    HW241359   6.534   8.472   7.743
 7558SOL     OW41360   4.308   6.362   7.457
 7558SOL    HW141361   4.322   6.445   7.403
 7558SOL    HW241362   4.332   6.379   7.553
 7559SOL     OW41363   2.010   9.911   7.477
 7559SOL    HW141364   2.104   9.913   7.443
 7559SOL    HW241365   2.003   9.964   7.561
 7560SOL     OW41366   3.260   2.861   6.871
 7560SOL    HW141367   3.218   2.929   6.811
 7560SOL    HW241368   3.189   2.809   6.917
 7561SOL     OW41369   6.168   1.665   0.014
 7561SOL    HW141370   6.195   1.754   0.050
 7561SOL    HW241371   6.069   1.654   0.024
 7562SOL     OW41372   6.987   3.750   0.315
 7562SOL    HW141373   7.006   3.691   0.392
 7562SOL    HW241374   6.899   3.796   0.329
 7563SOL     OW41375   1.065   3.736   8.522
 7563SOL    HW141376   1.140   3.731   8.456
 7563SOL    HW241377   1.096   3.784   8.604
 7564SOL     OW41378   5.400   4.339   2.029
 7564SOL    HW141379   5.496   4.341   2.001
 7564SOL    HW241380   5.373   4.245   2.050
 7565SOL     OW41381   0.175   2.065   1.994
 7565SOL    HW141382   0.244   2.099   2.057
 7565SOL    HW241383   0.108   2.010   2.045
 7566SOL     OW41384   2.333   8.783   6.093
 7566SOL    HW141385   2.409   8.845   6.075
 7566SOL    HW241386   2.266   8.789   6.019
 7567SOL     OW41387   8.363   6.112   8.346
 7567SOL    HW141388   8.451   6.125   8.300
 7567SOL    HW241389   8.337   6.196   8.394
 7568SOL     OW41390   2.500   9.527   1.302
 7568SOL    HW141391   2.568   9.597   1.323
 7568SOL    HW241392   2.427   9.567   1.247
 7569SOL     OW41393   1.376   0.564   7.338
 7569SOL    HW141394   1.382   0.660   7.364
 7569SOL    HW241395   1.348   0.509   7.417
 7570SOL     OW41396   7.370   1.887   8.160
 7570SOL    HW141397   7.291   1.913   8.215
 7570SOL    HW241398   7.341   1.866   8.066
 7571SOL     OW41399   7.374   5.840   1.434
 7571SOL    HW141400   7.385   5.741   1.419
 7571SOL    HW241401   7.448   5.873   1.492
 7572SOL     OW41402   8.841   4.509   0.557
 7572SOL    HW141403   8.782   4.428   0.565
 7572SOL    HW241404   8.815   4.576   0.627
 7573SOL     OW41405   6.535   2.275   8.690
 7573SOL    HW141406   6.509   2.363   8.728
 7573SOL    HW241407   6.532   2.205   8.762
 7574SOL     OW41408   8.423   5.481   8.310
 7574SOL    HW141409   8.416   5.383   8.293
 7574SOL    HW241410   8.512   5.514   8.278
 7575SOL     OW41411   0.827   9.102   0.396
 7575SOL    HW141412   0.856   9.012   0.364
 7575SOL    HW241413   0.764   9.092   0.473
 7576SOL     OW41414   0.791   4.323   8.245
 7576SOL    HW141415   0.707   4.319   8.191
 7576SOL    HW241416   0.870   4.320   8.185
 7577SOL     OW41417   5.283   9.748   7.495
 7577SOL    HW141418   5.366   9.693   7.484
 7577SOL    HW241419   5.219   9.699   7.554
 7578SOL     OW41420   1.213   0.005   0.788
 7578SOL    HW141421   1.194   0.035   0.882
 7578SOL    HW241422   1.207   0.083   0.726
 7579SOL     OW41423   2.857   5.345   0.320
 7579SOL    HW141424   2.923   5.313   0.253
 7579SOL    HW241425   2.896   5.337   0.412
 7580SOL     OW41426   6.094   0.961   8.600
 7580SOL    HW141427   6.043   0.950   8.514
 7580SOL    HW241428   6.175   0.903   8.598
 7581SOL     OW41429   2.487   9.042   0.558
 7581SOL    HW141430   2.462   9.128   0.602
 7581SOL    HW241431   2.419   8.972   0.580
 7582SOL     OW41432   1.225   8.421   8.738
 7582SOL    HW141433   1.271   8.394   0.041
 7582SOL    HW241434   1.283   8.486   8.689
 7583SOL     OW41435   3.360   2.553   6.862
 7583SOL    HW141436   3.406   2.628   6.910
 7583SOL    HW241437   3.375   2.562   6.764
 7584SOL     OW41438   8.465   4.453   0.626
 7584SOL    HW141439   8.548   4.399   0.612
 7584SOL    HW241440   8.432   4.442   0.719
 7585SOL     OW41441   2.647   8.553   7.242
 7585SOL    HW141442   2.716   8.501   7.291
 7585SOL    HW241443   2.557   8.512   7.257
 7586SOL     OW41444   7.239   4.127   8.085
 7586SOL    HW141445   7.302   4.068   8.036
 7586SOL    HW241446   7.202   4.079   8.164
 7587SOL     OW41447   2.335   0.687   6.670
 7587SOL    HW141448   2.278   0.686   6.752
 7587SOL    HW241449   2.302   0.617   6.606
 7588SOL     OW41450   8.899   2.624   8.747
 7588SOL    HW141451   8.901   2.611   0.064
 7588SOL    HW241452   8.806   2.606   8.713
 7589SOL     OW41453   0.543   9.446   8.691
 7589SOL    HW141454   0.481   9.435   8.613
 7589SOL    HW241455   0.635   9.464   8.657
 7590SOL     OW41456   2.756   5.882   1.135
 7590SOL    HW141457   2.700   5.842   1.062
 7590SOL    HW241458   2.705   5.881   1.221
 7591SOL     OW41459   9.284   7.676   7.397
 7591SOL    HW141460   9.188   7.646   7.402
 7591SOL    HW241461   9.288   7.776   7.399
 7592SOL     OW41462   0.026   9.119   7.243
 7592SOL    HW141463  10.135   9.203   7.219
 7592SOL    HW241464   0.048   9.069   7.159
 7593SOL     OW41465   6.576   0.706   0.815
 7593SOL    HW141466   6.527   0.775   0.763
 7593SOL    HW241467   6.642   0.659   0.756
 7594SOL     OW41468   4.400  10.000   6.980
 7594SOL    HW141469   4.458  10.056   7.038
 7594SOL    HW241470   4.457   9.954   6.911
 7595SOL     OW41471   0.855   5.019   6.963
 7595SOL    HW141472   0.763   4.979   6.959
 7595SOL    HW241473   0.856   5.092   7.032
 7596SOL     OW41474   7.788   5.355   6.410
 7596SOL    HW141475   7.865   5.376   6.350
 7596SOL    HW241476   7.792   5.260   6.439
 7597SOL     OW41477   9.930   1.281   7.051
 7597SOL    HW141478  10.019   1.279   7.096
 7597SOL    HW241479   9.865   1.331   7.108
 7598SOL     OW41480   0.500   4.848   7.965
 7598SOL    HW141481   0.433   4.906   8.010
 7598SOL    HW241482   0.591   4.888   7.976
 7599SOL     OW41483   7.942   5.025   6.805
 7599SOL    HW141484   7.938   4.926   6.791
 7599SOL    HW241485   8.037   5.057   6.795
 7600SOL     OW41486   4.556   6.924   8.187
 7600SOL    HW141487   4.624   6.957   8.122
 7600SOL    HW241488   4.466   6.960   8.163
 7601SOL     OW41489   0.485   4.815   0.292
 7601SOL    HW141490   0.423   4.740   0.315
 7601SOL    HW241491   0.433   4.888   0.247
 7602SOL     OW41492   9.153   7.907   1.781
 7602SOL    HW141493   9.199   7.838   1.725
 7602SOL    HW241494   9.219   7.977   1.807
 7603SOL     OW41495   5.432   2.094   1.221
 7603SOL    HW141496   5.475   2.004   1.207
 7603SOL    HW241497   5.396   2.100   1.314
 7604SOL     OW41498   6.507   1.934   6.299
 7604SOL    HW141499   6.527   1.843   6.263
 7604SOL    HW241500   6.430   1.974   6.250
 7605SOL     OW41501   4.651   1.897   2.235
 7605SOL    HW141502   4.667   1.965   2.306
 7605SOL    HW241503   4.554   1.874   2.232
 7606SOL     OW41504   9.905   6.764   0.382
 7606SOL    HW141505  10.000   6.733   0.384
 7606SOL    HW241506   9.861   6.743   0.470
 7607SOL     OW41507   8.516   5.634   0.428
 7607SOL    HW141508   8.498   5.549   0.476
 7607SOL    HW241509   8.545   5.615   0.335
 7608SOL     OW41510   1.209   7.557   0.918
 7608SOL    HW141511   1.289   7.565   0.858
 7608SOL    HW241512   1.226   7.487   0.987
 7609SOL     OW41513   4.389   7.285   8.116
 7609SOL    HW141514   4.334   7.202   8.107
 7609SOL    HW241515   4.329   7.365   8.120
 7610SOL     OW41516   1.477   5.188   8.377
 7610SOL    HW141517   1.391   5.188   8.326
 7610SOL    HW241518   1.488   5.277   8.423
 7611SOL     OW41519   3.022   4.238   8.284
 7611SOL    HW141520   2.928   4.222   8.252
 7611SOL    HW241521   3.078   4.269   8.208
 7612SOL     OW41522   2.189   3.102   0.599
 7612SOL    HW141523   2.128   3.049   0.539
 7612SOL    HW241524   2.266   3.136   0.546
 7613SOL     OW41525   2.933   7.086   6.942
 7613SOL    HW141526   2.847   7.131   6.967
 7613SOL    HW241527   2.931   7.060   6.846
 7614SOL     OW41528   8.952   4.633   7.644
 7614SOL    HW141529   9.009   4.709   7.675
 7614SOL    HW241530   8.856   4.663   7.641
 7615SOL     OW41531   8.094   0.246   7.512
 7615SOL    HW141532   8.087   0.173   7.444
 7615SOL    HW241533   8.188   0.250   7.547
 7616SOL     OW41534   9.464   6.674   7.137
 7616SOL    HW141535   9.404   6.629   7.070
 7616SOL    HW241536   9.558   6.675   7.101
 7617SOL     OW41537   8.008   0.649   1.612
 7617SOL    HW141538   7.934   0.581   1.615
 7617SOL    HW241539   7.982   0.722   1.549
 7618SOL     OW41540   5.473   0.256   8.134
 7618SOL    HW141541   5.403   0.236   8.202
 7618SOL    HW241542   5.540   0.319   8.172
 7619SOL     OW41543   3.793   8.703   0.179
 7619SOL    HW141544   3.821   8.723   0.273
 7619SOL    HW241545   3.698   8.730   0.166
 7620SOL     OW41546   4.713   4.167   0.805
 7620SOL    HW141547   4.722   4.167   0.706
 7620SOL    HW241548   4.709   4.073   0.839
 7621SOL     OW41549   0.921   9.545   1.794
 7621SOL    HW141550   0.893   9.571   1.701
 7621SOL    HW241551   0.851   9.576   1.859
 7622SOL     OW41552   9.590   2.906   6.506
 7622SOL    HW141553   9.626   2.870   6.420
 7622SOL    HW241554   9.502   2.952   6.488
 7623SOL     OW41555   9.531   5.259   8.775
 7623SOL    HW141556   9.589   5.259   0.074
 7623SOL    HW241557   9.586   5.235   8.694
 7624SOL     OW41558   3.736   8.497   0.422
 7624SOL    HW141559   3.796   8.576   0.433
 7624SOL    HW241560   3.787   8.413   0.442
 7625SOL     OW41561   4.904   9.727   7.902
 7625SOL    HW141562   4.864   9.671   7.830
 7625SOL    HW241563   4.874   9.692   7.991
 7626SOL     OW41564   0.240   1.835   6.764
 7626SOL    HW141565   0.199   1.793   6.845
 7626SOL    HW241566   0.190   1.805   6.682
 7627SOL     OW41567   9.332   1.815   6.838
 7627SOL    HW141568   9.327   1.814   6.738
 7627SOL    HW241569   9.281   1.738   6.875
 7628SOL     OW41570  10.007   5.963   1.310
 7628SOL    HW141571  10.019   5.928   1.404
 7628SOL    HW241572   9.978   5.888   1.251
 7629SOL     OW41573   2.603   9.651   7.332
 7629SOL    HW141574   2.617   9.561   7.292
 7629SOL    HW241575   2.689   9.702   7.331
 7630SOL     OW41576   3.926   0.391   6.074
 7630SOL    HW141577   3.961   0.331   6.003
 7630SOL    HW241578   4.002   0.434   6.122
 7631SOL     OW41579   6.031   4.133   0.961
 7631SOL    HW141580   5.931   4.125   0.955
 7631SOL    HW241581   6.070   4.140   0.870
 7632SOL     OW41582   0.646   1.922   1.394
 7632SOL    HW141583   0.549   1.943   1.402
 7632SOL    HW241584   0.699   2.007   1.389
 7633SOL     OW41585   6.247   9.576   2.213
 7633SOL    HW141586   6.268   9.606   2.307
 7633SOL    HW241587   6.330   9.577   2.158
 7634SOL     OW41588   2.208   0.554   1.069
 7634SOL    HW141589   2.194   0.458   1.046
 7634SOL    HW241590   2.235   0.562   1.166
 7635SOL     OW41591  10.149   6.925   0.725
 7635SOL    HW141592   0.001   7.025   0.727
 7635SOL    HW241593   0.076   6.883   0.759
 7636SOL     OW41594   3.696   8.618   7.061
 7636SOL    HW141595   3.729   8.567   7.141
 7636SOL    HW241596   3.750   8.593   6.981
 7637SOL     OW41597   6.828   0.123   8.464
 7637SOL    HW141598   6.831   0.024   8.449
 7637SOL    HW241599   6.919   0.162   8.449
 7638SOL     OW41600   5.996   7.360   7.305
 7638SOL    HW141601   6.002   7.311   7.218
 7638SOL    HW241602   5.996   7.459   7.287
 7639SOL     OW41603   9.613   6.557   0.440
 7639SOL    HW141604   9.604   6.599   0.350
 7639SOL    HW241605   9.662   6.470   0.432
 7640SOL     OW41606   3.909   7.909   6.876
 7640SOL    HW141607   4.003   7.915   6.841
 7640SOL    HW241608   3.911   7.909   6.976
 7641SOL     OW41609   5.009   0.566   8.371
 7641SOL    HW141610   4.922   0.545   8.327
 7641SOL    HW241611   4.996   0.638   8.439
 7642SOL     OW41612   1.433   8.970   0.642
 7642SOL    HW141613   1.518   8.993   0.689
 7642SOL    HW241614   1.405   8.877   0.666
 7643SOL     OW41615   5.436   6.096   7.283
 7643SOL    HW141616   5.350   6.131   7.246
 7643SOL    HW241617   5.500   6.171   7.297
 7644SOL     OW41618   3.311   4.107   7.704
 7644SOL    HW141619   3.314   4.016   7.662
 7644SOL    HW241620   3.368   4.169   7.651
 7645SOL     OW41621   6.755   2.911   0.504
 7645SOL    HW141622   6.656   2.914   0.515
 7645SOL    HW241623   6.792   2.834   0.557
 7646SOL     OW41624   1.484   9.616   6.543
 7646SOL    HW141625   1.574   9.618   6.588
 7646SOL    HW241626   1.489   9.665   6.456
 7647SOL     OW41627   3.292   9.281   1.360
 7647SOL    HW141628   3.385   9.318   1.362
 7647SOL    HW241629   3.296   9.181   1.368
 7648SOL     OW41630   6.840   5.558   7.284
 7648SOL    HW141631   6.937   5.574   7.268
 7648SOL    HW241632   6.818   5.462   7.265
 7649SOL     OW41633   3.116   3.824   6.326
 7649SOL    HW141634   3.169   3.898   6.284
 7649SOL    HW241635   3.042   3.797   6.264
 7650SOL     OW41636   7.475   4.706   8.393
 7650SOL    HW141637   7.389   4.682   8.439
 7650SOL    HW241638   7.509   4.626   8.343
 7651SOL     OW41639   8.742   3.395   7.565
 7651SOL    HW141640   8.650   3.436   7.571
 7651SOL    HW241641   8.810   3.464   7.591
 7652SOL     OW41642   9.921   4.351   1.904
 7652SOL    HW141643   9.852   4.318   1.839
 7652SOL    HW241644   9.902   4.313   1.995
 7653SOL     OW41645   5.683   3.062   8.779
 7653SOL    HW141646   5.611   3.119   8.741
 7653SOL    HW241647   5.770   3.112   8.777
 7654SOL     OW41648   0.854   5.409   7.910
 7654SOL    HW141649   0.835   5.385   7.814
 7654SOL    HW241650   0.768   5.423   7.958
 7655SOL     OW41651   3.709   7.834   7.355
 7655SOL    HW141652   3.760   7.873   7.278
 7655SOL    HW241653   3.666   7.908   7.407
 7656SOL     OW41654   8.044   2.044   6.635
 7656SOL    HW141655   8.123   2.095   6.601
 7656SOL    HW241656   8.038   1.956   6.588
 7657SOL     OW41657   9.357   4.154   0.065
 7657SOL    HW141658   9.298   4.204   0.128
 7657SOL    HW241659   9.331   4.057   0.065
 7658SOL     OW41660   2.019   1.483   6.948
 7658SOL    HW141661   1.982   1.417   6.883
 7658SOL    HW241662   2.104   1.447   6.987
 7659SOL     OW41663   9.708   9.147   6.499
 7659SOL    HW141664   9.701   9.244   6.520
 7659SOL    HW241665   9.715   9.135   6.400
 7660SOL     OW41666   0.581   3.027   7.766
 7660SOL    HW141667   0.568   2.953   7.699
 7660SOL    HW241668   0.528   3.107   7.738
 7661SOL     OW41669   3.582   4.644   1.329
 7661SOL    HW141670   3.531   4.558   1.326
 7661SOL    HW241671   3.658   4.640   1.264
 7662SOL     OW41672   3.674  10.305   6.674
 7662SOL    HW141673   3.641  10.211   6.664
 7662SOL    HW241674   3.619  10.366   6.619
 7663SOL     OW41675   4.888   9.923   6.007
 7663SOL    HW141676   4.966   9.983   5.990
 7663SOL    HW241677   4.920   9.831   6.029
 7664SOL     OW41678   0.154   4.062   7.924
 7664SOL    HW141679   0.247   4.093   7.942
 7664SOL    HW241680   0.097   4.140   7.898
 7665SOL     OW41681   3.997   9.946   7.479
 7665SOL    HW141682   3.946   9.987   7.403
 7665SOL    HW241683   4.078  10.001   7.499
 7666SOL     OW41684   9.094   5.094   8.692
 7666SOL    HW141685   9.058   5.036   8.764
 7666SOL    HW241686   9.166   5.046   8.643
 7667SOL     OW41687   4.897   9.794   0.120
 7667SOL    HW141688   4.937   9.867   0.065
 7667SOL    HW241689   4.945   9.708   0.101
 7668SOL     OW41690   4.819   5.920   0.645
 7668SOL    HW141691   4.754   5.844   0.645
 7668SOL    HW241692   4.770   6.006   0.631
 7669SOL     OW41693   0.991   7.468   8.361
 7669SOL    HW141694   0.975   7.411   8.441
 7669SOL    HW241695   1.077   7.518   8.372
 7670SOL     OW41696   7.543   0.573   6.556
 7670SOL    HW141697   7.555   0.665   6.519
 7670SOL    HW241698   7.553   0.506   6.482
 7671SOL     OW41699   5.969  10.083   1.145
 7671SOL    HW141700   6.053  10.134   1.163
 7671SOL    HW241701   5.890  10.144   1.157
 7672SOL     OW41702   3.149   9.876   7.046
 7672SOL    HW141703   3.248   9.868   7.049
 7672SOL    HW241704   3.117   9.865   6.952
 7673SOL     OW41705   5.802  10.469   7.044
 7673SOL    HW141706   5.894  10.457   7.082
 7673SOL    HW241707   5.734  10.446   7.113
 7674SOL     OW41708   8.826   9.289   1.869
 7674SOL    HW141709   8.748   9.347   1.893
 7674SOL    HW241710   8.846   9.299   1.772
 7675SOL     OW41711   5.101   6.663   6.891
 7675SOL    HW141712   5.046   6.604   6.950
 7675SOL    HW241713   5.110   6.620   6.801
 7676SOL     OW41714   5.997   4.258   8.204
 7676SOL    HW141715   6.036   4.295   8.120
 7676SOL    HW241716   5.901   4.236   8.189
 7677SOL     OW41717   9.415   5.331   6.969
 7677SOL    HW141718   9.330   5.303   7.014
 7677SOL    HW241719   9.492   5.314   7.030
 7678SOL     OW41720   0.365   0.928   0.585
 7678SOL    HW141721   0.456   0.937   0.545
 7678SOL    HW241722   0.345   1.008   0.642
 7679SOL     OW41723   0.732   8.926   7.383
 7679SOL    HW141724   0.676   8.848   7.355
 7679SOL    HW241725   0.815   8.893   7.429
 7680SOL     OW41726   1.823   0.967   2.110
 7680SOL    HW141727   1.815   0.996   2.015
 7680SOL    HW241728   1.902   1.010   2.153
 7681SOL     OW41729   5.757   7.435   8.343
 7681SOL    HW141730   5.724   7.341   8.335
 7681SOL    HW241731   5.768   7.474   8.252
 7682SOL     OW41732   9.389   0.008   1.634
 7682SOL    HW141733   9.365  10.416   1.655
 7682SOL    HW241734   9.442   0.046   1.710
 7683SOL     OW41735   3.286   8.057   7.848
 7683SOL    HW141736   3.263   8.152   7.870
 7683SOL    HW241737   3.211   8.016   7.797
 7684SOL     OW41738   1.489   2.179   8.345
 7684SOL    HW141739   1.526   2.198   8.435
 7684SOL    HW241740   1.551   2.118   8.296
 7685SOL     OW41741   5.626   4.706   8.486
 7685SOL    HW141742   5.665   4.631   8.433
 7685SOL    HW241743   5.696   4.776   8.501
 7686SOL     OW41744   0.720   7.313   7.502
 7686SOL    HW141745   0.696   7.224   7.463
 7686SOL    HW241746   0.638   7.354   7.543
 7687SOL     OW41747   9.193   7.449   0.000
 7687SOL    HW141748   9.149   7.460   0.089
 7687SOL    HW241749   9.248   7.530   8.762
 7688SOL     OW41750   9.963   4.951   7.726
 7688SOL    HW141751   9.905   4.970   7.646
 7688SOL    HW241752   9.961   5.030   7.788
 7689SOL     OW41753   3.224   9.829   0.430
 7689SOL    HW141754   3.300   9.767   0.414
 7689SOL    HW241755   3.189   9.862   0.342
 7690SOL     OW41756   1.011   8.730   7.047
 7690SOL    HW141757   1.035   8.634   7.064
 7690SOL    HW241758   0.938   8.734   6.979
 7691SOL     OW41759   5.832   4.628   7.387
 7691SOL    HW141760   5.756   4.564   7.377
 7691SOL    HW241761   5.916   4.585   7.353
 7692SOL     OW41762   3.431   8.422   0.880
 7692SOL    HW141763   3.370   8.477   0.823
 7692SOL    HW241764   3.430   8.458   0.973
 7693SOL     OW41765   2.655   2.729   7.730
 7693SOL    HW141766   2.673   2.826   7.721
 7693SOL    HW241767   2.613   2.711   7.819
 7694SOL     OW41768   3.418   6.901   6.219
 7694SOL    HW141769   3.509   6.935   6.195
 7694SOL    HW241770   3.349   6.970   6.197
 7695SOL     OW41771   6.322   0.062   2.006
 7695SOL    HW141772   6.326   0.162   2.016
 7695SOL    HW241773   6.258   0.024   2.073
 7696SOL     OW41774   9.059   4.949   8.362
 7696SOL    HW141775   9.094   5.022   8.302
 7696SOL    HW241776   9.122   4.936   8.438
 7697SOL     OW41777   8.933   5.564   8.262
 7697SOL    HW141778   8.962   5.477   8.224
 7697SOL    HW241779   8.835   5.576   8.247
 7698SOL     OW41780   1.054   1.984   6.807
 7698SOL    HW141781   1.133   1.953   6.754
 7698SOL    HW241782   1.084   2.007   6.899
 7699SOL     OW41783   4.322  10.318   7.657
 7699SOL    HW141784   4.287  10.229   7.629
 7699SOL    HW241785   4.355  10.368   7.578
 7700SOL     OW41786   7.253   3.376   6.244
 7700SOL    HW141787   7.200   3.327   6.175
 7700SOL    HW241788   7.241   3.474   6.232
 7701SOL     OW41789   2.818   9.722   8.187
 7701SOL    HW141790   2.786   9.715   8.093
 7701SOL    HW241791   2.782   9.806   8.229
 7702SOL     OW41792   2.968   6.587   0.208
 7702SOL    HW141793   3.051   6.619   0.162
 7702SOL    HW241794   2.895   6.654   0.196
 7703SOL     OW41795   3.323   2.644   8.357
 7703SOL    HW141796   3.282   2.662   8.268
 7703SOL    HW241797   3.422   2.638   8.347
 7704SOL     OW41798   2.746   4.742   7.161
 7704SOL    HW141799   2.783   4.657   7.199
 7704SOL    HW241800   2.646   4.740   7.165
 7705SOL     OW41801   3.927   3.756   7.456
 7705SOL    HW141802   3.918   3.772   7.358
 7705SOL    HW241803   4.004   3.808   7.492
 7706SOL     OW41804   0.014   8.425   2.085
 7706SOL    HW141805  10.109   8.456   2.157
 7706SOL    HW241806  10.124   8.361   2.025
 7707SOL     OW41807   8.111   8.848   1.546
 7707SOL    HW141808   8.052   8.856   1.626
 7707SOL    HW241809   8.132   8.939   1.510
 7708SOL     OW41810   9.659   4.574   1.464
 7708SOL    HW141811   9.669   4.674   1.470
 7708SOL    HW241812   9.630   4.538   1.552
 7709SOL     OW41813   0.024   6.722   8.075
 7709SOL    HW141814   0.023   6.791   8.148
 7709SOL    HW241815   0.096   6.745   8.010
 7710SOL     OW41816   8.308   9.000   0.851
 7710SOL    HW141817   8.327   8.946   0.769
 7710SOL    HW241818   8.389   9.056   0.873
 7711SOL     OW41819   6.965   8.348   7.214
 7711SOL    HW141820   7.026   8.337   7.292
 7711SOL    HW241821   6.892   8.412   7.238
 7712SOL     OW41822   2.897   5.029   1.281
 7712SOL    HW141823   2.909   5.107   1.220
 7712SOL    HW241824   2.815   4.978   1.255
 7713SOL     OW41825   5.851   8.130   6.657
 7713SOL    HW141826   5.872   8.055   6.720
 7713SOL    HW241827   5.931   8.148   6.599
 7714SOL     OW41828   1.759   2.947   7.382
 7714SOL    HW141829   1.796   2.916   7.294
 7714SOL    HW241830   1.736   2.867   7.438
 7715SOL     OW41831   4.576   4.516   2.385
 7715SOL    HW141832   4.634   4.573   2.443
 7715SOL    HW241833   4.534   4.573   2.314
 7716SOL     OW41834   7.322   0.110   0.061
 7716SOL    HW141835   7.414   0.150   0.068
 7716SOL    HW241836   7.284   0.096   0.152
 7717SOL     OW41837   4.775   4.401   7.604
 7717SOL    HW141838   4.769   4.394   7.703
 7717SOL    HW241839   4.848   4.342   7.570
 7718SOL     OW41840   0.841   3.592   7.962
 7718SOL    HW141841   0.766   3.652   7.935
 7718SOL    HW241842   0.896   3.570   7.882
 7719SOL     OW41843   2.788   9.210   0.296
 7719SOL    HW141844   2.828   9.143   0.357
 7719SOL    HW241845   2.845   9.220   0.214
 7720SOL     OW41846   8.905   1.236   7.371
 7720SOL    HW141847   8.887   1.221   7.468
 7720SOL    HW241848   8.952   1.323   7.358
 7721SOL     OW41849   5.846   8.965   7.442
 7721SOL    HW141850   5.901   9.049   7.440
 7721SOL    HW241851   5.896   8.892   7.395
 7722SOL     OW41852   8.407   5.318   8.037
 7722SOL    HW141853   8.308   5.316   8.022
 7722SOL    HW241854   8.429   5.263   8.117
 7723SOL     OW41855   3.530   5.279   1.383
 7723SOL    HW141856   3.533   5.191   1.337
 7723SOL    HW241857   3.450   5.331   1.352
 7724SOL     OW41858   3.781   8.987   6.485
 7724SOL    HW141859   3.826   8.992   6.396
 7724SOL    HW241860   3.742   9.075   6.508
 7725SOL     OW41861   7.013   8.671   7.286
 7725SOL    HW141862   6.939   8.613   7.249
 7725SOL    HW241863   6.986   8.706   7.376
 7726SOL     OW41864   4.372   2.262   7.745
 7726SOL    HW141865   4.427   2.314   7.810
 7726SOL    HW241866   4.408   2.169   7.738
 7727SOL     OW41867   9.947   2.758   0.224
 7727SOL    HW141868   9.945   2.771   0.125
 7727SOL    HW241869  10.038   2.781   0.259
 7728SOL     OW41870   2.381   6.064   0.642
 7728SOL    HW141871   2.368   6.077   0.543
 7728SOL    HW241872   2.359   6.149   0.690
 7729SOL     OW41873   9.099   7.194   8.190
 7729SOL    HW141874   9.060   7.172   8.101
 7729SOL    HW241875   9.026   7.223   8.252
 7730SOL     OW41876   7.676   7.061   1.427
 7730SOL    HW141877   7.708   7.139   1.481
 7730SOL    HW241878   7.733   6.981   1.448
 7731SOL     OW41879   1.356  10.240   7.532
 7731SOL    HW141880   1.327  10.252   7.627
 7731SOL    HW241881   1.285  10.189   7.482
 7732SOL     OW41882   5.742   7.357   7.430
 7732SOL    HW141883   5.826   7.349   7.377
 7732SOL    HW241884   5.671   7.400   7.374
 7733SOL     OW41885   2.313   5.465   7.178
 7733SOL    HW141886   2.384   5.457   7.108
 7733SOL    HW241887   2.234   5.512   7.140
 7734SOL     OW41888   7.923   3.208   8.746
 7734SOL    HW141889   8.007   3.262   8.753
 7734SOL    HW241890   7.911   3.175   8.652
 7735SOL     OW41891   7.464   4.653   0.424
 7735SOL    HW141892   7.393   4.590   0.393
 7735SOL    HW241893   7.535   4.661   0.355
 7736SOL     OW41894   1.381   8.337   0.173
 7736SOL    HW141895   1.373   8.260   0.236
 7736SOL    HW241896   1.451   8.317   0.105
 7737SOL     OW41897   7.497   8.210   6.738
 7737SOL    HW141898   7.574   8.220   6.801
 7737SOL    HW241899   7.413   8.197   6.790
 7738SOL     OW41900   3.829   1.685   8.701
 7738SOL    HW141901   3.850   1.651   0.011
 7738SOL    HW241902   3.819   1.784   8.704
 7739SOL     OW41903   6.826   6.306   8.341
 7739SOL    HW141904   6.760   6.232   8.329
 7739SOL    HW241905   6.914   6.267   8.368
 7740SOL     OW41906   2.033   0.966   8.454
 7740SOL    HW141907   2.049   0.968   8.355
 7740SOL    HW241908   2.027   0.872   8.485
 7741SOL     OW41909   4.076   1.366   6.372
 7741SOL    HW141910   4.131   1.322   6.301
 7741SOL    HW241911   3.995   1.311   6.391
 7742SOL     OW41912   5.308   6.144   8.174
 7742SOL    HW141913   5.314   6.137   8.274
 7742SOL    HW241914   5.246   6.074   8.139
 7743SOL     OW41915   5.190   8.109   8.727
 7743SOL    HW141916   5.103   8.068   8.753
 7743SOL    HW241917   5.183   8.209   8.733
 7744SOL     OW41918   9.126   2.554   8.616
 7744SOL    HW141919   9.040   2.596   8.647
 7744SOL    HW241920   9.181   2.529   8.695
 7745SOL     OW41921   7.611  10.045   8.598
 7745SOL    HW141922   7.603  10.118   8.666
 7745SOL    HW241923   7.705  10.009   8.598
 7746SOL     OW41924   6.904   3.890   1.671
 7746SOL    HW141925   6.965   3.969   1.663
 7746SOL    HW241926   6.899   3.843   1.583
 7747SOL     OW41927   2.710   2.577   8.385
 7747SOL    HW141928   2.746   2.667   8.362
 7747SOL    HW241929   2.699   2.569   8.484
 7748SOL     OW41930   1.983   7.471   7.544
 7748SOL    HW141931   2.058   7.408   7.526
 7748SOL    HW241932   2.019   7.563   7.558
 7749SOL     OW41933   8.441   1.279   8.241
 7749SOL    HW141934   8.519   1.302   8.298
 7749SOL    HW241935   8.383   1.359   8.230
 7750SOL     OW41936   6.232   4.406   0.524
 7750SOL    HW141937   6.148   4.398   0.578
 7750SOL    HW241938   6.224   4.483   0.461
 7751SOL     OW41939   4.214   7.810   8.089
 7751SOL    HW141940   4.201   7.872   8.166
 7751SOL    HW241941   4.279   7.851   8.024
 7752SOL     OW41942   9.337   5.851   1.902
 7752SOL    HW141943   9.435   5.869   1.910
 7752SOL    HW241944   9.292   5.873   1.989
 7753SOL     OW41945   7.130   4.026   7.516
 7753SOL    HW141946   7.060   4.026   7.587
 7753SOL    HW241947   7.219   4.006   7.557
 7754SOL     OW41948   0.035   7.173   1.265
 7754SOL    HW141949  10.110   7.130   1.303
 7754SOL    HW241950   0.095   7.201   1.340
 7755SOL     OW41951   8.764   0.362   8.222
 7755SOL    HW141952   8.801   0.292   8.284
 7755SOL    HW241953   8.800   0.348   8.130
 7756SOL     OW41954   0.621   4.808   7.224
 7756SOL    HW141955   0.670   4.894   7.235
 7756SOL    HW241956   0.620   4.759   7.311
 7757SOL     OW41957   8.184   3.929   6.905
 7757SOL    HW141958   8.222   3.955   6.816
 7757SOL    HW241959   8.225   3.843   6.935
 7758SOL     OW41960   6.259   4.793   6.598
 7758SOL    HW141961   6.252   4.718   6.532
 7758SOL    HW241962   6.174   4.800   6.650
 7759SOL     OW41963   7.337   4.207   1.129
 7759SOL    HW141964   7.394   4.136   1.086
 7759SOL    HW241965   7.323   4.282   1.064
 7760SOL     OW41966   4.972   3.317   6.533
 7760SOL    HW141967   5.017   3.399   6.496
 7760SOL    HW241968   4.985   3.240   6.470
 7761SOL     OW41969   7.641   6.688   8.338
 7761SOL    HW141970   7.623   6.786   8.326
 7761SOL    HW241971   7.571   6.635   8.290
 7762SOL     OW41972   4.368   4.407   8.202
 7762SOL    HW141973   4.445   4.461   8.167
 7762SOL    HW241974   4.282   4.452   8.176
 7763SOL     OW41975   4.638   8.384   1.411
 7763SOL    HW141976   4.607   8.300   1.367
 7763SOL    HW241977   4.593   8.394   1.499
 7764SOL     OW41978   7.051   1.463   0.717
 7764SOL    HW141979   7.132   1.521   0.723
 7764SOL    HW241980   7.047   1.419   0.628
 7765SOL     OW41981   7.282   0.116   7.316
 7765SOL    HW141982   7.342   0.040   7.293
 7765SOL    HW241983   7.196   0.081   7.352
 7766SOL     OW41984   0.041   3.341   0.858
 7766SOL    HW141985   0.018   3.429   0.899
 7766SOL    HW241986   0.134   3.346   0.821
 7767SOL     OW41987   7.004   3.350   1.999
 7767SOL    HW141988   7.017   3.413   2.075
 7767SOL    HW241989   6.906   3.341   1.980
 7768SOL     OW41990   4.906   4.947   7.580
 7768SOL    HW141991   4.913   4.989   7.671
 7768SOL    HW241992   4.877   4.852   7.589
 7769SOL     OW41993   0.852   5.213   7.163
 7769SOL    HW141994   0.833   5.139   7.227
 7769SOL    HW241995   0.813   5.298   7.198
 7770SOL     OW41996   5.542   2.747   0.751
 7770SOL    HW141997   5.522   2.649   0.752
 7770SOL    HW241998   5.461   2.797   0.722
 7771SOL     OW41999   9.904   9.663   6.990
 7771SOL    HW142000   9.819   9.707   7.021
 7771SOL    HW242001   9.976   9.732   6.983
 7772SOL     OW42002   5.942   5.912   6.680
 7772SOL    HW142003   5.928   5.826   6.729
 7772SOL    HW242004   5.855   5.961   6.673
 7773SOL     OW42005   3.933   7.291   2.365
 7773SOL    HW142006   4.011   7.309   2.426
 7773SOL    HW242007   3.906   7.195   2.374
 7774SOL     OW42008   3.485   4.129   6.781
 7774SOL    HW142009   3.505   4.089   6.870
 7774SOL    HW242010   3.570   4.153   6.735
 7775SOL     OW42011   0.334   1.403   0.336
 7775SOL    HW142012   0.361   1.479   0.276
 7775SOL    HW242013   0.243   1.372   0.311
 7776SOL     OW42014   3.812   6.263   7.166
 7776SOL    HW142015   3.805   6.333   7.238
 7776SOL    HW242016   3.732   6.203   7.170
 7777SOL     OW42017   6.957  10.123   6.616
 7777SOL    HW142018   6.968  10.028   6.586
 7777SOL    HW242019   6.871  10.160   6.579
 7778SOL     OW42020   7.951   0.306   0.333
 7778SOL    HW142021   8.022   0.244   0.364
 7778SOL    HW242022   7.864   0.256   0.324
 7779SOL     OW42023   1.851   2.070   8.374
 7779SOL    HW142024   1.847   2.158   8.420
 7779SOL    HW242025   1.868   2.083   8.277
 7780SOL     OW42026   8.580   4.564   8.391
 7780SOL    HW142027   8.486   4.595   8.380
 7780SOL    HW242028   8.639   4.613   8.326
 7781SOL     OW42029   4.922   6.913   7.109
 7781SOL    HW142030   4.914   6.994   7.052
 7781SOL    HW242031   4.844   6.852   7.093
 7782SOL     OW42032   2.829   1.313   2.167
 7782SOL    HW142033   2.813   1.391   2.228
 7782SOL    HW242034   2.911   1.264   2.197
 7783SOL     OW42035   8.401   5.728   7.206
 7783SOL    HW142036   8.354   5.797   7.151
 7783SOL    HW242037   8.497   5.754   7.216
 7784SOL     OW42038   9.335   8.736   0.434
 7784SOL    HW142039   9.365   8.664   0.496
 7784SOL    HW242040   9.340   8.825   0.481
 7785SOL     OW42041   0.192   9.021   8.623
 7785SOL    HW142042   0.220   9.045   8.716
 7785SOL    HW242043   0.250   9.069   8.558
 7786SOL     OW42044   6.071   3.267   1.065
 7786SOL    HW142045   6.057   3.350   1.119
 7786SOL    HW242046   5.998   3.258   0.997
 7787SOL     OW42047   4.913   7.501   8.386
 7787SOL    HW142048   4.992   7.459   8.341
 7787SOL    HW242049   4.829   7.456   8.356
 7788SOL     OW42050   1.974   1.811   0.168
 7788SOL    HW142051   1.948   1.887   0.228
 7788SOL    HW242052   2.044   1.756   0.212
 7789SOL     OW42053   3.104   4.852   1.879
 7789SOL    HW142054   3.143   4.902   1.956
 7789SOL    HW242055   3.044   4.913   1.827
 7790SOL     OW42056   2.296  10.243   7.820
 7790SOL    HW142057   2.346  10.293   7.891
 7790SOL    HW242058   2.360  10.189   7.766
 7791SOL     OW42059   5.763   4.001   1.752
 7791SOL    HW142060   5.748   3.962   1.662
 7791SOL    HW242061   5.847   4.056   1.751
 7792SOL     OW42062   8.710   9.021   0.548
 7792SOL    HW142063   8.626   8.992   0.503
 7792SOL    HW242064   8.761   9.082   0.488
 7793SOL     OW42065   1.618   4.764   1.564
 7793SOL    HW142066   1.593   4.834   1.631
 7793SOL    HW242067   1.536   4.732   1.517
 7794SOL     OW42068   3.424   6.964   0.477
 7794SOL    HW142069   3.415   6.910   0.560
 7794SOL    HW242070   3.510   7.014   0.478
 7795SOL     OW42071   0.669   8.770   1.028
 7795SOL    HW142072   0.657   8.823   0.944
 7795SOL    HW242073   0.666   8.831   1.107
 7796SOL     OW42074   1.562  10.035   7.582
 7796SOL    HW142075   1.497  10.109   7.566
 7796SOL    HW242076   1.554   9.967   7.509
 7797SOL     OW42077   8.746   1.861   7.546
 7797SOL    HW142078   8.819   1.898   7.488
 7797SOL    HW242079   8.784   1.790   7.606
 7798SOL     OW42080   9.175  10.256   8.247
 7798SOL    HW142081   9.175  10.313   8.329
 7798SOL    HW242082   9.100  10.283   8.186
 7799SOL     OW42083   9.694  10.296   0.170
 7799SOL    HW142084   9.744  10.210   0.183
 7799SOL    HW242085   9.615  10.297   0.231
 7800SOL     OW42086   4.058   4.745   7.163
 7800SOL    HW142087   4.089   4.791   7.080
 7800SOL    HW242088   4.125   4.676   7.190
 7801SOL     OW42089   5.787   0.737   0.788
 7801SOL    HW142090   5.732   0.800   0.734
 7801SOL    HW242091   5.778   0.759   0.885
 7802SOL     OW42092   2.795   4.650   6.790
 7802SOL    HW142093   2.766   4.633   6.885
 7802SOL    HW242094   2.744   4.590   6.728
 7803SOL     OW42095   3.634   5.914   1.505
 7803SOL    HW142096   3.644   5.815   1.501
 7803SOL    HW242097   3.608   5.942   1.597
 7804SOL     OW42098   4.587   9.842   7.334
 7804SOL    HW142099   4.646   9.798   7.267
 7804SOL    HW242100   4.618   9.818   7.426
 7805SOL     OW42101   1.735   9.016   8.210
 7805SOL    HW142102   1.690   8.943   8.157
 7805SOL    HW242103   1.670   9.091   8.225
 7806SOL     OW42104   8.689   8.739   7.314
 7806SOL    HW142105   8.665   8.733   7.217
 7806SOL    HW242106   8.789   8.740   7.324
 7807SOL     OW42107   7.168   7.302   1.924
 7807SOL    HW142108   7.217   7.276   2.008
 7807SOL    HW242109   7.076   7.332   1.947
 7808SOL     OW42110   6.450   4.083   1.031
 7808SOL    HW142111   6.537   4.035   1.044
 7808SOL    HW242112   6.442   4.112   0.936
 7809SOL     OW42113   7.092   2.610   8.183
 7809SOL    HW142114   7.058   2.519   8.158
 7809SOL    HW242115   7.058   2.677   8.117
 7810SOL     OW42116   0.624   7.724   1.374
 7810SOL    HW142117   0.704   7.671   1.346
 7810SOL    HW242118   0.565   7.668   1.432
 7811SOL     OW42119   6.904   8.729   1.375
 7811SOL    HW142120   6.848   8.651   1.347
 7811SOL    HW242121   6.883   8.808   1.317
 7812SOL     OW42122   9.607   2.903   0.716
 7812SOL    HW142123   9.640   2.846   0.791
 7812SOL    HW242124   9.522   2.865   0.679
 7813SOL     OW42125   0.427   7.013   1.858
 7813SOL    HW142126   0.447   7.100   1.904
 7813SOL    HW242127   0.339   6.978   1.889
 7814SOL     OW42128   9.632   1.991   2.245
 7814SOL    HW142129   9.546   1.963   2.202
 7814SOL    HW242130   9.691   1.912   2.257
 7815SOL     OW42131   9.725   3.129   1.041
 7815SOL    HW142132   9.788   3.113   0.964
 7815SOL    HW242133   9.765   3.093   1.125
 7816SOL     OW42134   6.182   6.608   6.354
 7816SOL    HW142135   6.257   6.635   6.414
 7816SOL    HW242136   6.122   6.544   6.402
 7817SOL     OW42137   3.892   4.850   1.731
 7817SOL    HW142138   3.911   4.782   1.661
 7817SOL    HW242139   3.815   4.906   1.703
 7818SOL     OW42140   6.495   5.049   1.435
 7818SOL    HW142141   6.504   4.982   1.361
 7818SOL    HW242142   6.462   5.135   1.399
 7819SOL     OW42143   0.639   9.669   7.310
 7819SOL    HW142144   0.721   9.631   7.352
 7819SOL    HW242145   0.617   9.757   7.352
 7820SOL     OW42146   2.941   3.810   7.278
 7820SOL    HW142147   3.015   3.768   7.226
 7820SOL    HW242148   2.980   3.861   7.355
 7821SOL     OW42149  10.009   0.689   1.350
 7821SOL    HW142150   9.985   0.598   1.316
 7821SOL    HW242151   9.942   0.756   1.317
 7822SOL     OW42152  10.028   5.525   8.335
 7822SOL    HW142153  10.004   5.576   8.253
 7822SOL    HW242154  10.116   5.557   8.370
 7823SOL     OW42155   3.725   1.742   7.409
 7823SOL    HW142156   3.694   1.785   7.325
 7823SOL    HW242157   3.810   1.691   7.392
 7824SOL     OW42158   2.519  10.475   0.086
 7824SOL    HW142159   2.554  10.454   0.177
 7824SOL    HW242160   2.517   0.072   0.073
 7825SOL     OW42161   5.699   1.319   6.448
 7825SOL    HW142162   5.642   1.287   6.373
 7825SOL    HW242163   5.794   1.327   6.417
 7826SOL     OW42164   7.587   9.590   0.054
 7826SOL    HW142165   7.669   9.539   0.030
 7826SOL    HW242166   7.520   9.584   8.761
 7827SOL     OW42167   1.760   3.526   8.446
 7827SOL    HW142168   1.818   3.477   8.382
 7827SOL    HW242169   1.741   3.468   8.525
 7828SOL     OW42170   3.914   5.329   1.991
 7828SOL    HW142171   3.867   5.410   1.957
 7828SOL    HW242172   3.848   5.265   2.028
 7829SOL     OW42173   9.025   1.655   7.923
 7829SOL    HW142174   8.969   1.724   7.967
 7829SOL    HW242175   9.121   1.683   7.925
 7830SOL     OW42176   5.676   9.803   0.487
 7830SOL    HW142177   5.717   9.712   0.478
 7830SOL    HW242178   5.600   9.799   0.552
 7831SOL     OW42179   6.775   7.645   0.085
 7831SOL    HW142180   6.686   7.643   0.131
 7831SOL    HW242181   6.790   7.736   0.046
 7832SOL     OW42182   5.939   2.596   0.168
 7832SOL    HW142183   5.907   2.665   0.233
 7832SOL    HW242184   5.924   2.628   0.075
 7833SOL     OW42185   5.751   6.908   7.211
 7833SOL    HW142186   5.773   6.905   7.309
 7833SOL    HW242187   5.686   6.835   7.190
 7834SOL     OW42188   5.246   6.435   1.494
 7834SOL    HW142189   5.312   6.372   1.535
 7834SOL    HW242190   5.293   6.520   1.470
 7835SOL     OW42191   2.083   6.102   8.562
 7835SOL    HW142192   2.112   6.012   8.528
 7835SOL    HW242193   2.019   6.143   8.497
 7836SOL     OW42194   3.358   8.141   1.043
 7836SOL    HW142195   3.360   8.050   1.002
 7836SOL    HW242196   3.427   8.199   0.999
 7837SOL     OW42197   0.692   9.122   8.058
 7837SOL    HW142198   0.708   9.113   7.960
 7837SOL    HW242199   0.762   9.181   8.098
 7838SOL     OW42200   3.129   4.949   1.404
 7838SOL    HW142201   3.162   5.040   1.430
 7838SOL    HW242202   3.038   4.957   1.363
 7839SOL     OW42203   4.765   7.291   7.842
 7839SOL    HW142204   4.805   7.306   7.933
 7839SOL    HW242205   4.668   7.315   7.844
 7840SOL     OW42206   9.431   0.797   6.224
 7840SOL    HW142207   9.531   0.787   6.233
 7840SOL    HW242208   9.409   0.890   6.198
 7841SOL     OW42209   3.706   9.356   8.565
 7841SOL    HW142210   3.665   9.410   8.639
 7841SOL    HW242211   3.766   9.286   8.603
 7842SOL     OW42212   7.707   2.581   6.947
 7842SOL    HW142213   7.627   2.581   7.008
 7842SOL    HW242214   7.696   2.652   6.878
 7843SOL     OW42215   8.166   1.071   7.642
 7843SOL    HW142216   8.160   1.016   7.726
 7843SOL    HW242217   8.113   1.026   7.569
 7844SOL     OW42218   3.775   5.378   6.336
 7844SOL    HW142219   3.725   5.347   6.256
 7844SOL    HW242220   3.873   5.364   6.322
 7845SOL     OW42221   4.398   3.866   6.190
 7845SOL    HW142222   4.430   3.798   6.125
 7845SOL    HW242223   4.465   3.940   6.198
 7846SOL     OW42224   9.430   8.833   0.795
 7846SOL    HW142225   9.418   8.738   0.823
 7846SOL    HW242226   9.527   8.851   0.776
 7847SOL     OW42227   2.938   3.509   7.060
 7847SOL    HW142228   3.014   3.562   7.098
 7847SOL    HW242229   2.958   3.411   7.071
 7848SOL     OW42230   4.166   2.500   7.651
 7848SOL    HW142231   4.222   2.583   7.656
 7848SOL    HW242232   4.206   2.437   7.585
 7849SOL     OW42233   0.117   9.042   2.189
 7849SOL    HW142234   0.086   8.954   2.153
 7849SOL    HW242235   0.072   9.059   2.277
 7850SOL     OW42236   6.017   2.280   7.138
 7850SOL    HW142237   6.101   2.230   7.121
 7850SOL    HW242238   6.026   2.374   7.104
 7851SOL     OW42239   9.411   6.532   0.628
 7851SOL    HW142240   9.486   6.553   0.565
 7851SOL    HW242241   9.375   6.616   0.667
 7852SOL     OW42242   6.836   9.841   6.765
 7852SOL    HW142243   6.868   9.844   6.670
 7852SOL    HW242244   6.838   9.746   6.797
 7853SOL     OW42245   6.337   0.510   6.971
 7853SOL    HW142246   6.379   0.505   6.881
 7853SOL    HW242247   6.255   0.453   6.973
 7854SOL     OW42248   1.194   2.754   6.938
 7854SOL    HW142249   1.275   2.715   6.894
 7854SOL    HW242250   1.114   2.738   6.880
 7855SOL     OW42251   5.373   8.708   8.349
 7855SOL    HW142252   5.404   8.634   8.408
 7855SOL    HW242253   5.333   8.670   8.265
 7856SOL     OW42254   7.158   0.780   1.687
 7856SOL    HW142255   7.145   0.846   1.761
 7856SOL    HW242256   7.182   0.829   1.603
 7857SOL     OW42257   9.117   1.970   7.650
 7857SOL    HW142258   9.050   2.045   7.652
 7857SOL    HW242259   9.178   1.978   7.728
 7858SOL     OW42260   5.076   4.129   7.872
 7858SOL    HW142261   5.134   4.107   7.950
 7858SOL    HW242262   5.008   4.056   7.859
 7859SOL     OW42263   0.579   1.919   7.752
 7859SOL    HW142264   0.504   1.902   7.817
 7859SOL    HW242265   0.639   1.840   7.748
 7860SOL     OW42266   6.509   2.421   7.981
 7860SOL    HW142267   6.553   2.338   7.946
 7860SOL    HW242268   6.452   2.461   7.910
 7861SOL     OW42269   5.694   7.085   0.063
 7861SOL    HW142270   5.732   7.117   0.150
 7861SOL    HW242271   5.679   6.987   0.068
 7862SOL     OW42272   9.648   1.483   7.758
 7862SOL    HW142273   9.686   1.504   7.848
 7862SOL    HW242274   9.622   1.387   7.754
 7863SOL     OW42275   1.022   6.234   0.627
 7863SOL    HW142276   0.975   6.316   0.595
 7863SOL    HW242277   0.977   6.153   0.588
 7864SOL     OW42278   1.730   7.051   1.758
 7864SOL    HW142279   1.646   7.043   1.705
 7864SOL    HW242280   1.709   7.040   1.856
 7865SOL     OW42281   3.408   9.651   8.008
 7865SOL    HW142282   3.419   9.595   7.926
 7865SOL    HW242283   3.343   9.609   8.070
 7866SOL     OW42284   3.714   6.222   0.333
 7866SOL    HW142285   3.695   6.249   0.239
 7866SOL    HW242286   3.777   6.288   0.374
 7867SOL     OW42287   5.026   4.405   7.871
 7867SOL    HW142288   5.053   4.310   7.861
 7867SOL    HW242289   4.927   4.412   7.880
 7868SOL     OW42290   6.165   3.164   7.955
 7868SOL    HW142291   6.207   3.254   7.958
 7868SOL    HW242292   6.201   3.113   7.877
 7869SOL     OW42293   4.481   2.318   1.049
 7869SOL    HW142294   4.522   2.382   1.115
 7869SOL    HW242295   4.553   2.281   0.990
 7870SOL     OW42296   1.076   0.435   1.956
 7870SOL    HW142297   1.127   0.427   1.870
 7870SOL    HW242298   1.120   0.503   2.014
 7871SOL     OW42299   0.860   1.397   1.429
 7871SOL    HW142300   0.855   1.297   1.432
 7871SOL    HW242301   0.803   1.431   1.355
 7872SOL     OW42302   9.252   4.008   0.611
 7872SOL    HW142303   9.320   3.997   0.684
 7872SOL    HW242304   9.298   4.000   0.522
 7873SOL     OW42305   7.621  10.401   7.052
 7873SOL    HW142306   7.702  10.453   7.024
 7873SOL    HW242307   7.647  10.306   7.070
 7874SOL     OW42308   5.044  10.460   7.362
 7874SOL    HW142309   5.079  10.368   7.347
 7874SOL    HW242310   5.120   0.020   7.377
 7875SOL     OW42311   3.562   5.616   0.778
 7875SOL    HW142312   3.558   5.681   0.854
 7875SOL    HW242313   3.573   5.665   0.692
 7876SOL     OW42314   0.252   2.441   8.046
 7876SOL    HW142315   0.200   2.406   7.967
 7876SOL    HW242316   0.277   2.536   8.030
 7877SOL     OW42317   3.899  10.443   0.893
 7877SOL    HW142318   3.953  10.363   0.918
 7877SOL    HW242319   3.957   0.007   0.847
 7878SOL     OW42320   2.309   5.243   7.341
 7878SOL    HW142321   2.307   5.330   7.292
 7878SOL    HW242322   2.260   5.173   7.289
 7879SOL     OW42323   0.239   6.991   1.529
 7879SOL    HW142324   0.336   6.990   1.553
 7879SOL    HW242325   0.228   6.958   1.435
 7880SOL     OW42326   7.412   6.598   7.983
 7880SOL    HW142327   7.430   6.563   8.075
 7880SOL    HW242328   7.484   6.565   7.921
 7881SOL     OW42329   1.857   5.338   0.564
 7881SOL    HW142330   1.878   5.364   0.470
 7881SOL    HW242331   1.936   5.358   0.623
 7882SOL     OW42332   5.818   9.581   0.087
 7882SOL    HW142333   5.727   9.623   0.090
 7882SOL    HW242334   5.826   9.515   0.161
 7883SOL     OW42335   0.295   7.317   2.205
 7883SOL    HW142336   0.278   7.235   2.258
 7883SOL    HW242337   0.323   7.392   2.266
 7884SOL     OW42338   5.268   6.527   8.511
 7884SOL    HW142339   5.333   6.462   8.549
 7884SOL    HW242340   5.277   6.529   8.412
 7885SOL     OW42341   0.256   2.834   6.734
 7885SOL    HW142342   0.290   2.755   6.682
 7885SOL    HW242343   0.325   2.906   6.733
 7886SOL     OW42344   0.194   7.671   2.370
 7886SOL    HW142345   0.118   7.735   2.382
 7886SOL    HW242346   0.177   7.588   2.424
 7887SOL     OW42347   2.156   7.500   7.838
 7887SOL    HW142348   2.073   7.554   7.827
 7887SOL    HW242349   2.147   7.440   7.917
 7888SOL     OW42350   9.411   5.524   6.766
 7888SOL    HW142351   9.404   5.464   6.846
 7888SOL    HW242352   9.366   5.611   6.786
 7889SOL     OW42353   5.756   9.530   0.509
 7889SOL    HW142354   5.836   9.530   0.568
 7889SOL    HW242355   5.776   9.480   0.425
 7890SOL     OW42356   8.385   8.536   1.742
 7890SOL    HW142357   8.355   8.575   1.829
 7890SOL    HW242358   8.307   8.496   1.694
 7891SOL     OW42359   7.599   8.935   0.865
 7891SOL    HW142360   7.619   9.017   0.919
 7891SOL    HW242361   7.541   8.874   0.919
 7892SOL     OW42362   2.554   1.745   1.575
 7892SOL    HW142363   2.602   1.744   1.488
 7892SOL    HW242364   2.609   1.792   1.644
 7893SOL     OW42365   0.878   1.897   1.014
 7893SOL    HW142366   0.891   1.827   0.944
 7893SOL    HW242367   0.861   1.853   1.102
 7894SOL     OW42368   9.621   4.445   8.621
 7894SOL    HW142369   9.573   4.357   8.621
 7894SOL    HW242370   9.559   4.517   8.589
 7895SOL     OW42371   1.387   3.125   8.090
 7895SOL    HW142372   1.401   3.172   8.003
 7895SOL    HW242373   1.404   3.189   8.165
 7896SOL     OW42374   0.900   7.799   7.018
 7896SOL    HW142375   0.972   7.763   7.077
 7896SOL    HW242376   0.924   7.783   6.922
 7897SOL     OW42377   8.235   8.546   0.167
 7897SOL    HW142378   8.333   8.568   0.167
 7897SOL    HW242379   8.212   8.496   0.250
 7898SOL     OW42380   3.756   1.561   8.057
 7898SOL    HW142381   3.702   1.643   8.076
 7898SOL    HW242382   3.695   1.489   8.024
 7899SOL     OW42383   0.236   5.245   2.133
 7899SOL    HW142384   0.183   5.328   2.114
 7899SOL    HW242385   0.176   5.177   2.175
 7900SOL     OW42386   3.225   9.457   0.294
 7900SOL    HW142387   3.203   9.359   0.294
 7900SOL    HW242388   3.176   9.502   0.369
 7901SOL     OW42389   2.028   2.625   6.862
 7901SOL    HW142390   1.953   2.691   6.863
 7901SOL    HW242391   2.104   2.659   6.917
 7902SOL     OW42392   2.330   2.708   0.201
 7902SOL    HW142393   2.358   2.613   0.182
 7902SOL    HW242394   2.372   2.738   0.286
 7903SOL     OW42395   4.811   9.384   0.142
 7903SOL    HW142396   4.874   9.446   0.095
 7903SOL    HW242397   4.721   9.426   0.148
 7904SOL     OW42398   9.077   3.011   0.481
 7904SOL    HW142399   9.164   3.011   0.431
 7904SOL    HW242400   9.041   3.104   0.486
 7905SOL     OW42401   7.822   1.919   6.364
 7905SOL    HW142402   7.896   1.874   6.414
 7905SOL    HW242403   7.860   1.966   6.284
 7906SOL     OW42404   1.766   2.434   2.195
 7906SOL    HW142405   1.707   2.476   2.264
 7906SOL    HW242406   1.862   2.455   2.215
 7907SOL     OW42407   1.993   5.454   7.705
 7907SOL    HW142408   1.962   5.420   7.793
 7907SOL    HW242409   2.028   5.547   7.715
 7908SOL     OW42410   5.488   3.205   8.657
 7908SOL    HW142411   5.453   3.279   8.599
 7908SOL    HW242412   5.415   3.170   8.715
 7909SOL     OW42413   8.685   2.770   7.361
 7909SOL    HW142414   8.664   2.866   7.346
 7909SOL    HW242415   8.615   2.713   7.317
 7910SOL     OW42416   7.689   6.686   0.019
 7910SOL    HW142417   7.631   6.675   8.721
 7910SOL    HW242418   7.700   6.598   0.065
 7911SOL     OW42419   0.863   5.658   6.055
 7911SOL    HW142420   0.883   5.620   5.965
 7911SOL    HW242421   0.794   5.601   6.101
 7912SOL     OW42422   5.243   3.017   8.287
 7912SOL    HW142423   5.343   3.012   8.275
 7912SOL    HW242424   5.208   3.094   8.233
 7913SOL     OW42425   6.354   7.711   0.873
 7913SOL    HW142426   6.262   7.706   0.834
 7913SOL    HW242427   6.410   7.773   0.817
 7914SOL     OW42428   6.541   6.257   8.549
 7914SOL    HW142429   6.574   6.210   8.468
 7914SOL    HW242430   6.487   6.337   8.522
 7915SOL     OW42431   6.426   3.222   8.379
 7915SOL    HW142432   6.446   3.218   8.281
 7915SOL    HW242433   6.329   3.204   8.394
 7916SOL     OW42434   9.670   7.429   0.374
 7916SOL    HW142435   9.732   7.357   0.406
 7916SOL    HW242436   9.647   7.412   0.277
 7917SOL     OW42437   1.213   8.120   7.431
 7917SOL    HW142438   1.275   8.045   7.409
 7917SOL    HW242439   1.123   8.083   7.454
 7918SOL     OW42440   0.826   9.536   6.673
 7918SOL    HW142441   0.863   9.629   6.670
 7918SOL    HW242442   0.855   9.486   6.592
 7919SOL     OW42443   2.064   6.668   2.073
 7919SOL    HW142444   2.137   6.725   2.111
 7919SOL    HW242445   2.029   6.607   2.144
 7920SOL     OW42446   1.105   1.810   7.236
 7920SOL    HW142447   1.019   1.818   7.286
 7920SOL    HW242448   1.116   1.717   7.202
 7921SOL     OW42449   7.345   4.900   7.076
 7921SOL    HW142450   7.305   4.813   7.048
 7921SOL    HW242451   7.324   4.970   7.007
 7922SOL     OW42452   4.559   4.332   2.016
 7922SOL    HW142453   4.585   4.299   2.107
 7922SOL    HW242454   4.635   4.319   1.952
 7923SOL     OW42455   8.760   0.163   1.572
 7923SOL    HW142456   8.731   0.241   1.627
 7923SOL    HW242457   8.679   0.115   1.537
 7924SOL     OW42458   0.536   1.451   7.051
 7924SOL    HW142459   0.593   1.374   7.079
 7924SOL    HW242460   0.570   1.488   6.964
 7925SOL     OW42461   2.182   5.178   8.767
 7925SOL    HW142462   2.192   5.274   8.741
 7925SOL    HW242463   2.167   5.123   8.684
 7926SOL     OW42464   5.972   2.900   0.959
 7926SOL    HW142465   5.926   2.936   1.040
 7926SOL    HW242466   5.904   2.882   0.888
 7927SOL     OW42467   4.379   9.271   6.958
 7927SOL    HW142468   4.335   9.357   6.932
 7927SOL    HW242469   4.319   9.194   6.934
 7928SOL     OW42470   0.498   8.983   7.815
 7928SOL    HW142471   0.481   8.907   7.753
 7928SOL    HW242472   0.595   9.007   7.813
 7929SOL     OW42473   6.360   5.442   1.618
 7929SOL    HW142474   6.275   5.495   1.615
 7929SOL    HW242475   6.360   5.383   1.698
 7930SOL     OW42476   6.945   4.515   0.952
 7930SOL    HW142477   6.863   4.541   1.001
 7930SOL    HW242478   6.951   4.568   0.866
 7931SOL     OW42479   4.496   7.772   8.433
 7931SOL    HW142480   4.517   7.859   8.389
 7931SOL    HW242481   4.420   7.785   8.497
 7932SOL     OW42482   0.280   7.989   7.432
 7932SOL    HW142483   0.285   8.033   7.522
 7932SOL    HW242484   0.245   8.055   7.366
 7933SOL     OW42485   4.042   6.258   0.027
 7933SOL    HW142486   4.031   6.180   0.089
 7933SOL    HW242487   3.961   6.265   8.750
 7934SOL     OW42488   8.124   9.823   7.371
 7934SOL    HW142489   8.129   9.816   7.271
 7934SOL    HW242490   8.052   9.764   7.406
 7935SOL     OW42491   0.024   6.516   8.367
 7935SOL    HW142492  10.156   6.601   8.412
 7935SOL    HW242493  10.143   6.438   8.418
 7936SOL     OW42494   2.210   0.515   6.510
 7936SOL    HW142495   2.113   0.525   6.533
 7936SOL    HW242496   2.219   0.458   6.428
 7937SOL     OW42497   7.781   0.434   7.829
 7937SOL    HW142498   7.821   0.446   7.739
 7937SOL    HW242499   7.718   0.356   7.827
 7938SOL     OW42500   5.792   9.216   1.270
 7938SOL    HW142501   5.731   9.138   1.253
 7938SOL    HW242502   5.884   9.182   1.288
 7939SOL     OW42503   0.044   1.243   1.965
 7939SOL    HW142504   0.027   1.325   1.910
 7939SOL    HW242505  10.122   1.183   1.961
 7940SOL     OW42506   5.469   1.777   7.068
 7940SOL    HW142507   5.465   1.680   7.046
 7940SOL    HW242508   5.380   1.807   7.105
 7941SOL     OW42509   1.081   5.027   0.765
 7941SOL    HW142510   1.139   5.058   0.841
 7941SOL    HW242511   1.103   5.079   0.683
 7942SOL     OW42512   6.897   8.369   8.384
 7942SOL    HW142513   6.917   8.271   8.380
 7942SOL    HW242514   6.957   8.418   8.321
 7943SOL     OW42515   6.993   9.319   7.720
 7943SOL    HW142516   6.900   9.352   7.734
 7943SOL    HW242517   7.010   9.241   7.780
 7944SOL     OW42518   7.872   9.006   0.528
 7944SOL    HW142519   7.800   9.027   0.462
 7944SOL    HW242520   7.957   8.985   0.479
 7945SOL     OW42521   1.985   6.183   6.924
 7945SOL    HW142522   1.890   6.176   6.894
 7945SOL    HW242523   2.035   6.245   6.863
 7946SOL     OW42524   9.755   4.956   0.141
 7946SOL    HW142525   9.678   4.901   0.173
 7946SOL    HW242526   9.767   4.943   0.043
 7947SOL     OW42527   8.809   4.557   7.295
 7947SOL    HW142528   8.890   4.522   7.341
 7947SOL    HW242529   8.824   4.653   7.271
 7948SOL     OW42530   8.943   3.681   7.207
 7948SOL    HW142531   8.972   3.615   7.275
 7948SOL    HW242532   9.020   3.703   7.147
 7949SOL     OW42533   0.162   1.706   0.892
 7949SOL    HW142534   0.126   1.720   0.985
 7949SOL    HW242535   0.089   1.672   0.833
 7950SOL     OW42536   2.201   6.510   7.389
 7950SOL    HW142537   2.127   6.523   7.322
 7950SOL    HW242538   2.288   6.502   7.340
 7951SOL     OW42539   8.363   7.350   7.632
 7951SOL    HW142540   8.341   7.275   7.695
 7951SOL    HW242541   8.457   7.380   7.647
 7952SOL     OW42542   6.418   2.397   8.464
 7952SOL    HW142543   6.465   2.332   8.525
 7952SOL    HW242544   6.447   2.490   8.487
 7953SOL     OW42545   2.582   1.150   8.474
 7953SOL    HW142546   2.577   1.070   8.414
 7953SOL    HW242547   2.513   1.217   8.445
 7954SOL     OW42548   0.998   5.423   8.532
 7954SOL    HW142549   0.964   5.514   8.510
 7954SOL    HW242550   1.093   5.429   8.562
 7955SOL     OW42551   4.960   4.718   0.178
 7955SOL    HW142552   4.981   4.625   0.209
 7955SOL    HW242553   4.956   4.779   0.257
 7956SOL     OW42554   0.772   3.650   1.665
 7956SOL    HW142555   0.692   3.590   1.667
 7956SOL    HW242556   0.793   3.680   1.758
 7957SOL     OW42557   7.797   6.496   6.738
 7957SOL    HW142558   7.749   6.561   6.678
 7957SOL    HW242559   7.878   6.541   6.777
 7958SOL     OW42560   8.797   6.855   0.735
 7958SOL    HW142561   8.892   6.832   0.714
 7958SOL    HW242562   8.737   6.786   0.696
 7959SOL     OW42563   9.491  10.158   1.907
 7959SOL    HW142564   9.548  10.227   1.951
 7959SOL    HW242565   9.549  10.086   1.869
 7960SOL     OW42566   3.522   5.452   7.225
 7960SOL    HW142567   3.431   5.485   7.250
 7960SOL    HW242568   3.571   5.524   7.177
 7961SOL     OW42569   4.654   4.171   6.889
 7961SOL    HW142570   4.556   4.167   6.907
 7961SOL    HW242571   4.684   4.267   6.886
 7962SOL     OW42572   9.461   2.730   8.628
 7962SOL    HW142573   9.461   2.631   8.643
 7962SOL    HW242574   9.511   2.751   8.544
 7963SOL     OW42575   1.239   5.798   7.589
 7963SOL    HW142576   1.310   5.831   7.527
 7963SOL    HW242577   1.281   5.762   7.672
 7964SOL     OW42578   1.462   1.334   0.015
 7964SOL    HW142579   1.441   1.238   8.779
 7964SOL    HW242580   1.478   1.347   0.113
 7965SOL     OW42581   3.625   6.105   6.858
 7965SOL    HW142582   3.619   6.117   6.957
 7965SOL    HW242583   3.718   6.126   6.828
 7966SOL     OW42584   8.296   5.954   7.081
 7966SOL    HW142585   8.254   6.001   7.159
 7966SOL    HW242586   8.225   5.931   7.014
 7967SOL     OW42587   1.514   9.763   0.381
 7967SOL    HW142588   1.450   9.690   0.357
 7967SOL    HW242589   1.597   9.754   0.326
 7968SOL     OW42590   0.171   6.531   1.119
 7968SOL    HW142591   0.121   6.452   1.156
 7968SOL    HW242592   0.117   6.614   1.133
 7969SOL     OW42593   4.615   1.442   0.368
 7969SOL    HW142594   4.629   1.364   0.306
 7969SOL    HW242595   4.680   1.436   0.443
 7970SOL     OW42596   4.227   3.269   1.048
 7970SOL    HW142597   4.284   3.253   1.128
 7970SOL    HW242598   4.269   3.227   0.967
 7971SOL     OW42599   7.269   2.866   1.216
 7971SOL    HW142600   7.190   2.805   1.230
 7971SOL    HW242601   7.273   2.932   1.291
 7972SOL     OW42602   6.467   1.767   0.859
 7972SOL    HW142603   6.446   1.851   0.909
 7972SOL    HW242604   6.472   1.690   0.922
 7973SOL     OW42605   6.781   9.803   1.689
 7973SOL    HW142606   6.821   9.875   1.745
 7973SOL    HW242607   6.707   9.841   1.633
 7974SOL     OW42608   2.878   6.714   1.510
 7974SOL    HW142609   2.875   6.626   1.557
 7974SOL    HW242610   2.788   6.735   1.472
 7975SOL     OW42611   7.171   6.439   1.401
 7975SOL    HW142612   7.260   6.394   1.390
 7975SOL    HW242613   7.173   6.528   1.354
 7976SOL     OW42614   8.142   0.922   7.867
 7976SOL    HW142615   8.146   0.825   7.888
 7976SOL    HW242616   8.058   0.961   7.904
 7977SOL     OW42617   7.368   8.449   7.549
 7977SOL    HW142618   7.460   8.481   7.572
 7977SOL    HW242619   7.327   8.511   7.482
 7978SOL     OW42620   5.029   3.791   6.809
 7978SOL    HW142621   4.958   3.862   6.813
 7978SOL    HW242622   5.092   3.802   6.886
 7979SOL     OW42623   5.823   1.811   7.661
 7979SOL    HW142624   5.878   1.737   7.622
 7979SOL    HW242625   5.783   1.781   7.748
 7980SOL     OW42626   3.485   2.762   6.999
 7980SOL    HW142627   3.412   2.817   6.959
 7980SOL    HW242628   3.573   2.795   6.967
 7981SOL     OW42629   1.305   8.448   1.098
 7981SOL    HW142630   1.252   8.365   1.116
 7981SOL    HW242631   1.394   8.424   1.061
 7982SOL     OW42632   5.804   9.125   0.209
 7982SOL    HW142633   5.858   9.050   0.246
 7982SOL    HW242634   5.708   9.099   0.203
 7983SOL     OW42635   3.718   4.578   7.221
 7983SOL    HW142636   3.769   4.647   7.273
 7983SOL    HW242637   3.651   4.624   7.163
 7984SOL     OW42638   1.554   2.255   6.104
 7984SOL    HW142639   1.499   2.289   6.028
 7984SOL    HW242640   1.573   2.158   6.090
 7985SOL     OW42641   1.229   5.448   8.195
 7985SOL    HW142642   1.222   5.354   8.229
 7985SOL    HW242643   1.194   5.453   8.102
 7986SOL     OW42644   1.158   3.301   0.619
 7986SOL    HW142645   1.132   3.394   0.646
 7986SOL    HW242646   1.224   3.306   0.544
 7987SOL     OW42647   0.868   2.690   6.197
 7987SOL    HW142648   0.807   2.653   6.127
 7987SOL    HW242649   0.894   2.617   6.261
 7988SOL     OW42650   1.711   2.406   0.621
 7988SOL    HW142651   1.677   2.312   0.617
 7988SOL    HW242652   1.646   2.462   0.672
 7989SOL     OW42653   9.585   9.145   7.217
 7989SOL    HW142654   9.621   9.194   7.137
 7989SOL    HW242655   9.516   9.201   7.262
 7990SOL     OW42656   6.399  10.420   6.537
 7990SOL    HW142657   6.487  10.421   6.584
 7990SOL    HW242658   6.357   0.008   6.543
 7991SOL     OW42659   7.439  10.313   7.508
 7991SOL    HW142660   7.433  10.357   7.418
 7991SOL    HW242661   7.410  10.218   7.500
 7992SOL     OW42662   6.826   3.974   8.076
 7992SOL    HW142663   6.746   3.963   8.135
 7992SOL    HW242664   6.798   3.964   7.980
 7993SOL     OW42665   5.599   5.188   1.683
 7993SOL    HW142666   5.668   5.123   1.651
 7993SOL    HW242667   5.578   5.169   1.779
 7994SOL     OW42668   1.171   4.394   1.070
 7994SOL    HW142669   1.133   4.354   1.153
 7994SOL    HW242670   1.265   4.362   1.058
 7995SOL     OW42671   7.926   9.626   7.433
 7995SOL    HW142672   7.838   9.649   7.476
 7995SOL    HW242673   7.974   9.559   7.490
 7996SOL     OW42674   7.211   6.968   1.580
 7996SOL    HW142675   7.293   6.956   1.524
 7996SOL    HW242676   7.136   7.000   1.522
 7997SOL     OW42677   5.993   0.834   6.721
 7997SOL    HW142678   5.941   0.900   6.776
 7997SOL    HW242679   6.084   0.823   6.760
 7998SOL     OW42680   3.797   3.830   0.176
 7998SOL    HW142681   3.830   3.794   0.263
 7998SOL    HW242682   3.819   3.766   0.103
 7999SOL     OW42683   6.295   5.721   0.144
 7999SOL    HW142684   6.315   5.818   0.154
 7999SOL    HW242685   6.284   5.680   0.235
 8000SOL     OW42686   3.982   0.736   1.071
 8000SOL    HW142687   3.898   0.775   1.109
 8000SOL    HW242688   3.970   0.722   0.973
 8001SOL     OW42689   8.738   1.568   7.250
 8001SOL    HW142690   8.697   1.655   7.275
 8001SOL    HW242691   8.718   1.548   7.154
 8002SOL     OW42692   6.334   2.420   8.200
 8002SOL    HW142693   6.408   2.403   8.136
 8002SOL    HW242694   6.368   2.408   8.294
 8003SOL     OW42695   5.875   0.475   0.262
 8003SOL    HW142696   5.945   0.493   0.193
 8003SOL    HW242697   5.919   0.457   0.351
 8004SOL     OW42698   6.518   0.144   7.997
 8004SOL    HW142699   6.448   0.155   8.067
 8004SOL    HW242700   6.563   0.055   8.008
 8005SOL     OW42701   7.600   5.954   7.070
 8005SOL    HW142702   7.535   5.951   7.146
 8005SOL    HW242703   7.558   6.001   6.992
 8006SOL     OW42704   7.097   7.729   8.742
 8006SOL    HW142705   7.020   7.786   8.772
 8006SOL    HW242706   7.176   7.787   8.725
 8007SOL     OW42707   5.302   7.495   7.551
 8007SOL    HW142708   5.356   7.572   7.519
 8007SOL    HW242709   5.363   7.420   7.578
 8008SOL     OW42710   7.221   4.688   0.160
 8008SOL    HW142711   7.133   4.721   0.194
 8008SOL    HW242712   7.252   4.611   0.216
 8009SOL     OW42713   6.833   9.940   7.217
 8009SOL    HW142714   6.868   9.878   7.287
 8009SOL    HW242715   6.890   9.933   7.135
 8010SOL     OW42716   0.383   6.340   0.068
 8010SOL    HW142717   0.316   6.393   0.017
 8010SOL    HW242718   0.424   6.271   0.008
 8011SOL     OW42719   9.334   5.089   0.127
 8011SOL    HW142720   9.386   5.110   0.210
 8011SOL    HW242721   9.385   5.120   0.047
 8012SOL     OW42722   1.404   2.968   7.253
 8012SOL    HW142723   1.348   2.993   7.173
 8012SOL    HW242724   1.460   2.889   7.230
 8013SOL     OW42725   3.969   3.163   1.373
 8013SOL    HW142726   3.938   3.252   1.340
 8013SOL    HW242727   3.941   3.151   1.468
 8014SOL     OW42728   5.436   4.129   2.423
 8014SOL    HW142729   5.525   4.092   2.451
 8014SOL    HW242730   5.440   4.229   2.428
 8015SOL     OW42731   3.939   0.864   7.569
 8015SOL    HW142732   3.974   0.881   7.477
 8015SOL    HW242733   3.941   0.948   7.622
 8016SOL     OW42734   3.508   8.442   0.017
 8016SOL    HW142735   3.511   8.342   0.023
 8016SOL    HW242736   3.507   8.481   0.109
 8017SOL     OW42737   4.104   1.232   8.542
 8017SOL    HW142738   4.013   1.266   8.520
 8017SOL    HW242739   4.117   1.232   8.641
 8018SOL     OW42740   3.326   9.866   1.235
 8018SOL    HW142741   3.236   9.885   1.196
 8018SOL    HW242742   3.386   9.829   1.164
 8019SOL     OW42743   0.321   0.113   1.823
 8019SOL    HW142744   0.349   0.088   1.916
 8019SOL    HW242745   0.242   0.057   1.796
 8020SOL     OW42746   3.281  10.424   0.611
 8020SOL    HW142747   3.365  10.477   0.619
 8020SOL    HW242748   3.295  10.333   0.650
 8021SOL     OW42749   1.303  10.133   1.495
 8021SOL    HW142750   1.357  10.096   1.570
 8021SOL    HW242751   1.326  10.229   1.481
 8022SOL     OW42752   8.433   8.871   2.074
 8022SOL    HW142753   8.503   8.901   2.009
 8022SOL    HW242754   8.388   8.789   2.038
 8023SOL     OW42755   4.132   7.682   1.622
 8023SOL    HW142756   4.053   7.642   1.575
 8023SOL    HW242757   4.103   7.722   1.709
 8024SOL     OW42758   8.913   5.101   0.727
 8024SOL    HW142759   8.814   5.105   0.710
 8024SOL    HW242760   8.962   5.132   0.645
 8025SOL     OW42761   2.460   4.291   8.113
 8025SOL    HW142762   2.498   4.222   8.052
 8025SOL    HW242763   2.363   4.304   8.092
 8026SOL     OW42764   3.927   2.043   6.864
 8026SOL    HW142765   3.887   2.034   6.955
 8026SOL    HW242766   3.878   1.984   6.800
 8027SOL     OW42767   8.876   6.111   1.637
 8027SOL    HW142768   8.912   6.131   1.547
 8027SOL    HW242769   8.911   6.022   1.668
 8028SOL     OW42770   1.939   7.680   7.810
 8028SOL    HW142771   1.840   7.693   7.819
 8028SOL    HW242772   1.970   7.719   7.723
 8029SOL     OW42773   9.533   5.032   7.971
 8029SOL    HW142774   9.555   5.112   8.027
 8029SOL    HW242775   9.525   5.060   7.875
 8030SOL     OW42776   2.058   7.126   8.216
 8030SOL    HW142777   2.077   7.218   8.181
 8030SOL    HW242778   2.102   7.058   8.158
 8031SOL     OW42779   3.758   7.534   8.602
 8031SOL    HW142780   3.785   7.573   8.514
 8031SOL    HW242781   3.839   7.521   8.659
 8032SOL     OW42782   2.059   6.225   1.881
 8032SOL    HW142783   2.099   6.191   1.967
 8032SOL    HW242784   2.019   6.316   1.897
 8033SOL     OW42785   0.334   4.033   0.355
 8033SOL    HW142786   0.284   3.952   0.325
 8033SOL    HW242787   0.299   4.114   0.307
 8034SOL     OW42788   1.911   2.304   7.778
 8034SOL    HW142789   1.886   2.305   7.874
 8034SOL    HW242790   1.931   2.397   7.747
 8035SOL     OW42791   4.828   0.122   1.085
 8035SOL    HW142792   4.744   0.105   1.136
 8035SOL    HW242793   4.844   0.047   1.021
 8036SOL     OW42794   9.963   2.141   0.612
 8036SOL    HW142795   9.967   2.203   0.533
 8036SOL    HW242796   9.868   2.132   0.642
 8037SOL     OW42797   6.772   6.949   7.195
 8037SOL    HW142798   6.802   7.040   7.224
 8037SOL    HW242799   6.685   6.957   7.145
 8038SOL     OW42800   7.969   6.247   7.671
 8038SOL    HW142801   7.905   6.280   7.740
 8038SOL    HW242802   8.056   6.296   7.681
 8039SOL     OW42803   3.339   0.136   7.514
 8039SOL    HW142804   3.437   0.154   7.500
 8039SOL    HW242805   3.316   0.146   7.610
 8040SOL     OW42806   3.103   8.539   7.308
 8040SOL    HW142807   3.202   8.525   7.316
 8040SOL    HW242808   3.076   8.616   7.366
 8041SOL     OW42809   8.761   7.504   8.302
 8041SOL    HW142810   8.667   7.473   8.318
 8041SOL    HW242811   8.774   7.594   8.344
 8042SOL     OW42812   7.792  10.394   8.761
 8042SOL    HW142813   7.746  10.459   8.699
 8042SOL    HW242814   7.890  10.395   8.743
 8043SOL     OW42815   8.518   3.565   6.569
 8043SOL    HW142816   8.572   3.571   6.485
 8043SOL    HW242817   8.426   3.533   6.548
 8044SOL     OW42818   2.441   6.460   7.269
 8044SOL    HW142819   2.515   6.474   7.335
 8044SOL    HW242820   2.474   6.479   7.177
 8045SOL     OW42821   1.088   5.082   8.486
 8045SOL    HW142822   1.042   4.994   8.477
 8045SOL    HW242823   1.057   5.128   8.569
 8046SOL     OW42824   3.718   4.469   6.909
 8046SOL    HW142825   3.641   4.512   6.862
 8046SOL    HW242826   3.722   4.502   7.003
 8047SOL     OW42827   7.330   8.806   1.654
 8047SOL    HW142828   7.394   8.869   1.608
 8047SOL    HW242829   7.334   8.717   1.610
 8048SOL     OW42830   6.102   4.328   7.099
 8048SOL    HW142831   6.015   4.290   7.067
 8048SOL    HW242832   6.128   4.405   7.041
 8049SOL     OW42833   6.517   6.498   0.030
 8049SOL    HW142834   6.434   6.451   8.782
 8049SOL    HW242835   6.566   6.534   8.732
 8050SOL     OW42836  10.104   0.466   0.783
 8050SOL    HW142837   0.000   0.382   0.786
 8050SOL    HW242838  10.089   0.500   0.876
 8051SOL     OW42839   3.542   0.503   6.949
 8051SOL    HW142840   3.636   0.521   6.920
 8051SOL    HW242841   3.505   0.426   6.896
 8052SOL     OW42842   9.946   0.349   7.164
 8052SOL    HW142843   9.977   0.256   7.183
 8052SOL    HW242844   9.977   0.377   7.073
 8053SOL     OW42845   3.829   9.023   1.981
 8053SOL    HW142846   3.830   8.923   1.975
 8053SOL    HW242847   3.779   9.050   2.063
 8054SOL     OW42848   3.683  10.383   5.946
 8054SOL    HW142849   3.697  10.479   5.923
 8054SOL    HW242850   3.743  10.326   5.889
 8055SOL     OW42851   4.952   4.188   7.127
 8055SOL    HW142852   4.901   4.274   7.135
 8055SOL    HW242853   4.888   4.111   7.125
 8056SOL     OW42854   7.655   2.841   7.135
 8056SOL    HW142855   7.599   2.758   7.129
 8056SOL    HW242856   7.596   2.921   7.121
 8057SOL     OW42857   7.208   7.547   2.175
 8057SOL    HW142858   7.286   7.493   2.207
 8057SOL    HW242859   7.169   7.598   2.253
 8058SOL     OW42860   0.429   5.962   7.038
 8058SOL    HW142861   0.519   5.990   7.070
 8058SOL    HW242862   0.436   5.875   6.989
 8059SOL     OW42863   8.581   2.714   1.632
 8059SOL    HW142864   8.536   2.704   1.543
 8059SOL    HW242865   8.544   2.648   1.696
 8060SOL     OW42866   6.695   2.127   6.375
 8060SOL    HW142867   6.785   2.114   6.334
 8060SOL    HW242868   6.633   2.055   6.343
 8061SOL     OW42869   3.074  10.413   8.616
 8061SOL    HW142870   3.068  10.322   8.577
 8061SOL    HW242871   2.999  10.428   8.680
 8062SOL     OW42872   9.632   0.237   8.761
 8062SOL    HW142873   9.632   0.194   8.670
 8062SOL    HW242874   9.580   0.322   8.757
 8063SOL     OW42875   6.455   4.998   7.194
 8063SOL    HW142876   6.389   4.974   7.124
 8063SOL    HW242877   6.539   4.947   7.181
 8064SOL     OW42878   7.731   6.825   1.042
 8064SOL    HW142879   7.722   6.918   1.077
 8064SOL    HW242880   7.774   6.767   1.112
 8065SOL     OW42881   2.953   5.292   6.791
 8065SOL    HW142882   2.947   5.387   6.820
 8065SOL    HW242883   3.034   5.278   6.735
 8066SOL     OW42884   8.991   9.978   1.124
 8066SOL    HW142885   8.957   9.955   1.033
 8066SOL    HW242886   8.913   9.987   1.187
 8067SOL     OW42887   7.840   3.057   8.176
 8067SOL    HW142888   7.766   3.111   8.215
 8067SOL    HW242889   7.926   3.106   8.185
 8068SOL     OW42890   3.103   5.432   0.829
 8068SOL    HW142891   3.170   5.479   0.772
 8068SOL    HW242892   3.148   5.391   0.908
 8069SOL     OW42893   9.718   2.146   0.728
 8069SOL    HW142894   9.653   2.070   0.724
 8069SOL    HW242895   9.733   2.172   0.823
 8070SOL     OW42896   6.429   2.506   0.032
 8070SOL    HW142897   6.331   2.485   0.028
 8070SOL    HW242898   6.451   2.540   0.124
 8071SOL     OW42899   3.282   9.600   1.723
 8071SOL    HW142900   3.254   9.570   1.632
 8071SOL    HW242901   3.357   9.666   1.714
 8072SOL     OW42902   0.782   4.393   7.204
 8072SOL    HW142903   0.806   4.381   7.301
 8072SOL    HW242904   0.745   4.308   7.168
 8073SOL     OW42905   0.959   2.736   6.516
 8073SOL    HW142906   0.950   2.652   6.462
 8073SOL    HW242907   0.922   2.813   6.464
 8074SOL     OW42908   8.360   7.252   0.075
 8074SOL    HW142909   8.278   7.250   0.017
 8074SOL    HW242910   8.409   7.165   0.065
 8075SOL     OW42911   4.755   5.954   1.274
 8075SOL    HW142912   4.708   5.942   1.361
 8075SOL    HW242913   4.782   5.865   1.238
 8076SOL     OW42914   2.005   1.704   7.355
 8076SOL    HW142915   1.969   1.612   7.370
 8076SOL    HW242916   1.986   1.761   7.435
 8077SOL     OW42917   4.386   4.257   8.640
 8077SOL    HW142918   4.361   4.347   8.604
 8077SOL    HW242919   4.332   4.238   8.722
 8078SOL     OW42920   9.713   8.722   8.606
 8078SOL    HW142921   9.796   8.742   8.554
 8078SOL    HW242922   9.727   8.747   8.701
 8079SOL     OW42923   4.333   7.739   0.985
 8079SOL    HW142924   4.243   7.718   0.947
 8079SOL    HW242925   4.404   7.712   0.920
 8080SOL     OW42926   5.043   6.614   1.095
 8080SOL    HW142927   5.059   6.632   0.998
 8080SOL    HW242928   4.979   6.682   1.131
 8081SOL     OW42929   6.834   7.821   7.432
 8081SOL    HW142930   6.909   7.887   7.443
 8081SOL    HW242931   6.872   7.730   7.419
 8082SOL     OW42932   1.636   2.736   2.172
 8082SOL    HW142933   1.732   2.732   2.144
 8082SOL    HW242934   1.623   2.681   2.255
 8083SOL     OW42935   7.852   3.975   0.975
 8083SOL    HW142936   7.781   4.033   0.934
 8083SOL    HW242937   7.928   3.964   0.911
 8084SOL     OW42938   2.056   2.645   7.183
 8084SOL    HW142939   2.127   2.662   7.116
 8084SOL    HW242940   2.087   2.674   7.274
 8085SOL     OW42941   0.447   1.063   7.057
 8085SOL    HW142942   0.464   0.965   7.067
 8085SOL    HW242943   0.528   1.114   7.085
 8086SOL     OW42944   7.047   1.473   7.364
 8086SOL    HW142945   7.078   1.554   7.314
 8086SOL    HW242946   7.065   1.486   7.462
 8087SOL     OW42947   9.593   4.280   2.274
 8087SOL    HW142948   9.644   4.264   2.358
 8087SOL    HW242949   9.497   4.297   2.295
 8088SOL     OW42950   7.666  10.210   0.631
 8088SOL    HW142951   7.676  10.198   0.730
 8088SOL    HW242952   7.739  10.159   0.584
 8089SOL     OW42953   6.594   9.915   1.523
 8089SOL    HW142954   6.522   9.968   1.567
 8089SOL    HW242955   6.631   9.967   1.446
 8090SOL     OW42956   0.267   1.605   0.539
 8090SOL    HW142957   0.336   1.677   0.539
 8090SOL    HW242958   0.288   1.538   0.468
 8091SOL     OW42959   5.047   6.239   6.968
 8091SOL    HW142960   4.968   6.177   6.966
 8091SOL    HW242961   5.106   6.216   7.045
 8092SOL     OW42962   1.076   1.149   0.411
 8092SOL    HW142963   1.110   1.146   0.317
 8092SOL    HW242964   1.028   1.235   0.427
 8093SOL     OW42965   8.945   5.301   0.263
 8093SOL    HW142966   8.947   5.255   0.352
 8093SOL    HW242967   9.038   5.310   0.228
 8094SOL     OW42968   1.448   7.264   7.525
 8094SOL    HW142969   1.433   7.287   7.621
 8094SOL    HW242970   1.430   7.344   7.468
 8095SOL     OW42971   1.533   2.787   8.270
 8095SOL    HW142972   1.453   2.727   8.269
 8095SOL    HW242973   1.562   2.804   8.176
 8096SOL     OW42974   2.969   0.084   0.923
 8096SOL    HW142975   2.996   0.087   0.827
 8096SOL    HW242976   2.873   0.057   0.930
 8097SOL     OW42977   7.686   7.190   7.262
 8097SOL    HW142978   7.649   7.098   7.277
 8097SOL    HW242979   7.767   7.185   7.205
 8098SOL     OW42980   0.128   4.059   0.036
 8098SOL    HW142981   0.164   4.134   0.092
 8098SOL    HW242982   0.029   4.060   0.039
 8099SOL     OW42983   5.946   7.366   1.027
 8099SOL    HW142984   5.896   7.280   1.019
 8099SOL    HW242985   6.012   7.359   1.102
 8100SOL     OW42986   2.708   4.309   7.822
 8100SOL    HW142987   2.765   4.302   7.740
 8100SOL    HW242988   2.624   4.360   7.800
 8101SOL     OW42989   4.247   0.504   6.955
 8101SOL    HW142990   4.181   0.522   7.028
 8101SOL    HW242991   4.334   0.476   6.995
 8102SOL     OW42992   3.755   0.812   0.407
 8102SOL    HW142993   3.760   0.718   0.374
 8102SOL    HW242994   3.663   0.848   0.392
 8103SOL     OW42995   4.532   8.938   7.824
 8103SOL    HW142996   4.443   8.940   7.869
 8103SOL    HW242997   4.552   9.029   7.786
 8104SOL     OW42998   7.319   2.358   0.527
 8104SOL    HW142999   7.288   2.453   0.518
 8104SOL    HW243000   7.337   2.338   0.623
 8105SOL     OW43001   9.895   3.657   6.821
 8105SOL    HW143002   9.890   3.617   6.912
 8105SOL    HW243003   9.920   3.753   6.828
 8106SOL     OW43004   9.156   4.967   7.380
 8106SOL    HW143005   9.174   4.958   7.283
 8106SOL    HW243006   9.241   4.991   7.428
 8107SOL     OW43007   6.109   2.660   0.970
 8107SOL    HW143008   6.072   2.753   0.969
 8107SOL    HW243009   6.037   2.594   0.947
 8108SOL     OW43010   4.253   2.230   8.250
 8108SOL    HW143011   4.303   2.272   8.326
 8108SOL    HW243012   4.186   2.295   8.214
 8109SOL     OW43013   7.383   5.963   7.233
 8109SOL    HW143014   7.349   5.923   7.319
 8109SOL    HW243015   7.329   5.927   7.157
 8110SOL     OW43016   1.443   9.561   2.286
 8110SOL    HW143017   1.498   9.609   2.355
 8110SOL    HW243018   1.499   9.546   2.204
 8111SOL     OW43019   3.896   3.533   1.532
 8111SOL    HW143020   3.832   3.459   1.551
 8111SOL    HW243021   3.982   3.516   1.580
 8112SOL     OW43022   5.682   9.238   8.657
 8112SOL    HW143023   5.753   9.306   8.641
 8112SOL    HW243024   5.592   9.282   8.658
 8113SOL     OW43025   4.968   7.782   0.346
 8113SOL    HW143026   4.962   7.698   0.293
 8113SOL    HW243027   4.923   7.856   0.296
 8114SOL     OW43028   4.215   3.159   7.591
 8114SOL    HW143029   4.178   3.251   7.596
 8114SOL    HW243030   4.141   3.092   7.602
 8115SOL     OW43031   4.767   1.425   8.280
 8115SOL    HW143032   4.761   1.460   8.186
 8115SOL    HW243033   4.794   1.329   8.278
 8116SOL     OW43034   9.011   0.908   6.653
 8116SOL    HW143035   9.084   0.864   6.601
 8116SOL    HW243036   8.925   0.903   6.602
 8117SOL     OW43037   2.904   4.871   7.577
 8117SOL    HW143038   2.988   4.912   7.541
 8117SOL    HW243039   2.830   4.886   7.512
 8118SOL     OW43040   3.943   8.484   0.099
 8118SOL    HW143041   3.994   8.514   0.018
 8118SOL    HW243042   3.878   8.555   0.125
 8119SOL     OW43043   4.056   5.068   6.614
 8119SOL    HW143044   4.010   5.143   6.661
 8119SOL    HW243045   4.152   5.090   6.600
 8120SOL     OW43046   5.384   9.198   1.274
 8120SOL    HW143047   5.299   9.158   1.309
 8120SOL    HW243048   5.403   9.284   1.322
 8121SOL     OW43049   0.928   5.786   0.109
 8121SOL    HW143050   1.025   5.789   0.084
 8121SOL    HW243051   0.880   5.721   0.050
 8122SOL     OW43052   9.973   3.407   7.929
 8122SOL    HW143053   9.889   3.359   7.904
 8122SOL    HW243054   9.954   3.470   8.004
 8123SOL     OW43055   7.962   9.545   1.724
 8123SOL    HW143056   7.958   9.580   1.818
 8123SOL    HW243057   7.914   9.457   1.720
 8124SOL     OW43058   7.733   3.268   7.847
 8124SOL    HW143059   7.634   3.269   7.863
 8124SOL    HW243060   7.762   3.175   7.828
 8125SOL     OW43061   5.957   5.644   6.798
 8125SOL    HW143062   5.916   5.560   6.763
 8125SOL    HW243063   6.040   5.623   6.849
 8126SOL     OW43064   3.136   4.975   7.097
 8126SOL    HW143065   3.039   4.954   7.091
 8126SOL    HW243066   3.152   5.070   7.070
 8127SOL     OW43067   1.988   7.951   8.671
 8127SOL    HW143068   2.045   7.925   8.749
 8127SOL    HW243069   2.046   7.966   8.591
 8128SOL     OW43070   4.042  10.226   0.298
 8128SOL    HW143071   4.094  10.160   0.352
 8128SOL    HW243072   3.995  10.179   0.224
 8129SOL     OW43073  10.065  10.472   6.183
 8129SOL    HW143074  10.113   0.046   6.140
 8129SOL    HW243075   9.976  10.460   6.140
 8130SOL     OW43076   7.268   7.365   7.321
 8130SOL    HW143077   7.273   7.422   7.403
 8130SOL    HW243078   7.354   7.369   7.271
 8131SOL     OW43079   7.061   8.163   7.686
 8131SOL    HW143080   7.062   8.070   7.723
 8131SOL    HW243081   7.066   8.229   7.761
 8132SOL     OW43082   6.886   1.539   8.475
 8132SOL    HW143083   6.834   1.458   8.446
 8132SOL    HW243084   6.823   1.616   8.484
 8133SOL     OW43085   2.903   2.818   1.426
 8133SOL    HW143086   2.907   2.897   1.365
 8133SOL    HW243087   2.811   2.779   1.425
 8134SOL     OW43088   7.891   7.935   6.727
 8134SOL    HW143089   7.840   7.899   6.806
 8134SOL    HW243090   7.966   7.872   6.705
 8135SOL     OW43091   7.561   6.618   2.006
 8135SOL    HW143092   7.599   6.527   1.993
 8135SOL    HW243093   7.612   6.666   2.078
 8136SOL     OW43094   7.316   5.161   7.880
 8136SOL    HW143095   7.330   5.092   7.809
 8136SOL    HW243096   7.353   5.248   7.849
 8137SOL     OW43097   4.077   0.746   7.786
 8137SOL    HW143098   4.125   0.665   7.751
 8137SOL    HW243099   4.021   0.785   7.713
 8138SOL     OW43100   6.040   6.777   6.198
 8138SOL    HW143101   6.103   6.718   6.247
 8138SOL    HW243102   5.978   6.721   6.143
 8139SOL     OW43103   3.587   8.582   7.480
 8139SOL    HW143104   3.594   8.678   7.509
 8139SOL    HW243105   3.599   8.523   7.560
 8140SOL     OW43106   7.489   6.786   0.902
 8140SOL    HW143107   7.445   6.699   0.926
 8140SOL    HW243108   7.572   6.797   0.957
 8141SOL     OW43109   0.082   5.278   8.597
 8141SOL    HW143110   0.151   5.278   8.525
 8141SOL    HW243111   0.091   5.361   8.652
 8142SOL     OW43112   4.758   9.434   6.147
 8142SOL    HW143113   4.855   9.437   6.121
 8142SOL    HW243114   4.730   9.339   6.158
 8143SOL     OW43115   1.621   6.501   1.217
 8143SOL    HW143116   1.525   6.526   1.229
 8143SOL    HW243117   1.668   6.505   1.305
 8144SOL     OW43118   6.844   7.088   8.273
 8144SOL    HW143119   6.863   7.154   8.345
 8144SOL    HW243120   6.785   7.016   8.309
 8145SOL     OW43121   7.176   8.703   1.368
 8145SOL    HW143122   7.232   8.784   1.350
 8145SOL    HW243123   7.079   8.729   1.366
 8146SOL     OW43124   9.252   3.857   7.444
 8146SOL    HW143125   9.301   3.846   7.357
 8146SOL    HW243126   9.310   3.906   7.509
 8147SOL     OW43127   5.892   8.285   1.155
 8147SOL    HW143128   5.853   8.355   1.096
 8147SOL    HW243129   5.845   8.199   1.141
 8148SOL     OW43130   8.087   8.772   2.032
 8148SOL    HW143131   8.091   8.869   2.005
 8148SOL    HW243132   7.997   8.751   2.068
 8149SOL     OW43133   3.390   6.681   6.867
 8149SOL    HW143134   3.449   6.614   6.911
 8149SOL    HW243135   3.443   6.765   6.850
 8150SOL     OW43136   4.987   9.989   7.948
 8150SOL    HW143137   4.981   9.891   7.929
 8150SOL    HW243138   4.901  10.034   7.925
 8151SOL     OW43139   5.530   8.564   6.561
 8151SOL    HW143140   5.462   8.613   6.507
 8151SOL    HW243141   5.559   8.481   6.512
 8152SOL     OW43142   2.945   2.108   7.444
 8152SOL    HW143143   2.899   2.192   7.472
 8152SOL    HW243144   2.877   2.045   7.405
 8153SOL     OW43145   1.396   7.541   1.299
 8153SOL    HW143146   1.353   7.631   1.300
 8153SOL    HW243147   1.494   7.551   1.280
 8154SOL     OW43148   3.382   6.168   7.506
 8154SOL    HW143149   3.353   6.222   7.427
 8154SOL    HW243150   3.453   6.104   7.478
 8155SOL     OW43151   9.366   8.971   0.568
 8155SOL    HW143152   9.378   8.928   0.657
 8155SOL    HW243153   9.290   9.036   0.572
 8156SOL     OW43154   9.658   7.613   8.396
 8156SOL    HW143155   9.657   7.513   8.400
 8156SOL    HW243156   9.752   7.646   8.406
 8157SOL     OW43157   6.567   7.004   8.753
 8157SOL    HW143158   6.498   6.933   8.767
 8157SOL    HW243159   6.525   7.084   8.711
 8158SOL     OW43160   0.730   2.534   2.170
 8158SOL    HW143161   0.704   2.631   2.167
 8158SOL    HW243162   0.808   2.523   2.231
 8159SOL     OW43163   4.914   7.398   6.943
 8159SOL    HW143164   4.969   7.476   6.973
 8159SOL    HW243165   4.923   7.388   6.843
 8160SOL     OW43166   5.539   2.570   7.564
 8160SOL    HW143167   5.522   2.473   7.584
 8160SOL    HW243168   5.524   2.624   7.647
 8161SOL     OW43169   4.198   3.254   8.304
 8161SOL    HW143170   4.192   3.353   8.313
 8161SOL    HW243171   4.121   3.221   8.250
 8162SOL     OW43172   6.471   0.745   7.311
 8162SOL    HW143173   6.408   0.751   7.234
 8162SOL    HW243174   6.450   0.663   7.365
 8163SOL     OW43175   6.560   2.795   8.248
 8163SOL    HW143176   6.499   2.810   8.325
 8163SOL    HW243177   6.523   2.840   8.167
 8164SOL     OW43178   7.035  10.316   7.686
 8164SOL    HW143179   6.936  10.313   7.695
 8164SOL    HW243180   7.066  10.411   7.693
 8165SOL     OW43181   8.905   0.721   1.358
 8165SOL    HW143182   8.940   0.668   1.281
 8165SOL    HW243183   8.806   0.735   1.347
 8166SOL     OW43184   6.523   9.385   1.880
 8166SOL    HW143185   6.594   9.452   1.861
 8166SOL    HW243186   6.564   9.302   1.919
 8167SOL     OW43187  10.111   3.388   7.692
 8167SOL    HW143188  10.069   3.391   7.783
 8167SOL    HW243189  10.045   3.418   7.624
 8168SOL     OW43190   3.323   5.859   7.438
 8168SOL    HW143191   3.241   5.885   7.388
 8168SOL    HW243192   3.298   5.811   7.522
 8169SOL     OW43193   5.294   5.052   0.603
 8169SOL    HW143194   5.378   5.078   0.554
 8169SOL    HW243195   5.264   4.962   0.572
 8170SOL     OW43196  10.155   5.981   8.413
 8170SOL    HW143197  10.102   5.951   8.492
 8170SOL    HW243198  10.101   6.045   8.359
 8171SOL     OW43199   5.169   9.606   6.565
 8171SOL    HW143200   5.244   9.544   6.587
 8171SOL    HW243201   5.204   9.685   6.515
 8172SOL     OW43202   9.938   3.920   1.364
 8172SOL    HW143203   9.972   3.980   1.436
 8172SOL    HW243204   9.898   3.838   1.405
 8173SOL     OW43205   4.059   6.107   1.338
 8173SOL    HW143206   4.033   6.203   1.324
 8173SOL    HW243207   4.120   6.079   1.264
 8174SOL     OW43208   6.108   0.349   6.954
 8174SOL    HW143209   6.153   0.310   6.874
 8174SOL    HW243210   6.018   0.383   6.928
 8175SOL     OW43211   6.272   0.840   7.703
 8175SOL    HW143212   6.331   0.760   7.700
 8175SOL    HW243213   6.274   0.880   7.794
 8176SOL     OW43214   3.279   6.190   6.989
 8176SOL    HW143215   3.331   6.109   7.014
 8176SOL    HW243216   3.324   6.272   7.025
 8177SOL     OW43217   1.939   8.796   0.382
 8177SOL    HW143218   2.037   8.813   0.380
 8177SOL    HW243219   1.921   8.704   0.346
 8178SOL     OW43220   6.689   3.960   1.080
 8178SOL    HW143221   6.707   3.913   0.994
 8178SOL    HW243222   6.767   4.018   1.104
 8179SOL     OW43223   3.125  10.138   1.866
 8179SOL    HW143224   3.147  10.101   1.956
 8179SOL    HW243225   3.142  10.068   1.796
 8180SOL     OW43226   4.418   3.361   7.506
 8180SOL    HW143227   4.421   3.381   7.604
 8180SOL    HW243228   4.351   3.289   7.489
 8181SOL     OW43229   2.413   7.718   1.256
 8181SOL    HW143230   2.454   7.730   1.165
 8181SOL    HW243231   2.388   7.808   1.292
 8182SOL     OW43232   4.351   2.712   7.304
 8182SOL    HW143233   4.409   2.776   7.355
 8182SOL    HW243234   4.326   2.753   7.217
 8183SOL     OW43235   0.519   6.342   7.330
 8183SOL    HW143236   0.491   6.265   7.273
 8183SOL    HW243237   0.618   6.338   7.346
 8184SOL     OW43238   7.757   2.069   1.325
 8184SOL    HW143239   7.724   2.013   1.400
 8184SOL    HW243240   7.822   2.017   1.270
 8185SOL     OW43241   8.145   2.452   6.552
 8185SOL    HW143242   8.200   2.369   6.563
 8185SOL    HW243243   8.061   2.443   6.605
 8186SOL     OW43244   8.693   2.958   1.261
 8186SOL    HW143245   8.788   2.954   1.228
 8186SOL    HW243246   8.647   2.873   1.237
 8187SOL     OW43247   6.704  10.148   6.895
 8187SOL    HW143248   6.768  10.115   6.826
 8187SOL    HW243249   6.670  10.071   6.949
 8188SOL     OW43250   4.337   6.550   7.249
 8188SOL    HW143251   4.308   6.478   7.185
 8188SOL    HW243252   4.281   6.632   7.235
 8189SOL     OW43253   8.234   9.319   7.831
 8189SOL    HW143254   8.305   9.254   7.806
 8189SOL    HW243255   8.246   9.404   7.780
 8190SOL     OW43256   0.495   8.011   8.757
 8190SOL    HW143257   0.482   8.110   8.747
 8190SOL    HW243258   0.577   7.994   0.030
 8191SOL     OW43259   0.232   5.408   7.921
 8191SOL    HW143260   0.185   5.351   7.855
 8191SOL    HW243261   0.218   5.371   8.013
 8192SOL     OW43262   7.824   5.883   8.675
 8192SOL    HW143263   7.850   5.789   8.698
 8192SOL    HW243264   7.858   5.944   8.746
 8193SOL     OW43265   3.484   8.918   0.394
 8193SOL    HW143266   3.552   8.874   0.453
 8193SOL    HW243267   3.461   9.008   0.433
 8194SOL     OW43268   2.018   1.060   7.592
 8194SOL    HW143269   1.996   1.152   7.627
 8194SOL    HW243270   2.116   1.043   7.604
 8195SOL     OW43271   3.837   1.261   7.456
 8195SOL    HW143272   3.748   1.263   7.412
 8195SOL    HW243273   3.847   1.341   7.515
 8196SOL     OW43274   7.398   0.547   1.418
 8196SOL    HW143275   7.310   0.521   1.380
 8196SOL    HW243276   7.419   0.490   1.498
 8197SOL     OW43277   1.822   0.507   6.375
 8197SOL    HW143278   1.882   0.513   6.295
 8197SOL    HW243279   1.872   0.536   6.457
 8198SOL     OW43280   6.771   7.994   8.022
 8198SOL    HW143281   6.730   8.012   7.933
 8198SOL    HW243282   6.701   8.002   8.093
 8199SOL     OW43283   3.299   2.751   0.097
 8199SOL    HW143284   3.236   2.680   0.065
 8199SOL    HW243285   3.355   2.782   0.020
 8200SOL     OW43286   0.751   8.466   7.191
 8200SOL    HW143287   0.708   8.376   7.195
 8200SOL    HW243288   0.761   8.493   7.095
 8201SOL     OW43289   3.671   0.854   7.496
 8201SOL    HW143290   3.621   0.930   7.537
 8201SOL    HW243291   3.765   0.854   7.529
 8202SOL     OW43292   8.352   0.901   1.645
 8202SOL    HW143293   8.448   0.895   1.672
 8202SOL    HW243294   8.322   0.815   1.604
 8203SOL     OW43295   5.513   3.278   1.500
 8203SOL    HW143296   5.445   3.227   1.552
 8203SOL    HW243297   5.489   3.375   1.501
 8204SOL     OW43298   7.627   3.190   1.067
 8204SOL    HW143299   7.570   3.151   1.139
 8204SOL    HW243300   7.581   3.268   1.026
 8205SOL     OW43301   9.788   8.068   6.951
 8205SOL    HW143302   9.695   8.100   6.973
 8205SOL    HW243303   9.841   8.061   7.036
 8206SOL     OW43304  10.052  10.239   6.368
 8206SOL    HW143305  10.110  10.259   6.290
 8206SOL    HW243306  10.049  10.140   6.384
 8207SOL     OW43307   5.747   8.521   1.826
 8207SOL    HW143308   5.737   8.591   1.898
 8207SOL    HW243309   5.843   8.496   1.817
 8208SOL     OW43310   0.695   2.775   0.812
 8208SOL    HW143311   0.698   2.754   0.714
 8208SOL    HW243312   0.658   2.867   0.825
 8209SOL     OW43313   2.953   9.444   6.403
 8209SOL    HW143314   2.885   9.419   6.333
 8209SOL    HW243315   3.024   9.374   6.406
 8210SOL     OW43316   2.943   4.525   1.030
 8210SOL    HW143317   2.985   4.437   1.051
 8210SOL    HW243318   3.009   4.583   0.983
 8211SOL     OW43319   3.868   3.710   7.925
 8211SOL    HW143320   3.916   3.787   7.884
 8211SOL    HW243321   3.917   3.679   8.006
 8212SOL     OW43322  10.134   7.108   0.014
 8212SOL    HW143323   0.046   7.155   8.742
 8212SOL    HW243324   0.006   7.102   0.109
 8213SOL     OW43325   4.016   9.148   8.419
 8213SOL    HW143326   4.028   9.236   8.374
 8213SOL    HW243327   4.007   9.076   8.350
 8214SOL     OW43328   2.203   2.963   0.190
 8214SOL    HW143329   2.215   3.009   0.102
 8214SOL    HW243330   2.253   2.876   0.189
 8215SOL     OW43331   6.289   0.748   7.101
 8215SOL    HW143332   6.209   0.749   7.161
 8215SOL    HW243333   6.301   0.656   7.063
 8216SOL     OW43334   7.618   5.033   0.552
 8216SOL    HW143335   7.694   4.969   0.554
 8216SOL    HW243336   7.653   5.126   0.548
 8217SOL     OW43337   9.638   1.512   8.438
 8217SOL    HW143338   9.551   1.556   8.413
 8217SOL    HW243339   9.714   1.573   8.415
 8218SOL     OW43340   7.810   5.465   7.510
 8218SOL    HW143341   7.888   5.528   7.507
 8218SOL    HW243342   7.764   5.465   7.421
 8219SOL     OW43343   4.439   3.089   0.147
 8219SOL    HW143344   4.388   3.085   0.061
 8219SOL    HW243345   4.535   3.107   0.128
 8220SOL     OW43346   2.625  10.433   0.331
 8220SOL    HW143347   2.614  10.353   0.390
 8220SOL    HW243348   2.723  10.449   0.316
 8221SOL     OW43349   2.384   9.352   1.468
 8221SOL    HW143350   2.431   9.415   1.406
 8221SOL    HW243351   2.318   9.403   1.524
 8222SOL     OW43352   6.223   3.063   1.173
 8222SOL    HW143353   6.265   3.016   1.095
 8222SOL    HW243354   6.166   3.138   1.139
 8223SOL     OW43355   4.782   6.320   0.961
 8223SOL    HW143356   4.847   6.302   0.887
 8223SOL    HW243357   4.739   6.235   0.989
 8224SOL     OW43358   8.608   4.776   1.511
 8224SOL    HW143359   8.519   4.737   1.491
 8224SOL    HW243360   8.676   4.741   1.447
 8225SOL     OW43361   0.889   3.156   6.800
 8225SOL    HW143362   0.891   3.126   6.896
 8225SOL    HW243363   0.954   3.102   6.747
 8226SOL     OW43364   0.071   3.781   5.993
 8226SOL    HW143365  10.154   3.802   5.929
 8226SOL    HW243366   0.141   3.729   5.945
 8227SOL     OW43367   0.532   4.292   0.699
 8227SOL    HW143368   0.454   4.236   0.669
 8227SOL    HW243369   0.501   4.386   0.714
 8228SOL     OW43370   9.272   3.556   8.645
 8228SOL    HW143371   9.204   3.492   8.611
 8228SOL    HW243372   9.245   3.588   8.736
 8229SOL     OW43373   2.545   4.459   7.187
 8229SOL    HW143374   2.631   4.465   7.238
 8229SOL    HW243375   2.518   4.364   7.178
 8230SOL     OW43376   2.719   8.174   7.228
 8230SOL    HW143377   2.709   8.140   7.135
 8230SOL    HW243378   2.629   8.177   7.272
 8231SOL     OW43379   7.212   3.266   0.376
 8231SOL    HW143380   7.278   3.327   0.333
 8231SOL    HW243381   7.149   3.231   0.306
 8232SOL     OW43382   6.941   0.703   7.052
 8232SOL    HW143383   6.868   0.730   7.115
 8232SOL    HW243384   6.944   0.767   6.975
 8233SOL     OW43385   7.727  10.311   8.274
 8233SOL    HW143386   7.649  10.294   8.215
 8233SOL    HW243387   7.790  10.232   8.270
 8234SOL     OW43388   4.087   1.596   1.530
 8234SOL    HW143389   4.041   1.561   1.448
 8234SOL    HW243390   4.168   1.648   1.503
 8235SOL     OW43391   9.493   5.913   0.409
 8235SOL    HW143392   9.490   6.013   0.402
 8235SOL    HW243393   9.540   5.875   0.330
 8236SOL     OW43394   6.604   2.755   0.812
 8236SOL    HW143395   6.513   2.731   0.776
 8236SOL    HW243396   6.673   2.736   0.742
 8237SOL     OW43397   4.803   9.947   0.358
 8237SOL    HW143398   4.812   9.905   0.268
 8237SOL    HW243399   4.719   9.916   0.402
 8238SOL     OW43400   5.470   2.305   7.592
 8238SOL    HW143401   5.507   2.268   7.507
 8238SOL    HW243402   5.495   2.245   7.668
 8239SOL     OW43403   1.999   3.745   7.422
 8239SOL    HW143404   2.091   3.738   7.461
 8239SOL    HW243405   1.933   3.755   7.497
 8240SOL     OW43406   8.641   2.464   7.979
 8240SOL    HW143407   8.597   2.488   7.893
 8240SOL    HW243408   8.715   2.529   7.998
 8241SOL     OW43409  10.092   1.902   6.242
 8241SOL    HW143410  10.116   1.814   6.201
 8241SOL    HW243411  10.061   1.888   6.336
 8242SOL     OW43412   5.919   8.520   8.674
 8242SOL    HW143413   5.875   8.445   8.625
 8242SOL    HW243414   5.920   8.500   8.772
 8243SOL     OW43415   8.602   9.468   6.927
 8243SOL    HW143416   8.579   9.429   7.017
 8243SOL    HW243417   8.528   9.527   6.896
 8244SOL     OW43418   3.152   8.776   7.988
 8244SOL    HW143419   3.087   8.759   7.913
 8244SOL    HW243420   3.209   8.855   7.965
 8245SOL     OW43421   8.195   7.804   1.477
 8245SOL    HW143422   8.146   7.886   1.505
 8245SOL    HW243423   8.292   7.826   1.463
 8246SOL     OW43424   4.044   7.870   7.660
 8246SOL    HW143425   4.036   7.966   7.688
 8246SOL    HW243426   4.137   7.838   7.677
 8247SOL     OW43427   9.942   0.179   6.787
 8247SOL    HW143428   9.863   0.158   6.845
 8247SOL    HW243429   9.918   0.162   6.691
 8248SOL     OW43430   0.650   3.806   7.449
 8248SOL    HW143431   0.578   3.836   7.512
 8248SOL    HW243432   0.626   3.717   7.410
 8249SOL     OW43433   4.564   4.557   8.100
 8249SOL    HW143434   4.557   4.586   8.004
 8249SOL    HW243435   4.645   4.598   8.141
 8250SOL     OW43436   5.101   1.399   7.987
 8250SOL    HW143437   5.087   1.492   8.019
 8250SOL    HW243438   5.025   1.341   8.016
 8251SOL     OW43439   0.050   2.643   6.282
 8251SOL    HW143440  10.143   2.608   6.214
 8251SOL    HW243441   0.101   2.719   6.243
 8252SOL     OW43442  10.040   0.350   8.429
 8252SOL    HW143443   9.948   0.324   8.399
 8252SOL    HW243444  10.075   0.422   8.370
 8253SOL     OW43445   9.215   8.096   6.922
 8253SOL    HW143446   9.147   8.167   6.941
 8253SOL    HW243447   9.265   8.074   7.005
 8254SOL     OW43448   3.787   1.902   6.680
 8254SOL    HW143449   3.699   1.861   6.703
 8254SOL    HW243450   3.820   1.866   6.593
 8255SOL     OW43451   9.496   4.410   6.180
 8255SOL    HW143452   9.431   4.361   6.238
 8255SOL    HW243453   9.447   4.453   6.104
 8256SOL     OW43454   3.842   2.037   8.328
 8256SOL    HW143455   3.928   2.035   8.278
 8256SOL    HW243456   3.860   2.048   8.426
 8257SOL     OW43457   3.303   8.019   7.468
 8257SOL    HW143458   3.272   7.929   7.438
 8257SOL    HW243459   3.229   8.085   7.457
 8258SOL     OW43460   1.702   9.856   1.148
 8258SOL    HW143461   1.642   9.776   1.157
 8258SOL    HW243462   1.766   9.841   1.073
 8259SOL     OW43463   6.581   7.369   0.379
 8259SOL    HW143464   6.592   7.393   0.475
 8259SOL    HW243465   6.522   7.289   0.372
 8260SOL     OW43466   0.721   0.214   1.602
 8260SOL    HW143467   0.754   0.305   1.627
 8260SOL    HW243468   0.720   0.205   1.503
 8261SOL     OW43469   1.797   3.070   1.763
 8261SOL    HW143470   1.864   3.114   1.703
 8261SOL    HW243471   1.835   3.063   1.855
 8262SOL     OW43472   2.010   8.546   8.490
 8262SOL    HW143473   2.040   8.616   8.425
 8262SOL    HW243474   2.089   8.515   8.545
 8263SOL     OW43475   1.494   9.378   1.054
 8263SOL    HW143476   1.527   9.427   0.972
 8263SOL    HW243477   1.402   9.410   1.077
 8264SOL     OW43478   7.478   9.949   0.111
 8264SOL    HW143479   7.448  10.007   0.036
 8264SOL    HW243480   7.577   9.938   0.108
 8265SOL     OW43481   5.390   1.449   0.381
 8265SOL    HW143482   5.412   1.377   0.447
 8265SOL    HW243483   5.290   1.460   0.376
 8266SOL     OW43484   1.739   5.048   7.152
 8266SOL    HW143485   1.667   5.089   7.208
 8266SOL    HW243486   1.779   4.970   7.201
 8267SOL     OW43487   4.184   7.224   0.346
 8267SOL    HW143488   4.228   7.260   0.429
 8267SOL    HW243489   4.232   7.141   0.317
 8268SOL     OW43490   9.444   0.698   7.400
 8268SOL    HW143491   9.471   0.677   7.494
 8268SOL    HW243492   9.365   0.758   7.400
 8269SOL     OW43493   7.408   7.730   6.414
 8269SOL    HW143494   7.428   7.774   6.326
 8269SOL    HW243495   7.418   7.797   6.488
 8270SOL     OW43496   9.356   9.775   7.498
 8270SOL    HW143497   9.294   9.717   7.445
 8270SOL    HW243498   9.349   9.751   7.595
 8271SOL     OW43499   0.014   3.966   8.141
 8271SOL    HW143500   0.031   4.015   8.226
 8271SOL    HW243501   0.076   4.000   8.070
 8272SOL     OW43502   1.071   6.728   7.399
 8272SOL    HW143503   1.103   6.657   7.335
 8272SOL    HW243504   1.150   6.778   7.435
 8273SOL     OW43505   7.919  10.119   7.468
 8273SOL    HW143506   8.006  10.170   7.470
 8273SOL    HW243507   7.844  10.182   7.488
 8274SOL     OW43508   6.397   0.999   7.053
 8274SOL    HW143509   6.315   1.054   7.070
 8274SOL    HW243510   6.378   0.904   7.077
 8275SOL     OW43511   6.453  10.233   1.351
 8275SOL    HW143512   6.470  10.299   1.278
 8275SOL    HW243513   6.521  10.160   1.347
 8276SOL     OW43514   6.960   2.241   7.093
 8276SOL    HW143515   6.871   2.248   7.138
 8276SOL    HW243516   6.946   2.229   6.995
 8277SOL     OW43517   5.254   0.127   7.401
 8277SOL    HW143518   5.345   0.102   7.437
 8277SOL    HW243519   5.223   0.210   7.446
 8278SOL     OW43520   3.207   7.804   1.596
 8278SOL    HW143521   3.145   7.735   1.634
 8278SOL    HW243522   3.257   7.849   1.669
 8279SOL     OW43523   9.524   8.424   0.286
 8279SOL    HW143524   9.558   8.403   0.195
 8279SOL    HW243525   9.515   8.340   0.339
 8280SOL     OW43526   0.824   3.391   7.254
 8280SOL    HW143527   0.899   3.450   7.222
 8280SOL    HW243528   0.813   3.403   7.353
 8281SOL     OW43529  10.073   0.517   1.054
 8281SOL    HW143530   0.005   0.475   1.048
 8281SOL    HW243531  10.020   0.474   1.127
 8282SOL     OW43532   7.609   2.222   0.746
 8282SOL    HW143533   7.639   2.284   0.674
 8282SOL    HW243534   7.672   2.227   0.823
 8283SOL     OW43535   2.253   0.611   0.806
 8283SOL    HW143536   2.247   0.611   0.906
 8283SOL    HW243537   2.200   0.535   0.769
 8284SOL     OW43538   7.497   9.548   1.240
 8284SOL    HW143539   7.524   9.644   1.233
 8284SOL    HW243540   7.407   9.541   1.283
 8285SOL     OW43541   9.465   8.150   1.099
 8285SOL    HW143542   9.412   8.133   1.015
 8285SOL    HW243543   9.406   8.190   1.168
 8286SOL     OW43544   7.587   4.983   7.189
 8286SOL    HW143545   7.665   4.922   7.172
 8286SOL    HW243546   7.504   4.940   7.155
 8287SOL     OW43547   0.773   6.593   0.196
 8287SOL    HW143548   0.812   6.681   0.224
 8287SOL    HW243549   0.839   6.520   0.216
 8288SOL     OW43550   0.812   7.497   8.699
 8288SOL    HW143551   0.765   7.480   0.004
 8288SOL    HW243552   0.885   7.563   8.713
 8289SOL     OW43553   2.305   2.279   0.993
 8289SOL    HW143554   2.253   2.310   0.915
 8289SOL    HW243555   2.384   2.225   0.962
 8290SOL     OW43556   7.829   6.497   1.136
 8290SOL    HW143557   7.853   6.400   1.131
 8290SOL    HW243558   7.732   6.505   1.160
 8291SOL     OW43559   3.112   0.580   0.714
 8291SOL    HW143560   3.163   0.502   0.678
 8291SOL    HW243561   3.075   0.634   0.638
 8292SOL     OW43562   5.905   5.367   0.594
 8292SOL    HW143563   5.818   5.408   0.620
 8292SOL    HW243564   5.946   5.419   0.520
 8293SOL     OW43565   9.882   1.259   7.557
 8293SOL    HW143566   9.888   1.268   7.656
 8293SOL    HW243567   9.802   1.203   7.534
 8294SOL     OW43568  10.135   3.923   0.399
 8294SOL    HW143569  10.127   3.872   0.484
 8294SOL    HW243570   0.054   3.888   0.345
 8295SOL     OW43571   2.208   0.898   0.856
 8295SOL    HW143572   2.201   0.804   0.823
 8295SOL    HW243573   2.303   0.918   0.882
 8296SOL     OW43574   0.166   0.484   0.006
 8296SOL    HW143575   0.117   0.423   8.727
 8296SOL    HW243576   0.105   0.557   0.037
 8297SOL     OW43577   3.693   8.257   6.488
 8297SOL    HW143578   3.599   8.289   6.477
 8297SOL    HW243579   3.698   8.160   6.461
 8298SOL     OW43580   1.042   3.788   1.082
 8298SOL    HW143581   1.000   3.730   1.012
 8298SOL    HW243582   1.009   3.759   1.172
 8299SOL     OW43583   6.371   3.020   6.352
 8299SOL    HW143584   6.320   3.034   6.267
 8299SOL    HW243585   6.405   3.108   6.385
 8300SOL     OW43586   9.212   4.958   7.108
 8300SOL    HW143587   9.293   4.961   7.049
 8300SOL    HW243588   9.153   4.882   7.081
 8301SOL     OW43589   2.669   5.389   7.351
 8301SOL    HW143590   2.614   5.472   7.342
 8301SOL    HW243591   2.756   5.402   7.304
 8302SOL     OW43592   7.486   1.652   1.780
 8302SOL    HW143593   7.580   1.676   1.756
 8302SOL    HW243594   7.481   1.554   1.801
 8303SOL     OW43595   4.774   1.434   7.302
 8303SOL    HW143596   4.847   1.371   7.329
 8303SOL    HW243597   4.808   1.498   7.233
 8304SOL     OW43598   9.570   8.148   2.289
 8304SOL    HW143599   9.486   8.132   2.340
 8304SOL    HW243600   9.649   8.139   2.351
 8305SOL     OW43601   1.053   6.638   1.051
 8305SOL    HW143602   0.969   6.685   1.024
 8305SOL    HW243603   1.056   6.630   1.150
 8306SOL     OW43604   0.672   4.236   0.243
 8306SOL    HW143605   0.652   4.138   0.245
 8306SOL    HW243606   0.678   4.272   0.336
 8307SOL     OW43607   7.541   5.438   8.301
 8307SOL    HW143608   7.498   5.523   8.332
 8307SOL    HW243609   7.554   5.440   8.202
 8308SOL     OW43610   5.585   5.530   7.031
 8308SOL    HW143611   5.615   5.438   7.055
 8308SOL    HW243612   5.541   5.528   6.942
 8309SOL     OW43613   1.927   3.448   5.994
 8309SOL    HW143614   1.879   3.360   5.985
 8309SOL    HW243615   1.928   3.493   5.905
 8310SOL     OW43616   8.263   5.072   0.952
 8310SOL    HW143617   8.354   5.089   0.990
 8310SOL    HW243618   8.237   4.977   0.970
 8311SOL     OW43619   9.168   9.305   1.739
 8311SOL    HW143620   9.109   9.384   1.725
 8311SOL    HW243621   9.167   9.278   1.835
 8312SOL     OW43622   6.590   1.708   6.758
 8312SOL    HW143623   6.536   1.758   6.690
 8312SOL    HW243624   6.565   1.611   6.757
 8313SOL     OW43625   4.306   9.732   1.027
 8313SOL    HW143626   4.353   9.675   1.094
 8313SOL    HW243627   4.212   9.748   1.057
 8314SOL     OW43628   1.106   9.087   7.525
 8314SOL    HW143629   1.065   9.161   7.472
 8314SOL    HW243630   1.062   9.000   7.501
 8315SOL     OW43631  10.082   8.424   7.994
 8315SOL    HW143632  10.066   8.326   8.002
 8315SOL    HW243633   0.011   8.440   7.946
 8316SOL     OW43634   7.186   9.139   2.041
 8316SOL    HW143635   7.250   9.199   1.992
 8316SOL    HW243636   7.228   9.049   2.053
 8317SOL     OW43637   3.363   4.605   8.762
 8317SOL    HW143638   3.383   4.634   0.074
 8317SOL    HW243639   3.419   4.658   8.699
 8318SOL     OW43640   2.895   0.937   0.200
 8318SOL    HW143641   2.855   1.027   0.218
 8318SOL    HW243642   2.823   0.867   0.205
 8319SOL     OW43643   1.849   3.427   7.005
 8319SOL    HW143644   1.864   3.500   7.072
 8319SOL    HW243645   1.875   3.339   7.044
 8320SOL     OW43646   8.176   9.831   7.715
 8320SOL    HW143647   8.090   9.832   7.663
 8320SOL    HW243648   8.213   9.738   7.717
 8321SOL     OW43649   5.222   7.865   1.923
 8321SOL    HW143650   5.227   7.891   2.020
 8321SOL    HW243651   5.252   7.942   1.867
 8322SOL     OW43652   2.292   1.815   7.865
 8322SOL    HW143653   2.299   1.909   7.900
 8322SOL    HW243654   2.314   1.814   7.767
 8323SOL     OW43655   7.533   6.192   7.942
 8323SOL    HW143656   7.581   6.135   7.875
 8323SOL    HW243657   7.598   6.222   8.012
 8324SOL     OW43658   1.519   0.620   7.960
 8324SOL    HW143659   1.584   0.690   7.990
 8324SOL    HW243660   1.515   0.620   7.860
 8325SOL     OW43661   9.199   5.325   0.180
 8325SOL    HW143662   9.231   5.232   0.161
 8325SOL    HW243663   9.254   5.391   0.130
 8326SOL     OW43664   0.364   2.214   0.913
 8326SOL    HW143665   0.435   2.263   0.963
 8326SOL    HW243666   0.394   2.197   0.820
 8327SOL     OW43667   9.182   9.708   0.090
 8327SOL    HW143668   9.148   9.721   0.183
 8327SOL    HW243669   9.188   9.611   0.069
 8328SOL     OW43670   6.450   9.353   1.615
 8328SOL    HW143671   6.462   9.370   1.713
 8328SOL    HW243672   6.410   9.434   1.572
 8329SOL     OW43673   3.085   7.009   1.392
 8329SOL    HW143674   3.178   6.977   1.406
 8329SOL    HW243675   3.060   7.072   1.466
 8330SOL     OW43676   6.050   0.180   1.714
 8330SOL    HW143677   6.134   0.126   1.721
 8330SOL    HW243678   6.066   0.272   1.751
 8331SOL     OW43679   2.383   7.676   0.843
 8331SOL    HW143680   2.415   7.671   0.748
 8331SOL    HW243681   2.457   7.708   0.902
 8332SOL     OW43682   5.283   3.781   8.772
 8332SOL    HW143683   5.313   3.697   0.034
 8332SOL    HW243684   5.222   3.831   0.051
 8333SOL     OW43685   3.910   5.827   8.091
 8333SOL    HW143686   3.862   5.870   8.015
 8333SOL    HW243687   3.962   5.896   8.141
 8334SOL     OW43688   2.591   4.009   8.292
 8334SOL    HW143689   2.645   4.007   8.376
 8334SOL    HW243690   2.496   3.988   8.313
 8335SOL     OW43691   5.394  10.249   7.275
 8335SOL    HW143692   5.300  10.238   7.306
 8335SOL    HW243693   5.456  10.207   7.341
 8336SOL     OW43694   4.440   5.567   8.522
 8336SOL    HW143695   4.463   5.647   8.579
 8336SOL    HW243696   4.498   5.567   8.441
 8337SOL     OW43697   2.755   5.567   7.056
 8337SOL    HW143698   2.751   5.666   7.063
 8337SOL    HW243699   2.664   5.531   7.037
 8338SOL     OW43700   4.195   5.371   0.984
 8338SOL    HW143701   4.262   5.397   1.053
 8338SOL    HW243702   4.106   5.356   1.027
 8339SOL     OW43703   8.450   2.441   0.397
 8339SOL    HW143704   8.413   2.516   0.343
 8339SOL    HW243705   8.525   2.475   0.455
 8340SOL     OW43706   5.954   7.474   8.535
 8340SOL    HW143707   5.874   7.464   8.476
 8340SOL    HW243708   5.924   7.480   8.630
 8341SOL     OW43709   0.499   4.595   8.085
 8341SOL    HW143710   0.502   4.678   8.028
 8341SOL    HW243711   0.518   4.620   8.180
 8342SOL     OW43712   1.673   8.675   1.332
 8342SOL    HW143713   1.741   8.649   1.263
 8342SOL    HW243714   1.597   8.610   1.330
 8343SOL     OW43715   0.975   0.964   7.345
 8343SOL    HW143716   0.881   0.963   7.380
 8343SOL    HW243717   1.034   0.910   7.405
 8344SOL     OW43718   4.127   9.171   1.524
 8344SOL    HW143719   4.169   9.087   1.558
 8344SOL    HW243720   4.045   9.148   1.471
 8345SOL     OW43721   9.966   5.732   6.689
 8345SOL    HW143722  10.031   5.662   6.718
 8345SOL    HW243723   9.904   5.695   6.620
 8346SOL     OW43724   5.877  10.223   1.633
 8346SOL    HW143725   5.872  10.172   1.719
 8346SOL    HW243726   5.821  10.178   1.564
 8347SOL     OW43727   2.543  10.223   7.661
 8347SOL    HW143728   2.605  10.203   7.585
 8347SOL    HW243729   2.583  10.192   7.747
 8348SOL     OW43730   9.314   8.349   1.738
 8348SOL    HW143731   9.371   8.378   1.815
 8348SOL    HW243732   9.364   8.361   1.653
 8349SOL     OW43733   9.194   1.396   0.260
 8349SOL    HW143734   9.136   1.475   0.241
 8349SOL    HW243735   9.290   1.426   0.265
 8350SOL     OW43736   9.204  10.033   7.904
 8350SOL    HW143737   9.169   9.994   7.989
 8350SOL    HW243738   9.131  10.032   7.835
 8351SOL     OW43739   7.725   6.417   0.407
 8351SOL    HW143740   7.722   6.319   0.389
 8351SOL    HW243741   7.796   6.436   0.475
 8352SOL     OW43742   5.985   0.960   8.342
 8352SOL    HW143743   5.994   1.038   8.280
 8352SOL    HW243744   6.059   0.895   8.324
 8353SOL     OW43745   6.134   6.143   8.687
 8353SOL    HW143746   6.097   6.104   8.602
 8353SOL    HW243747   6.226   6.108   8.702
 8354SOL     OW43748   7.033   5.933   7.425
 8354SOL    HW143749   6.981   5.857   7.463
 8354SOL    HW243750   6.979   5.978   7.354
 8355SOL     OW43751   4.514   8.168   1.279
 8355SOL    HW143752   4.527   8.075   1.312
 8355SOL    HW243753   4.427   8.204   1.312
 8356SOL     OW43754   3.394   5.941   7.040
 8356SOL    HW143755   3.407   5.891   6.954
 8356SOL    HW243756   3.338   5.886   7.101
 8357SOL     OW43757   9.484   6.900   0.988
 8357SOL    HW143758   9.542   6.974   1.023
 8357SOL    HW243759   9.507   6.883   0.892
 8358SOL     OW43760   8.445   3.081   8.504
 8358SOL    HW143761   8.431   3.029   8.588
 8358SOL    HW243762   8.369   3.144   8.491
 8359SOL     OW43763   5.866   5.406   6.692
 8359SOL    HW143764   5.822   5.433   6.606
 8359SOL    HW243765   5.822   5.324   6.728
 8360SOL     OW43766   8.964   6.329   6.669
 8360SOL    HW143767   8.938   6.274   6.590
 8360SOL    HW243768   8.934   6.284   6.753
 8361SOL     OW43769   2.279   1.421   7.391
 8361SOL    HW143770   2.352   1.355   7.377
 8361SOL    HW243771   2.197   1.391   7.344
 8362SOL     OW43772   1.740   9.553   8.502
 8362SOL    HW143773   1.833   9.558   8.539
 8362SOL    HW243774   1.677   9.602   8.561
 8363SOL     OW43775   8.054   3.911   1.472
 8363SOL    HW143776   8.000   3.827   1.463
 8363SOL    HW243777   8.018   3.966   1.547
 8364SOL     OW43778   8.895  10.129   7.466
 8364SOL    HW143779   8.966  10.085   7.409
 8364SOL    HW243780   8.905  10.228   7.460
 8365SOL     OW43781   8.138   3.057   1.577
 8365SOL    HW143782   8.082   3.041   1.659
 8365SOL    HW243783   8.213   3.118   1.599
 8366SOL     OW43784   0.774   4.922   1.431
 8366SOL    HW143785   0.711   4.992   1.464
 8366SOL    HW243786   0.857   4.922   1.488
 8367SOL     OW43787   8.885   6.919   1.204
 8367SOL    HW143788   8.972   6.903   1.250
 8367SOL    HW243789   8.819   6.957   1.269
 8368SOL     OW43790   4.064  10.070   8.536
 8368SOL    HW143791   3.968  10.056   8.511
 8368SOL    HW243792   4.082  10.023   8.623
 8369SOL     OW43793   3.538   9.123   8.040
 8369SOL    HW143794   3.615   9.084   8.090
 8369SOL    HW243795   3.508   9.206   8.086
 8370SOL     OW43796   8.480   9.071   1.684
 8370SOL    HW143797   8.526   9.154   1.653
 8370SOL    HW243798   8.532   9.030   1.760
 8371SOL     OW43799   4.911   5.810   8.285
 8371SOL    HW143800   4.897   5.852   8.375
 8371SOL    HW243801   5.009   5.802   8.267
 8372SOL     OW43802   6.008   7.232   7.066
 8372SOL    HW143803   5.973   7.310   7.013
 8372SOL    HW243804   5.975   7.147   7.026
 8373SOL     OW43805   0.718   2.571   1.716
 8373SOL    HW143806   0.758   2.525   1.796
 8373SOL    HW243807   0.624   2.596   1.736
 8374SOL     OW43808   5.436   3.678   6.984
 8374SOL    HW143809   5.430   3.609   6.911
 8374SOL    HW243810   5.508   3.744   6.961
 8375SOL     OW43811   1.160   3.388   7.923
 8375SOL    HW143812   1.106   3.310   7.953
 8375SOL    HW243813   1.257   3.365   7.928
 8376SOL     OW43814   0.690   5.672   0.423
 8376SOL    HW143815   0.649   5.627   0.503
 8376SOL    HW243816   0.632   5.749   0.395
 8377SOL     OW43817   6.429   5.444   8.491
 8377SOL    HW143818   6.402   5.459   8.396
 8377SOL    HW243819   6.507   5.504   8.513
 8378SOL     OW43820   7.257   8.516   6.765
 8378SOL    HW143821   7.288   8.530   6.671
 8378SOL    HW243822   7.332   8.536   6.828
 8379SOL     OW43823   5.758   2.175   7.896
 8379SOL    HW143824   5.837   2.140   7.846
 8379SOL    HW243825   5.674   2.154   7.845
 8380SOL     OW43826   5.905   2.541   8.007
 8380SOL    HW143827   5.975   2.485   8.051
 8380SOL    HW243828   5.817   2.494   8.012
 8381SOL     OW43829   9.345   5.318   6.135
 8381SOL    HW143830   9.348   5.299   6.037
 8381SOL    HW243831   9.378   5.239   6.185
 8382SOL     OW43832   5.998   7.638   7.291
 8382SOL    HW143833   6.008   7.732   7.256
 8382SOL    HW243834   5.941   7.639   7.372
 8383SOL     OW43835   2.436   9.332   0.019
 8383SOL    HW143836   2.457   9.259   8.736
 8383SOL    HW243837   2.455   9.301   0.112
 8384SOL     OW43838   9.192   8.412   8.068
 8384SOL    HW143839   9.285   8.409   8.103
 8384SOL    HW243840   9.188   8.365   7.979
 8385SOL     OW43841   2.147   5.851   7.323
 8385SOL    HW143842   2.243   5.844   7.295
 8385SOL    HW243843   2.097   5.904   7.254
 8386SOL     OW43844   6.360   3.470   6.534
 8386SOL    HW143845   6.277   3.479   6.480
 8386SOL    HW243846   6.412   3.390   6.501
 8387SOL     OW43847   1.125   4.587   7.656
 8387SOL    HW143848   1.158   4.526   7.728
 8387SOL    HW243849   1.164   4.678   7.669
 8388SOL     OW43850   6.457   0.252   8.742
 8388SOL    HW143851   6.527   0.185   8.717
 8388SOL    HW243852   6.374   0.204   8.772
 8389SOL     OW43853   9.648   2.067   0.191
 8389SOL    HW143854   9.697   1.979   0.194
 8389SOL    HW243855   9.607   2.079   0.101
 8390SOL     OW43856   5.347   5.600   1.134
 8390SOL    HW143857   5.355   5.672   1.066
 8390SOL    HW243858   5.333   5.512   1.088
 8391SOL     OW43859   5.500   6.733   8.028
 8391SOL    HW143860   5.509   6.638   8.000
 8391SOL    HW243861   5.552   6.748   8.112
 8392SOL     OW43862   1.663  10.015   7.924
 8392SOL    HW143863   1.725   9.977   7.856
 8392SOL    HW243864   1.573   9.973   7.915
 8393SOL     OW43865   3.876   1.863   6.409
 8393SOL    HW143866   3.949   1.833   6.348
 8393SOL    HW243867   3.787   1.843   6.369
 8394SOL     OW43868   7.828   6.821   6.236
 8394SOL    HW143869   7.747   6.876   6.216
 8394SOL    HW243870   7.821   6.734   6.188
 8395SOL     OW43871   4.703   8.316   1.817
 8395SOL    HW143872   4.727   8.285   1.909
 8395SOL    HW243873   4.749   8.403   1.798
 8396SOL     OW43874   8.079   4.582   0.955
 8396SOL    HW143875   8.039   4.522   0.886
 8396SOL    HW243876   8.011   4.648   0.985
 8397SOL     OW43877   8.441   3.073   2.300
 8397SOL    HW143878   8.489   3.018   2.369
 8397SOL    HW243879   8.498   3.079   2.218
 8398SOL     OW43880   6.965   7.529   0.609
 8398SOL    HW143881   7.032   7.603   0.611
 8398SOL    HW243882   6.922   7.525   0.519
 8399SOL     OW43883   5.965   2.682   1.459
 8399SOL    HW143884   5.981   2.764   1.404
 8399SOL    HW243885   6.050   2.655   1.504
 8400SOL     OW43886   5.373   6.610   6.908
 8400SOL    HW143887   5.389   6.581   6.814
 8400SOL    HW243888   5.275   6.624   6.922
 8401SOL     OW43889   6.393   9.562   8.071
 8401SOL    HW143890   6.399   9.651   8.117
 8401SOL    HW243891   6.427   9.490   8.131
 8402SOL     OW43892   8.120   2.771   1.222
 8402SOL    HW143893   8.049   2.762   1.291
 8402SOL    HW243894   8.083   2.814   1.140
 8403SOL     OW43895   8.017   1.732   7.183
 8403SOL    HW143896   7.971   1.821   7.176
 8403SOL    HW243897   7.996   1.691   7.272
 8404SOL     OW43898   6.806   0.035   7.745
 8404SOL    HW143899   6.897   0.059   7.711
 8404SOL    HW243900   6.812   0.007   7.841
 8405SOL     OW43901  10.033   4.033   7.482
 8405SOL    HW143902  10.011   3.973   7.559
 8405SOL    HW243903  10.006   3.989   7.397
 8406SOL     OW43904  10.153   3.820   8.516
 8406SOL    HW143905   0.015   3.913   8.486
 8406SOL    HW243906  10.092   3.823   8.596
 8407SOL     OW43907   0.091   8.932   0.400
 8407SOL    HW143908   0.118   9.028   0.386
 8407SOL    HW243909   0.111   8.906   0.494
 8408SOL     OW43910   9.213   2.073   7.233
 8408SOL    HW143911   9.136   2.137   7.239
 8408SOL    HW243912   9.254   2.062   7.324
 8409SOL     OW43913   4.594  10.437   0.485
 8409SOL    HW143914   4.642  10.351   0.465
 8409SOL    HW243915   4.633  10.478   0.568
 8410SOL     OW43916   8.378   1.588   0.049
 8410SOL    HW143917   8.290   1.590   0.095
 8410SOL    HW243918   8.378   1.517   8.761
 8411SOL     OW43919   4.040   8.487   7.237
 8411SOL    HW143920   4.057   8.400   7.191
 8411SOL    HW243921   3.944   8.493   7.263
 8412SOL     OW43922   1.259   2.569   1.496
 8412SOL    HW143923   1.229   2.575   1.591
 8412SOL    HW243924   1.359   2.574   1.493
 8413SOL     OW43925   1.528   3.117   1.762
 8413SOL    HW143926   1.624   3.089   1.770
 8413SOL    HW243927   1.501   3.117   1.666
 8414SOL     OW43928   0.437   7.802   2.403
 8414SOL    HW143929   0.346   7.761   2.402
 8414SOL    HW243930   0.429   7.901   2.397
 8415SOL     OW43931   0.913   0.884   8.576
 8415SOL    HW143932   0.901   0.818   8.501
 8415SOL    HW243933   0.965   0.962   8.544
 8416SOL     OW43934   2.158   8.624   0.084
 8416SOL    HW143935   2.142   8.722   0.096
 8416SOL    HW243936   2.219   8.591   0.155
 8417SOL     OW43937   4.723   9.719   8.540
 8417SOL    HW143938   4.813   9.763   8.549
 8417SOL    HW243939   4.665   9.775   8.481
 8418SOL     OW43940   9.839   0.323   0.137
 8418SOL    HW143941   9.921   0.269   0.119
 8418SOL    HW243942   9.764   0.289   0.081
 8419SOL     OW43943   6.832   3.693   8.286
 8419SOL    HW143944   6.801   3.772   8.339
 8419SOL    HW243945   6.755   3.632   8.270
 8420SOL     OW43946   9.755   8.766   0.097
 8420SOL    HW143947   9.792   8.675   0.115
 8420SOL    HW243948   9.673   8.780   0.151
 8421SOL     OW43949   0.419   4.830   0.670
 8421SOL    HW143950   0.414   4.869   0.763
 8421SOL    HW243951   0.491   4.876   0.619
 8422SOL     OW43952   7.983   9.756   8.398
 8422SOL    HW143953   8.031   9.677   8.438
 8422SOL    HW243954   8.034   9.789   8.318
 8423SOL     OW43955   9.628   4.557   7.921
 8423SOL    HW143956   9.721   4.537   7.889
 8423SOL    HW243957   9.568   4.481   7.897
 8424SOL     OW43958   5.062   9.412   7.473
 8424SOL    HW143959   5.063   9.490   7.536
 8424SOL    HW243960   5.152   9.402   7.432
 8425SOL     OW43961   1.378   7.042   0.038
 8425SOL    HW143962   1.375   7.120   8.759
 8425SOL    HW243963   1.340   7.068   0.127
 8426SOL     OW43964   6.276   6.339   1.073
 8426SOL    HW143965   6.360   6.288   1.089
 8426SOL    HW243966   6.224   6.345   1.158
 8427SOL     OW43967   4.674   3.614   1.550
 8427SOL    HW143968   4.662   3.713   1.562
 8427SOL    HW243969   4.708   3.574   1.634
 8428SOL     OW43970   4.219   6.741   8.474
 8428SOL    HW143971   4.199   6.704   8.564
 8428SOL    HW243972   4.269   6.673   8.420
 8429SOL     OW43973   7.266   2.236   8.307
 8429SOL    HW143974   7.231   2.143   8.295
 8429SOL    HW243975   7.352   2.246   8.257
 8430SOL     OW43976   7.711   5.288   0.532
 8430SOL    HW143977   7.727   5.314   0.437
 8430SOL    HW243978   7.638   5.345   0.570
 8431SOL     OW43979   2.271   2.261   7.364
 8431SOL    HW143980   2.171   2.267   7.363
 8431SOL    HW243981   2.303   2.218   7.280
 8432SOL     OW43982   8.608   9.044   8.085
 8432SOL    HW143983   8.617   9.031   7.986
 8432SOL    HW243984   8.658   8.972   8.133
 8433SOL     OW43985   7.099   5.346   0.853
 8433SOL    HW143986   7.021   5.407   0.868
 8433SOL    HW243987   7.161   5.351   0.931
 8434SOL     OW43988   4.753   4.024   6.420
 8434SOL    HW143989   4.821   4.085   6.461
 8434SOL    HW243990   4.798   3.942   6.386
 8435SOL     OW43991   0.825   5.559   7.493
 8435SOL    HW143992   0.836   5.479   7.552
 8435SOL    HW243993   0.915   5.597   7.471
 8436SOL     OW43994   6.022   7.452   0.779
 8436SOL    HW143995   5.942   7.461   0.720
 8436SOL    HW243996   5.993   7.425   0.870
 8437SOL     OW43997   9.531   5.172   6.769
 8437SOL    HW143998   9.604   5.219   6.719
 8437SOL    HW243999   9.482   5.237   6.826
 8438SOL     OW44000   8.896   7.462   1.169
 8438SOL    HW144001   8.890   7.531   1.242
 8438SOL    HW244002   8.927   7.506   1.085
 8439SOL     OW44003   2.241  10.502   6.743
 8439SOL    HW144004   2.329   0.041   6.765
 8439SOL    HW244005   2.183   0.065   6.695
 8440SOL     OW44006   7.399   3.831   6.836
 8440SOL    HW144007   7.375   3.925   6.858
 8440SOL    HW244008   7.474   3.830   6.770
 8441SOL     OW44009   9.787   1.826   0.215
 8441SOL    HW144010   9.877   1.831   0.259
 8441SOL    HW244011   9.787   1.751   0.148
 8442SOL     OW44012   8.702   9.268   8.576
 8442SOL    HW144013   8.696   9.234   8.482
 8442SOL    HW244014   8.788   9.237   8.618
 8443SOL     OW44015   7.476   6.209   8.619
 8443SOL    HW144016   7.426   6.292   8.643
 8443SOL    HW244017   7.540   6.185   8.692
 8444SOL     OW44018   6.427   8.869   0.746
 8444SOL    HW144019   6.468   8.853   0.655
 8444SOL    HW244020   6.452   8.960   0.778
 8445SOL     OW44021   6.396   1.585   1.842
 8445SOL    HW144022   6.350   1.641   1.911
 8445SOL    HW244023   6.339   1.579   1.761
 8446SOL     OW44024   2.289   1.087   7.666
 8446SOL    HW144025   2.335   1.047   7.587
 8446SOL    HW244026   2.300   1.027   7.746
 8447SOL     OW44027   2.175   3.137   0.869
 8447SOL    HW144028   2.182   3.121   0.770
 8447SOL    HW244029   2.111   3.212   0.886
 8448SOL     OW44030  10.154   5.539   7.478
 8448SOL    HW144031   0.089   5.513   7.450
 8448SOL    HW244032  10.145   5.638   7.471
 8449SOL     OW44033   2.084   1.303   7.234
 8449SOL    HW144034   2.047   1.210   7.233
 8449SOL    HW244035   2.145   1.316   7.156
 8450SOL     OW44036   5.185  10.130   6.220
 8450SOL    HW144037   5.283  10.148   6.224
 8450SOL    HW244038   5.162  10.098   6.128
 8451SOL     OW44039   8.583   5.490   0.193
 8451SOL    HW144040   8.584   5.404   0.245
 8451SOL    HW244041   8.675   5.510   0.160
 8452SOL     OW44042   8.773   7.176   6.837
 8452SOL    HW144043   8.677   7.152   6.821
 8452SOL    HW244044   8.820   7.189   6.750
 8453SOL     OW44045   6.799   0.095   1.095
 8453SOL    HW144046   6.765   0.100   1.189
 8453SOL    HW244047   6.800  10.502   1.064
 8454SOL     OW44048   7.208   7.737   7.999
 8454SOL    HW144049   7.252   7.678   7.931
 8454SOL    HW244050   7.109   7.739   7.982
 8455SOL     OW44051   7.455   0.976   1.374
 8455SOL    HW144052   7.517   1.031   1.430
 8455SOL    HW244053   7.366   0.968   1.420
 8456SOL     OW44054   0.249   2.870   0.659
 8456SOL    HW144055   0.274   2.779   0.691
 8456SOL    HW244056   0.315   2.901   0.590
 8457SOL     OW44057   1.941   0.310   1.217
 8457SOL    HW144058   1.885   0.227   1.226
 8457SOL    HW244059   1.965   0.344   1.308
 8458SOL     OW44060   1.232   5.118   0.975
 8458SOL    HW144061   1.211   5.037   1.031
 8458SOL    HW244062   1.228   5.200   1.032
 8459SOL     OW44063   5.065  10.098   1.256
 8459SOL    HW144064   5.065  10.176   1.319
 8459SOL    HW244065   5.113  10.021   1.299
 8460SOL     OW44066   0.717   0.560   0.155
 8460SOL    HW144067   0.803   0.557   0.105
 8460SOL    HW244068   0.641   0.552   0.090
 8461SOL     OW44069   4.041   9.429   0.817
 8461SOL    HW144070   3.996   9.353   0.769
 8461SOL    HW244071   4.113   9.466   0.760
 8462SOL     OW44072   1.027   6.480   7.656
 8462SOL    HW144073   1.047   6.434   7.570
 8462SOL    HW244074   0.959   6.552   7.641
 8463SOL     OW44075   4.328   5.104   8.256
 8463SOL    HW144076   4.285   5.081   8.168
 8463SOL    HW244077   4.410   5.159   8.239
 8464SOL     OW44078   3.401   4.838   8.357
 8464SOL    HW144079   3.458   4.918   8.334
 8464SOL    HW244080   3.342   4.817   8.279
 8465SOL     OW44081   9.761   0.531   0.299
 8465SOL    HW144082   9.668   0.558   0.274
 8465SOL    HW244083   9.790   0.453   0.243
 8466SOL     OW44084   8.621   0.720   1.385
 8466SOL    HW144085   8.571   0.644   1.344
 8466SOL    HW244086   8.654   0.693   1.476
 8467SOL     OW44087   5.832   3.186   7.326
 8467SOL    HW144088   5.894   3.247   7.375
 8467SOL    HW244089   5.750   3.237   7.298
 8468SOL     OW44090   9.158   0.570   7.468
 8468SOL    HW144091   9.177   0.668   7.469
 8468SOL    HW244092   9.078   0.552   7.409
 8469SOL     OW44093   9.497   6.197   0.357
 8469SOL    HW144094   9.427   6.238   0.416
 8469SOL    HW244095   9.586   6.238   0.377
 8470SOL     OW44096   0.573   9.895   7.438
 8470SOL    HW144097   0.593   9.867   7.532
 8470SOL    HW244098   0.620   9.981   7.418
 8471SOL     OW44099   2.027   9.560   7.222
 8471SOL    HW144100   1.942   9.567   7.275
 8471SOL    HW244101   2.070   9.472   7.239
 8472SOL     OW44102   4.325   9.915   7.365
 8472SOL    HW144103   4.419   9.883   7.351
 8472SOL    HW244104   4.262   9.841   7.344
 8473SOL     OW44105   6.166   0.813   1.756
 8473SOL    HW144106   6.146   0.734   1.698
 8473SOL    HW244107   6.261   0.810   1.785
 8474SOL     OW44108   2.765  10.384   6.188
 8474SOL    HW144109   2.748  10.380   6.287
 8474SOL    HW244110   2.687  10.345   6.140
 8475SOL     OW44111   1.243   1.160   6.208
 8475SOL    HW144112   1.339   1.179   6.187
 8475SOL    HW244113   1.234   1.144   6.306
 8476SOL     OW44114   5.897   5.570   1.461
 8476SOL    HW144115   5.853   5.656   1.434
 8476SOL    HW244116   5.837   5.520   1.524
 8477SOL     OW44117   0.344   7.416   0.435
 8477SOL    HW144118   0.371   7.353   0.508
 8477SOL    HW244119   0.411   7.490   0.429
 8478SOL     OW44120   1.937   7.559   1.312
 8478SOL    HW144121   1.897   7.628   1.373
 8478SOL    HW244122   2.000   7.502   1.364
 8479SOL     OW44123   1.389   6.796   1.732
 8479SOL    HW144124   1.446   6.764   1.808
 8479SOL    HW244125   1.426   6.882   1.696
 8480SOL     OW44126   2.938   7.200   0.851
 8480SOL    HW144127   2.963   7.289   0.888
 8480SOL    HW244128   2.991   7.128   0.898
 8481SOL     OW44129   2.082   3.291   8.058
 8481SOL    HW144130   2.097   3.197   8.028
 8481SOL    HW244131   2.167   3.327   8.097
 8482SOL     OW44132   8.176   4.322   1.539
 8482SOL    HW144133   8.263   4.354   1.578
 8482SOL    HW244134   8.103   4.332   1.606
 8483SOL     OW44135   7.186   8.996   7.718
 8483SOL    HW144136   7.200   8.904   7.680
 8483SOL    HW244137   7.268   9.051   7.702
 8484SOL     OW44138   1.824   5.398   6.620
 8484SOL    HW144139   1.870   5.319   6.578
 8484SOL    HW244140   1.841   5.398   6.719
 8485SOL     OW44141   7.361   0.602   2.321
 8485SOL    HW144142   7.401   0.557   2.401
 8485SOL    HW244143   7.263   0.616   2.337
 8486SOL     OW44144   3.743  10.427   6.208
 8486SOL    HW144145   3.741  10.345   6.264
 8486SOL    HW244146   3.709  10.406   6.116
 8487SOL     OW44147   2.448   2.407   7.516
 8487SOL    HW144148   2.381   2.366   7.455
 8487SOL    HW244149   2.515   2.338   7.544
 8488SOL     OW44150   3.115   9.011   6.549
 8488SOL    HW144151   3.045   8.940   6.544
 8488SOL    HW244152   3.199   8.978   6.506
 8489SOL     OW44153   9.216  10.001   6.792
 8489SOL    HW144154   9.212  10.022   6.889
 8489SOL    HW244155   9.295  10.045   6.751
 8490SOL     OW44156   6.670  10.363   7.081
 8490SOL    HW144157   6.701  10.431   7.015
 8490SOL    HW244158   6.678  10.272   7.041
 8491SOL     OW44159   1.650   7.247   1.138
 8491SOL    HW144160   1.582   7.200   1.082
 8491SOL    HW244161   1.609   7.328   1.179
 8492SOL     OW44162   7.566   7.256   8.394
 8492SOL    HW144163   7.551   7.297   8.304
 8492SOL    HW244164   7.494   7.286   8.457
 8493SOL     OW44165   3.768   6.109   8.473
 8493SOL    HW144166   3.817   6.022   8.471
 8493SOL    HW244167   3.786   6.155   8.560
 8494SOL     OW44168   0.274   9.572   7.741
 8494SOL    HW144169   0.275   9.650   7.680
 8494SOL    HW244170   0.269   9.488   7.688
 8495SOL     OW44171   9.350   0.998   0.471
 8495SOL    HW144172   9.419   0.976   0.403
 8495SOL    HW244173   9.326   0.916   0.523
 8496SOL     OW44174   0.212   4.927   8.511
 8496SOL    HW144175   0.155   4.977   8.447
 8496SOL    HW244176   0.155   4.889   8.584
 8497SOL     OW44177   9.453   3.709   6.737
 8497SOL    HW144178   9.542   3.683   6.700
 8497SOL    HW244179   9.408   3.773   6.674
 8498SOL     OW44180   2.260   1.302   2.116
 8498SOL    HW144181   2.295   1.393   2.138
 8498SOL    HW244182   2.282   1.239   2.190
 8499SOL     OW44183   4.181   9.193   7.281
 8499SOL    HW144184   4.203   9.118   7.219
 8499SOL    HW244185   4.145   9.270   7.227
 8500SOL     OW44186   5.657   8.081   8.653
 8500SOL    HW144187   5.575   8.066   8.709
 8500SOL    HW244188   5.630   8.088   8.557
 8501SOL     OW44189   2.176   7.044   2.129
 8501SOL    HW144190   2.204   6.958   2.170
 8501SOL    HW244191   2.103   7.085   2.182
 8502SOL     OW44192   2.728   9.105   6.328
 8502SOL    HW144193   2.733   9.048   6.410
 8502SOL    HW244194   2.734   9.047   6.246
 8503SOL     OW44195   5.152   1.340   0.141
 8503SOL    HW144196   5.205   1.405   0.086
 8503SOL    HW244197   5.129   1.382   0.229
 8504SOL     OW44198   6.860   0.842   1.911
 8504SOL    HW144199   6.809   0.861   1.995
 8504SOL    HW244200   6.919   0.762   1.925
 8505SOL     OW44201   6.855   0.298   6.860
 8505SOL    HW144202   6.844   0.346   6.948
 8505SOL    HW244203   6.765   0.274   6.824
 8506SOL     OW44204   4.653   9.072   8.048
 8506SOL    HW144205   4.638   9.013   7.969
 8506SOL    HW244206   4.748   9.104   8.047
 8507SOL     OW44207   1.525   3.004   6.725
 8507SOL    HW144208   1.508   2.967   6.634
 8507SOL    HW244209   1.543   2.929   6.789
 8508SOL     OW44210   5.114   4.711   8.078
 8508SOL    HW144211   5.177   4.663   8.016
 8508SOL    HW244212   5.029   4.732   8.029
 8509SOL     OW44213   5.547   9.154   7.652
 8509SOL    HW144214   5.455   9.124   7.627
 8509SOL    HW244215   5.575   9.108   7.736
 8510SOL     OW44216   7.387   3.937   8.399
 8510SOL    HW144217   7.454   3.990   8.347
 8510SOL    HW244218   7.297   3.945   8.355
 8511SOL     OW44219   1.996   2.477   1.954
 8511SOL    HW144220   2.092   2.487   1.978
 8511SOL    HW244221   1.942   2.544   2.005
 8512SOL     OW44222   8.270   0.623   0.429
 8512SOL    HW144223   8.268   0.523   0.418
 8512SOL    HW244224   8.199   0.650   0.494
 8513SOL     OW44225   7.967   1.421   0.431
 8513SOL    HW144226   8.002   1.412   0.525
 8513SOL    HW244227   8.037   1.390   0.367
 8514SOL     OW44228   8.272   8.745   7.976
 8514SOL    HW144229   8.187   8.693   7.983
 8514SOL    HW244230   8.266   8.810   7.900
 8515SOL     OW44231   6.552   4.513   7.507
 8515SOL    HW144232   6.551   4.608   7.479
 8515SOL    HW244233   6.547   4.454   7.427
 8516SOL     OW44234   4.664   3.782   7.824
 8516SOL    HW144235   4.692   3.690   7.796
 8516SOL    HW244236   4.607   3.823   7.753
 8517SOL     OW44237   5.100   2.144   8.518
 8517SOL    HW144238   5.109   2.134   8.418
 8517SOL    HW244239   5.069   2.237   8.538
 8518SOL     OW44240   4.642   3.875   1.637
 8518SOL    HW144241   4.582   3.921   1.703
 8518SOL    HW244242   4.737   3.885   1.667
 8519SOL     OW44243   1.804   1.834   0.559
 8519SOL    HW144244   1.761   1.880   0.636
 8519SOL    HW244245   1.734   1.787   0.505
 8520SOL     OW44246   2.122  10.282   0.205
 8520SOL    HW144247   2.204  10.227   0.195
 8520SOL    HW244248   2.147  10.378   0.220
 8521SOL     OW44249   9.669   6.962   1.568
 8521SOL    HW144250   9.756   6.954   1.617
 8521SOL    HW244251   9.611   6.884   1.592
 8522SOL     OW44252   5.970   7.990   0.293
 8522SOL    HW144253   5.905   8.039   0.235
 8522SOL    HW244254   6.000   8.051   0.367
 8523SOL     OW44255   3.229   0.347   0.611
 8523SOL    HW144256   3.325   0.323   0.626
 8523SOL    HW244257   3.171   0.270   0.636
 8524SOL     OW44258   9.264   0.710   1.616
 8524SOL    HW144259   9.270   0.725   1.517
 8524SOL    HW244260   9.351   0.736   1.658
 8525SOL     OW44261   7.686   8.235   6.940
 8525SOL    HW144262   7.698   8.161   7.006
 8525SOL    HW244263   7.696   8.323   6.986
 8526SOL     OW44264   2.759   0.680   7.180
 8526SOL    HW144265   2.721   0.612   7.242
 8526SOL    HW244266   2.759   0.644   7.087
 8527SOL     OW44267   4.667   7.154   8.566
 8527SOL    HW144268   4.609   7.179   8.489
 8527SOL    HW244269   4.613   7.155   8.650
 8528SOL     OW44270   7.831   9.126   6.749
 8528SOL    HW144271   7.774   9.044   6.755
 8528SOL    HW244272   7.858   9.141   6.654
 8529SOL     OW44273   3.485   0.879   0.399
 8529SOL    HW144274   3.466   0.793   0.445
 8529SOL    HW244275   3.486   0.953   0.467
 8530SOL     OW44276   2.306   4.523   8.476
 8530SOL    HW144277   2.235   4.550   8.411
 8530SOL    HW244278   2.354   4.443   8.441
 8531SOL     OW44279   0.084   0.830   1.311
 8531SOL    HW144280  10.155   0.783   1.329
 8531SOL    HW244281   0.070   0.900   1.241
 8532SOL     OW44282   7.805   8.992   1.537
 8532SOL    HW144283   7.857   8.959   1.616
 8532SOL    HW244284   7.841   9.081   1.509
 8533SOL     OW44285   8.174   4.512   7.847
 8533SOL    HW144286   8.207   4.440   7.909
 8533SOL    HW244287   8.209   4.495   7.755
 8534SOL     OW44288   4.913  10.429   0.894
 8534SOL    HW144289   4.996  10.471   0.858
 8534SOL    HW244290   4.938  10.349   0.949
 8535SOL     OW44291   5.093   8.912   0.350
 8535SOL    HW144292   5.011   8.861   0.376
 8535SOL    HW244293   5.122   8.969   0.427
 8536SOL     OW44294   4.445   4.406   6.525
 8536SOL    HW144295   4.537   4.380   6.553
 8536SOL    HW244296   4.439   4.506   6.519
 8537SOL     OW44297   7.565   2.178   1.154
 8537SOL    HW144298   7.617   2.146   1.233
 8537SOL    HW244299   7.628   2.195   1.077
 8538SOL     OW44300   0.688   7.517   2.256
 8538SOL    HW144301   0.621   7.576   2.211
 8538SOL    HW244302   0.768   7.506   2.197
 8539SOL     OW44303   7.109   3.331   1.035
 8539SOL    HW144304   7.058   3.245   1.042
 8539SOL    HW244305   7.151   3.351   1.124
 8540SOL     OW44306   0.884   0.827   7.913
 8540SOL    HW144307   0.961   0.890   7.916
 8540SOL    HW244308   0.912   0.738   7.948
 8541SOL     OW44309   1.252   8.871   0.962
 8541SOL    HW144310   1.293   8.828   0.881
 8541SOL    HW244311   1.307   8.950   0.989
 8542SOL     OW44312   3.122   1.204   6.772
 8542SOL    HW144313   3.173   1.134   6.822
 8542SOL    HW244314   3.184   1.249   6.707
 8543SOL     OW44315   6.879   9.167   0.370
 8543SOL    HW144316   6.817   9.168   0.292
 8543SOL    HW244317   6.831   9.133   0.451
 8544SOL     OW44318   0.666   6.602   1.007
 8544SOL    HW144319   0.712   6.515   1.025
 8544SOL    HW244320   0.608   6.592   0.926
 8545SOL     OW44321   1.739   7.663   6.961
 8545SOL    HW144322   1.832   7.626   6.955
 8545SOL    HW244323   1.681   7.616   6.894
 8546SOL     OW44324   3.533   7.236   8.195
 8546SOL    HW144325   3.548   7.310   8.260
 8546SOL    HW244326   3.552   7.270   8.102
 8547SOL     OW44327   1.869  10.151   1.001
 8547SOL    HW144328   1.939  10.165   0.930
 8547SOL    HW244329   1.871  10.229   1.064
 8548SOL     OW44330   1.005   2.189   0.492
 8548SOL    HW144331   0.911   2.221   0.483
 8548SOL    HW244332   1.012   2.094   0.462
 8549SOL     OW44333   2.960   7.557   0.569
 8549SOL    HW144334   2.988   7.611   0.649
 8549SOL    HW244335   3.017   7.580   0.491
 8550SOL     OW44336   6.756   0.570   0.652
 8550SOL    HW144337   6.754   0.596   0.556
 8550SOL    HW244338   6.766   0.471   0.660
 8551SOL     OW44339   8.581   4.546   7.439
 8551SOL    HW144340   8.668   4.544   7.390
 8551SOL    HW244341   8.513   4.593   7.384
 8552SOL     OW44342   9.543   2.513   0.858
 8552SOL    HW144343   9.539   2.444   0.931
 8552SOL    HW244344   9.580   2.471   0.775
 8553SOL     OW44345   7.196   9.820   1.499
 8553SOL    HW144346   7.194   9.852   1.594
 8553SOL    HW244347   7.234   9.891   1.441
 8554SOL     OW44348   4.222   9.969   5.870
 8554SOL    HW144349   4.168   9.885   5.867
 8554SOL    HW244350   4.172  10.043   5.824
 8555SOL     OW44351   2.621   6.758   1.410
 8555SOL    HW144352   2.530   6.754   1.452
 8555SOL    HW244353   2.626   6.693   1.335
 8556SOL     OW44354   8.753   4.321   8.733
 8556SOL    HW144355   8.844   4.287   8.709
 8556SOL    HW244356   8.742   4.414   8.696
 8557SOL     OW44357   0.877   1.858   8.067
 8557SOL    HW144358   0.938   1.910   8.127
 8557SOL    HW244359   0.783   1.870   8.097
 8558SOL     OW44360   7.848  10.486   1.571
 8558SOL    HW144361   7.929  10.429   1.583
 8558SOL    HW244362   7.858   0.066   1.625
 8559SOL     OW44363   2.376   3.915   6.673
 8559SOL    HW144364   2.361   3.967   6.589
 8559SOL    HW244365   2.436   3.838   6.655
 8560SOL     OW44366   6.662   3.836   1.892
 8560SOL    HW144367   6.734   3.768   1.880
 8560SOL    HW244368   6.697   3.914   1.943
 8561SOL     OW44369   8.446   9.003   6.463
 8561SOL    HW144370   8.481   9.096   6.454
 8561SOL    HW244371   8.421   8.967   6.373
 8562SOL     OW44372   1.346   4.669   8.210
 8562SOL    HW144373   1.389   4.580   8.226
 8562SOL    HW244374   1.315   4.707   8.297
 8563SOL     OW44375   3.864   9.250   0.385
 8563SOL    HW144376   3.787   9.313   0.394
 8563SOL    HW244377   3.907   9.262   0.296
 8564SOL     OW44378   2.960   0.079   6.225
 8564SOL    HW144379   3.032   0.074   6.155
 8564SOL    HW244380   2.888   0.014   6.202
 8565SOL     OW44381   1.472   0.583   1.669
 8565SOL    HW144382   1.536   0.650   1.632
 8565SOL    HW244383   1.513   0.539   1.749
 8566SOL     OW44384   7.288   0.657   0.980
 8566SOL    HW144385   7.331   0.702   1.059
 8566SOL    HW244386   7.269   0.561   1.002
 8567SOL     OW44387   4.203   1.189   0.025
 8567SOL    HW144388   4.185   1.091   0.034
 8567SOL    HW244389   4.300   1.204   0.005
 8568SOL     OW44390   9.501   1.870   7.331
 8568SOL    HW144391   9.472   1.891   7.238
 8568SOL    HW244392   9.446   1.923   7.396
 8569SOL     OW44393   5.062   1.177   8.515
 8569SOL    HW144394   5.122   1.237   8.462
 8569SOL    HW244395   5.008   1.231   8.579
 8570SOL     OW44396   3.936   5.269   1.046
 8570SOL    HW144397   3.964   5.236   0.956
 8570SOL    HW244398   3.842   5.242   1.065
 8571SOL     OW44399   0.025   2.846   0.342
 8571SOL    HW144400   0.019   2.945   0.332
 8571SOL    HW244401   0.012   2.821   0.438
 8572SOL     OW44402   8.379   3.308   2.421
 8572SOL    HW144403   8.373   3.288   2.519
 8572SOL    HW244404   8.397   3.224   2.370
 8573SOL     OW44405   1.036   4.429   6.563
 8573SOL    HW144406   1.019   4.363   6.489
 8573SOL    HW244407   1.130   4.463   6.555
 8574SOL     OW44408   5.204   9.855   6.443
 8574SOL    HW144409   5.208   9.923   6.516
 8574SOL    HW244410   5.112   9.852   6.404
 8575SOL     OW44411   3.351  10.228   6.789
 8575SOL    HW144412   3.391  10.309   6.831
 8575SOL    HW244413   3.423  10.171   6.750
 8576SOL     OW44414   2.487   5.805   6.113
 8576SOL    HW144415   2.467   5.878   6.047
 8576SOL    HW244416   2.570   5.757   6.085
 8577SOL     OW44417   5.540   0.837   0.417
 8577SOL    HW144418   5.568   0.742   0.400
 8577SOL    HW244419   5.587   0.872   0.497
 8578SOL     OW44420   0.038   6.617   6.803
 8578SOL    HW144421   0.092   6.581   6.727
 8578SOL    HW244422  10.106   6.646   6.770
 8579SOL     OW44423   7.802   9.438   8.761
 8579SOL    HW144424   7.891   9.479   8.743
 8579SOL    HW244425   7.761   9.409   8.674
 8580SOL     OW44426   8.893   6.221   6.912
 8580SOL    HW144427   8.959   6.267   6.971
 8580SOL    HW244428   8.910   6.122   6.914
 8581SOL     OW44429   8.900   6.487   8.133
 8581SOL    HW144430   8.993   6.496   8.167
 8581SOL    HW244431   8.836   6.521   8.203
 8582SOL     OW44432   8.984   0.369   0.012
 8582SOL    HW144433   8.957   0.273   0.019
 8582SOL    HW244434   8.964   0.402   8.702
 8583SOL     OW44435   8.416   5.379   7.600
 8583SOL    HW144436   8.502   5.412   7.640
 8583SOL    HW244437   8.347   5.369   7.672
 8584SOL     OW44438   1.730   4.982   7.823
 8584SOL    HW144439   1.807   5.034   7.787
 8584SOL    HW244440   1.741   4.969   7.922
 8585SOL     OW44441   9.239   1.679   1.736
 8585SOL    HW144442   9.142   1.667   1.715
 8585SOL    HW244443   9.266   1.617   1.809
 8586SOL     OW44444   7.295   6.292   6.623
 8586SOL    HW144445   7.282   6.313   6.526
 8586SOL    HW244446   7.367   6.223   6.633
 8587SOL     OW44447   2.961   8.029   7.023
 8587SOL    HW144448   2.866   8.055   7.004
 8587SOL    HW244449   2.964   7.933   7.053
 8588SOL     OW44450   0.175   8.869   1.263
 8588SOL    HW144451   0.270   8.859   1.292
 8588SOL    HW244452   0.165   8.832   1.171
 8589SOL     OW44453   0.557   5.168   0.756
 8589SOL    HW144454   0.603   5.102   0.815
 8589SOL    HW244455   0.625   5.226   0.711
 8590SOL     OW44456   2.726   4.866   0.100
 8590SOL    HW144457   2.686   4.955   0.121
 8590SOL    HW244458   2.693   4.798   0.166
 8591SOL     OW44459   7.961   2.517   8.219
 8591SOL    HW144460   7.944   2.615   8.216
 8591SOL    HW244461   7.883   2.471   8.261
 8592SOL     OW44462   7.591   8.062   8.119
 8592SOL    HW144463   7.509   8.024   8.077
 8592SOL    HW244464   7.587   8.048   8.218
 8593SOL     OW44465   4.097   6.364   8.471
 8593SOL    HW144466   4.014   6.380   8.418
 8593SOL    HW244467   4.108   6.266   8.488
 8594SOL     OW44468   7.165  10.328   2.585
 8594SOL    HW144469   7.245  10.272   2.606
 8594SOL    HW244470   7.195  10.416   2.547
 8595SOL     OW44471   9.774   7.186   0.719
 8595SOL    HW144472   9.805   7.094   0.697
 8595SOL    HW244473   9.781   7.244   0.638
 8596SOL     OW44474   7.887   3.627   0.695
 8596SOL    HW144475   7.983   3.636   0.721
 8596SOL    HW244476   7.832   3.608   0.776
 8597SOL     OW44477   5.352   2.128   8.635
 8597SOL    HW144478   5.258   2.123   8.600
 8597SOL    HW244479   5.351   2.174   8.724
 8598SOL     OW44480   5.206   4.105   7.636
 8598SOL    HW144481   5.165   4.118   7.726
 8598SOL    HW244482   5.275   4.033   7.641
 8599SOL     OW44483   7.583   1.605   1.399
 8599SOL    HW144484   7.622   1.692   1.430
 8599SOL    HW244485   7.484   1.614   1.392
 8600SOL     OW44486   6.109   5.286   6.682
 8600SOL    HW144487   6.028   5.342   6.669
 8600SOL    HW244488   6.158   5.278   6.594
 8601SOL     OW44489   5.246   4.169   1.559
 8601SOL    HW144490   5.239   4.166   1.659
 8601SOL    HW244491   5.293   4.252   1.531
 8602SOL     OW44492   6.770   8.541   7.244
 8602SOL    HW144493   6.737   8.568   7.335
 8602SOL    HW244494   6.695   8.543   7.179
 8603SOL     OW44495   0.364   9.164   8.458
 8603SOL    HW144496   0.389   9.150   8.362
 8603SOL    HW244497   0.352   9.262   8.476
 8604SOL     OW44498   7.951   4.166   7.740
 8604SOL    HW144499   7.943   4.264   7.760
 8604SOL    HW244500   7.990   4.119   7.820
 8605SOL     OW44501   5.341   1.573   2.201
 8605SOL    HW144502   5.419   1.606   2.255
 8605SOL    HW244503   5.259   1.626   2.226
 8606SOL     OW44504   9.639   6.223   8.752
 8606SOL    HW144505   9.581   6.179   8.683
 8606SOL    HW244506   9.583   6.285   0.026
 8607SOL     OW44507   9.150   3.042   7.808
 8607SOL    HW144508   9.234   3.066   7.855
 8607SOL    HW244509   9.084   3.116   7.816
 8608SOL     OW44510   1.385   4.952   7.260
 8608SOL    HW144511   1.430   4.865   7.280
 8608SOL    HW244512   1.446   5.027   7.283
 8609SOL     OW44513   4.506   8.394   1.643
 8609SOL    HW144514   4.563   8.351   1.713
 8609SOL    HW244515   4.412   8.359   1.651
 8610SOL     OW44516   5.112   9.314   0.591
 8610SOL    HW144517   5.043   9.332   0.521
 8610SOL    HW244518   5.190   9.375   0.578
 8611SOL     OW44519   0.066   4.919   8.155
 8611SOL    HW144520   0.040   4.889   8.064
 8611SOL    HW244521  10.145   4.959   8.201
 8612SOL     OW44522   4.687   3.709   1.182
 8612SOL    HW144523   4.665   3.806   1.171
 8612SOL    HW244524   4.777   3.699   1.225
 8613SOL     OW44525   2.385   0.777   8.414
 8613SOL    HW144526   2.436   0.850   8.369
 8613SOL    HW244527   2.371   0.799   8.510
 8614SOL     OW44528   5.394   9.427   7.003
 8614SOL    HW144529   5.364   9.350   7.060
 8614SOL    HW244530   5.421   9.503   7.062
 8615SOL     OW44531   2.585   3.195   7.612
 8615SOL    HW144532   2.514   3.128   7.593
 8615SOL    HW244533   2.634   3.168   7.695
 8616SOL     OW44534   0.138   4.555   1.794
 8616SOL    HW144535   0.217   4.604   1.832
 8616SOL    HW244536   0.161   4.459   1.782
 8617SOL     OW44537   8.338   7.184   7.053
 8617SOL    HW144538   8.319   7.141   7.141
 8617SOL    HW244539   8.321   7.118   6.980
 8618SOL     OW44540   2.170   6.133   2.109
 8618SOL    HW144541   2.161   6.054   2.169
 8618SOL    HW244542   2.237   6.196   2.147
 8619SOL     OW44543   2.839  10.185   8.409
 8619SOL    HW144544   2.939  10.186   8.417
 8619SOL    HW244545   2.810  10.269   8.363
 8620SOL     OW44546   1.147   5.364   7.534
 8620SOL    HW144547   1.209   5.365   7.612
 8620SOL    HW244548   1.086   5.284   7.541
 8621SOL     OW44549   6.467   9.592   2.061
 8621SOL    HW144550   6.475   9.518   1.995
 8621SOL    HW244551   6.559   9.627   2.083
 8622SOL     OW44552   1.332   2.603   8.243
 8622SOL    HW144553   1.356   2.510   8.216
 8622SOL    HW244554   1.301   2.603   8.338
 8623SOL     OW44555   0.864   8.737   2.255
 8623SOL    HW144556   0.877   8.688   2.341
 8623SOL    HW244557   0.807   8.682   2.194
 8624SOL     OW44558   3.677   3.281   0.456
 8624SOL    HW144559   3.683   3.200   0.397
 8624SOL    HW244560   3.768   3.304   0.491
 8625SOL     OW44561   5.626   3.774   7.340
 8625SOL    HW144562   5.693   3.813   7.277
 8625SOL    HW244563   5.589   3.690   7.302
 8626SOL     OW44564   0.492   7.315   1.610
 8626SOL    HW144565   0.409   7.297   1.662
 8626SOL    HW244566   0.486   7.406   1.569
 8627SOL     OW44567   2.710   7.739   8.648
 8627SOL    HW144568   2.742   7.658   8.697
 8627SOL    HW244569   2.617   7.761   8.676
 8628SOL     OW44570   5.867  10.079   1.858
 8628SOL    HW144571   5.805  10.004   1.834
 8628SOL    HW244572   5.878  10.083   1.957
 8629SOL     OW44573   3.502   0.966   7.161
 8629SOL    HW144574   3.483   1.005   7.251
 8629SOL    HW244575   3.551   0.879   7.173
 8630SOL     OW44576   4.116   3.199   1.755
 8630SOL    HW144577   4.027   3.172   1.718
 8630SOL    HW244578   4.119   3.177   1.853
 8631SOL     OW44579   0.956  10.139   6.495
 8631SOL    HW144580   0.981  10.042   6.500
 8631SOL    HW244581   0.918  10.158   6.404
 8632SOL     OW44582   1.907   9.760   6.482
 8632SOL    HW144583   1.995   9.713   6.472
 8632SOL    HW244584   1.848   9.708   6.543
 8633SOL     OW44585   4.012   4.695   0.292
 8633SOL    HW144586   4.040   4.652   0.378
 8633SOL    HW244587   3.927   4.653   0.260
 8634SOL     OW44588   9.923   3.560   8.149
 8634SOL    HW144589   9.979   3.636   8.180
 8634SOL    HW244590   9.831   3.568   8.188
 8635SOL     OW44591   0.289   7.697   8.456
 8635SOL    HW144592   0.375   7.682   8.408
 8635SOL    HW244593   0.230   7.617   8.444
 8636SOL     OW44594   0.064   9.529   1.598
 8636SOL    HW144595   0.123   9.546   1.519
 8636SOL    HW244596   0.029   9.616   1.633
 8637SOL     OW44597   9.167   4.981   1.264
 8637SOL    HW144598   9.184   5.038   1.184
 8637SOL    HW244599   9.187   4.886   1.244
 8638SOL     OW44600   1.614   2.151   0.618
 8638SOL    HW144601   1.647   2.076   0.674
 8638SOL    HW244602   1.614   2.124   0.521
 8639SOL     OW44603   8.927   1.299   1.976
 8639SOL    HW144604   8.936   1.394   2.004
 8639SOL    HW244605   8.856   1.254   2.030
 8640SOL     OW44606   7.252   9.535   7.379
 8640SOL    HW144607   7.222   9.510   7.287
 8640SOL    HW244608   7.351   9.554   7.378
 8641SOL     OW44609   0.988   4.414   0.861
 8641SOL    HW144610   1.046   4.393   0.940
 8641SOL    HW244611   0.922   4.485   0.887
 8642SOL     OW44612   2.801   8.681   1.274
 8642SOL    HW144613   2.841   8.753   1.331
 8642SOL    HW244614   2.848   8.595   1.290
 8643SOL     OW44615   8.982   7.906   7.324
 8643SOL    HW144616   8.911   7.871   7.384
 8643SOL    HW244617   8.942   7.973   7.261
 8644SOL     OW44618   2.363   2.020   1.815
 8644SOL    HW144619   2.443   2.045   1.868
 8644SOL    HW244620   2.337   1.926   1.835
 8645SOL     OW44621   7.041   9.470   1.253
 8645SOL    HW144622   7.000   9.397   1.307
 8645SOL    HW244623   6.974   9.542   1.237
 8646SOL     OW44624  10.082   0.694   7.488
 8646SOL    HW144625  10.086   0.605   7.443
 8646SOL    HW244626  10.023   0.688   7.568
 8647SOL     OW44627   4.503   1.546   6.334
 8647SOL    HW144628   4.536   1.556   6.240
 8647SOL    HW244629   4.495   1.637   6.376
 8648SOL     OW44630   6.685   8.971   1.460
 8648SOL    HW144631   6.738   8.919   1.528
 8648SOL    HW244632   6.740   8.983   1.377
 8649SOL     OW44633   2.448   3.675   7.403
 8649SOL    HW144634   2.425   3.581   7.376
 8649SOL    HW244635   2.379   3.709   7.467
 8650SOL     OW44636   2.897   9.467   0.981
 8650SOL    HW144637   2.878   9.414   0.899
 8650SOL    HW244638   2.886   9.565   0.962
 8651SOL     OW44639   1.947   7.629   8.080
 8651SOL    HW144640   1.947   7.667   7.987
 8651SOL    HW244641   1.914   7.535   8.078
 8652SOL     OW44642   2.358   4.382   2.095
 8652SOL    HW144643   2.308   4.321   2.155
 8652SOL    HW244644   2.444   4.408   2.138
 8653SOL     OW44645   5.948   6.558   8.759
 8653SOL    HW144646   5.920   6.536   8.666
 8653SOL    HW244647   5.895   6.503   0.042
 8654SOL     OW44648   8.076   1.029   0.283
 8654SOL    HW144649   8.075   1.065   0.376
 8654SOL    HW244650   8.170   1.006   0.257
 8655SOL     OW44651   7.470   9.141   1.591
 8655SOL    HW144652   7.506   9.198   1.517
 8655SOL    HW244653   7.379   9.172   1.616
 8656SOL     OW44654   9.344   1.371   7.359
 8656SOL    HW144655   9.290   1.372   7.275
 8656SOL    HW244656   9.396   1.456   7.366
 8657SOL     OW44657   2.912  10.314   1.631
 8657SOL    HW144658   2.950  10.407   1.626
 8657SOL    HW244659   2.886  10.294   1.725
 8658SOL     OW44660   9.973  10.063   0.850
 8658SOL    HW144661   9.990  10.089   0.945
 8658SOL    HW244662  10.027  10.120   0.789
 8659SOL     OW44663   8.140   4.759   8.719
 8659SOL    HW144664   8.210   4.820   8.755
 8659SOL    HW244665   8.184   4.680   8.675
 8660SOL     OW44666   4.264   7.521   2.438
 8660SOL    HW144667   4.231   7.431   2.468
 8660SOL    HW244668   4.194   7.590   2.458
 8661SOL     OW44669   0.641   4.913   8.639
 8661SOL    HW144670   0.714   4.951   8.696
 8661SOL    HW244671   0.674   4.901   8.545
 8662SOL     OW44672   2.855   0.831   7.852
 8662SOL    HW144673   2.783   0.781   7.805
 8662SOL    HW244674   2.939   0.777   7.851
 8663SOL     OW44675   8.480   2.172   0.341
 8663SOL    HW144676   8.485   2.269   0.365
 8663SOL    HW244677   8.389   2.152   0.304
 8664SOL     OW44678   6.486   8.017   8.765
 8664SOL    HW144679   6.567   8.068   8.737
 8664SOL    HW244680   6.492   7.923   8.729
 8665SOL     OW44681   1.787   3.814   0.932
 8665SOL    HW144682   1.850   3.845   1.003
 8665SOL    HW244683   1.694   3.809   0.969
 8666SOL     OW44684   2.926   8.962   1.037
 8666SOL    HW144685   2.845   8.904   1.048
 8666SOL    HW244686   2.941   9.015   1.121
 8667SOL     OW44687   8.236   7.812   0.788
 8667SOL    HW144688   8.259   7.910   0.788
 8667SOL    HW244689   8.299   7.762   0.730
 8668SOL     OW44690   8.118   7.801   6.624
 8668SOL    HW144691   8.079   7.816   6.533
 8668SOL    HW244692   8.199   7.858   6.635
 8669SOL     OW44693   0.312   6.155   7.187
 8669SOL    HW144694   0.349   6.075   7.141
 8669SOL    HW244695   0.310   6.232   7.123
 8670SOL     OW44696   0.179   1.220   6.299
 8670SOL    HW144697   0.268   1.202   6.256
 8670SOL    HW244698   0.106   1.180   6.243
 8671SOL     OW44699   4.089   0.999   6.894
 8671SOL    HW144700   4.011   1.053   6.924
 8671SOL    HW244701   4.173   1.051   6.911
 8672SOL     OW44702   8.153   2.319   1.153
 8672SOL    HW144703   8.056   2.309   1.176
 8672SOL    HW244704   8.205   2.245   1.195
 8673SOL     OW44705   0.201   7.300   1.446
 8673SOL    HW144706   0.201   7.289   1.546
 8673SOL    HW244707   0.202   7.398   1.424
 8674SOL     OW44708   8.456   3.840   7.406
 8674SOL    HW144709   8.417   3.765   7.354
 8674SOL    HW244710   8.530   3.806   7.463
 8675SOL     OW44711   6.385   6.140   1.348
 8675SOL    HW144712   6.439   6.165   1.267
 8675SOL    HW244713   6.372   6.220   1.406
 8676SOL     OW44714   4.626   2.492   1.207
 8676SOL    HW144715   4.578   2.515   1.292
 8676SOL    HW244716   4.704   2.433   1.228
 8677SOL     OW44717   4.017   6.064   0.219
 8677SOL    HW144718   4.032   6.139   0.284
 8677SOL    HW244719   4.046   5.978   0.260
 8678SOL     OW44720   5.717   2.013   8.411
 8678SOL    HW144721   5.724   2.042   8.315
 8678SOL    HW244722   5.808   1.985   8.443
 8679SOL     OW44723  10.072   2.932   1.081
 8679SOL    HW144724  10.140   2.989   1.037
 8679SOL    HW244725  10.022   2.880   1.011
 8680SOL     OW44726   1.527   0.752   2.007
 8680SOL    HW144727   1.429   0.771   2.013
 8680SOL    HW244728   1.570   0.772   2.095
 8681SOL     OW44729   9.060   1.203   0.714
 8681SOL    HW144730   9.063   1.259   0.631
 8681SOL    HW244731   8.966   1.180   0.736
 8682SOL     OW44732   3.133   6.344   1.613
 8682SOL    HW144733   3.195   6.393   1.675
 8682SOL    HW244734   3.045   6.392   1.610
 8683SOL     OW44735   9.267   7.740   0.546
 8683SOL    HW144736   9.276   7.824   0.492
 8683SOL    HW244737   9.325   7.669   0.507
 8684SOL     OW44738   2.447   2.934   1.560
 8684SOL    HW144739   2.432   2.955   1.463
 8684SOL    HW244740   2.424   2.838   1.577
 8685SOL     OW44741   7.355   0.329   7.473
 8685SOL    HW144742   7.340   0.245   7.419
 8685SOL    HW244743   7.404   0.396   7.416
 8686SOL     OW44744   9.069   3.143   8.438
 8686SOL    HW144745   8.996   3.080   8.465
 8686SOL    HW244746   9.157   3.094   8.438
 8687SOL     OW44747   5.971   1.080   7.661
 8687SOL    HW144748   5.899   1.024   7.620
 8687SOL    HW244749   5.959   1.084   7.760
 8688SOL     OW44750   9.513   8.631   6.845
 8688SOL    HW144751   9.518   8.576   6.762
 8688SOL    HW244752   9.469   8.718   6.825
 8689SOL     OW44753   9.239   4.474   1.110
 8689SOL    HW144754   9.180   4.467   1.030
 8689SOL    HW244755   9.334   4.489   1.081
 8690SOL     OW44756   9.269   5.868   0.567
 8690SOL    HW144757   9.347   5.882   0.506
 8690SOL    HW244758   9.202   5.808   0.523
 8691SOL     OW44759   9.918   8.292   8.680
 8691SOL    HW144760  10.001   8.303   8.627
 8691SOL    HW244761   9.839   8.293   8.619
 8692SOL     OW44762   8.775   4.598   1.024
 8692SOL    HW144763   8.829   4.514   1.028
 8692SOL    HW244764   8.776   4.633   0.930
 8693SOL     OW44765   2.026   9.032   1.818
 8693SOL    HW144766   2.019   8.978   1.902
 8693SOL    HW244767   2.114   9.079   1.816
 8694SOL     OW44768   9.583   7.221   1.530
 8694SOL    HW144769   9.539   7.259   1.611
 8694SOL    HW244770   9.606   7.125   1.546
 8695SOL     OW44771   2.921   1.303   6.957
 8695SOL    HW144772   2.967   1.242   6.892
 8695SOL    HW244773   2.823   1.282   6.960
 8696SOL     OW44774   1.260   0.806   2.014
 8696SOL    HW144775   1.217   0.738   2.073
 8696SOL    HW244776   1.252   0.896   2.056
 8697SOL     OW44777   1.936   8.185   0.565
 8697SOL    HW144778   1.943   8.248   0.488
 8697SOL    HW244779   1.849   8.136   0.561
 8698SOL     OW44780   2.936   8.562   8.323
 8698SOL    HW144781   3.023   8.535   8.364
 8698SOL    HW244782   2.949   8.642   8.265
 8699SOL     OW44783   1.444   0.191   0.264
 8699SOL    HW144784   1.383   0.162   0.189
 8699SOL    HW244785   1.422   0.139   0.346
 8700SOL     OW44786   3.384   1.700   0.710
 8700SOL    HW144787   3.424   1.633   0.647
 8700SOL    HW244788   3.287   1.681   0.722
 8701SOL     OW44789   0.414   6.381   1.509
 8701SOL    HW144790   0.458   6.467   1.485
 8701SOL    HW244791   0.424   6.316   1.433
 8702SOL     OW44792   0.784   0.072   0.747
 8702SOL    HW144793   0.841   0.154   0.744
 8702SOL    HW244794   0.819   0.005   0.682
 8703SOL     OW44795   3.626  10.444   1.268
 8703SOL    HW144796   3.651  10.350   1.243
 8703SOL    HW244797   3.658   0.004   1.198
 8704SOL     OW44798   5.056   4.416   6.665
 8704SOL    HW144799   5.042   4.437   6.762
 8704SOL    HW244800   5.108   4.490   6.622
 8705SOL     OW44801   0.919   9.711   0.637
 8705SOL    HW144802   0.934   9.779   0.709
 8705SOL    HW244803   0.852   9.644   0.667
 8706SOL     OW44804   2.671   3.298   1.188
 8706SOL    HW144805   2.704   3.228   1.125
 8706SOL    HW244806   2.645   3.256   1.274
 8707SOL     OW44807   2.253   2.532   2.016
 8707SOL    HW144808   2.250   2.601   2.087
 8707SOL    HW244809   2.335   2.544   1.960
 8708SOL     OW44810   8.291   4.257   8.591
 8708SOL    HW144811   8.384   4.224   8.606
 8708SOL    HW244812   8.292   4.357   8.590
 8709SOL     OW44813   1.212   0.535   7.115
 8709SOL    HW144814   1.267   0.556   7.196
 8709SOL    HW244815   1.148   0.461   7.137
 8710SOL     OW44816   0.625   0.600   0.583
 8710SOL    HW144817   0.613   0.649   0.497
 8710SOL    HW244818   0.717   0.562   0.587
 8711SOL     OW44819   3.397   7.385   0.682
 8711SOL    HW144820   3.344   7.307   0.648
 8711SOL    HW244821   3.358   7.416   0.769
 8712SOL     OW44822   1.351   0.386   6.938
 8712SOL    HW144823   1.301   0.444   7.002
 8712SOL    HW244824   1.424   0.439   6.894
 8713SOL     OW44825   6.397   8.632   8.444
 8713SOL    HW144826   6.298   8.630   8.461
 8713SOL    HW244827   6.445   8.629   8.531
 8714SOL     OW44828   5.635   5.284   0.156
 8714SOL    HW144829   5.706   5.351   0.176
 8714SOL    HW244830   5.553   5.307   0.209
 8715SOL     OW44831   5.055   4.563   0.547
 8715SOL    HW144832   4.989   4.523   0.611
 8715SOL    HW244833   5.031   4.535   0.453
 8716SOL     OW44834   6.488   0.489   0.980
 8716SOL    HW144835   6.509   0.570   0.924
 8716SOL    HW244836   6.568   0.429   0.982
 8717SOL     OW44837   7.873   2.462   7.133
 8717SOL    HW144838   7.939   2.530   7.165
 8717SOL    HW244839   7.809   2.506   7.069
 8718SOL     OW44840   8.154   8.417   8.215
 8718SOL    HW144841   8.075   8.358   8.198
 8718SOL    HW244842   8.136   8.475   8.295
 8719SOL     OW44843   4.073   5.258   1.776
 8719SOL    HW144844   4.030   5.273   1.865
 8719SOL    HW244845   4.007   5.216   1.714
 8720SOL     OW44846   3.741   0.839   0.700
 8720SOL    HW144847   3.746   0.838   0.600
 8720SOL    HW244848   3.726   0.933   0.731
 8721SOL     OW44849   9.494   0.330   8.091
 8721SOL    HW144850   9.435   0.310   8.013
 8721SOL    HW244851   9.567   0.391   8.062
 8722SOL     OW44852   0.609   9.371   7.160
 8722SOL    HW144853   0.564   9.364   7.249
 8722SOL    HW244854   0.652   9.284   7.138
 8723SOL     OW44855   4.110   4.151   1.726
 8723SOL    HW144856   4.025   4.198   1.699
 8723SOL    HW244857   4.130   4.171   1.822
 8724SOL     OW44858   0.868  10.422   7.280
 8724SOL    HW144859   0.799  10.373   7.226
 8724SOL    HW244860   0.959  10.386   7.259
 8725SOL     OW44861   5.205   8.142   0.351
 8725SOL    HW144862   5.168   8.107   0.437
 8725SOL    HW244863   5.260   8.071   0.307
 8726SOL     OW44864   8.130  10.430   8.412
 8726SOL    HW144865   8.228  10.446   8.421
 8726SOL    HW244866   8.113  10.334   8.392
 8727SOL     OW44867   7.774   8.809   0.695
 8727SOL    HW144868   7.812   8.876   0.630
 8727SOL    HW244869   7.716   8.856   0.761
 8728SOL     OW44870   9.945   1.009   1.441
 8728SOL    HW144871   9.884   1.049   1.509
 8728SOL    HW244872   9.892   0.951   1.379
 8729SOL     OW44873   4.200   7.300   7.384
 8729SOL    HW144874   4.224   7.337   7.294
 8729SOL    HW244875   4.156   7.372   7.438
 8730SOL     OW44876   7.749   3.363   8.113
 8730SOL    HW144877   7.686   3.308   8.167
 8730SOL    HW244878   7.754   3.327   8.020
 8731SOL     OW44879   3.641  10.001   7.882
 8731SOL    HW144880   3.733  10.025   7.909
 8731SOL    HW244881   3.590  10.084   7.857
 8732SOL     OW44882   4.127   2.024   2.064
 8732SOL    HW144883   4.222   2.011   2.035
 8732SOL    HW244884   4.078   2.078   1.995
 8733SOL     OW44885   1.168   4.404   1.915
 8733SOL    HW144886   1.091   4.341   1.915
 8733SOL    HW244887   1.188   4.433   2.009
 8734SOL     OW44888   1.322   3.015   0.604
 8734SOL    HW144889   1.386   3.086   0.576
 8734SOL    HW244890   1.353   2.974   0.690
 8735SOL     OW44891   0.889   9.818   6.711
 8735SOL    HW144892   0.950   9.845   6.637
 8735SOL    HW244893   0.795   9.845   6.688
 8736SOL     OW44894   2.986   6.946   7.951
 8736SOL    HW144895   2.984   6.917   7.855
 8736SOL    HW244896   3.053   7.020   7.962
 8737SOL     OW44897   9.131   3.788   7.036
 8737SOL    HW144898   9.137   3.726   6.958
 8737SOL    HW244899   9.105   3.879   7.004
 8738SOL     OW44900   8.045   4.389   0.146
 8738SOL    HW144901   8.142   4.400   0.163
 8738SOL    HW244902   8.027   4.394   0.047
 8739SOL     OW44903   0.067   1.879   7.326
 8739SOL    HW144904   0.119   1.795   7.339
 8739SOL    HW244905   0.031   1.882   7.232
 8740SOL     OW44906   8.876   2.976   0.055
 8740SOL    HW144907   8.838   3.041   0.121
 8740SOL    HW244908   8.806   2.909   0.030
 8741SOL     OW44909   7.932  10.362   0.450
 8741SOL    HW144910   7.854  10.422   0.465
 8741SOL    HW244911   7.980  10.346   0.536
 8742SOL     OW44912   0.923   5.673   8.012
 8742SOL    HW144913   1.011   5.701   7.973
 8742SOL    HW244914   0.901   5.581   7.980
 8743SOL     OW44915   0.946   8.088   7.802
 8743SOL    HW144916   1.039   8.115   7.826
 8743SOL    HW244917   0.942   8.068   7.704
 8744SOL     OW44918   2.040   1.542   1.825
 8744SOL    HW144919   2.083   1.466   1.776
 8744SOL    HW244920   1.941   1.527   1.831
 8745SOL     OW44921   6.763   4.447   7.666
 8745SOL    HW144922   6.826   4.395   7.607
 8745SOL    HW244923   6.681   4.471   7.615
 8746SOL     OW44924   2.173   3.568   1.013
 8746SOL    HW144925   2.213   3.612   0.933
 8746SOL    HW244926   2.245   3.540   1.076
 8747SOL     OW44927   3.643   4.891   6.875
 8747SOL    HW144928   3.732   4.857   6.844
 8747SOL    HW244929   3.608   4.958   6.810
 8748SOL     OW44930   7.129   9.057   0.364
 8748SOL    HW144931   7.036   9.092   0.350
 8748SOL    HW244932   7.184   9.125   0.411
 8749SOL     OW44933   4.369   7.873   6.339
 8749SOL    HW144934   4.459   7.840   6.309
 8749SOL    HW244935   4.304   7.866   6.263
 8750SOL     OW44936   9.393   9.571   7.193
 8750SOL    HW144937   9.313   9.614   7.154
 8750SOL    HW244938   9.438   9.634   7.256
 8751SOL     OW44939   7.973   6.800   7.061
 8751SOL    HW144940   7.921   6.871   7.014
 8751SOL    HW244941   7.933   6.784   7.152
 8752SOL     OW44942   8.114   4.605   0.432
 8752SOL    HW144943   8.185   4.533   0.432
 8752SOL    HW244944   8.096   4.634   0.338
 8753SOL     OW44945   6.426   4.809   1.006
 8753SOL    HW144946   6.515   4.812   0.960
 8753SOL    HW244947   6.364   4.750   0.955
 8754SOL     OW44948   3.245  10.043   8.056
 8754SOL    HW144949   3.299   9.991   7.991
 8754SOL    HW244950   3.282  10.136   8.063
 8755SOL     OW44951   0.119   2.998   0.053
 8755SOL    HW144952   0.189   3.068   0.039
 8755SOL    HW244953   0.057   3.027   0.127
 8756SOL     OW44954   0.107   5.048   6.937
 8756SOL    HW144955   0.134   5.031   7.031
 8756SOL    HW244956   0.010   5.028   6.926
 8757SOL     OW44957   4.316   7.924   7.457
 8757SOL    HW144958   4.301   7.892   7.551
 8757SOL    HW244959   4.378   7.862   7.410
 8758SOL     OW44960   9.028   1.072   1.853
 8758SOL    HW144961   9.002   1.158   1.899
 8758SOL    HW244962   8.955   1.045   1.790
 8759SOL     OW44963   0.965   0.123   8.609
 8759SOL    HW144964   0.916   0.049   8.562
 8759SOL    HW244965   0.974   0.201   8.547
 8760SOL     OW44966   7.433   2.672   7.429
 8760SOL    HW144967   7.389   2.688   7.341
 8760SOL    HW244968   7.375   2.613   7.486
 8761SOL     OW44969   1.870   8.184   1.017
 8761SOL    HW144970   1.833   8.253   1.080
 8761SOL    HW244971   1.904   8.106   1.070
 8762SOL     OW44972   0.048   9.639   0.323
 8762SOL    HW144973   0.050   9.579   0.243
 8762SOL    HW244974   0.085   9.728   0.299
 8763SOL     OW44975   5.529   9.589   1.198
 8763SOL    HW144976   5.493   9.527   1.267
 8763SOL    HW244977   5.456   9.615   1.135
 8764SOL     OW44978   9.764   8.794   0.474
 8764SOL    HW144979   9.697   8.776   0.402
 8764SOL    HW244980   9.837   8.853   0.439
 8765SOL     OW44981   7.148   5.768   1.718
 8765SOL    HW144982   7.077   5.767   1.788
 8765SOL    HW244983   7.128   5.698   1.649
 8766SOL     OW44984   8.556   8.884   0.148
 8766SOL    HW144985   8.638   8.875   0.092
 8766SOL    HW244986   8.492   8.947   0.104
 8767SOL     OW44987   5.273   1.245   1.157
 8767SOL    HW144988   5.290   1.263   1.254
 8767SOL    HW244989   5.189   1.291   1.129
 8768SOL     OW44990   1.103  10.214   0.512
 8768SOL    HW144991   1.125  10.217   0.414
 8768SOL    HW244992   1.058  10.127   0.533
 8769SOL     OW44993   1.387   9.054   7.183
 8769SOL    HW144994   1.368   9.150   7.163
 8769SOL    HW244995   1.301   9.003   7.186
 8770SOL     OW44996   5.217   1.766   6.369
 8770SOL    HW144997   5.134   1.752   6.315
 8770SOL    HW244998   5.192   1.794   6.462
 8771SOL     OW44999   0.855   8.377   0.777
 8771SOL    HW145000   0.805   8.352   0.860
 8771SOL    HW245001   0.822   8.465   0.744
 8772SOL     OW45002   6.903   3.914   7.387
 8772SOL    HW145003   6.892   3.876   7.294
 8772SOL    HW245004   6.998   3.942   7.400
 8773SOL     OW45005   5.312   4.544   6.992
 8773SOL    HW145006   5.285   4.639   6.975
 8773SOL    HW245007   5.405   4.542   7.029
 8774SOL     OW45008   3.917   8.312   8.442
 8774SOL    HW145009   3.891   8.403   8.474
 8774SOL    HW245010   4.017   8.304   8.443
 8775SOL     OW45011   3.836   6.443   1.605
 8775SOL    HW145012   3.884   6.482   1.527
 8775SOL    HW245013   3.807   6.350   1.583
 8776SOL     OW45014   7.309   7.085   7.320
 8776SOL    HW145015   7.293   7.182   7.341
 8776SOL    HW245016   7.363   7.044   7.393
 8777SOL     OW45017   3.680   2.249   8.606
 8777SOL    HW145018   3.687   2.304   8.689
 8777SOL    HW245019   3.750   2.177   8.608
 8778SOL     OW45020   3.176   9.902   0.163
 8778SOL    HW145021   3.266   9.946   0.161
 8778SOL    HW245022   3.183   9.810   0.126
 8779SOL     OW45023   2.014   7.230   8.687
 8779SOL    HW145024   2.077   7.272   8.752
 8779SOL    HW245025   2.066   7.182   8.616
 8780SOL     OW45026   5.820   1.703   6.643
 8780SOL    HW145027   5.740   1.659   6.602
 8780SOL    HW245028   5.873   1.749   6.572
 8781SOL     OW45029   5.986   7.375   7.764
 8781SOL    HW145030   6.012   7.410   7.854
 8781SOL    HW245031   6.001   7.276   7.761
 8782SOL     OW45032   0.899   1.760   6.821
 8782SOL    HW145033   0.950   1.845   6.819
 8782SOL    HW245034   0.865   1.739   6.729
 8783SOL     OW45035   7.966   8.932   0.929
 8783SOL    HW145036   7.996   8.851   0.878
 8783SOL    HW245037   7.979   8.917   1.027
 8784SOL     OW45038   8.350   0.571   6.922
 8784SOL    HW145039   8.425   0.541   6.864
 8784SOL    HW245040   8.331   0.668   6.905
 8785SOL     OW45041   3.752   3.114   1.022
 8785SOL    HW145042   3.723   3.204   1.053
 8785SOL    HW245043   3.849   3.101   1.041
 8786SOL     OW45044   2.462   6.139   6.953
 8786SOL    HW145045   2.427   6.161   6.862
 8786SOL    HW245046   2.401   6.179   7.022
 8787SOL     OW45047   1.340   6.260   1.634
 8787SOL    HW145048   1.244   6.247   1.610
 8787SOL    HW245049   1.348   6.278   1.732
 8788SOL     OW45050   3.910   7.163   7.666
 8788SOL    HW145051   3.976   7.100   7.709
 8788SOL    HW245052   3.926   7.165   7.567
 8789SOL     OW45053   5.228   3.637   0.763
 8789SOL    HW145054   5.238   3.544   0.796
 8789SOL    HW245055   5.237   3.638   0.663
 8790SOL     OW45056   7.797   3.257   2.449
 8790SOL    HW145057   7.738   3.214   2.517
 8790SOL    HW245058   7.779   3.355   2.446
 8791SOL     OW45059   8.479   6.074   6.905
 8791SOL    HW145060   8.426   6.022   6.972
 8791SOL    HW245061   8.537   6.012   6.852
 8792SOL     OW45062   2.197   1.363   1.694
 8792SOL    HW145063   2.281   1.416   1.698
 8792SOL    HW245064   2.206   1.280   1.749
 8793SOL     OW45065   1.881   9.813   8.632
 8793SOL    HW145066   1.888   9.872   8.553
 8793SOL    HW245067   1.934   9.729   8.616
 8794SOL     OW45068   4.167   3.528   8.349
 8794SOL    HW145069   4.220   3.611   8.333
 8794SOL    HW245070   4.156   3.513   8.447
 8795SOL     OW45071   6.896  10.004   1.831
 8795SOL    HW145072   6.889   9.976   1.926
 8795SOL    HW245073   6.872  10.101   1.823
 8796SOL     OW45074   7.483   1.560   7.940
 8796SOL    HW145075   7.387   1.553   7.912
 8796SOL    HW245076   7.528   1.471   7.928
 8797SOL     OW45077   8.764   5.672   7.569
 8797SOL    HW145078   8.803   5.763   7.581
 8797SOL    HW245079   8.823   5.618   7.509
 8798SOL     OW45080   5.472   9.426   1.410
 8798SOL    HW145081   5.445   9.506   1.464
 8798SOL    HW245082   5.548   9.379   1.455
 8799SOL     OW45083   7.505   3.726   7.975
 8799SOL    HW145084   7.597   3.702   8.007
 8799SOL    HW245085   7.480   3.665   7.900
 8800SOL     OW45086   1.003   0.093   0.096
 8800SOL    HW145087   0.984   0.186   0.130
 8800SOL    HW245088   0.982   0.089   8.780
 8801SOL     OW45089   3.267   7.038   7.364
 8801SOL    HW145090   3.331   6.964   7.344
 8801SOL    HW245091   3.173   7.002   7.363
 8802SOL     OW45092   7.591   3.378   0.675
 8802SOL    HW145093   7.566   3.393   0.771
 8802SOL    HW245094   7.573   3.283   0.651
 8803SOL     OW45095   3.306   9.676   6.683
 8803SOL    HW145096   3.219   9.650   6.641
 8803SOL    HW245097   3.320   9.774   6.673
 8804SOL     OW45098   2.932   2.127   1.142
 8804SOL    HW145099   3.001   2.060   1.117
 8804SOL    HW245100   2.883   2.096   1.224
 8805SOL     OW45101   4.553   8.270   7.724
 8805SOL    HW145102   4.556   8.227   7.633
 8805SOL    HW245103   4.458   8.282   7.752
 8806SOL     OW45104   5.447   9.672   1.541
 8806SOL    HW145105   5.466   9.745   1.476
 8806SOL    HW245106   5.529   9.654   1.596
 8807SOL     OW45107   5.892   6.022   1.048
 8807SOL    HW145108   5.804   5.985   1.078
 8807SOL    HW245109   5.933   6.077   1.121
 8808SOL     OW45110   2.436   0.192   7.677
 8808SOL    HW145111   2.381   0.158   7.602
 8808SOL    HW245112   2.484   0.275   7.649
 8809SOL     OW45113   1.322   1.951   6.201
 8809SOL    HW145114   1.235   1.906   6.182
 8809SOL    HW245115   1.386   1.932   6.128
 8810SOL     OW45116   1.984   6.562   7.209
 8810SOL    HW145117   1.922   6.598   7.279
 8810SOL    HW245118   1.935   6.552   7.123
 8811SOL     OW45119   5.604   7.779   6.554
 8811SOL    HW145120   5.657   7.733   6.482
 8811SOL    HW245121   5.551   7.712   6.604
 8812SOL     OW45122   1.919   2.010   7.332
 8812SOL    HW145123   1.915   1.971   7.424
 8812SOL    HW245124   1.935   2.109   7.338
 8813SOL     OW45125   5.857   3.564   1.601
 8813SOL    HW145126   5.847   3.470   1.568
 8813SOL    HW245127   5.775   3.591   1.651
 8814SOL     OW45128   6.254   6.007   7.751
 8814SOL    HW145129   6.161   6.022   7.717
 8814SOL    HW245130   6.273   5.909   7.750
 8815SOL     OW45131   5.489   2.266   8.444
 8815SOL    HW145132   5.441   2.210   8.511
 8815SOL    HW245133   5.586   2.273   8.470
 8816SOL     OW45134   7.217   8.684   0.071
 8816SOL    HW145135   7.253   8.679   8.760
 8816SOL    HW245136   7.123   8.649   0.073
 8817SOL     OW45137   9.055   9.984   1.771
 8817SOL    HW145138   8.973   9.944   1.811
 8817SOL    HW245139   9.115  10.016   1.845
 8818SOL     OW45140   6.837   6.978   7.766
 8818SOL    HW145141   6.817   6.973   7.864
 8818SOL    HW245142   6.813   6.891   7.722
 8819SOL     OW45143   8.374   8.291   7.814
 8819SOL    HW145144   8.280   8.322   7.832
 8819SOL    HW245145   8.378   8.249   7.724
 8820SOL     OW45146   4.991   6.822   7.984
 8820SOL    HW145147   5.089   6.838   7.999
 8820SOL    HW245148   4.967   6.732   8.019
 8821SOL     OW45149   4.620   3.322   1.119
 8821SOL    HW145150   4.535   3.284   1.156
 8821SOL    HW245151   4.598   3.403   1.063
 8822SOL     OW45152   4.675   4.882   8.505
 8822SOL    HW145153   4.678   4.942   8.585
 8822SOL    HW245154   4.628   4.797   8.529
 8823SOL     OW45155   2.576   0.554   7.928
 8823SOL    HW145156   2.486   0.511   7.933
 8823SOL    HW245157   2.577   0.621   7.854
 8824SOL     OW45158   0.960   1.573   0.041
 8824SOL    HW145159   0.898   1.651   0.046
 8824SOL    HW245160   1.053   1.604   0.058
 8825SOL     OW45161   6.705   6.289   1.925
 8825SOL    HW145162   6.609   6.260   1.927
 8825SOL    HW245163   6.719   6.363   1.990
 8826SOL     OW45164   8.006   3.399   7.885
 8826SOL    HW145165   7.916   3.362   7.864
 8826SOL    HW245166   8.002   3.499   7.886
 8827SOL     OW45167   4.969   4.461   0.308
 8827SOL    HW145168   4.872   4.444   0.320
 8827SOL    HW245169   5.020   4.377   0.326
 8828SOL     OW45170   8.139  10.338   7.971
 8828SOL    HW145171   8.135  10.418   8.032
 8828SOL    HW245172   8.049  10.295   7.967
 8829SOL     OW45173   1.372   1.195   7.789
 8829SOL    HW145174   1.297   1.161   7.732
 8829SOL    HW245175   1.393   1.128   7.860
 8830SOL     OW45176   9.249   7.346   0.631
 8830SOL    HW145177   9.179   7.276   0.616
 8830SOL    HW245178   9.277   7.344   0.727
 8831SOL     OW45179   2.744   5.111   6.848
 8831SOL    HW145180   2.814   5.179   6.827
 8831SOL    HW245181   2.656   5.156   6.862
 8832SOL     OW45182   0.336   3.066   0.827
 8832SOL    HW145183   0.433   3.051   0.847
 8832SOL    HW245184   0.303   2.995   0.766
 8833SOL     OW45185   2.113   5.031   6.151
 8833SOL    HW145186   2.039   4.997   6.093
 8833SOL    HW245187   2.200   4.992   6.120
 8834SOL     OW45188   4.881   8.754   0.426
 8834SOL    HW145189   4.789   8.752   0.388
 8834SOL    HW245190   4.929   8.670   0.402
 8835SOL     OW45191   9.913   4.473   2.455
 8835SOL    HW145192   9.970   4.402   2.413
 8835SOL    HW245193   9.970   4.551   2.480
 8836SOL     OW45194   6.677   4.123   0.381
 8836SOL    HW145195   6.587   4.157   0.409
 8836SOL    HW245196   6.748   4.184   0.416
 8837SOL     OW45197   2.406   8.651   1.438
 8837SOL    HW145198   2.337   8.614   1.376
 8837SOL    HW245199   2.444   8.735   1.399
 8838SOL     OW45200   2.864   6.459   1.209
 8838SOL    HW145201   2.939   6.513   1.250
 8838SOL    HW245202   2.859   6.371   1.255
 8839SOL     OW45203   6.574   9.548   8.389
 8839SOL    HW145204   6.639   9.526   8.462
 8839SOL    HW245205   6.493   9.593   8.429
 8840SOL     OW45206   1.584   1.983   6.029
 8840SOL    HW145207   1.557   1.888   6.018
 8840SOL    HW245208   1.574   2.031   5.942
 8841SOL     OW45209   3.089   1.680   7.134
 8841SOL    HW145210   3.092   1.605   7.068
 8841SOL    HW245211   3.079   1.642   7.226
 8842SOL     OW45212   8.222   2.114   7.156
 8842SOL    HW145213   8.232   2.211   7.134
 8842SOL    HW245214   8.173   2.068   7.082
 8843SOL     OW45215   7.559   3.119   0.607
 8843SOL    HW145216   7.577   3.073   0.694
 8843SOL    HW245217   7.470   3.090   0.572
 8844SOL     OW45218   1.829   7.708   1.516
 8844SOL    HW145219   1.833   7.648   1.596
 8844SOL    HW245220   1.733   7.731   1.496
 8845SOL     OW45221   5.031   4.604   7.279
 8845SOL    HW145222   4.979   4.685   7.254
 8845SOL    HW245223   5.108   4.630   7.336
 8846SOL     OW45224   1.773   6.819   7.144
 8846SOL    HW145225   1.781   6.765   7.228
 8846SOL    HW245226   1.678   6.820   7.114
 8847SOL     OW45227   6.252   2.185   7.028
 8847SOL    HW145228   6.206   2.241   6.959
 8847SOL    HW245229   6.347   2.171   7.001
 8848SOL     OW45230   9.528   8.904   7.937
 8848SOL    HW145231   9.608   8.844   7.931
 8848SOL    HW245232   9.513   8.929   8.033
 8849SOL     OW45233   2.130   2.825   8.309
 8849SOL    HW145234   2.064   2.859   8.242
 8849SOL    HW245235   2.083   2.772   8.379
 8850SOL     OW45236   4.415   4.682   6.516
 8850SOL    HW145237   4.330   4.683   6.569
 8850SOL    HW245238   4.403   4.732   6.431
 8851SOL     OW45239   9.933   9.610   0.676
 8851SOL    HW145240   9.957   9.518   0.706
 8851SOL    HW245241   9.950   9.675   0.750
 8852SOL     OW45242   1.095   7.397   0.613
 8852SOL    HW145243   1.058   7.489   0.610
 8852SOL    HW245244   1.195   7.401   0.622
 8853SOL     OW45245   0.070   5.648   0.449
 8853SOL    HW145246   0.021   5.693   0.374
 8853SOL    HW245247   0.030   5.559   0.467
 8854SOL     OW45248   3.594   8.070   0.583
 8854SOL    HW145249   3.678   8.078   0.635
 8854SOL    HW245250   3.523   8.126   0.626
 8855SOL     OW45251   8.004   3.281   6.884
 8855SOL    HW145252   7.920   3.227   6.889
 8855SOL    HW245253   8.019   3.311   6.790
 8856SOL     OW45254   2.490   3.260   6.078
 8856SOL    HW145255   2.498   3.176   6.025
 8856SOL    HW245256   2.457   3.333   6.018
 8857SOL     OW45257   6.700   4.030   6.719
 8857SOL    HW145258   6.610   4.070   6.735
 8857SOL    HW245259   6.770   4.083   6.768
 8858SOL     OW45260   8.867   0.309   2.501
 8858SOL    HW145261   8.789   0.265   2.455
 8858SOL    HW245262   8.897   0.252   2.577
 8859SOL     OW45263   7.857   2.486   8.579
 8859SOL    HW145264   7.797   2.530   8.646
 8859SOL    HW245265   7.804   2.465   8.497
 8860SOL     OW45266   1.592   4.616   7.544
 8860SOL    HW145267   1.572   4.518   7.536
 8860SOL    HW245268   1.564   4.663   7.461
 8861SOL     OW45269   2.530   1.054   1.157
 8861SOL    HW145270   2.502   0.985   1.224
 8861SOL    HW245271   2.462   1.127   1.154
 8862SOL     OW45272   7.970  10.304   1.316
 8862SOL    HW145273   8.064  10.319   1.346
 8862SOL    HW245274   7.924  10.392   1.304
 8863SOL     OW45275   1.782   1.546   7.112
 8863SOL    HW145276   1.693   1.557   7.067
 8863SOL    HW245277   1.853   1.532   7.043
 8864SOL     OW45278   5.529   0.885   1.116
 8864SOL    HW145279   5.607   0.839   1.074
 8864SOL    HW245280   5.561   0.957   1.176
 8865SOL     OW45281   6.929   9.014   7.614
 8865SOL    HW145282   7.020   9.020   7.655
 8865SOL    HW245283   6.925   9.072   7.533
 8866SOL     OW45284   2.298   6.640   7.873
 8866SOL    HW145285   2.272   6.613   7.965
 8866SOL    HW245286   2.226   6.616   7.809
 8867SOL     OW45287   1.206   5.757   0.081
 8867SOL    HW145288   1.256   5.786   0.162
 8867SOL    HW245289   1.185   5.659   0.088
 8868SOL     OW45290   5.128   7.444   7.760
 8868SOL    HW145291   5.192   7.479   7.691
 8868SOL    HW245292   5.067   7.377   7.719
 8869SOL     OW45293   2.905   7.583   7.320
 8869SOL    HW145294   2.885   7.603   7.416
 8869SOL    HW245295   2.995   7.540   7.313
 8870SOL     OW45296   1.612   7.715   8.671
 8870SOL    HW145297   1.585   7.737   8.764
 8870SOL    HW245298   1.707   7.682   8.670
 8871SOL     OW45299   5.890   3.191   7.896
 8871SOL    HW145300   5.904   3.110   7.839
 8871SOL    HW245301   5.974   3.209   7.948
 8872SOL     OW45302   9.071   9.160   7.214
 8872SOL    HW145303   9.135   9.101   7.264
 8872SOL    HW245304   8.984   9.162   7.262
 8873SOL     OW45305   7.253   6.757   0.096
 8873SOL    HW145306   7.346   6.794   0.104
 8873SOL    HW245307   7.221   6.728   0.186
 8874SOL     OW45308   6.589   8.023   8.229
 8874SOL    HW145309   6.496   8.023   8.194
 8874SOL    HW245310   6.607   8.109   8.277
 8875SOL     OW45311   4.411   7.696   6.947
 8875SOL    HW145312   4.377   7.774   7.000
 8875SOL    HW245313   4.336   7.656   6.895
 8876SOL     OW45314   6.944   2.117   6.234
 8876SOL    HW145315   7.006   2.175   6.182
 8876SOL    HW245316   6.876   2.076   6.172
 8877SOL     OW45317   3.872   3.994   6.772
 8877SOL    HW145318   3.951   3.944   6.807
 8877SOL    HW245319   3.842   4.060   6.841
 8878SOL     OW45320   8.108   4.081   8.494
 8878SOL    HW145321   8.173   4.143   8.538
 8878SOL    HW245322   8.059   4.129   8.421
 8879SOL     OW45323   0.090   2.537   6.529
 8879SOL    HW145324   0.178   2.573   6.558
 8879SOL    HW245325   0.064   2.577   6.441
 8880SOL     OW45326   7.287   9.345   8.219
 8880SOL    HW145327   7.283   9.372   8.316
 8880SOL    HW245328   7.213   9.281   8.200
 8881SOL     OW45329   8.124   4.090   1.284
 8881SOL    HW145330   8.190   4.156   1.319
 8881SOL    HW245331   8.103   4.022   1.355
 8882SOL     OW45332   2.009   7.743   7.280
 8882SOL    HW145333   1.933   7.794   7.239
 8882SOL    HW245334   2.095   7.770   7.238
 8883SOL     OW45335   9.574   5.324   6.406
 8883SOL    HW145336   9.620   5.388   6.345
 8883SOL    HW245337   9.534   5.249   6.352
 8884SOL     OW45338   9.280   7.475   6.765
 8884SOL    HW145339   9.378   7.461   6.753
 8884SOL    HW245340   9.260   7.491   6.862
 8885SOL     OW45341   7.364   9.781   0.752
 8885SOL    HW145342   7.291   9.714   0.767
 8885SOL    HW245343   7.421   9.751   0.675
 8886SOL     OW45344   8.968   5.956   5.945
 8886SOL    HW145345   9.047   5.930   5.889
 8886SOL    HW245346   8.926   6.038   5.908
 8887SOL     OW45347   7.750   8.547   0.726
 8887SOL    HW145348   7.760   8.645   0.711
 8887SOL    HW245349   7.767   8.526   0.822
 8888SOL     OW45350   2.236   6.547   8.130
 8888SOL    HW145351   2.332   6.527   8.146
 8888SOL    HW245352   2.211   6.631   8.178
 8889SOL     OW45353   6.003   4.916   0.166
 8889SOL    HW145354   5.917   4.966   0.174
 8889SOL    HW245355   6.000   4.834   0.224
 8890SOL     OW45356   2.795   2.028   1.363
 8890SOL    HW145357   2.749   1.942   1.344
 8890SOL    HW245358   2.728   2.096   1.394
 8891SOL     OW45359   9.488   2.471   8.729
 8891SOL    HW145360   9.538   2.417   8.661
 8891SOL    HW245361   9.539   2.472   0.033
 8892SOL     OW45362   2.417   4.360   1.822
 8892SOL    HW145363   2.396   4.364   1.920
 8892SOL    HW245364   2.464   4.274   1.801
 8893SOL     OW45365   2.877   6.506   7.760
 8893SOL    HW145366   2.854   6.428   7.818
 8893SOL    HW245367   2.941   6.477   7.689
 8894SOL     OW45368   4.254   5.068   7.420
 8894SOL    HW145369   4.307   5.153   7.419
 8894SOL    HW245370   4.261   5.025   7.510
 8895SOL     OW45371   1.965   8.198   8.185
 8895SOL    HW145372   1.966   8.239   8.275
 8895SOL    HW245373   1.908   8.115   8.187
 8896SOL     OW45374   9.732   8.541   0.574
 8896SOL    HW145375   9.765   8.471   0.510
 8896SOL    HW245376   9.751   8.632   0.537
 8897SOL     OW45377   1.251   1.310   8.169
 8897SOL    HW145378   1.323   1.346   8.110
 8897SOL    HW245379   1.172   1.284   8.113
 8898SOL     OW45380   5.450   1.899   6.422
 8898SOL    HW145381   5.369   1.849   6.393
 8898SOL    HW245382   5.421   1.980   6.475
 8899SOL     OW45383   5.150   5.334   0.345
 8899SOL    HW145384   5.080   5.265   0.332
 8899SOL    HW245385   5.111   5.425   0.330
 8900SOL     OW45386   9.173   7.749   7.918
 8900SOL    HW145387   9.163   7.679   7.989
 8900SOL    HW245388   9.258   7.735   7.868
 8901SOL     OW45389  10.027   7.217   8.497
 8901SOL    HW145390  10.050   7.292   8.559
 8901SOL    HW245391   9.936   7.183   8.518
 8902SOL     OW45392   6.133   8.672   1.076
 8902SOL    HW145393   6.118   8.574   1.070
 8902SOL    HW245394   6.225   8.694   1.041
 8903SOL     OW45395   0.165   6.043   8.752
 8903SOL    HW145396   0.071   6.057   0.001
 8903SOL    HW245397   0.204   5.963   0.015
 8904SOL     OW45398   4.794   0.091   1.542
 8904SOL    HW145399   4.884   0.080   1.499
 8904SOL    HW245400   4.780   0.186   1.567
 8905SOL     OW45401   8.368   4.367   0.868
 8905SOL    HW145402   8.281   4.321   0.850
 8905SOL    HW245403   8.409   4.330   0.952
 8906SOL     OW45404   3.175   6.486   7.960
 8906SOL    HW145405   3.209   6.435   8.039
 8906SOL    HW245406   3.104   6.550   7.991
 8907SOL     OW45407   6.823   1.385   7.659
 8907SOL    HW145408   6.771   1.311   7.702
 8907SOL    HW245409   6.765   1.467   7.651
 8908SOL     OW45410   4.603   8.232   8.161
 8908SOL    HW145411   4.649   8.249   8.074
 8908SOL    HW245412   4.577   8.319   8.203
 8909SOL     OW45413   4.647   0.516   0.856
 8909SOL    HW145414   4.725   0.461   0.887
 8909SOL    HW245415   4.579   0.521   0.929
 8910SOL     OW45416   4.712   9.151   0.684
 8910SOL    HW145417   4.663   9.078   0.731
 8910SOL    HW245418   4.732   9.123   0.590
 8911SOL     OW45419   6.621   5.407   0.931
 8911SOL    HW145420   6.621   5.424   1.030
 8911SOL    HW245421   6.615   5.309   0.913
 8912SOL     OW45422   8.753   5.342   1.099
 8912SOL    HW145423   8.708   5.303   1.179
 8912SOL    HW245424   8.836   5.289   1.078
 8913SOL     OW45425   2.561   2.928   6.431
 8913SOL    HW145426   2.560   2.969   6.523
 8913SOL    HW245427   2.589   2.832   6.438
 8914SOL     OW45428   2.653   8.645   7.626
 8914SOL    HW145429   2.593   8.583   7.676
 8914SOL    HW245430   2.741   8.600   7.609
 8915SOL     OW45431   8.872   1.534   8.539
 8915SOL    HW145432   8.911   1.476   8.610
 8915SOL    HW245433   8.876   1.486   8.451
 8916SOL     OW45434   7.506   2.604   7.126
 8916SOL    HW145435   7.522   2.519   7.176
 8916SOL    HW245436   7.410   2.631   7.135
 8917SOL     OW45437   9.627   6.030   1.673
 8917SOL    HW145438   9.722   6.052   1.650
 8917SOL    HW245439   9.621   6.006   1.770
 8918SOL     OW45440   7.282   4.002   0.725
 8918SOL    HW145441   7.222   3.999   0.646
 8918SOL    HW245442   7.358   3.938   0.712
 8919SOL     OW45443   3.394   5.356   0.499
 8919SOL    HW145444   3.353   5.308   0.421
 8919SOL    HW245445   3.447   5.291   0.554
 8920SOL     OW45446   1.888   7.742   8.325
 8920SOL    HW145447   1.967   7.735   8.385
 8920SOL    HW245448   1.909   7.697   8.238
 8921SOL     OW45449   1.005   1.924   0.411
 8921SOL    HW145450   1.081   1.906   0.349
 8921SOL    HW245451   0.919   1.927   0.360
 8922SOL     OW45452   3.232   4.235   8.465
 8922SOL    HW145453   3.305   4.273   8.407
 8922SOL    HW245454   3.147   4.231   8.413
 8923SOL     OW45455   8.523   1.238   1.973
 8923SOL    HW145456   8.610   1.231   2.022
 8923SOL    HW245457   8.448   1.222   2.036
 8924SOL     OW45458   1.243   0.915   8.420
 8924SOL    HW145459   1.213   0.827   8.457
 8924SOL    HW245460   1.185   0.988   8.458
 8925SOL     OW45461   3.233   4.797   8.139
 8925SOL    HW145462   3.308   4.807   8.073
 8925SOL    HW245463   3.156   4.752   8.095
 8926SOL     OW45464   4.696   1.263   6.925
 8926SOL    HW145465   4.759   1.186   6.920
 8926SOL    HW245466   4.655   1.267   7.017
 8927SOL     OW45467   4.944   3.531   1.058
 8927SOL    HW145468   4.940   3.579   1.146
 8927SOL    HW245469   4.944   3.433   1.073
 8928SOL     OW45470   2.741   2.924   6.818
 8928SOL    HW145471   2.734   2.826   6.803
 8928SOL    HW245472   2.661   2.970   6.778
 8929SOL     OW45473   6.618   2.606   1.040
 8929SOL    HW145474   6.638   2.652   0.954
 8929SOL    HW245475   6.530   2.637   1.075
 8930SOL     OW45476   1.223   3.005   7.046
 8930SOL    HW145477   1.213   2.914   7.006
 8930SOL    HW245478   1.133   3.038   7.074
 8931SOL     OW45479   1.461   6.858   1.044
 8931SOL    HW145480   1.483   6.840   1.140
 8931SOL    HW245481   1.362   6.849   1.031
 8932SOL     OW45482   1.270   3.617   8.134
 8932SOL    HW145483   1.279   3.668   8.219
 8932SOL    HW245484   1.184   3.567   8.134
 8933SOL     OW45485   5.605   8.461   2.143
 8933SOL    HW145486   5.525   8.475   2.200
 8933SOL    HW245487   5.687   8.454   2.200
 8934SOL     OW45488   9.548   2.720   7.117
 8934SOL    HW145489   9.482   2.723   7.042
 8934SOL    HW245490   9.502   2.743   7.203
 8935SOL     OW45491   0.315   0.489   7.721
 8935SOL    HW145492   0.336   0.418   7.789
 8935SOL    HW245493   0.237   0.460   7.665
 8936SOL     OW45494   0.603   3.050   1.324
 8936SOL    HW145495   0.592   3.141   1.284
 8936SOL    HW245496   0.526   2.992   1.297
 8937SOL     OW45497   9.334  10.120   0.049
 8937SOL    HW145498   9.236  10.132   0.062
 8937SOL    HW245499   9.356  10.022   0.047
 8938SOL     OW45500   2.564   4.111   7.937
 8938SOL    HW145501   2.617   4.034   7.974
 8938SOL    HW245502   2.625   4.175   7.891
 8939SOL     OW45503   9.981   2.337   1.716
 8939SOL    HW145504  10.065   2.296   1.749
 8939SOL    HW245505   9.993   2.367   1.621
 8940SOL     OW45506   2.521   0.881   0.420
 8940SOL    HW145507   2.557   0.965   0.461
 8940SOL    HW245508   2.450   0.843   0.479
 8941SOL     OW45509   2.580   5.079   6.402
 8941SOL    HW145510   2.510   5.151   6.399
 8941SOL    HW245511   2.542   4.998   6.446
 8942SOL     OW45512   8.340   2.442   7.412
 8942SOL    HW145513   8.337   2.522   7.472
 8942SOL    HW245514   8.262   2.382   7.431
 8943SOL     OW45515   9.995   4.287   0.100
 8943SOL    HW145516  10.017   4.195   0.133
 8943SOL    HW245517  10.077   4.344   0.104
 8944SOL     OW45518   5.181   3.249   7.282
 8944SOL    HW145519   5.260   3.254   7.343
 8944SOL    HW245520   5.128   3.333   7.289
 8945SOL     OW45521   2.677   7.279   0.050
 8945SOL    HW145522   2.656   7.297   0.146
 8945SOL    HW245523   2.601   7.229   0.009
 8946SOL     OW45524   3.900   6.700   8.496
 8946SOL    HW145525   3.998   6.718   8.503
 8946SOL    HW245526   3.864   6.677   8.587
 8947SOL     OW45527   9.612   8.371   0.038
 8947SOL    HW145528   9.580   8.406   8.732
 8947SOL    HW245529   9.623   8.271   0.032
 8948SOL     OW45530  10.014   1.310   0.377
 8948SOL    HW145531  10.107   1.303   0.339
 8948SOL    HW245532  10.018   1.303   0.476
 8949SOL     OW45533   8.372   5.130   7.498
 8949SOL    HW145534   8.360   5.063   7.571
 8949SOL    HW245535   8.386   5.221   7.538
 8950SOL     OW45536   5.004   7.497   8.654
 8950SOL    HW145537   4.959   7.411   8.677
 8950SOL    HW245538   4.989   7.517   8.557
 8951SOL     OW45539   5.716   3.737   8.728
 8951SOL    HW145540   5.762   3.664   8.779
 8951SOL    HW245541   5.644   3.697   8.671
 8952SOL     OW45542   6.441   7.575   8.007
 8952SOL    HW145543   6.426   7.597   8.103
 8952SOL    HW245544   6.389   7.493   7.983
 8953SOL     OW45545   7.120   5.776   6.537
 8953SOL    HW145546   7.136   5.692   6.485
 8953SOL    HW245547   7.069   5.840   6.480
 8954SOL     OW45548   5.896   8.389   6.428
 8954SOL    HW145549   5.945   8.305   6.452
 8954SOL    HW245550   5.951   8.443   6.366
 8955SOL     OW45551   0.986   5.931   7.297
 8955SOL    HW145552   0.905   5.974   7.338
 8955SOL    HW245553   1.001   5.842   7.338
 8956SOL     OW45554   1.185  10.036   0.836
 8956SOL    HW145555   1.095   9.993   0.839
 8956SOL    HW245556   1.249   9.976   0.788
 8957SOL     OW45557   1.800   0.087   1.287
 8957SOL    HW145558   1.701   0.083   1.269
 8957SOL    HW245559   1.815   0.092   1.386
 8958SOL     OW45560   6.997   1.204   7.417
 8958SOL    HW145561   7.083   1.153   7.414
 8958SOL    HW245562   7.014   1.300   7.392
 8959SOL     OW45563   1.731   3.105   8.095
 8959SOL    HW145564   1.758   3.102   7.999
 8959SOL    HW245565   1.686   3.192   8.115
 8960SOL     OW45566   4.364   5.476   7.251
 8960SOL    HW145567   4.427   5.543   7.211
 8960SOL    HW245568   4.311   5.433   7.178
 8961SOL     OW45569   7.468   5.082   2.192
 8961SOL    HW145570   7.472   5.128   2.103
 8961SOL    HW245571   7.397   5.012   2.191
 8962SOL     OW45572   0.612   0.975   0.462
 8962SOL    HW145573   0.707   0.984   0.489
 8962SOL    HW245574   0.601   0.892   0.406
 8963SOL     OW45575   7.141   0.824   0.257
 8963SOL    HW145576   7.090   0.818   0.343
 8963SOL    HW245577   7.099   0.763   0.189
 8964SOL     OW45578   6.883   8.806   0.238
 8964SOL    HW145579   6.790   8.836   0.261
 8964SOL    HW245580   6.938   8.801   0.321
 8965SOL     OW45581   7.946   8.499   2.244
 8965SOL    HW145582   7.942   8.412   2.294
 8965SOL    HW245583   8.024   8.552   2.275
 8966SOL     OW45584   3.155   9.919   1.693
 8966SOL    HW145585   3.230   9.894   1.631
 8966SOL    HW245586   3.120   9.836   1.737
 8967SOL     OW45587   3.013   9.666   7.877
 8967SOL    HW145588   2.916   9.651   7.896
 8967SOL    HW245589   3.063   9.581   7.890
 8968SOL     OW45590   6.855   3.062   6.788
 8968SOL    HW145591   6.928   3.025   6.731
 8968SOL    HW245592   6.847   3.160   6.771
 8969SOL     OW45593   8.079   2.717   0.216
 8969SOL    HW145594   8.050   2.712   0.121
 8969SOL    HW245595   8.055   2.807   0.253
 8970SOL     OW45596   2.403   3.705   8.585
 8970SOL    HW145597   2.469   3.685   8.513
 8970SOL    HW245598   2.311   3.707   8.545
 8971SOL     OW45599   7.536   2.975   8.428
 8971SOL    HW145600   7.477   2.941   8.501
 8971SOL    HW245601   7.629   2.940   8.443
 8972SOL     OW45602   5.388   9.024   7.309
 8972SOL    HW145603   5.363   9.042   7.404
 8972SOL    HW245604   5.486   9.041   7.297
 8973SOL     OW45605   3.484   3.342   0.896
 8973SOL    HW145606   3.512   3.258   0.849
 8973SOL    HW245607   3.552   3.367   0.964
 8974SOL     OW45608   6.058   0.081   7.353
 8974SOL    HW145609   6.045   0.017   7.277
 8974SOL    HW245610   6.099   0.165   7.319
 8975SOL     OW45611   4.279   7.661   0.342
 8975SOL    HW145612   4.181   7.679   0.356
 8975SOL    HW245613   4.318   7.621   0.424
 8976SOL     OW45614   1.034  10.057   1.518
 8976SOL    HW145615   1.012   9.965   1.484
 8976SOL    HW245616   1.133  10.072   1.513
 8977SOL     OW45617   8.113   8.459   7.575
 8977SOL    HW145618   8.129   8.440   7.672
 8977SOL    HW245619   8.196   8.499   7.535
 8978SOL     OW45620   0.749   4.953   7.995
 8978SOL    HW145621   0.776   4.921   7.904
 8978SOL    HW245622   0.806   5.032   8.020
 8979SOL     OW45623   3.943   5.348   0.304
 8979SOL    HW145624   3.969   5.282   0.233
 8979SOL    HW245625   3.939   5.302   0.392
 8980SOL     OW45626   8.537  10.115   6.349
 8980SOL    HW145627   8.596  10.158   6.417
 8980SOL    HW245628   8.460  10.175   6.328
 8981SOL     OW45629   8.546   7.346   8.594
 8981SOL    HW145630   8.488   7.408   8.648
 8981SOL    HW245631   8.535   7.367   8.497
 8982SOL     OW45632   0.347   6.136   7.726
 8982SOL    HW145633   0.384   6.195   7.798
 8982SOL    HW245634   0.342   6.186   7.640
 8983SOL     OW45635   8.541   3.060   6.466
 8983SOL    HW145636   8.619   3.055   6.529
 8983SOL    HW245637   8.550   2.987   6.398
 8984SOL     OW45638   1.628   6.097   0.732
 8984SOL    HW145639   1.692   6.111   0.808
 8984SOL    HW245640   1.535   6.095   0.767
 8985SOL     OW45641   7.350   0.195   6.815
 8985SOL    HW145642   7.450   0.194   6.818
 8985SOL    HW245643   7.315   0.206   6.908
 8986SOL     OW45644   8.732   3.361   8.316
 8986SOL    HW145645   8.722   3.291   8.387
 8986SOL    HW245646   8.681   3.333   8.235
 8987SOL     OW45647   3.370   2.436   0.334
 8987SOL    HW145648   3.410   2.528   0.329
 8987SOL    HW245649   3.433   2.370   0.296
 8988SOL     OW45650   0.306   7.426   7.403
 8988SOL    HW145651   0.324   7.393   7.310
 8988SOL    HW245652   0.302   7.526   7.403
 8989SOL     OW45653   6.179  10.085   8.652
 8989SOL    HW145654   6.223  10.131   8.729
 8989SOL    HW245655   6.094  10.132   8.630
 8990SOL     OW45656   5.726   3.460   6.404
 8990SOL    HW145657   5.756   3.366   6.389
 8990SOL    HW245658   5.693   3.498   6.317
 8991SOL     OW45659   6.988   3.564   0.953
 8991SOL    HW145660   7.033   3.633   1.009
 8991SOL    HW245661   7.025   3.474   0.976
 8992SOL     OW45662   3.570   4.645   0.940
 8992SOL    HW145663   3.484   4.664   0.987
 8992SOL    HW245664   3.554   4.583   0.864
 8993SOL     OW45665   4.874   4.086   0.242
 8993SOL    HW145666   4.923   4.146   0.305
 8993SOL    HW245667   4.939   4.028   0.193
 8994SOL     OW45668   7.744   1.734   1.743
 8994SOL    HW145669   7.800   1.801   1.792
 8994SOL    HW245670   7.777   1.642   1.763
 8995SOL     OW45671   5.402   3.271   7.456
 8995SOL    HW145672   5.369   3.365   7.464
 8995SOL    HW245673   5.475   3.256   7.523
 8996SOL     OW45674   2.698   8.246   0.535
 8996SOL    HW145675   2.615   8.247   0.590
 8996SOL    HW245676   2.681   8.289   0.447
 8997SOL     OW45677   6.318   0.960   7.941
 8997SOL    HW145678   6.299   1.047   7.987
 8997SOL    HW245679   6.416   0.948   7.931
 8998SOL     OW45680   9.297   3.564   8.121
 8998SOL    HW145681   9.290   3.658   8.087
 8998SOL    HW245682   9.304   3.566   8.221
 8999SOL     OW45683   5.916   7.993   8.203
 8999SOL    HW145684   5.844   7.929   8.230
 8999SOL    HW245685   5.990   7.944   8.159
 9000SOL     OW45686   6.108   5.715   8.221
 9000SOL    HW145687   6.088   5.619   8.201
 9000SOL    HW245688   6.132   5.725   8.318
 9001SOL     OW45689   9.163   5.720   1.450
 9001SOL    HW145690   9.165   5.719   1.550
 9001SOL    HW245691   9.245   5.766   1.416
 9002SOL     OW45692   0.966   9.271   8.392
 9002SOL    HW145693   0.975   9.194   8.456
 9002SOL    HW245694   1.023   9.346   8.423
 9003SOL     OW45695   6.445   1.083   7.656
 9003SOL    HW145696   6.486   1.059   7.568
 9003SOL    HW245697   6.392   1.005   7.690
 9004SOL     OW45698   5.175  10.144   7.625
 9004SOL    HW145699   5.170  10.177   7.719
 9004SOL    HW245700   5.253  10.083   7.615
 9005SOL     OW45701   8.092   1.980   1.417
 9005SOL    HW145702   8.028   1.967   1.341
 9005SOL    HW245703   8.101   1.895   1.468
 9006SOL     OW45704   2.808   2.388   0.785
 9006SOL    HW145705   2.863   2.332   0.723
 9006SOL    HW245706   2.781   2.334   0.864
 9007SOL     OW45707   8.229   2.326   0.510
 9007SOL    HW145708   8.312   2.369   0.475
 9007SOL    HW245709   8.176   2.393   0.561
 9008SOL     OW45710   0.574  10.317   7.844
 9008SOL    HW145711   0.628  10.358   7.770
 9008SOL    HW245712   0.633  10.261   7.902
 9009SOL     OW45713   2.502   6.468   8.160
 9009SOL    HW145714   2.569   6.533   8.123
 9009SOL    HW245715   2.531   6.440   8.252
 9010SOL     OW45716   6.875   0.509   2.192
 9010SOL    HW145717   6.790   0.546   2.154
 9010SOL    HW245718   6.858   0.473   2.284
 9011SOL     OW45719   9.698   7.955   6.429
 9011SOL    HW145720   9.779   7.905   6.401
 9011SOL    HW245721   9.716   8.053   6.425
 9012SOL     OW45722   3.920   7.196   0.415
 9012SOL    HW145723   3.903   7.261   0.489
 9012SOL    HW245724   4.016   7.198   0.390
 9013SOL     OW45725   9.913   3.602   0.435
 9013SOL    HW145726   9.839   3.667   0.416
 9013SOL    HW245727   9.925   3.594   0.534
 9014SOL     OW45728   7.377   4.607   7.476
 9014SOL    HW145729   7.426   4.668   7.539
 9014SOL    HW245730   7.443   4.557   7.419
 9015SOL     OW45731   6.889   4.899   7.867
 9015SOL    HW145732   6.894   4.826   7.799
 9015SOL    HW245733   6.973   4.901   7.920
 9016SOL     OW45734   8.468   3.823   0.425
 9016SOL    HW145735   8.557   3.825   0.470
 9016SOL    HW245736   8.419   3.908   0.445
 9017SOL     OW45737   5.396   2.188   8.199
 9017SOL    HW145738   5.402   2.260   8.131
 9017SOL    HW245739   5.439   2.217   8.284
 9018SOL     OW45740   1.705   7.176   7.530
 9018SOL    HW145741   1.610   7.207   7.530
 9018SOL    HW245742   1.707   7.076   7.534
 9019SOL     OW45743   5.584   2.402   8.727
 9019SOL    HW145744   5.634   2.331   8.676
 9019SOL    HW245745   5.603   2.492   8.686
 9020SOL     OW45746   1.255   0.323   8.449
 9020SOL    HW145747   1.295   0.394   8.507
 9020SOL    HW245748   1.290   0.234   8.477
 9021SOL     OW45749   9.665   2.119   1.353
 9021SOL    HW145750   9.603   2.081   1.285
 9021SOL    HW245751   9.669   2.058   1.433
 9022SOL     OW45752   6.013   7.236   0.177
 9022SOL    HW145753   6.072   7.275   0.247
 9022SOL    HW245754   5.942   7.180   0.220
 9023SOL     OW45755   6.285   4.196   1.403
 9023SOL    HW145756   6.371   4.221   1.358
 9023SOL    HW245757   6.209   4.214   1.340
 9024SOL     OW45758   4.601   8.194   0.816
 9024SOL    HW145759   4.528   8.238   0.764
 9024SOL    HW245760   4.600   8.228   0.910
 9025SOL     OW45761   0.197   7.073   6.926
 9025SOL    HW145762   0.148   6.987   6.937
 9025SOL    HW245763   0.164   7.139   6.993
 9026SOL     OW45764   8.221   9.441   1.689
 9026SOL    HW145765   8.130   9.480   1.704
 9026SOL    HW245766   8.219   9.343   1.709
 9027SOL     OW45767   4.780   5.698   8.693
 9027SOL    HW145768   4.792   5.616   8.637
 9027SOL    HW245769   4.808   5.679   0.005
 9028SOL     OW45770   2.104   7.485   8.331
 9028SOL    HW145771   2.036   7.462   8.401
 9028SOL    HW245772   2.141   7.576   8.349
 9029SOL     OW45773   0.005   1.398   8.768
 9029SOL    HW145774   0.022   1.496   8.774
 9029SOL    HW245775   0.065   1.358   8.699
 9030SOL     OW45776   3.471   1.587   7.094
 9030SOL    HW145777   3.433   1.515   7.035
 9030SOL    HW245778   3.559   1.617   7.058
 9031SOL     OW45779   7.111   2.837   2.350
 9031SOL    HW145780   7.105   2.742   2.379
 9031SOL    HW245781   7.022   2.868   2.317
 9032SOL     OW45782   2.435  10.470   1.457
 9032SOL    HW145783   2.335  10.473   1.451
 9032SOL    HW245784   2.463  10.473   1.553
 9033SOL     OW45785   1.103   2.792   8.653
 9033SOL    HW145786   1.044   2.778   8.733
 9033SOL    HW245787   1.045   2.804   8.571
 9034SOL     OW45788   5.818   2.520   1.287
 9034SOL    HW145789   5.719   2.534   1.282
 9034SOL    HW245790   5.858   2.583   1.354
 9035SOL     OW45791   6.717   0.286   7.870
 9035SOL    HW145792   6.748   0.222   7.800
 9035SOL    HW245793   6.648   0.242   7.928
 9036SOL     OW45794   2.696   4.501   8.669
 9036SOL    HW145795   2.709   4.419   8.724
 9036SOL    HW245796   2.785   4.535   8.637
 9037SOL     OW45797   2.115   6.069   6.207
 9037SOL    HW145798   2.077   6.155   6.173
 9037SOL    HW245799   2.062   5.992   6.169
 9038SOL     OW45800   4.532   6.885   8.736
 9038SOL    HW145801   4.542   6.982   8.758
 9038SOL    HW245802   4.446   6.851   8.772
 9039SOL     OW45803   0.333   1.611   0.142
 9039SOL    HW145804   0.242   1.644   0.167
 9039SOL    HW245805   0.324   1.538   0.074
 9040SOL     OW45806   3.767   9.480   7.569
 9040SOL    HW145807   3.832   9.556   7.572
 9040SOL    HW245808   3.753   9.452   7.474
 9041SOL     OW45809   1.199   3.097   6.117
 9041SOL    HW145810   1.147   3.025   6.164
 9041SOL    HW245811   1.138   3.174   6.098
 9042SOL     OW45812   0.707   5.250   2.175
 9042SOL    HW145813   0.664   5.245   2.265
 9042SOL    HW245814   0.776   5.179   2.166
 9043SOL     OW45815   9.141   1.344   8.438
 9043SOL    HW145816   9.109   1.259   8.479
 9043SOL    HW245817   9.182   1.402   8.508
 9044SOL     OW45818   4.762   5.102   6.855
 9044SOL    HW145819   4.835   5.170   6.851
 9044SOL    HW245820   4.734   5.076   6.763
 9045SOL     OW45821   1.360   8.687   6.212
 9045SOL    HW145822   1.324   8.664   6.121
 9045SOL    HW245823   1.446   8.737   6.201
 9046SOL     OW45824   4.892   4.638   1.012
 9046SOL    HW145825   4.965   4.583   0.971
 9046SOL    HW245826   4.853   4.698   0.943
 9047SOL     OW45827   1.522   4.886   6.574
 9047SOL    HW145828   1.473   4.871   6.488
 9047SOL    HW245829   1.485   4.823   6.643
 9048SOL     OW45830   8.149   8.642   2.351
 9048SOL    HW145831   8.088   8.717   2.378
 9048SOL    HW245832   8.242   8.678   2.338
 9049SOL     OW45833  10.083   3.591   7.358
 9049SOL    HW145834  10.018   3.651   7.311
 9049SOL    HW245835  10.153   3.648   7.401
 9050SOL     OW45836   6.206   7.000   6.758
 9050SOL    HW145837   6.136   6.935   6.727
 9050SOL    HW245838   6.242   6.970   6.846
 9051SOL     OW45839   8.298   0.510   1.129
 9051SOL    HW145840   8.365   0.503   1.203
 9051SOL    HW245841   8.216   0.557   1.161
 9052SOL     OW45842   7.652   8.907   7.404
 9052SOL    HW145843   7.588   8.844   7.449
 9052SOL    HW245844   7.741   8.864   7.394
 9053SOL     OW45845   9.507  10.421   8.395
 9053SOL    HW145846   9.530  10.348   8.331
 9053SOL    HW245847   9.470  10.381   8.479
 9054SOL     OW45848   2.506   3.668   1.251
 9054SOL    HW145849   2.439   3.596   1.234
 9054SOL    HW245850   2.594   3.643   1.210
 9055SOL     OW45851   6.456   5.852   8.536
 9055SOL    HW145852   6.495   5.851   8.444
 9055SOL    HW245853   6.526   5.827   8.603
 9056SOL     OW45854   2.228   9.804   7.880
 9056SOL    HW145855   2.168   9.837   7.953
 9056SOL    HW245856   2.177   9.742   7.820
 9057SOL     OW45857   0.379   0.311   0.885
 9057SOL    HW145858   0.382   0.382   0.814
 9057SOL    HW245859   0.422   0.228   0.851
 9058SOL     OW45860   2.933   4.690   0.148
 9058SOL    HW145861   2.875   4.645   0.216
 9058SOL    HW245862   2.884   4.769   0.111
 9059SOL     OW45863   6.785   8.938   6.678
 9059SOL    HW145864   6.882   8.963   6.678
 9059SOL    HW245865   6.750   8.937   6.584
 9060SOL     OW45866   1.778   3.079   1.177
 9060SOL    HW145867   1.811   3.147   1.243
 9060SOL    HW245868   1.702   3.028   1.217
 9061SOL     OW45869   5.265   0.576   8.268
 9061SOL    HW145870   5.285   0.652   8.206
 9061SOL    HW245871   5.171   0.585   8.302
 9062SOL     OW45872   0.214   0.794   7.049
 9062SOL    HW145873   0.178   0.866   7.108
 9062SOL    HW245874   0.313   0.787   7.062
 9063SOL     OW45875   9.303   2.372   1.315
 9063SOL    HW145876   9.257   2.427   1.244
 9063SOL    HW245877   9.260   2.282   1.319
 9064SOL     OW45878   0.390   7.662   1.771
 9064SOL    HW145879   0.294   7.641   1.752
 9064SOL    HW245880   0.397   7.749   1.818
 9065SOL     OW45881   8.899   7.229   0.788
 9065SOL    HW145882   8.876   7.319   0.751
 9065SOL    HW245883   8.819   7.191   0.835
 9066SOL     OW45884   8.320   4.913   8.489
 9066SOL    HW145885   8.407   4.903   8.536
 9066SOL    HW245886   8.301   4.831   8.435
 9067SOL     OW45887   2.796   2.424   0.463
 9067SOL    HW145888   2.847   2.345   0.493
 9067SOL    HW245889   2.805   2.498   0.530
 9068SOL     OW45890   5.041   0.493   7.782
 9068SOL    HW145891   5.077   0.493   7.875
 9068SOL    HW245892   5.021   0.400   7.754
 9069SOL     OW45893   7.479   7.247   7.567
 9069SOL    HW145894   7.502   7.332   7.519
 9069SOL    HW245895   7.563   7.201   7.596
 9070SOL     OW45896   7.573   4.346   7.654
 9070SOL    HW145897   7.584   4.252   7.622
 9070SOL    HW245898   7.647   4.403   7.617
 9071SOL     OW45899   9.712   4.690   6.779
 9071SOL    HW145900   9.715   4.790   6.776
 9071SOL    HW245901   9.631   4.657   6.731
 9072SOL     OW45902   5.397   5.942   1.636
 9072SOL    HW145903   5.352   5.990   1.561
 9072SOL    HW245904   5.429   6.007   1.704
 9073SOL     OW45905   8.138   7.291   8.691
 9073SOL    HW145906   8.114   7.255   8.601
 9073SOL    HW245907   8.056   7.294   8.748
 9074SOL     OW45908   8.401   5.588   6.796
 9074SOL    HW145909   8.455   5.651   6.852
 9074SOL    HW245910   8.454   5.563   6.715
 9075SOL     OW45911   0.227   7.687   8.729
 9075SOL    HW145912   0.282   7.737   0.014
 9075SOL    HW245913   0.252   7.715   8.637
 9076SOL     OW45914   6.751   2.385   7.464
 9076SOL    HW145915   6.687   2.461   7.455
 9076SOL    HW245916   6.844   2.420   7.478
 9077SOL     OW45917   8.557   1.853   0.887
 9077SOL    HW145918   8.529   1.937   0.842
 9077SOL    HW245919   8.480   1.790   0.891
 9078SOL     OW45920   3.506   6.311   1.848
 9078SOL    HW145921   3.547   6.241   1.908
 9078SOL    HW245922   3.569   6.388   1.840
 9079SOL     OW45923   8.617   0.459   0.079
 9079SOL    HW145924   8.595   0.493   8.769
 9079SOL    HW245925   8.704   0.497   0.109
 9080SOL     OW45926   1.268   2.588   1.028
 9080SOL    HW145927   1.237   2.637   0.947
 9080SOL    HW245928   1.203   2.515   1.050
 9081SOL     OW45929   0.861   2.145   7.464
 9081SOL    HW145930   0.911   2.147   7.550
 9081SOL    HW245931   0.772   2.189   7.475
 9082SOL     OW45932   8.102   9.635   2.215
 9082SOL    HW145933   8.140   9.728   2.215
 9082SOL    HW245934   8.170   9.571   2.252
 9083SOL     OW45935   5.041   4.753   6.670
 9083SOL    HW145936   4.990   4.767   6.756
 9083SOL    HW245937   4.978   4.763   6.593
 9084SOL     OW45938   0.173   3.858   0.217
 9084SOL    HW145939   0.200   3.770   0.177
 9084SOL    HW245940   0.161   3.925   0.144
 9085SOL     OW45941   1.312   5.342   2.276
 9085SOL    HW145942   1.353   5.281   2.208
 9085SOL    HW245943   1.215   5.355   2.256
 9086SOL     OW45944   2.720   1.776   7.697
 9086SOL    HW145945   2.712   1.696   7.757
 9086SOL    HW245946   2.810   1.817   7.708
 9087SOL     OW45947   1.015   0.734   7.084
 9087SOL    HW145948   0.982   0.761   6.994
 9087SOL    HW245949   1.085   0.663   7.074
 9088SOL     OW45950   5.417   0.064   7.753
 9088SOL    HW145951   5.456   0.054   7.661
 9088SOL    HW245952   5.481   0.029   7.821
 9089SOL     OW45953   7.736   3.190   6.578
 9089SOL    HW145954   7.721   3.091   6.572
 9089SOL    HW245955   7.704   3.234   6.494
 9090SOL     OW45956   5.830   0.649   6.600
 9090SOL    HW145957   5.888   0.718   6.642
 9090SOL    HW245958   5.886   0.583   6.551
 9091SOL     OW45959   6.535   3.678   6.588
 9091SOL    HW145960   6.471   3.605   6.565
 9091SOL    HW245961   6.490   3.766   6.579
 9092SOL     OW45962   8.226   9.164   1.723
 9092SOL    HW145963   8.177   9.118   1.797
 9092SOL    HW245964   8.320   9.129   1.718
 9093SOL     OW45965   5.537   9.221   8.386
 9093SOL    HW145966   5.504   9.267   8.469
 9093SOL    HW245967   5.541   9.122   8.402
 9094SOL     OW45968   1.671   4.495   8.110
 9094SOL    HW145969   1.668   4.475   8.012
 9094SOL    HW245970   1.586   4.464   8.153
 9095SOL     OW45971   5.441   1.493   6.734
 9095SOL    HW145972   5.499   1.538   6.666
 9095SOL    HW245973   5.347   1.524   6.724
 9096SOL     OW45974   4.010   3.395   0.854
 9096SOL    HW145975   4.020   3.397   0.954
 9096SOL    HW245976   3.973   3.306   0.827
 9097SOL     OW45977   1.781   1.040   6.184
 9097SOL    HW145978   1.732   1.046   6.096
 9097SOL    HW245979   1.768   1.126   6.234
 9098SOL     OW45980   0.049   4.506   7.098
 9098SOL    HW145981   0.095   4.576   7.045
 9098SOL    HW245982  10.134   4.465   7.043
 9099SOL     OW45983   8.138   1.636   0.195
 9099SOL    HW145984   8.067   1.653   0.264
 9099SOL    HW245985   8.159   1.721   0.147
 9100SOL     OW45986   8.471   9.858   7.086
 9100SOL    HW145987   8.511   9.907   7.008
 9100SOL    HW245988   8.544   9.832   7.150
 9101SOL     OW45989   3.658   7.685   1.404
 9101SOL    HW145990   3.708   7.685   1.318
 9101SOL    HW245991   3.569   7.729   1.392
 9102SOL     OW45992   8.124   2.876   2.003
 9102SOL    HW145993   8.210   2.845   1.962
 9102SOL    HW245994   8.144   2.922   2.090
 9103SOL     OW45995   7.025   3.189   6.499
 9103SOL    HW145996   7.039   3.105   6.552
 9103SOL    HW245997   7.101   3.252   6.516
 9104SOL     OW45998   2.246   7.270   1.352
 9104SOL    HW145999   2.192   7.236   1.275
 9104SOL    HW246000   2.188   7.326   1.411
 9105SOL     OW46001   9.924   2.442   7.198
 9105SOL    HW146002   9.967   2.362   7.241
 9105SOL    HW246003   9.995   2.504   7.165
 9106SOL     OW46004   8.187   8.821   0.161
 9106SOL    HW146005   8.244   8.861   0.089
 9106SOL    HW246006   8.199   8.721   0.161
 9107SOL     OW46007   3.700   3.008   7.098
 9107SOL    HW146008   3.725   2.932   7.037
 9107SOL    HW246009   3.774   3.075   7.099
 9108SOL     OW46010   2.824   5.757   8.434
 9108SOL    HW146011   2.872   5.699   8.368
 9108SOL    HW246012   2.748   5.707   8.475
 9109SOL     OW46013   5.950   4.944   8.294
 9109SOL    HW146014   5.957   4.852   8.255
 9109SOL    HW246015   5.889   4.999   8.238
 9110SOL     OW46016   6.617   1.516   7.137
 9110SOL    HW146017   6.568   1.431   7.119
 9110SOL    HW246018   6.708   1.512   7.097
 9111SOL     OW46019   9.896   0.735   7.959
 9111SOL    HW146020   9.810   0.698   7.991
 9111SOL    HW246021   9.908   0.712   7.862
 9112SOL     OW46022   2.591   2.039   1.985
 9112SOL    HW146023   2.667   1.993   2.031
 9112SOL    HW246024   2.529   2.078   2.054
 9113SOL     OW46025   8.779   9.900   7.998
 9113SOL    HW146026   8.813   9.863   8.085
 9113SOL    HW246027   8.836   9.866   7.923
 9114SOL     OW46028   4.219   0.345   0.158
 9114SOL    HW146029   4.189   0.377   0.248
 9114SOL    HW246030   4.319   0.337   0.156
 9115SOL     OW46031   9.596   1.052   1.292
 9115SOL    HW146032   9.605   0.993   1.372
 9115SOL    HW246033   9.683   1.052   1.241
 9116SOL     OW46034   4.993   2.085   8.013
 9116SOL    HW146035   4.958   2.017   8.077
 9116SOL    HW246036   4.924   2.104   7.943
 9117SOL     OW46037   9.667   8.210   1.571
 9117SOL    HW146038   9.761   8.196   1.541
 9117SOL    HW246039   9.665   8.212   1.671
 9118SOL     OW46040   9.607   8.835   1.686
 9118SOL    HW146041   9.565   8.765   1.744
 9118SOL    HW246042   9.541   8.866   1.617
 9119SOL     OW46043   2.511   1.761   0.256
 9119SOL    HW146044   2.415   1.742   0.236
 9119SOL    HW246045   2.564   1.677   0.248
 9120SOL     OW46046   4.864   0.365   0.947
 9120SOL    HW146047   4.935   0.336   0.883
 9120SOL    HW246048   4.840   0.290   1.008
 9121SOL     OW46049   2.267   9.839   0.456
 9121SOL    HW146050   2.206   9.793   0.521
 9121SOL    HW246051   2.225   9.840   0.366
 9122SOL     OW46052   7.217   8.967   8.184
 9122SOL    HW146053   7.170   9.056   8.188
 9122SOL    HW246054   7.306   8.979   8.141
 9123SOL     OW46055   7.219   1.441   1.714
 9123SOL    HW146056   7.304   1.421   1.764
 9123SOL    HW246057   7.227   1.532   1.673
 9124SOL     OW46058   2.688   7.827   6.836
 9124SOL    HW146059   2.662   7.741   6.879
 9124SOL    HW246060   2.749   7.809   6.759
 9125SOL     OW46061   7.505   1.656   8.283
 9125SOL    HW146062   7.466   1.719   8.215
 9125SOL    HW246063   7.584   1.699   8.326
 9126SOL     OW46064   5.414   5.089   8.722
 9126SOL    HW146065   5.357   5.170   8.713
 9126SOL    HW246066   5.477   5.101   0.018
 9127SOL     OW46067   8.002   6.729   8.599
 9127SOL    HW146068   8.044   6.661   8.660
 9127SOL    HW246069   7.959   6.801   8.654
 9128SOL     OW46070   8.512   4.078   1.320
 9128SOL    HW146071   8.540   3.983   1.312
 9128SOL    HW246072   8.446   4.088   1.395
 9129SOL     OW46073   3.433  10.464   6.906
 9129SOL    HW146074   3.485   0.026   6.850
 9129SOL    HW246075   3.483  10.446   6.991
 9130SOL     OW46076   0.842   6.811   0.978
 9130SOL    HW146077   0.839   6.844   0.883
 9130SOL    HW246078   0.770   6.743   0.992
 9131SOL     OW46079   6.951   9.700   1.501
 9131SOL    HW146080   6.891   9.735   1.574
 9131SOL    HW246081   7.030   9.761   1.492
 9132SOL     OW46082   3.488   4.257   7.539
 9132SOL    HW146083   3.563   4.195   7.518
 9132SOL    HW246084   3.481   4.327   7.468
 9133SOL     OW46085   9.643   7.451   7.590
 9133SOL    HW146086   9.734   7.490   7.600
 9133SOL    HW246087   9.592   7.504   7.522
 9134SOL     OW46088   7.394   4.051   0.116
 9134SOL    HW146089   7.441   3.973   0.158
 9134SOL    HW246090   7.369   4.028   0.022
 9135SOL     OW46091   5.664   8.501   0.233
 9135SOL    HW146092   5.663   8.405   0.263
 9135SOL    HW246093   5.598   8.553   0.288
 9136SOL     OW46094   7.730   9.384   8.278
 9136SOL    HW146095   7.694   9.376   8.371
 9136SOL    HW246096   7.830   9.380   8.280
 9137SOL     OW46097   6.321   7.226   1.600
 9137SOL    HW146098   6.415   7.199   1.619
 9137SOL    HW246099   6.258   7.159   1.640
 9138SOL     OW46100   4.249   2.941   0.524
 9138SOL    HW146101   4.226   2.999   0.446
 9138SOL    HW246102   4.339   2.967   0.559
 9139SOL     OW46103   5.955   0.511   8.754
 9139SOL    HW146104   6.055   0.503   8.752
 9139SOL    HW246105   5.923   0.549   8.667
 9140SOL     OW46106   3.000   6.430   2.220
 9140SOL    HW146107   3.073   6.375   2.260
 9140SOL    HW246108   2.943   6.469   2.292
 9141SOL     OW46109   6.722   5.990   7.552
 9141SOL    HW146110   6.783   6.061   7.587
 9141SOL    HW246111   6.661   5.959   7.626
 9142SOL     OW46112   3.357   3.438   0.668
 9142SOL    HW146113   3.366   3.360   0.605
 9142SOL    HW246114   3.395   3.413   0.757
 9143SOL     OW46115   0.454   9.354   1.429
 9143SOL    HW146116   0.460   9.444   1.386
 9143SOL    HW246117   0.364   9.314   1.410
 9144SOL     OW46118   3.111   5.606   7.861
 9144SOL    HW146119   3.166   5.548   7.921
 9144SOL    HW246120   3.057   5.669   7.916
 9145SOL     OW46121   2.013   6.948   1.416
 9145SOL    HW146122   1.958   7.017   1.367
 9145SOL    HW246123   2.018   6.973   1.513
 9146SOL     OW46124   9.823   1.703   8.377
 9146SOL    HW146125   9.753   1.770   8.402
 9146SOL    HW246126   9.865   1.728   8.290
 9147SOL     OW46127   6.535   9.994   0.124
 9147SOL    HW146128   6.502   9.917   0.179
 9147SOL    HW246129   6.626  10.020   0.154
 9148SOL     OW46130   3.666   9.234   6.518
 9148SOL    HW146131   3.586   9.195   6.473
 9148SOL    HW246132   3.679   9.329   6.488
 9149SOL     OW46133   2.902   9.674   0.381
 9149SOL    HW146134   2.976   9.631   0.432
 9149SOL    HW246135   2.848   9.604   0.334
 9150SOL     OW46136   3.713   2.243   8.194
 9150SOL    HW146137   3.751   2.159   8.233
 9150SOL    HW246138   3.714   2.315   8.262
 9151SOL     OW46139   7.031   3.159   0.199
 9151SOL    HW146140   6.944   3.144   0.246
 9151SOL    HW246141   7.015   3.211   0.115
 9152SOL     OW46142   6.006   3.658   2.469
 9152SOL    HW146143   6.075   3.658   2.396
 9152SOL    HW246144   6.052   3.668   2.557
 9153SOL     OW46145   0.837   3.513   8.381
 9153SOL    HW146146   0.759   3.453   8.361
 9153SOL    HW246147   0.852   3.514   8.480
 9154SOL     OW46148   6.321   9.877   7.259
 9154SOL    HW146149   6.285   9.870   7.166
 9154SOL    HW246150   6.366   9.965   7.271
 9155SOL     OW46151   8.604   8.477   7.363
 9155SOL    HW146152   8.629   8.573   7.353
 9155SOL    HW246153   8.685   8.420   7.353
 9156SOL     OW46154   9.677  10.367   8.682
 9156SOL    HW146155   9.580  10.357   8.661
 9156SOL    HW246156   9.691  10.352   8.780
 9157SOL     OW46157   2.925   8.252   7.876
 9157SOL    HW146158   2.911   8.240   7.778
 9157SOL    HW246159   2.901   8.167   7.924
 9158SOL     OW46160   1.215   2.073   6.416
 9158SOL    HW146161   1.254   2.026   6.336
 9158SOL    HW246162   1.154   2.146   6.385
 9159SOL     OW46163   9.606   5.262   8.098
 9159SOL    HW146164   9.609   5.287   8.194
 9159SOL    HW246165   9.681   5.306   8.049
 9160SOL     OW46166   8.931   4.043   8.129
 9160SOL    HW146167   8.847   4.054   8.183
 9160SOL    HW246168   8.932   3.953   8.086
 9161SOL     OW46169   0.540   8.035   2.115
 9161SOL    HW146170   0.484   8.055   2.195
 9161SOL    HW246171   0.628   7.998   2.143
 9162SOL     OW46172   6.703   8.436   7.700
 9162SOL    HW146173   6.734   8.347   7.667
 9162SOL    HW246174   6.765   8.468   7.771
 9163SOL     OW46175   6.646   3.175   7.919
 9163SOL    HW146176   6.716   3.107   7.941
 9163SOL    HW246177   6.608   3.155   7.829
 9164SOL     OW46178   2.294   2.857   8.538
 9164SOL    HW146179   2.252   2.848   8.448
 9164SOL    HW246180   2.393   2.854   8.529
 9165SOL     OW46181   2.363   0.946   0.195
 9165SOL    HW146182   2.423   0.925   0.272
 9165SOL    HW246183   2.357   1.045   0.183
 9166SOL     OW46184   1.126  10.449   1.557
 9166SOL    HW146185   1.071   0.012   1.608
 9166SOL    HW246186   1.068  10.402   1.491
 9167SOL     OW46187   0.594   2.643   8.255
 9167SOL    HW146188   0.676   2.586   8.250
 9167SOL    HW246189   0.618   2.739   8.237
 9168SOL     OW46190   3.241   2.874   1.247
 9168SOL    HW146191   3.230   2.938   1.323
 9168SOL    HW246192   3.254   2.782   1.283
 9169SOL     OW46193   3.369   4.301   0.565
 9169SOL    HW146194   3.420   4.262   0.488
 9169SOL    HW246195   3.289   4.350   0.530
 9170SOL     OW46196   3.947   5.295   7.723
 9170SOL    HW146197   3.868   5.244   7.689
 9170SOL    HW246198   3.921   5.346   7.806
 9171SOL     OW46199   2.348   5.522   8.438
 9171SOL    HW146200   2.310   5.594   8.379
 9171SOL    HW246201   2.363   5.440   8.384
 9172SOL     OW46202   2.816  10.122   8.680
 9172SOL    HW146203   2.815  10.157   8.587
 9172SOL    HW246204   2.813  10.022   8.678
 9173SOL     OW46205   8.536   5.462   1.460
 9173SOL    HW146206   8.627   5.474   1.500
 9173SOL    HW246207   8.510   5.544   1.410
 9174SOL     OW46208   7.604   6.298   8.379
 9174SOL    HW146209   7.692   6.307   8.425
 9174SOL    HW246210   7.537   6.257   8.442
 9175SOL     OW46211   7.681   9.552   2.060
 9175SOL    HW146212   7.639   9.605   2.133
 9175SOL    HW246213   7.652   9.456   2.067
 9176SOL     OW46214   9.800   5.849   8.301
 9176SOL    HW146215   9.808   5.918   8.229
 9176SOL    HW246216   9.776   5.894   8.387
 9177SOL     OW46217   7.125   7.759   0.847
 9177SOL    HW146218   7.138   7.757   0.748
 9177SOL    HW246219   7.113   7.853   0.878
 9178SOL     OW46220   0.914   1.379   6.169
 9178SOL    HW146221   0.949   1.300   6.119
 9178SOL    HW246222   0.972   1.458   6.152
 9179SOL     OW46223   8.278   5.445   1.600
 9179SOL    HW146224   8.292   5.411   1.693
 9179SOL    HW246225   8.364   5.436   1.549
 9180SOL     OW46226   5.894   1.100   7.926
 9180SOL    HW146227   5.845   1.185   7.909
 9180SOL    HW246228   5.946   1.107   8.011
 9181SOL     OW46229   0.347   7.374   7.132
 9181SOL    HW146230   0.263   7.325   7.108
 9181SOL    HW246231   0.420   7.346   7.070
 9182SOL     OW46232   7.547   6.416   7.420
 9182SOL    HW146233   7.628   6.474   7.421
 9182SOL    HW246234   7.563   6.336   7.479
 9183SOL     OW46235   0.587   6.968   7.891
 9183SOL    HW146236   0.585   6.884   7.945
 9183SOL    HW246237   0.588   7.047   7.952
 9184SOL     OW46238   8.966  10.398   2.613
 9184SOL    HW146239   8.957  10.490   2.653
 9184SOL    HW246240   8.935  10.330   2.680
 9185SOL     OW46241   8.967   4.550   8.193
 9185SOL    HW146242   8.969   4.484   8.118
 9185SOL    HW246243   9.006   4.637   8.162
 9186SOL     OW46244   6.710   5.333   7.587
 9186SOL    HW146245   6.800   5.307   7.553
 9186SOL    HW246246   6.715   5.350   7.686
 9187SOL     OW46247   1.005   5.484   1.251
 9187SOL    HW146248   1.074   5.413   1.232
 9187SOL    HW246249   0.934   5.480   1.181
 9188SOL     OW46250   6.859   2.365   1.376
 9188SOL    HW146251   6.848   2.388   1.472
 9188SOL    HW246252   6.857   2.449   1.321
 9189SOL     OW46253   4.872   8.169   8.282
 9189SOL    HW146254   4.916   8.257   8.303
 9189SOL    HW246255   4.788   8.186   8.231
 9190SOL     OW46256   9.394   9.325   0.374
 9190SOL    HW146257   9.315   9.303   0.430
 9190SOL    HW246258   9.425   9.418   0.394
 9191SOL     OW46259   1.654   7.934   7.357
 9191SOL    HW146260   1.699   7.904   7.273
 9191SOL    HW246261   1.555   7.925   7.346
 9192SOL     OW46262   3.153   1.701   8.492
 9192SOL    HW146263   3.119   1.795   8.499
 9192SOL    HW246264   3.251   1.703   8.474
 9193SOL     OW46265   1.272   2.028   8.256
 9193SOL    HW146266   1.313   1.936   8.262
 9193SOL    HW246267   1.331   2.094   8.301
 9194SOL     OW46268   1.786   4.684   6.848
 9194SOL    HW146269   1.831   4.771   6.828
 9194SOL    HW246270   1.840   4.633   6.915
 9195SOL     OW46271   3.298   6.291   8.115
 9195SOL    HW146272   3.371   6.268   8.051
 9195SOL    HW246273   3.240   6.211   8.129
 9196SOL     OW46274   6.225   9.471   7.487
 9196SOL    HW146275   6.216   9.384   7.535
 9196SOL    HW246276   6.183   9.544   7.541
 9197SOL     OW46277   7.486   0.477   8.446
 9197SOL    HW146278   7.569   0.531   8.465
 9197SOL    HW246279   7.421   0.534   8.396
 9198SOL     OW46280   2.423   9.509   7.052
 9198SOL    HW146281   2.367   9.576   7.101
 9198SOL    HW246282   2.494   9.473   7.112
 9199SOL     OW46283   7.243   1.076   6.845
 9199SOL    HW146284   7.197   1.032   6.768
 9199SOL    HW246285   7.191   1.059   6.929
 9200SOL     OW46286   8.667  10.189   7.108
 9200SOL    HW146287   8.633  10.136   7.030
 9200SOL    HW246288   8.605  10.180   7.185
 9201SOL     OW46289   5.630   4.294   7.149
 9201SOL    HW146290   5.622   4.393   7.135
 9201SOL    HW246291   5.546   4.249   7.119
 9202SOL     OW46292   5.890   2.769   6.787
 9202SOL    HW146293   5.807   2.817   6.756
 9202SOL    HW246294   5.908   2.794   6.883
 9203SOL     OW46295   1.596   3.354   1.895
 9203SOL    HW146296   1.642   3.404   1.822
 9203SOL    HW246297   1.576   3.261   1.865
 9204SOL     OW46298   9.668   8.225   1.842
 9204SOL    HW146299   9.595   8.242   1.908
 9204SOL    HW246300   9.736   8.164   1.882
 9205SOL     OW46301   0.313   1.430   0.752
 9205SOL    HW146302   0.293   1.491   0.675
 9205SOL    HW246303   0.370   1.478   0.819
 9206SOL     OW46304   0.698   1.147   0.122
 9206SOL    HW146305   0.741   1.233   0.150
 9206SOL    HW246306   0.598   1.156   0.130
 9207SOL     OW46307   0.658   0.196   7.218
 9207SOL    HW146308   0.728   0.204   7.146
 9207SOL    HW246309   0.703   0.182   7.306
 9208SOL     OW46310   0.230   5.907   8.297
 9208SOL    HW146311   0.214   5.823   8.246
 9208SOL    HW246312   0.147   5.934   8.344
 9209SOL     OW46313   8.202   8.838   6.874
 9209SOL    HW146314   8.121   8.880   6.916
 9209SOL    HW246315   8.209   8.870   6.779
 9210SOL     OW46316   2.421   4.672   0.184
 9210SOL    HW146317   2.418   4.646   0.088
 9210SOL    HW246318   2.334   4.713   0.211
 9211SOL     OW46319   6.132   2.345   6.842
 9211SOL    HW146320   6.116   2.429   6.894
 9211SOL    HW246321   6.143   2.367   6.745
 9212SOL     OW46322   3.598   8.854   7.537
 9212SOL    HW146323   3.682   8.903   7.561
 9212SOL    HW246324   3.554   8.899   7.460
 9213SOL     OW46325   4.643   9.588   0.857
 9213SOL    HW146326   4.627   9.489   0.862
 9213SOL    HW246327   4.657   9.625   0.949
 9214SOL     OW46328   9.360   6.797   1.411
 9214SOL    HW146329   9.414   6.777   1.492
 9214SOL    HW246330   9.413   6.773   1.329
 9215SOL     OW46331   6.547   2.439   7.097
 9215SOL    HW146332   6.562   2.418   7.000
 9215SOL    HW246333   6.580   2.531   7.117
 9216SOL     OW46334   5.111   4.338   7.304
 9216SOL    HW146335   5.071   4.280   7.233
 9216SOL    HW246336   5.088   4.434   7.285
 9217SOL     OW46337   8.793   6.491   0.058
 9217SOL    HW146338   8.703   6.500   0.101
 9217SOL    HW246339   8.821   6.580   0.021
 9218SOL     OW46340   3.818   1.733   1.175
 9218SOL    HW146341   3.725   1.695   1.170
 9218SOL    HW246342   3.816   1.816   1.231
 9219SOL     OW46343   7.370   5.965   2.035
 9219SOL    HW146344   7.275   5.995   2.044
 9219SOL    HW246345   7.417   5.974   2.123
 9220SOL     OW46346   6.971   6.012   7.991
 9220SOL    HW146347   6.921   5.948   7.933
 9220SOL    HW246348   6.922   6.025   8.077
 9221SOL     OW46349   7.009  10.320   7.064
 9221SOL    HW146350   6.984  10.270   6.982
 9221SOL    HW246351   6.950  10.292   7.140
 9222SOL     OW46352   6.631   4.720   8.447
 9222SOL    HW146353   6.691   4.640   8.453
 9222SOL    HW246354   6.651   4.770   8.363
 9223SOL     OW46355   2.535   4.551   8.154
 9223SOL    HW146356   2.518   4.454   8.135
 9223SOL    HW246357   2.574   4.561   8.245
 9224SOL     OW46358   2.772   1.069   6.539
 9224SOL    HW146359   2.826   1.145   6.575
 9224SOL    HW246360   2.695   1.052   6.600
 9225SOL     OW46361   8.644   8.657   1.821
 9225SOL    HW146362   8.559   8.624   1.780
 9225SOL    HW246363   8.659   8.612   1.909
 9226SOL     OW46364   0.827  10.453   8.437
 9226SOL    HW146365   0.899  10.424   8.374
 9226SOL    HW246366   0.780   0.030   8.398
 9227SOL     OW46367   7.002   3.785   7.852
 9227SOL    HW146368   6.981   3.875   7.813
 9227SOL    HW246369   7.080   3.746   7.803
 9228SOL     OW46370   2.323   1.761   6.197
 9228SOL    HW146371   2.412   1.768   6.152
 9228SOL    HW246372   2.253   1.803   6.139
 9229SOL     OW46373   2.116   5.385   6.766
 9229SOL    HW146374   2.154   5.300   6.803
 9229SOL    HW246375   2.037   5.412   6.819
 9230SOL     OW46376   0.711   7.340   0.387
 9230SOL    HW146377   0.689   7.242   0.388
 9230SOL    HW246378   0.674   7.383   0.469
 9231SOL     OW46379   5.537   9.069   0.239
 9231SOL    HW146380   5.466   9.000   0.226
 9231SOL    HW246381   5.495   9.160   0.244
 9232SOL     OW46382   2.355   4.326   8.775
 9232SOL    HW146383   2.380   4.422   8.762
 9232SOL    HW246384   2.386   4.295   0.083
 9233SOL     OW46385   3.369   8.185   1.679
 9233SOL    HW146386   3.274   8.213   1.664
 9233SOL    HW246387   3.428   8.265   1.672
 9234SOL     OW46388   2.866   6.574   0.712
 9234SOL    HW146389   2.871   6.661   0.662
 9234SOL    HW246390   2.886   6.499   0.650
 9235SOL     OW46391   3.119   4.683   0.891
 9235SOL    HW146392   3.087   4.773   0.862
 9235SOL    HW246393   3.172   4.642   0.817
 9236SOL     OW46394   8.665   2.500   0.560
 9236SOL    HW146395   8.654   2.425   0.625
 9236SOL    HW246396   8.738   2.477   0.495
 9237SOL     OW46397   7.663   8.604   1.428
 9237SOL    HW146398   7.649   8.686   1.483
 9237SOL    HW246399   7.639   8.523   1.482
 9238SOL     OW46400   2.441   2.088   7.509
 9238SOL    HW146401   2.356   2.132   7.480
 9238SOL    HW246402   2.513   2.108   7.443
 9239SOL     OW46403   4.788   3.580   7.287
 9239SOL    HW146404   4.711   3.605   7.228
 9239SOL    HW246405   4.755   3.523   7.362
 9240SOL     OW46406   2.894   0.342   6.150
 9240SOL    HW146407   2.919   0.249   6.178
 9240SOL    HW246408   2.861   0.341   6.055
 9241SOL     OW46409   9.193   4.304   7.658
 9241SOL    HW146410   9.108   4.272   7.616
 9241SOL    HW246411   9.269   4.288   7.595
 9242SOL     OW46412   4.497  10.168   8.486
 9242SOL    HW146413   4.523  10.242   8.547
 9242SOL    HW246414   4.575  10.107   8.473
 9243SOL     OW46415   7.734   7.306   1.558
 9243SOL    HW146416   7.665   7.377   1.551
 9243SOL    HW246417   7.815   7.333   1.506
 9244SOL     OW46418   4.103   1.910   1.742
 9244SOL    HW146419   4.143   1.845   1.806
 9244SOL    HW246420   4.077   1.993   1.791
 9245SOL     OW46421   4.366   3.932   8.701
 9245SOL    HW146422   4.344   4.010   8.759
 9245SOL    HW246423   4.282   3.897   8.660
 9246SOL     OW46424   5.160   2.233   6.257
 9246SOL    HW146425   5.243   2.289   6.256
 9246SOL    HW246426   5.099   2.264   6.184
 9247SOL     OW46427   3.977   9.261   6.700
 9247SOL    HW146428   3.886   9.289   6.729
 9247SOL    HW246429   3.981   9.258   6.600
 9248SOL     OW46430   3.523   8.771   0.166
 9248SOL    HW146431   3.509   8.677   0.196
 9248SOL    HW246432   3.506   8.834   0.242
 9249SOL     OW46433   2.311   6.245   7.156
 9249SOL    HW146434   2.212   6.252   7.164
 9249SOL    HW246435   2.354   6.328   7.192
 9250SOL     OW46436   0.786   9.133   8.755
 9250SOL    HW146437   0.694   9.138   8.718
 9250SOL    HW246438   0.796   9.199   0.048
 9251SOL     OW46439   7.243   5.371   1.092
 9251SOL    HW146440   7.325   5.321   1.065
 9251SOL    HW246441   7.253   5.405   1.185
 9252SOL     OW46442   6.990   1.072   1.273
 9252SOL    HW146443   7.012   1.169   1.282
 9252SOL    HW246444   7.060   1.027   1.218
 9253SOL     OW46445   0.456   1.040   1.846
 9253SOL    HW146446   0.424   0.947   1.829
 9253SOL    HW246447   0.404   1.081   1.920
 9254SOL     OW46448   9.235   6.675   0.809
 9254SOL    HW146449   9.248   6.580   0.837
 9254SOL    HW246450   9.230   6.734   0.890
 9255SOL     OW46451   0.223   6.816   6.494
 9255SOL    HW146452   0.136   6.865   6.502
 9255SOL    HW246453   0.239   6.793   6.398
 9256SOL     OW46454   1.730   4.783   0.271
 9256SOL    HW146455   1.691   4.754   0.358
 9256SOL    HW246456   1.741   4.703   0.211
 9257SOL     OW46457   0.146   9.214   7.878
 9257SOL    HW146458   0.200   9.154   7.937
 9257SOL    HW246459   0.136   9.304   7.921
 9258SOL     OW46460   7.353   6.043   0.149
 9258SOL    HW146461   7.272   6.013   0.098
 9258SOL    HW246462   7.367   5.982   0.227
 9259SOL     OW46463   8.649   5.844   7.204
 9259SOL    HW146464   8.631   5.898   7.286
 9259SOL    HW246465   8.745   5.852   7.179
 9260SOL     OW46466   0.998   7.782   6.468
 9260SOL    HW146467   0.977   7.807   6.373
 9260SOL    HW246468   0.983   7.684   6.481
 9261SOL     OW46469   0.807   2.427   1.931
 9261SOL    HW146470   0.849   2.340   1.953
 9261SOL    HW246471   0.775   2.471   2.015
 9262SOL     OW46472   2.751   2.514   7.283
 9262SOL    HW146473   2.683   2.570   7.331
 9262SOL    HW246474   2.706   2.464   7.210
 9263SOL     OW46475   4.404   0.314   0.682
 9263SOL    HW146476   4.445   0.302   0.592
 9263SOL    HW246477   4.345   0.395   0.681
 9264SOL     OW46478   9.981   0.620   1.616
 9264SOL    HW146479  10.054   0.662   1.670
 9264SOL    HW246480   9.986   0.653   1.521
 9265SOL     OW46481   3.140   9.829   7.492
 9265SOL    HW146482   3.113   9.897   7.423
 9265SOL    HW246483   3.103   9.855   7.581
 9266SOL     OW46484   6.744   8.106   6.848
 9266SOL    HW146485   6.838   8.117   6.813
 9266SOL    HW246486   6.692   8.050   6.784
 9267SOL     OW46487   5.755   5.332   7.776
 9267SOL    HW146488   5.683   5.263   7.767
 9267SOL    HW246489   5.821   5.302   7.846
 9268SOL     OW46490   7.109   8.061   7.217
 9268SOL    HW146491   7.020   8.078   7.173
 9268SOL    HW246492   7.094   8.030   7.311
 9269SOL     OW46493   1.571   8.314   0.469
 9269SOL    HW146494   1.492   8.256   0.449
 9269SOL    HW246495   1.646   8.293   0.406
 9270SOL     OW46496   5.992   8.433   0.774
 9270SOL    HW146497   6.073   8.454   0.720
 9270SOL    HW246498   5.911   8.435   0.715
 9271SOL     OW46499   4.713   4.394   0.378
 9271SOL    HW146500   4.690   4.448   0.459
 9271SOL    HW246501   4.639   4.402   0.311
 9272SOL     OW46502   0.096   1.725   6.553
 9272SOL    HW146503   0.022   1.790   6.537
 9272SOL    HW246504   0.059   1.633   6.564
 9273SOL     OW46505   3.093   5.026   7.448
 9273SOL    HW146506   3.179   5.005   7.402
 9273SOL    HW246507   3.028   5.064   7.382
 9274SOL     OW46508   9.049   3.612   1.584
 9274SOL    HW146509   9.145   3.607   1.614
 9274SOL    HW246510   8.997   3.539   1.628
 9275SOL     OW46511   4.063   0.984   8.428
 9275SOL    HW146512   4.111   0.967   8.342
 9275SOL    HW246513   4.088   1.075   8.462
 9276SOL     OW46514   1.820   6.025   7.651
 9276SOL    HW146515   1.744   6.049   7.590
 9276SOL    HW246516   1.794   6.044   7.746
 9277SOL     OW46517   0.353   0.749   0.944
 9277SOL    HW146518   0.448   0.732   0.915
 9277SOL    HW246519   0.291   0.728   0.868
 9278SOL     OW46520   7.332  10.415   1.862
 9278SOL    HW146521   7.294  10.323   1.854
 9278SOL    HW246522   7.346  10.437   1.958
 9279SOL     OW46523   7.586   8.517   6.496
 9279SOL    HW146524   7.631   8.581   6.433
 9279SOL    HW246525   7.487   8.529   6.491
 9280SOL     OW46526   4.000   0.923   0.326
 9280SOL    HW146527   4.053   0.838   0.326
 9280SOL    HW246528   3.906   0.904   0.356
 9281SOL     OW46529   9.004   8.691   7.061
 9281SOL    HW146530   8.985   8.710   7.157
 9281SOL    HW246531   9.096   8.655   7.052
 9282SOL     OW46532   7.035   5.270   7.262
 9282SOL    HW146533   6.940   5.285   7.232
 9282SOL    HW246534   7.035   5.229   7.353
 9283SOL     OW46535   4.205   5.333   7.082
 9283SOL    HW146536   4.256   5.248   7.069
 9283SOL    HW246537   4.122   5.314   7.134
 9284SOL     OW46538   0.015   3.793   1.635
 9284SOL    HW146539  10.147   3.697   1.640
 9284SOL    HW246540  10.101   3.849   1.676
 9285SOL     OW46541   2.121   1.508   8.724
 9285SOL    HW146542   2.039   1.539   8.773
 9285SOL    HW246543   2.141   1.414   8.749
 9286SOL     OW46544   1.554   9.243   8.282
 9286SOL    HW146545   1.513   9.332   8.262
 9286SOL    HW246546   1.640   9.256   8.331
 9287SOL     OW46547   0.655   9.183   1.359
 9287SOL    HW146548   0.582   9.244   1.389
 9287SOL    HW246549   0.728   9.183   1.428
 9288SOL     OW46550   7.286   2.589   7.824
 9288SOL    HW146551   7.348   2.645   7.879
 9288SOL    HW246552   7.295   2.493   7.850
 9289SOL     OW46553   0.196   4.897   6.513
 9289SOL    HW146554   0.151   4.957   6.446
 9289SOL    HW246555   0.237   4.819   6.466
 9290SOL     OW46556   1.344   9.740   0.997
 9290SOL    HW146557   1.284   9.792   1.058
 9290SOL    HW246558   1.422   9.705   1.050
 9291SOL     OW46559   5.561   0.804   7.238
 9291SOL    HW146560   5.530   0.894   7.207
 9291SOL    HW246561   5.487   0.757   7.286
 9292SOL     OW46562   2.501   5.899   7.699
 9292SOL    HW146563   2.474   5.937   7.787
 9292SOL    HW246564   2.419   5.875   7.647
 9293SOL     OW46565   1.083   7.362   0.148
 9293SOL    HW146566   1.048   7.343   0.239
 9293SOL    HW246567   1.090   7.276   0.096
 9294SOL     OW46568   0.843   4.642   0.936
 9294SOL    HW146569   0.757   4.685   0.962
 9294SOL    HW246570   0.884   4.691   0.859
 9295SOL     OW46571   7.694   1.703   7.857
 9295SOL    HW146572   7.775   1.704   7.917
 9295SOL    HW246573   7.621   1.653   7.902
 9296SOL     OW46574   2.476   6.276   7.952
 9296SOL    HW146575   2.475   6.346   8.024
 9296SOL    HW246576   2.449   6.317   7.865
 9297SOL     OW46577   5.962   1.089   1.538
 9297SOL    HW146578   6.060   1.074   1.553
 9297SOL    HW246579   5.920   1.120   1.623
 9298SOL     OW46580   9.472   4.295   7.361
 9298SOL    HW146581   9.450   4.354   7.283
 9298SOL    HW246582   9.491   4.203   7.329
 9299SOL     OW46583   9.888   6.684   0.124
 9299SOL    HW146584   9.945   6.737   0.062
 9299SOL    HW246585   9.896   6.721   0.216
 9300SOL     OW46586   3.752   2.986   0.593
 9300SOL    HW146587   3.729   3.016   0.500
 9300SOL    HW246588   3.736   2.888   0.601
 9301SOL     OW46589   3.366   9.746   7.636
 9301SOL    HW146590   3.294   9.767   7.571
 9301SOL    HW246591   3.358   9.806   7.715
 9302SOL     OW46592   8.553   5.496   6.589
 9302SOL    HW146593   8.602   5.413   6.613
 9302SOL    HW246594   8.604   5.547   6.520
 9303SOL     OW46595   1.647   3.489   7.238
 9303SOL    HW146596   1.607   3.465   7.149
 9303SOL    HW246597   1.646   3.409   7.297
 9304SOL     OW46598   2.337   9.214   7.409
 9304SOL    HW146599   2.360   9.170   7.322
 9304SOL    HW246600   2.415   9.204   7.472
 9305SOL     OW46601   2.134   5.782   6.859
 9305SOL    HW146602   2.120   5.861   6.920
 9305SOL    HW246603   2.090   5.801   6.771
 9306SOL     OW46604   9.394   2.888   0.984
 9306SOL    HW146605   9.332   2.836   0.926
 9306SOL    HW246606   9.360   2.982   0.994
 9307SOL     OW46607   6.518   0.378   2.193
 9307SOL    HW146608   6.537   0.307   2.261
 9307SOL    HW246609   6.436   0.353   2.142
 9308SOL     OW46610   3.260   9.193   8.308
 9308SOL    HW146611   3.270   9.206   8.406
 9308SOL    HW246612   3.336   9.237   8.260
 9309SOL     OW46613   0.907   2.669   0.940
 9309SOL    HW146614   0.932   2.730   1.015
 9309SOL    HW246615   0.830   2.709   0.889
 9310SOL     OW46616   0.546   8.026   7.835
 9310SOL    HW146617   0.451   8.041   7.862
 9310SOL    HW246618   0.605   8.095   7.878
 9311SOL     OW46619   2.958   3.065   1.305
 9311SOL    HW146620   2.960   3.132   1.230
 9311SOL    HW246621   3.049   3.058   1.346
 9312SOL     OW46622   6.836   6.677   8.774
 9312SOL    HW146623   6.761   6.659   8.711
 9312SOL    HW246624   6.808   6.746   0.059
 9313SOL     OW46625   7.733   0.939   6.661
 9313SOL    HW146626   7.755   1.029   6.624
 9313SOL    HW246627   7.676   0.948   6.742
 9314SOL     OW46628   4.077   4.840   1.384
 9314SOL    HW146629   4.086   4.839   1.285
 9314SOL    HW246630   4.088   4.934   1.417
 9315SOL     OW46631   0.699   5.481   2.032
 9315SOL    HW146632   0.749   5.559   2.071
 9315SOL    HW246633   0.706   5.403   2.095
 9316SOL     OW46634   8.807   3.371   0.292
 9316SOL    HW146635   8.734   3.437   0.312
 9316SOL    HW246636   8.862   3.403   0.215
 9317SOL     OW46637   7.317   8.999   6.759
 9317SOL    HW146638   7.383   9.074   6.757
 9317SOL    HW246639   7.352   8.923   6.705
 9318SOL     OW46640   2.190   2.779   1.156
 9318SOL    HW146641   2.229   2.833   1.081
 9318SOL    HW246642   2.114   2.829   1.197
 9319SOL     OW46643   5.896   9.689   2.034
 9319SOL    HW146644   5.801   9.703   2.005
 9319SOL    HW246645   5.902   9.698   2.134
 9320SOL     OW46646   1.372  10.399   1.460
 9320SOL    HW146647   1.367  10.430   1.365
 9320SOL    HW246648   1.288  10.423   1.508
 9321SOL     OW46649   2.470   1.756   1.894
 9321SOL    HW146650   2.556   1.785   1.852
 9321SOL    HW246651   2.477   1.765   1.993
 9322SOL     OW46652   6.896   1.809   7.342
 9322SOL    HW146653   6.865   1.876   7.275
 9322SOL    HW246654   6.987   1.775   7.315
 9323SOL     OW46655   4.189   0.008   1.586
 9323SOL    HW146656   4.263  10.478   1.644
 9323SOL    HW246657   4.107   0.022   1.642
 9324SOL     OW46658   6.917   4.343   7.464
 9324SOL    HW146659   7.016   4.352   7.476
 9324SOL    HW246660   6.891   4.381   7.375
 9325SOL     OW46661   7.395   9.167   7.649
 9325SOL    HW146662   7.327   9.218   7.596
 9325SOL    HW246663   7.483   9.168   7.600
 9326SOL     OW46664   1.529   5.032   0.542
 9326SOL    HW146665   1.476   4.950   0.522
 9326SOL    HW246666   1.498   5.071   0.629
 9327SOL     OW46667   9.733   2.500   8.167
 9327SOL    HW146668   9.788   2.577   8.134
 9327SOL    HW246669   9.729   2.429   8.096
 9328SOL     OW46670   9.023   3.733   8.291
 9328SOL    HW146671   8.999   3.820   8.334
 9328SOL    HW246672   9.016   3.743   8.191
 9329SOL     OW46673   6.733   0.845   2.149
 9329SOL    HW146674   6.682   0.760   2.135
 9329SOL    HW246675   6.674   0.912   2.194
 9330SOL     OW46676   9.928   9.386   6.651
 9330SOL    HW146677   9.983   9.332   6.588
 9330SOL    HW246678   9.837   9.400   6.612
 9331SOL     OW46679   8.340   1.005   0.194
 9331SOL    HW146680   8.401   0.926   0.197
 9331SOL    HW246681   8.358   1.058   0.111
 9332SOL     OW46682   6.758   1.129   0.640
 9332SOL    HW146683   6.807   1.102   0.723
 9332SOL    HW246684   6.713   1.217   0.654
 9333SOL     OW46685   1.781   4.730   7.697
 9333SOL    HW146686   1.703   4.694   7.647
 9333SOL    HW246687   1.760   4.821   7.731
 9334SOL     OW46688   4.895   4.242   1.177
 9334SOL    HW146689   4.808   4.290   1.179
 9334SOL    HW246690   4.946   4.263   1.261
 9335SOL     OW46691   8.101   5.777   0.887
 9335SOL    HW146692   8.050   5.780   0.973
 9335SOL    HW246693   8.187   5.827   0.898
 9336SOL     OW46694   0.951   5.966   1.309
 9336SOL    HW146695   0.988   6.039   1.250
 9336SOL    HW246696   0.997   5.880   1.287
 9337SOL     OW46697   1.475   6.594   6.921
 9337SOL    HW146698   1.517   6.525   6.980
 9337SOL    HW246699   1.493   6.685   6.958
 9338SOL     OW46700   6.448   0.982   1.308
 9338SOL    HW146701   6.492   1.030   1.232
 9338SOL    HW246702   6.450   0.884   1.291
 9339SOL     OW46703   2.198   4.414   7.053
 9339SOL    HW146704   2.164   4.326   7.088
 9339SOL    HW246705   2.268   4.449   7.115
 9340SOL     OW46706   3.076   8.549   0.941
 9340SOL    HW146707   3.100   8.622   1.005
 9340SOL    HW246708   3.088   8.460   0.986
 9341SOL     OW46709   5.900  10.454   1.488
 9341SOL    HW146710   5.880  10.372   1.542
 9341SOL    HW246711   5.819   0.011   1.488
 9342SOL     OW46712   1.005   7.242   0.821
 9342SOL    HW146713   1.083   7.205   0.873
 9342SOL    HW246714   1.039   7.308   0.754
 9343SOL     OW46715   0.537   8.143   1.657
 9343SOL    HW146716   0.576   8.232   1.635
 9343SOL    HW246717   0.502   8.144   1.751
 9344SOL     OW46718   3.747   2.813   6.916
 9344SOL    HW146719   3.750   2.839   6.820
 9344SOL    HW246720   3.796   2.727   6.930
 9345SOL     OW46721   4.523   2.897   0.339
 9345SOL    HW146722   4.487   2.962   0.272
 9345SOL    HW246723   4.473   2.810   0.332
 9346SOL     OW46724   0.323   6.826   8.165
 9346SOL    HW146725   0.298   6.739   8.208
 9346SOL    HW246726   0.329   6.897   8.235
 9347SOL     OW46727   3.961   0.704   0.795
 9347SOL    HW146728   3.884   0.760   0.766
 9347SOL    HW246729   3.955   0.615   0.750
 9348SOL     OW46730   5.734   6.278   8.603
 9348SOL    HW146731   5.784   6.248   8.685
 9348SOL    HW246732   5.778   6.359   8.565
 9349SOL     OW46733   8.948   8.586   0.612
 9349SOL    HW146734   8.867   8.635   0.582
 9349SOL    HW246735   8.937   8.488   0.591
 9350SOL     OW46736   0.595   7.471   8.530
 9350SOL    HW146737   0.513   7.456   8.586
 9350SOL    HW246738   0.675   7.475   8.590
 9351SOL     OW46739   7.479   3.487   1.777
 9351SOL    HW146740   7.475   3.443   1.867
 9351SOL    HW246741   7.406   3.556   1.770
 9352SOL     OW46742   2.327   6.923   1.039
 9352SOL    HW146743   2.295   6.889   1.127
 9352SOL    HW246744   2.411   6.976   1.052
 9353SOL     OW46745   7.994   2.166   0.820
 9353SOL    HW146746   8.060   2.241   0.824
 9353SOL    HW246747   7.974   2.146   0.724
 9354SOL     OW46748   0.240   5.658   6.709
 9354SOL    HW146749   0.294   5.605   6.645
 9354SOL    HW246750   0.174   5.599   6.755
 9355SOL     OW46751   1.876  10.173   6.015
 9355SOL    HW146752   1.883  10.073   6.018
 9355SOL    HW246753   1.915  10.206   5.929
 9356SOL     OW46754   4.397   9.215   7.438
 9356SOL    HW146755   4.408   9.312   7.457
 9356SOL    HW246756   4.318   9.201   7.378
 9357SOL     OW46757   7.745   5.729   6.231
 9357SOL    HW146758   7.658   5.720   6.183
 9357SOL    HW246759   7.819   5.736   6.164
 9358SOL     OW46760   0.704   3.443   1.396
 9358SOL    HW146761   0.643   3.446   1.475
 9358SOL    HW246762   0.797   3.467   1.424
 9359SOL     OW46763   2.112   8.334   6.803
 9359SOL    HW146764   2.074   8.242   6.807
 9359SOL    HW246765   2.140   8.355   6.710
 9360SOL     OW46766   5.021   1.512   2.104
 9360SOL    HW146767   4.970   1.455   2.168
 9360SOL    HW246768   5.051   1.595   2.149
 9361SOL     OW46769   6.255   2.641   8.056
 9361SOL    HW146770   6.288   2.564   8.111
 9361SOL    HW246771   6.264   2.619   7.959
 9362SOL     OW46772   2.894   4.689   8.307
 9362SOL    HW146773   2.938   4.665   8.221
 9362SOL    HW246774   2.860   4.783   8.301
 9363SOL     OW46775   7.785   6.999   0.413
 9363SOL    HW146776   7.809   6.903   0.400
 9363SOL    HW246777   7.685   7.008   0.417
 9364SOL     OW46778   8.066   1.128   0.546
 9364SOL    HW146779   7.971   1.112   0.575
 9364SOL    HW246780   8.099   1.212   0.589
 9365SOL     OW46781   4.880   5.990   0.206
 9365SOL    HW146782   4.822   5.910   0.213
 9365SOL    HW246783   4.826   6.073   0.222
 9366SOL     OW46784   3.089   1.611   7.395
 9366SOL    HW146785   3.153   1.687   7.409
 9366SOL    HW246786   3.094   1.549   7.473
 9367SOL     OW46787   6.744   6.215   8.734
 9367SOL    HW146788   6.794   6.135   8.700
 9367SOL    HW246789   6.670   6.238   8.671
 9368SOL     OW46790   6.692   7.221   1.335
 9368SOL    HW146791   6.689   7.123   1.319
 9368SOL    HW246792   6.663   7.241   1.428
 9369SOL     OW46793   9.754   3.644   0.003
 9369SOL    HW146794   9.666   3.692   0.002
 9369SOL    HW246795   9.762   3.587   8.703
 9370SOL     OW46796   5.821   4.888   8.530
 9370SOL    HW146797   5.812   4.968   8.590
 9370SOL    HW246798   5.872   4.914   8.448
 9371SOL     OW46799   2.568   6.238   2.008
 9371SOL    HW146800   2.492   6.265   2.067
 9371SOL    HW246801   2.584   6.140   2.017
 9372SOL     OW46802   2.817   0.806   8.536
 9372SOL    HW146803   2.817   0.761   8.447
 9372SOL    HW246804   2.881   0.759   8.597
 9373SOL     OW46805   6.100   7.372   8.227
 9373SOL    HW146806   6.140   7.417   8.307
 9373SOL    HW246807   6.080   7.440   8.157
 9374SOL     OW46808   5.320   6.665   2.101
 9374SOL    HW146809   5.390   6.634   2.164
 9374SOL    HW246810   5.349   6.750   2.057
 9375SOL     OW46811   0.138   9.027   1.550
 9375SOL    HW146812   0.063   9.002   1.489
 9375SOL    HW246813   0.205   8.952   1.553
 9376SOL     OW46814   7.470   4.764   8.091
 9376SOL    HW146815   7.447   4.710   8.172
 9376SOL    HW246816   7.424   4.852   8.094
 9377SOL     OW46817   0.058   3.903   6.232
 9377SOL    HW146818   0.058   3.860   6.142
 9377SOL    HW246819   0.114   3.850   6.295
 9378SOL     OW46820   0.238   4.503   8.066
 9378SOL    HW146821   0.335   4.525   8.066
 9378SOL    HW246822   0.193   4.553   8.141
 9379SOL     OW46823   4.552   8.161   8.659
 9379SOL    HW146824   4.631   8.124   8.610
 9379SOL    HW246825   4.544   8.115   8.748
 9380SOL     OW46826   3.389   0.221   1.000
 9380SOL    HW146827   3.424   0.297   0.945
 9380SOL    HW246828   3.371   0.252   1.093
 9381SOL     OW46829   1.206   0.230   0.609
 9381SOL    HW146830   1.272   0.298   0.641
 9381SOL    HW246831   1.171   0.258   0.520
 9382SOL     OW46832   5.244   4.799   0.806
 9382SOL    HW146833   5.217   4.796   0.709
 9382SOL    HW246834   5.336   4.836   0.813
 9383SOL     OW46835   1.370   7.397   1.949
 9383SOL    HW146836   1.458   7.366   1.983
 9383SOL    HW246837   1.381   7.485   1.902
 9384SOL     OW46838   2.258   7.155   0.533
 9384SOL    HW146839   2.249   7.205   0.619
 9384SOL    HW246840   2.173   7.107   0.513
 9385SOL     OW46841   1.598   7.822   1.408
 9385SOL    HW146842   1.611   7.806   1.310
 9385SOL    HW246843   1.632   7.913   1.432
 9386SOL     OW46844   1.610  10.190   0.914
 9386SOL    HW146845   1.696  10.148   0.942
 9386SOL    HW246846   1.610  10.287   0.941
 9387SOL     OW46847   4.235   6.193   0.590
 9387SOL    HW146848   4.279   6.104   0.579
 9387SOL    HW246849   4.156   6.184   0.650
 9388SOL     OW46850   1.575   4.268   6.988
 9388SOL    HW146851   1.516   4.197   7.026
 9388SOL    HW246852   1.565   4.270   6.889
 9389SOL     OW46853   7.703   8.007   6.541
 9389SOL    HW146854   7.716   7.947   6.462
 9389SOL    HW246855   7.770   7.985   6.611
 9390SOL     OW46856   3.183   5.940   1.271
 9390SOL    HW146857   3.146   6.012   1.330
 9390SOL    HW246858   3.167   5.964   1.176
 9391SOL     OW46859   4.022   4.508   1.164
 9391SOL    HW146860   4.090   4.553   1.106
 9391SOL    HW246861   3.932   4.548   1.147
 9392SOL     OW46862   0.110   9.435   8.345
 9392SOL    HW146863   0.185   9.425   8.410
 9392SOL    HW246864   0.129   9.510   8.282
 9393SOL     OW46865   3.396   7.809   1.385
 9393SOL    HW146866   3.333   7.788   1.459
 9393SOL    HW246867   3.345   7.819   1.299
 9394SOL     OW46868   2.882   7.069   8.179
 9394SOL    HW146869   2.903   7.019   8.095
 9394SOL    HW246870   2.783   7.071   8.193
 9395SOL     OW46871  10.044   1.562   0.815
 9395SOL    HW146872  10.002   1.579   0.904
 9395SOL    HW246873   9.988   1.604   0.744
 9396SOL     OW46874   1.747   3.453   6.755
 9396SOL    HW146875   1.783   3.445   6.848
 9396SOL    HW246876   1.720   3.363   6.721
 9397SOL     OW46877   5.554   6.464   8.000
 9397SOL    HW146878   5.464   6.421   8.000
 9397SOL    HW246879   5.613   6.418   8.067
 9398SOL     OW46880   4.716   2.337   7.713
 9398SOL    HW146881   4.651   2.391   7.659
 9398SOL    HW246882   4.809   2.358   7.685
 9399SOL     OW46883   0.746   2.395   1.507
 9399SOL    HW146884   0.652   2.363   1.494
 9399SOL    HW246885   0.749   2.461   1.582
 9400SOL     OW46886   9.972   7.768   0.224
 9400SOL    HW146887   9.999   7.851   0.273
 9400SOL    HW246888  10.030   7.756   0.144
 9401SOL     OW46889   8.909   0.359   7.972
 9401SOL    HW146890   8.941   0.454   7.967
 9401SOL    HW246891   8.869   0.333   7.884
 9402SOL     OW46892   9.029   5.535   8.721
 9402SOL    HW146893   8.954   5.533   0.006
 9402SOL    HW246894   9.106   5.484   8.758
 9403SOL     OW46895   3.648   8.535   1.315
 9403SOL    HW146896   3.595   8.456   1.345
 9403SOL    HW246897   3.745   8.522   1.339
 9404SOL     OW46898   8.712   0.628   7.888
 9404SOL    HW146899   8.703   0.686   7.969
 9404SOL    HW246900   8.623   0.589   7.864
 9405SOL     OW46901  10.005   6.167   8.271
 9405SOL    HW146902   9.933   6.120   8.219
 9405SOL    HW246903  10.044   6.240   8.215
 9406SOL     OW46904   7.215   0.067   1.209
 9406SOL    HW146905   7.148   0.118   1.156
 9406SOL    HW246906   7.305   0.111   1.201
 9407SOL     OW46907   9.469   8.178   7.494
 9407SOL    HW146908   9.372   8.188   7.513
 9407SOL    HW246909   9.505   8.100   7.544
 9408SOL     OW46910   7.235  10.154   1.909
 9408SOL    HW146911   7.198  10.086   1.846
 9408SOL    HW246912   7.211  10.129   2.003
 9409SOL     OW46913   0.757   1.321   7.372
 9409SOL    HW146914   0.718   1.306   7.463
 9409SOL    HW246915   0.751   1.418   7.349
 9410SOL     OW46916   5.813   5.485   0.212
 9410SOL    HW146917   5.777   5.547   0.282
 9410SOL    HW246918   5.825   5.535   0.127
 9411SOL     OW46919   4.428   0.833   1.549
 9411SOL    HW146920   4.410   0.885   1.633
 9411SOL    HW246921   4.438   0.736   1.573
 9412SOL     OW46922   9.293   3.138   1.049
 9412SOL    HW146923   9.224   3.140   1.120
 9412SOL    HW246924   9.372   3.192   1.078
 9413SOL     OW46925   0.767   5.329   0.659
 9413SOL    HW146926   0.816   5.334   0.572
 9413SOL    HW246927   0.833   5.333   0.735
 9414SOL     OW46928   6.696   2.914   1.023
 9414SOL    HW146929   6.792   2.886   1.022
 9414SOL    HW246930   6.647   2.871   0.948
 9415SOL     OW46931   8.494   7.616   7.816
 9415SOL    HW146932   8.554   7.549   7.772
 9415SOL    HW246933   8.545   7.701   7.830
 9416SOL     OW46934   5.412   6.509   1.783
 9416SOL    HW146935   5.386   6.602   1.758
 9416SOL    HW246936   5.352   6.476   1.856
 9417SOL     OW46937   6.685   1.689   6.449
 9417SOL    HW146938   6.667   1.690   6.351
 9417SOL    HW246939   6.605   1.724   6.498
 9418SOL     OW46940   2.824   6.112   6.658
 9418SOL    HW146941   2.748   6.171   6.629
 9418SOL    HW246942   2.824   6.029   6.604
 9419SOL     OW46943   4.908   7.362   1.930
 9419SOL    HW146944   4.867   7.308   2.003
 9419SOL    HW246945   4.926   7.455   1.963
 9420SOL     OW46946   2.605   9.802   1.076
 9420SOL    HW146947   2.521   9.821   1.127
 9420SOL    HW246948   2.583   9.756   0.990
 9421SOL     OW46949   4.264   7.185   1.087
 9421SOL    HW146950   4.189   7.122   1.107
 9421SOL    HW246951   4.280   7.186   0.988
 9422SOL     OW46952   2.812   0.913   0.969
 9422SOL    HW146953   2.785   1.008   0.986
 9422SOL    HW246954   2.856   0.876   1.051
 9423SOL     OW46955   9.518   7.065   2.216
 9423SOL    HW146956   9.604   7.103   2.248
 9423SOL    HW246957   9.474   7.015   2.290
 9424SOL     OW46958   6.643   9.611   7.940
 9424SOL    HW146959   6.546   9.592   7.954
 9424SOL    HW246960   6.690   9.612   8.028
 9425SOL     OW46961   3.664   8.002   1.769
 9425SOL    HW146962   3.637   7.923   1.824
 9425SOL    HW246963   3.625   7.994   1.677
 9426SOL     OW46964   5.650   7.196   7.819
 9426SOL    HW146965   5.718   7.123   7.823
 9426SOL    HW246966   5.691   7.279   7.781
 9427SOL     OW46967   2.782   9.371   1.498
 9427SOL    HW146968   2.781   9.368   1.398
 9427SOL    HW246969   2.703   9.322   1.534
 9428SOL     OW46970   7.433   8.796   6.621
 9428SOL    HW146971   7.497   8.837   6.556
 9428SOL    HW246972   7.393   8.715   6.580
 9429SOL     OW46973   1.883   7.666   8.659
 9429SOL    HW146974   1.950   7.727   8.619
 9429SOL    HW246975   1.889   7.576   8.616
 9430SOL     OW46976   3.387   2.107   0.039
 9430SOL    HW146977   3.388   2.167   8.741
 9430SOL    HW246978   3.352   2.017   0.013
 9431SOL     OW46979   5.572   3.039   0.483
 9431SOL    HW146980   5.480   3.066   0.512
 9431SOL    HW246981   5.568   2.948   0.441
 9432SOL     OW46982   5.137  10.223   7.883
 9432SOL    HW146983   5.082  10.142   7.906
 9432SOL    HW246984   5.189  10.252   7.963
 9433SOL     OW46985   8.496   3.508   7.605
 9433SOL    HW146986   8.465   3.500   7.699
 9433SOL    HW246987   8.427   3.470   7.543
 9434SOL     OW46988   9.968   5.817   7.890
 9434SOL    HW146989   9.981   5.914   7.907
 9434SOL    HW246990   9.936   5.804   7.796
 9435SOL     OW46991   1.886   4.952   8.434
 9435SOL    HW146992   1.832   5.020   8.385
 9435SOL    HW246993   1.871   4.861   8.396
 9436SOL     OW46994   4.769   2.458   7.182
 9436SOL    HW146995   4.751   2.475   7.086
 9436SOL    HW246996   4.685   2.469   7.235
 9437SOL     OW46997   9.523   2.325   1.054
 9437SOL    HW146998   9.437   2.274   1.046
 9437SOL    HW246999   9.541   2.345   1.150
 9438SOL     OW47000   8.186   6.000   8.170
 9438SOL    HW147001   8.251   6.040   8.235
 9438SOL    HW247002   8.105   6.059   8.164
 9439SOL     OW47003   3.081   4.301   1.112
 9439SOL    HW147004   3.035   4.246   1.182
 9439SOL    HW247005   3.132   4.241   1.051
 9440SOL     OW47006   9.574   4.801   8.728
 9440SOL    HW147007   9.539   4.804   0.040
 9440SOL    HW247008   9.514   4.744   8.672
 9441SOL     OW47009   1.923   8.125   6.603
 9441SOL    HW147010   1.854   8.163   6.664
 9441SOL    HW247011   1.888   8.124   6.509
 9442SOL     OW47012   2.155   7.999   6.657
 9442SOL    HW147013   2.076   8.052   6.625
 9442SOL    HW247014   2.239   8.045   6.630
 9443SOL     OW47015   4.835   5.003   1.111
 9443SOL    HW147016   4.909   4.988   1.177
 9443SOL    HW247017   4.871   4.991   1.018
 9444SOL     OW47018   1.763   1.441   7.604
 9444SOL    HW147019   1.740   1.536   7.626
 9444SOL    HW247020   1.799   1.436   7.511
 9445SOL     OW47021   1.108   8.367   7.518
 9445SOL    HW147022   1.157   8.282   7.497
 9445SOL    HW247023   1.129   8.395   7.612
 9446SOL     OW47024   5.050   0.074   1.442
 9446SOL    HW147025   5.139   0.080   1.488
 9446SOL    HW247026   5.055   0.120   1.354
 9447SOL     OW47027   7.548   9.832   1.245
 9447SOL    HW147028   7.512   9.837   1.152
 9447SOL    HW247029   7.554   9.924   1.283
 9448SOL     OW47030   1.712   4.733   8.246
 9448SOL    HW147031   1.703   4.650   8.190
 9448SOL    HW247032   1.676   4.715   8.338
 9449SOL     OW47033   2.305   2.897   7.218
 9449SOL    HW147034   2.396   2.907   7.259
 9449SOL    HW247035   2.276   2.984   7.180
 9450SOL     OW47036   3.922   1.937   0.061
 9450SOL    HW147037   4.004   1.879   0.057
 9450SOL    HW247038   3.868   1.913   0.142
 9451SOL     OW47039   0.278   0.137   8.302
 9451SOL    HW147040   0.317   0.219   8.261
 9451SOL    HW247041   0.184   0.125   8.271
 9452SOL     OW47042   4.329   9.627   6.426
 9452SOL    HW147043   4.322   9.558   6.498
 9452SOL    HW247044   4.337   9.582   6.337
 9453SOL     OW47045   0.843   8.360   7.435
 9453SOL    HW147046   0.941   8.344   7.447
 9453SOL    HW247047   0.828   8.410   7.349
 9454SOL     OW47048   5.288   1.885   0.237
 9454SOL    HW147049   5.241   1.834   0.165
 9454SOL    HW247050   5.350   1.823   0.286
 9455SOL     OW47051   4.066   9.695   6.960
 9455SOL    HW147052   3.981   9.685   7.012
 9455SOL    HW247053   4.096   9.790   6.964
 9456SOL     OW47054   2.349   1.252   1.137
 9456SOL    HW147055   2.357   1.349   1.113
 9456SOL    HW247056   2.264   1.237   1.188
 9457SOL     OW47057   4.476   0.415   7.102
 9457SOL    HW147058   4.559   0.365   7.075
 9457SOL    HW247059   4.428   0.362   7.173
 9458SOL     OW47060   0.479   3.834   0.845
 9458SOL    HW147061   0.489   3.802   0.751
 9458SOL    HW247062   0.521   3.925   0.853
 9459SOL     OW47063   7.073   9.681   0.052
 9459SOL    HW147064   7.071   9.582   0.045
 9459SOL    HW247065   7.161   9.715   0.020
 9460SOL     OW47066   3.395   7.536   1.176
 9460SOL    HW147067   3.443   7.471   1.234
 9460SOL    HW247068   3.310   7.564   1.221
 9461SOL     OW47069   9.111   3.310   7.555
 9461SOL    HW147070   9.092   3.223   7.509
 9461SOL    HW247071   9.210   3.326   7.555
 9462SOL     OW47072   3.325   0.444   7.770
 9462SOL    HW147073   3.294   0.483   7.683
 9462SOL    HW247074   3.307   0.346   7.770
 9463SOL     OW47075   7.508   6.752   6.359
 9463SOL    HW147076   7.423   6.791   6.392
 9463SOL    HW247077   7.538   6.802   6.277
 9464SOL     OW47078   9.764   2.981   6.724
 9464SOL    HW147079   9.685   2.967   6.665
 9464SOL    HW247080   9.739   2.957   6.818
 9465SOL     OW47081   8.059   8.607   6.815
 9465SOL    HW147082   7.990   8.643   6.752
 9465SOL    HW247083   8.122   8.679   6.841
 9466SOL     OW47084   8.078   3.469   7.334
 9466SOL    HW147085   8.081   3.484   7.235
 9466SOL    HW247086   8.051   3.554   7.380
 9467SOL     OW47087   4.820   8.903   8.291
 9467SOL    HW147088   4.849   8.998   8.283
 9467SOL    HW247089   4.856   8.864   8.376
 9468SOL     OW47090   3.066   5.805   8.570
 9468SOL    HW147091   3.104   5.897   8.577
 9468SOL    HW247092   2.975   5.810   8.528
 9469SOL     OW47093   5.699   5.787   8.196
 9469SOL    HW147094   5.776   5.839   8.159
 9469SOL    HW247095   5.723   5.690   8.199
 9470SOL     OW47096   1.227   1.048   2.135
 9470SOL    HW147097   1.146   1.035   2.193
 9470SOL    HW247098   1.272   1.134   2.159
 9471SOL     OW47099   4.996   2.372   6.078
 9471SOL    HW147100   4.904   2.347   6.046
 9471SOL    HW247101   5.050   2.405   6.000
 9472SOL     OW47102   3.139   3.851   1.008
 9472SOL    HW147103   3.228   3.805   1.004
 9472SOL    HW247104   3.078   3.801   1.068
 9473SOL     OW47105   3.111   6.924   0.679
 9473SOL    HW147106   3.030   6.880   0.640
 9473SOL    HW247107   3.190   6.863   0.670
 9474SOL     OW47108   2.805   9.852   8.688
 9474SOL    HW147109   2.860   9.782   8.642
 9474SOL    HW247110   2.818   9.844   0.005
 9475SOL     OW47111   3.047   4.445   6.614
 9475SOL    HW147112   3.063   4.539   6.644
 9475SOL    HW247113   3.087   4.431   6.523
 9476SOL     OW47114   5.756   6.455   6.938
 9476SOL    HW147115   5.841   6.506   6.955
 9476SOL    HW247116   5.710   6.493   6.857
 9477SOL     OW47117   6.378   5.574   7.537
 9477SOL    HW147118   6.417   5.482   7.541
 9477SOL    HW247119   6.440   5.636   7.490
 9478SOL     OW47120   4.091   3.400   7.599
 9478SOL    HW147121   4.002   3.429   7.564
 9478SOL    HW247122   4.138   3.478   7.639
 9479SOL     OW47123   7.224  10.024   8.654
 9479SOL    HW147124   7.217  10.038   8.556
 9479SOL    HW247125   7.180  10.100   8.702
 9480SOL     OW47126   6.562   7.548   0.969
 9480SOL    HW147127   6.635   7.562   0.902
 9480SOL    HW247128   6.484   7.606   0.947
 9481SOL     OW47129   3.356   1.379   6.955
 9481SOL    HW147130   3.332   1.299   7.010
 9481SOL    HW247131   3.421   1.352   6.884
 9482SOL     OW47132   7.577   9.034   2.059
 9482SOL    HW147133   7.640   8.987   2.120
 9482SOL    HW247134   7.486   8.991   2.065
 9483SOL     OW47135   3.476   8.977   7.325
 9483SOL    HW147136   3.483   8.891   7.274
 9483SOL    HW247137   3.497   9.054   7.263
 9484SOL     OW47138   8.504   6.553   8.501
 9484SOL    HW147139   8.473   6.567   8.595
 9484SOL    HW247140   8.476   6.631   8.444
 9485SOL     OW47141   5.544   2.093   7.747
 9485SOL    HW147142   5.499   2.027   7.807
 9485SOL    HW247143   5.573   2.047   7.663
 9486SOL     OW47144   6.695   9.788   0.313
 9486SOL    HW147145   6.733   9.874   0.278
 9486SOL    HW247146   6.766   9.718   0.317
 9487SOL     OW47147   0.840   4.309   7.463
 9487SOL    HW147148   0.761   4.261   7.502
 9487SOL    HW247149   0.918   4.247   7.458
 9488SOL     OW47150   8.191   6.412   2.162
 9488SOL    HW147151   8.149   6.328   2.129
 9488SOL    HW247152   8.288   6.413   2.136
 9489SOL     OW47153   3.340   5.114   7.962
 9489SOL    HW147154   3.274   5.063   7.907
 9489SOL    HW247155   3.298   5.140   8.049
 9490SOL     OW47156   5.563  10.142   7.463
 9490SOL    HW147157   5.620  10.197   7.524
 9490SOL    HW247158   5.505  10.081   7.517
 9491SOL     OW47159   1.865   0.104   1.559
 9491SOL    HW147160   1.873   0.005   1.548
 9491SOL    HW247161   1.948   0.139   1.603
 9492SOL     OW47162   1.925   9.919   0.097
 9492SOL    HW147163   1.907   9.873   0.010
 9492SOL    HW247164   1.918  10.018   0.085
 9493SOL     OW47165   7.604   0.823   1.731
 9493SOL    HW147166   7.586   0.807   1.634
 9493SOL    HW247167   7.651   0.910   1.742
 9494SOL     OW47168   4.833   2.758   6.933
 9494SOL    HW147169   4.797   2.665   6.933
 9494SOL    HW247170   4.775   2.816   6.991
 9495SOL     OW47171   2.396   7.309   8.076
 9495SOL    HW147172   2.436   7.320   8.166
 9495SOL    HW247173   2.468   7.286   8.010
 9496SOL     OW47174   1.868   9.855   7.033
 9496SOL    HW147175   1.904   9.939   6.993
 9496SOL    HW247176   1.847   9.870   7.130
 9497SOL     OW47177   0.104   1.488   1.259
 9497SOL    HW147178   0.067   1.560   1.201
 9497SOL    HW247179   0.123   1.407   1.204
 9498SOL     OW47180   9.692   5.571   6.993
 9498SOL    HW147181   9.682   5.593   6.896
 9498SOL    HW247182   9.746   5.488   7.003
 9499SOL     OW47183   1.378   7.732   7.135
 9499SOL    HW147184   1.413   7.786   7.059
 9499SOL    HW247185   1.450   7.670   7.168
 9500SOL     OW47186   6.597   0.544   2.397
 9500SOL    HW147187   6.679   0.499   2.433
 9500SOL    HW247188   6.556   0.487   2.327
 9501SOL     OW47189   5.427   0.455   7.018
 9501SOL    HW147190   5.526   0.452   7.003
 9501SOL    HW247191   5.381   0.402   6.946
 9502SOL     OW47192   9.717   1.412   8.675
 9502SOL    HW147193   9.800   1.359   8.658
 9502SOL    HW247194   9.684   1.450   8.588
 9503SOL     OW47195   6.692   1.816   8.207
 9503SOL    HW147196   6.646   1.840   8.122
 9503SOL    HW247197   6.776   1.765   8.186
 9504SOL     OW47198   3.996   5.321   1.312
 9504SOL    HW147199   3.911   5.341   1.360
 9504SOL    HW247200   3.977   5.299   1.217
 9505SOL     OW47201   1.213   2.209   8.055
 9505SOL    HW147202   1.231   2.130   8.114
 9505SOL    HW247203   1.187   2.178   7.964
 9506SOL     OW47204   3.915   1.676   8.437
 9506SOL    HW147205   3.976   1.601   8.414
 9506SOL    HW247206   3.894   1.673   8.535
 9507SOL     OW47207   5.511   6.320   0.933
 9507SOL    HW147208   5.436   6.327   0.999
 9507SOL    HW247209   5.597   6.343   0.979
 9508SOL     OW47210   2.436   4.586   8.701
 9508SOL    HW147211   2.387   4.566   8.616
 9508SOL    HW247212   2.533   4.566   8.689
 9509SOL     OW47213   9.938   7.639   8.647
 9509SOL    HW147214  10.003   7.701   8.691
 9509SOL    HW247215   9.918   7.671   8.555
 9510SOL     OW47216   3.261   1.320   6.565
 9510SOL    HW147217   3.360   1.334   6.569
 9510SOL    HW247218   3.239   1.262   6.487
 9511SOL     OW47219   7.081   8.796   8.025
 9511SOL    HW147220   7.135   8.856   8.084
 9511SOL    HW247221   7.143   8.745   7.965
 9512SOL     OW47222   5.657   2.511   6.979
 9512SOL    HW147223   5.709   2.504   6.894
 9512SOL    HW247224   5.603   2.596   6.978
 9513SOL     OW47225   7.550   2.404   0.146
 9513SOL    HW147226   7.512   2.333   0.206
 9513SOL    HW247227   7.512   2.493   0.170
 9514SOL     OW47228   4.009  10.098   6.749
 9514SOL    HW147229   4.052  10.047   6.824
 9514SOL    HW247230   3.949  10.168   6.788
 9515SOL     OW47231   9.185   5.698   1.723
 9515SOL    HW147232   9.165   5.604   1.751
 9515SOL    HW247233   9.247   5.740   1.789
 9516SOL     OW47234   1.394   1.892   0.458
 9516SOL    HW147235   1.350   1.910   0.546
 9516SOL    HW247236   1.324   1.887   0.387
 9517SOL     OW47237   0.435   4.090   1.519
 9517SOL    HW147238   0.518   4.097   1.464
 9517SOL    HW247239   0.433   4.001   1.565
 9518SOL     OW47240  10.045   6.813   1.385
 9518SOL    HW147241  10.017   6.909   1.396
 9518SOL    HW247242   9.984   6.755   1.438
 9519SOL     OW47243   5.817   5.105   8.687
 9519SOL    HW147244   5.755   5.182   8.675
 9519SOL    HW247245   5.909   5.139   8.706
 9520SOL     OW47246   7.684   6.421   1.472
 9520SOL    HW147247   7.627   6.498   1.444
 9520SOL    HW247248   7.733   6.444   1.556
 9521SOL     OW47249  10.028   8.149   8.295
 9521SOL    HW147250   9.998   8.086   8.367
 9521SOL    HW247251  10.125   8.168   8.306
 9522SOL     OW47252   9.370   6.589   8.547
 9522SOL    HW147253   9.287   6.598   8.601
 9522SOL    HW247254   9.358   6.634   8.458
 9523SOL     OW47255   6.839   5.370   0.357
 9523SOL    HW147256   6.786   5.307   0.300
 9523SOL    HW247257   6.929   5.384   0.316
 9524SOL     OW47258   5.036   4.965   1.292
 9524SOL    HW147259   4.994   4.997   1.377
 9524SOL    HW247260   5.126   5.007   1.281
 9525SOL     OW47261   6.877   4.198   8.218
 9525SOL    HW147262   6.866   4.122   8.155
 9525SOL    HW247263   6.911   4.164   8.306
 9526SOL     OW47264   2.115   3.990   7.339
 9526SOL    HW147265   2.059   3.909   7.360
 9526SOL    HW247266   2.210   3.963   7.328
 9527SOL     OW47267   7.258   1.927   7.094
 9527SOL    HW147268   7.234   1.956   7.001
 9527SOL    HW247269   7.209   1.984   7.160
 9528SOL     OW47270   4.679   2.937   7.085
 9528SOL    HW147271   4.735   3.019   7.082
 9528SOL    HW247272   4.638   2.927   7.176
 9529SOL     OW47273   8.211   5.419   5.998
 9529SOL    HW147274   8.202   5.344   6.064
 9529SOL    HW247275   8.295   5.406   5.945
 9530SOL     OW47276   1.302   3.678   1.038
 9530SOL    HW147277   1.218   3.730   1.059
 9530SOL    HW247278   1.277   3.586   1.007
 9531SOL     OW47279   8.553   9.261   6.465
 9531SOL    HW147280   8.569   9.255   6.564
 9531SOL    HW247281   8.633   9.301   6.421
 9532SOL     OW47282   5.698   9.877   1.780
 9532SOL    HW147283   5.663   9.813   1.848
 9532SOL    HW247284   5.754   9.828   1.713
 9533SOL     OW47285   4.658   6.129   7.567
 9533SOL    HW147286   4.645   6.196   7.640
 9533SOL    HW247287   4.582   6.136   7.502
 9534SOL     OW47288   8.093  10.166   8.376
 9534SOL    HW147289   8.086  10.116   8.462
 9534SOL    HW247290   8.023  10.134   8.313
 9535SOL     OW47291   1.478   6.069   8.058
 9535SOL    HW147292   1.554   6.016   8.095
 9535SOL    HW247293   1.457   6.145   8.119
 9536SOL     OW47294   4.152   4.254   1.981
 9536SOL    HW147295   4.081   4.277   2.047
 9536SOL    HW247296   4.213   4.332   1.968
 9537SOL     OW47297   0.912   9.343   6.851
 9537SOL    HW147298   0.884   9.413   6.785
 9537SOL    HW247299   0.862   9.259   6.833
 9538SOL     OW47300   6.076   6.804   8.775
 9538SOL    HW147301   6.039   6.713   8.756
 9538SOL    HW247302   6.030   6.842   0.073
 9539SOL     OW47303   1.671  10.125   6.832
 9539SOL    HW147304   1.634  10.208   6.873
 9539SOL    HW247305   1.658  10.128   6.732
 9540SOL     OW47306   2.630   2.371   0.006
 9540SOL    HW147307   2.703   2.314   0.042
 9540SOL    HW247308   2.669   2.453   8.746
 9541SOL     OW47309   4.298   0.423   7.527
 9541SOL    HW147310   4.274   0.500   7.468
 9541SOL    HW247311   4.281   0.448   7.622
 9542SOL     OW47312   1.871   7.803   0.980
 9542SOL    HW147313   1.969   7.783   0.975
 9542SOL    HW247314   1.837   7.823   0.888
 9543SOL     OW47315   1.527   3.829   1.017
 9543SOL    HW147316   1.514   3.889   0.938
 9543SOL    HW247317   1.444   3.774   1.030
 9544SOL     OW47318   0.024   2.628   1.620
 9544SOL    HW147319   0.091   2.578   1.675
 9544SOL    HW247320  10.120   2.563   1.577
 9545SOL     OW47321   0.127   8.666   1.688
 9545SOL    HW147322   0.133   8.730   1.763
 9545SOL    HW247323   0.203   8.600   1.693
 9546SOL     OW47324   5.168   0.223   0.370
 9546SOL    HW147325   5.217   0.239   0.284
 9546SOL    HW247326   5.227   0.249   0.447
 9547SOL     OW47327   2.149   5.012   8.535
 9547SOL    HW147328   2.212   5.007   8.458
 9547SOL    HW247329   2.056   4.995   8.504
 9548SOL     OW47330   0.355   4.442   0.951
 9548SOL    HW147331   0.440   4.425   1.002
 9548SOL    HW247332   0.376   4.486   0.864
 9549SOL     OW47333   8.185   1.505   1.732
 9549SOL    HW147334   8.126   1.431   1.699
 9549SOL    HW247335   8.134   1.564   1.795
 9550SOL     OW47336   8.082  10.337   1.642
 9550SOL    HW147337   8.126  10.371   1.725
 9550SOL    HW247338   8.028  10.256   1.663
 9551SOL     OW47339   4.880   5.059   7.334
 9551SOL    HW147340   4.806   5.125   7.335
 9551SOL    HW247341   4.895   5.023   7.426
 9552SOL     OW47342   2.701   6.157   0.881
 9552SOL    HW147343   2.677   6.081   0.819
 9552SOL    HW247344   2.686   6.244   0.834
 9553SOL     OW47345   8.075   0.031   8.157
 9553SOL    HW147346   7.979   0.057   8.148
 9553SOL    HW247347   8.093   0.000   8.251
 9554SOL     OW47348   1.884   0.956   1.581
 9554SOL    HW147349   1.873   1.008   1.666
 9554SOL    HW247350   1.828   0.873   1.586
 9555SOL     OW47351   3.019   0.540   1.489
 9555SOL    HW147352   2.944   0.588   1.442
 9555SOL    HW247353   3.033   0.582   1.579
 9556SOL     OW47354   6.196   7.291   2.429
 9556SOL    HW147355   6.155   7.248   2.509
 9556SOL    HW247356   6.183   7.390   2.433
 9557SOL     OW47357   1.869   6.731   8.300
 9557SOL    HW147358   1.807   6.762   8.228
 9557SOL    HW247359   1.964   6.737   8.268
 9558SOL     OW47360   2.215   4.911   1.191
 9558SOL    HW147361   2.245   4.828   1.142
 9558SOL    HW247362   2.234   4.900   1.288
 9559SOL     OW47363  10.117   7.458   8.017
 9559SOL    HW147364   0.049   7.464   7.973
 9559SOL    HW247365  10.049   7.503   7.960
 9560SOL     OW47366   7.094   4.717   2.117
 9560SOL    HW147367   7.017   4.707   2.181
 9560SOL    HW247368   7.058   4.742   2.027
 9561SOL     OW47369   4.534   6.023   0.393
 9561SOL    HW147370   4.591   6.063   0.464
 9561SOL    HW247371   4.447   5.993   0.432
 9562SOL     OW47372   2.409   2.538   8.578
 9562SOL    HW147373   2.334   2.582   8.628
 9562SOL    HW247374   2.496   2.568   8.616
 9563SOL     OW47375   1.605   7.516   6.781
 9563SOL    HW147376   1.600   7.501   6.683
 9563SOL    HW247377   1.578   7.433   6.830
 9564SOL     OW47378   7.829   2.614   1.852
 9564SOL    HW147379   7.865   2.626   1.944
 9564SOL    HW247380   7.729   2.604   1.857
 9565SOL     OW47381   1.295   0.131   7.018
 9565SOL    HW147382   1.316   0.226   6.996
 9565SOL    HW247383   1.255   0.126   7.109
 9566SOL     OW47384   6.333   2.602   2.280
 9566SOL    HW147385   6.358   2.699   2.291
 9566SOL    HW247386   6.299   2.566   2.366
 9567SOL     OW47387   2.580   2.643   7.472
 9567SOL    HW147388   2.523   2.562   7.480
 9567SOL    HW247389   2.610   2.673   7.563
 9568SOL     OW47390   1.440   7.096   1.381
 9568SOL    HW147391   1.456   7.191   1.408
 9568SOL    HW247392   1.342   7.078   1.378
 9569SOL     OW47393   1.393   3.321   1.367
 9569SOL    HW147394   1.444   3.362   1.292
 9569SOL    HW247395   1.319   3.383   1.395
 9570SOL     OW47396   7.790   3.273   1.484
 9570SOL    HW147397   7.859   3.342   1.508
 9570SOL    HW247398   7.835   3.194   1.443
 9571SOL     OW47399   1.774   4.786   6.453
 9571SOL    HW147400   1.699   4.826   6.507
 9571SOL    HW247401   1.835   4.859   6.422
 9572SOL     OW47402   7.348   6.545   7.270
 9572SOL    HW147403   7.374   6.527   7.175
 9572SOL    HW247404   7.416   6.505   7.331
 9573SOL     OW47405   1.570   1.461   8.444
 9573SOL    HW147406   1.602   1.495   8.532
 9573SOL    HW247407   1.629   1.386   8.414
 9574SOL     OW47408   1.651   8.513   7.002
 9574SOL    HW147409   1.561   8.515   7.045
 9574SOL    HW247410   1.641   8.498   6.904
 9575SOL     OW47411   6.350   0.428   1.779
 9575SOL    HW147412   6.392   0.497   1.720
 9575SOL    HW247413   6.251   0.433   1.771
 9576SOL     OW47414   5.873   2.497   0.991
 9576SOL    HW147415   5.803   2.458   0.931
 9576SOL    HW247416   5.835   2.513   1.082
 9577SOL     OW47417   7.919   4.618   1.674
 9577SOL    HW147418   7.840   4.674   1.697
 9577SOL    HW247419   7.921   4.536   1.730
 9578SOL     OW47420   2.557   4.528   6.925
 9578SOL    HW147421   2.550   4.506   7.022
 9578SOL    HW247422   2.516   4.618   6.908
 9579SOL     OW47423   9.184   8.741   0.210
 9579SOL    HW147424   9.239   8.745   0.293
 9579SOL    HW247425   9.087   8.729   0.234
 9580SOL     OW47426   4.801   6.266   6.733
 9580SOL    HW147427   4.815   6.330   6.658
 9580SOL    HW247428   4.828   6.174   6.704
 9581SOL     OW47429   9.422   9.843   0.513
 9581SOL    HW147430   9.349   9.861   0.579
 9581SOL    HW247431   9.421   9.913   0.443
 9582SOL     OW47432   3.981   2.900   0.821
 9582SOL    HW147433   4.034   2.850   0.752
 9582SOL    HW247434   3.982   2.998   0.799
 9583SOL     OW47435   8.531   0.804   0.206
 9583SOL    HW147436   8.533   0.751   0.291
 9583SOL    HW247437   8.615   0.859   0.200
 9584SOL     OW47438   2.482   1.154   1.790
 9584SOL    HW147439   2.386   1.158   1.820
 9584SOL    HW247440   2.542   1.163   1.869
 9585SOL     OW47441   8.504  10.407   6.563
 9585SOL    HW147442   8.422  10.373   6.607
 9585SOL    HW247443   8.572  10.334   6.555
 9586SOL     OW47444   0.523   7.623   0.282
 9586SOL    HW147445   0.564   7.560   0.215
 9586SOL    HW247446   0.471   7.693   0.234
 9587SOL     OW47447   2.248   6.462   1.477
 9587SOL    HW147448   2.157   6.438   1.444
 9587SOL    HW247449   2.317   6.416   1.421
 9588SOL     OW47450   7.362   4.364   8.573
 9588SOL    HW147451   7.428   4.328   8.508
 9588SOL    HW247452   7.320   4.448   8.536
 9589SOL     OW47453   1.395   8.359   8.235
 9589SOL    HW147454   1.320   8.305   8.274
 9589SOL    HW247455   1.444   8.304   8.168
 9590SOL     OW47456   8.297   8.411   8.524
 9590SOL    HW147457   8.313   8.332   8.465
 9590SOL    HW247458   8.269   8.380   8.615
 9591SOL     OW47459   9.200   9.364   1.468
 9591SOL    HW147460   9.270   9.435   1.457
 9591SOL    HW247461   9.199   9.332   1.562
 9592SOL     OW47462   9.039   2.268   7.038
 9592SOL    HW147463   8.959   2.229   7.083
 9592SOL    HW247464   9.009   2.339   6.974
 9593SOL     OW47465   5.419   3.905   7.689
 9593SOL    HW147466   5.461   3.992   7.715
 9593SOL    HW247467   5.435   3.837   7.760
 9594SOL     OW47468   7.235   0.246   7.075
 9594SOL    HW147469   7.269   0.203   7.159
 9594SOL    HW247470   7.160   0.192   7.038
 9595SOL     OW47471   4.474   1.024   7.117
 9595SOL    HW147472   4.534   0.961   7.067
 9595SOL    HW247473   4.527   1.103   7.148
 9596SOL     OW47474   6.377   7.943   6.934
 9596SOL    HW147475   6.323   7.981   7.009
 9596SOL    HW247476   6.326   7.951   6.848
 9597SOL     OW47477   8.093  10.451   2.408
 9597SOL    HW147478   8.027  10.482   2.477
 9597SOL    HW247479   8.080  10.353   2.391
 9598SOL     OW47480   5.736   2.018   0.188
 9598SOL    HW147481   5.794   2.086   0.232
 9598SOL    HW247482   5.640   2.041   0.202
 9599SOL     OW47483   5.077   5.872   7.826
 9599SOL    HW147484   4.986   5.830   7.825
 9599SOL    HW247485   5.097   5.912   7.737
 9600SOL     OW47486   5.204   9.667   8.659
 9600SOL    HW147487   5.237   9.703   8.747
 9600SOL    HW247488   5.281   9.650   8.598
 9601SOL     OW47489   4.519   5.663   1.797
 9601SOL    HW147490   4.490   5.612   1.716
 9601SOL    HW247491   4.443   5.718   1.831
 9602SOL     OW47492   2.163   2.753   7.410
 9602SOL    HW147493   2.216   2.805   7.343
 9602SOL    HW247494   2.160   2.803   7.497
 9603SOL     OW47495   7.711   2.847   0.458
 9603SOL    HW147496   7.791   2.811   0.505
 9603SOL    HW247497   7.722   2.946   0.443
 9604SOL     OW47498   5.312   4.106   0.933
 9604SOL    HW147499   5.224   4.139   0.965
 9604SOL    HW247500   5.332   4.146   0.843
 9605SOL     OW47501   4.752   1.031   0.330
 9605SOL    HW147502   4.817   0.966   0.290
 9605SOL    HW247503   4.796   1.080   0.405
 9606SOL     OW47504   5.872   3.225   8.362
 9606SOL    HW147505   5.848   3.138   8.320
 9606SOL    HW247506   5.816   3.240   8.443
 9607SOL     OW47507   7.321   3.042   0.488
 9607SOL    HW147508   7.383   3.006   0.419
 9607SOL    HW247509   7.279   3.126   0.454
 9608SOL     OW47510   7.490   0.442   2.788
 9608SOL    HW147511   7.472   0.344   2.795
 9608SOL    HW247512   7.425   0.492   2.845
 9609SOL     OW47513   9.155   4.749   0.960
 9609SOL    HW147514   9.163   4.750   1.059
 9609SOL    HW247515   9.125   4.658   0.930
 9610SOL     OW47516   8.560   8.900   1.478
 9610SOL    HW147517   8.633   8.957   1.439
 9610SOL    HW247518   8.514   8.951   1.550
 9611SOL     OW47519   8.472   6.993   7.498
 9611SOL    HW147520   8.437   6.957   7.584
 9611SOL    HW247521   8.490   6.917   7.435
 9612SOL     OW47522   4.703   6.908   8.432
 9612SOL    HW147523   4.647   6.918   8.350
 9612SOL    HW247524   4.696   6.990   8.488
 9613SOL     OW47525   2.409   4.715   0.632
 9613SOL    HW147526   2.349   4.671   0.565
 9613SOL    HW247527   2.354   4.760   0.702
 9614SOL     OW47528   1.705   5.628   6.948
 9614SOL    HW147529   1.666   5.689   6.879
 9614SOL    HW247530   1.759   5.682   7.013
 9615SOL     OW47531   3.387   2.603   2.133
 9615SOL    HW147532   3.449   2.601   2.055
 9615SOL    HW247533   3.390   2.515   2.180
 9616SOL     OW47534   6.082   2.352   8.119
 9616SOL    HW147535   6.170   2.383   8.155
 9616SOL    HW247536   6.052   2.270   8.168
 9617SOL     OW47537   5.719   1.532   7.075
 9617SOL    HW147538   5.625   1.514   7.045
 9617SOL    HW247539   5.719   1.603   7.145
 9618SOL     OW47540   7.154   1.712   7.256
 9618SOL    HW147541   7.177   1.772   7.179
 9618SOL    HW247542   7.236   1.693   7.309
 9619SOL     OW47543   2.318   4.972   8.328
 9619SOL    HW147544   2.301   4.894   8.267
 9619SOL    HW247545   2.410   4.965   8.367
 9620SOL     OW47546   8.456   0.438   1.591
 9620SOL    HW147547   8.544   0.420   1.635
 9620SOL    HW247548   8.383   0.396   1.646
 9621SOL     OW47549   1.634   2.591   7.762
 9621SOL    HW147550   1.612   2.514   7.822
 9621SOL    HW247551   1.571   2.666   7.780
 9622SOL     OW47552   3.726   0.425   7.374
 9622SOL    HW147553   3.790   0.382   7.311
 9622SOL    HW247554   3.774   0.493   7.430
 9623SOL     OW47555  10.105   8.983   1.346
 9623SOL    HW147556   0.030   8.941   1.307
 9623SOL    HW247557  10.062   9.042   1.278
 9624SOL     OW47558   5.893   3.026   0.229
 9624SOL    HW147559   5.820   3.093   0.243
 9624SOL    HW247560   5.895   2.998   0.133
 9625SOL     OW47561   7.205   8.272   1.291
 9625SOL    HW147562   7.237   8.318   1.208
 9625SOL    HW247563   7.135   8.328   1.336
 9626SOL     OW47564   5.848   2.613   7.159
 9626SOL    HW147565   5.817   2.623   7.254
 9626SOL    HW247566   5.777   2.567   7.106
 9627SOL     OW47567   4.771   5.479   7.881
 9627SOL    HW147568   4.769   5.416   7.805
 9627SOL    HW247569   4.823   5.439   7.957
 9628SOL     OW47570   6.929   7.774   7.972
 9628SOL    HW147571   6.864   7.698   7.963
 9628SOL    HW247572   6.881   7.855   8.005
 9629SOL     OW47573   3.080   1.637   1.331
 9629SOL    HW147574   3.014   1.573   1.373
 9629SOL    HW247575   3.066   1.728   1.369
 9630SOL     OW47576   6.371   4.916   1.635
 9630SOL    HW147577   6.386   4.821   1.609
 9630SOL    HW247578   6.414   4.977   1.568
 9631SOL     OW47579   6.212   5.237   7.250
 9631SOL    HW147580   6.145   5.183   7.301
 9631SOL    HW247581   6.203   5.333   7.275
 9632SOL     OW47582   9.096   4.438   0.617
 9632SOL    HW147583   9.162   4.485   0.558
 9632SOL    HW247584   9.004   4.468   0.593
 9633SOL     OW47585   0.262   5.941   1.141
 9633SOL    HW147586   0.214   5.998   1.207
 9633SOL    HW247587   0.205   5.862   1.117
 9634SOL     OW47588   4.135   1.982   7.236
 9634SOL    HW147589   4.161   2.061   7.179
 9634SOL    HW247590   4.184   1.987   7.323
 9635SOL     OW47591   4.346   1.308   7.467
 9635SOL    HW147592   4.434   1.313   7.515
 9635SOL    HW247593   4.357   1.343   7.374
 9636SOL     OW47594   3.522   5.814   0.973
 9636SOL    HW147595   3.478   5.903   0.984
 9636SOL    HW247596   3.463   5.743   1.013
 9637SOL     OW47597   5.652   6.592   6.708
 9637SOL    HW147598   5.556   6.582   6.682
 9637SOL    HW247599   5.705   6.624   6.630
 9638SOL     OW47600   5.851   4.081   0.464
 9638SOL    HW147601   5.784   4.153   0.448
 9638SOL    HW247602   5.804   3.998   0.496
 9639SOL     OW47603   4.423   6.872   6.891
 9639SOL    HW147604   4.454   6.836   6.979
 9639SOL    HW247605   4.388   6.798   6.835
 9640SOL     OW47606   1.417   7.355   0.374
 9640SOL    HW147607   1.404   7.441   0.324
 9640SOL    HW247608   1.390   7.369   0.469
 9641SOL     OW47609   0.711   1.468   0.549
 9641SOL    HW147610   0.681   1.530   0.622
 9641SOL    HW247611   0.643   1.396   0.536
 9642SOL     OW47612   8.535   0.421   8.373
 9642SOL    HW147613   8.612   0.393   8.315
 9642SOL    HW247614   8.467   0.347   8.377
 9643SOL     OW47615   8.940   2.444   6.849
 9643SOL    HW147616   8.884   2.525   6.864
 9643SOL    HW247617   8.892   2.380   6.789
 9644SOL     OW47618   2.554   8.727   6.393
 9644SOL    HW147619   2.621   8.792   6.427
 9644SOL    HW247620   2.466   8.773   6.377
 9645SOL     OW47621   4.871   8.895   7.872
 9645SOL    HW147622   4.834   8.929   7.786
 9645SOL    HW247623   4.960   8.937   7.889
 9646SOL     OW47624   0.839   3.415   7.550
 9646SOL    HW147625   0.899   3.459   7.617
 9646SOL    HW247626   0.746   3.412   7.587
 9647SOL     OW47627   9.859   0.987   8.240
 9647SOL    HW147628   9.893   0.893   8.246
 9647SOL    HW247629   9.847   1.023   8.332
 9648SOL     OW47630   1.984   7.029   1.683
 9648SOL    HW147631   1.888   7.027   1.711
 9648SOL    HW247632   2.040   6.987   1.756
 9649SOL     OW47633   8.498   4.303   7.527
 9649SOL    HW147634   8.527   4.391   7.489
 9649SOL    HW247635   8.542   4.289   7.616
 9650SOL     OW47636   2.950   5.379   8.579
 9650SOL    HW147637   2.878   5.400   8.513
 9650SOL    HW247638   2.944   5.283   8.605
 9651SOL     OW47639   9.178   8.445   6.817
 9651SOL    HW147640   9.207   8.509   6.889
 9651SOL    HW247641   9.188   8.489   6.728
 9652SOL     OW47642   8.279   7.942   0.118
 9652SOL    HW147643   8.270   8.029   0.166
 9652SOL    HW247644   8.363   7.897   0.147
 9653SOL     OW47645   2.244   5.841   0.731
 9653SOL    HW147646   2.147   5.858   0.748
 9653SOL    HW247647   2.286   5.923   0.695
 9654SOL     OW47648   5.225   4.814   6.947
 9654SOL    HW147649   5.258   4.881   6.880
 9654SOL    HW247650   5.127   4.802   6.937
 9655SOL     OW47651   6.218   2.642   1.605
 9655SOL    HW147652   6.310   2.631   1.643
 9655SOL    HW247653   6.166   2.557   1.617
 9656SOL     OW47654   0.827   6.890   0.716
 9656SOL    HW147655   0.890   6.957   0.677
 9656SOL    HW247656   0.768   6.853   0.645
 9657SOL     OW47657   3.664   1.745   1.621
 9657SOL    HW147658   3.643   1.820   1.683
 9657SOL    HW247659   3.760   1.752   1.592
 9658SOL     OW47660   6.860   1.691   6.832
 9658SOL    HW147661   6.868   1.634   6.914
 9658SOL    HW247662   6.764   1.701   6.808
 9659SOL     OW47663   3.694   7.027   8.272
 9659SOL    HW147664   3.693   6.959   8.199
 9659SOL    HW247665   3.633   7.103   8.247
 9660SOL     OW47666   6.080   4.807   6.987
 9660SOL    HW147667   6.007   4.800   7.055
 9660SOL    HW247668   6.137   4.886   7.006
 9661SOL     OW47669   3.428   8.894   1.047
 9661SOL    HW147670   3.428   8.844   0.960
 9661SOL    HW247671   3.498   8.855   1.107
 9662SOL     OW47672   4.186  10.097   6.551
 9662SOL    HW147673   4.139  10.115   6.465
 9662SOL    HW247674   4.121  10.100   6.626
 9663SOL     OW47675   0.462   8.292   0.338
 9663SOL    HW147676   0.387   8.252   0.285
 9663SOL    HW247677   0.434   8.303   0.433
 9664SOL     OW47678   5.453   4.867   8.322
 9664SOL    HW147679   5.495   4.797   8.379
 9664SOL    HW247680   5.466   4.957   8.366
 9665SOL     OW47681   8.539   2.249   7.405
 9665SOL    HW147682   8.464   2.315   7.406
 9665SOL    HW247683   8.621   2.292   7.368
 9666SOL     OW47684   3.389   7.838   7.996
 9666SOL    HW147685   3.477   7.818   7.952
 9666SOL    HW247686   3.349   7.920   7.955
 9667SOL     OW47687   9.041   4.070   1.570
 9667SOL    HW147688   8.999   4.151   1.612
 9667SOL    HW247689   9.002   4.055   1.479
 9668SOL     OW47690   1.082   1.767   0.633
 9668SOL    HW147691   1.042   1.818   0.557
 9668SOL    HW247692   1.155   1.821   0.674
 9669SOL     OW47693   6.398   0.761   2.056
 9669SOL    HW147694   6.336   0.786   2.130
 9669SOL    HW247695   6.465   0.694   2.089
 9670SOL     OW47696   4.392   9.671   0.775
 9670SOL    HW147697   4.354   9.690   0.865
 9670SOL    HW247698   4.489   9.645   0.785
 9671SOL     OW47699   8.676   1.507   6.983
 9671SOL    HW147700   8.653   1.469   6.893
 9671SOL    HW247701   8.604   1.570   7.012
 9672SOL     OW47702   8.827   4.563   0.282
 9672SOL    HW147703   8.845   4.535   0.376
 9672SOL    HW247704   8.780   4.651   0.281
 9673SOL     OW47705   8.336   6.131   1.341
 9673SOL    HW147706   8.297   6.216   1.305
 9673SOL    HW247707   8.416   6.105   1.286
 9674SOL     OW47708   1.735   3.723   6.771
 9674SOL    HW147709   1.690   3.755   6.687
 9674SOL    HW247710   1.724   3.624   6.779
 9675SOL     OW47711   7.964   9.207   6.969
 9675SOL    HW147712   8.050   9.250   6.941
 9675SOL    HW247713   7.909   9.185   6.889
 9676SOL     OW47714   5.388   2.393   8.016
 9676SOL    HW147715   5.304   2.355   7.977
 9676SOL    HW247716   5.378   2.492   8.027
 9677SOL     OW47717   6.068   9.702   0.085
 9677SOL    HW147718   6.063   9.760   0.166
 9677SOL    HW247719   5.984   9.649   0.076
 9678SOL     OW47720   6.868   1.217   2.176
 9678SOL    HW147721   6.864   1.177   2.268
 9678SOL    HW247722   6.948   1.276   2.168
 9679SOL     OW47723   5.505   3.372   1.849
 9679SOL    HW147724   5.535   3.278   1.833
 9679SOL    HW247725   5.407   3.380   1.830
 9680SOL     OW47726   1.195   6.323   8.048
 9680SOL    HW147727   1.221   6.343   7.954
 9680SOL    HW247728   1.277   6.303   8.102
 9681SOL     OW47729   2.054   0.928   1.878
 9681SOL    HW147730   2.044   0.858   1.948
 9681SOL    HW247731   1.965   0.970   1.860
 9682SOL     OW47732   3.913   0.975   8.100
 9682SOL    HW147733   3.877   0.891   8.059
 9682SOL    HW247734   3.850   1.009   8.170
 9683SOL     OW47735   8.451   7.778   8.305
 9683SOL    HW147736   8.525   7.751   8.243
 9683SOL    HW247737   8.389   7.701   8.318
 9684SOL     OW47738   5.696   5.652   1.739
 9684SOL    HW147739   5.727   5.559   1.720
 9684SOL    HW247740   5.741   5.685   1.822
 9685SOL     OW47741   0.912   7.803   8.216
 9685SOL    HW147742   0.887   7.900   8.210
 9685SOL    HW247743   0.904   7.772   8.311
 9686SOL     OW47744   8.927   5.446   6.439
 9686SOL    HW147745   9.011   5.437   6.387
 9686SOL    HW247746   8.947   5.486   6.529
 9687SOL     OW47747   1.009   0.807   0.044
 9687SOL    HW147748   0.978   0.832   8.734
 9687SOL    HW247749   0.955   0.856   0.112
 9688SOL     OW47750   3.289   6.634   7.245
 9688SOL    HW147751   3.191   6.657   7.240
 9688SOL    HW247752   3.342   6.719   7.252
 9689SOL     OW47753   6.405   6.746   8.522
 9689SOL    HW147754   6.393   6.824   8.461
 9689SOL    HW247755   6.382   6.773   8.616
 9690SOL     OW47756   6.525   3.783   1.649
 9690SOL    HW147757   6.577   3.802   1.732
 9690SOL    HW247758   6.544   3.853   1.581
 9691SOL     OW47759   1.137   2.734   0.801
 9691SOL    HW147760   1.056   2.704   0.851
 9691SOL    HW247761   1.109   2.791   0.724
 9692SOL     OW47762   5.823   9.947   0.129
 9692SOL    HW147763   5.822   9.895   0.044
 9692SOL    HW247764   5.860  10.038   0.113
 9693SOL     OW47765   8.816   5.266   7.318
 9693SOL    HW147766   8.850   5.178   7.352
 9693SOL    HW247767   8.717   5.265   7.314
 9694SOL     OW47768   4.146   0.597   1.249
 9694SOL    HW147769   4.185   0.520   1.198
 9694SOL    HW247770   4.090   0.653   1.187
 9695SOL     OW47771   2.549   1.023   6.688
 9695SOL    HW147772   2.548   0.936   6.737
 9695SOL    HW247773   2.471   1.079   6.715
 9696SOL     OW47774   9.243   9.004   1.331
 9696SOL    HW147775   9.204   9.092   1.305
 9696SOL    HW247776   9.169   8.938   1.344
 9697SOL     OW47777   3.911   1.594   6.828
 9697SOL    HW147778   3.843   1.647   6.879
 9697SOL    HW247779   3.997   1.591   6.880
 9698SOL     OW47780   6.707   0.415   6.396
 9698SOL    HW147781   6.733   0.446   6.305
 9698SOL    HW247782   6.642   0.480   6.436
 9699SOL     OW47783   0.656   1.938   8.240
 9699SOL    HW147784   0.680   1.891   8.325
 9699SOL    HW247785   0.621   2.029   8.261
 9700SOL     OW47786   8.494   8.622   0.185
 9700SOL    HW147787   8.525   8.592   0.275
 9700SOL    HW247788   8.515   8.719   0.173
 9701SOL     OW47789   7.763   5.980   0.723
 9701SOL    HW147790   7.811   5.895   0.701
 9701SOL    HW247791   7.763   5.993   0.822
 9702SOL     OW47792   8.461   6.751   6.914
 9702SOL    HW147793   8.520   6.816   6.961
 9702SOL    HW247794   8.462   6.663   6.963
 9703SOL     OW47795   1.376   8.064   1.270
 9703SOL    HW147796   1.410   8.140   1.325
 9703SOL    HW247797   1.366   7.983   1.327
 9704SOL     OW47798   3.001   8.927   1.987
 9704SOL    HW147799   3.031   8.994   1.919
 9704SOL    HW247800   3.022   8.962   2.079
 9705SOL     OW47801   2.268   8.748   1.911
 9705SOL    HW147802   2.304   8.687   1.981
 9705SOL    HW247803   2.210   8.696   1.848
 9706SOL     OW47804   1.393   3.933   1.830
 9706SOL    HW147805   1.442   4.018   1.850
 9706SOL    HW247806   1.429   3.859   1.888
 9707SOL     OW47807   3.476   2.662   1.091
 9707SOL    HW147808   3.421   2.678   1.172
 9707SOL    HW247809   3.544   2.734   1.081
 9708SOL     OW47810   6.875  10.205   7.282
 9708SOL    HW147811   6.792  10.240   7.325
 9708SOL    HW247812   6.862  10.108   7.260
 9709SOL     OW47813   2.953   7.573   6.904
 9709SOL    HW147814   2.996   7.577   6.813
 9709SOL    HW247815   2.876   7.510   6.902
 9710SOL     OW47816   8.692   7.286   7.918
 9710SOL    HW147817   8.663   7.336   7.837
 9710SOL    HW247818   8.717   7.192   7.894
 9711SOL     OW47819   0.416   1.187   0.163
 9711SOL    HW147820   0.401   1.259   0.230
 9711SOL    HW247821   0.340   1.122   0.166
 9712SOL     OW47822   7.595   6.164   0.089
 9712SOL    HW147823   7.509   6.116   0.104
 9712SOL    HW247824   7.653   6.154   0.170
 9713SOL     OW47825   9.190   1.149   0.129
 9713SOL    HW147826   9.274   1.135   0.077
 9713SOL    HW247827   9.189   1.242   0.166
 9714SOL     OW47828   9.657   8.110   0.156
 9714SOL    HW147829   9.646   8.014   0.129
 9714SOL    HW247830   9.598   8.128   0.235
 9715SOL     OW47831   4.132   9.961   6.955
 9715SOL    HW147832   4.230   9.976   6.967
 9715SOL    HW247833   4.081  10.024   7.012
 9716SOL     OW47834   1.875   0.895   6.401
 9716SOL    HW147835   1.841   0.951   6.326
 9716SOL    HW247836   1.953   0.840   6.369
 9717SOL     OW47837   1.484   8.562   7.424
 9717SOL    HW147838   1.450   8.470   7.408
 9717SOL    HW247839   1.417   8.629   7.390
 9718SOL     OW47840   9.428   4.381   7.850
 9718SOL    HW147841   9.452   4.321   7.773
 9718SOL    HW247842   9.363   4.450   7.819
 9719SOL     OW47843   2.317   9.344   7.953
 9719SOL    HW147844   2.380   9.364   7.878
 9719SOL    HW247845   2.351   9.265   8.004
 9720SOL     OW47846   5.243   4.684   7.438
 9720SOL    HW147847   5.252   4.782   7.455
 9720SOL    HW247848   5.269   4.633   7.520
 9721SOL     OW47849   6.651   3.550   0.193
 9721SOL    HW147850   6.660   3.642   0.156
 9721SOL    HW247851   6.715   3.538   0.270
 9722SOL     OW47852   1.143  10.197   6.861
 9722SOL    HW147853   1.165  10.213   6.765
 9722SOL    HW247854   1.205  10.249   6.920
 9723SOL     OW47855   3.173   9.489   1.493
 9723SOL    HW147856   3.127   9.547   1.426
 9723SOL    HW247857   3.218   9.413   1.446
 9724SOL     OW47858   5.044   5.162   8.232
 9724SOL    HW147859   4.954   5.152   8.275
 9724SOL    HW247860   5.084   5.071   8.217
 9725SOL     OW47861   0.836   5.281   1.454
 9725SOL    HW147862   0.761   5.220   1.482
 9725SOL    HW247863   0.896   5.233   1.391
 9726SOL     OW47864   9.532   1.791   8.730
 9726SOL    HW147865   9.514   1.694   8.739
 9726SOL    HW247866   9.488   1.841   0.023
 9727SOL     OW47867   9.742   4.185   7.739
 9727SOL    HW147868   9.719   4.088   7.736
 9727SOL    HW247869   9.788   4.205   7.826
 9728SOL     OW47870   2.369   0.814   8.690
 9728SOL    HW147871   2.316   0.857   8.763
 9728SOL    HW247872   2.466   0.831   8.705
 9729SOL     OW47873   8.103   0.432   1.955
 9729SOL    HW147874   8.019   0.471   1.993
 9729SOL    HW247875   8.180   0.493   1.975
 9730SOL     OW47876   0.970   7.740   6.761
 9730SOL    HW147877   0.988   7.642   6.772
 9730SOL    HW247878   0.982   7.765   6.665
 9731SOL     OW47879   5.785   3.311   1.530
 9731SOL    HW147880   5.688   3.288   1.529
 9731SOL    HW247881   5.830   3.266   1.607
 9732SOL     OW47882   0.737   4.515   8.443
 9732SOL    HW147883   0.781   4.463   8.370
 9732SOL    HW247884   0.807   4.552   8.504
 9733SOL     OW47885   9.413   7.683   0.239
 9733SOL    HW147886   9.320   7.720   0.234
 9733SOL    HW247887   9.416   7.611   0.308
 9734SOL     OW47888   2.689   5.185   8.298
 9734SOL    HW147889   2.654   5.205   8.207
 9734SOL    HW247890   2.717   5.269   8.343
 9735SOL     OW47891   5.914   2.842   1.982
 9735SOL    HW147892   5.930   2.862   1.886
 9735SOL    HW247893   5.943   2.749   2.003
 9736SOL     OW47894   5.241   3.349   6.652
 9736SOL    HW147895   5.249   3.356   6.552
 9736SOL    HW247896   5.145   3.340   6.677
 9737SOL     OW47897   0.376   8.333   0.592
 9737SOL    HW147898   0.436   8.341   0.672
 9737SOL    HW247899   0.296   8.278   0.616
 9738SOL     OW47900   6.746   0.934   6.576
 9738SOL    HW147901   6.666   0.984   6.608
 9738SOL    HW247902   6.744   0.841   6.612
 9739SOL     OW47903   5.962   6.648   7.378
 9739SOL    HW147904   5.903   6.585   7.327
 9739SOL    HW247905   6.058   6.628   7.358
 9740SOL     OW47906   0.602   0.603   1.721
 9740SOL    HW147907   0.675   0.535   1.711
 9740SOL    HW247908   0.562   0.595   1.812
 9741SOL     OW47909   1.955   3.624   1.169
 9741SOL    HW147910   2.027   3.603   1.103
 9741SOL    HW247911   1.935   3.722   1.165
 9742SOL     OW47912  10.091   1.960   1.659
 9742SOL    HW147913  10.022   1.913   1.604
 9742SOL    HW247914   0.025   1.938   1.624
 9743SOL     OW47915   3.215   0.511   8.010
 9743SOL    HW147916   3.250   0.452   8.083
 9743SOL    HW247917   3.256   0.484   7.923
 9744SOL     OW47918   7.987   3.297   6.606
 9744SOL    HW147919   8.005   3.346   6.522
 9744SOL    HW247920   7.894   3.261   6.605
 9745SOL     OW47921   1.599   3.625   1.479
 9745SOL    HW147922   1.561   3.702   1.427
 9745SOL    HW247923   1.647   3.563   1.417
 9746SOL     OW47924   0.094   3.318   1.526
 9746SOL    HW147925   0.048   3.345   1.441
 9746SOL    HW247926   0.141   3.231   1.511
 9747SOL     OW47927   4.653   6.636   8.478
 9747SOL    HW147928   4.670   6.734   8.482
 9747SOL    HW247929   4.586   6.611   8.548
 9748SOL     OW47930   1.576   5.463   7.123
 9748SOL    HW147931   1.544   5.382   7.074
 9748SOL    HW247932   1.619   5.527   7.059
 9749SOL     OW47933   9.129   8.025   8.242
 9749SOL    HW147934   9.157   7.969   8.320
 9749SOL    HW247935   9.117   8.120   8.272
 9750SOL     OW47936   5.376   8.863   8.728
 9750SOL    HW147937   5.359   8.891   0.041
 9750SOL    HW247938   5.465   8.898   8.699
 9751SOL     OW47939   3.680   1.890   7.175
 9751SOL    HW147940   3.750   1.947   7.216
 9751SOL    HW247941   3.611   1.948   7.132
 9752SOL     OW47942   4.101   2.147   0.866
 9752SOL    HW147943   4.174   2.128   0.932
 9752SOL    HW247944   4.111   2.240   0.831
 9753SOL     OW47945   2.215   3.929   1.219
 9753SOL    HW147946   2.228   3.968   1.128
 9753SOL    HW247947   2.301   3.932   1.270
 9754SOL     OW47948   3.807   8.194   7.098
 9754SOL    HW147949   3.763   8.200   7.188
 9754SOL    HW247950   3.904   8.218   7.107
 9755SOL     OW47951   6.030   2.050   0.717
 9755SOL    HW147952   6.073   2.025   0.631
 9755SOL    HW247953   6.045   1.977   0.784
 9756SOL     OW47954   2.979  10.212   7.577
 9756SOL    HW147955   3.067  10.247   7.545
 9756SOL    HW247956   2.993  10.152   7.655
 9757SOL     OW47957   0.989   1.801   1.672
 9757SOL    HW147958   1.051   1.800   1.750
 9757SOL    HW247959   0.936   1.717   1.670
 9758SOL     OW47960   8.797   1.632   0.129
 9758SOL    HW147961   8.763   1.688   0.205
 9758SOL    HW247962   8.771   1.674   0.043
 9759SOL     OW47963   0.175   7.072   7.918
 9759SOL    HW147964   0.253   7.131   7.898
 9759SOL    HW247965   0.203   6.976   7.910
 9760SOL     OW47966   5.320   5.338   7.957
 9760SOL    HW147967   5.394   5.342   8.023
 9760SOL    HW247968   5.249   5.405   7.981
 9761SOL     OW47969   3.961   7.598   0.218
 9761SOL    HW147970   3.914   7.511   0.233
 9761SOL    HW247971   3.980   7.608   0.120
 9762SOL     OW47972   6.434   1.310   1.595
 9762SOL    HW147973   6.376   1.323   1.676
 9762SOL    HW247974   6.467   1.216   1.592
 9763SOL     OW47975   7.908   7.172   7.109
 9763SOL    HW147976   7.876   7.110   7.037
 9763SOL    HW247977   7.935   7.260   7.069
 9764SOL     OW47978   0.224   9.227   0.990
 9764SOL    HW147979   0.291   9.191   1.054
 9764SOL    HW247980   0.132   9.220   1.030
 9765SOL     OW47981   9.497   4.236   7.626
 9765SOL    HW147982   9.591   4.227   7.659
 9765SOL    HW247983   9.498   4.257   7.528
 9766SOL     OW47984   1.967   1.051   7.199
 9766SOL    HW147985   1.872   1.029   7.221
 9766SOL    HW247986   1.977   1.063   7.100
 9767SOL     OW47987   1.232   4.458   2.176
 9767SOL    HW147988   1.164   4.393   2.210
 9767SOL    HW247989   1.263   4.516   2.252
 9768SOL     OW47990   8.550   4.882   8.632
 9768SOL    HW147991   8.542   4.784   8.652
 9768SOL    HW247992   8.632   4.918   8.676
 9769SOL     OW47993   0.368   2.145   2.172
 9769SOL    HW147994   0.402   2.239   2.169
 9769SOL    HW247995   0.445   2.082   2.179
 9770SOL     OW47996   6.369   2.714   1.101
 9770SOL    HW147997   6.381   2.803   1.058
 9770SOL    HW247998   6.285   2.671   1.067
 9771SOL     OW47999   1.985   5.429   7.290
 9771SOL    HW148000   2.029   5.441   7.201
 9771SOL    HW248001   1.976   5.517   7.336
 9772SOL     OW48002   5.742   3.945   1.484
 9772SOL    HW148003   5.807   4.008   1.442
 9772SOL    HW248004   5.657   3.945   1.431
 9773SOL     OW48005   4.193   9.605   7.675
 9773SOL    HW148006   4.109   9.651   7.646
 9773SOL    HW248007   4.175   9.508   7.689
 9774SOL     OW48008   2.475   7.825   6.655
 9774SOL    HW148009   2.491   7.740   6.604
 9774SOL    HW248010   2.544   7.833   6.727
 9775SOL     OW48011   5.984   6.746   7.875
 9775SOL    HW148012   5.960   6.724   7.970
 9775SOL    HW248013   6.031   6.667   7.834
 9776SOL     OW48014   9.509   8.014   2.061
 9776SOL    HW148015   9.579   7.945   2.040
 9776SOL    HW248016   9.539   8.070   2.138
 9777SOL     OW48017   1.458   2.001   0.931
 9777SOL    HW148018   1.490   1.937   1.000
 9777SOL    HW248019   1.499   2.091   0.947
 9778SOL     OW48020   3.264   3.492   1.286
 9778SOL    HW148021   3.222   3.576   1.320
 9778SOL    HW248022   3.250   3.485   1.187
 9779SOL     OW48023   8.015   6.622   0.959
 9779SOL    HW148024   7.954   6.565   1.015
 9779SOL    HW248025   7.960   6.677   0.897
 9780SOL     OW48026   5.738   2.237   8.566
 9780SOL    HW148027   5.801   2.230   8.644
 9780SOL    HW248028   5.732   2.148   8.520
 9781SOL     OW48029   2.628   5.154   0.834
 9781SOL    HW148030   2.604   5.206   0.752
 9781SOL    HW248031   2.663   5.216   0.904
 9782SOL     OW48032   6.739   9.388   7.802
 9782SOL    HW148033   6.729   9.471   7.856
 9782SOL    HW248034   6.652   9.366   7.758
 9783SOL     OW48035   0.189   7.061   1.063
 9783SOL    HW148036   0.262   7.128   1.053
 9783SOL    HW248037   0.117   7.097   1.121
 9784SOL     OW48038   9.564   3.259   6.775
 9784SOL    HW148039   9.523   3.169   6.791
 9784SOL    HW248040   9.592   3.266   6.679
 9785SOL     OW48041   7.479   2.988   2.113
 9785SOL    HW148042   7.504   3.014   2.207
 9785SOL    HW248043   7.553   2.934   2.073
 9786SOL     OW48044   6.496   3.588   1.222
 9786SOL    HW148045   6.404   3.589   1.261
 9786SOL    HW248046   6.491   3.612   1.125
 9787SOL     OW48047   9.937   1.598   1.069
 9787SOL    HW148048   9.916   1.505   1.100
 9787SOL    HW248049   9.891   1.664   1.128
 9788SOL     OW48050   1.166   7.927   1.524
 9788SOL    HW148051   1.087   7.867   1.530
 9788SOL    HW248052   1.248   7.879   1.556
 9789SOL     OW48053   6.738   4.351   8.655
 9789SOL    HW148054   6.793   4.270   8.672
 9789SOL    HW248055   6.644   4.323   8.633
 9790SOL     OW48056   0.608   0.987   1.132
 9790SOL    HW148057   0.605   0.891   1.159
 9790SOL    HW248058   0.603   1.045   1.213
 9791SOL     OW48059   9.773   7.042   1.916
 9791SOL    HW148060   9.820   7.009   1.834
 9791SOL    HW248061   9.838   7.048   1.991
 9792SOL     OW48062   7.672   0.775   7.608
 9792SOL    HW148063   7.598   0.837   7.632
 9792SOL    HW248064   7.743   0.777   7.679
 9793SOL     OW48065   4.853   4.122   1.532
 9793SOL    HW148066   4.871   4.043   1.591
 9793SOL    HW248067   4.762   4.158   1.551
 9794SOL     OW48068   4.693   9.393   0.530
 9794SOL    HW148069   4.615   9.386   0.467
 9794SOL    HW248070   4.693   9.313   0.591
 9795SOL     OW48071   8.605   8.718   6.717
 9795SOL    HW148072   8.687   8.693   6.768
 9795SOL    HW248073   8.589   8.651   6.645
 9796SOL     OW48074   6.119   4.097   7.874
 9796SOL    HW148075   6.115   4.194   7.900
 9796SOL    HW248076   6.195   4.054   7.922
 9797SOL     OW48077   2.943  10.045   1.567
 9797SOL    HW148078   2.935  10.140   1.598
 9797SOL    HW248079   3.016  10.000   1.618
 9798SOL     OW48080   8.526   8.355   1.183
 9798SOL    HW148081   8.467   8.408   1.244
 9798SOL    HW248082   8.622   8.366   1.210
 9799SOL     OW48083   2.425   6.743   8.526
 9799SOL    HW148084   2.327   6.755   8.510
 9799SOL    HW248085   2.440   6.680   8.601
 9800SOL     OW48086   7.068   4.243   0.639
 9800SOL    HW148087   7.159   4.285   0.641
 9800SOL    HW248088   7.075   4.151   0.601
 9801SOL     OW48089   8.633   7.410   7.676
 9801SOL    HW148090   8.648   7.338   7.609
 9801SOL    HW248091   8.702   7.482   7.663
 9802SOL     OW48092   7.620   1.590   0.495
 9802SOL    HW148093   7.526   1.601   0.460
 9802SOL    HW248094   7.644   1.493   0.492
 9803SOL     OW48095   6.998   1.033   7.922
 9803SOL    HW148096   6.954   1.111   7.966
 9803SOL    HW248097   6.983   1.039   7.823
 9804SOL     OW48098   8.299   5.010   1.476
 9804SOL    HW148099   8.295   4.912   1.455
 9804SOL    HW248100   8.221   5.056   1.434
 9805SOL     OW48101   8.458   4.222   6.761
 9805SOL    HW148102   8.499   4.309   6.787
 9805SOL    HW248103   8.489   4.150   6.823
 9806SOL     OW48104   3.261   9.168   7.032
 9806SOL    HW148105   3.233   9.256   7.071
 9806SOL    HW248106   3.225   9.160   6.939
 9807SOL     OW48107   3.668   9.355   1.119
 9807SOL    HW148108   3.613   9.296   1.061
 9807SOL    HW248109   3.665   9.449   1.083
 9808SOL     OW48110   8.350   0.241   7.294
 9808SOL    HW148111   8.330   0.327   7.246
 9808SOL    HW248112   8.275   0.177   7.282
 9809SOL     OW48113   9.699   5.394   7.346
 9809SOL    HW148114   9.667   5.340   7.268
 9809SOL    HW248115   9.786   5.437   7.324
 9810SOL     OW48116  10.124   5.067   1.140
 9810SOL    HW148117  10.073   4.997   1.090
 9810SOL    HW248118   0.019   5.123   1.076
 9811SOL     OW48119   0.028   3.038   6.990
 9811SOL    HW148120   0.045   2.940   6.985
 9811SOL    HW248121  10.089   3.054   7.009
 9812SOL     OW48122   8.958   8.395   0.885
 9812SOL    HW148123   8.865   8.366   0.904
 9812SOL    HW248124   8.984   8.469   0.948
 9813SOL     OW48125   7.110   2.078   7.269
 9813SOL    HW148126   7.099   2.126   7.355
 9813SOL    HW248127   7.048   2.117   7.200
 9814SOL     OW48128   5.147   7.518   1.248
 9814SOL    HW148129   5.094   7.433   1.244
 9814SOL    HW248130   5.084   7.596   1.244
 9815SOL     OW48131   6.515   1.267   7.043
 9815SOL    HW148132   6.482   1.176   7.069
 9815SOL    HW248133   6.581   1.259   6.969
 9816SOL     OW48134   1.639   6.437   8.119
 9816SOL    HW148135   1.586   6.446   8.034
 9816SOL    HW248136   1.661   6.528   8.154
 9817SOL     OW48137   4.418   6.431   6.750
 9817SOL    HW148138   4.482   6.375   6.804
 9817SOL    HW248139   4.325   6.399   6.765
 9818SOL     OW48140   4.362   4.931   7.188
 9818SOL    HW148141   4.356   5.008   7.125
 9818SOL    HW248142   4.311   4.953   7.272
 9819SOL     OW48143   0.221   0.986   8.133
 9819SOL    HW148144   0.317   1.013   8.123
 9819SOL    HW248145   0.167   1.028   8.060
 9820SOL     OW48146   3.803   9.711   1.247
 9820SOL    HW148147   3.879   9.649   1.265
 9820SOL    HW248148   3.742   9.669   1.179
 9821SOL     OW48149   4.228   8.403   8.202
 9821SOL    HW148150   4.309   8.463   8.209
 9821SOL    HW248151   4.207   8.365   8.292
 9822SOL     OW48152   7.864   4.134   6.280
 9822SOL    HW148153   7.771   4.109   6.307
 9822SOL    HW248154   7.863   4.224   6.237
 9823SOL     OW48155   1.432   4.305   1.048
 9823SOL    HW148156   1.499   4.317   0.975
 9823SOL    HW248157   1.474   4.325   1.136
 9824SOL     OW48158   5.879   7.681   6.801
 9824SOL    HW148159   5.895   7.652   6.707
 9824SOL    HW248160   5.812   7.755   6.801
 9825SOL     OW48161   5.163   0.870   0.640
 9825SOL    HW148162   5.230   0.925   0.591
 9825SOL    HW248163   5.123   0.802   0.578
 9826SOL     OW48164   5.182   9.276   8.580
 9826SOL    HW148165   5.270   9.321   8.595
 9826SOL    HW248166   5.189   9.215   8.501
 9827SOL     OW48167   7.059   7.057   8.777
 9827SOL    HW148168   7.116   7.064   0.077
 9827SOL    HW248169   7.063   6.964   8.740
 9828SOL     OW48170   7.345   2.945   0.956
 9828SOL    HW148171   7.267   2.961   0.896
 9828SOL    HW248172   7.313   2.915   1.046
 9829SOL     OW48173   9.621  10.291   6.560
 9829SOL    HW148174   9.690  10.307   6.489
 9829SOL    HW248175   9.557  10.368   6.561
 9830SOL     OW48176   1.151   5.059   6.703
 9830SOL    HW148177   1.180   5.095   6.791
 9830SOL    HW248178   1.136   4.961   6.710
 9831SOL     OW48179   5.751   4.538   7.852
 9831SOL    HW148180   5.816   4.474   7.812
 9831SOL    HW248181   5.700   4.583   7.779
 9832SOL     OW48182   0.981   2.685   6.781
 9832SOL    HW148183   0.967   2.725   6.691
 9832SOL    HW248184   0.999   2.587   6.772
 9833SOL     OW48185   9.076   2.022   6.926
 9833SOL    HW148186   9.076   2.111   6.971
 9833SOL    HW248187   9.039   2.031   6.833
 9834SOL     OW48188   4.315   8.864   7.996
 9834SOL    HW148189   4.378   8.787   7.990
 9834SOL    HW248190   4.221   8.830   7.995
 9835SOL     OW48191   0.005   9.834   8.189
 9835SOL    HW148192  10.148   9.850   8.287
 9835SOL    HW248193   0.073   9.761   8.177
 9836SOL     OW48194   3.970   6.635   7.015
 9836SOL    HW148195   3.995   6.676   6.927
 9836SOL    HW248196   3.884   6.674   7.047
 9837SOL     OW48197   1.487   9.337   1.430
 9837SOL    HW148198   1.465   9.311   1.525
 9837SOL    HW248199   1.516   9.432   1.428
 9838SOL     OW48200  10.100   6.211   7.502
 9838SOL    HW148201  10.137   6.198   7.410
 9838SOL    HW248202  10.095   6.309   7.523
 9839SOL     OW48203   6.997   0.585   0.789
 9839SOL    HW148204   6.910   0.603   0.743
 9839SOL    HW248205   7.057   0.665   0.780
 9840SOL     OW48206   8.932   8.614   6.611
 9840SOL    HW148207   8.890   8.642   6.524
 9840SOL    HW248208   9.029   8.596   6.596
 9841SOL     OW48209   5.287   4.008   8.343
 9841SOL    HW148210   5.320   3.942   8.410
 9841SOL    HW248211   5.191   3.990   8.321
 9842SOL     OW48212   1.340   4.740   1.504
 9842SOL    HW148213   1.321   4.807   1.576
 9842SOL    HW248214   1.271   4.748   1.433
 9843SOL     OW48215   9.905   6.931   1.703
 9843SOL    HW148216   9.991   6.978   1.683
 9843SOL    HW248217   9.924   6.843   1.746
 9844SOL     OW48218   6.044   7.045   0.922
 9844SOL    HW148219   6.085   6.978   0.984
 9844SOL    HW248220   5.962   7.006   0.880
 9845SOL     OW48221   5.725   7.721   1.295
 9845SOL    HW148222   5.731   7.675   1.207
 9845SOL    HW248223   5.818   7.742   1.328
 9846SOL     OW48224   2.063  10.245   6.200
 9846SOL    HW148225   2.071  10.151   6.232
 9846SOL    HW248226   1.994  10.250   6.127
 9847SOL     OW48227   5.020   7.946   8.196
 9847SOL    HW148228   4.966   8.028   8.214
 9847SOL    HW248229   5.003   7.879   8.269
 9848SOL     OW48230   3.361   1.206   1.319
 9848SOL    HW148231   3.339   1.300   1.348
 9848SOL    HW248232   3.294   1.143   1.357
 9849SOL     OW48233   2.001   3.557   8.782
 9849SOL    HW148234   1.979   3.627   8.713
 9849SOL    HW248235   1.986   3.594   0.091
 9850SOL     OW48236   6.452   2.202   0.758
 9850SOL    HW148237   6.512   2.217   0.679
 9850SOL    HW248238   6.482   2.261   0.834
 9851SOL     OW48239   5.465  10.082   1.165
 9851SOL    HW148240   5.393  10.150   1.183
 9851SOL    HW248241   5.555  10.126   1.172
 9852SOL     OW48242   2.800   7.934   0.473
 9852SOL    HW148243   2.894   7.935   0.439
 9852SOL    HW248244   2.752   8.016   0.440
 9853SOL     OW48245   1.630   2.845   8.023
 9853SOL    HW148246   1.648   2.942   8.036
 9853SOL    HW248247   1.572   2.832   7.943
 9854SOL     OW48248   9.572   3.738   5.965
 9854SOL    HW148249   9.538   3.700   5.879
 9854SOL    HW248250   9.672   3.747   5.961
 9855SOL     OW48251   8.257   5.286   0.291
 9855SOL    HW148252   8.207   5.209   0.330
 9855SOL    HW248253   8.200   5.369   0.295
 9856SOL     OW48254   9.841   4.404   0.446
 9856SOL    HW148255   9.802   4.441   0.362
 9856SOL    HW248256   9.906   4.331   0.423
 9857SOL     OW48257   9.540   3.206   7.701
 9857SOL    HW148258   9.487   3.269   7.644
 9857SOL    HW248259   9.547   3.118   7.655
 9858SOL     OW48260   5.670   4.723   6.902
 9858SOL    HW148261   5.622   4.736   6.816
 9858SOL    HW248262   5.684   4.811   6.947
 9859SOL     OW48263   2.004   3.313   7.453
 9859SOL    HW148264   2.074   3.355   7.511
 9859SOL    HW248265   2.031   3.323   7.357
 9860SOL     OW48266   6.617   1.940   1.871
 9860SOL    HW148267   6.613   1.889   1.958
 9860SOL    HW248268   6.569   2.026   1.881
 9861SOL     OW48269   9.539   6.708   8.138
 9861SOL    HW148270   9.489   6.722   8.052
 9861SOL    HW248271   9.620   6.767   8.139
 9862SOL     OW48272   9.300   7.609   1.009
 9862SOL    HW148273   9.326   7.674   0.938
 9862SOL    HW248274   9.297   7.516   0.971
 9863SOL     OW48275   0.358   1.686   6.481
 9863SOL    HW148276   0.417   1.726   6.551
 9863SOL    HW248277   0.262   1.700   6.506
 9864SOL     OW48278   5.732   0.819   6.392
 9864SOL    HW148279   5.752   0.759   6.469
 9864SOL    HW248280   5.722   0.765   6.309
 9865SOL     OW48281   6.977   6.326   6.456
 9865SOL    HW148282   6.997   6.383   6.376
 9865SOL    HW248283   7.062   6.304   6.504
 9866SOL     OW48284   8.014   6.275   8.736
 9866SOL    HW148285   8.111   6.254   8.726
 9866SOL    HW248286   7.969   6.205   0.008
 9867SOL     OW48287   4.866   2.378   8.393
 9867SOL    HW148288   4.838   2.309   8.326
 9867SOL    HW248289   4.951   2.421   8.363
 9868SOL     OW48290   7.012   5.172   7.524
 9868SOL    HW148291   6.978   5.173   7.617
 9868SOL    HW248292   7.112   5.159   7.525
 9869SOL     OW48293   8.718   7.562   7.387
 9869SOL    HW148294   8.630   7.606   7.405
 9869SOL    HW248295   8.792   7.626   7.409
 9870SOL     OW48296   5.802   8.241   1.621
 9870SOL    HW148297   5.817   8.311   1.551
 9870SOL    HW248298   5.721   8.188   1.598
 9871SOL     OW48299   2.039   6.294   7.169
 9871SOL    HW148300   2.024   6.392   7.177
 9871SOL    HW248301   2.019   6.265   7.075
 9872SOL     OW48302   4.913   3.605   0.322
 9872SOL    HW148303   4.947   3.673   0.387
 9872SOL    HW248304   4.931   3.636   0.229
 9873SOL     OW48305   3.209   8.757   8.252
 9873SOL    HW148306   3.166   8.839   8.289
 9873SOL    HW248307   3.192   8.751   8.154
 9874SOL     OW48308   3.520   6.273   7.959
 9874SOL    HW148309   3.565   6.362   7.955
 9874SOL    HW248310   3.500   6.242   7.866
 9875SOL     OW48311   5.916   4.430   2.005
 9875SOL    HW148312   5.992   4.381   1.964
 9875SOL    HW248313   5.949   4.485   2.081
 9876SOL     OW48314   2.341   7.465   0.607
 9876SOL    HW148315   2.411   7.427   0.667
 9876SOL    HW248316   2.253   7.463   0.653
 9877SOL     OW48317   4.358   9.304   1.451
 9877SOL    HW148318   4.358   9.310   1.351
 9877SOL    HW248319   4.271   9.269   1.482
 9878SOL     OW48320   1.453   8.023   0.028
 9878SOL    HW148321   1.517   8.092   8.775
 9878SOL    HW248322   1.505   7.948   0.069
 9879SOL     OW48323   2.918   5.403   7.201
 9879SOL    HW148324   2.865   5.463   7.141
 9879SOL    HW248325   2.962   5.457   7.273
 9880SOL     OW48326   5.662   9.051   7.885
 9880SOL    HW148327   5.738   9.017   7.829
 9880SOL    HW248328   5.664   9.007   7.975
 9881SOL     OW48329   7.582   4.989   5.934
 9881SOL    HW148330   7.519   4.956   5.864
 9881SOL    HW248331   7.612   4.912   5.990
 9882SOL     OW48332   0.351   5.426   1.668
 9882SOL    HW148333   0.430   5.438   1.729
 9882SOL    HW248334   0.272   5.395   1.722
 9883SOL     OW48335   6.408  10.208   6.374
 9883SOL    HW148336   6.402  10.290   6.430
 9883SOL    HW248337   6.444  10.231   6.284
 9884SOL     OW48338   2.171   0.763   7.586
 9884SOL    HW148339   2.226   0.680   7.591
 9884SOL    HW248340   2.171   0.796   7.492
 9885SOL     OW48341   1.364   2.262   0.665
 9885SOL    HW148342   1.329   2.312   0.586
 9885SOL    HW248343   1.452   2.221   0.642
 9886SOL     OW48344   6.661  10.409   8.029
 9886SOL    HW148345   6.751  10.453   8.035
 9886SOL    HW248346   6.669  10.326   7.974
 9887SOL     OW48347   2.882   9.905   0.713
 9887SOL    HW148348   2.914   9.998   0.694
 9887SOL    HW248349   2.813   9.880   0.645
 9888SOL     OW48350   5.583   3.571   6.198
 9888SOL    HW148351   5.555   3.543   6.107
 9888SOL    HW248352   5.504   3.605   6.249
 9889SOL     OW48353   2.292   0.054   7.482
 9889SOL    HW148354   2.226   0.065   7.409
 9889SOL    HW248355   2.249   0.008   7.560
 9890SOL     OW48356   2.140   8.360   0.375
 9890SOL    HW148357   2.208   8.405   0.317
 9890SOL    HW248358   2.165   8.374   0.471
 9891SOL     OW48359   8.998   7.111   7.949
 9891SOL    HW148360   8.906   7.091   7.917
 9891SOL    HW248361   9.060   7.116   7.871
 9892SOL     OW48362   8.051   6.677   0.205
 9892SOL    HW148363   8.082   6.770   0.186
 9892SOL    HW248364   8.063   6.621   0.123
 9893SOL     OW48365   9.459   1.474   0.647
 9893SOL    HW148366   9.368   1.511   0.629
 9893SOL    HW248367   9.464   1.380   0.613
 9894SOL     OW48368   5.365   4.556   7.656
 9894SOL    HW148369   5.461   4.580   7.647
 9894SOL    HW248370   5.348   4.469   7.609
 9895SOL     OW48371   7.464   0.905   2.589
 9895SOL    HW148372   7.384   0.875   2.642
 9895SOL    HW248373   7.494   0.995   2.622
 9896SOL     OW48374   2.512   1.976   6.980
 9896SOL    HW148375   2.595   2.029   6.963
 9896SOL    HW248376   2.449   2.029   7.037
 9897SOL     OW48377   6.745   3.469   0.851
 9897SOL    HW148378   6.827   3.505   0.894
 9897SOL    HW248379   6.740   3.500   0.756
 9898SOL     OW48380   0.082   0.911   0.862
 9898SOL    HW148381   0.113   0.825   0.822
 9898SOL    HW248382   0.056   0.975   0.790
 9899SOL     OW48383  10.015   0.983   7.828
 9899SOL    HW148384   9.969   0.965   7.741
 9899SOL    HW248385   9.984   0.917   7.896
 9900SOL     OW48386   6.387   4.161   0.753
 9900SOL    HW148387   6.425   4.193   0.666
 9900SOL    HW248388   6.287   4.157   0.746
 9901SOL     OW48389   8.171   4.501   6.663
 9901SOL    HW148390   8.203   4.445   6.586
 9901SOL    HW248391   8.072   4.513   6.657
 9902SOL     OW48392   5.106   9.039   7.903
 9902SOL    HW148393   5.138   9.095   7.827
 9902SOL    HW248394   5.184   8.994   7.947
 9903SOL     OW48395   3.822   6.443   7.382
 9903SOL    HW148396   3.913   6.479   7.404
 9903SOL    HW248397   3.799   6.370   7.446
 9904SOL     OW48398   6.785   1.078   7.301
 9904SOL    HW148399   6.866   1.122   7.339
 9904SOL    HW248400   6.794   1.074   7.201
 9905SOL     OW48401   2.131   0.378   6.810
 9905SOL    HW148402   2.119   0.327   6.725
 9905SOL    HW248403   2.148   0.314   6.886
 9906SOL     OW48404   1.504   9.632   1.460
 9906SOL    HW148405   1.516   9.591   1.550
 9906SOL    HW248406   1.518   9.731   1.466
 9907SOL     OW48407   3.969   0.644   1.658
 9907SOL    HW148408   3.955   0.639   1.757
 9907SOL    HW248409   3.959   0.738   1.627
 9908SOL     OW48410   3.751   0.314   0.936
 9908SOL    HW148411   3.735   0.226   0.980
 9908SOL    HW248412   3.664   0.350   0.902
 9909SOL     OW48413   5.830   9.777   7.965
 9909SOL    HW148414   5.837   9.857   7.906
 9909SOL    HW248415   5.780   9.705   7.917
 9910SOL     OW48416   2.311   9.532   7.633
 9910SOL    HW148417   2.384   9.478   7.675
 9910SOL    HW248418   2.350   9.611   7.586
 9911SOL     OW48419   9.271   6.363   8.074
 9911SOL    HW148420   9.228   6.421   8.143
 9911SOL    HW248421   9.244   6.268   8.089
 9912SOL     OW48422   2.392   6.544   0.257
 9912SOL    HW148423   2.391   6.487   0.339
 9912SOL    HW248424   2.444   6.627   0.275
 9913SOL     OW48425   0.278   4.363   7.180
 9913SOL    HW148426   0.288   4.290   7.113
 9913SOL    HW248427   0.188   4.405   7.170
 9914SOL     OW48428   6.415   0.429   0.400
 9914SOL    HW148429   6.504   0.422   0.356
 9914SOL    HW248430   6.402   0.522   0.435
 9915SOL     OW48431   2.308   4.679   1.051
 9915SOL    HW148432   2.280   4.587   1.023
 9915SOL    HW248433   2.403   4.678   1.082
 9916SOL     OW48434   2.053   7.231   1.150
 9916SOL    HW148435   1.979   7.200   1.210
 9916SOL    HW248436   2.027   7.319   1.109
 9917SOL     OW48437   3.384   8.826   8.717
 9917SOL    HW148438   3.425   8.911   8.685
 9917SOL    HW248439   3.426   8.798   0.021
 9918SOL     OW48440   6.465   3.252   0.635
 9918SOL    HW148441   6.481   3.231   0.731
 9918SOL    HW248442   6.390   3.196   0.600
 9919SOL     OW48443   2.471   8.170   7.345
 9919SOL    HW148444   2.385   8.124   7.325
 9919SOL    HW248445   2.490   8.164   7.443
 9920SOL     OW48446   6.492   9.112   0.861
 9920SOL    HW148447   6.429   9.130   0.936
 9920SOL    HW248448   6.528   9.198   0.825
 9921SOL     OW48449   6.386   1.867   2.256
 9921SOL    HW148450   6.317   1.819   2.311
 9921SOL    HW248451   6.385   1.964   2.278
 9922SOL     OW48452   8.712   6.268   7.227
 9922SOL    HW148453   8.642   6.264   7.298
 9922SOL    HW248454   8.668   6.279   7.138
 9923SOL     OW48455   6.922   7.638   7.183
 9923SOL    HW148456   6.937   7.569   7.112
 9923SOL    HW248457   6.889   7.722   7.141
 9924SOL     OW48458   1.704   7.986   7.977
 9924SOL    HW148459   1.685   7.896   7.938
 9924SOL    HW248460   1.735   7.976   8.071
 9925SOL     OW48461   6.664   5.587   0.357
 9925SOL    HW148462   6.698   5.677   0.385
 9925SOL    HW248463   6.737   5.520   0.367
 9926SOL     OW48464   6.702   3.336   1.681
 9926SOL    HW148465   6.722   3.328   1.778
 9926SOL    HW248466   6.663   3.251   1.647
 9927SOL     OW48467   2.954   8.335   0.582
 9927SOL    HW148468   2.943   8.420   0.633
 9927SOL    HW248469   2.863   8.297   0.560
 9928SOL     OW48470   9.053   9.636   1.957
 9928SOL    HW148471   8.977   9.700   1.965
 9928SOL    HW248472   9.054   9.597   1.865
 9929SOL     OW48473   4.412   9.980   0.964
 9929SOL    HW148474   4.379   9.891   0.995
 9929SOL    HW248475   4.467  10.023   1.036
 9930SOL     OW48476   6.168   9.093   1.744
 9930SOL    HW148477   6.203   9.157   1.812
 9930SOL    HW248478   6.209   9.113   1.655
 9931SOL     OW48479   1.269   8.610   5.963
 9931SOL    HW148480   1.211   8.675   5.914
 9931SOL    HW248481   1.351   8.591   5.909
 9932SOL     OW48482   1.539   3.152   8.528
 9932SOL    HW148483   1.511   3.103   8.612
 9932SOL    HW248484   1.590   3.089   8.469
 9933SOL     OW48485   7.599   9.822   7.254
 9933SOL    HW148486   7.692   9.799   7.225
 9933SOL    HW248487   7.547   9.856   7.177
 9934SOL     OW48488   3.605   7.641   0.027
 9934SOL    HW148489   3.517   7.661   8.765
 9934SOL    HW248490   3.668   7.604   8.741
 9935SOL     OW48491   2.149   5.693   8.765
 9935SOL    HW148492   2.231   5.710   0.039
 9935SOL    HW248493   2.151   5.599   8.731
 9936SOL     OW48494   2.151   9.026   7.686
 9936SOL    HW148495   2.067   8.982   7.716
 9936SOL    HW248496   2.134   9.122   7.666
 9937SOL     OW48497   5.974  10.470   0.124
 9937SOL    HW148498   5.985   0.037   0.195
 9937SOL    HW248499   5.890  10.486   0.073
 9938SOL     OW48500   3.037   4.002   0.552
 9938SOL    HW148501   2.942   4.024   0.529
 9938SOL    HW248502   3.066   3.922   0.499
 9939SOL     OW48503   7.323   4.345   7.760
 9939SOL    HW148504   7.263   4.390   7.695
 9939SOL    HW248505   7.417   4.347   7.725
 9940SOL     OW48506   5.797   7.841   8.620
 9940SOL    HW148507   5.743   7.925   8.623
 9940SOL    HW248508   5.750   7.772   8.565
 9941SOL     OW48509   0.804   2.477   8.237
 9941SOL    HW148510   0.883   2.512   8.287
 9941SOL    HW248511   0.823   2.383   8.207
 9942SOL     OW48512   0.500   6.238   1.287
 9942SOL    HW148513   0.590   6.280   1.303
 9942SOL    HW248514   0.511   6.149   1.245
 9943SOL     OW48515   8.444   3.562   0.516
 9943SOL    HW148516   8.487   3.547   0.605
 9943SOL    HW248517   8.438   3.660   0.498
 9944SOL     OW48518   8.456   3.283   6.333
 9944SOL    HW148519   8.474   3.262   6.237
 9944SOL    HW248520   8.484   3.206   6.390
 9945SOL     OW48521   2.266   2.348   7.936
 9945SOL    HW148522   2.247   2.392   7.847
 9945SOL    HW248523   2.359   2.370   7.964
 9946SOL     OW48524  10.020   3.267   0.148
 9946SOL    HW148525   9.951   3.334   0.178
 9946SOL    HW248526  10.036   3.278   0.050
 9947SOL     OW48527   5.539   5.854   6.490
 9947SOL    HW148528   5.440   5.845   6.497
 9947SOL    HW248529   5.562   5.943   6.449
 9948SOL     OW48530   8.582   1.268   7.731
 9948SOL    HW148531   8.575   1.243   7.827
 9948SOL    HW248532   8.527   1.206   7.675
 9949SOL     OW48533   0.410   3.941   7.136
 9949SOL    HW148534   0.508   3.935   7.157
 9949SOL    HW248535   0.392   4.028   7.090
 9950SOL     OW48536   0.916   6.472   0.538
 9950SOL    HW148537   0.924   6.458   0.439
 9950SOL    HW248538   0.826   6.510   0.559
 9951SOL     OW48539   6.930   8.377   0.529
 9951SOL    HW148540   6.862   8.435   0.574
 9951SOL    HW248541   6.919   8.382   0.430
 9952SOL     OW48542   4.462   9.967   1.444
 9952SOL    HW148543   4.520   9.896   1.485
 9952SOL    HW248544   4.517  10.050   1.430
 9953SOL     OW48545   5.044   5.587   0.321
 9953SOL    HW148546   5.039   5.629   0.411
 9953SOL    HW248547   4.955   5.593   0.276
 9954SOL     OW48548   4.829   1.710   7.839
 9954SOL    HW148549   4.741   1.695   7.795
 9954SOL    HW248550   4.882   1.777   7.787
 9955SOL     OW48551   9.642   9.063   0.162
 9955SOL    HW148552   9.618   9.074   0.259
 9955SOL    HW248553   9.740   9.051   0.153
 9956SOL     OW48554   2.612   7.027   7.352
 9956SOL    HW148555   2.518   7.045   7.325
 9956SOL    HW248556   2.660   7.114   7.364
 9957SOL     OW48557   7.735   3.571   0.918
 9957SOL    HW148558   7.672   3.496   0.937
 9957SOL    HW248559   7.822   3.554   0.964
 9958SOL     OW48560   7.623   4.931   8.468
 9958SOL    HW148561   7.649   4.980   8.384
 9958SOL    HW248562   7.578   4.845   8.443
 9959SOL     OW48563   1.049   1.742   1.409
 9959SOL    HW148564   1.026   1.766   1.503
 9959SOL    HW248565   1.073   1.645   1.405
 9960SOL     OW48566   5.751   1.329   7.883
 9960SOL    HW148567   5.767   1.364   7.791
 9960SOL    HW248568   5.662   1.283   7.887
 9961SOL     OW48569   8.131   9.053   8.185
 9961SOL    HW148570   8.208   8.989   8.188
 9961SOL    HW248571   8.164   9.143   8.158
 9962SOL     OW48572   5.718   2.570   8.303
 9962SOL    HW148573   5.660   2.643   8.266
 9962SOL    HW248574   5.714   2.491   8.242
 9963SOL     OW48575   3.693   6.999   6.168
 9963SOL    HW148576   3.777   7.053   6.169
 9963SOL    HW248577   3.706   6.918   6.111
 9964SOL     OW48578   9.148   3.896   6.741
 9964SOL    HW148579   9.132   3.800   6.767
 9964SOL    HW248580   9.220   3.900   6.672
 9965SOL     OW48581   3.465   1.374   6.252
 9965SOL    HW148582   3.563   1.377   6.232
 9965SOL    HW248583   3.420   1.454   6.212
 9966SOL     OW48584   2.037   5.181   1.492
 9966SOL    HW148585   2.034   5.090   1.534
 9966SOL    HW248586   1.947   5.205   1.457
 9967SOL     OW48587   1.331   1.473   7.770
 9967SOL    HW148588   1.360   1.534   7.844
 9967SOL    HW248589   1.360   1.379   7.791
 9968SOL     OW48590   8.318  10.490   0.956
 9968SOL    HW148591   8.351   0.065   1.011
 9968SOL    HW248592   8.224   0.003   0.928
 9969SOL     OW48593   7.862   3.305   7.340
 9969SOL    HW148594   7.944   3.362   7.342
 9969SOL    HW248595   7.784   3.357   7.375
 9970SOL     OW48596   3.146   4.668   0.328
 9970SOL    HW148597   3.239   4.672   0.291
 9970SOL    HW248598   3.080   4.687   0.254
 9971SOL     OW48599   4.090   4.573   8.504
 9971SOL    HW148600   4.079   4.654   8.563
 9971SOL    HW248601   4.090   4.601   8.408
 9972SOL     OW48602   9.697   4.079   0.778
 9972SOL    HW148603   9.739   4.026   0.704
 9972SOL    HW248604   9.719   4.176   0.767
 9973SOL     OW48605   9.034   3.115   0.791
 9973SOL    HW148606   9.129   3.122   0.762
 9973SOL    HW248607   9.007   3.199   0.839
 9974SOL     OW48608   3.560   1.072   7.629
 9974SOL    HW148609   3.592   1.159   7.668
 9974SOL    HW248610   3.527   1.013   7.703
 9975SOL     OW48611   1.804   8.398   7.213
 9975SOL    HW148612   1.815   8.469   7.283
 9975SOL    HW248613   1.753   8.437   7.136
 9976SOL     OW48614   7.091   5.138   1.087
 9976SOL    HW148615   7.139   5.084   1.018
 9976SOL    HW248616   7.140   5.224   1.102
 9977SOL     OW48617   4.219   9.118   7.930
 9977SOL    HW148618   4.246   9.028   7.963
 9977SOL    HW248619   4.273   9.142   7.849
 9978SOL     OW48620   1.231   1.908   7.920
 9978SOL    HW148621   1.264   1.815   7.934
 9978SOL    HW248622   1.142   1.906   7.873
 9979SOL     OW48623   4.337   6.117   2.092
 9979SOL    HW148624   4.264   6.068   2.043
 9979SOL    HW248625   4.299   6.158   2.175
 9980SOL     OW48626   7.924   1.685   0.370
 9980SOL    HW148627   7.882   1.739   0.443
 9980SOL    HW248628   7.932   1.589   0.400
 9981SOL     OW48629   1.191   7.983   6.469
 9981SOL    HW148630   1.119   7.914   6.482
 9981SOL    HW248631   1.268   7.942   6.420
 9982SOL     OW48632   6.018   4.785   6.718
 9982SOL    HW148633   6.025   4.792   6.817
 9982SOL    HW248634   5.943   4.724   6.694
 9983SOL     OW48635   6.417   5.306   1.374
 9983SOL    HW148636   6.383   5.355   1.454
 9983SOL    HW248637   6.379   5.347   1.291
 9984SOL     OW48638   2.401   7.856   7.706
 9984SOL    HW148639   2.483   7.843   7.650
 9984SOL    HW248640   2.330   7.901   7.652
 9985SOL     OW48641   5.015   4.948   0.890
 9985SOL    HW148642   5.046   5.040   0.912
 9985SOL    HW248643   5.094   4.891   0.867
 9986SOL     OW48644   1.757  10.370   7.577
 9986SOL    HW148645   1.831  10.436   7.569
 9986SOL    HW248646   1.765  10.321   7.664
 9987SOL     OW48647   5.349   0.253   1.738
 9987SOL    HW148648   5.444   0.275   1.760
 9987SOL    HW248649   5.305   0.213   1.818
 9988SOL     OW48650   5.677   0.709   7.009
 9988SOL    HW148651   5.638   0.743   7.094
 9988SOL    HW248652   5.693   0.610   7.017
 9989SOL     OW48653   3.864   6.602   7.668
 9989SOL    HW148654   3.787   6.623   7.608
 9989SOL    HW248655   3.943   6.573   7.614
 9990SOL     OW48656   0.459   5.906   8.138
 9990SOL    HW148657   0.445   5.909   8.039
 9990SOL    HW248658   0.371   5.915   8.184
 9991SOL     OW48659   5.361   7.277   0.022
 9991SOL    HW148660   5.407   7.313   8.722
 9991SOL    HW248661   5.347   7.179   0.011
 9992SOL     OW48662   9.387  10.459   7.472
 9992SOL    HW148663   9.469  10.408   7.446
 9992SOL    HW248664   9.321  10.398   7.516
 9993SOL     OW48665   6.784   9.046   2.189
 9993SOL    HW148666   6.864   8.991   2.214
 9993SOL    HW248667   6.719   9.046   2.266
 9994SOL     OW48668   6.966   2.437   0.871
 9994SOL    HW148669   7.042   2.471   0.927
 9994SOL    HW248670   6.912   2.372   0.924
 9995SOL     OW48671   0.423   7.639   7.893
 9995SOL    HW148672   0.340   7.584   7.889
 9995SOL    HW248673   0.445   7.673   7.801
 9996SOL     OW48674   6.853   7.355   8.157
 9996SOL    HW148675   6.834   7.425   8.226
 9996SOL    HW248676   6.830   7.265   8.194
 9997SOL     OW48677   5.588  10.154   7.868
 9997SOL    HW148678   5.587  10.057   7.844
 9997SOL    HW248679   5.623  10.207   7.790
 9998SOL     OW48680   6.124   4.811   1.236
 9998SOL    HW148681   6.095   4.762   1.154
 9998SOL    HW248682   6.175   4.893   1.209
 9999SOL     OW48683   8.282   3.428   6.484
 9999SOL    HW148684   8.346   3.377   6.427
 9999SOL    HW248685   8.193   3.433   6.439
10000SOL     OW48686   9.092   4.695   6.363
10000SOL    HW148687   9.022   4.663   6.299
10000SOL    HW248688   9.070   4.787   6.394
10001SOL     OW48689   8.055  10.000   0.791
10001SOL    HW148690   8.107   9.982   0.875
10001SOL    HW248691   7.971   9.945   0.791
10002SOL     OW48692   9.460   8.369   1.490
10002SOL    HW148693   9.536   8.309   1.515
10002SOL    HW248694   9.496   8.448   1.441
10003SOL     OW48695   7.562   0.032   8.301
10003SOL    HW148696   7.621  10.455   8.297
10003SOL    HW248697   7.474   0.006   8.340
10004SOL     OW48698   5.690   2.629   2.384
10004SOL    HW148699   5.790   2.630   2.382
10004SOL    HW248700   5.659   2.569   2.458
10005SOL     OW48701   2.913   9.862   6.087
10005SOL    HW148702   2.824   9.818   6.078
10005SOL    HW248703   2.967   9.846   6.004
10006SOL     OW48704   2.186   8.843   8.426
10006SOL    HW148705   2.099   8.859   8.380
10006SOL    HW248706   2.223   8.754   8.396
10007SOL     OW48707   0.866   6.800   1.262
10007SOL    HW148708   0.793   6.848   1.311
10007SOL    HW248709   0.861   6.822   1.165
10008SOL     OW48710   5.581   6.326   7.596
10008SOL    HW148711   5.640   6.373   7.663
10008SOL    HW248712   5.551   6.238   7.634
10009SOL     OW48713   4.603  10.347   1.030
10009SOL    HW148714   4.589  10.262   1.081
10009SOL    HW248715   4.599  10.328   0.932
10010SOL     OW48716   9.051   5.675   8.493
10010SOL    HW148717   9.033   5.619   8.574
10010SOL    HW248718   9.008   5.632   8.413
10011SOL     OW48719   9.275   1.950   1.774
10011SOL    HW148720   9.359   1.987   1.814
10011SOL    HW248721   9.281   1.850   1.770
10012SOL     OW48722   6.896   4.452   6.308
10012SOL    HW148723   6.909   4.423   6.213
10012SOL    HW248724   6.800   4.480   6.321
10013SOL     OW48725   5.246   3.011   7.831
10013SOL    HW148726   5.346   3.005   7.836
10013SOL    HW248727   5.219   3.107   7.836
10014SOL     OW48728   5.076   6.986   1.278
10014SOL    HW148729   5.090   7.038   1.194
10014SOL    HW248730   5.080   7.047   1.356
10015SOL     OW48731   8.433  10.391   0.225
10015SOL    HW148732   8.507  10.396   0.293
10015SOL    HW248733   8.401  10.297   0.217
10016SOL     OW48734   5.676   3.365   2.282
10016SOL    HW148735   5.704   3.269   2.276
10016SOL    HW248736   5.683   3.407   2.192
10017SOL     OW48737   4.369   4.862   8.627
10017SOL    HW148738   4.438   4.789   8.622
10017SOL    HW248739   4.397   4.930   8.695
10018SOL     OW48740   7.254   4.799   1.215
10018SOL    HW148741   7.305   4.761   1.292
10018SOL    HW248742   7.235   4.727   1.149
10019SOL     OW48743   9.084   5.694   0.461
10019SOL    HW148744   9.131   5.606   0.454
10019SOL    HW248745   9.004   5.684   0.521
10020SOL     OW48746   3.666   6.867   8.496
10020SOL    HW148747   3.747   6.810   8.492
10020SOL    HW248748   3.668   6.934   8.421
10021SOL     OW48749   1.528   6.552   0.588
10021SOL    HW148750   1.530   6.588   0.681
10021SOL    HW248751   1.575   6.463   0.585
10022SOL     OW48752   5.523   0.843   0.137
10022SOL    HW148753   5.524   0.848   0.237
10022SOL    HW248754   5.599   0.786   0.105
10023SOL     OW48755   1.659   3.997   7.217
10023SOL    HW148756   1.705   3.955   7.140
10023SOL    HW248757   1.661   3.935   7.296
10024SOL     OW48758   6.765   2.577   6.733
10024SOL    HW148759   6.859   2.550   6.753
10024SOL    HW248760   6.761   2.621   6.643
10025SOL     OW48761   4.899   9.118   1.256
10025SOL    HW148762   4.859   9.063   1.330
10025SOL    HW248763   4.826   9.165   1.207
10026SOL     OW48764   0.780   8.203   8.589
10026SOL    HW148765   0.778   8.225   8.687
10026SOL    HW248766   0.760   8.285   8.536
10027SOL     OW48767   8.140   9.200   0.769
10027SOL    HW148768   8.195   9.123   0.802
10027SOL    HW248769   8.043   9.179   0.779
10028SOL     OW48770   0.262   5.672   7.806
10028SOL    HW148771   0.293   5.579   7.822
10028SOL    HW248772   0.173   5.686   7.848
10029SOL     OW48773   9.106   8.291   8.302
10029SOL    HW148774   9.133   8.337   8.217
10029SOL    HW248775   9.006   8.295   8.311
10030SOL     OW48776   3.147   3.889   1.767
10030SOL    HW148777   3.090   3.807   1.776
10030SOL    HW248778   3.146   3.939   1.854
10031SOL     OW48779   7.074   9.722   8.271
10031SOL    HW148780   7.123   9.670   8.200
10031SOL    HW248781   7.046   9.660   8.344
10032SOL     OW48782   1.340   5.870   6.667
10032SOL    HW148783   1.318   5.968   6.669
10032SOL    HW248784   1.309   5.831   6.581
10033SOL     OW48785   4.891   0.703   6.681
10033SOL    HW148786   4.949   0.707   6.762
10033SOL    HW248787   4.948   0.705   6.599
10034SOL     OW48788   3.772   9.489   7.851
10034SOL    HW148789   3.780   9.588   7.863
10034SOL    HW248790   3.772   9.467   7.754
10035SOL     OW48791   3.449   4.398   1.319
10035SOL    HW148792   3.456   4.376   1.416
10035SOL    HW248793   3.358   4.436   1.300
10036SOL     OW48794   4.394   0.735   0.226
10036SOL    HW148795   4.379   0.736   0.127
10036SOL    HW248796   4.429   0.824   0.255
10037SOL     OW48797   3.529   3.655   0.644
10037SOL    HW148798   3.462   3.580   0.644
10037SOL    HW248799   3.482   3.742   0.661
10038SOL     OW48800   3.730   2.909   1.624
10038SOL    HW148801   3.678   2.838   1.673
10038SOL    HW248802   3.718   2.898   1.526
10039SOL     OW48803   9.902   6.630   1.528
10039SOL    HW148804   9.884   6.551   1.470
10039SOL    HW248805   9.836   6.631   1.604
10040SOL     OW48806   4.450   5.403   0.098
10040SOL    HW148807   4.422   5.379   0.005
10040SOL    HW248808   4.546   5.380   0.110
10041SOL     OW48809   8.183   8.413   0.400
10041SOL    HW148810   8.097   8.443   0.441
10041SOL    HW248811   8.257   8.425   0.466
10042SOL     OW48812   8.219   0.898   1.252
10042SOL    HW148813   8.216   0.904   1.153
10042SOL    HW248814   8.313   0.906   1.284
10043SOL     OW48815   5.599   6.111   6.413
10043SOL    HW148816   5.562   6.202   6.433
10043SOL    HW248817   5.638   6.111   6.321
10044SOL     OW48818   9.157   0.060   7.852
10044SOL    HW148819   9.088   0.070   7.924
10044SOL    HW248820   9.199  10.473   7.858
10045SOL     OW48821   6.640   9.158   1.978
10045SOL    HW148822   6.691   9.134   2.061
10045SOL    HW248823   6.682   9.113   1.899
10046SOL     OW48824   0.356   0.626   0.246
10046SOL    HW148825   0.390   0.596   0.156
10046SOL    HW248826   0.261   0.656   0.237
10047SOL     OW48827   8.249   5.486   1.059
10047SOL    HW148828   8.155   5.514   1.078
10047SOL    HW248829   8.267   5.397   1.101
10048SOL     OW48830   2.861   4.971   7.063
10048SOL    HW148831   2.814   5.011   6.984
10048SOL    HW248832   2.817   4.884   7.086
10049SOL     OW48833   6.878   6.209   7.227
10049SOL    HW148834   6.974   6.228   7.207
10049SOL    HW248835   6.847   6.268   7.302
10050SOL     OW48836   6.350   3.100   0.091
10050SOL    HW148837   6.324   3.188   0.130
10050SOL    HW248838   6.450   3.092   0.091
10051SOL     OW48839   0.222   3.708   0.590
10051SOL    HW148840   0.162   3.657   0.529
10051SOL    HW248841   0.187   3.703   0.684
10052SOL     OW48842   8.341   3.749   1.416
10052SOL    HW148843   8.436   3.777   1.404
10052SOL    HW248844   8.286   3.782   1.338
10053SOL     OW48845   7.485   8.536   0.635
10053SOL    HW148846   7.581   8.549   0.660
10053SOL    HW248847   7.466   8.439   0.623
10054SOL     OW48848   5.396   3.289   0.202
10054SOL    HW148849   5.348   3.218   0.150
10054SOL    HW248850   5.344   3.309   0.286
10055SOL     OW48851   3.636   6.649   7.378
10055SOL    HW148852   3.608   6.659   7.474
10055SOL    HW248853   3.696   6.569   7.370
10056SOL     OW48854   2.384  10.227   1.879
10056SOL    HW148855   2.375  10.214   1.978
10056SOL    HW248856   2.322  10.299   1.849
10057SOL     OW48857   4.478   2.011   6.154
10057SOL    HW148858   4.379   2.001   6.159
10057SOL    HW248859   4.502   2.078   6.084
10058SOL     OW48860   2.318   7.445   7.613
10058SOL    HW148861   2.270   7.466   7.699
10058SOL    HW248862   2.265   7.378   7.561
10059SOL     OW48863   0.583   3.451   0.007
10059SOL    HW148864   0.541   3.417   8.705
10059SOL    HW248865   0.625   3.540   8.772
10060SOL     OW48866   7.548   8.606   8.472
10060SOL    HW148867   7.461   8.639   8.511
10060SOL    HW248868   7.614   8.594   8.546
10061SOL     OW48869   3.409   2.528   7.509
10061SOL    HW148870   3.377   2.452   7.565
10061SOL    HW248871   3.345   2.542   7.433
10062SOL     OW48872   4.926   6.073   7.232
10062SOL    HW148873   4.873   6.146   7.274
10062SOL    HW248874   4.892   6.057   7.139
10063SOL     OW48875   8.493   5.055   1.108
10063SOL    HW148876   8.486   4.962   1.142
10063SOL    HW248877   8.519   5.117   1.182
10064SOL     OW48878   8.504   3.814   8.287
10064SOL    HW148879   8.583   3.874   8.294
10064SOL    HW248880   8.504   3.748   8.363
10065SOL     OW48881   8.416   9.213   6.999
10065SOL    HW148882   8.487   9.247   7.061
10065SOL    HW248883   8.402   9.115   7.015
10066SOL     OW48884   0.926   9.090   7.261
10066SOL    HW148885   0.858   9.034   7.308
10066SOL    HW248886   0.938   9.176   7.311
10067SOL     OW48887   3.849   3.621   6.738
10067SOL    HW148888   3.917   3.604   6.666
10067SOL    HW248889   3.790   3.697   6.710
10068SOL     OW48890   0.636   3.751   7.886
10068SOL    HW148891   0.662   3.840   7.848
10068SOL    HW248892   0.562   3.712   7.831
10069SOL     OW48893   4.131   9.341   7.700
10069SOL    HW148894   4.216   9.289   7.709
10069SOL    HW248895   4.061   9.300   7.759
10070SOL     OW48896   1.940   0.106   6.926
10070SOL    HW148897   2.037   0.130   6.924
10070SOL    HW248898   1.915   0.058   6.842
10071SOL     OW48899   1.780   6.847   0.753
10071SOL    HW148900   1.846   6.794   0.806
10071SOL    HW248901   1.812   6.942   0.747
10072SOL     OW48902   7.178   7.730   8.272
10072SOL    HW148903   7.190   7.736   8.173
10072SOL    HW248904   7.247   7.668   8.310
10073SOL     OW48905   3.109   7.582   8.056
10073SOL    HW148906   3.203   7.559   8.033
10073SOL    HW248907   3.050   7.503   8.039
10074SOL     OW48908   3.236  10.363   8.316
10074SOL    HW148909   3.185  10.293   8.367
10074SOL    HW248910   3.258  10.439   8.377
10075SOL     OW48911   9.730   4.140   1.484
10075SOL    HW148912   9.667   4.063   1.474
10075SOL    HW248913   9.822   4.105   1.499
10076SOL     OW48914   2.634   8.843   0.418
10076SOL    HW148915   2.569   8.917   0.436
10076SOL    HW248916   2.714   8.854   0.477
10077SOL     OW48917   3.754   4.562   1.120
10077SOL    HW148918   3.693   4.600   1.051
10077SOL    HW248919   3.747   4.462   1.118
10078SOL     OW48920   1.624   4.152   1.457
10078SOL    HW148921   1.582   4.066   1.488
10078SOL    HW248922   1.653   4.205   1.536
10079SOL     OW48923   0.916   4.360   1.636
10079SOL    HW148924   0.837   4.340   1.578
10079SOL    HW248925   0.921   4.458   1.655
10080SOL     OW48926   4.967   6.598   0.058
10080SOL    HW148927   5.000   6.617   8.747
10080SOL    HW248928   4.885   6.652   0.076
10081SOL     OW48929   4.855   8.223   0.717
10081SOL    HW148930   4.759   8.217   0.743
10081SOL    HW248931   4.912   8.208   0.798
10082SOL     OW48932   7.580   5.218   1.974
10082SOL    HW148933   7.573   5.289   1.904
10082SOL    HW248934   7.656   5.238   2.035
10083SOL     OW48935   0.620   1.525   8.206
10083SOL    HW148936   0.709   1.488   8.232
10083SOL    HW248937   0.548   1.479   8.259
10084SOL     OW48938   2.779   3.243   8.186
10084SOL    HW148939   2.709   3.171   8.194
10084SOL    HW248940   2.849   3.214   8.121
10085SOL     OW48941   0.545   1.708   6.279
10085SOL    HW148942   0.469   1.693   6.342
10085SOL    HW248943   0.602   1.626   6.275
10086SOL     OW48944   9.199   3.354   0.587
10086SOL    HW148945   9.113   3.316   0.553
10086SOL    HW248946   9.236   3.293   0.657
10087SOL     OW48947   2.901   8.907   1.416
10087SOL    HW148948   2.932   8.984   1.359
10087SOL    HW248949   2.813   8.930   1.458
10088SOL     OW48950   7.803   7.551   7.634
10088SOL    HW148951   7.876   7.542   7.702
10088SOL    HW248952   7.811   7.478   7.567
10089SOL     OW48953   5.120   7.507   2.244
10089SOL    HW148954   5.210   7.507   2.287
10089SOL    HW248955   5.050   7.494   2.314
10090SOL     OW48956   0.716   8.877   8.515
10090SOL    HW148957   0.724   8.810   8.441
10090SOL    HW248958   0.804   8.923   8.528
10091SOL     OW48959   4.333   9.818   0.449
10091SOL    HW148960   4.275   9.740   0.423
10091SOL    HW248961   4.280   9.902   0.442
10092SOL     OW48962   9.576   2.697   6.681
10092SOL    HW148963   9.672   2.668   6.678
10092SOL    HW248964   9.563   2.774   6.618
10093SOL     OW48965   6.589  10.370   8.294
10093SOL    HW148966   6.497  10.330   8.288
10093SOL    HW248967   6.625  10.386   8.202
10094SOL     OW48968   0.469   6.879   0.802
10094SOL    HW148969   0.510   6.958   0.846
10094SOL    HW248970   0.461   6.896   0.704
10095SOL     OW48971   8.881   2.165   1.831
10095SOL    HW148972   8.914   2.254   1.861
10095SOL    HW248973   8.781   2.168   1.821
10096SOL     OW48974   0.287   3.558   7.369
10096SOL    HW148975   0.226   3.617   7.422
10096SOL    HW248976   0.271   3.463   7.394
10097SOL     OW48977   6.969   6.233   1.902
10097SOL    HW148978   6.870   6.247   1.903
10097SOL    HW248979   7.014   6.314   1.936
10098SOL     OW48980   0.174   4.791   0.543
10098SOL    HW148981   0.133   4.734   0.615
10098SOL    HW248982   0.260   4.829   0.575
10099SOL     OW48983   8.134   0.140   6.698
10099SOL    HW148984   8.194   0.141   6.617
10099SOL    HW248985   8.045   0.178   6.674
10100SOL     OW48986   3.017   5.591   8.747
10100SOL    HW148987   2.989   5.513   8.691
10100SOL    HW248988   3.043   5.667   8.688
10101SOL     OW48989   9.764   1.555   7.989
10101SOL    HW148990   9.820   1.509   8.057
10101SOL    HW248991   9.753   1.651   8.014
10102SOL     OW48992   6.267   2.355   1.036
10102SOL    HW148993   6.224   2.329   0.950
10102SOL    HW248994   6.200   2.398   1.096
10103SOL     OW48995   2.744   0.576   6.922
10103SOL    HW148996   2.665   0.629   6.890
10103SOL    HW248997   2.819   0.587   6.857
10104SOL     OW48998   3.306   7.459   1.745
10104SOL    HW148999   3.393   7.484   1.704
10104SOL    HW249000   3.236   7.453   1.674
10105SOL     OW49001   8.414   8.758   2.331
10105SOL    HW149002   8.371   8.808   2.406
10105SOL    HW249003   8.421   8.818   2.251
10106SOL     OW49004   1.274   2.025   0.012
10106SOL    HW149005   1.180   2.049   8.768
10106SOL    HW249006   1.318   1.977   8.719
10107SOL     OW49007   6.059   1.345   7.626
10107SOL    HW149008   6.027   1.250   7.629
10107SOL    HW249009   6.155   1.348   7.653
10108SOL     OW49010   3.897   0.742   7.189
10108SOL    HW149011   3.946   0.812   7.241
10108SOL    HW249012   3.800   0.744   7.213
10109SOL     OW49013   3.401   6.534   0.273
10109SOL    HW149014   3.434   6.462   0.334
10109SOL    HW249015   3.455   6.617   0.288
10110SOL     OW49016   7.825   9.838   0.755
10110SOL    HW149017   7.741   9.892   0.756
10110SOL    HW249018   7.834   9.790   0.668
10111SOL     OW49019   1.716   4.105   8.724
10111SOL    HW149020   1.648   4.179   8.723
10111SOL    HW249021   1.740   4.081   8.630
10112SOL     OW49022   5.793   2.512   6.743
10112SOL    HW149023   5.847   2.595   6.757
10112SOL    HW249024   5.801   2.483   6.648
10113SOL     OW49025   5.801   2.797   8.017
10113SOL    HW149026   5.844   2.708   8.026
10113SOL    HW249027   5.817   2.832   7.924
10114SOL     OW49028   1.310   6.812   8.627
10114SOL    HW149029   1.304   6.909   8.650
10114SOL    HW249030   1.261   6.795   8.541
10115SOL     OW49031   4.960   7.598   2.048
10115SOL    HW149032   5.022   7.569   2.121
10115SOL    HW249033   4.892   7.662   2.084
10116SOL     OW49034   7.935   1.924   1.181
10116SOL    HW149035   8.019   1.872   1.165
10116SOL    HW249036   7.875   1.916   1.102
10117SOL     OW49037   3.284   9.948   6.614
10117SOL    HW149038   3.228   9.997   6.548
10117SOL    HW249039   3.372   9.995   6.624
10118SOL     OW49040   0.718   9.975   7.885
10118SOL    HW149041   0.701   9.946   7.978
10118SOL    HW249042   0.764  10.064   7.886
10119SOL     OW49043   5.967   5.126   7.387
10119SOL    HW149044   5.901   5.096   7.456
10119SOL    HW249045   5.924   5.194   7.328
10120SOL     OW49046   2.090   5.713   7.756
10120SOL    HW149047   2.110   5.779   7.828
10120SOL    HW249048   2.000   5.731   7.718
10121SOL     OW49049   9.258   2.230   1.030
10121SOL    HW149050   9.235   2.172   1.108
10121SOL    HW249051   9.217   2.321   1.044
10122SOL     OW49052   5.872   1.027   6.878
10122SOL    HW149053   5.896   1.025   6.975
10122SOL    HW249054   5.775   1.046   6.867
10123SOL     OW49055   5.009   9.667   1.570
10123SOL    HW149056   5.002   9.767   1.566
10123SOL    HW249057   4.935   9.626   1.518
10124SOL     OW49058   1.806   6.152   1.803
10124SOL    HW149059   1.768   6.236   1.765
10124SOL    HW249060   1.899   6.170   1.836
10125SOL     OW49061   3.425   5.902   6.545
10125SOL    HW149062   3.419   5.904   6.645
10125SOL    HW249063   3.367   5.828   6.510
10126SOL     OW49064   1.390   2.450   0.143
10126SOL    HW149065   1.461   2.516   0.166
10126SOL    HW249066   1.302   2.479   0.181
10127SOL     OW49067   3.865   7.615   8.362
10127SOL    HW149068   3.888   7.528   8.320
10127SOL    HW249069   3.820   7.674   8.295
10128SOL     OW49070   7.093   1.078   7.076
10128SOL    HW149071   6.994   1.065   7.067
10128SOL    HW249072   7.113   1.176   7.083
10129SOL     OW49073  10.095   6.456   0.897
10129SOL    HW149074   0.034   6.480   0.881
10129SOL    HW249075  10.090   6.361   0.926
10130SOL     OW49076   3.259   1.343   8.580
10130SOL    HW149077   3.277   1.316   8.485
10130SOL    HW249078   3.226   1.263   8.631
10131SOL     OW49079   8.563   5.990   6.494
10131SOL    HW149080   8.627   5.956   6.425
10131SOL    HW249081   8.542   6.086   6.476
10132SOL     OW49082   5.349   7.408   1.097
10132SOL    HW149083   5.285   7.449   1.161
10132SOL    HW249084   5.431   7.465   1.089
10133SOL     OW49085   1.700   6.902   7.497
10133SOL    HW149086   1.634   6.907   7.422
10133SOL    HW249087   1.661   6.850   7.573
10134SOL     OW49088   0.897   0.543   8.579
10134SOL    HW149089   0.920   0.527   8.675
10134SOL    HW249090   0.917   0.461   8.526
10135SOL     OW49091   4.593   1.673   7.715
10135SOL    HW149092   4.587   1.634   7.623
10135SOL    HW249093   4.502   1.696   7.748
10136SOL     OW49094   7.087   1.465   7.641
10136SOL    HW149095   6.996   1.425   7.648
10136SOL    HW249096   7.156   1.392   7.643
10137SOL     OW49097   9.135   9.395   0.655
10137SOL    HW149098   9.141   9.304   0.615
10137SOL    HW249099   9.064   9.396   0.725
10138SOL     OW49100   4.861   4.011   6.820
10138SOL    HW149101   4.777   4.061   6.837
10138SOL    HW249102   4.920   4.064   6.759
10139SOL     OW49103   3.289   6.288   7.290
10139SOL    HW149104   3.333   6.342   7.218
10139SOL    HW249105   3.190   6.299   7.284
10140SOL     OW49106   2.861  10.237   1.886
10140SOL    HW149107   2.958  10.213   1.894
10140SOL    HW249108   2.806  10.154   1.896
10141SOL     OW49109   4.000   8.530   8.083
10141SOL    HW149110   4.076   8.477   8.120
10141SOL    HW249111   3.937   8.553   8.157
10142SOL     OW49112   9.632   9.054   8.515
10142SOL    HW149113   9.614   8.964   8.473
10142SOL    HW249114   9.731   9.064   8.529
10143SOL     OW49115   7.939   3.789   0.377
10143SOL    HW149116   7.853   3.777   0.428
10143SOL    HW249117   7.968   3.701   0.340
10144SOL     OW49118   7.855   0.623   8.007
10144SOL    HW149119   7.821   0.612   8.100
10144SOL    HW249120   7.815   0.553   7.948
10145SOL     OW49121   0.921   0.894   6.843
10145SOL    HW149122   0.991   0.885   6.772
10145SOL    HW249123   0.841   0.940   6.804
10146SOL     OW49124   8.972   8.982   0.656
10146SOL    HW149125   8.981   8.901   0.713
10146SOL    HW249126   8.875   8.997   0.635
10147SOL     OW49127   5.612   3.041   1.369
10147SOL    HW149128   5.575   3.133   1.386
10147SOL    HW249129   5.654   3.006   1.453
10148SOL     OW49130   6.445   3.213   8.100
10148SOL    HW149131   6.386   3.281   8.057
10148SOL    HW249132   6.525   3.196   8.042
10149SOL     OW49133   5.709   6.221   0.429
10149SOL    HW149134   5.755   6.146   0.476
10149SOL    HW249135   5.767   6.303   0.432
10150SOL     OW49136   1.242   4.569   7.973
10150SOL    HW149137   1.270   4.607   8.061
10150SOL    HW249138   1.317   4.576   7.908
10151SOL     OW49139   8.223   9.885   2.231
10151SOL    HW149140   8.234   9.933   2.318
10151SOL    HW249141   8.313   9.857   2.197
10152SOL     OW49142   9.435   6.888   7.300
10152SOL    HW149143   9.520   6.938   7.283
10152SOL    HW249144   9.436   6.802   7.249
10153SOL     OW49145   4.520   2.984   0.605
10153SOL    HW149146   4.540   2.950   0.514
10153SOL    HW249147   4.503   3.083   0.601
10154SOL     OW49148   3.438   9.423   1.864
10154SOL    HW149149   3.384   9.492   1.816
10154SOL    HW249150   3.522   9.464   1.899
10155SOL     OW49151   1.733   0.918   0.727
10155SOL    HW149152   1.704   1.013   0.734
10155SOL    HW249153   1.810   0.902   0.790
10156SOL     OW49154   8.893   6.204   6.441
10156SOL    HW149155   8.808   6.255   6.435
10156SOL    HW249156   8.946   6.217   6.357
10157SOL     OW49157   9.523   1.373   2.042
10157SOL    HW149158   9.541   1.464   2.080
10157SOL    HW249159   9.500   1.310   2.116
10158SOL     OW49160   9.629   9.720   7.505
10158SOL    HW149161   9.533   9.747   7.509
10158SOL    HW249162   9.679   9.762   7.580
10159SOL     OW49163   4.171   9.119   6.823
10159SOL    HW149164   4.098   9.174   6.783
10159SOL    HW249165   4.136   9.027   6.843
10160SOL     OW49166   8.007   7.033   7.325
10160SOL    HW149167   7.960   6.945   7.325
10160SOL    HW249168   7.976   7.087   7.247
10161SOL     OW49169   7.763   9.129   7.763
10161SOL    HW149170   7.709   9.093   7.839
10161SOL    HW249171   7.825   9.200   7.797
10162SOL     OW49172   7.909   0.644   0.056
10162SOL    HW149173   7.940   0.548   0.054
10162SOL    HW249174   7.837   0.655   0.124
10163SOL     OW49175   2.403  10.152   8.622
10163SOL    HW149176   2.473  10.167   8.693
10163SOL    HW249177   2.437  10.087   8.555
10164SOL     OW49178   6.691   4.721   0.595
10164SOL    HW149179   6.763   4.790   0.602
10164SOL    HW249180   6.609   4.763   0.556
10165SOL     OW49181   0.906   0.418   7.834
10165SOL    HW149182   0.811   0.387   7.847
10165SOL    HW249183   0.931   0.407   7.738
10166SOL     OW49184   6.681   2.725   0.286
10166SOL    HW149185   6.715   2.788   0.356
10166SOL    HW249186   6.679   2.771   0.197
10167SOL     OW49187   5.550  10.188   6.865
10167SOL    HW149188   5.522  10.191   6.769
10167SOL    HW249189   5.470  10.198   6.923
10168SOL     OW49190   6.625   2.939   6.428
10168SOL    HW149191   6.672   3.018   6.388
10168SOL    HW249192   6.528   2.943   6.404
10169SOL     OW49193   0.951   4.300   0.199
10169SOL    HW149194   0.852   4.289   0.192
10169SOL    HW249195   0.976   4.396   0.183
10170SOL     OW49196   7.444   7.929   6.601
10170SOL    HW149197   7.375   7.994   6.634
10170SOL    HW249198   7.530   7.977   6.587
10171SOL     OW49199   6.215   0.287   6.713
10171SOL    HW149200   6.227   0.385   6.698
10171SOL    HW249201   6.238   0.237   6.630
10172SOL     OW49202   2.782   0.908   6.893
10172SOL    HW149203   2.698   0.862   6.865
10172SOL    HW249204   2.774   0.937   6.988
10173SOL     OW49205   7.182   4.201   8.709
10173SOL    HW149206   7.215   4.109   8.688
10173SOL    HW249207   7.238   4.268   8.659
10174SOL     OW49208   1.463   1.573   8.217
10174SOL    HW149209   1.499   1.543   8.306
10174SOL    HW249210   1.487   1.506   8.147
10175SOL     OW49211   5.265   8.359   0.728
10175SOL    HW149212   5.250   8.353   0.827
10175SOL    HW249213   5.179   8.383   0.682
10176SOL     OW49214   3.628   2.709   5.944
10176SOL    HW149215   3.590   2.658   5.867
10176SOL    HW249216   3.672   2.793   5.910
10177SOL     OW49217   3.937   1.519   1.317
10177SOL    HW149218   3.874   1.456   1.363
10177SOL    HW249219   3.883   1.585   1.264
10178SOL     OW49220  10.145   2.308   6.108
10178SOL    HW149221  10.075   2.242   6.135
10178SOL    HW249222  10.105   2.400   6.104
10179SOL     OW49223   9.041   0.213   2.197
10179SOL    HW149224   9.013   0.141   2.261
10179SOL    HW249225   9.118   0.263   2.236
10180SOL     OW49226   1.368   9.188   7.906
10180SOL    HW149227   1.364   9.163   7.810
10180SOL    HW249228   1.428   9.268   7.917
10181SOL     OW49229   8.093   8.570   8.439
10181SOL    HW149230   8.166   8.512   8.474
10181SOL    HW249231   8.067   8.637   8.509
10182SOL     OW49232   3.849   1.302   8.425
10182SOL    HW149233   3.877   1.331   8.333
10182SOL    HW249234   3.791   1.373   8.465
10183SOL     OW49235   5.349   0.671   7.368
10183SOL    HW149236   5.296   0.647   7.286
10183SOL    HW249237   5.297   0.645   7.450
10184SOL     OW49238   9.763   1.124   1.617
10184SOL    HW149239   9.735   1.199   1.557
10184SOL    HW249240   9.739   1.146   1.712
10185SOL     OW49241   2.096   0.188   6.609
10185SOL    HW149242   2.001   0.212   6.587
10185SOL    HW249243   2.143   0.158   6.526
10186SOL     OW49244   0.326   2.155   7.144
10186SOL    HW149245   0.246   2.193   7.190
10186SOL    HW249246   0.298   2.118   7.055
10187SOL     OW49247   4.380   4.545   7.669
10187SOL    HW149248   4.347   4.610   7.601
10187SOL    HW249249   4.305   4.520   7.730
10188SOL     OW49250   7.516   9.186   6.757
10188SOL    HW149251   7.558   9.189   6.666
10188SOL    HW249252   7.587   9.197   6.826
10189SOL     OW49253   3.381   9.504   7.772
10189SOL    HW149254   3.442   9.435   7.732
10189SOL    HW249255   3.376   9.583   7.711
10190SOL     OW49256   6.962   7.294   1.272
10190SOL    HW149257   6.983   7.311   1.176
10190SOL    HW249258   6.863   7.288   1.284
10191SOL     OW49259   4.332   7.946   0.620
10191SOL    HW149260   4.333   7.987   0.528
10191SOL    HW249261   4.273   7.865   0.619
10192SOL     OW49262   1.357   9.132   7.632
10192SOL    HW149263   1.267   9.112   7.591
10192SOL    HW249264   1.397   9.212   7.587
10193SOL     OW49265   1.360   8.445   6.765
10193SOL    HW149266   1.286   8.462   6.700
10193SOL    HW249267   1.344   8.358   6.812
10194SOL     OW49268   4.706   4.012   2.218
10194SOL    HW149269   4.632   3.945   2.208
10194SOL    HW249270   4.667   4.100   2.246
10195SOL     OW49271   1.829   6.679   7.400
10195SOL    HW149272   1.784   6.764   7.428
10195SOL    HW249273   1.860   6.629   7.480
10196SOL     OW49274   5.235   8.153   1.307
10196SOL    HW149275   5.136   8.138   1.296
10196SOL    HW249276   5.251   8.247   1.336
10197SOL     OW49277   0.926   3.861   7.466
10197SOL    HW149278   0.829   3.843   7.479
10197SOL    HW249279   0.978   3.819   7.540
10198SOL     OW49280   0.903   6.010   0.524
10198SOL    HW149281   0.935   5.926   0.482
10198SOL    HW249282   0.816   5.993   0.570
10199SOL     OW49283   7.126   0.329   1.830
10199SOL    HW149284   7.089   0.315   1.922
10199SOL    HW249285   7.180   0.413   1.829
10200SOL     OW49286   1.488   6.681   0.135
10200SOL    HW149287   1.524   6.745   0.068
10200SOL    HW249288   1.417   6.725   0.190
10201SOL     OW49289   8.602   4.151   0.361
10201SOL    HW149290   8.606   4.223   0.292
10201SOL    HW249291   8.686   4.095   0.356
10202SOL     OW49292   7.289   5.129   7.506
10202SOL    HW149293   7.375   5.175   7.486
10202SOL    HW249294   7.304   5.060   7.578
10203SOL     OW49295   0.389   7.018   6.578
10203SOL    HW149296   0.318   6.949   6.565
10203SOL    HW249297   0.446   7.022   6.495
10204SOL     OW49298   1.871   1.533   0.083
10204SOL    HW149299   1.898   1.473   0.158
10204SOL    HW249300   1.830   1.616   0.120
10205SOL     OW49301   7.766   0.915   7.393
10205SOL    HW149302   7.729   0.859   7.468
10205SOL    HW249303   7.745   0.872   7.305
10206SOL     OW49304   3.495   4.335   0.256
10206SOL    HW149305   3.403   4.315   0.222
10206SOL    HW249306   3.546   4.385   0.186
10207SOL     OW49307   4.823  10.316   7.443
10207SOL    HW149308   4.738  10.364   7.424
10207SOL    HW249309   4.901  10.378   7.429
10208SOL     OW49310   2.409   4.235   1.116
10208SOL    HW149311   2.492   4.186   1.089
10208SOL    HW249312   2.421   4.274   1.206
10209SOL     OW49313   6.456   3.468   7.079
10209SOL    HW149314   6.437   3.455   6.981
10209SOL    HW249315   6.371   3.458   7.130
10210SOL     OW49316   3.107   1.372   0.370
10210SOL    HW149317   3.156   1.288   0.344
10210SOL    HW249318   3.023   1.379   0.316
10211SOL     OW49319  10.067   0.104   7.214
10211SOL    HW149320  10.099   0.022   7.260
10211SOL    HW249321  10.145   0.159   7.184
10212SOL     OW49322   2.499   8.096   8.751
10212SOL    HW149323   2.504   8.057   0.061
10212SOL    HW249324   2.591   8.121   8.720
10213SOL     OW49325   8.601   9.836   8.307
10213SOL    HW149326   8.698   9.835   8.281
10213SOL    HW249327   8.552   9.903   8.251
10214SOL     OW49328   3.997   1.185   1.102
10214SOL    HW149329   4.052   1.258   1.142
10214SOL    HW249330   4.048   1.099   1.107
10215SOL     OW49331   4.780   6.147   1.564
10215SOL    HW149332   4.722   6.069   1.541
10215SOL    HW249333   4.761   6.222   1.500
10216SOL     OW49334   8.438   8.756   7.643
10216SOL    HW149335   8.369   8.807   7.694
10216SOL    HW249336   8.472   8.680   7.699
10217SOL     OW49337  10.121   2.790   1.307
10217SOL    HW149338  10.109   2.840   1.221
10217SOL    HW249339  10.058   2.826   1.375
10218SOL     OW49340   1.625   2.019   8.161
10218SOL    HW149341   1.567   2.024   8.080
10218SOL    HW249342   1.718   2.047   8.138
10219SOL     OW49343   7.761   7.897   0.201
10219SOL    HW149344   7.753   7.917   0.103
10219SOL    HW249345   7.796   7.977   0.249
10220SOL     OW49346   8.595   0.360   0.992
10220SOL    HW149347   8.640   0.332   1.077
10220SOL    HW249348   8.596   0.460   0.986
10221SOL     OW49349   0.638   0.352   7.843
10221SOL    HW149350   0.547   0.320   7.869
10221SOL    HW249351   0.633   0.406   7.759
10222SOL     OW49352  10.022   4.007   0.155
10222SOL    HW149353  10.008   3.932   0.091
10222SOL    HW249354  10.059   3.971   0.241
10223SOL     OW49355   1.195   8.148   7.883
10223SOL    HW149356   1.169   8.154   7.980
10223SOL    HW249357   1.258   8.221   7.860
10224SOL     OW49358   0.282   5.180   0.724
10224SOL    HW149359   0.380   5.163   0.735
10224SOL    HW249360   0.236   5.167   0.811
10225SOL     OW49361   9.343   2.999   6.441
10225SOL    HW149362   9.298   3.040   6.520
10225SOL    HW249363   9.306   2.908   6.426
10226SOL     OW49364   0.733   2.542   1.123
10226SOL    HW149365   0.798   2.504   1.189
10226SOL    HW249366   0.784   2.585   1.048
10227SOL     OW49367   9.520   3.164   0.386
10227SOL    HW149368   9.444   3.102   0.367
10227SOL    HW249369   9.484   3.256   0.402
10228SOL     OW49370   4.750   1.465   0.062
10228SOL    HW149371   4.724   1.384   0.114
10228SOL    HW249372   4.758   1.543   0.124
10229SOL     OW49373   2.295   7.158   0.233
10229SOL    HW149374   2.300   7.192   0.327
10229SOL    HW249375   2.288   7.058   0.235
10230SOL     OW49376   9.831   7.887   0.594
10230SOL    HW149377   9.790   7.970   0.557
10230SOL    HW249378   9.820   7.812   0.529
10231SOL     OW49379   0.585   5.487   1.792
10231SOL    HW149380   0.618   5.480   1.886
10231SOL    HW249381   0.663   5.481   1.729
10232SOL     OW49382   8.695   3.189   8.529
10232SOL    HW149383   8.763   3.116   8.536
10232SOL    HW249384   8.604   3.150   8.521
10233SOL     OW49385   2.235   4.228   2.277
10233SOL    HW149386   2.155   4.231   2.338
10233SOL    HW249387   2.308   4.175   2.320
10234SOL     OW49388   6.133   3.773   8.007
10234SOL    HW149389   6.116   3.763   8.105
10234SOL    HW249390   6.202   3.843   7.993
10235SOL     OW49391   6.723  10.180   6.487
10235SOL    HW149392   6.683  10.089   6.474
10235SOL    HW249393   6.738  10.223   6.398
10236SOL     OW49394  10.151  10.350   8.624
10236SOL    HW149395  10.067  10.398   8.599
10236SOL    HW249396   0.061  10.416   8.659
10237SOL     OW49397   8.045   5.198   0.829
10237SOL    HW149398   8.128   5.160   0.870
10237SOL    HW249399   7.965   5.167   0.880
10238SOL     OW49400   8.083   2.559   0.626
10238SOL    HW149401   8.145   2.584   0.700
10238SOL    HW249402   7.990   2.549   0.662
10239SOL     OW49403   3.489   3.653   0.053
10239SOL    HW149404   3.468   3.746   0.025
10239SOL    HW249405   3.464   3.641   0.149
10240SOL     OW49406   3.435   6.095   0.080
10240SOL    HW149407   3.499   6.034   0.034
10240SOL    HW249408   3.385   6.044   0.150
10241SOL     OW49409   3.083   6.151   1.420
10241SOL    HW149410   3.114   6.223   1.482
10241SOL    HW249411   2.991   6.173   1.388
10242SOL     OW49412   6.992   9.653   7.112
10242SOL    HW149413   7.041   9.567   7.126
10242SOL    HW249414   7.052   9.730   7.135
10243SOL     OW49415  10.113   9.107   2.395
10243SOL    HW149416  10.016   9.123   2.378
10243SOL    HW249417  10.153   9.186   2.442
10244SOL     OW49418   7.149   6.438   8.040
10244SOL    HW149419   7.158   6.439   8.139
10244SOL    HW249420   7.227   6.486   7.998
10245SOL     OW49421   1.249   0.341   6.689
10245SOL    HW149422   1.264   0.353   6.787
10245SOL    HW249423   1.336   0.318   6.645
10246SOL     OW49424   8.852   7.887   6.931
10246SOL    HW149425   8.943   7.858   6.904
10246SOL    HW249426   8.797   7.807   6.955
10247SOL     OW49427   8.615   3.560   7.099
10247SOL    HW149428   8.649   3.653   7.080
10247SOL    HW249429   8.690   3.505   7.135
10248SOL     OW49430   0.080   1.132   7.923
10248SOL    HW149431   0.126   1.171   7.843
10248SOL    HW249432   0.005   1.073   7.892
10249SOL     OW49433   5.266   4.459   6.393
10249SOL    HW149434   5.266   4.517   6.475
10249SOL    HW249435   5.297   4.511   6.314
10250SOL     OW49436   4.601   4.793   7.227
10250SOL    HW149437   4.512   4.837   7.213
10250SOL    HW249438   4.590   4.694   7.220
10251SOL     OW49439   3.697   5.891   6.486
10251SOL    HW149440   3.600   5.915   6.496
10251SOL    HW249441   3.704   5.800   6.444
10252SOL     OW49442   3.503   4.808   1.532
10252SOL    HW149443   3.405   4.797   1.550
10252SOL    HW249444   3.530   4.746   1.458
10253SOL     OW49445   9.382   2.800   0.616
10253SOL    HW149446   9.409   2.782   0.521
10253SOL    HW249447   9.283   2.787   0.626
10254SOL     OW49448   5.671   5.931   1.186
10254SOL    HW149449   5.598   5.995   1.207
10254SOL    HW249450   5.714   5.900   1.272
10255SOL     OW49451   2.137   5.523   6.345
10255SOL    HW149452   2.173   5.602   6.296
10255SOL    HW249453   2.146   5.441   6.288
10256SOL     OW49454   2.274   5.698   8.236
10256SOL    HW149455   2.296   5.624   8.173
10256SOL    HW249456   2.335   5.776   8.220
10257SOL     OW49457   4.359   3.804   7.455
10257SOL    HW149458   4.367   3.713   7.416
10257SOL    HW249459   4.439   3.823   7.513
10258SOL     OW49460   1.927  10.102   6.934
10258SOL    HW149461   1.834  10.112   6.899
10258SOL    HW249462   1.984  10.177   6.899
10259SOL     OW49463   6.028   6.751   1.523
10259SOL    HW149464   6.093   6.758   1.599
10259SOL    HW249465   6.046   6.824   1.457
10260SOL     OW49466   4.812   9.539   7.697
10260SOL    HW149467   4.761   9.502   7.619
10260SOL    HW249468   4.812   9.472   7.772
10261SOL     OW49469   4.231  10.071   7.572
10261SOL    HW149470   4.277  10.029   7.494
10261SOL    HW249471   4.238  10.009   7.651
10262SOL     OW49472   5.347   6.655   0.349
10262SOL    HW149473   5.291   6.725   0.394
10262SOL    HW249474   5.288   6.596   0.294
10263SOL     OW49475   6.494   3.237   6.469
10263SOL    HW149476   6.571   3.221   6.408
10263SOL    HW249477   6.524   3.231   6.564
10264SOL     OW49478   1.502   3.965   0.774
10264SOL    HW149479   1.589   4.013   0.764
10264SOL    HW249480   1.426   4.027   0.753
10265SOL     OW49481   2.734   1.237   8.067
10265SOL    HW149482   2.745   1.331   8.101
10265SOL    HW249483   2.640   1.224   8.036
10266SOL     OW49484   0.006   2.070   0.228
10266SOL    HW149485   0.030   2.138   0.297
10266SOL    HW249486  10.099   2.109   0.163
10267SOL     OW49487   4.561   7.914   1.370
10267SOL    HW149488   4.481   7.865   1.404
10267SOL    HW249489   4.627   7.924   1.444
10268SOL     OW49490   2.902  10.238   6.816
10268SOL    HW149491   2.986  10.194   6.847
10268SOL    HW249492   2.884  10.319   6.873
10269SOL     OW49493   9.818  10.416   0.589
10269SOL    HW149494   9.736  10.377   0.632
10269SOL    HW249495   9.864  10.345   0.536
10270SOL     OW49496   1.290   1.290   1.317
10270SOL    HW149497   1.261   1.242   1.400
10270SOL    HW249498   1.379   1.256   1.288
10271SOL     OW49499   9.802   4.997   7.508
10271SOL    HW149500   9.718   4.942   7.501
10271SOL    HW249501   9.867   4.967   7.438
10272SOL     OW49502   3.571   0.098   1.486
10272SOL    HW149503   3.637   0.068   1.555
10272SOL    HW249504   3.584   0.046   1.402
10273SOL     OW49505   6.708   9.902   8.157
10273SOL    HW149506   6.765   9.928   8.079
10273SOL    HW249507   6.614   9.887   8.127
10274SOL     OW49508   6.424   8.935   1.111
10274SOL    HW149509   6.519   8.961   1.091
10274SOL    HW249510   6.403   8.849   1.064
10275SOL     OW49511   0.917   4.617   8.635
10275SOL    HW149512   1.004   4.576   8.660
10275SOL    HW249513   0.847   4.590   8.701
10276SOL     OW49514   9.345   2.960   8.724
10276SOL    HW149515   9.387   2.875   8.693
10276SOL    HW249516   9.271   2.939   0.005
10277SOL     OW49517   4.662  10.444   2.196
10277SOL    HW149518   4.757  10.463   2.174
10277SOL    HW249519   4.607   0.024   2.185
10278SOL     OW49520   4.441   8.739   0.684
10278SOL    HW149521   4.370   8.721   0.752
10278SOL    HW249522   4.511   8.668   0.689
10279SOL     OW49523   4.342   4.448   1.915
10279SOL    HW149524   4.374   4.525   1.860
10279SOL    HW249525   4.420   4.405   1.960
10280SOL     OW49526   7.925   5.766   6.026
10280SOL    HW149527   8.012   5.809   6.001
10280SOL    HW249528   7.849   5.822   5.992
10281SOL     OW49529   2.296   2.934   6.751
10281SOL    HW149530   2.218   2.966   6.804
10281SOL    HW249531   2.280   2.838   6.724
10282SOL     OW49532   2.210   5.976   0.201
10282SOL    HW149533   2.153   6.027   0.136
10282SOL    HW249534   2.155   5.952   0.281
10283SOL     OW49535   2.559  10.274   7.293
10283SOL    HW149536   2.478  10.230   7.330
10283SOL    HW249537   2.641  10.238   7.339
10284SOL     OW49538   0.847   7.984   6.573
10284SOL    HW149539   0.912   7.917   6.538
10284SOL    HW249540   0.755   7.961   6.540
10285SOL     OW49541   7.995   7.100   1.482
10285SOL    HW149542   8.054   7.047   1.421
10285SOL    HW249543   7.995   7.196   1.453
10286SOL     OW49544   2.708   8.126   0.963
10286SOL    HW149545   2.613   8.097   0.968
10286SOL    HW249546   2.748   8.097   0.876
10287SOL     OW49547   6.971   6.410   1.036
10287SOL    HW149548   6.935   6.503   1.037
10287SOL    HW249549   6.964   6.371   1.128
10288SOL     OW49550   5.288   4.810   0.265
10288SOL    HW149551   5.379   4.833   0.230
10288SOL    HW249552   5.230   4.779   0.189
10289SOL     OW49553   9.628   0.904   1.523
10289SOL    HW149554   9.576   0.862   1.597
10289SOL    HW249555   9.683   0.979   1.559
10290SOL     OW49556   1.270   5.177   6.921
10290SOL    HW149557   1.316   5.092   6.949
10290SOL    HW249558   1.333   5.232   6.866
10291SOL     OW49559   9.816   6.272   0.741
10291SOL    HW149560   9.769   6.188   0.711
10291SOL    HW249561   9.887   6.295   0.675
10292SOL     OW49562   0.406   9.156   0.507
10292SOL    HW149563   0.344   9.148   0.585
10292SOL    HW249564   0.395   9.245   0.464
10293SOL     OW49565   1.253   9.226   1.342
10293SOL    HW149566   1.256   9.201   1.245
10293SOL    HW249567   1.339   9.270   1.368
10294SOL     OW49568   9.853   1.526   0.335
10294SOL    HW149569   9.841   1.554   0.240
10294SOL    HW249570   9.913   1.446   0.339
10295SOL     OW49571   6.132  10.483   8.231
10295SOL    HW149572   6.127  10.486   8.331
10295SOL    HW249573   6.191   0.054   8.199
10296SOL     OW49574   1.826   8.226   7.582
10296SOL    HW149575   1.803   8.323   7.595
10296SOL    HW249576   1.843   8.184   7.671
10297SOL     OW49577   7.161   9.822   2.003
10297SOL    HW149578   7.195   9.744   2.056
10297SOL    HW249579   7.070   9.846   2.034
10298SOL     OW49580   9.551   3.925   1.456
10298SOL    HW149581   9.535   3.946   1.359
10298SOL    HW249582   9.520   3.831   1.475
10299SOL     OW49583   2.634   6.268   6.526
10299SOL    HW149584   2.562   6.333   6.551
10299SOL    HW249585   2.625   6.243   6.430
10300SOL     OW49586   3.183   3.989   1.343
10300SOL    HW149587   3.098   4.039   1.324
10300SOL    HW249588   3.218   4.016   1.432
10301SOL     OW49589   0.607   2.027   6.667
10301SOL    HW149590   0.515   2.064   6.676
10301SOL    HW249591   0.603   1.927   6.673
10302SOL     OW49592   4.890   7.892   7.620
10302SOL    HW149593   4.861   7.924   7.530
10302SOL    HW249594   4.983   7.854   7.613
10303SOL     OW49595   4.370   3.128   7.161
10303SOL    HW149596   4.301   3.185   7.204
10303SOL    HW249597   4.415   3.178   7.087
10304SOL     OW49598   4.322   6.327   0.257
10304SOL    HW149599   4.330   6.286   0.166
10304SOL    HW249600   4.232   6.307   0.295
10305SOL     OW49601   1.521   8.370   8.483
10305SOL    HW149602   1.581   8.290   8.472
10305SOL    HW249603   1.470   8.385   8.399
10306SOL     OW49604   6.752   7.603   0.772
10306SOL    HW149605   6.835   7.560   0.737
10306SOL    HW249606   6.753   7.700   0.748
10307SOL     OW49607   3.299   5.532   1.757
10307SOL    HW149608   3.393   5.561   1.776
10307SOL    HW249609   3.251   5.517   1.844
10308SOL     OW49610   0.979   7.286   1.765
10308SOL    HW149611   0.889   7.328   1.752
10308SOL    HW249612   1.020   7.320   1.849
10309SOL     OW49613   4.746   4.314   1.810
10309SOL    HW149614   4.697   4.284   1.728
10309SOL    HW249615   4.779   4.407   1.798
10310SOL     OW49616   1.157   7.300   1.559
10310SOL    HW149617   1.082   7.299   1.625
10310SOL    HW249618   1.155   7.216   1.505
10311SOL     OW49619   0.783   5.615   8.720
10311SOL    HW149620   0.836   5.647   8.641
10311SOL    HW249621   0.709   5.556   8.688
10312SOL     OW49622   2.698   4.034   1.273
10312SOL    HW149623   2.688   4.060   1.177
10312SOL    HW249624   2.611   3.998   1.307
10313SOL     OW49625   9.520   3.339   5.834
10313SOL    HW149626   9.448   3.290   5.882
10313SOL    HW249627   9.606   3.289   5.844
10314SOL     OW49628   3.294   1.748   6.872
10314SOL    HW149629   3.307   1.786   6.964
10314SOL    HW249630   3.242   1.663   6.879
10315SOL     OW49631  10.112   8.350   7.313
10315SOL    HW149632   0.004   8.411   7.374
10315SOL    HW249633  10.014   8.353   7.334
10316SOL     OW49634   4.366   2.292   1.476
10316SOL    HW149635   4.403   2.212   1.430
10316SOL    HW249636   4.367   2.276   1.575
10317SOL     OW49637   3.718   8.563   1.753
10317SOL    HW149638   3.649   8.501   1.716
10317SOL    HW249639   3.706   8.654   1.713
10318SOL     OW49640   1.478   1.838   8.315
10318SOL    HW149641   1.479   1.745   8.278
10318SOL    HW249642   1.542   1.895   8.263
10319SOL     OW49643   3.659   7.949   6.159
10319SOL    HW149644   3.658   8.046   6.132
10319SOL    HW249645   3.630   7.893   6.081
10320SOL     OW49646   3.137   5.103   0.992
10320SOL    HW149647   3.095   5.046   0.922
10320SOL    HW249648   3.066   5.155   1.040
10321SOL     OW49649   3.254   2.216   8.047
10321SOL    HW149650   3.352   2.209   8.028
10321SOL    HW249651   3.228   2.146   8.113
10322SOL     OW49652   6.712   3.914   8.439
10322SOL    HW149653   6.664   3.959   8.514
10322SOL    HW249654   6.668   3.939   8.352
10323SOL     OW49655   7.511   8.124   7.304
10323SOL    HW149656   7.437   8.171   7.256
10323SOL    HW249657   7.561   8.189   7.360
10324SOL     OW49658   1.829   5.131   2.464
10324SOL    HW149659   1.858   5.055   2.406
10324SOL    HW249660   1.794   5.096   2.550
10325SOL     OW49661   0.964   2.163   7.721
10325SOL    HW149662   0.963   2.069   7.756
10325SOL    HW249663   0.924   2.224   7.789
10326SOL     OW49664   6.750   8.826   8.416
10326SOL    HW149665   6.772   8.778   8.501
10326SOL    HW249666   6.801   8.784   8.340
10327SOL     OW49667   1.587   2.923   1.308
10327SOL    HW149668   1.515   2.864   1.272
10327SOL    HW249669   1.656   2.866   1.353
10328SOL     OW49670   3.507  10.062   0.912
10328SOL    HW149671   3.473  10.151   0.942
10328SOL    HW249672   3.606  10.060   0.921
10329SOL     OW49673   9.842   7.345   7.831
10329SOL    HW149674   9.877   7.438   7.847
10329SOL    HW249675   9.744   7.344   7.847
10330SOL     OW49676   9.593   8.382   1.003
10330SOL    HW149677   9.546   8.300   1.036
10330SOL    HW249678   9.666   8.407   1.067
10331SOL     OW49679   9.127   0.128   8.564
10331SOL    HW149680   9.042   0.129   8.616
10331SOL    HW249681   9.106   0.131   8.466
10332SOL     OW49682   2.229   6.818   1.277
10332SOL    HW149683   2.286   6.786   1.353
10332SOL    HW249684   2.147   6.863   1.314
10333SOL     OW49685   4.743   2.414   0.249
10333SOL    HW149686   4.681   2.456   0.316
10333SOL    HW249687   4.837   2.419   0.282
10334SOL     OW49688   3.467   8.720   8.339
10334SOL    HW149689   3.460   8.669   8.425
10334SOL    HW249690   3.376   8.744   8.307
10335SOL     OW49691   9.824   5.669   1.860
10335SOL    HW149692   9.875   5.591   1.897
10335SOL    HW249693   9.833   5.747   1.922
10336SOL     OW49694   0.743   2.272   0.478
10336SOL    HW149695   0.673   2.311   0.419
10336SOL    HW249696   0.701   2.216   0.549
10337SOL     OW49697   0.978   9.405   2.141
10337SOL    HW149698   0.898   9.465   2.141
10337SOL    HW249699   1.055   9.453   2.183
10338SOL     OW49700  10.086   3.739   8.261
10338SOL    HW149701  10.104   3.755   8.358
10338SOL    HW249702  10.120   3.815   8.207
10339SOL     OW49703   9.985   4.676   0.807
10339SOL    HW149704   9.944   4.672   0.716
10339SOL    HW249705   9.971   4.590   0.854
10340SOL     OW49706   2.625   2.323   7.103
10340SOL    HW149707   2.684   2.259   7.055
10340SOL    HW249708   2.542   2.340   7.048
10341SOL     OW49709   2.928   9.870   6.550
10341SOL    HW149710   2.833   9.893   6.532
10341SOL    HW249711   2.988   9.937   6.506
10342SOL     OW49712   0.744   0.190   8.332
10342SOL    HW149713   0.829   0.240   8.350
10342SOL    HW249714   0.667   0.241   8.371
10343SOL     OW49715   3.128   6.082   8.184
10343SOL    HW149716   3.118   6.136   8.268
10343SOL    HW249717   3.038   6.059   8.148
10344SOL     OW49718   1.006   6.206   8.618
10344SOL    HW149719   1.101   6.206   8.649
10344SOL    HW249720   1.000   6.248   8.528
10345SOL     OW49721   5.987   6.768   0.614
10345SOL    HW149722   5.896   6.804   0.594
10345SOL    HW249723   5.985   6.720   0.701
10346SOL     OW49724   3.113   1.497   6.930
10346SOL    HW149725   3.044   1.426   6.946
10346SOL    HW249726   3.204   1.456   6.932
10347SOL     OW49727   0.842   1.736   6.545
10347SOL    HW149728   0.868   1.832   6.536
10347SOL    HW249729   0.773   1.714   6.476
10348SOL     OW49730   3.732   7.947   1.143
10348SOL    HW149731   3.780   7.861   1.162
10348SOL    HW249732   3.733   8.004   1.224
10349SOL     OW49733   8.834   9.422   8.331
10349SOL    HW149734   8.874   9.338   8.367
10349SOL    HW249735   8.734   9.415   8.333
10350SOL     OW49736   7.432   3.567   0.553
10350SOL    HW149737   7.404   3.528   0.465
10350SOL    HW249738   7.486   3.500   0.603
10351SOL     OW49739   8.109   9.967   0.528
10351SOL    HW149740   8.092   9.976   0.627
10351SOL    HW249741   8.154   9.880   0.510
10352SOL     OW49742   2.117   3.355   7.204
10352SOL    HW149743   2.149   3.271   7.159
10352SOL    HW249744   2.123   3.431   7.140
10353SOL     OW49745   0.643   5.880   6.716
10353SOL    HW149746   0.667   5.976   6.726
10353SOL    HW249747   0.652   5.853   6.621
10354SOL     OW49748   0.797   9.856   1.824
10354SOL    HW149749   0.861   9.908   1.879
10354SOL    HW249750   0.764   9.777   1.875
10355SOL     OW49751   4.816   7.828   0.740
10355SOL    HW149752   4.730   7.870   0.769
10355SOL    HW249753   4.801   7.776   0.656
10356SOL     OW49754   7.865   7.034   1.713
10356SOL    HW149755   7.921   7.054   1.632
10356SOL    HW249756   7.842   7.119   1.759
10357SOL     OW49757   1.704   1.691   0.923
10357SOL    HW149758   1.641   1.727   0.992
10357SOL    HW249759   1.797   1.696   0.957
10358SOL     OW49760   5.457   1.723   0.391
10358SOL    HW149761   5.419   1.755   0.478
10358SOL    HW249762   5.443   1.624   0.383
10359SOL     OW49763   3.727   8.125   1.364
10359SOL    HW149764   3.671   8.071   1.427
10359SOL    HW249765   3.786   8.186   1.415
10360SOL     OW49766   6.213   0.137   0.048
10360SOL    HW149767   6.174   0.051   0.079
10360SOL    HW249768   6.161   0.172   8.752
10361SOL     OW49769   3.516   9.062   8.682
10361SOL    HW149770   3.605   9.023   8.658
10361SOL    HW249771   3.513   9.081   8.780
10362SOL     OW49772   7.128   8.183   0.257
10362SOL    HW149773   7.193   8.122   0.212
10362SOL    HW249774   7.179   8.250   0.312
10363SOL     OW49775   7.076   0.345   0.679
10363SOL    HW149776   7.071   0.436   0.720
10363SOL    HW249777   6.987   0.300   0.686
10364SOL     OW49778   9.573   8.572   1.330
10364SOL    HW149779   9.617   8.660   1.349
10364SOL    HW249780   9.638   8.510   1.287
10365SOL     OW49781   2.323   8.839   0.633
10365SOL    HW149782   2.365   8.751   0.653
10365SOL    HW249783   2.283   8.876   0.717
10366SOL     OW49784   8.212   8.331   8.771
10366SOL    HW149785   8.210   8.412   0.047
10366SOL    HW249786   8.124   8.284   8.777
10367SOL     OW49787   1.593   5.450   1.038
10367SOL    HW149788   1.690   5.468   1.055
10367SOL    HW249789   1.571   5.356   1.062
10368SOL     OW49790  10.105   7.605   8.251
10368SOL    HW149791   0.013   7.563   8.314
10368SOL    HW249792  10.103   7.553   8.166
10369SOL     OW49793   8.417   5.767   0.643
10369SOL    HW149794   8.459   5.727   0.562
10369SOL    HW249795   8.363   5.698   0.691
10370SOL     OW49796   4.080   7.628   1.184
10370SOL    HW149797   4.129   7.546   1.214
10370SOL    HW249798   4.128   7.709   1.217
10371SOL     OW49799   4.243   5.822   7.498
10371SOL    HW149800   4.335   5.798   7.530
10371SOL    HW249801   4.197   5.740   7.466
10372SOL     OW49802   4.383   9.493   7.474
10372SOL    HW149803   4.320   9.538   7.537
10372SOL    HW249804   4.357   9.514   7.380
10373SOL     OW49805   3.423   9.596   0.756
10373SOL    HW149806   3.346   9.654   0.781
10373SOL    HW249807   3.486   9.647   0.698
10374SOL     OW49808   9.804   5.624   8.456
10374SOL    HW149809   9.785   5.710   8.410
10374SOL    HW249810   9.895   5.591   8.430
10375SOL     OW49811   6.906   3.700   1.861
10375SOL    HW149812   6.910   3.774   1.794
10375SOL    HW249813   6.960   3.623   1.828
10376SOL     OW49814   3.611   8.165   8.038
10376SOL    HW149815   3.693   8.202   8.082
10376SOL    HW249816   3.536   8.230   8.047
10377SOL     OW49817   5.307   8.704   0.917
10377SOL    HW149818   5.248   8.683   0.838
10377SOL    HW249819   5.303   8.803   0.936
10378SOL     OW49820   2.318   1.688   6.640
10378SOL    HW149821   2.390   1.751   6.670
10378SOL    HW249822   2.273   1.726   6.560
10379SOL     OW49823   3.230   2.959   0.262
10379SOL    HW149824   3.249   2.878   0.206
10379SOL    HW249825   3.266   3.040   0.215
10380SOL     OW49826   3.566  10.014   8.339
10380SOL    HW149827   3.512   9.997   8.421
10380SOL    HW249828   3.561   9.935   8.278
10381SOL     OW49829   5.724   5.595   7.723
10381SOL    HW149830   5.734   5.498   7.744
10381SOL    HW249831   5.802   5.646   7.760
10382SOL     OW49832   7.542   2.371   7.264
10382SOL    HW149833   7.545   2.289   7.207
10382SOL    HW249834   7.497   2.349   7.351
10383SOL     OW49835   5.180   4.384   8.112
10383SOL    HW149836   5.258   4.441   8.136
10383SOL    HW249837   5.137   4.419   8.029
10384SOL     OW49838   5.156   1.089   8.765
10384SOL    HW149839   5.179   1.171   0.036
10384SOL    HW249840   5.140   1.116   8.670
10385SOL     OW49841   0.981  10.134   0.009
10385SOL    HW149842   0.919  10.188   8.735
10385SOL    HW249843   1.076  10.151   8.763
10386SOL     OW49844   1.808   5.092   1.059
10386SOL    HW149845   1.854   5.032   1.125
10386SOL    HW249846   1.810   5.049   0.968
10387SOL     OW49847   2.122   1.767   2.065
10387SOL    HW149848   2.087   1.859   2.085
10387SOL    HW249849   2.149   1.762   1.969
10388SOL     OW49850   9.741   0.458   7.312
10388SOL    HW149851   9.715   0.547   7.273
10388SOL    HW249852   9.818   0.420   7.260
10389SOL     OW49853   2.649  10.436   8.618
10389SOL    HW149854   2.588  10.465   8.691
10389SOL    HW249855   2.621  10.478   8.532
10390SOL     OW49856   5.848   6.395   0.892
10390SOL    HW149857   5.803   6.388   0.981
10390SOL    HW249858   5.868   6.303   0.857
10391SOL     OW49859   3.043   9.983   7.279
10391SOL    HW149860   3.051  10.082   7.276
10391SOL    HW249861   3.086   9.943   7.197
10392SOL     OW49862   4.104   5.989   1.935
10392SOL    HW149863   4.052   6.031   1.861
10392SOL    HW249864   4.048   5.920   1.981
10393SOL     OW49865  10.133   5.611   7.070
10393SOL    HW149866  10.039   5.634   7.095
10393SOL    HW249867   0.027   5.695   7.054
10394SOL     OW49868   3.760   0.831   1.202
10394SOL    HW149869   3.663   0.828   1.177
10394SOL    HW249870   3.770   0.874   1.292
10395SOL     OW49871   4.516   9.000   1.751
10395SOL    HW149872   4.524   9.058   1.832
10395SOL    HW249873   4.586   8.929   1.753
10396SOL     OW49874   9.782   2.302   0.219
10396SOL    HW149875   9.729   2.218   0.218
10396SOL    HW249876   9.721   2.380   0.209
10397SOL     OW49877   8.717   0.930   7.677
10397SOL    HW149878   8.636   0.872   7.674
10397SOL    HW249879   8.742   0.948   7.772
10398SOL     OW49880   9.209   5.446   0.438
10398SOL    HW149881   9.148   5.417   0.512
10398SOL    HW249882   9.191   5.392   0.356
10399SOL     OW49883   5.660   7.453   0.192
10399SOL    HW149884   5.686   7.520   0.261
10399SOL    HW249885   5.737   7.438   0.129
10400SOL     OW49886   2.432   4.740   7.480
10400SOL    HW149887   2.512   4.785   7.520
10400SOL    HW249888   2.349   4.780   7.518
10401SOL     OW49889   4.528   2.590   8.331
10401SOL    HW149890   4.470   2.515   8.364
10401SOL    HW249891   4.601   2.552   8.274
10402SOL     OW49892   4.996   6.681   7.239
10402SOL    HW149893   4.987   6.768   7.191
10402SOL    HW249894   4.992   6.605   7.174
10403SOL     OW49895   7.089   2.892   7.194
10403SOL    HW149896   7.130   2.955   7.259
10403SOL    HW249897   7.024   2.941   7.136
10404SOL     OW49898   6.712   9.220   1.181
10404SOL    HW149899   6.717   9.142   1.117
10404SOL    HW249900   6.628   9.272   1.163
10405SOL     OW49901   3.856   0.364   8.530
10405SOL    HW149902   3.899   0.384   8.618
10405SOL    HW249903   3.908   0.292   8.483
10406SOL     OW49904   4.972   8.118   1.309
10406SOL    HW149905   4.949   8.106   1.406
10406SOL    HW249906   4.890   8.104   1.253
10407SOL     OW49907   8.145   6.555   7.872
10407SOL    HW149908   8.067   6.612   7.896
10407SOL    HW249909   8.196   6.531   7.955
10408SOL     OW49910   7.078   6.085   0.344
10408SOL    HW149911   7.100   5.991   0.371
10408SOL    HW249912   7.056   6.138   0.426
10409SOL     OW49913   6.151   2.283   7.865
10409SOL    HW149914   6.072   2.252   7.813
10409SOL    HW249915   6.122   2.308   7.958
10410SOL     OW49916   2.444   7.810   8.207
10410SOL    HW149917   2.355   7.771   8.183
10410SOL    HW249918   2.487   7.754   8.277
10411SOL     OW49919   4.663   0.966   7.827
10411SOL    HW149920   4.590   1.029   7.801
10411SOL    HW249921   4.682   0.903   7.752
10412SOL     OW49922   6.906   7.521   7.664
10412SOL    HW149923   6.819   7.524   7.614
10412SOL    HW249924   6.896   7.461   7.743
10413SOL     OW49925   6.924   6.413   0.020
10413SOL    HW149926   6.890   6.506   0.010
10413SOL    HW249927   6.851   6.348   8.781
10414SOL     OW49928   3.316   5.539   6.693
10414SOL    HW149929   3.288   5.592   6.613
10414SOL    HW249930   3.267   5.452   6.693
10415SOL     OW49931   8.459   2.493   1.772
10415SOL    HW149932   8.455   2.432   1.852
10415SOL    HW249933   8.368   2.531   1.755
10416SOL     OW49934   3.377   4.371   8.273
10416SOL    HW149935   3.296   4.391   8.218
10416SOL    HW249936   3.447   4.329   8.215
10417SOL     OW49937   6.620   0.304   8.423
10417SOL    HW149938   6.640   0.391   8.468
10417SOL    HW249939   6.700   0.245   8.428
10418SOL     OW49940   9.761   6.870   8.117
10418SOL    HW149941   9.738   6.893   8.023
10418SOL    HW249942   9.824   6.940   8.153
10419SOL     OW49943   6.853   5.736   7.499
10419SOL    HW149944   6.779   5.803   7.505
10419SOL    HW249945   6.833   5.670   7.427
10420SOL     OW49946   8.351   5.570   0.084
10420SOL    HW149947   8.433   5.533   0.127
10420SOL    HW249948   8.366   5.578   8.767
10421SOL     OW49949   4.744   9.070   7.202
10421SOL    HW149950   4.667   9.033   7.253
10421SOL    HW249951   4.716   9.154   7.156
10422SOL     OW49952   3.616   8.058   0.304
10422SOL    HW149953   3.653   7.967   0.284
10422SOL    HW249954   3.610   8.071   0.403
10423SOL     OW49955   2.117   3.599   7.060
10423SOL    HW149956   2.034   3.627   7.109
10423SOL    HW249957   2.179   3.677   7.051
10424SOL     OW49958   1.115   2.821   0.318
10424SOL    HW149959   1.089   2.832   0.413
10424SOL    HW249960   1.134   2.910   0.277
10425SOL     OW49961  10.083   4.250   0.736
10425SOL    HW149962  10.151   4.187   0.772
10425SOL    HW249963  10.063   4.227   0.640
10426SOL     OW49964   7.137   2.560   8.626
10426SOL    HW149965   7.038   2.554   8.616
10426SOL    HW249966   7.180   2.542   8.537
10427SOL     OW49967   1.730   1.156   1.405
10427SOL    HW149968   1.733   1.057   1.419
10427SOL    HW249969   1.753   1.202   1.491
10428SOL     OW49970   7.895   0.477   0.972
10428SOL    HW149971   7.943   0.410   0.916
10428SOL    HW249972   7.934   0.568   0.955
10429SOL     OW49973   4.988   7.767   8.397
10429SOL    HW149974   4.962   7.673   8.376
10429SOL    HW249975   4.936   7.800   8.476
10430SOL     OW49976   3.378   8.517   7.312
10430SOL    HW149977   3.406   8.439   7.256
10430SOL    HW249978   3.448   8.536   7.380
10431SOL     OW49979   8.354   6.389   0.921
10431SOL    HW149980   8.322   6.457   0.855
10431SOL    HW249981   8.400   6.436   0.997
10432SOL     OW49982   5.206   2.487   6.913
10432SOL    HW149983   5.292   2.437   6.921
10432SOL    HW249984   5.188   2.537   6.997
10433SOL     OW49985   5.187   9.584   7.878
10433SOL    HW149986   5.124   9.626   7.813
10433SOL    HW249987   5.150   9.592   7.971
10434SOL     OW49988   2.915   5.137   7.276
10434SOL    HW149989   2.912   5.233   7.249
10434SOL    HW249990   2.891   5.080   7.197
10435SOL     OW49991   9.626   2.331   8.536
10435SOL    HW149992   9.723   2.342   8.516
10435SOL    HW249993   9.572   2.356   8.456
10436SOL     OW49994   7.954   3.854   0.051
10436SOL    HW149995   7.926   3.918   8.761
10436SOL    HW249996   8.016   3.900   0.114
10437SOL     OW49997   3.426   3.422   8.444
10437SOL    HW149998   3.439   3.427   8.543
10437SOL    HW249999   3.390   3.509   8.411
10438SOL     OW50000   5.734   0.194   0.355
10438SOL    HW150001   5.831   0.200   0.329
10438SOL    HW250002   5.712   0.267   0.419
10439SOL     OW50003   8.953   0.105   8.056
10439SOL    HW150004   8.858   0.074   8.061
10439SOL    HW250005   8.956   0.201   8.028
10440SOL     OW50006   7.912   1.959   2.399
10440SOL    HW150007   7.908   2.053   2.432
10440SOL    HW250008   7.893   1.956   2.301
10441SOL     OW50009   6.881   9.905   1.165
10441SOL    HW150010   6.868   9.811   1.196
10441SOL    HW250011   6.883   9.906   1.065
10442SOL     OW50012   2.384   6.200   6.703
10442SOL    HW150013   2.410   6.129   6.638
10442SOL    HW250014   2.387   6.289   6.658
10443SOL     OW50015   7.628   9.375   8.549
10443SOL    HW150016   7.559   9.448   8.553
10443SOL    HW250017   7.594   9.296   8.600
10444SOL     OW50018   3.162   6.381   0.241
10444SOL    HW150019   3.084   6.444   0.247
10444SOL    HW250020   3.246   6.430   0.265
10445SOL     OW50021   9.452   5.514   7.376
10445SOL    HW150022   9.448   5.580   7.300
10445SOL    HW250023   9.543   5.473   7.379
10446SOL     OW50024   7.151   4.703   7.360
10446SOL    HW150025   7.235   4.669   7.404
10446SOL    HW250026   7.162   4.799   7.337
10447SOL     OW50027   4.118   8.300   0.894
10447SOL    HW150028   4.058   8.332   0.821
10447SOL    HW250029   4.140   8.204   0.880
10448SOL     OW50030   4.300   7.251   7.090
10448SOL    HW150031   4.348   7.278   7.006
10448SOL    HW250032   4.269   7.156   7.081
10449SOL     OW50033   1.418   6.289   8.211
10449SOL    HW150034   1.368   6.322   8.290
10449SOL    HW250035   1.502   6.343   8.200
10450SOL     OW50036   2.782   1.783   6.708
10450SOL    HW150037   2.822   1.695   6.736
10450SOL    HW250038   2.834   1.858   6.749
10451SOL     OW50039   6.196   6.836   2.390
10451SOL    HW150040   6.254   6.756   2.373
10451SOL    HW250041   6.250   6.909   2.431
10452SOL     OW50042   2.024   5.264   7.510
10452SOL    HW150043   2.015   5.308   7.421
10452SOL    HW250044   2.027   5.334   7.582
10453SOL     OW50045   4.223   4.633   1.016
10453SOL    HW150046   4.250   4.641   0.921
10453SOL    HW250047   4.292   4.582   1.067
10454SOL     OW50048   9.866   8.949   7.762
10454SOL    HW150049   9.849   8.888   7.840
10454SOL    HW250050   9.955   8.993   7.774
10455SOL     OW50051   9.583   4.404   6.890
10455SOL    HW150052   9.514   4.476   6.903
10455SOL    HW250053   9.579   4.371   6.796
10456SOL     OW50054   0.042   3.557   0.450
10456SOL    HW150055  10.103   3.565   0.422
10456SOL    HW250056   0.073   3.463   0.435
10457SOL     OW50057   6.460   7.934   2.532
10457SOL    HW150058   6.482   8.030   2.553
10457SOL    HW250059   6.486   7.877   2.609
10458SOL     OW50060   5.687   7.169   8.322
10458SOL    HW150061   5.604   7.129   8.283
10458SOL    HW250062   5.685   7.160   8.422
10459SOL     OW50063   8.361   5.725   7.813
10459SOL    HW150064   8.415   5.665   7.874
10459SOL    HW250065   8.415   5.745   7.731
10460SOL     OW50066   8.625  10.076   0.249
10460SOL    HW150067   8.671  10.119   0.327
10460SOL    HW250068   8.687  10.074   0.171
10461SOL     OW50069   7.832   0.223   2.423
10461SOL    HW150070   7.823   0.310   2.470
10461SOL    HW250071   7.862   0.153   2.488
10462SOL     OW50072   5.665   7.181   8.596
10462SOL    HW150073   5.676   7.154   8.692
10462SOL    HW250074   5.597   7.254   8.589
10463SOL     OW50075   8.686   9.801   7.246
10463SOL    HW150076   8.682   9.875   7.314
10463SOL    HW250077   8.776   9.801   7.203
10464SOL     OW50078   8.143   6.967   1.276
10464SOL    HW150079   8.155   6.878   1.231
10464SOL    HW250080   8.086   7.025   1.218
10465SOL     OW50081   6.581   9.381   0.510
10465SOL    HW150082   6.503   9.427   0.551
10465SOL    HW250083   6.559   9.284   0.495
10466SOL     OW50084   1.326   1.352   7.029
10466SOL    HW150085   1.314   1.317   6.937
10466SOL    HW250086   1.306   1.280   7.095
10467SOL     OW50087   1.530  10.052   0.181
10467SOL    HW150088   1.455  10.019   0.238
10467SOL    HW250089   1.597  10.099   0.238
10468SOL     OW50090   2.201   0.180   6.995
10468SOL    HW150091   2.267   0.240   7.041
10468SOL    HW250092   2.220   0.085   7.020
10469SOL     OW50093   9.221   3.656   1.300
10469SOL    HW150094   9.128   3.677   1.332
10469SOL    HW250095   9.236   3.699   1.211
10470SOL     OW50096   7.124   2.303   8.740
10470SOL    HW150097   7.149   2.393   8.705
10470SOL    HW250098   7.027   2.302   8.766
10471SOL     OW50099   1.064   1.468   7.841
10471SOL    HW150100   1.012   1.415   7.773
10471SOL    HW250101   1.157   1.482   7.807
10472SOL     OW50102   5.410   0.830   8.460
10472SOL    HW150103   5.315   0.862   8.469
10472SOL    HW250104   5.421   0.781   8.374
10473SOL     OW50105   9.026   6.265   6.216
10473SOL    HW150106   9.100   6.208   6.179
10473SOL    HW250107   9.047   6.361   6.201
10474SOL     OW50108   6.695   5.342   1.349
10474SOL    HW150109   6.603   5.309   1.329
10474SOL    HW250110   6.755   5.323   1.271
10475SOL     OW50111   3.037   3.395   6.432
10475SOL    HW150112   3.040   3.405   6.532
10475SOL    HW250113   2.948   3.359   6.405
10476SOL     OW50114   5.236   1.084   7.488
10476SOL    HW150115   5.200   1.076   7.581
10476SOL    HW250116   5.236   1.180   7.460
10477SOL     OW50117   7.593   0.189   0.050
10477SOL    HW150118   7.609   0.127   8.755
10477SOL    HW250119   7.629   0.279   0.028
10478SOL     OW50120   0.848   3.164   7.092
10478SOL    HW150121   0.756   3.124   7.088
10478SOL    HW250122   0.844   3.252   7.141
10479SOL     OW50123   0.180   9.626   8.159
10479SOL    HW150124   0.153   9.568   8.083
10479SOL    HW250125   0.276   9.652   8.150
10480SOL     OW50126   6.563   9.375   0.829
10480SOL    HW150127   6.502   9.423   0.766
10480SOL    HW250128   6.651   9.423   0.833
10481SOL     OW50129   4.385   6.423   1.820
10481SOL    HW150130   4.383   6.419   1.720
10481SOL    HW250131   4.384   6.518   1.849
10482SOL     OW50132   0.918   1.998   6.557
10482SOL    HW150133   0.917   2.093   6.528
10482SOL    HW250134   0.984   1.986   6.632
10483SOL     OW50135   2.493   1.702   8.416
10483SOL    HW150136   2.581   1.748   8.422
10483SOL    HW250137   2.458   1.685   8.508
10484SOL     OW50138   9.724   5.218   0.202
10484SOL    HW150139   9.788   5.274   0.150
10484SOL    HW250140   9.740   5.121   0.182
10485SOL     OW50141   3.236   0.935   6.939
10485SOL    HW150142   3.250   1.008   7.005
10485SOL    HW250143   3.266   0.848   6.977
10486SOL     OW50144   2.034   1.102   2.209
10486SOL    HW150145   2.008   1.194   2.180
10486SOL    HW250146   2.124   1.105   2.251
10487SOL     OW50147   6.763   6.280   6.986
10487SOL    HW150148   6.801   6.258   7.076
10487SOL    HW250149   6.782   6.375   6.963
10488SOL     OW50150   3.125   6.616   6.512
10488SOL    HW150151   3.183   6.561   6.572
10488SOL    HW250152   3.175   6.639   6.429
10489SOL     OW50153   6.403   5.750   0.581
10489SOL    HW150154   6.428   5.682   0.650
10489SOL    HW250155   6.357   5.704   0.505
10490SOL     OW50156   7.692   8.077   0.537
10490SOL    HW150157   7.675   8.135   0.458
10490SOL    HW250158   7.683   8.131   0.621
10491SOL     OW50159   4.762   0.356   6.380
10491SOL    HW150160   4.681   0.306   6.410
10491SOL    HW250161   4.792   0.320   6.291
10492SOL     OW50162   4.681   0.044   8.449
10492SOL    HW150163   4.757   0.092   8.405
10492SOL    HW250164   4.628  10.498   8.380
10493SOL     OW50165   2.509   5.456   6.981
10493SOL    HW150166   2.496   5.364   6.944
10493SOL    HW250167   2.462   5.523   6.923
10494SOL     OW50168   9.292   5.334   7.780
10494SOL    HW150169   9.298   5.351   7.879
10494SOL    HW250170   9.319   5.416   7.731
10495SOL     OW50171   9.543   8.167   7.031
10495SOL    HW150172   9.472   8.111   7.073
10495SOL    HW250173   9.504   8.223   6.958
10496SOL     OW50174   9.825   8.817   2.186
10496SOL    HW150175   9.801   8.844   2.279
10496SOL    HW250176   9.742   8.813   2.130
10497SOL     OW50177   9.598   5.641   7.766
10497SOL    HW150178   9.561   5.643   7.859
10497SOL    HW250179   9.587   5.731   7.724
10498SOL     OW50180   8.317   4.492   2.100
10498SOL    HW150181   8.333   4.565   2.167
10498SOL    HW250182   8.246   4.431   2.135
10499SOL     OW50183   2.488   4.371   1.351
10499SOL    HW150184   2.567   4.398   1.297
10499SOL    HW250185   2.491   4.416   1.440
10500SOL     OW50186   0.958   1.930   1.972
10500SOL    HW150187   0.891   1.859   1.994
10500SOL    HW250188   1.044   1.888   1.943
10501SOL     OW50189   2.993   1.246   7.982
10501SOL    HW150190   2.900   1.239   8.017
10501SOL    HW250191   3.005   1.333   7.935
10502SOL     OW50192   2.481   0.142   6.756
10502SOL    HW150193   2.487   0.125   6.658
10502SOL    HW250194   2.558   0.098   6.802
10503SOL     OW50195   3.454   4.856   7.979
10503SOL    HW150196   3.438   4.954   7.969
10503SOL    HW250197   3.458   4.814   7.888
10504SOL     OW50198   2.863   7.547   1.389
10504SOL    HW150199   2.861   7.484   1.466
10504SOL    HW250200   2.782   7.606   1.392
10505SOL     OW50201   2.358   9.852   1.191
10505SOL    HW150202   2.315   9.762   1.185
10505SOL    HW250203   2.322   9.912   1.119
10506SOL     OW50204   5.746  10.394   8.535
10506SOL    HW150205   5.765  10.464   8.467
10506SOL    HW250206   5.658  10.350   8.515
10507SOL     OW50207   7.147   6.682   1.274
10507SOL    HW150208   7.052   6.677   1.304
10507SOL    HW250209   7.172   6.777   1.256
10508SOL     OW50210   4.761   9.721   7.159
10508SOL    HW150211   4.693   9.652   7.134
10508SOL    HW250212   4.839   9.676   7.203
10509SOL     OW50213   3.949   7.831   8.014
10509SOL    HW150214   3.921   7.780   7.933
10509SOL    HW250215   4.044   7.808   8.037
10510SOL     OW50216   0.526  10.315   7.496
10510SOL    HW150217   0.505  10.381   7.424
10510SOL    HW250218   0.599  10.351   7.554
10511SOL     OW50219   6.523   0.172   1.514
10511SOL    HW150220   6.554   0.224   1.594
10511SOL    HW250221   6.507   0.077   1.541
10512SOL     OW50222   1.044   5.710   0.810
10512SOL    HW150223   1.077   5.805   0.805
10512SOL    HW250224   0.948   5.708   0.783
10513SOL     OW50225   4.197   9.054   2.334
10513SOL    HW150226   4.173   8.960   2.312
10513SOL    HW250227   4.262   9.055   2.410
10514SOL     OW50228   6.812   5.409   8.344
10514SOL    HW150229   6.807   5.324   8.292
10514SOL    HW250230   6.864   5.476   8.291
10515SOL     OW50231   7.267   3.335   0.812
10515SOL    HW150232   7.210   3.330   0.894
10515SOL    HW250233   7.208   3.343   0.732
10516SOL     OW50234   2.598   0.712   1.508
10516SOL    HW150235   2.541   0.767   1.447
10516SOL    HW250236   2.617   0.763   1.592
10517SOL     OW50237   0.783   0.104   7.462
10517SOL    HW150238   0.850   0.176   7.484
10517SOL    HW250239   0.823   0.040   7.396
10518SOL     OW50240   1.824   6.142   7.263
10518SOL    HW150241   1.897   6.210   7.249
10518SOL    HW250242   1.754   6.154   7.193
10519SOL     OW50243   7.007   2.502   7.476
10519SOL    HW150244   6.976   2.590   7.440
10519SOL    HW250245   7.099   2.511   7.513
10520SOL     OW50246   2.548   5.358   1.740
10520SOL    HW150247   2.453   5.370   1.767
10520SOL    HW250248   2.590   5.286   1.796
10521SOL     OW50249   0.842   8.518   0.200
10521SOL    HW150250   0.895   8.480   0.275
10521SOL    HW250251   0.756   8.554   0.235
10522SOL     OW50252   0.261   1.677   1.373
10522SOL    HW150253   0.349   1.630   1.380
10522SOL    HW250254   0.192   1.613   1.338
10523SOL     OW50255   6.661   7.561   7.536
10523SOL    HW150256   6.567   7.527   7.533
10523SOL    HW250257   6.664   7.647   7.587
10524SOL     OW50258   8.395   9.289   0.195
10524SOL    HW150259   8.319   9.354   0.193
10524SOL    HW250260   8.388   9.231   0.276
10525SOL     OW50261   6.885   5.249   6.803
10525SOL    HW150262   6.920   5.298   6.724
10525SOL    HW250263   6.845   5.162   6.774
10526SOL     OW50264   6.076   9.500   6.875
10526SOL    HW150265   6.089   9.473   6.779
10526SOL    HW250266   6.120   9.434   6.934
10527SOL     OW50267   9.508   4.427   1.292
10527SOL    HW150268   9.497   4.473   1.204
10527SOL    HW250269   9.563   4.484   1.353
10528SOL     OW50270   4.416   0.809   7.291
10528SOL    HW150271   4.415   0.892   7.235
10528SOL    HW250272   4.488   0.747   7.258
10529SOL     OW50273   1.445   6.926   6.206
10529SOL    HW150274   1.436   6.973   6.118
10529SOL    HW250275   1.540   6.930   6.237
10530SOL     OW50276   1.431   7.674   7.513
10530SOL    HW150277   1.420   7.596   7.452
10530SOL    HW250278   1.528   7.685   7.536
10531SOL     OW50279   4.310   3.962   1.316
10531SOL    HW150280   4.399   3.982   1.358
10531SOL    HW250281   4.238   3.970   1.384
10532SOL     OW50282   8.673   2.484   7.093
10532SOL    HW150283   8.716   2.551   7.034
10532SOL    HW250284   8.658   2.399   7.042
10533SOL     OW50285   1.947   5.136   7.757
10533SOL    HW150286   1.925   5.211   7.820
10533SOL    HW250287   1.949   5.171   7.663
10534SOL     OW50288   4.560   0.055   1.188
10534SOL    HW150289   4.485   0.025   1.247
10534SOL    HW250290   4.581  10.487   1.121
10535SOL     OW50291   0.289   9.803   7.584
10535SOL    HW150292   0.325   9.740   7.515
10535SOL    HW250293   0.323   9.895   7.565
10536SOL     OW50294   6.373   3.441   6.813
10536SOL    HW150295   6.365   3.473   6.719
10536SOL    HW250296   6.282   3.436   6.855
10537SOL     OW50297   3.691   1.095   0.794
10537SOL    HW150298   3.735   1.173   0.750
10537SOL    HW250299   3.691   1.108   0.893
10538SOL     OW50300   9.847   4.271   2.155
10538SOL    HW150301   9.921   4.270   2.223
10538SOL    HW250302   9.759   4.268   2.202
10539SOL     OW50303   3.539   4.461   8.478
10539SOL    HW150304   3.469   4.445   8.408
10539SOL    HW250305   3.534   4.555   8.509
10540SOL     OW50306   8.416   7.723   1.890
10540SOL    HW150307   8.331   7.774   1.901
10540SOL    HW250308   8.465   7.720   1.978
10541SOL     OW50309   6.202   6.249   0.816
10541SOL    HW150310   6.283   6.225   0.762
10541SOL    HW250311   6.230   6.279   0.907
10542SOL     OW50312   5.369   2.408   6.263
10542SOL    HW150313   5.402   2.484   6.320
10542SOL    HW250314   5.447   2.365   6.218
10543SOL     OW50315   3.311   9.701   8.439
10543SOL    HW150316   3.224   9.708   8.390
10543SOL    HW250317   3.305   9.629   8.508
10544SOL     OW50318   5.622   8.962   8.636
10544SOL    HW150319   5.700   8.899   8.636
10544SOL    HW250320   5.655   9.055   8.655
10545SOL     OW50321   2.056   3.294   8.725
10545SOL    HW150322   1.981   3.244   8.767
10545SOL    HW250323   2.051   3.391   8.751
10546SOL     OW50324   4.149   5.095   0.419
10546SOL    HW150325   4.209   5.159   0.370
10546SOL    HW250326   4.088   5.146   0.480
10547SOL     OW50327   9.966   7.980   8.504
10547SOL    HW150328   9.876   7.976   8.547
10547SOL    HW250329  10.035   8.003   8.573
10548SOL     OW50330   7.240   8.665   7.850
10548SOL    HW150331   7.338   8.647   7.856
10548SOL    HW250332   7.216   8.687   7.756
10549SOL     OW50333   7.418   1.152   7.289
10549SOL    HW150334   7.411   1.136   7.191
10549SOL    HW250335   7.343   1.105   7.336
10550SOL     OW50336   6.483   2.175   1.879
10550SOL    HW150337   6.422   2.228   1.938
10550SOL    HW250338   6.515   2.233   1.804
10551SOL     OW50339   8.499   9.956   8.529
10551SOL    HW150340   8.435  10.024   8.495
10551SOL    HW250341   8.541   9.907   8.452
10552SOL     OW50342   0.544   9.057   8.637
10552SOL    HW150343   0.601   8.988   8.594
10552SOL    HW250344   0.481   9.096   8.570
10553SOL     OW50345   1.310   7.193   1.777
10553SOL    HW150346   1.246   7.228   1.708
10553SOL    HW250347   1.334   7.266   1.841
10554SOL     OW50348   3.863   5.450   7.930
10554SOL    HW150349   3.807   5.493   7.859
10554SOL    HW250350   3.814   5.453   8.017
10555SOL     OW50351   9.023   1.351   1.490
10555SOL    HW150352   8.982   1.385   1.575
10555SOL    HW250353   8.997   1.255   1.477
10556SOL     OW50354   4.527   8.001   0.119
10556SOL    HW150355   4.471   8.043   0.191
10556SOL    HW250356   4.494   7.908   0.101
10557SOL     OW50357   4.544   4.654   8.575
10557SOL    HW150358   4.479   4.588   8.537
10557SOL    HW250359   4.621   4.606   8.616
10558SOL     OW50360   4.640   6.386   0.052
10558SOL    HW150361   4.725   6.365   0.004
10558SOL    HW250362   4.573   6.422   8.770
10559SOL     OW50363  10.133   9.683   8.694
10559SOL    HW150364  10.040   9.712   8.715
10559SOL    HW250365   0.001   9.606   8.754
10560SOL     OW50366   6.110   7.151   7.972
10560SOL    HW150367   6.080   7.107   7.887
10560SOL    HW250368   6.036   7.145   8.039
10561SOL     OW50369   9.116   4.815   7.786
10561SOL    HW150370   9.036   4.831   7.844
10561SOL    HW250371   9.148   4.902   7.748
10562SOL     OW50372   9.241   7.969   1.279
10562SOL    HW150373   9.312   7.917   1.327
10562SOL    HW250374   9.265   8.066   1.279
10563SOL     OW50375   6.594   4.057   8.636
10563SOL    HW150376   6.533   4.135   8.622
10563SOL    HW250377   6.631   4.059   8.729
10564SOL     OW50378   3.723   4.691   7.598
10564SOL    HW150379   3.767   4.755   7.661
10564SOL    HW250380   3.669   4.742   7.531
10565SOL     OW50381   7.026   2.190   1.112
10565SOL    HW150382   7.001   2.140   1.195
10565SOL    HW250383   6.943   2.209   1.059
10566SOL     OW50384   8.450   5.318   8.628
10566SOL    HW150385   8.375   5.268   8.585
10566SOL    HW250386   8.434   5.416   8.620
10567SOL     OW50387   6.897   4.412   0.241
10567SOL    HW150388   6.871   4.461   0.157
10567SOL    HW250389   6.980   4.360   0.224
10568SOL     OW50390   0.034  10.398   0.413
10568SOL    HW150391   0.054  10.496   0.403
10568SOL    HW250392   0.097  10.359   0.480
10569SOL     OW50393   8.449   8.133   1.049
10569SOL    HW150394   8.465   8.222   1.093
10569SOL    HW250395   8.535   8.083   1.042
10570SOL     OW50396   4.635   5.253   8.542
10570SOL    HW150397   4.540   5.281   8.555
10570SOL    HW250398   4.655   5.174   8.600
10571SOL     OW50399   0.844   1.366   0.195
10571SOL    HW150400   0.879   1.375   0.289
10571SOL    HW250401   0.881   1.440   0.139
10572SOL     OW50402   5.010   8.438   0.629
10572SOL    HW150403   5.009   8.462   0.532
10572SOL    HW250404   4.952   8.358   0.645
10573SOL     OW50405   7.267   2.075   8.734
10573SOL    HW150406   7.346   2.094   8.676
10573SOL    HW250407   7.211   2.158   8.742
10574SOL     OW50408   9.864   9.745   8.750
10574SOL    HW150409   9.860   9.845   8.739
10574SOL    HW250410   9.811   9.718   0.048
10575SOL     OW50411   1.902  10.346   1.471
10575SOL    HW150412   1.808  10.318   1.453
10575SOL    HW250413   1.965  10.278   1.435
10576SOL     OW50414   5.769   5.821   1.420
10576SOL    HW150415   5.684   5.791   1.462
10576SOL    HW250416   5.822   5.875   1.485
10577SOL     OW50417   2.010   2.610   1.030
10577SOL    HW150418   2.079   2.662   1.080
10577SOL    HW250419   2.003   2.646   0.936
10578SOL     OW50420   6.658   6.690   1.190
10578SOL    HW150421   6.596   6.686   1.268
10578SOL    HW250422   6.648   6.779   1.144
10579SOL     OW50423   7.719   8.283   7.715
10579SOL    HW150424   7.692   8.295   7.620
10579SOL    HW250425   7.797   8.220   7.720
10580SOL     OW50426   9.243   3.008   7.276
10580SOL    HW150427   9.227   2.956   7.193
10580SOL    HW250428   9.270   3.101   7.253
10581SOL     OW50429   3.991   4.238   1.175
10581SOL    HW150430   3.924   4.223   1.248
10581SOL    HW250431   4.015   4.335   1.172
10582SOL     OW50432   9.711   5.594   1.467
10582SOL    HW150433   9.670   5.620   1.380
10582SOL    HW250434   9.672   5.652   1.540
10583SOL     OW50435   8.944   4.424   6.996
10583SOL    HW150436   8.857   4.398   7.038
10583SOL    HW250437   9.014   4.432   7.067
10584SOL     OW50438   8.736   8.655   8.499
10584SOL    HW150439   8.642   8.638   8.471
10584SOL    HW250440   8.737   8.710   8.582
10585SOL     OW50441   1.102   7.912   0.234
10585SOL    HW150442   1.097   8.008   0.261
10585SOL    HW250443   1.137   7.906   0.140
10586SOL     OW50444   4.360   3.444   1.534
10586SOL    HW150445   4.387   3.348   1.525
10586SOL    HW250446   4.399   3.497   1.459
10587SOL     OW50447   1.592  10.386   6.914
10587SOL    HW150448   1.605  10.426   7.004
10587SOL    HW250449   1.537  10.447   6.857
10588SOL     OW50450   9.991   7.101   6.709
10588SOL    HW150451  10.010   7.098   6.807
10588SOL    HW250452   9.900   7.139   6.694
10589SOL     OW50453   1.441   8.522   1.330
10589SOL    HW150454   1.389   8.590   1.382
10589SOL    HW250455   1.393   8.501   1.245
10590SOL     OW50456   5.929   2.719   6.354
10590SOL    HW150457   5.841   2.685   6.320
10590SOL    HW250458   5.928   2.818   6.356
10591SOL     OW50459   8.492   1.947   0.507
10591SOL    HW150460   8.483   1.981   0.601
10591SOL    HW250461   8.498   2.024   0.444
10592SOL     OW50462   7.651   8.815   7.989
10592SOL    HW150463   7.663   8.790   8.085
10592SOL    HW250464   7.739   8.811   7.942
10593SOL     OW50465   3.803   9.116   0.898
10593SOL    HW150466   3.704   9.125   0.906
10593SOL    HW250467   3.846   9.141   0.985
10594SOL     OW50468   5.845   1.960   7.234
10594SOL    HW150469   5.839   2.048   7.280
10594SOL    HW250470   5.942   1.934   7.225
10595SOL     OW50471   3.342   5.074   6.741
10595SOL    HW150472   3.342   5.105   6.836
10595SOL    HW250473   3.435   5.077   6.705
10596SOL     OW50474   0.544   4.678   8.342
10596SOL    HW150475   0.610   4.618   8.387
10596SOL    HW250476   0.455   4.669   8.387
10597SOL     OW50477   6.426   6.714   7.148
10597SOL    HW150478   6.522   6.687   7.158
10597SOL    HW250479   6.374   6.683   7.228
10598SOL     OW50480   6.808   6.544   6.910
10598SOL    HW150481   6.905   6.527   6.893
10598SOL    HW250482   6.776   6.619   6.852
10599SOL     OW50483   5.079  10.036   0.629
10599SOL    HW150484   5.041   9.949   0.599
10599SOL    HW250485   5.123  10.082   0.552
10600SOL     OW50486   3.974   8.022   6.519
10600SOL    HW150487   3.880   8.005   6.489
10600SOL    HW250488   3.979   8.112   6.563
10601SOL     OW50489   1.457   1.052   7.060
10601SOL    HW150490   1.411   1.075   7.145
10601SOL    HW250491   1.390   1.049   6.986
10602SOL     OW50492   1.120   4.791   6.713
10602SOL    HW150493   1.088   4.784   6.807
10602SOL    HW250494   1.211   4.750   6.705
10603SOL     OW50495   3.584   7.171   6.360
10603SOL    HW150496   3.496   7.212   6.334
10603SOL    HW250497   3.616   7.112   6.286
10604SOL     OW50498   8.060  10.417   8.685
10604SOL    HW150499   8.082  10.417   8.588
10604SOL    HW250500   8.122  10.354   8.733
10605SOL     OW50501   5.566   1.864   1.158
10605SOL    HW150502   5.610   1.840   1.072
10605SOL    HW250503   5.606   1.809   1.232
10606SOL     OW50504   6.385   1.639   7.413
10606SOL    HW150505   6.478   1.671   7.394
10606SOL    HW250506   6.387   1.541   7.433
10607SOL     OW50507   9.322   9.058   1.723
10607SOL    HW150508   9.265   9.140   1.710
10607SOL    HW250509   9.359   9.029   1.635
10608SOL     OW50510   8.721   2.305   0.957
10608SOL    HW150511   8.639   2.340   1.002
10608SOL    HW250512   8.702   2.291   0.860
10609SOL     OW50513   6.626   1.905   6.953
10609SOL    HW150514   6.572   1.869   7.029
10609SOL    HW250515   6.620   1.842   6.876
10610SOL     OW50516   1.877   6.721   8.575
10610SOL    HW150517   1.792   6.752   8.618
10610SOL    HW250518   1.865   6.717   8.476
10611SOL     OW50519   1.415   5.566   6.405
10611SOL    HW150520   1.478   5.539   6.477
10611SOL    HW250521   1.438   5.517   6.321
10612SOL     OW50522   8.696   5.264   6.656
10612SOL    HW150523   8.738   5.250   6.746
10612SOL    HW250524   8.759   5.233   6.585
10613SOL     OW50525   1.899   8.530   0.303
10613SOL    HW150526   1.979   8.476   0.332
10613SOL    HW250527   1.868   8.498   0.214
10614SOL     OW50528   7.564   4.416   8.753
10614SOL    HW150529   7.553   4.368   0.057
10614SOL    HW250530   7.485   4.398   8.694
10615SOL     OW50531   5.944   2.911   1.726
10615SOL    HW150532   6.022   2.910   1.664
10615SOL    HW250533   5.860   2.931   1.675
10616SOL     OW50534   9.460   2.473   0.424
10616SOL    HW150535   9.514   2.436   0.500
10616SOL    HW250536   9.370   2.501   0.459
10617SOL     OW50537   3.540  10.055   6.656
10617SOL    HW150538   3.598  10.033   6.735
10617SOL    HW250539   3.570  10.002   6.577
10618SOL     OW50540   7.281   7.943   1.613
10618SOL    HW150541   7.287   7.844   1.599
10618SOL    HW250542   7.186   7.972   1.606
10619SOL     OW50543   3.911  10.075   0.107
10619SOL    HW150544   3.865  10.013   0.171
10619SOL    HW250545   3.991  10.029   0.068
10620SOL     OW50546   8.475   0.807   7.687
10620SOL    HW150547   8.410   0.773   7.619
10620SOL    HW250548   8.477   0.745   7.765
10621SOL     OW50549   8.585   9.025   8.638
10621SOL    HW150550   8.625   9.115   8.619
10621SOL    HW250551   8.503   9.036   8.694
10622SOL     OW50552   6.467   1.410   8.473
10622SOL    HW150553   6.411   1.444   8.549
10622SOL    HW250554   6.553   1.460   8.470
10623SOL     OW50555   5.905   5.957   1.617
10623SOL    HW150556   5.962   6.039   1.626
10623SOL    HW250557   5.940   5.885   1.678
10624SOL     OW50558   5.947   8.838   0.958
10624SOL    HW150559   6.011   8.780   1.009
10624SOL    HW250560   5.862   8.847   1.010
10625SOL     OW50561   0.064   4.488   6.663
10625SOL    HW150562  10.145   4.544   6.695
10625SOL    HW250563   0.146   4.510   6.716
10626SOL     OW50564   2.840   2.522   7.702
10626SOL    HW150565   2.874   2.496   7.792
10626SOL    HW250566   2.771   2.594   7.712
10627SOL     OW50567   3.769   8.483   7.297
10627SOL    HW150568   3.714   8.537   7.360
10627SOL    HW250569   3.740   8.387   7.302
10628SOL     OW50570   7.367   7.546   8.349
10628SOL    HW150571   7.410   7.494   8.275
10628SOL    HW250572   7.357   7.488   8.430
10629SOL     OW50573   1.239   3.756   7.896
10629SOL    HW150574   1.329   3.758   7.853
10629SOL    HW250575   1.244   3.701   7.980
10630SOL     OW50576   3.945   4.322   2.157
10630SOL    HW150577   3.899   4.403   2.193
10630SOL    HW250578   3.924   4.243   2.215
10631SOL     OW50579  10.085   4.812   0.401
10631SOL    HW150580   0.015   4.826   0.448
10631SOL    HW250581  10.070   4.888   0.337
10632SOL     OW50582  10.131   3.525   1.691
10632SOL    HW150583  10.153   3.457   1.621
10632SOL    HW250584   0.034   3.514   1.770
10633SOL     OW50585   1.202   6.845   0.950
10633SOL    HW150586   1.223   6.825   0.855
10633SOL    HW250587   1.148   6.771   0.989
10634SOL     OW50588   2.909   3.033   2.094
10634SOL    HW150589   2.966   3.102   2.050
10634SOL    HW250590   2.968   2.967   2.142
10635SOL     OW50591   5.790   4.648   2.450
10635SOL    HW150592   5.889   4.631   2.455
10635SOL    HW250593   5.767   4.681   2.359
10636SOL     OW50594   5.736   7.429   7.688
10636SOL    HW150595   5.723   7.394   7.595
10636SOL    HW250596   5.832   7.420   7.714
10637SOL     OW50597   2.390   5.678   6.868
10637SOL    HW150598   2.432   5.748   6.926
10637SOL    HW250599   2.294   5.703   6.850
10638SOL     OW50600   9.892   8.615   0.796
10638SOL    HW150601   9.826   8.585   0.727
10638SOL    HW250602   9.843   8.654   0.874
10639SOL     OW50603   5.385   7.511   2.330
10639SOL    HW150604   5.394   7.473   2.422
10639SOL    HW250605   5.457   7.473   2.271
10640SOL     OW50606   2.904   2.144   8.619
10640SOL    HW150607   2.827   2.080   8.611
10640SOL    HW250608   2.912   2.174   8.714
10641SOL     OW50609   7.050   3.762   8.129
10641SOL    HW150610   7.028   3.780   8.033
10641SOL    HW250611   6.966   3.738   8.178
10642SOL     OW50612   6.429   0.511   7.452
10642SOL    HW150613   6.420   0.430   7.394
10642SOL    HW250614   6.396   0.489   7.544
10643SOL     OW50615   5.012   0.228   7.700
10643SOL    HW150616   5.058   0.145   7.732
10643SOL    HW250617   4.916   0.207   7.680
10644SOL     OW50618   4.341   8.471   8.614
10644SOL    HW150619   4.343   8.476   8.714
10644SOL    HW250620   4.435   8.460   8.580
10645SOL     OW50621   3.392   7.662   8.629
10645SOL    HW150622   3.365   7.573   8.592
10645SOL    HW250623   3.417   7.723   8.554
10646SOL     OW50624   0.800  10.432   1.240
10646SOL    HW150625   0.830  10.440   1.145
10646SOL    HW250626   0.868  10.382   1.293
10647SOL     OW50627   4.953   6.490   7.036
10647SOL    HW150628   4.990   6.401   7.011
10647SOL    HW250629   4.854   6.483   7.049
10648SOL     OW50630   8.516   9.898   2.291
10648SOL    HW150631   8.506   9.808   2.335
10648SOL    HW250632   8.520   9.969   2.361
10649SOL     OW50633   3.537   3.571   7.008
10649SOL    HW150634   3.477   3.493   7.027
10649SOL    HW250635   3.484   3.656   7.016
10650SOL     OW50636   2.516   1.437   0.654
10650SOL    HW150637   2.439   1.486   0.694
10650SOL    HW250638   2.512   1.340   0.681
10651SOL     OW50639   1.308   8.205   0.699
10651SOL    HW150640   1.230   8.213   0.761
10651SOL    HW250641   1.373   8.138   0.736
10652SOL     OW50642   1.393   8.314   7.326
10652SOL    HW150643   1.325   8.250   7.362
10652SOL    HW250644   1.477   8.265   7.304
10653SOL     OW50645   0.080   6.653   0.098
10653SOL    HW150646   0.117   6.584   0.036
10653SOL    HW250647   0.015   6.711   0.048
10654SOL     OW50648   2.063   0.275   7.789
10654SOL    HW150649   2.078   0.311   7.697
10654SOL    HW250650   1.996   0.332   7.837
10655SOL     OW50651   9.522   6.741   1.628
10655SOL    HW150652   9.455   6.758   1.701
10655SOL    HW250653   9.574   6.659   1.649
10656SOL     OW50654   7.651   8.930   1.317
10656SOL    HW150655   7.554   8.931   1.343
10656SOL    HW250656   7.707   8.943   1.399
10657SOL     OW50657   5.127   8.122   7.936
10657SOL    HW150658   5.189   8.057   7.980
10657SOL    HW250659   5.166   8.214   7.941
10658SOL     OW50660   9.496   7.816   6.699
10658SOL    HW150661   9.439   7.898   6.690
10658SOL    HW250662   9.579   7.826   6.646
10659SOL     OW50663   2.700   0.459   7.341
10659SOL    HW150664   2.655   0.389   7.286
10659SOL    HW250665   2.799   0.445   7.338
10660SOL     OW50666   0.738   9.639   1.976
10660SOL    HW150667   0.639   9.626   1.981
10660SOL    HW250668   0.773   9.670   2.065
10661SOL     OW50669   5.536   1.155   7.861
10661SOL    HW150670   5.571   1.088   7.927
10661SOL    HW250671   5.440   1.174   7.880
10662SOL     OW50672   5.150   3.761   7.285
10662SOL    HW150673   5.063   3.802   7.314
10662SOL    HW250674   5.222   3.788   7.349
10663SOL     OW50675   8.602   1.806   7.315
10663SOL    HW150676   8.645   1.818   7.404
10663SOL    HW250677   8.557   1.891   7.288
10664SOL     OW50678   9.380   3.259   8.183
10664SOL    HW150679   9.386   3.200   8.103
10664SOL    HW250680   9.439   3.225   8.255
10665SOL     OW50681   5.790   0.198   8.103
10665SOL    HW150682   5.882   0.208   8.064
10665SOL    HW250683   5.754   0.288   8.127
10666SOL     OW50684   2.155   4.626   1.403
10666SOL    HW150685   2.065   4.634   1.360
10666SOL    HW250686   2.180   4.530   1.410
10667SOL     OW50687   6.448   4.299   8.591
10667SOL    HW150688   6.417   4.362   8.663
10667SOL    HW250689   6.434   4.341   8.502
10668SOL     OW50690   3.303   8.695   0.399
10668SOL    HW150691   3.353   8.782   0.405
10668SOL    HW250692   3.222   8.698   0.457
10669SOL     OW50693   7.278   6.320   6.354
10669SOL    HW150694   7.211   6.377   6.306
10669SOL    HW250695   7.367   6.365   6.352
10670SOL     OW50696   5.247   0.142   1.962
10670SOL    HW150697   5.271   0.045   1.957
10670SOL    HW250698   5.278   0.179   2.049
10671SOL     OW50699   4.154   3.984   6.168
10671SOL    HW150700   4.120   3.989   6.261
10671SOL    HW250701   4.245   3.942   6.168
10672SOL     OW50702   5.781   6.858   0.853
10672SOL    HW150703   5.838   6.778   0.872
10672SOL    HW250704   5.767   6.866   0.755
10673SOL     OW50705   0.209   3.079   1.479
10673SOL    HW150706   0.225   3.071   1.380
10673SOL    HW250707   0.152   3.003   1.510
10674SOL     OW50708   8.055   7.335   6.803
10674SOL    HW150709   8.050   7.395   6.723
10674SOL    HW250710   8.053   7.240   6.774
10675SOL     OW50711   8.774  10.167   0.473
10675SOL    HW150712   8.747  10.082   0.519
10675SOL    HW250713   8.872  10.182   0.487
10676SOL     OW50714   9.455   8.357   1.989
10676SOL    HW150715   9.376   8.338   2.047
10676SOL    HW250716   9.504   8.436   2.024
10677SOL     OW50717   8.396   7.510   8.765
10677SOL    HW150718   8.323   7.573   0.009
10677SOL    HW250719   8.383   7.422   0.030
10678SOL     OW50720   3.611   7.542   8.142
10678SOL    HW150721   3.590   7.511   8.234
10678SOL    HW250722   3.648   7.635   8.146
10679SOL     OW50723   2.361   7.470   0.337
10679SOL    HW150724   2.354   7.452   0.435
10679SOL    HW250725   2.270   7.488   0.300
10680SOL     OW50726   9.145   3.711   7.654
10680SOL    HW150727   9.177   3.766   7.577
10680SOL    HW250728   9.223   3.664   7.695
10681SOL     OW50729   3.726   6.442   7.841
10681SOL    HW150730   3.785   6.501   7.786
10681SOL    HW250731   3.664   6.392   7.781
10682SOL     OW50732   8.925   7.648   1.668
10682SOL    HW150733   8.932   7.744   1.643
10682SOL    HW250734   8.943   7.637   1.766
10683SOL     OW50735   8.619   1.345   7.357
10683SOL    HW150736   8.662   1.431   7.328
10683SOL    HW250737   8.690   1.282   7.388
10684SOL     OW50738   3.246   3.241   8.639
10684SOL    HW150739   3.310   3.313   8.668
10684SOL    HW250740   3.263   3.218   8.544
10685SOL     OW50741   0.682   3.910   7.196
10685SOL    HW150742   0.772   3.871   7.175
10685SOL    HW250743   0.657   3.888   7.290
10686SOL     OW50744   1.980   5.869   0.790
10686SOL    HW150745   1.982   5.898   0.886
10686SOL    HW250746   1.902   5.809   0.775
10687SOL     OW50747   2.122   2.806   1.664
10687SOL    HW150748   2.211   2.759   1.662
10687SOL    HW250749   2.120   2.876   1.592
10688SOL     OW50750   3.301   0.354   8.210
10688SOL    HW150751   3.306   0.390   8.303
10688SOL    HW250752   3.236   0.278   8.208
10689SOL     OW50753   8.499   9.645   0.845
10689SOL    HW150754   8.522   9.676   0.938
10689SOL    HW250755   8.463   9.722   0.792
10690SOL     OW50756   7.515   4.483   8.242
10690SOL    HW150757   7.468   4.445   8.162
10690SOL    HW250758   7.545   4.409   8.302
10691SOL     OW50759   7.982   7.695   7.155
10691SOL    HW150760   7.883   7.696   7.170
10691SOL    HW250761   8.029   7.725   7.238
10692SOL     OW50762   6.803   2.878   8.343
10692SOL    HW150763   6.809   2.976   8.324
10692SOL    HW250764   6.722   2.840   8.298
10693SOL     OW50765   3.694   1.325   1.727
10693SOL    HW150766   3.723   1.242   1.774
10693SOL    HW250767   3.605   1.355   1.763
10694SOL     OW50768   7.697   5.093   6.700
10694SOL    HW150769   7.722   5.102   6.604
10694SOL    HW250770   7.779   5.077   6.755
10695SOL     OW50771   8.231   3.441   0.382
10695SOL    HW150772   8.181   3.372   0.434
10695SOL    HW250773   8.302   3.481   0.440
10696SOL     OW50774   5.966   8.684   8.033
10696SOL    HW150775   5.870   8.674   8.060
10696SOL    HW250776   5.982   8.633   7.948
10697SOL     OW50777  10.135   6.401   6.412
10697SOL    HW150778   0.043   6.463   6.455
10697SOL    HW250779  10.130   6.422   6.314
10698SOL     OW50780   4.413   8.328   7.016
10698SOL    HW150781   4.390   8.398   7.084
10698SOL    HW250782   4.376   8.355   6.927
10699SOL     OW50783   7.771   7.537   6.649
10699SOL    HW150784   7.724   7.467   6.595
10699SOL    HW250785   7.705   7.608   6.675
10700SOL     OW50786   3.974  10.158   7.066
10700SOL    HW150787   4.037  10.212   7.121
10700SOL    HW250788   3.931  10.217   6.997
10701SOL     OW50789   2.366   1.686   7.377
10701SOL    HW150790   2.330   1.593   7.387
10701SOL    HW250791   2.378   1.706   7.279
10702SOL     OW50792   7.425   5.870   0.354
10702SOL    HW150793   7.493   5.918   0.409
10702SOL    HW250794   7.468   5.794   0.307
10703SOL     OW50795   2.704   3.908   8.057
10703SOL    HW150796   2.689   3.810   8.044
10703SOL    HW250797   2.667   3.936   8.146
10704SOL     OW50798   4.988   5.308   1.408
10704SOL    HW150799   4.972   5.388   1.465
10704SOL    HW250800   4.914   5.298   1.342
10705SOL     OW50801   2.528   2.781   2.068
10705SOL    HW150802   2.447   2.823   2.027
10705SOL    HW250803   2.505   2.744   2.158
10706SOL     OW50804   1.455   5.535   7.585
10706SOL    HW150805   1.532   5.576   7.634
10706SOL    HW250806   1.458   5.564   7.489
10707SOL     OW50807   4.225   2.696   1.793
10707SOL    HW150808   4.293   2.647   1.847
10707SOL    HW250809   4.183   2.768   1.848
10708SOL     OW50810   6.507   8.945   8.514
10708SOL    HW150811   6.419   8.929   8.470
10708SOL    HW250812   6.579   8.900   8.460
10709SOL     OW50813   9.941   0.738   0.960
10709SOL    HW150814   9.996   0.664   0.999
10709SOL    HW250815   9.950   0.736   0.860
10710SOL     OW50816   3.841   7.633   1.777
10710SOL    HW150817   3.918   7.681   1.820
10710SOL    HW250818   3.776   7.604   1.848
10711SOL     OW50819   2.931   2.585   1.116
10711SOL    HW150820   2.980   2.506   1.079
10711SOL    HW250821   2.905   2.566   1.211
10712SOL     OW50822   7.022   0.887   8.681
10712SOL    HW150823   7.111   0.902   8.636
10712SOL    HW250824   6.970   0.973   8.681
10713SOL     OW50825   9.314   9.456   7.589
10713SOL    HW150826   9.344   9.525   7.654
10713SOL    HW250827   9.254   9.498   7.520
10714SOL     OW50828   9.247  10.024   1.579
10714SOL    HW150829   9.213  10.017   1.485
10714SOL    HW250830   9.177   9.991   1.642
10715SOL     OW50831   8.413   8.672   6.902
10715SOL    HW150832   8.473   8.689   6.823
10715SOL    HW250833   8.331   8.727   6.894
10716SOL     OW50834   2.993   1.490   7.852
10716SOL    HW150835   3.046   1.558   7.902
10716SOL    HW250836   2.898   1.518   7.846
10717SOL     OW50837   9.314   8.263   8.472
10717SOL    HW150838   9.233   8.272   8.414
10717SOL    HW250839   9.293   8.299   8.563
10718SOL     OW50840   8.554   4.747   8.004
10718SOL    HW150841   8.571   4.806   7.924
10718SOL    HW250842   8.487   4.791   8.064
10719SOL     OW50843   7.428   5.934   6.414
10719SOL    HW150844   7.430   5.835   6.404
10719SOL    HW250845   7.353   5.971   6.360
10720SOL     OW50846   2.657   2.695   1.433
10720SOL    HW150847   2.654   2.604   1.476
10720SOL    HW250848   2.570   2.713   1.388
10721SOL     OW50849   9.676   6.520   1.694
10721SOL    HW150850   9.741   6.506   1.769
10721SOL    HW250851   9.613   6.442   1.690
10722SOL     OW50852   2.108   4.069   1.965
10722SOL    HW150853   2.129   4.025   2.053
10722SOL    HW250854   2.192   4.076   1.911
10723SOL     OW50855   3.423   9.926   8.554
10723SOL    HW150856   3.362   9.989   8.601
10723SOL    HW250857   3.370   9.850   8.515
10724SOL     OW50858   5.616   3.589   1.722
10724SOL    HW150859   5.560   3.594   1.638
10724SOL    HW250860   5.580   3.516   1.781
10725SOL     OW50861   0.311   7.001   8.767
10725SOL    HW150862   0.269   7.086   8.734
10725SOL    HW250863   0.289   6.927   8.704
10726SOL     OW50864   0.869   6.695   7.587
10726SOL    HW150865   0.943   6.719   7.524
10726SOL    HW250866   0.858   6.767   7.656
10727SOL     OW50867   1.420   4.760   1.066
10727SOL    HW150868   1.347   4.705   1.026
10727SOL    HW250869   1.490   4.777   0.997
10728SOL     OW50870   7.256   2.965   7.605
10728SOL    HW150871   7.238   2.994   7.511
10728SOL    HW250872   7.347   2.924   7.611
10729SOL     OW50873   8.108  10.051   8.620
10729SOL    HW150874   8.160  10.118   8.671
10729SOL    HW250875   8.142   9.959   8.641
10730SOL     OW50876   1.662  10.441   1.020
10730SOL    HW150877   1.609  10.493   1.088
10730SOL    HW250878   1.752  10.419   1.058
10731SOL     OW50879   7.413   4.127   1.788
10731SOL    HW150880   7.376   4.049   1.738
10731SOL    HW250881   7.342   4.168   1.844
10732SOL     OW50882   5.608   9.845   8.597
10732SOL    HW150883   5.544   9.920   8.609
10732SOL    HW250884   5.683   9.874   8.538
10733SOL     OW50885   2.395   7.448   1.204
10733SOL    HW150886   2.351   7.386   1.268
10733SOL    HW250887   2.393   7.541   1.240
10734SOL     OW50888   3.119   0.804   0.125
10734SOL    HW150889   3.043   0.862   0.157
10734SOL    HW250890   3.205   0.853   0.137
10735SOL     OW50891   1.896   7.940   1.966
10735SOL    HW150892   1.961   7.873   1.931
10735SOL    HW250893   1.826   7.893   2.021
10736SOL     OW50894   8.573   5.048   1.507
10736SOL    HW150895   8.599   4.951   1.512
10736SOL    HW250896   8.474   5.056   1.506
10737SOL     OW50897   4.862   9.830   1.163
10737SOL    HW150898   4.849   9.908   1.102
10737SOL    HW250899   4.788   9.764   1.150
10738SOL     OW50900   2.631   0.310   8.277
10738SOL    HW150901   2.590   0.399   8.296
10738SOL    HW250902   2.662   0.307   8.181
10739SOL     OW50903   5.017   6.844   0.411
10739SOL    HW150904   4.992   6.748   0.399
10739SOL    HW250905   5.106   6.850   0.456
10740SOL     OW50906   7.452   0.522   7.306
10740SOL    HW150907   7.378   0.584   7.329
10740SOL    HW250908   7.449   0.501   7.208
10741SOL     OW50909   3.162   9.512   6.870
10741SOL    HW150910   3.107   9.468   6.800
10741SOL    HW250911   3.227   9.575   6.827
10742SOL     OW50912   7.398   3.108   6.592
10742SOL    HW150913   7.356   3.179   6.649
10742SOL    HW250914   7.412   3.144   6.500
10743SOL     OW50915   0.895   7.937   1.315
10743SOL    HW150916   0.903   7.875   1.393
10743SOL    HW250917   0.885   7.884   1.231
10744SOL     OW50918   0.343   2.852   7.154
10744SOL    HW150919   0.331   2.883   7.249
10744SOL    HW250920   0.336   2.931   7.093
10745SOL     OW50921   3.870  10.312   6.865
10745SOL    HW150922   3.910  10.403   6.877
10745SOL    HW250923   3.791  10.318   6.805
10746SOL     OW50924   0.951   4.426   6.992
10746SOL    HW150925   1.047   4.416   7.019
10746SOL    HW250926   0.893   4.422   7.074
10747SOL     OW50927   7.633   8.799   1.616
10747SOL    HW150928   7.682   8.882   1.589
10747SOL    HW250929   7.661   8.772   1.708
10748SOL     OW50930   5.154   0.521   6.727
10748SOL    HW150931   5.129   0.502   6.631
10748SOL    HW250932   5.199   0.441   6.765
10749SOL     OW50933   3.823   1.907   0.572
10749SOL    HW150934   3.833   1.993   0.622
10749SOL    HW250935   3.909   1.857   0.574
10750SOL     OW50936   6.017   9.261   7.884
10750SOL    HW150937   5.993   9.191   7.951
10750SOL    HW250938   6.068   9.334   7.929
10751SOL     OW50939   9.030   4.654   0.094
10751SOL    HW150940   9.026   4.612   0.004
10751SOL    HW250941   8.968   4.607   0.156
10752SOL     OW50942   4.913   4.806   8.387
10752SOL    HW150943   4.834   4.842   8.437
10752SOL    HW250944   4.995   4.814   8.444
10753SOL     OW50945   5.926   2.687   8.683
10753SOL    HW150946   5.951   2.783   8.699
10753SOL    HW250947   5.964   2.657   8.595
10754SOL     OW50948   3.367   7.689   7.079
10754SOL    HW150949   3.422   7.672   7.161
10754SOL    HW250950   3.302   7.615   7.067
10755SOL     OW50951   7.102   6.471   0.221
10755SOL    HW150952   7.032   6.444   0.155
10755SOL    HW250953   7.180   6.409   0.214
10756SOL     OW50954   1.723  10.333   8.738
10756SOL    HW150955   1.760  10.426   8.743
10756SOL    HW250956   1.795  10.268   8.763
10757SOL     OW50957   9.180   5.558   1.129
10757SOL    HW150958   9.204   5.655   1.140
10757SOL    HW250959   9.153   5.521   1.217
10758SOL     OW50960   0.695   1.666   7.705
10758SOL    HW150961   0.626   1.669   7.632
10758SOL    HW250962   0.786   1.673   7.664
10759SOL     OW50963   1.522   5.758   8.144
10759SOL    HW150964   1.427   5.787   8.130
10759SOL    HW250965   1.524   5.662   8.172
10760SOL     OW50966   3.742   4.061   7.172
10760SOL    HW150967   3.790   3.974   7.176
10760SOL    HW250968   3.726   4.095   7.265
10761SOL     OW50969   9.278   5.100   1.488
10761SOL    HW150970   9.240   5.056   1.406
10761SOL    HW250971   9.332   5.034   1.539
10762SOL     OW50972   7.948   6.369   7.419
10762SOL    HW150973   7.948   6.308   7.499
10762SOL    HW250974   7.950   6.314   7.336
10763SOL     OW50975   7.274   8.538   0.817
10763SOL    HW150976   7.355   8.558   0.761
10763SOL    HW250977   7.219   8.467   0.773
10764SOL     OW50978   8.786   1.728   0.800
10764SOL    HW150979   8.697   1.764   0.829
10764SOL    HW250980   8.859   1.771   0.854
10765SOL     OW50981   5.587   8.095   8.393
10765SOL    HW150982   5.488   8.104   8.400
10765SOL    HW250983   5.619   8.145   8.313
10766SOL     OW50984   2.889   6.110   1.075
10766SOL    HW150985   2.836   6.145   0.998
10766SOL    HW250986   2.855   6.019   1.101
10767SOL     OW50987   7.468   2.600   8.478
10767SOL    HW150988   7.498   2.538   8.551
10767SOL    HW250989   7.384   2.564   8.436
10768SOL     OW50990   0.973   0.679   1.664
10768SOL    HW150991   1.067   0.666   1.695
10768SOL    HW250992   0.971   0.746   1.589
10769SOL     OW50993   9.426   8.125   8.089
10769SOL    HW150994   9.342   8.082   8.057
10769SOL    HW250995   9.478   8.059   8.144
10770SOL     OW50996   2.022   9.116   7.077
10770SOL    HW150997   2.092   9.187   7.082
10770SOL    HW250998   1.936   9.151   7.114
10771SOL     OW50999   9.676   5.455   8.287
10771SOL    HW151000   9.718   5.510   8.359
10771SOL    HW251001   9.732   5.460   8.204
10772SOL     OW51002   2.828   0.334   7.038
10772SOL    HW151003   2.789   0.416   6.997
10772SOL    HW251004   2.892   0.292   6.974
10773SOL     OW51005   6.187   0.825   1.405
10773SOL    HW151006   6.274   0.782   1.384
10773SOL    HW251007   6.202   0.914   1.447
10774SOL     OW51008   7.111   7.264   8.590
10774SOL    HW151009   7.104   7.196   8.663
10774SOL    HW251010   7.030   7.258   8.531
10775SOL     OW51011   9.548   5.679   1.257
10775SOL    HW151012   9.501   5.594   1.232
10775SOL    HW251013   9.487   5.735   1.313
10776SOL     OW51014   2.085   3.586   6.414
10776SOL    HW151015   2.012   3.578   6.347
10776SOL    HW251016   2.046   3.615   6.502
10777SOL     OW51017   6.119   4.153   0.703
10777SOL    HW151018   6.109   4.086   0.630
10777SOL    HW251019   6.065   4.234   0.682
10778SOL     OW51020   7.397   7.269   0.301
10778SOL    HW151021   7.414   7.307   0.210
10778SOL    HW251022   7.447   7.323   0.369
10779SOL     OW51023   2.908   1.999   8.169
10779SOL    HW151024   2.891   1.922   8.107
10779SOL    HW251025   2.824   2.021   8.218
10780SOL     OW51026   2.308   3.079   1.748
10780SOL    HW151027   2.257   3.159   1.714
10780SOL    HW251028   2.348   3.030   1.671
10781SOL     OW51029   8.696   7.066   1.343
10781SOL    HW151030   8.604   7.030   1.329
10781SOL    HW251031   8.694   7.135   1.415
10782SOL     OW51032   8.963  10.194   8.536
10782SOL    HW151033   8.921  10.175   8.625
10782SOL    HW251034   8.891  10.216   8.469
10783SOL     OW51035   2.126   1.080   6.602
10783SOL    HW151036   2.043   1.111   6.555
10783SOL    HW251037   2.162   0.999   6.556
10784SOL     OW51038   6.608   4.395   7.892
10784SOL    HW151039   6.628   4.462   7.964
10784SOL    HW251040   6.676   4.404   7.819
10785SOL     OW51041   4.017   5.690   0.722
10785SOL    HW151042   4.102   5.640   0.734
10785SOL    HW251043   3.941   5.625   0.714
10786SOL     OW51044   2.422   2.447   0.163
10786SOL    HW151045   2.495   2.417   0.102
10786SOL    HW251046   2.346   2.382   0.159
10787SOL     OW51047   6.909   5.996   1.761
10787SOL    HW151048   6.938   6.083   1.800
10787SOL    HW251049   6.934   5.921   1.822
10788SOL     OW51050   4.460   6.230   1.077
10788SOL    HW151051   4.449   6.291   0.998
10788SOL    HW251052   4.537   6.168   1.061
10789SOL     OW51053   1.641   5.578   8.666
10789SOL    HW151054   1.595   5.610   8.749
10789SOL    HW251055   1.690   5.654   8.624
10790SOL     OW51056   5.187   1.343   7.331
10790SOL    HW151057   5.196   1.379   7.238
10790SOL    HW251058   5.097   1.302   7.343
10791SOL     OW51059   6.714   2.182   8.488
10791SOL    HW151060   6.648   2.217   8.555
10791SOL    HW251061   6.769   2.109   8.530
10792SOL     OW51062   4.786   4.813   0.820
10792SOL    HW151063   4.867   4.869   0.838
10792SOL    HW251064   4.768   4.811   0.722
10793SOL     OW51065   9.743   5.782   0.767
10793SOL    HW151066   9.676   5.737   0.709
10793SOL    HW251067   9.720   5.769   0.863
10794SOL     OW51068   2.679   2.429   1.539
10794SOL    HW151069   2.686   2.434   1.639
10794SOL    HW251070   2.634   2.343   1.513
10795SOL     OW51071   5.989   8.134   8.431
10795SOL    HW151072   5.963   8.091   8.344
10795SOL    HW251073   6.011   8.063   8.498
10796SOL     OW51074   7.882   4.217   7.474
10796SOL    HW151075   7.917   4.199   7.566
10796SOL    HW251076   7.823   4.142   7.445
10797SOL     OW51077   0.804   2.128   6.830
10797SOL    HW151078   0.899   2.102   6.812
10797SOL    HW251079   0.746   2.096   6.755
10798SOL     OW51080   0.093   9.345   0.601
10798SOL    HW151081   0.127   9.439   0.601
10798SOL    HW251082   0.052   9.325   0.512
10799SOL     OW51083   8.872   4.398   7.767
10799SOL    HW151084   8.898   4.488   7.732
10799SOL    HW251085   8.911   4.386   7.859
10800SOL     OW51086   9.649   8.231   7.279
10800SOL    HW151087   9.613   8.209   7.188
10800SOL    HW251088   9.584   8.201   7.349
10801SOL     OW51089   3.216   5.341   6.380
10801SOL    HW151090   3.147   5.349   6.308
10801SOL    HW251091   3.297   5.393   6.355
10802SOL     OW51092   7.775   2.073   6.707
10802SOL    HW151093   7.740   2.160   6.672
10802SOL    HW251094   7.869   2.059   6.676
10803SOL     OW51095   3.511   9.186   1.724
10803SOL    HW151096   3.462   9.266   1.756
10803SOL    HW251097   3.604   9.186   1.760
10804SOL     OW51098   4.955   9.359   2.153
10804SOL    HW151099   4.899   9.372   2.236
10804SOL    HW251100   5.031   9.297   2.174
10805SOL     OW51101   4.183  10.310   5.949
10805SOL    HW151102   4.113  10.365   5.994
10805SOL    HW251103   4.141  10.247   5.884
10806SOL     OW51104   6.379   0.706   0.069
10806SOL    HW151105   6.372   0.777   0.139
10806SOL    HW251106   6.472   0.704   0.032
10807SOL     OW51107   5.716   9.489   0.908
10807SOL    HW151108   5.790   9.555   0.897
10807SOL    HW251109   5.699   9.475   1.005
10808SOL     OW51110   8.054   0.088   0.931
10808SOL    HW151111   8.037   0.164   0.868
10808SOL    HW251112   8.055   0.121   1.025
10809SOL     OW51113   3.736   1.572   0.667
10809SOL    HW151114   3.765   1.620   0.750
10809SOL    HW251115   3.797   1.596   0.592
10810SOL     OW51116   9.101   6.883   6.335
10810SOL    HW151117   9.070   6.977   6.325
10810SOL    HW251118   9.131   6.847   6.247
10811SOL     OW51119   7.969   1.216   8.592
10811SOL    HW151120   8.008   1.180   8.507
10811SOL    HW251121   7.882   1.261   8.573
10812SOL     OW51122   8.135   0.056   7.316
10812SOL    HW151123   8.092   0.032   7.229
10812SOL    HW251124   8.148  10.476   7.370
10813SOL     OW51125   7.862  10.095   0.475
10813SOL    HW151126   7.899  10.185   0.455
10813SOL    HW251127   7.937  10.029   0.485
10814SOL     OW51128   0.414  10.401   8.347
10814SOL    HW151129   0.472  10.415   8.427
10814SOL    HW251130   0.368  10.486   8.323
10815SOL     OW51131   2.144   2.059   0.352
10815SOL    HW151132   2.176   2.004   0.429
10815SOL    HW251133   2.046   2.047   0.340
10816SOL     OW51134   0.719   4.515   0.017
10816SOL    HW151135   0.734   4.515   0.116
10816SOL    HW251136   0.732   4.422   8.763
10817SOL     OW51137   6.963   7.812   1.423
10817SOL    HW151138   6.899   7.736   1.434
10817SOL    HW251139   7.038   7.784   1.364
10818SOL     OW51140   2.362   5.746   0.159
10818SOL    HW151141   2.318   5.836   0.167
10818SOL    HW251142   2.346   5.694   0.243
10819SOL     OW51143   9.666   0.595   8.595
10819SOL    HW151144   9.603   0.538   8.648
10819SOL    HW251145   9.628   0.687   8.586
10820SOL     OW51146   0.169   1.261   1.118
10820SOL    HW151147   0.143   1.303   1.031
10820SOL    HW251148   0.139   1.165   1.118
10821SOL     OW51149   5.149   5.667   8.566
10821SOL    HW151150   5.134   5.653   8.664
10821SOL    HW251151   5.212   5.742   8.552
10822SOL     OW51152   6.627   5.693   7.187
10822SOL    HW151153   6.705   5.640   7.222
10822SOL    HW251154   6.580   5.737   7.263
10823SOL     OW51155   7.539   2.060   1.769
10823SOL    HW151156   7.498   2.045   1.679
10823SOL    HW251157   7.629   2.101   1.759
10824SOL     OW51158   6.756   6.835   2.052
10824SOL    HW151159   6.823   6.909   2.046
10824SOL    HW251160   6.772   6.783   2.136
10825SOL     OW51161   3.609   4.468   0.043
10825SOL    HW151162   3.526   4.509   0.007
10825SOL    HW251163   3.639   4.395   8.763
10826SOL     OW51164   0.545   7.998   1.417
10826SOL    HW151165   0.553   8.031   1.511
10826SOL    HW251166   0.587   7.908   1.409
10827SOL     OW51167   0.105   3.098   0.973
10827SOL    HW151168   0.064   3.183   0.937
10827SOL    HW251169   0.188   3.077   0.921
10828SOL     OW51170   4.767   3.391   1.342
10828SOL    HW151171   4.743   3.479   1.382
10828SOL    HW251172   4.706   3.371   1.266
10829SOL     OW51173   6.291   2.034   6.155
10829SOL    HW151174   6.263   2.089   6.234
10829SOL    HW251175   6.212   1.989   6.116
10830SOL     OW51176   7.893   4.414   2.107
10830SOL    HW151177   7.820   4.353   2.138
10830SOL    HW251178   7.981   4.379   2.138
10831SOL     OW51179   1.359   1.747   1.687
10831SOL    HW151180   1.337   1.652   1.663
10831SOL    HW251181   1.428   1.782   1.623
10832SOL     OW51182  10.019   4.050   1.146
10832SOL    HW151183   9.979   4.001   1.223
10832SOL    HW251184  10.103   4.095   1.176
10833SOL     OW51185   9.435   4.932   1.633
10833SOL    HW151186   9.404   4.875   1.709
10833SOL    HW251187   9.519   4.892   1.594
10834SOL     OW51188   4.907   0.268   8.058
10834SOL    HW151189   4.920   0.176   8.022
10834SOL    HW251190   4.838   0.316   8.003
10835SOL     OW51191   9.031   7.575   7.414
10835SOL    HW151192   8.991   7.531   7.333
10835SOL    HW251193   9.018   7.517   7.494
10836SOL     OW51194   0.366   7.445   8.692
10836SOL    HW151195   0.318   7.533   8.692
10836SOL    HW251196   0.375   7.411   0.003
10837SOL     OW51197   3.414   5.654   8.106
10837SOL    HW151198   3.365   5.741   8.113
10837SOL    HW251199   3.507   5.665   8.142
10838SOL     OW51200   4.597   5.075   7.600
10838SOL    HW151201   4.527   5.136   7.564
10838SOL    HW251202   4.591   4.986   7.555
10839SOL     OW51203   4.571  10.434   1.517
10839SOL    HW151204   4.652  10.492   1.522
10839SOL    HW251205   4.523  10.435   1.605
10840SOL     OW51206   0.753   4.543   0.288
10840SOL    HW151207   0.728   4.489   0.368
10840SOL    HW251208   0.731   4.639   0.304
10841SOL     OW51209   8.688   3.286   1.488
10841SOL    HW151210   8.672   3.194   1.523
10841SOL    HW251211   8.765   3.285   1.423
10842SOL     OW51212   5.615   7.372   0.835
10842SOL    HW151213   5.569   7.330   0.757
10842SOL    HW251214   5.652   7.300   0.894
10843SOL     OW51215   4.394   5.143   7.009
10843SOL    HW151216   4.402   5.189   6.920
10843SOL    HW251217   4.485   5.118   7.042
10844SOL     OW51218   7.458   3.302   7.908
10844SOL    HW151219   7.434   3.332   8.000
10844SOL    HW251220   7.394   3.231   7.878
10845SOL     OW51221   9.579   1.284   0.303
10845SOL    HW151222   9.541   1.251   0.390
10845SOL    HW251223   9.530   1.366   0.275
10846SOL     OW51224   9.720   0.505   7.585
10846SOL    HW151225   9.718   0.488   7.486
10846SOL    HW251226   9.634   0.545   7.614
10847SOL     OW51227   6.196   4.743   0.593
10847SOL    HW151228   6.198   4.700   0.503
10847SOL    HW251229   6.102   4.748   0.626
10848SOL     OW51230   0.701   0.582   1.042
10848SOL    HW151231   0.665   0.613   0.954
10848SOL    HW251232   0.654   0.630   1.116
10849SOL     OW51233   0.899   3.917   8.390
10849SOL    HW151234   0.887   3.904   8.292
10849SOL    HW251235   0.956   3.843   8.426
10850SOL     OW51236   3.127   3.828   6.770
10850SOL    HW151237   3.220   3.795   6.758
10850SOL    HW251238   3.065   3.749   6.780
10851SOL     OW51239   5.023   4.290   1.417
10851SOL    HW151240   4.959   4.227   1.461
10851SOL    HW251241   5.117   4.267   1.443
10852SOL     OW51242   9.528   6.100   8.418
10852SOL    HW151243   9.490   6.191   8.438
10852SOL    HW251244   9.456   6.032   8.426
10853SOL     OW51245   9.750   0.599   0.565
10853SOL    HW151246   9.752   0.571   0.469
10853SOL    HW251247   9.677   0.667   0.578
10854SOL     OW51248   4.634   8.483   0.433
10854SOL    HW151249   4.633   8.498   0.532
10854SOL    HW251250   4.633   8.571   0.386
10855SOL     OW51251   0.440   9.694   8.118
10855SOL    HW151252   0.475   9.689   8.024
10855SOL    HW251253   0.436   9.790   8.147
10856SOL     OW51254   5.973   5.227   1.636
10856SOL    HW151255   5.907   5.155   1.614
10856SOL    HW251256   6.060   5.186   1.662
10857SOL     OW51257   9.205   9.741   7.066
10857SOL    HW151258   9.202   9.841   7.074
10857SOL    HW251259   9.199   9.715   6.970
10858SOL     OW51260   9.948   2.130   6.178
10858SOL    HW151261   9.865   2.115   6.125
10858SOL    HW251262   9.996   2.043   6.190
10859SOL     OW51263   0.097   4.147   7.372
10859SOL    HW151264   0.016   4.113   7.419
10859SOL    HW251265   0.078   4.153   7.274
10860SOL     OW51266   9.139   4.461   7.187
10860SOL    HW151267   9.234   4.489   7.190
10860SOL    HW251268   9.101   4.461   7.280
10861SOL     OW51269   6.809   6.503   2.070
10861SOL    HW151270   6.905   6.485   2.053
10861SOL    HW251271   6.799   6.559   2.152
10862SOL     OW51272   3.526   9.157   0.963
10862SOL    HW151273   3.477   9.085   1.012
10862SOL    HW251274   3.466   9.235   0.949
10863SOL     OW51275   3.516   9.173   7.149
10863SOL    HW151276   3.431   9.175   7.096
10863SOL    HW251277   3.594   9.179   7.086
10864SOL     OW51278   6.281   5.007   1.126
10864SOL    HW151279   6.333   4.936   1.079
10864SOL    HW251280   6.332   5.093   1.125
10865SOL     OW51281   1.099   7.366   1.997
10865SOL    HW151282   1.089   7.322   2.086
10865SOL    HW251283   1.196   7.385   1.980
10866SOL     OW51284   6.022   9.000   0.542
10866SOL    HW151285   5.936   9.014   0.592
10866SOL    HW251286   6.002   8.973   0.448
10867SOL     OW51287   8.654   2.255   0.693
10867SOL    HW151288   8.578   2.192   0.703
10867SOL    HW251289   8.726   2.212   0.639
10868SOL     OW51290   4.532   1.719   8.534
10868SOL    HW151291   4.461   1.789   8.518
10868SOL    HW251292   4.529   1.652   8.460
10869SOL     OW51293   2.803   0.631   1.352
10869SOL    HW151294   2.767   0.549   1.307
10869SOL    HW251295   2.732   0.672   1.409
10870SOL     OW51296   9.826   8.727   1.039
10870SOL    HW151297   9.802   8.817   1.075
10870SOL    HW251298   9.906   8.692   1.088
10871SOL     OW51299   5.255   3.377   0.860
10871SOL    HW151300   5.181   3.313   0.885
10871SOL    HW251301   5.337   3.325   0.837
10872SOL     OW51302   3.752   3.682   8.493
10872SOL    HW151303   3.804   3.767   8.497
10872SOL    HW251304   3.755   3.637   8.582
10873SOL     OW51305   5.080   6.697   0.836
10873SOL    HW151306   5.173   6.706   0.800
10873SOL    HW251307   5.025   6.774   0.804
10874SOL     OW51308   1.038   4.161   7.741
10874SOL    HW151309   1.107   4.218   7.784
10874SOL    HW251310   0.947   4.183   7.778
10875SOL     OW51311   3.114   1.653   0.361
10875SOL    HW151312   3.123   1.556   0.380
10875SOL    HW251313   3.017   1.677   0.354
10876SOL     OW51314   5.766   6.506   7.223
10876SOL    HW151315   5.768   6.476   7.127
10876SOL    HW251316   5.703   6.583   7.232
10877SOL     OW51317   2.189   6.723   5.978
10877SOL    HW151318   2.234   6.797   5.928
10877SOL    HW251319   2.090   6.730   5.966
10878SOL     OW51320   6.474   1.167   1.949
10878SOL    HW151321   6.441   1.121   2.032
10878SOL    HW251322   6.397   1.186   1.889
10879SOL     OW51323   6.033   6.003   8.470
10879SOL    HW151324   5.937   5.991   8.497
10879SOL    HW251325   6.081   5.916   8.476
10880SOL     OW51326   5.382   1.815   7.503
10880SOL    HW151327   5.360   1.729   7.549
10880SOL    HW251328   5.298   1.865   7.485
10881SOL     OW51329   7.425   5.598   1.711
10881SOL    HW151330   7.344   5.545   1.736
10881SOL    HW251331   7.414   5.692   1.743
10882SOL     OW51332   2.868   1.713   0.050
10882SOL    HW151333   2.942   1.656   0.013
10882SOL    HW251334   2.781   1.684   0.010
10883SOL     OW51335   1.622   6.427   7.083
10883SOL    HW151336   1.708   6.458   7.044
10883SOL    HW251337   1.618   6.327   7.083
10884SOL     OW51338   1.778   0.416   0.051
10884SOL    HW151339   1.740   0.343   0.108
10884SOL    HW251340   1.878   0.409   0.050
10885SOL     OW51341   1.206   4.401   7.085
10885SOL    HW151342   1.211   4.317   7.140
10885SOL    HW251343   1.252   4.387   6.998
10886SOL     OW51344   4.740   0.514   8.323
10886SOL    HW151345   4.730   0.528   8.421
10886SOL    HW251346   4.678   0.441   8.293
10887SOL     OW51347   8.681   2.327   0.149
10887SOL    HW151348   8.719   2.303   0.060
10887SOL    HW251349   8.587   2.357   0.139
10888SOL     OW51350   3.555   8.042   7.790
10888SOL    HW151351   3.456   8.048   7.799
10888SOL    HW251352   3.598   8.086   7.869
10889SOL     OW51353   9.354   9.505   1.137
10889SOL    HW151354   9.434   9.449   1.158
10889SOL    HW251355   9.293   9.456   1.075
10890SOL     OW51356   4.424   9.128   8.412
10890SOL    HW151357   4.424   9.221   8.376
10890SOL    HW251358   4.442   9.064   8.338
10891SOL     OW51359   3.222   0.421   6.889
10891SOL    HW151360   3.138   0.366   6.887
10891SOL    HW251361   3.280   0.397   6.812
10892SOL     OW51362   2.380   9.109   7.157
10892SOL    HW151363   2.345   9.180   7.096
10892SOL    HW251364   2.321   9.029   7.152
10893SOL     OW51365  10.140  10.015   0.151
10893SOL    HW151366  10.151  10.038   0.054
10893SOL    HW251367  10.048  10.037   0.181
10894SOL     OW51368   3.682   0.476   0.544
10894SOL    HW151369   3.716   0.498   0.452
10894SOL    HW251370   3.757   0.477   0.609
10895SOL     OW51371   3.136   3.224   7.322
10895SOL    HW151372   3.074   3.242   7.399
10895SOL    HW251373   3.191   3.143   7.343
10896SOL     OW51374   8.372   8.914   8.171
10896SOL    HW151375   8.453   8.961   8.134
10896SOL    HW251376   8.341   8.845   8.105
10897SOL     OW51377   5.055  10.086   1.946
10897SOL    HW151378   5.011  10.120   1.863
10897SOL    HW251379   5.112  10.007   1.924
10898SOL     OW51380   5.482   4.870   7.792
10898SOL    HW151381   5.384   4.869   7.770
10898SOL    HW251382   5.495   4.849   7.889
10899SOL     OW51383   8.346   3.311   0.171
10899SOL    HW151384   8.307   3.357   0.251
10899SOL    HW251385   8.413   3.372   0.128
10900SOL     OW51386   9.195   8.879   1.888
10900SOL    HW151387   9.243   8.947   1.833
10900SOL    HW251388   9.257   8.840   1.955
10901SOL     OW51389   2.430   6.428   0.961
10901SOL    HW151390   2.465   6.352   1.018
10901SOL    HW251391   2.373   6.488   1.017
10902SOL     OW51392   7.125   0.615   8.057
10902SOL    HW151393   7.205   0.619   7.998
10902SOL    HW251394   7.058   0.553   8.018
10903SOL     OW51395   9.031   9.220   8.380
10903SOL    HW151396   9.083   9.195   8.462
10903SOL    HW251397   9.084   9.287   8.327
10904SOL     OW51398   4.630   9.794   0.074
10904SOL    HW151399   4.727   9.772   0.088
10904SOL    HW251400   4.616   9.891   0.089
10905SOL     OW51401   5.432   7.709   7.426
10905SOL    HW151402   5.481   7.773   7.487
10905SOL    HW251403   5.379   7.761   7.360
10906SOL     OW51404   7.709   6.690   6.558
10906SOL    HW151405   7.638   6.717   6.493
10906SOL    HW251406   7.794   6.672   6.508
10907SOL     OW51407   8.914   6.116   0.533
10907SOL    HW151408   8.848   6.153   0.599
10907SOL    HW251409   8.876   6.033   0.492
10908SOL     OW51410   9.137   9.906   8.149
10908SOL    HW151411   9.203   9.960   8.199
10908SOL    HW251412   9.163   9.809   8.152
10909SOL     OW51413  10.061   1.869   7.080
10909SOL    HW151414  10.035   1.782   7.124
10909SOL    HW251415   9.981   1.928   7.074
10910SOL     OW51416   5.835   4.036   6.843
10910SOL    HW151417   5.846   4.117   6.900
10910SOL    HW251418   5.925   4.007   6.808
10911SOL     OW51419   6.041   8.915   8.596
10911SOL    HW151420   6.031   8.980   8.671
10911SOL    HW251421   5.959   8.858   8.589
10912SOL     OW51422   6.594   9.691   6.969
10912SOL    HW151423   6.507   9.670   6.925
10912SOL    HW251424   6.669   9.652   6.916
10913SOL     OW51425   9.930   2.411   7.566
10913SOL    HW151426  10.017   2.456   7.547
10913SOL    HW251427   9.857   2.460   7.518
10914SOL     OW51428   9.570   2.375   1.333
10914SOL    HW151429   9.606   2.283   1.349
10914SOL    HW251430   9.470   2.373   1.335
10915SOL     OW51431   4.514   7.535   2.314
10915SOL    HW151432   4.425   7.543   2.359
10915SOL    HW251433   4.573   7.610   2.344
10916SOL     OW51434   9.563   6.903   0.127
10916SOL    HW151435   9.561   6.980   0.064
10916SOL    HW251436   9.620   6.927   0.206
10917SOL     OW51437   1.294   4.496   6.508
10917SOL    HW151438   1.322   4.400   6.507
10917SOL    HW251439   1.319   4.539   6.421
10918SOL     OW51440   2.163   8.912   7.425
10918SOL    HW151441   2.086   8.852   7.446
10918SOL    HW251442   2.190   8.962   7.507
10919SOL     OW51443   7.183   7.478   2.547
10919SOL    HW151444   7.274   7.436   2.552
10919SOL    HW251445   7.119   7.424   2.603
10920SOL     OW51446   0.726   7.713   1.975
10920SOL    HW151447   0.658   7.736   2.044
10920SOL    HW251448   0.801   7.661   2.017
10921SOL     OW51449   0.649   4.586   7.063
10921SOL    HW151450   0.646   4.673   7.112
10921SOL    HW251451   0.703   4.520   7.116
10922SOL     OW51452   1.541   0.879   6.695
10922SOL    HW151453   1.525   0.973   6.665
10922SOL    HW251454   1.502   0.815   6.629
10923SOL     OW51455   5.306   5.836   0.467
10923SOL    HW151456   5.298   5.768   0.539
10923SOL    HW251457   5.314   5.928   0.507
10924SOL     OW51458   9.715   3.045   8.545
10924SOL    HW151459   9.705   3.022   8.642
10924SOL    HW251460   9.810   3.067   8.526
10925SOL     OW51461   7.113   5.250   8.308
10925SOL    HW151462   7.151   5.194   8.381
10925SOL    HW251463   7.018   5.224   8.293
10926SOL     OW51464   1.586   2.775   0.917
10926SOL    HW151465   1.629   2.732   0.996
10926SOL    HW251466   1.656   2.820   0.862
10927SOL     OW51467   4.437   4.792   6.957
10927SOL    HW151468   4.401   4.840   6.876
10927SOL    HW251469   4.402   4.837   7.039
10928SOL     OW51470   4.261   0.531   7.774
10928SOL    HW151471   4.223   0.521   7.866
10928SOL    HW251472   4.336   0.596   7.776
10929SOL     OW51473   7.380   7.868   7.645
10929SOL    HW151474   7.391   7.950   7.701
10929SOL    HW251475   7.347   7.793   7.703
10930SOL     OW51476   3.477   9.361   0.177
10930SOL    HW151477   3.390   9.407   0.194
10930SOL    HW251478   3.528   9.411   0.107
10931SOL     OW51479   0.241   7.923   6.120
10931SOL    HW151480   0.213   8.004   6.069
10931SOL    HW251481   0.237   7.843   6.061
10932SOL     OW51482   2.606   4.556   0.736
10932SOL    HW151483   2.660   4.609   0.801
10932SOL    HW251484   2.528   4.610   0.705
10933SOL     OW51485   4.563   2.964   8.056
10933SOL    HW151486   4.593   2.869   8.068
10933SOL    HW251487   4.583   3.016   8.138
10934SOL     OW51488   7.090   2.719   0.781
10934SOL    HW151489   7.146   2.664   0.842
10934SOL    HW251490   7.136   2.806   0.762
10935SOL     OW51491   0.357   9.438   8.488
10935SOL    HW151492   0.315   9.522   8.524
10935SOL    HW251493   0.407   9.460   8.404
10936SOL     OW51494   9.572   6.584   7.738
10936SOL    HW151495   9.629   6.564   7.816
10936SOL    HW251496   9.599   6.528   7.660
10937SOL     OW51497   1.662   4.599   1.180
10937SOL    HW151498   1.585   4.654   1.149
10937SOL    HW251499   1.629   4.510   1.211
10938SOL     OW51500   4.311   2.720   1.077
10938SOL    HW151501   4.304   2.624   1.103
10938SOL    HW251502   4.228   2.768   1.105
10939SOL     OW51503   4.815   4.004   7.523
10939SOL    HW151504   4.841   3.942   7.449
10939SOL    HW251505   4.864   4.091   7.513
10940SOL     OW51506   1.375   7.900   7.358
10940SOL    HW151507   1.354   7.853   7.272
10940SOL    HW251508   1.379   7.833   7.432
10941SOL     OW51509   7.585   4.060   8.245
10941SOL    HW151510   7.629   3.970   8.252
10941SOL    HW251511   7.600   4.097   8.153
10942SOL     OW51512   5.289   7.012   8.757
10942SOL    HW151513   5.314   6.924   8.715
10942SOL    HW251514   5.215   7.054   8.705
10943SOL     OW51515   4.086   3.696   8.753
10943SOL    HW151516   4.109   3.610   8.708
10943SOL    HW251517   4.099   3.772   8.688
10944SOL     OW51518   0.770   7.067   0.105
10944SOL    HW151519   0.863   7.063   0.143
10944SOL    HW251520   0.775   7.059   0.006
10945SOL     OW51521   3.766   9.222   1.811
10945SOL    HW151522   3.792   9.143   1.866
10945SOL    HW251523   3.807   9.304   1.850
10946SOL     OW51524   6.486  10.317   0.659
10946SOL    HW151525   6.517  10.261   0.736
10946SOL    HW251526   6.557  10.320   0.589
10947SOL     OW51527   9.129   2.375   8.293
10947SOL    HW151528   9.174   2.457   8.328
10947SOL    HW251529   9.198   2.315   8.252
10948SOL     OW51530   7.972   7.439   7.040
10948SOL    HW151531   8.011   7.410   6.952
10948SOL    HW251532   7.996   7.534   7.057
10949SOL     OW51533   5.239   2.631   0.651
10949SOL    HW151534   5.245   2.729   0.672
10949SOL    HW251535   5.144   2.600   0.664
10950SOL     OW51536   3.177   7.779   7.379
10950SOL    HW151537   3.195   7.683   7.360
10950SOL    HW251538   3.129   7.820   7.302
10951SOL     OW51539   4.659   4.771   6.611
10951SOL    HW151540   4.662   4.871   6.611
10951SOL    HW251541   4.570   4.741   6.577
10952SOL     OW51542   5.061   9.180   6.984
10952SOL    HW151543   4.972   9.150   6.950
10952SOL    HW251544   5.085   9.268   6.944
10953SOL     OW51545   1.198   2.303   7.710
10953SOL    HW151546   1.112   2.251   7.709
10953SOL    HW251547   1.181   2.394   7.749
10954SOL     OW51548   5.079  10.331   2.056
10954SOL    HW151549   5.173  10.359   2.036
10954SOL    HW251550   5.064  10.238   2.024
10955SOL     OW51551   3.245   2.453   8.545
10955SOL    HW151552   3.269   2.510   8.467
10955SOL    HW251553   3.304   2.372   8.545
10956SOL     OW51554   3.042   9.666   1.833
10956SOL    HW151555   3.057   9.704   1.924
10956SOL    HW251556   3.128   9.629   1.798
10957SOL     OW51557   9.810   9.582   1.662
10957SOL    HW151558   9.884   9.530   1.619
10957SOL    HW251559   9.838   9.609   1.754
10958SOL     OW51560   4.975   6.075   8.738
10958SOL    HW151561   4.951   6.172   8.729
10958SOL    HW251562   4.945   6.041   0.045
10959SOL     OW51563   3.883   9.823   1.668
10959SOL    HW151564   3.875   9.895   1.736
10959SOL    HW251565   3.831   9.742   1.697
10960SOL     OW51566   6.648   9.012   7.649
10960SOL    HW151567   6.746   9.021   7.634
10960SOL    HW251568   6.631   8.974   7.740
10961SOL     OW51569   0.676   0.706   1.481
10961SOL    HW151570   0.649   0.665   1.568
10961SOL    HW251571   0.763   0.667   1.451
10962SOL     OW51572   9.137   3.601   0.686
10962SOL    HW151573   9.222   3.651   0.699
10962SOL    HW251574   9.157   3.510   0.651
10963SOL     OW51575   7.915   0.456   7.592
10963SOL    HW151576   7.966   0.377   7.560
10963SOL    HW251577   7.838   0.474   7.531
10964SOL     OW51578   1.498   0.791   6.952
10964SOL    HW151579   1.482   0.865   7.017
10964SOL    HW251580   1.521   0.829   6.863
10965SOL     OW51581   2.054   2.016   6.349
10965SOL    HW151582   2.091   1.937   6.398
10965SOL    HW251583   2.117   2.044   6.277
10966SOL     OW51584   0.392   1.442   8.348
10966SOL    HW151585   0.402   1.355   8.397
10966SOL    HW251586   0.411   1.517   8.411
10967SOL     OW51587   6.580   2.600   7.420
10967SOL    HW151588   6.582   2.683   7.476
10967SOL    HW251589   6.589   2.625   7.323
10968SOL     OW51590   5.340   6.696   0.735
10968SOL    HW151591   5.385   6.608   0.721
10968SOL    HW251592   5.402   6.757   0.784
10969SOL     OW51593  10.049   8.184   1.024
10969SOL    HW151594  10.041   8.281   0.999
10969SOL    HW251595  10.096   8.175   1.111
10970SOL     OW51596   9.938   0.999   1.047
10970SOL    HW151597   9.960   1.071   0.981
10970SOL    HW251598   9.943   0.910   1.002
10971SOL     OW51599   2.295   5.454   6.566
10971SOL    HW151600   2.241   5.503   6.497
10971SOL    HW251601   2.242   5.447   6.651
10972SOL     OW51602   4.887   6.806   1.203
10972SOL    HW151603   4.818   6.795   1.275
10972SOL    HW251604   4.952   6.878   1.229
10973SOL     OW51605   4.054   8.785   7.997
10973SOL    HW151606   3.992   8.807   7.921
10973SOL    HW251607   4.041   8.690   8.025
10974SOL     OW51608   1.375   6.928   2.401
10974SOL    HW151609   1.426   6.917   2.315
10974SOL    HW251610   1.427   6.889   2.476
10975SOL     OW51611   4.281   9.715   1.915
10975SOL    HW151612   4.270   9.804   1.872
10975SOL    HW251613   4.230   9.712   2.001
10976SOL     OW51614   9.424   9.332   7.342
10976SOL    HW151615   9.394   9.353   7.435
10976SOL    HW251616   9.403   9.408   7.281
10977SOL     OW51617   8.351   7.535   1.403
10977SOL    HW151618   8.451   7.532   1.401
10977SOL    HW251619   8.320   7.622   1.441
10978SOL     OW51620   7.968   6.243   7.172
10978SOL    HW151621   7.909   6.195   7.107
10978SOL    HW251622   8.007   6.324   7.127
10979SOL     OW51623   9.030   9.560   1.680
10979SOL    HW151624   9.020   9.525   1.586
10979SOL    HW251625   8.952   9.619   1.701
10980SOL     OW51626   4.840   2.328   0.011
10980SOL    HW151627   4.934   2.305   0.038
10980SOL    HW251628   4.789   2.357   0.092
10981SOL     OW51629   2.195   6.463   8.545
10981SOL    HW151630   2.252   6.397   8.593
10981SOL    HW251631   2.124   6.497   8.607
10982SOL     OW51632   1.628   8.424   7.858
10982SOL    HW151633   1.702   8.418   7.925
10982SOL    HW251634   1.666   8.441   7.767
10983SOL     OW51635   3.993   2.889   8.236
10983SOL    HW151636   3.933   2.858   8.310
10983SOL    HW251637   3.948   2.873   8.148
10984SOL     OW51638   8.613   7.867   7.850
10984SOL    HW151639   8.701   7.848   7.895
10984SOL    HW251640   8.566   7.941   7.898
10985SOL     OW51641   9.703   9.452   7.558
10985SOL    HW151642   9.668   9.541   7.527
10985SOL    HW251643   9.637   9.412   7.622
10986SOL     OW51644   6.012   0.830   1.191
10986SOL    HW151645   6.072   0.821   1.271
10986SOL    HW251646   6.050   0.778   1.115
10987SOL     OW51647   6.345   5.740   0.984
10987SOL    HW151648   6.256   5.785   0.990
10987SOL    HW251649   6.352   5.670   1.055
10988SOL     OW51650   9.805   1.986   7.096
10988SOL    HW151651   9.800   1.913   7.164
10988SOL    HW251652   9.741   2.059   7.121
10989SOL     OW51653   4.941   8.636   1.578
10989SOL    HW151654   4.990   8.721   1.561
10989SOL    HW251655   4.954   8.573   1.501
10990SOL     OW51656   4.466   3.006   1.809
10990SOL    HW151657   4.446   3.006   1.907
10990SOL    HW251658   4.381   2.993   1.758
10991SOL     OW51659   8.152   0.130   0.393
10991SOL    HW151660   8.187   0.108   0.302
10991SOL    HW251661   8.170   0.054   0.456
10992SOL     OW51662   2.388   5.269   6.390
10992SOL    HW151663   2.315   5.267   6.322
10992SOL    HW251664   2.362   5.329   6.465
10993SOL     OW51665   3.702   8.865   8.352
10993SOL    HW151666   3.712   8.939   8.285
10993SOL    HW251667   3.612   8.824   8.342
10994SOL     OW51668   6.020   6.667   0.363
10994SOL    HW151669   5.985   6.735   0.300
10994SOL    HW251670   6.015   6.702   0.457
10995SOL     OW51671   8.406   0.284   0.025
10995SOL    HW151672   8.333   0.339   8.766
10995SOL    HW251673   8.481   0.343   0.053
10996SOL     OW51674   1.271   0.828   0.121
10996SOL    HW151675   1.177   0.822   0.088
10996SOL    HW251676   1.274   0.882   0.205
10997SOL     OW51677   0.492   8.670   1.746
10997SOL    HW151678   0.451   8.686   1.836
10997SOL    HW251679   0.445   8.595   1.700
10998SOL     OW51680   5.745   7.163   0.980
10998SOL    HW151681   5.735   7.074   1.025
10998SOL    HW251682   5.770   7.149   0.884
10999SOL     OW51683   8.931   6.125   7.288
10999SOL    HW151684   8.930   6.033   7.250
10999SOL    HW251685   8.851   6.176   7.255
11000SOL     OW51686   7.831   4.288   1.549
11000SOL    HW151687   7.741   4.297   1.592
11000SOL    HW251688   7.829   4.331   1.459
11001SOL     OW51689   1.262   5.750   8.583
11001SOL    HW151690   1.247   5.776   8.679
11001SOL    HW251691   1.286   5.830   8.530
11002SOL     OW51692   8.656   7.199   2.030
11002SOL    HW151693   8.636   7.168   2.123
11002SOL    HW251694   8.581   7.258   1.998
11003SOL     OW51695   5.643   1.061   1.285
11003SOL    HW151696   5.609   1.153   1.298
11003SOL    HW251697   5.743   1.063   1.274
11004SOL     OW51698   8.509   1.935   1.359
11004SOL    HW151699   8.442   1.860   1.360
11004SOL    HW251700   8.570   1.923   1.281
11005SOL     OW51701   5.797   8.517   6.980
11005SOL    HW151702   5.717   8.512   6.920
11005SOL    HW251703   5.767   8.529   7.075
11006SOL     OW51704   7.230   8.151   8.210
11006SOL    HW151705   7.136   8.138   8.179
11006SOL    HW251706   7.264   8.239   8.176
11007SOL     OW51707   1.524   2.731   7.187
11007SOL    HW151708   1.612   2.694   7.216
11007SOL    HW251709   1.450   2.681   7.233
11008SOL     OW51710   9.339   2.093   6.766
11008SOL    HW151711   9.324   2.163   6.836
11008SOL    HW251712   9.331   2.003   6.807
11009SOL     OW51713   6.922   7.066   0.300
11009SOL    HW151714   7.017   7.071   0.271
11009SOL    HW251715   6.917   7.059   0.399
11010SOL     OW51716   2.293   4.834   8.709
11010SOL    HW151717   2.270   4.890   8.629
11010SOL    HW251718   2.351   4.758   8.681
11011SOL     OW51719   4.959   6.580   0.360
11011SOL    HW151720   4.974   6.589   0.262
11011SOL    HW251721   4.942   6.484   0.383
11012SOL     OW51722   8.267   3.505   1.516
11012SOL    HW151723   8.292   3.592   1.473
11012SOL    HW251724   8.325   3.490   1.596
11013SOL     OW51725   2.803   8.065   0.721
11013SOL    HW151726   2.822   7.984   0.665
11013SOL    HW251727   2.765   8.137   0.663
11014SOL     OW51728   2.186   2.301   0.745
11014SOL    HW151729   2.101   2.352   0.730
11014SOL    HW251730   2.245   2.310   0.665
11015SOL     OW51731   9.061   1.217   7.757
11015SOL    HW151732   9.093   1.310   7.739
11015SOL    HW251733   8.974   1.202   7.709
11016SOL     OW51734   7.205   9.436   1.027
11016SOL    HW151735   7.152   9.454   1.110
11016SOL    HW251736   7.196   9.513   0.964
11017SOL     OW51737   7.779   3.536   2.427
11017SOL    HW151738   7.851   3.534   2.497
11017SOL    HW251739   7.754   3.631   2.408
11018SOL     OW51740  10.039   1.726   7.885
11018SOL    HW151741   9.985   1.783   7.823
11018SOL    HW251742  10.047   1.634   7.847
11019SOL     OW51743   0.169   0.575   8.011
11019SOL    HW151744   0.194   0.621   7.926
11019SOL    HW251745   0.197   0.630   8.089
11020SOL     OW51746   8.752   0.967   0.195
11020SOL    HW151747   8.779   0.998   0.286
11020SOL    HW251748   8.714   1.043   0.143
11021SOL     OW51749   8.136   9.943   0.166
11021SOL    HW151750   8.217   9.997   0.188
11021SOL    HW251751   8.056  10.003   0.166
11022SOL     OW51752   3.519   8.309   1.388
11022SOL    HW151753   3.592   8.243   1.371
11022SOL    HW251754   3.432   8.271   1.356
11023SOL     OW51755   5.289   7.991   8.179
11023SOL    HW151756   5.192   7.969   8.174
11023SOL    HW251757   5.308   8.038   8.266
11024SOL     OW51758   8.139  10.406   1.913
11024SOL    HW151759   8.064  10.345   1.940
11024SOL    HW251760   8.109  10.501   1.922
11025SOL     OW51761   1.956   9.192   1.380
11025SOL    HW151762   1.864   9.161   1.356
11025SOL    HW251763   1.953   9.242   1.467
11026SOL     OW51764   7.411   1.191   0.192
11026SOL    HW151765   7.372   1.260   0.252
11026SOL    HW251766   7.509   1.182   0.211
11027SOL     OW51767   9.469   9.874   1.479
11027SOL    HW151768   9.386   9.913   1.518
11027SOL    HW251769   9.449   9.837   1.388
11028SOL     OW51770   9.487   7.014   7.971
11028SOL    HW151771   9.578   7.012   7.931
11028SOL    HW251772   9.443   6.925   7.956
11029SOL     OW51773   3.675   3.759   6.141
11029SOL    HW151774   3.743   3.745   6.069
11029SOL    HW251775   3.630   3.672   6.162
11030SOL     OW51776   8.079   2.928   7.917
11030SOL    HW151777   8.115   2.851   7.864
11030SOL    HW251778   8.104   2.917   8.013
11031SOL     OW51779   4.494   0.281   1.336
11031SOL    HW151780   4.421   0.252   1.397
11031SOL    HW251781   4.527   0.202   1.284
11032SOL     OW51782   7.971   8.271   2.398
11032SOL    HW151783   8.010   8.184   2.368
11032SOL    HW251784   8.034   8.315   2.462
11033SOL     OW51785   8.998   1.496   7.289
11033SOL    HW151786   9.052   1.579   7.300
11033SOL    HW251787   8.901   1.520   7.277
11034SOL     OW51788   2.171   9.395   1.005
11034SOL    HW151789   2.159   9.324   1.074
11034SOL    HW251790   2.173   9.353   0.914
11035SOL     OW51791   5.906   2.150   0.362
11035SOL    HW151792   5.924   2.248   0.371
11035SOL    HW251793   5.859   2.118   0.444
11036SOL     OW51794   9.315   1.769   6.556
11036SOL    HW151795   9.275   1.790   6.466
11036SOL    HW251796   9.291   1.675   6.581
11037SOL     OW51797   6.029   8.554   7.796
11037SOL    HW151798   6.104   8.490   7.811
11037SOL    HW251799   6.046   8.607   7.713
11038SOL     OW51800   5.943   4.100   1.383
11038SOL    HW151801   6.011   4.058   1.444
11038SOL    HW251802   5.990   4.150   1.311
11039SOL     OW51803   4.568   5.541   8.282
11039SOL    HW151804   4.547   5.572   8.190
11039SOL    HW251805   4.667   5.542   8.296
11040SOL     OW51806   3.570   1.782   8.093
11040SOL    HW151807   3.604   1.849   8.027
11040SOL    HW251808   3.607   1.801   8.183
11041SOL     OW51809   5.376   8.358   0.336
11041SOL    HW151810   5.467   8.318   0.323
11041SOL    HW251811   5.308   8.286   0.346
11042SOL     OW51812   9.813   8.507   0.160
11042SOL    HW151813   9.744   8.458   0.106
11042SOL    HW251814   9.818   8.466   0.251
11043SOL     OW51815   8.561   2.657   2.473
11043SOL    HW151816   8.635   2.591   2.483
11043SOL    HW251817   8.473   2.609   2.472
11044SOL     OW51818   0.683   3.908   8.554
11044SOL    HW151819   0.765   3.907   8.496
11044SOL    HW251820   0.611   3.960   8.509
11045SOL     OW51821   8.029   1.662   1.883
11045SOL    HW151822   8.013   1.617   1.971
11045SOL    HW251823   7.986   1.752   1.883
11046SOL     OW51824   4.878   8.821   0.912
11046SOL    HW151825   4.930   8.886   0.968
11046SOL    HW251826   4.893   8.840   0.816
11047SOL     OW51827   6.155   4.627   8.014
11047SOL    HW151828   6.245   4.632   8.058
11047SOL    HW251829   6.150   4.695   7.941
11048SOL     OW51830   0.255   1.795   8.228
11048SOL    HW151831   0.255   1.892   8.251
11048SOL    HW251832   0.346   1.768   8.197
11049SOL     OW51833   3.430   3.637   0.320
11049SOL    HW151834   3.422   3.734   0.341
11049SOL    HW251835   3.520   3.604   0.348
11050SOL     OW51836   8.258   0.076   0.151
11050SOL    HW151837   8.326   0.005   0.173
11050SOL    HW251838   8.302   0.149   0.098
11051SOL     OW51839   9.466   0.209   7.545
11051SOL    HW151840   9.563   0.200   7.525
11051SOL    HW251841   9.420   0.122   7.528
11052SOL     OW51842   3.344   6.705   1.664
11052SOL    HW151843   3.253   6.747   1.659
11052SOL    HW251844   3.337   6.617   1.711
11053SOL     OW51845   1.174   1.191   0.153
11053SOL    HW151846   1.193   1.285   0.183
11053SOL    HW251847   1.097   1.192   0.089
11054SOL     OW51848   1.498   1.148   6.593
11054SOL    HW151849   1.535   1.237   6.568
11054SOL    HW251850   1.489   1.092   6.511
11055SOL     OW51851   7.787   1.710   0.135
11055SOL    HW151852   7.755   1.803   0.118
11055SOL    HW251853   7.833   1.706   0.224
11056SOL     OW51854   6.524   0.005   7.258
11056SOL    HW151855   6.580  10.456   7.194
11056SOL    HW251856   6.553  10.488   7.352
11057SOL     OW51857   0.756   8.741   7.658
11057SOL    HW151858   0.783   8.645   7.663
11057SOL    HW251859   0.656   8.747   7.648
11058SOL     OW51860   7.884   8.789   7.829
11058SOL    HW151861   7.875   8.723   7.755
11058SOL    HW251862   7.928   8.872   7.794
11059SOL     OW51863   6.289   7.149   8.186
11059SOL    HW151864   6.233   7.121   8.108
11059SOL    HW251865   6.251   7.233   8.225
11060SOL     OW51866   9.170   9.351   0.999
11060SOL    HW151867   9.089   9.378   0.948
11060SOL    HW251868   9.221   9.283   0.947
11061SOL     OW51869   2.731   8.905   6.518
11061SOL    HW151870   2.722   8.928   6.615
11061SOL    HW251871   2.816   8.854   6.503
11062SOL     OW51872   5.299   2.461   8.440
11062SOL    HW151873   5.374   2.395   8.437
11062SOL    HW251874   5.232   2.433   8.509
11063SOL     OW51875   0.321   0.160   1.137
11063SOL    HW151876   0.359   0.140   1.228
11063SOL    HW251877   0.368   0.239   1.098
11064SOL     OW51878   0.971   2.246   7.227
11064SOL    HW151879   0.931   2.202   7.307
11064SOL    HW251880   1.055   2.293   7.254
11065SOL     OW51881   6.535   2.356   0.969
11065SOL    HW151882   6.440   2.357   1.001
11065SOL    HW251883   6.578   2.443   0.991
11066SOL     OW51884   0.137   0.154   0.395
11066SOL    HW151885   0.164   0.180   0.302
11066SOL    HW251886   0.128   0.236   0.451
11067SOL     OW51887   1.352   0.529   8.613
11067SOL    HW151888   1.284   0.588   8.570
11067SOL    HW251889   1.359   0.551   8.710
11068SOL     OW51890   9.572   7.143   8.761
11068SOL    HW151891   9.609   7.223   0.028
11068SOL    HW251892   9.475   7.159   8.740
11069SOL     OW51893   8.020   6.635   6.839
11069SOL    HW151894   8.002   6.702   6.911
11069SOL    HW251895   8.074   6.679   6.766
11070SOL     OW51896   2.609   5.232   8.039
11070SOL    HW151897   2.540   5.167   8.008
11070SOL    HW251898   2.594   5.320   7.993
11071SOL     OW51899   5.203   7.938   1.489
11071SOL    HW151900   5.225   7.845   1.458
11071SOL    HW251901   5.220   8.002   1.415
11072SOL     OW51902   3.387   5.061   0.844
11072SOL    HW151903   3.401   4.971   0.802
11072SOL    HW251904   3.298   5.062   0.890
11073SOL     OW51905   1.967   5.731   1.510
11073SOL    HW151906   1.925   5.651   1.553
11073SOL    HW251907   1.934   5.814   1.554
11074SOL     OW51908   7.311   1.369   0.379
11074SOL    HW151909   7.212   1.375   0.396
11074SOL    HW251910   7.351   1.460   0.383
11075SOL     OW51911   9.507   7.986   0.659
11075SOL    HW151912   9.588   8.044   0.663
11075SOL    HW251913   9.514   7.923   0.581
11076SOL     OW51914   6.802   7.870   0.695
11076SOL    HW151915   6.812   7.874   0.794
11076SOL    HW251916   6.837   7.955   0.654
11077SOL     OW51917   3.732   2.893   6.656
11077SOL    HW151918   3.761   2.846   6.573
11077SOL    HW251919   3.633   2.903   6.656
11078SOL     OW51920  10.056   9.276   8.297
11078SOL    HW151921  10.135   9.335   8.318
11078SOL    HW251922  10.088   9.194   8.249
11079SOL     OW51923   2.946   3.890   7.913
11079SOL    HW151924   2.964   3.962   7.845
11079SOL    HW251925   2.861   3.911   7.961
11080SOL     OW51926   9.222   0.799   6.514
11080SOL    HW151927   9.241   0.717   6.461
11080SOL    HW251928   9.252   0.880   6.463
11081SOL     OW51929   2.940   0.605   6.734
11081SOL    HW151930   3.014   0.548   6.698
11081SOL    HW251931   2.972   0.700   6.741
11082SOL     OW51932   8.339   2.638   0.240
11082SOL    HW151933   8.366   2.610   0.148
11082SOL    HW251934   8.242   2.661   0.241
11083SOL     OW51935   0.267   6.362   0.664
11083SOL    HW151936   0.242   6.429   0.734
11083SOL    HW251937   0.287   6.410   0.579
11084SOL     OW51938   1.846   3.789   0.496
11084SOL    HW151939   1.893   3.767   0.410
11084SOL    HW251940   1.798   3.876   0.486
11085SOL     OW51941   3.488   0.732   0.002
11085SOL    HW151942   3.585   0.757   8.776
11085SOL    HW251943   3.478   0.658   0.068
11086SOL     OW51944   6.485   8.542   0.533
11086SOL    HW151945   6.499   8.453   0.490
11086SOL    HW251946   6.394   8.545   0.574
11087SOL     OW51947   8.795   4.689   1.309
11087SOL    HW151948   8.826   4.598   1.337
11087SOL    HW251949   8.779   4.690   1.211
11088SOL     OW51950   9.061   7.937   2.040
11088SOL    HW151951   9.091   7.921   1.946
11088SOL    HW251952   9.141   7.940   2.100
11089SOL     OW51953   4.356   4.234   6.329
11089SOL    HW151954   4.428   4.171   6.301
11089SOL    HW251955   4.392   4.296   6.400
11090SOL     OW51956   3.903   4.185   8.664
11090SOL    HW151957   3.924   4.143   8.752
11090SOL    HW251958   3.807   4.214   8.662
11091SOL     OW51959   9.499   3.757   8.729
11091SOL    HW151960   9.492   3.817   8.650
11091SOL    HW251961   9.435   3.681   8.720
11092SOL     OW51962   1.903   0.518   0.626
11092SOL    HW151963   1.956   0.582   0.571
11092SOL    HW251964   1.965   0.464   0.683
11093SOL     OW51965   0.763   7.533   7.341
11093SOL    HW151966   0.745   7.446   7.387
11093SOL    HW251967   0.779   7.604   7.410
11094SOL     OW51968   7.700   2.109   7.909
11094SOL    HW151969   7.693   2.203   7.877
11094SOL    HW251970   7.789   2.071   7.882
11095SOL     OW51971   2.214   1.376   0.314
11095SOL    HW151972   2.273   1.318   0.258
11095SOL    HW251973   2.119   1.363   0.287
11096SOL     OW51974   9.425   5.541   5.892
11096SOL    HW151975   9.514   5.565   5.854
11096SOL    HW251976   9.409   5.443   5.880
11097SOL     OW51977   0.373   9.995   8.633
11097SOL    HW151978   0.465   9.958   8.638
11097SOL    HW251979   0.342  10.021   8.725
11098SOL     OW51980   6.162   9.803   6.737
11098SOL    HW151981   6.151   9.891   6.691
11098SOL    HW251982   6.113   9.732   6.687
11099SOL     OW51983   4.549   3.951   6.605
11099SOL    HW151984   4.591   3.871   6.648
11099SOL    HW251985   4.611   3.989   6.537
11100SOL     OW51986   7.137   8.324   0.707
11100SOL    HW151987   7.107   8.296   0.798
11100SOL    HW251988   7.058   8.336   0.647
11101SOL     OW51989   4.487   0.966   0.346
11101SOL    HW151990   4.468   0.920   0.433
11101SOL    HW251991   4.584   0.988   0.341
11102SOL     OW51992   3.517   2.040   1.356
11102SOL    HW151993   3.426   2.000   1.345
11102SOL    HW251994   3.529   2.071   1.450
11103SOL     OW51995   3.066   2.744   0.524
11103SOL    HW151996   3.059   2.841   0.503
11103SOL    HW251997   3.045   2.691   0.442
11104SOL     OW51998   5.203   9.107   8.365
11104SOL    HW151999   5.266   9.115   8.288
11104SOL    HW252000   5.213   9.017   8.407
11105SOL     OW52001   8.040   0.405   7.279
11105SOL    HW152002   8.064   0.358   7.364
11105SOL    HW252003   8.124   0.439   7.236
11106SOL     OW52004   0.582   1.983   2.184
11106SOL    HW152005   0.649   2.039   2.233
11106SOL    HW252006   0.600   1.886   2.203
11107SOL     OW52007   3.490   6.639   8.084
11107SOL    HW152008   3.416   6.706   8.096
11107SOL    HW252009   3.487   6.572   8.158
11108SOL     OW52010   5.454   3.550   1.500
11108SOL    HW152011   5.378   3.606   1.533
11108SOL    HW252012   5.484   3.584   1.410
11109SOL     OW52013   3.763   4.032   1.575
11109SOL    HW152014   3.818   4.097   1.628
11109SOL    HW252015   3.820   3.957   1.544
11110SOL     OW52016   4.213   5.417   6.824
11110SOL    HW152017   4.204   5.392   6.921
11110SOL    HW252018   4.301   5.385   6.790
11111SOL     OW52019   4.678   5.458   0.694
11111SOL    HW152020   4.777   5.445   0.685
11111SOL    HW252021   4.631   5.391   0.638
11112SOL     OW52022   4.316   3.749   8.285
11112SOL    HW152023   4.276   3.821   8.227
11112SOL    HW252024   4.375   3.791   8.353
11113SOL     OW52025   7.001   2.803   8.013
11113SOL    HW152026   6.982   2.743   7.935
11113SOL    HW252027   6.936   2.879   8.012
11114SOL     OW52028   0.212   6.013   6.872
11114SOL    HW152029   0.294   6.001   6.927
11114SOL    HW252030   0.212   6.105   6.833
11115SOL     OW52031   2.096   2.825   5.960
11115SOL    HW152032   2.147   2.911   5.966
11115SOL    HW252033   2.133   2.760   6.027
11116SOL     OW52034   1.045   8.221   6.973
11116SOL    HW152035   1.026   8.211   6.875
11116SOL    HW252036   1.133   8.179   6.994
11117SOL     OW52037   9.930   0.006   8.281
11117SOL    HW152038   9.874   0.057   8.215
11117SOL    HW252039   9.906  10.412   8.277
11118SOL     OW52040   4.132   4.655   8.238
11118SOL    HW152041   4.182   4.733   8.276
11118SOL    HW252042   4.035   4.676   8.233
11119SOL     OW52043   7.291   8.393   8.076
11119SOL    HW152044   7.336   8.384   7.987
11119SOL    HW252045   7.359   8.416   8.145
11120SOL     OW52046   2.316   3.590   0.317
11120SOL    HW152047   2.348   3.589   0.222
11120SOL    HW252048   2.225   3.550   0.322
11121SOL     OW52049   5.274   6.005   2.381
11121SOL    HW152050   5.239   6.031   2.470
11121SOL    HW252051   5.215   6.041   2.309
11122SOL     OW52052   6.838  10.268   1.797
11122SOL    HW152053   6.885  10.306   1.717
11122SOL    HW252054   6.739  10.268   1.780
11123SOL     OW52055   5.105   2.239   1.629
11123SOL    HW152056   5.131   2.254   1.724
11123SOL    HW252057   5.045   2.158   1.624
11124SOL     OW52058   0.770   6.342   1.046
11124SOL    HW152059   0.695   6.287   1.009
11124SOL    HW252060   0.776   6.328   1.145
11125SOL     OW52061   7.319   5.328   7.246
11125SOL    HW152062   7.376   5.268   7.303
11125SOL    HW252063   7.223   5.299   7.255
11126SOL     OW52064   7.372   2.843   8.609
11126SOL    HW152065   7.275   2.866   8.615
11126SOL    HW252066   7.382   2.752   8.568
11127SOL     OW52067   2.215   3.095   8.345
11127SOL    HW152068   2.183   3.002   8.324
11127SOL    HW252069   2.140   3.149   8.383
11128SOL     OW52070   2.960   7.853   1.022
11128SOL    HW152071   2.887   7.827   1.086
11128SOL    HW252072   2.943   7.945   0.987
11129SOL     OW52073   0.785   8.871   0.053
11129SOL    HW152074   0.690   8.842   0.065
11129SOL    HW252075   0.788   8.965   0.021
11130SOL     OW52076   7.325   7.004   0.852
11130SOL    HW152077   7.381   6.922   0.862
11130SOL    HW252078   7.231   6.978   0.828
11131SOL     OW52079  10.115   6.247   0.265
11131SOL    HW152080  10.097   6.175   0.198
11131SOL    HW252081   0.055   6.261   0.275
11132SOL     OW52082   8.264  10.234   8.757
11132SOL    HW152083   8.279  10.194   0.066
11132SOL    HW252084   8.343  10.289   8.731
11133SOL     OW52085   0.845   1.319   6.764
11133SOL    HW152086   0.900   1.386   6.714
11133SOL    HW252087   0.897   1.287   6.844
11134SOL     OW52088   0.856   6.942   8.290
11134SOL    HW152089   0.880   6.853   8.328
11134SOL    HW252090   0.763   6.967   8.317
11135SOL     OW52091   5.266   8.969   0.952
11135SOL    HW152092   5.322   9.051   0.967
11135SOL    HW252093   5.171   8.990   0.976
11136SOL     OW52094   7.566   7.732   8.403
11136SOL    HW152095   7.621   7.686   8.473
11136SOL    HW252096   7.484   7.677   8.384
11137SOL     OW52097   2.364   5.073   0.878
11137SOL    HW152098   2.463   5.088   0.873
11137SOL    HW252099   2.328   5.112   0.963
11138SOL     OW52100   2.954   7.851   0.147
11138SOL    HW152101   2.959   7.875   0.050
11138SOL    HW252102   2.866   7.809   0.167
11139SOL     OW52103   3.187   3.088   7.853
11139SOL    HW152104   3.261   3.064   7.916
11139SOL    HW252105   3.152   3.005   7.809
11140SOL     OW52106   1.155   9.299   0.009
11140SOL    HW152107   1.075   9.359   0.014
11140SOL    HW252108   1.219   9.335   8.724
11141SOL     OW52109   5.656   6.709   8.256
11141SOL    HW152110   5.703   6.747   8.335
11141SOL    HW252111   5.613   6.622   8.282
11142SOL     OW52112   2.878   3.102   0.120
11142SOL    HW152113   2.870   3.004   0.137
11142SOL    HW252114   2.923   3.117   0.032
11143SOL     OW52115   4.288   8.294   7.791
11143SOL    HW152116   4.211   8.238   7.761
11143SOL    HW252117   4.309   8.272   7.886
11144SOL     OW52118   3.478   2.561   8.674
11144SOL    HW152119   3.485   2.659   8.655
11144SOL    HW252120   3.393   2.526   8.634
11145SOL     OW52121   4.689   1.939   0.231
11145SOL    HW152122   4.633   2.012   0.269
11145SOL    HW252123   4.737   1.972   0.150
11146SOL     OW52124   5.559   9.084   1.619
11146SOL    HW152125   5.602   9.161   1.571
11146SOL    HW252126   5.467   9.110   1.647
11147SOL     OW52127   2.143   9.613   1.869
11147SOL    HW152128   2.198   9.547   1.921
11147SOL    HW252129   2.152   9.703   1.911
11148SOL     OW52130   7.875   8.741   6.661
11148SOL    HW152131   7.901   8.777   6.571
11148SOL    HW252132   7.810   8.804   6.705
11149SOL     OW52133   5.711   1.798   1.770
11149SOL    HW152134   5.675   1.865   1.834
11149SOL    HW252135   5.711   1.708   1.813
11150SOL     OW52136   8.704   8.300   7.654
11150SOL    HW152137   8.749   8.261   7.734
11150SOL    HW252138   8.687   8.227   7.587
11151SOL     OW52139   3.947   7.112   6.180
11151SOL    HW152140   4.015   7.044   6.156
11151SOL    HW252141   3.991   7.202   6.187
11152SOL     OW52142   7.639   9.722   1.485
11152SOL    HW152143   7.590   9.765   1.410
11152SOL    HW252144   7.583   9.648   1.524
11153SOL     OW52145   1.874   3.570   6.238
11153SOL    HW152146   1.890   3.529   6.149
11153SOL    HW252147   1.801   3.639   6.230
11154SOL     OW52148   8.747   8.224   2.323
11154SOL    HW152149   8.685   8.197   2.397
11154SOL    HW252150   8.706   8.197   2.235
11155SOL     OW52151   4.748   1.882   8.451
11155SOL    HW152152   4.693   1.810   8.493
11155SOL    HW252153   4.687   1.957   8.422
11156SOL     OW52154   7.483   6.137   6.891
11156SOL    HW152155   7.491   6.113   6.794
11156SOL    HW252156   7.541   6.216   6.910
11157SOL     OW52157   8.172   2.362   0.874
11157SOL    HW152158   8.195   2.458   0.858
11157SOL    HW252159   8.172   2.344   0.972
11158SOL     OW52160   8.944   4.231   7.566
11158SOL    HW152161   8.894   4.145   7.554
11158SOL    HW252162   8.905   4.282   7.642
11159SOL     OW52163   3.384   1.747   0.985
11159SOL    HW152164   3.303   1.701   1.022
11159SOL    HW252165   3.393   1.724   0.888
11160SOL     OW52166   5.189   0.739   0.885
11160SOL    HW152167   5.180   0.779   0.794
11160SOL    HW252168   5.221   0.809   0.949
11161SOL     OW52169   6.750   6.674   0.760
11161SOL    HW152170   6.680   6.625   0.811
11161SOL    HW252171   6.788   6.615   0.689
11162SOL     OW52172   7.184   4.573   7.986
11162SOL    HW152173   7.266   4.520   8.008
11162SOL    HW252174   7.102   4.522   8.013
11163SOL     OW52175   6.628   5.615   1.141
11163SOL    HW152176   6.671   5.660   1.063
11163SOL    HW252177   6.675   5.644   1.226
11164SOL     OW52178   3.249   8.577   0.736
11164SOL    HW152179   3.183   8.565   0.810
11164SOL    HW252180   3.201   8.591   0.650
11165SOL     OW52181   3.515   9.789   0.166
11165SOL    HW152182   3.486   9.884   0.176
11165SOL    HW252183   3.552   9.775   0.074
11166SOL     OW52184   2.083   2.429   8.408
11166SOL    HW152185   2.094   2.429   8.308
11166SOL    HW252186   2.068   2.523   8.439
11167SOL     OW52187   3.105   6.824   1.664
11167SOL    HW152188   3.107   6.907   1.719
11167SOL    HW252189   3.039   6.835   1.590
11168SOL     OW52190   9.124   7.413   8.515
11168SOL    HW152191   9.124   7.425   8.614
11168SOL    HW252192   9.213   7.379   8.486
11169SOL     OW52193   9.378   7.322   8.468
11169SOL    HW152194   9.365   7.270   8.552
11169SOL    HW252195   9.476   7.331   8.451
11170SOL     OW52196   8.065   3.247   0.487
11170SOL    HW152197   8.044   3.162   0.439
11170SOL    HW252198   7.979   3.295   0.508
11171SOL     OW52199   1.605   2.787   8.761
11171SOL    HW152200   1.548   2.870   8.760
11171SOL    HW252201   1.588   2.736   0.063
11172SOL     OW52202   3.678   7.187   2.127
11172SOL    HW152203   3.581   7.168   2.143
11172SOL    HW252204   3.700   7.278   2.163
11173SOL     OW52205   0.570   4.529   7.718
11173SOL    HW152206   0.530   4.480   7.641
11173SOL    HW252207   0.533   4.622   7.721
11174SOL     OW52208   1.111   4.647   7.169
11174SOL    HW152209   1.094   4.707   7.091
11174SOL    HW252210   1.147   4.560   7.137
11175SOL     OW52211   9.333  10.364   0.602
11175SOL    HW152212   9.273  10.320   0.669
11175SOL    HW252213   9.288  10.445   0.564
11176SOL     OW52214   1.722   1.652   2.057
11176SOL    HW152215   1.668   1.568   2.047
11176SOL    HW252216   1.806   1.632   2.107
11177SOL     OW52217   4.781   9.583   1.439
11177SOL    HW152218   4.802   9.535   1.354
11177SOL    HW252219   4.693   9.549   1.475
11178SOL     OW52220   6.695   1.803   0.712
11178SOL    HW152221   6.613   1.785   0.767
11178SOL    HW252222   6.673   1.791   0.615
11179SOL     OW52223   7.281  10.454   6.702
11179SOL    HW152224   7.330  10.391   6.763
11179SOL    HW252225   7.297   0.045   6.732
11180SOL     OW52226   1.222   2.738   7.560
11180SOL    HW152227   1.151   2.739   7.630
11180SOL    HW252228   1.186   2.779   7.476
11181SOL     OW52229   0.107   4.664   8.248
11181SOL    HW152230   0.175   4.660   8.321
11181SOL    HW252231   0.100   4.758   8.215
11182SOL     OW52232   7.745   7.605   8.568
11182SOL    HW152233   7.832   7.649   8.544
11182SOL    HW252234   7.758   7.505   8.569
11183SOL     OW52235   7.041   4.548   8.299
11183SOL    HW152236   7.038   4.644   8.273
11183SOL    HW252237   7.034   4.491   8.217
11184SOL     OW52238   2.080   7.950   0.625
11184SOL    HW152239   2.098   7.888   0.549
11184SOL    HW252240   2.038   8.034   0.592
11185SOL     OW52241   1.322   7.375   1.093
11185SOL    HW152242   1.278   7.289   1.118
11185SOL    HW252243   1.342   7.427   1.176
11186SOL     OW52244   8.256   8.148   0.312
11186SOL    HW152245   8.209   8.233   0.336
11186SOL    HW252246   8.355   8.161   0.320
11187SOL     OW52247   3.379   4.181   8.707
11187SOL    HW152248   3.323   4.194   8.626
11187SOL    HW252249   3.333   4.220   0.005
11188SOL     OW52250   5.084   1.323   6.696
11188SOL    HW152251   5.127   1.413   6.701
11188SOL    HW252252   4.995   1.329   6.651
11189SOL     OW52253   3.903   6.833   1.362
11189SOL    HW152254   3.862   6.798   1.446
11189SOL    HW252255   3.989   6.786   1.344
11190SOL     OW52256   7.874   4.491   0.515
11190SOL    HW152257   7.840   4.445   0.433
11190SOL    HW252258   7.961   4.535   0.494
11191SOL     OW52259   5.213   8.867   8.505
11191SOL    HW152260   5.261   8.872   8.592
11191SOL    HW252261   5.262   8.806   8.443
11192SOL     OW52262   4.634   0.461   0.035
11192SOL    HW152263   4.663   0.542   0.085
11192SOL    HW252264   4.586   0.399   0.097
11193SOL     OW52265   3.858   4.260   1.700
11193SOL    HW152266   3.866   4.317   1.782
11193SOL    HW252267   3.824   4.316   1.625
11194SOL     OW52268   6.322   5.733   7.754
11194SOL    HW152269   6.294   5.671   7.828
11194SOL    HW252270   6.333   5.681   7.670
11195SOL     OW52271   5.655   1.778   8.196
11195SOL    HW152272   5.724   1.840   8.233
11195SOL    HW252273   5.568   1.827   8.188
11196SOL     OW52274   9.854   4.028   8.606
11196SOL    HW152275   9.784   4.022   8.535
11196SOL    HW252276   9.867   4.124   8.631
11197SOL     OW52277   0.895   8.765   1.947
11197SOL    HW152278   0.948   8.815   2.016
11197SOL    HW252279   0.848   8.689   1.991
11198SOL     OW52280   6.623   1.377   1.215
11198SOL    HW152281   6.707   1.408   1.171
11198SOL    HW252282   6.623   1.405   1.311
11199SOL     OW52283   7.975   6.174   8.222
11199SOL    HW152284   8.021   6.258   8.251
11199SOL    HW252285   7.943   6.124   8.303
11200SOL     OW52286   5.765   4.286   1.471
11200SOL    HW152287   5.818   4.349   1.529
11200SOL    HW252288   5.826   4.218   1.431
11201SOL     OW52289   2.801   2.342   7.490
11201SOL    HW152290   2.797   2.408   7.415
11201SOL    HW252291   2.817   2.392   7.576
11202SOL     OW52292   6.039   9.088   0.881
11202SOL    HW152293   5.960   9.146   0.862
11202SOL    HW252294   6.009   8.994   0.898
11203SOL     OW52295   1.786   2.777   1.432
11203SOL    HW152296   1.788   2.680   1.408
11203SOL    HW252297   1.774   2.786   1.531
11204SOL     OW52298   2.164   2.735   0.570
11204SOL    HW152299   2.136   2.819   0.524
11204SOL    HW252300   2.131   2.656   0.517
11205SOL     OW52301   4.289   6.948   1.483
11205SOL    HW152302   4.367   7.010   1.485
11205SOL    HW252303   4.213   6.987   1.534
11206SOL     OW52304   5.985   7.783   1.364
11206SOL    HW152305   5.996   7.841   1.444
11206SOL    HW252306   6.030   7.826   1.285
11207SOL     OW52307   7.663   3.102   7.387
11207SOL    HW152308   7.745   3.158   7.373
11207SOL    HW252309   7.689   3.007   7.399
11208SOL     OW52310   3.236   8.194   6.554
11208SOL    HW152311   3.181   8.167   6.633
11208SOL    HW252312   3.248   8.116   6.493
11209SOL     OW52313   7.314   7.891   8.689
11209SOL    HW152314   7.312   7.948   8.607
11209SOL    HW252315   7.401   7.844   8.695
11210SOL     OW52316   9.938   3.607   0.721
11210SOL    HW152317   9.959   3.510   0.709
11210SOL    HW252318   9.857   3.616   0.779
11211SOL     OW52319   1.947   0.569   6.609
11211SOL    HW152320   1.925   0.504   6.683
11211SOL    HW252321   1.901   0.656   6.627
11212SOL     OW52322   2.315   0.996   8.076
11212SOL    HW152323   2.226   1.001   8.122
11212SOL    HW252324   2.305   0.942   7.992
11213SOL     OW52325   1.708   0.754   8.568
11213SOL    HW152326   1.668   0.841   8.596
11213SOL    HW252327   1.683   0.735   8.473
11214SOL     OW52328   7.821   5.136   0.966
11214SOL    HW152329   7.769   5.211   1.007
11214SOL    HW252330   7.765   5.054   0.964
11215SOL     OW52331   2.037   0.488   8.379
11215SOL    HW152332   1.977   0.436   8.318
11215SOL    HW252333   2.096   0.425   8.429
11216SOL     OW52334   6.388   3.463   8.520
11216SOL    HW152335   6.315   3.497   8.461
11216SOL    HW252336   6.421   3.375   8.485
11217SOL     OW52337   6.939   9.088   6.975
11217SOL    HW152338   6.973   9.033   7.051
11217SOL    HW252339   6.841   9.104   6.986
11218SOL     OW52340   1.275   1.952   0.712
11218SOL    HW152341   1.219   2.034   0.719
11218SOL    HW252342   1.342   1.951   0.786
11219SOL     OW52343   9.920   0.925   0.349
11219SOL    HW152344   9.879   1.002   0.300
11219SOL    HW252345   9.931   0.950   0.446
11220SOL     OW52346   9.484   7.971   6.258
11220SOL    HW152347   9.557   7.965   6.326
11220SOL    HW252348   9.496   7.898   6.190
11221SOL     OW52349   4.211   0.018   0.000
11221SOL    HW152350   4.148   0.088   8.750
11221SOL    HW252351   4.200  10.438   8.726
11222SOL     OW52352   9.912   7.356   1.783
11222SOL    HW152353   9.953   7.441   1.818
11222SOL    HW252354   9.833   7.333   1.839
11223SOL     OW52355   2.726   2.246   1.005
11223SOL    HW152356   2.798   2.190   1.046
11223SOL    HW252357   2.696   2.315   1.070
11224SOL     OW52358   0.079   1.695   6.943
11224SOL    HW152359   0.014   1.760   6.983
11224SOL    HW252360   0.030   1.635   6.879
11225SOL     OW52361   8.622   0.097   0.026
11225SOL    HW152362   8.544   0.157   0.011
11225SOL    HW252363   8.651   0.103   0.122
11226SOL     OW52364   5.333   8.519   7.524
11226SOL    HW152365   5.236   8.525   7.505
11226SOL    HW252366   5.360   8.423   7.531
11227SOL     OW52367   3.871   9.643   0.846
11227SOL    HW152368   3.931   9.563   0.849
11227SOL    HW252369   3.859   9.673   0.752
11228SOL     OW52370   6.120   9.338   0.325
11228SOL    HW152371   6.182   9.405   0.284
11228SOL    HW252372   6.168   9.285   0.394
11229SOL     OW52373   3.169   9.192   0.341
11229SOL    HW152374   3.088   9.134   0.345
11229SOL    HW252375   3.244   9.142   0.296
11230SOL     OW52376   2.818   4.952   6.337
11230SOL    HW152377   2.882   5.006   6.282
11230SOL    HW252378   2.737   5.007   6.357
11231SOL     OW52379   5.071   1.120   1.392
11231SOL    HW152380   5.008   1.197   1.379
11231SOL    HW252381   5.114   1.128   1.482
11232SOL     OW52382   1.819   0.537   1.620
11232SOL    HW152383   1.766   0.619   1.598
11232SOL    HW252384   1.847   0.540   1.716
11233SOL     OW52385   5.114  10.310   1.419
11233SOL    HW152386   5.073  10.401   1.420
11233SOL    HW252387   5.151  10.289   1.509
11234SOL     OW52388   0.983   9.540   6.102
11234SOL    HW152389   0.893   9.498   6.087
11234SOL    HW252390   1.052   9.491   6.050
11235SOL     OW52391   3.747   1.107   1.899
11235SOL    HW152392   3.749   1.166   1.980
11235SOL    HW252393   3.821   1.040   1.904
11236SOL     OW52394   6.132   4.666   8.467
11236SOL    HW152395   6.128   4.566   8.461
11236SOL    HW252396   6.091   4.697   8.552
11237SOL     OW52397   7.507   4.999   0.294
11237SOL    HW152398   7.522   5.089   0.253
11237SOL    HW252399   7.549   4.996   0.385
11238SOL     OW52400   8.520   9.315   8.077
11238SOL    HW152401   8.542   9.352   8.167
11238SOL    HW252402   8.545   9.218   8.074
11239SOL     OW52403   4.834   4.430   7.175
11239SOL    HW152404   4.899   4.496   7.212
11239SOL    HW252405   4.741   4.463   7.190
11240SOL     OW52406   3.159   4.505   7.107
11240SOL    HW152407   3.200   4.593   7.082
11240SOL    HW252408   3.126   4.459   7.025
11241SOL     OW52409   4.966   3.681   0.835
11241SOL    HW152410   4.955   3.631   0.921
11241SOL    HW252411   5.058   3.666   0.799
11242SOL     OW52412   3.991   6.220   8.050
11242SOL    HW152413   3.892   6.208   8.052
11242SOL    HW252414   4.034   6.153   8.111
11243SOL     OW52415   3.331   4.106   7.982
11243SOL    HW152416   3.286   4.021   8.011
11243SOL    HW252417   3.331   4.111   7.883
11244SOL     OW52418   0.682   5.728   1.268
11244SOL    HW152419   0.728   5.759   1.184
11244SOL    HW252420   0.583   5.739   1.258
11245SOL     OW52421   9.189   0.530   8.531
11245SOL    HW152422   9.251   0.451   8.538
11245SOL    HW252423   9.234   0.611   8.568
11246SOL     OW52424   5.594   7.538   7.897
11246SOL    HW152425   5.510   7.486   7.913
11246SOL    HW252426   5.640   7.502   7.816
11247SOL     OW52427   0.449   8.910   1.611
11247SOL    HW152428   0.511   8.981   1.645
11247SOL    HW252429   0.463   8.826   1.664
11248SOL     OW52430   4.005   8.691   0.694
11248SOL    HW152431   3.982   8.770   0.751
11248SOL    HW252432   3.975   8.708   0.600
11249SOL     OW52433   5.591   1.019   8.544
11249SOL    HW152434   5.518   0.952   8.526
11249SOL    HW252435   5.589   1.044   8.641
11250SOL     OW52436   5.019   6.510   1.658
11250SOL    HW152437   5.096   6.472   1.608
11250SOL    HW252438   5.018   6.474   1.751
11251SOL     OW52439   7.754   1.812   0.565
11251SOL    HW152440   7.701   1.862   0.633
11251SOL    HW252441   7.705   1.730   0.538
11252SOL     OW52442   2.601   8.212   6.486
11252SOL    HW152443   2.667   8.144   6.453
11252SOL    HW252444   2.616   8.298   6.438
11253SOL     OW52445   2.185   3.911   2.181
11253SOL    HW152446   2.277   3.899   2.219
11253SOL    HW252447   2.148   3.822   2.154
11254SOL     OW52448   3.088   0.179   8.183
11254SOL    HW152449   3.049   0.132   8.262
11254SOL    HW252450   3.030   0.256   8.158
11255SOL     OW52451   0.265  10.120   8.022
11255SOL    HW152452   0.296  10.031   8.055
11255SOL    HW252453   0.224  10.172   8.098
11256SOL     OW52454   0.244   9.650   8.609
11256SOL    HW152455   0.303   9.679   8.684
11256SOL    HW252456   0.148   9.669   8.632
11257SOL     OW52457   9.502   6.430   7.298
11257SOL    HW152458   9.564   6.410   7.222
11257SOL    HW252459   9.454   6.516   7.279
11258SOL     OW52460   9.650   2.223   2.084
11258SOL    HW152461   9.713   2.208   2.008
11258SOL    HW252462   9.657   2.147   2.149
11259SOL     OW52463   3.359   1.048   8.509
11259SOL    HW152464   3.353   1.117   8.437
11259SOL    HW252465   3.269   1.009   8.525
11260SOL     OW52466  10.152   4.590   1.099
11260SOL    HW152467   0.060   4.520   1.127
11260SOL    HW252468  10.083   4.548   1.039
11261SOL     OW52469   1.355  10.224   8.082
11261SOL    HW152470   1.285  10.206   8.151
11261SOL    HW252471   1.314  10.222   7.991
11262SOL     OW52472   3.406   1.978   0.299
11262SOL    HW152473   3.455   1.892   0.284
11262SOL    HW252474   3.400   2.028   0.213
11263SOL     OW52475   8.961   4.875   1.436
11263SOL    HW152476   9.025   4.919   1.373
11263SOL    HW252477   8.902   4.813   1.384
11264SOL     OW52478   8.930   9.171   8.683
11264SOL    HW152479   8.943   9.217   8.771
11264SOL    HW252480   9.019   9.146   8.646
11265SOL     OW52481   8.372  10.279   2.014
11265SOL    HW152482   8.382  10.301   2.111
11265SOL    HW252483   8.296  10.331   1.976
11266SOL     OW52484   9.654   0.918   7.064
11266SOL    HW152485   9.663   0.839   7.125
11266SOL    HW252486   9.558   0.932   7.041
11267SOL     OW52487   6.390   8.701   0.961
11267SOL    HW152488   6.384   8.606   0.931
11267SOL    HW252489   6.409   8.760   0.882
11268SOL     OW52490   1.124   5.001   7.363
11268SOL    HW152491   1.067   4.919   7.353
11268SOL    HW252492   1.213   4.985   7.322
11269SOL     OW52493   9.669  10.436   7.678
11269SOL    HW152494   9.755  10.387   7.695
11269SOL    HW252495   9.682  10.501   7.603
11270SOL     OW52496   7.725   5.560   0.737
11270SOL    HW152497   7.699   5.582   0.831
11270SOL    HW252498   7.648   5.518   0.689
11271SOL     OW52499   2.925   8.724   8.630
11271SOL    HW152500   2.889   8.771   8.711
11271SOL    HW252501   2.864   8.740   8.552
11272SOL     OW52502   3.921   7.022   2.397
11272SOL    HW152503   4.015   7.015   2.431
11272SOL    HW252504   3.905   6.950   2.330
11273SOL     OW52505   4.823   9.857   1.440
11273SOL    HW152506   4.846   9.877   1.345
11273SOL    HW252507   4.795   9.762   1.448
11274SOL     OW52508   6.015   6.840   7.106
11274SOL    HW152509   6.068   6.861   7.188
11274SOL    HW252510   5.920   6.867   7.120
11275SOL     OW52511   0.311   6.013   0.331
11275SOL    HW152512   0.271   5.962   0.254
11275SOL    HW252513   0.283   6.109   0.325
11276SOL     OW52514   1.345   9.832   0.740
11276SOL    HW152515   1.349   9.799   0.834
11276SOL    HW252516   1.438   9.836   0.702
11277SOL     OW52517   4.175   1.347   1.951
11277SOL    HW152518   4.182   1.352   2.051
11277SOL    HW252519   4.243   1.408   1.910
11278SOL     OW52520   7.604   8.414   1.609
11278SOL    HW152521   7.559   8.447   1.693
11278SOL    HW252522   7.539   8.358   1.557
11279SOL     OW52523   8.279   0.660   1.556
11279SOL    HW152524   8.333   0.576   1.564
11279SOL    HW252525   8.183   0.639   1.576
11280SOL     OW52526   8.539   6.184   0.913
11280SOL    HW152527   8.470   6.257   0.912
11280SOL    HW252528   8.539   6.141   1.004
11281SOL     OW52529   9.549   8.526   7.093
11281SOL    HW152530   9.494   8.444   7.107
11281SOL    HW252531   9.537   8.559   6.999
11282SOL     OW52532   3.220   6.266   0.794
11282SOL    HW152533   3.199   6.242   0.889
11282SOL    HW252534   3.202   6.363   0.779
11283SOL     OW52535   9.690   5.526   6.253
11283SOL    HW152536   9.725   5.502   6.163
11283SOL    HW252537   9.595   5.557   6.246
11284SOL     OW52538   8.599   4.451   6.860
11284SOL    HW152539   8.518   4.510   6.862
11284SOL    HW252540   8.632   4.435   6.953
11285SOL     OW52541   8.272   2.564   1.112
11285SOL    HW152542   8.225   2.640   1.158
11285SOL    HW252543   8.227   2.478   1.136
11286SOL     OW52544   0.690  10.134   7.379
11286SOL    HW152545   0.699  10.169   7.286
11286SOL    HW252546   0.630  10.194   7.431
11287SOL     OW52547   5.713   0.397   7.720
11287SOL    HW152548   5.791   0.335   7.729
11287SOL    HW252549   5.637   0.362   7.774
11288SOL     OW52550   8.375   9.373   7.339
11288SOL    HW152551   8.368   9.456   7.284
11288SOL    HW252552   8.296   9.367   7.401
11289SOL     OW52553   8.823   8.042   1.938
11289SOL    HW152554   8.904   7.991   1.966
11289SOL    HW252555   8.779   7.995   1.861
11290SOL     OW52556   7.527   8.071   1.611
11290SOL    HW152557   7.530   8.108   1.704
11290SOL    HW252558   7.448   8.010   1.602
11291SOL     OW52559   5.988   4.393   0.655
11291SOL    HW152560   5.956   4.430   0.742
11291SOL    HW252561   5.934   4.432   0.580
11292SOL     OW52562   3.687   7.560   1.999
11292SOL    HW152563   3.702   7.518   2.089
11292SOL    HW252564   3.657   7.491   1.934
11293SOL     OW52565   9.595   4.278   0.139
11293SOL    HW152566   9.662   4.205   0.155
11293SOL    HW252567   9.509   4.238   0.106
11294SOL     OW52568  10.026   5.301   6.809
11294SOL    HW152569  10.100   5.366   6.823
11294SOL    HW252570  10.002   5.298   6.712
11295SOL     OW52571   7.248   2.473   1.952
11295SOL    HW152572   7.186   2.474   2.030
11295SOL    HW252573   7.342   2.480   1.984
11296SOL     OW52574   0.618   3.354   6.963
11296SOL    HW152575   0.633   3.275   7.021
11296SOL    HW252576   0.704   3.379   6.918
11297SOL     OW52577   4.054   7.478   7.528
11297SOL    HW152578   4.021   7.456   7.620
11297SOL    HW252579   4.015   7.565   7.498
11298SOL     OW52580   8.329   3.396   7.412
11298SOL    HW152581   8.232   3.419   7.398
11298SOL    HW252582   8.344   3.300   7.390
11299SOL     OW52583   0.142   0.913   1.932
11299SOL    HW152584   0.179   0.993   1.978
11299SOL    HW252585   0.217   0.861   1.891
11300SOL     OW52586   2.141   0.296   1.030
11300SOL    HW152587   2.066   0.288   1.095
11300SOL    HW252588   2.205   0.220   1.043
11301SOL     OW52589   9.781   4.621   8.752
11301SOL    HW152590   9.729   4.548   8.707
11301SOL    HW252591   9.728   4.706   8.747
11302SOL     OW52592   5.044   7.213   1.743
11302SOL    HW152593   5.059   7.125   1.787
11302SOL    HW252594   4.991   7.272   1.805
11303SOL     OW52595   1.945   6.465   1.905
11303SOL    HW152596   1.872   6.465   1.836
11303SOL    HW252597   1.958   6.557   1.941
11304SOL     OW52598   3.312   0.722   8.165
11304SOL    HW152599   3.242   0.762   8.225
11304SOL    HW252600   3.271   0.649   8.110
11305SOL     OW52601   2.863  10.464   7.526
11305SOL    HW152602   2.775  10.478   7.573
11305SOL    HW252603   2.899  10.373   7.549
11306SOL     OW52604   9.680   3.590   8.278
11306SOL    HW152605   9.696   3.579   8.376
11306SOL    HW252606   9.619   3.668   8.263
11307SOL     OW52607   2.502   3.096   8.676
11307SOL    HW152608   2.553   3.136   8.752
11307SOL    HW252609   2.405   3.090   8.700
11308SOL     OW52610   0.601   8.695   7.267
11308SOL    HW152611   0.671   8.625   7.253
11308SOL    HW252612   0.511   8.655   7.250
11309SOL     OW52613   0.387   5.400   0.375
11309SOL    HW152614   0.444   5.317   0.370
11309SOL    HW252615   0.363   5.418   0.470
11310SOL     OW52616   9.608   3.532   1.144
11310SOL    HW152617   9.635   3.538   1.240
11310SOL    HW252618   9.560   3.616   1.118
11311SOL     OW52619   6.671   6.916   8.401
11311SOL    HW152620   6.580   6.957   8.396
11311SOL    HW252621   6.690   6.888   8.495
11312SOL     OW52622   6.657   1.674   7.360
11312SOL    HW152623   6.747   1.716   7.357
11312SOL    HW252624   6.649   1.604   7.288
11313SOL     OW52625   3.567   9.572   6.710
11313SOL    HW152626   3.605   9.554   6.619
11313SOL    HW252627   3.471   9.599   6.701
11314SOL     OW52628   7.665   6.343   6.931
11314SOL    HW152629   7.709   6.401   6.863
11314SOL    HW252630   7.727   6.269   6.958
11315SOL     OW52631   9.013   5.952   6.467
11315SOL    HW152632   9.015   5.921   6.372
11315SOL    HW252633   8.973   6.043   6.472
11316SOL     OW52634   5.916  10.174   8.582
11316SOL    HW152635   5.878  10.101   8.526
11316SOL    HW252636   5.870  10.260   8.559
11317SOL     OW52637   7.170   5.737   0.754
11317SOL    HW152638   7.083   5.730   0.707
11317SOL    HW252639   7.163   5.692   0.844
11318SOL     OW52640   6.087   4.064   8.781
11318SOL    HW152641   6.108   3.989   0.062
11318SOL    HW252642   5.996   4.050   8.741
11319SOL     OW52643   1.666   9.130   1.719
11319SOL    HW152644   1.651   9.032   1.724
11319SOL    HW252645   1.667   9.168   1.812
11320SOL     OW52646   7.761   9.927   0.076
11320SOL    HW152647   7.783   9.905   8.763
11320SOL    HW252648   7.821  10.000   0.108
11321SOL     OW52649   1.119   9.672   0.092
11321SOL    HW152650   1.059   9.751   0.096
11321SOL    HW252651   1.065   9.590   0.072
11322SOL     OW52652   8.610   0.351   1.981
11322SOL    HW152653   8.688   0.338   2.042
11322SOL    HW252654   8.529   0.374   2.034
11323SOL     OW52655   9.171   5.240   6.730
11323SOL    HW152656   9.148   5.314   6.794
11323SOL    HW252657   9.227   5.278   6.656
11324SOL     OW52658   7.112   5.819   0.406
11324SOL    HW152659   7.179   5.759   0.362
11324SOL    HW252660   7.074   5.774   0.486
11325SOL     OW52661   0.399   4.272   8.692
11325SOL    HW152662   0.395   4.173   8.698
11325SOL    HW252663   0.418   4.311   0.000
11326SOL     OW52664   0.947   1.261   6.414
11326SOL    HW152665   0.943   1.305   6.324
11326SOL    HW252666   0.868   1.289   6.468
11327SOL     OW52667   1.372   1.232   0.822
11327SOL    HW152668   1.336   1.271   0.907
11327SOL    HW252669   1.388   1.306   0.756
11328SOL     OW52670   3.574   1.537   7.535
11328SOL    HW152671   3.512   1.509   7.461
11328SOL    HW252672   3.636   1.608   7.502
11329SOL     OW52673   2.022   6.406   6.762
11329SOL    HW152674   1.986   6.384   6.671
11329SOL    HW252675   2.070   6.494   6.757
11330SOL     OW52676   9.888   8.147   0.787
11330SOL    HW152677   9.807   8.110   0.833
11330SOL    HW252678   9.953   8.180   0.855
11331SOL     OW52679   1.156   3.870   8.742
11331SOL    HW152680   1.093   3.936   0.001
11331SOL    HW252681   1.217   3.834   0.030
11332SOL     OW52682   7.072   8.510   8.233
11332SOL    HW152683   7.136   8.498   8.157
11332SOL    HW252684   7.017   8.592   8.218
11333SOL     OW52685   7.501   0.672   8.198
11333SOL    HW152686   7.411   0.653   8.237
11333SOL    HW252687   7.492   0.738   8.123
11334SOL     OW52688   0.078   2.252   7.226
11334SOL    HW152689   0.047   2.207   7.142
11334SOL    HW252690   0.007   2.245   7.296
11335SOL     OW52691   6.828   5.062   7.080
11335SOL    HW152692   6.780   4.988   7.127
11335SOL    HW252693   6.910   5.026   7.036
11336SOL     OW52694   6.507   8.616   1.750
11336SOL    HW152695   6.420   8.608   1.799
11336SOL    HW252696   6.545   8.707   1.763
11337SOL     OW52697   6.685   5.776   8.680
11337SOL    HW152698   6.690   5.707   8.608
11337SOL    HW252699   6.650   5.733   8.764
11338SOL     OW52700   2.940   8.462   1.770
11338SOL    HW152701   2.958   8.526   1.845
11338SOL    HW252702   2.862   8.495   1.717
11339SOL     OW52703   7.243   1.213   1.560
11339SOL    HW152704   7.216   1.281   1.628
11339SOL    HW252705   7.289   1.259   1.484
11340SOL     OW52706   6.234   5.507   7.914
11340SOL    HW152707   6.217   5.439   7.843
11340SOL    HW252708   6.164   5.500   7.985
11341SOL     OW52709   6.982   3.820   0.043
11341SOL    HW152710   7.065   3.784   0.001
11341SOL    HW252711   6.975   3.785   0.137
11342SOL     OW52712   6.010   1.924   1.518
11342SOL    HW152713   5.985   1.828   1.530
11342SOL    HW252714   6.102   1.930   1.479
11343SOL     OW52715   0.964   8.831   7.492
11343SOL    HW152716   1.002   8.751   7.446
11343SOL    HW252717   0.907   8.802   7.568
11344SOL     OW52718   8.087   7.422   8.236
11344SOL    HW152719   7.987   7.422   8.233
11344SOL    HW252720   8.123   7.394   8.147
11345SOL     OW52721   2.639   3.160   6.299
11345SOL    HW152722   2.608   3.070   6.328
11345SOL    HW252723   2.591   3.186   6.215
11346SOL     OW52724   4.551   5.479   2.356
11346SOL    HW152725   4.466   5.530   2.344
11346SOL    HW252726   4.582   5.489   2.451
11347SOL     OW52727   7.034   4.819   8.252
11347SOL    HW152728   7.085   4.869   8.321
11347SOL    HW252729   7.066   4.845   8.161
11348SOL     OW52730   0.642   8.211   7.178
11348SOL    HW152731   0.708   8.150   7.134
11348SOL    HW252732   0.631   8.184   7.274
11349SOL     OW52733   6.559   2.139   0.161
11349SOL    HW152734   6.649   2.099   0.145
11349SOL    HW252735   6.567   2.218   0.222
11350SOL     OW52736   0.508   0.084   0.763
11350SOL    HW152737   0.469   0.100   0.672
11350SOL    HW252738   0.608   0.086   0.757
11351SOL     OW52739   6.041   4.107   7.402
11351SOL    HW152740   5.954   4.156   7.389
11351SOL    HW252741   6.113   4.173   7.423
11352SOL     OW52742   8.082   4.826   7.415
11352SOL    HW152743   8.116   4.910   7.371
11352SOL    HW252744   7.989   4.841   7.447
11353SOL     OW52745   5.289   6.375   8.024
11353SOL    HW152746   5.225   6.370   7.947
11353SOL    HW252747   5.296   6.285   8.066
11354SOL     OW52748   2.763   8.000   6.397
11354SOL    HW152749   2.691   7.942   6.358
11354SOL    HW252750   2.815   8.042   6.323
11355SOL     OW52751   8.333   8.072   0.808
11355SOL    HW152752   8.370   8.098   0.897
11355SOL    HW252753   8.275   8.146   0.774
11356SOL     OW52754   7.965   1.406   7.710
11356SOL    HW152755   8.062   1.385   7.697
11356SOL    HW252756   7.916   1.391   7.624
11357SOL     OW52757   0.067   7.447   0.386
11357SOL    HW152758   0.164   7.443   0.412
11357SOL    HW252759   0.059   7.460   0.287
11358SOL     OW52760   5.449  10.182   6.600
11358SOL    HW152761   5.428  10.261   6.543
11358SOL    HW252762   5.365  10.130   6.617
11359SOL     OW52763   1.143   3.296   8.295
11359SOL    HW152764   1.098   3.371   8.246
11359SOL    HW252765   1.242   3.308   8.292
11360SOL     OW52766   9.543   9.565   8.511
11360SOL    HW152767   9.643   9.561   8.503
11360SOL    HW252768   9.504   9.606   8.429
11361SOL     OW52769   1.206   4.636   0.947
11361SOL    HW152770   1.120   4.684   0.930
11361SOL    HW252771   1.188   4.550   0.994
11362SOL     OW52772   7.550   3.115   1.511
11362SOL    HW152773   7.631   3.170   1.491
11362SOL    HW252774   7.552   3.086   1.606
11363SOL     OW52775   7.656   0.644   1.376
11363SOL    HW152776   7.707   0.560   1.358
11363SOL    HW252777   7.560   0.622   1.394
11364SOL     OW52778   6.354   6.622   2.337
11364SOL    HW152779   6.281   6.554   2.337
11364SOL    HW252780   6.394   6.627   2.245
11365SOL     OW52781   7.364   7.361   8.549
11365SOL    HW152782   7.272   7.322   8.555
11365SOL    HW252783   7.402   7.372   8.641
11366SOL     OW52784   9.921   2.407   1.160
11366SOL    HW152785   9.865   2.456   1.227
11366SOL    HW252786  10.016   2.438   1.168
11367SOL     OW52787   0.159   0.405   1.031
11367SOL    HW152788   0.236   0.372   0.976
11367SOL    HW252789   0.188   0.416   1.126
11368SOL     OW52790   0.089   7.820   1.525
11368SOL    HW152791   0.163   7.820   1.458
11368SOL    HW252792   0.119   7.867   1.608
11369SOL     OW52793   4.253   5.121   0.885
11369SOL    HW152794   4.299   5.069   0.957
11369SOL    HW252795   4.242   5.216   0.915
11370SOL     OW52796   6.833   7.843   7.027
11370SOL    HW152797   6.856   7.940   7.024
11370SOL    HW252798   6.809   7.811   6.935
11371SOL     OW52799   5.093   5.196   0.975
11371SOL    HW152800   5.025   5.258   1.014
11371SOL    HW252801   5.183   5.240   0.976
11372SOL     OW52802   1.036   2.425   6.716
11372SOL    HW152803   1.001   2.355   6.654
11372SOL    HW252804   1.047   2.386   6.807
11373SOL     OW52805  10.129   2.124   6.591
11373SOL    HW152806  10.081   2.148   6.676
11373SOL    HW252807   0.058   2.174   6.586
11374SOL     OW52808   5.346   5.867   8.550
11374SOL    HW152809   5.438   5.838   8.525
11374SOL    HW252810   5.339   5.872   8.650
11375SOL     OW52811   0.325  10.140   6.271
11375SOL    HW152812   0.374  10.226   6.256
11375SOL    HW252813   0.390  10.068   6.295
11376SOL     OW52814   1.244   7.593   7.703
11376SOL    HW152815   1.297   7.630   7.627
11376SOL    HW252816   1.291   7.613   7.789
11377SOL     OW52817   8.969   5.865   1.687
11377SOL    HW152818   8.899   5.800   1.656
11377SOL    HW252819   9.057   5.817   1.695
11378SOL     OW52820   3.807   3.594   7.003
11378SOL    HW152821   3.831   3.607   6.907
11378SOL    HW252822   3.708   3.582   7.012
11379SOL     OW52823   4.782   9.360   7.895
11379SOL    HW152824   4.837   9.298   7.952
11379SOL    HW252825   4.717   9.409   7.952
11380SOL     OW52826   3.491  10.207   6.328
11380SOL    HW152827   3.588  10.182   6.336
11380SOL    HW252828   3.448  10.149   6.259
11381SOL     OW52829   7.205   6.737   7.840
11381SOL    HW152830   7.276   6.681   7.883
11381SOL    HW252831   7.205   6.828   7.881
11382SOL     OW52832   9.458   2.352   7.846
11382SOL    HW152833   9.457   2.317   7.752
11382SOL    HW252834   9.383   2.311   7.898
11383SOL     OW52835   2.092   6.394   6.341
11383SOL    HW152836   2.063   6.361   6.251
11383SOL    HW252837   2.023   6.370   6.409
11384SOL     OW52838   0.924   1.275   0.723
11384SOL    HW152839   0.828   1.258   0.744
11384SOL    HW252840   0.933   1.313   0.631
11385SOL     OW52841   8.553   3.852   1.736
11385SOL    HW152842   8.455   3.852   1.714
11385SOL    HW252843   8.568   3.801   1.820
11386SOL     OW52844   6.837   8.797   0.636
11386SOL    HW152845   6.915   8.798   0.574
11386SOL    HW252846   6.801   8.704   0.641
11387SOL     OW52847   5.141   8.670   0.699
11387SOL    HW152848   5.096   8.585   0.672
11387SOL    HW252849   5.075   8.745   0.692
11388SOL     OW52850   5.095   9.665   6.974
11388SOL    HW152851   5.110   9.569   6.953
11388SOL    HW252852   5.130   9.686   7.065
11389SOL     OW52853   8.876   2.980   8.554
11389SOL    HW152854   8.854   2.891   8.513
11389SOL    HW252855   8.887   2.970   8.652
11390SOL     OW52856   3.805   4.381   0.791
11390SOL    HW152857   3.898   4.348   0.772
11390SOL    HW252858   3.757   4.314   0.848
11391SOL     OW52859   7.799   7.374   1.179
11391SOL    HW152860   7.845   7.445   1.125
11391SOL    HW252861   7.799   7.288   1.127
11392SOL     OW52862   0.760   9.118   6.811
11392SOL    HW152863   0.712   9.034   6.836
11392SOL    HW252864   0.734   9.144   6.718
11393SOL     OW52865   3.846   8.225   0.124
11393SOL    HW152866   3.886   8.316   0.117
11393SOL    HW252867   3.779   8.223   0.198
11394SOL     OW52868   5.711   2.217   1.649
11394SOL    HW152869   5.750   2.195   1.738
11394SOL    HW252870   5.784   2.244   1.586
11395SOL     OW52871   2.708  10.010   1.900
11395SOL    HW152872   2.695   9.925   1.848
11395SOL    HW252873   2.682   9.996   1.995
11396SOL     OW52874   1.075   6.003   8.022
11396SOL    HW152875   1.019   6.052   7.955
11396SOL    HW252876   1.047   6.030   8.115
11397SOL     OW52877   1.703   4.024   0.450
11397SOL    HW152878   1.791   4.071   0.448
11397SOL    HW252879   1.629   4.091   0.451
11398SOL     OW52880   3.358   5.102   0.006
11398SOL    HW152881   3.436   5.148   8.745
11398SOL    HW252882   3.297   5.068   8.717
11399SOL     OW52883   1.476   6.576   5.839
11399SOL    HW152884   1.575   6.571   5.831
11399SOL    HW252885   1.450   6.571   5.936
11400SOL     OW52886   0.963   8.941   0.761
11400SOL    HW152887   1.042   8.986   0.720
11400SOL    HW252888   0.911   9.007   0.815
11401SOL     OW52889   1.177   0.322   1.706
11401SOL    HW152890   1.268   0.289   1.681
11401SOL    HW252891   1.138   0.373   1.630
11402SOL     OW52892   0.585   7.401   7.907
11402SOL    HW152893   0.668   7.400   7.851
11402SOL    HW252894   0.548   7.494   7.909
11403SOL     OW52895   4.287   3.377   8.001
11403SOL    HW152896   4.306   3.279   8.006
11403SOL    HW252897   4.191   3.391   7.976
11404SOL     OW52898   7.239   6.879   7.160
11404SOL    HW152899   7.260   6.963   7.209
11404SOL    HW252900   7.192   6.816   7.221
11405SOL     OW52901   6.410   5.239   1.075
11405SOL    HW152902   6.478   5.199   1.013
11405SOL    HW252903   6.356   5.307   1.025
11406SOL     OW52904   4.373   1.901   0.353
11406SOL    HW152905   4.441   1.858   0.411
11406SOL    HW252906   4.323   1.831   0.302
11407SOL     OW52907   9.151   0.120   0.784
11407SOL    HW152908   9.060   0.157   0.805
11407SOL    HW252909   9.156   0.098   0.687
11408SOL     OW52910   5.176   3.237   8.132
11408SOL    HW152911   5.154   3.233   8.035
11408SOL    HW252912   5.257   3.295   8.146
11409SOL     OW52913   6.833   1.540   7.937
11409SOL    HW152914   6.867   1.590   8.017
11409SOL    HW252915   6.895   1.465   7.916
11410SOL     OW52916   8.510   4.248   7.246
11410SOL    HW152917   8.520   4.152   7.221
11410SOL    HW252918   8.504   4.256   7.345
11411SOL     OW52919   9.021   4.049   0.180
11411SOL    HW152920   8.951   4.033   0.249
11411SOL    HW252921   9.068   4.135   0.199
11412SOL     OW52922   9.373   7.726   6.933
11412SOL    HW152923   9.432   7.747   7.011
11412SOL    HW252924   9.420   7.749   6.848
11413SOL     OW52925   8.298   2.095   1.265
11413SOL    HW152926   8.383   2.057   1.301
11413SOL    HW252927   8.220   2.050   1.309
11414SOL     OW52928   9.447   2.771   8.072
11414SOL    HW152929   9.378   2.793   8.141
11414SOL    HW252930   9.532   2.818   8.093
11415SOL     OW52931   4.836   5.543   8.296
11415SOL    HW152932   4.868   5.637   8.284
11415SOL    HW252933   4.874   5.486   8.223
11416SOL     OW52934   1.016   5.968   7.024
11416SOL    HW152935   1.008   5.951   7.122
11416SOL    HW252936   1.096   5.921   6.988
11417SOL     OW52937   8.140   2.933   8.598
11417SOL    HW152938   8.085   2.861   8.641
11417SOL    HW252939   8.194   2.893   8.524
11418SOL     OW52940   3.135  10.263   0.852
11418SOL    HW152941   3.070  10.225   0.919
11418SOL    HW252942   3.173  10.348   0.887
11419SOL     OW52943   9.268   8.937   7.302
11419SOL    HW152944   9.309   8.960   7.215
11419SOL    HW252945   9.274   8.838   7.317
11420SOL     OW52946   5.002   2.664   7.715
11420SOL    HW152947   4.999   2.736   7.784
11420SOL    HW252948   5.013   2.705   7.624
11421SOL     OW52949   0.193   0.123   6.930
11421SOL    HW152950   0.113   0.070   6.903
11421SOL    HW252951   0.167   0.185   7.005
11422SOL     OW52952  10.071   6.217   6.727
11422SOL    HW152953  10.021   6.297   6.694
11422SOL    HW252954  10.030   6.134   6.688
11423SOL     OW52955   7.502   5.447   0.619
11423SOL    HW152956   7.430   5.382   0.641
11423SOL    HW252957   7.461   5.535   0.594
11424SOL     OW52958   9.963   7.107   7.884
11424SOL    HW152959  10.041   7.097   7.822
11424SOL    HW252960   9.922   7.198   7.872
11425SOL     OW52961   9.997   9.949   7.099
11425SOL    HW152962  10.067   9.900   7.047
11425SOL    HW252963   9.921   9.971   7.038
11426SOL     OW52964   0.202   2.486   7.153
11426SOL    HW152965   0.183   2.566   7.209
11426SOL    HW252966   0.159   2.405   7.193
11427SOL     OW52967   4.060   3.470   6.571
11427SOL    HW152968   4.086   3.387   6.522
11427SOL    HW252969   4.037   3.542   6.505
11428SOL     OW52970   3.837   8.701   1.008
11428SOL    HW152971   3.896   8.771   0.968
11428SOL    HW252972   3.893   8.621   1.033
11429SOL     OW52973   5.786   9.486   1.228
11429SOL    HW152974   5.694   9.525   1.222
11429SOL    HW252975   5.779   9.386   1.234
11430SOL     OW52976   9.727   2.771   7.665
11430SOL    HW152977   9.808   2.780   7.723
11430SOL    HW252978   9.669   2.697   7.700
11431SOL     OW52979   7.524   9.585   7.375
11431SOL    HW152980   7.551   9.666   7.324
11431SOL    HW252981   7.589   9.511   7.358
11432SOL     OW52982   0.572   3.454   1.640
11432SOL    HW152983   0.605   3.384   1.704
11432SOL    HW252984   0.473   3.460   1.646
11433SOL     OW52985   1.125   5.498   0.113
11433SOL    HW152986   1.040   5.452   0.089
11433SOL    HW252987   1.131   5.507   0.213
11434SOL     OW52988   8.408   4.685   0.206
11434SOL    HW152989   8.435   4.695   0.302
11434SOL    HW252990   8.377   4.773   0.170
11435SOL     OW52991   7.776   9.833   8.232
11435SOL    HW152992   7.842   9.801   8.300
11435SOL    HW252993   7.696   9.871   8.279
11436SOL     OW52994   3.771   3.039   8.774
11436SOL    HW152995   3.733   3.034   8.681
11436SOL    HW252996   3.864   3.075   8.770
11437SOL     OW52997   5.230   5.641   7.778
11437SOL    HW152998   5.191   5.732   7.780
11437SOL    HW252999   5.329   5.647   7.796
11438SOL     OW53000   3.692   8.363   0.820
11438SOL    HW153001   3.596   8.382   0.841
11438SOL    HW253002   3.717   8.274   0.857
11439SOL     OW53003   5.115   9.731   1.218
11439SOL    HW153004   5.148   9.791   1.291
11439SOL    HW253005   5.024   9.760   1.190
11440SOL     OW53006   4.798   3.205   7.354
11440SOL    HW153007   4.800   3.191   7.255
11440SOL    HW253008   4.868   3.149   7.397
11441SOL     OW53009   4.068   7.677   0.913
11441SOL    HW153010   4.074   7.658   1.011
11441SOL    HW253011   3.976   7.656   0.880
11442SOL     OW53012   1.433   4.408   8.239
11442SOL    HW153013   1.485   4.330   8.272
11442SOL    HW253014   1.336   4.394   8.256
11443SOL     OW53015   7.198   5.854   7.996
11443SOL    HW153016   7.118   5.914   7.997
11443SOL    HW253017   7.243   5.859   7.907
11444SOL     OW53018   8.752   2.459   2.476
11444SOL    HW153019   8.844   2.465   2.438
11444SOL    HW253020   8.746   2.379   2.536
11445SOL     OW53021   5.084   6.368   7.830
11445SOL    HW153022   5.072   6.450   7.774
11445SOL    HW253023   4.996   6.345   7.872
11446SOL     OW53024   0.263   4.406   0.514
11446SOL    HW153025   0.296   4.319   0.550
11446SOL    HW253026   0.173   4.394   0.473
11447SOL     OW53027   5.810   8.318   8.527
11447SOL    HW153028   5.878   8.257   8.486
11447SOL    HW253029   5.742   8.263   8.576
11448SOL     OW53030   1.371   7.360   0.647
11448SOL    HW153031   1.410   7.411   0.723
11448SOL    HW253032   1.411   7.269   0.643
11449SOL     OW53033   6.680  10.314   8.768
11449SOL    HW153034   6.756  10.261   8.730
11449SOL    HW253035   6.677  10.404   8.724
11450SOL     OW53036   5.781   7.465   0.635
11450SOL    HW153037   5.735   7.438   0.719
11450SOL    HW253038   5.714   7.495   0.568
11451SOL     OW53039   1.535   7.304   8.247
11451SOL    HW153040   1.544   7.397   8.211
11451SOL    HW253041   1.450   7.298   8.301
11452SOL     OW53042   6.324   0.180   8.193
11452SOL    HW153043   6.363   0.132   8.271
11452SOL    HW253044   6.335   0.279   8.205
11453SOL     OW53045   9.229   8.352   0.823
11453SOL    HW153046   9.282   8.435   0.839
11453SOL    HW253047   9.132   8.370   0.840
11454SOL     OW53048   7.892   3.116   1.116
11454SOL    HW153049   7.797   3.143   1.100
11454SOL    HW253050   7.907   3.102   1.214
11455SOL     OW53051   0.628   9.986   2.064
11455SOL    HW153052   0.701  10.050   2.045
11455SOL    HW253053   0.640   9.947   2.156
11456SOL     OW53054   2.327   2.709   8.133
11456SOL    HW153055   2.257   2.754   8.189
11456SOL    HW253056   2.367   2.633   8.185
11457SOL     OW53057   3.673   4.989   1.644
11457SOL    HW153058   3.616   4.920   1.599
11457SOL    HW253059   3.619   5.071   1.661
11458SOL     OW53060   0.843   2.979   6.425
11458SOL    HW153061   0.896   3.054   6.385
11458SOL    HW253062   0.762   2.962   6.368
11459SOL     OW53063   2.826   3.825   1.670
11459SOL    HW153064   2.835   3.855   1.765
11459SOL    HW253065   2.862   3.732   1.661
11460SOL     OW53066   7.210   4.492   1.307
11460SOL    HW153067   7.274   4.555   1.351
11460SOL    HW253068   7.200   4.517   1.211
11461SOL     OW53069   6.590   3.991   8.210
11461SOL    HW153070   6.512   3.929   8.219
11461SOL    HW253071   6.571   4.060   8.141
11462SOL     OW53072   3.647   3.028   0.338
11462SOL    HW153073   3.672   2.958   0.271
11462SOL    HW253074   3.559   3.005   0.379
11463SOL     OW53075   5.126   3.848   1.227
11463SOL    HW153076   5.190   3.819   1.156
11463SOL    HW253077   5.177   3.884   1.305
11464SOL     OW53078   0.347   4.683   1.906
11464SOL    HW153079   0.390   4.611   1.961
11464SOL    HW253080   0.376   4.772   1.940
11465SOL     OW53081   4.076   6.742   0.278
11465SOL    HW153082   4.173   6.718   0.286
11465SOL    HW253083   4.060   6.781   0.187
11466SOL     OW53084   7.988   2.318   6.931
11466SOL    HW153085   7.962   2.356   6.842
11466SOL    HW253086   7.933   2.361   7.003
11467SOL     OW53087   6.658   9.730   0.967
11467SOL    HW153088   6.708   9.649   0.935
11467SOL    HW253089   6.560   9.714   0.960
11468SOL     OW53090   7.364   6.157   0.993
11468SOL    HW153091   7.457   6.193   0.994
11468SOL    HW253092   7.357   6.083   0.927
11469SOL     OW53093   8.785   8.600   2.636
11469SOL    HW153094   8.862   8.664   2.636
11469SOL    HW253095   8.817   8.510   2.605
11470SOL     OW53096   8.087   1.687   8.262
11470SOL    HW153097   8.160   1.622   8.247
11470SOL    HW253098   8.037   1.663   8.346
11471SOL     OW53099  10.119   7.437   8.645
11471SOL    HW153100  10.044   7.503   8.648
11471SOL    HW253101   0.005   7.433   8.735
11472SOL     OW53102   8.815   7.039   8.443
11472SOL    HW153103   8.850   7.129   8.419
11472SOL    HW253104   8.732   7.048   8.499
11473SOL     OW53105   4.532   5.476   7.626
11473SOL    HW153106   4.529   5.576   7.615
11473SOL    HW253107   4.627   5.447   7.634
11474SOL     OW53108   0.479   9.265   7.803
11474SOL    HW153109   0.406   9.297   7.742
11474SOL    HW253110   0.480   9.165   7.805
11475SOL     OW53111   9.134   8.105   0.051
11475SOL    HW153112   9.147   8.141   0.143
11475SOL    HW253113   9.037   8.087   0.034
11476SOL     OW53114   6.755   5.274   0.602
11476SOL    HW153115   6.795   5.308   0.517
11476SOL    HW253116   6.684   5.207   0.581
11477SOL     OW53117   4.477   8.671   6.989
11477SOL    HW153118   4.424   8.630   7.063
11477SOL    HW253119   4.558   8.615   6.971
11478SOL     OW53120   0.859   2.914   1.792
11478SOL    HW153121   0.879   3.001   1.836
11478SOL    HW253122   0.925   2.845   1.823
11479SOL     OW53123   0.425   0.693   7.349
11479SOL    HW153124   0.493   0.655   7.411
11479SOL    HW253125   0.365   0.620   7.317
11480SOL     OW53126   2.336   4.065   6.904
11480SOL    HW153127   2.366   4.011   6.825
11480SOL    HW253128   2.294   4.150   6.871
11481SOL     OW53129   3.703  10.004   6.864
11481SOL    HW153130   3.681   9.910   6.891
11481SOL    HW253131   3.745  10.052   6.941
11482SOL     OW53132   5.567   5.697   0.042
11482SOL    HW153133   5.524   5.680   0.130
11482SOL    HW253134   5.523   5.640   8.754
11483SOL     OW53135   2.703   1.487   7.332
11483SOL    HW153136   2.688   1.425   7.409
11483SOL    HW253137   2.699   1.582   7.365
11484SOL     OW53138   2.754   2.806   0.475
11484SOL    HW153139   2.789   2.736   0.536
11484SOL    HW253140   2.656   2.793   0.461
11485SOL     OW53141   4.809   4.038   8.530
11485SOL    HW153142   4.749   4.113   8.559
11485SOL    HW253143   4.785   4.009   8.437
11486SOL     OW53144   2.398   2.768   0.712
11486SOL    HW153145   2.310   2.743   0.672
11486SOL    HW253146   2.446   2.686   0.743
11487SOL     OW53147   1.542   8.795   5.980
11487SOL    HW153148   1.638   8.817   5.997
11487SOL    HW253149   1.537   8.713   5.922
11488SOL     OW53150   3.257   1.274   6.086
11488SOL    HW153151   3.321   1.268   6.163
11488SOL    HW253152   3.182   1.336   6.111
11489SOL     OW53153   3.371   3.490   7.535
11489SOL    HW153154   3.359   3.397   7.571
11489SOL    HW253155   3.375   3.555   7.610
11490SOL     OW53156   1.996   6.341   1.384
11490SOL    HW153157   2.011   6.369   1.289
11490SOL    HW253158   2.060   6.267   1.407
11491SOL     OW53159   2.445   7.670   8.771
11491SOL    HW153160   2.377   7.610   8.729
11491SOL    HW253161   2.471   7.634   0.078
11492SOL     OW53162   7.347   6.878   8.547
11492SOL    HW153163   7.302   6.882   8.458
11492SOL    HW253164   7.280   6.856   8.617
11493SOL     OW53165   3.567   1.639   1.162
11493SOL    HW153166   3.577   1.547   1.123
11493SOL    HW253167   3.500   1.690   1.110
11494SOL     OW53168   1.016   4.813   8.473
11494SOL    HW153169   0.972   4.750   8.537
11494SOL    HW253170   1.114   4.792   8.468
11495SOL     OW53171   9.809   9.415   1.336
11495SOL    HW153172   9.871   9.385   1.409
11495SOL    HW253173   9.848   9.494   1.290
11496SOL     OW53174   6.499   2.633   8.583
11496SOL    HW153175   6.477   2.596   8.673
11496SOL    HW253176   6.591   2.674   8.585
11497SOL     OW53177  10.095   2.058   0.999
11497SOL    HW153178  10.027   2.042   1.071
11497SOL    HW253179  10.075   2.145   0.953
11498SOL     OW53180   4.155   6.558   8.671
11498SOL    HW153181   4.096   6.548   8.752
11498SOL    HW253182   4.138   6.483   8.608
11499SOL     OW53183   4.238   9.336   8.101
11499SOL    HW153184   4.333   9.327   8.131
11499SOL    HW253185   4.216   9.264   8.036
11500SOL     OW53186   8.330   0.110   6.500
11500SOL    HW153187   8.402   0.044   6.525
11500SOL    HW253188   8.310   0.101   6.402
11501SOL     OW53189   7.292  10.032   1.352
11501SOL    HW153190   7.244  10.054   1.267
11501SOL    HW253191   7.389  10.054   1.343
11502SOL     OW53192   2.498   4.147   8.617
11502SOL    HW153193   2.484   4.059   8.661
11502SOL    HW253194   2.448   4.218   8.666
11503SOL     OW53195   9.186   5.744   7.721
11503SOL    HW153196   9.113   5.715   7.783
11503SOL    HW253197   9.245   5.666   7.699
11504SOL     OW53198   3.297   7.814   6.846
11504SOL    HW153199   3.317   7.775   6.936
11504SOL    HW253200   3.347   7.900   6.835
11505SOL     OW53201   0.255   3.110   1.204
11505SOL    HW153202   0.273   3.207   1.217
11505SOL    HW253203   0.194   3.098   1.125
11506SOL     OW53204   6.225   8.000   2.406
11506SOL    HW153205   6.182   8.061   2.473
11506SOL    HW253206   6.308   7.961   2.446
11507SOL     OW53207   6.188   4.406   1.919
11507SOL    HW153208   6.222   4.444   2.005
11507SOL    HW253209   6.169   4.481   1.855
11508SOL     OW53210   2.408   6.997   6.985
11508SOL    HW153211   2.493   6.958   7.019
11508SOL    HW253212   2.425   7.042   6.897
11509SOL     OW53213   3.965   1.119   7.666
11509SOL    HW153214   3.912   1.172   7.600
11509SOL    HW253215   3.960   1.163   7.755
11510SOL     OW53216   9.094   8.594   7.518
11510SOL    HW153217   9.133   8.659   7.582
11510SOL    HW253218   9.011   8.554   7.557
11511SOL     OW53219   1.457   2.228   7.755
11511SOL    HW153220   1.494   2.191   7.669
11511SOL    HW253221   1.363   2.260   7.740
11512SOL     OW53222   7.128   8.310   7.452
11512SOL    HW153223   7.216   8.353   7.472
11512SOL    HW253224   7.097   8.259   7.532
11513SOL     OW53225   0.556   7.495   1.915
11513SOL    HW153226   0.616   7.566   1.952
11513SOL    HW253227   0.484   7.537   1.860
11514SOL     OW53228   5.469   2.136   6.787
11514SOL    HW153229   5.432   2.151   6.694
11514SOL    HW253230   5.445   2.214   6.844
11515SOL     OW53231   6.946   9.956   8.311
11515SOL    HW153232   6.862   9.951   8.257
11515SOL    HW253233   7.000   9.873   8.296
11516SOL     OW53234   2.175   5.897   1.420
11516SOL    HW153235   2.245   5.845   1.370
11516SOL    HW253236   2.103   5.835   1.450
11517SOL     OW53237   1.182   9.080   0.687
11517SOL    HW153238   1.190   9.148   0.760
11517SOL    HW253239   1.273   9.049   0.660
11518SOL     OW53240   6.249   8.929   8.415
11518SOL    HW153241   6.203   8.899   8.331
11518SOL    HW253242   6.185   8.923   8.492
11519SOL     OW53243   0.077   5.229   0.937
11519SOL    HW153244  10.150   5.197   0.895
11519SOL    HW253245   0.076   5.329   0.943
11520SOL     OW53246   5.495  10.363   1.559
11520SOL    HW153247   5.506  10.266   1.582
11520SOL    HW253248   5.533  10.380   1.468
11521SOL     OW53249   1.484   5.433   8.495
11521SOL    HW153250   1.395   5.439   8.541
11521SOL    HW253251   1.553   5.480   8.551
11522SOL     OW53252   5.411   9.877   6.263
11522SOL    HW153253   5.437   9.973   6.259
11522SOL    HW253254   5.335   9.865   6.327
11523SOL     OW53255   4.024   8.268   6.640
11523SOL    HW153256   4.105   8.303   6.594
11523SOL    HW253257   3.949   8.333   6.630
11524SOL     OW53258   6.169   7.405   1.787
11524SOL    HW153259   6.214   7.357   1.712
11524SOL    HW253260   6.080   7.440   1.756
11525SOL     OW53261   7.802   7.835   1.098
11525SOL    HW153262   7.804   7.886   1.013
11525SOL    HW253263   7.713   7.789   1.108
11526SOL     OW53264   9.874  10.018   8.740
11526SOL    HW153265   9.859  10.049   0.052
11526SOL    HW253266   9.966  10.043   8.710
11527SOL     OW53267   2.908   1.329   8.700
11527SOL    HW153268   2.855   1.385   8.636
11527SOL    HW253269   2.901   1.233   8.674
11528SOL     OW53270   1.460   9.958   8.716
11528SOL    HW153271   1.498   9.995   0.019
11528SOL    HW253272   1.509   9.997   8.638
11529SOL     OW53273   3.933   5.208   0.555
11529SOL    HW153274   3.957   5.191   0.650
11529SOL    HW253275   3.853   5.153   0.531
11530SOL     OW53276   2.518   1.387   7.781
11530SOL    HW153277   2.511   1.313   7.847
11530SOL    HW253278   2.429   1.403   7.739
11531SOL     OW53279   9.134   8.240   7.840
11531SOL    HW153280   9.034   8.249   7.845
11531SOL    HW253281   9.163   8.158   7.888
11532SOL     OW53282   0.420   3.881   7.588
11532SOL    HW153283   0.364   3.892   7.505
11532SOL    HW253284   0.419   3.966   7.640
11533SOL     OW53285   4.659   4.236   8.636
11533SOL    HW153286   4.560   4.248   8.629
11533SOL    HW253287   4.704   4.324   8.621
11534SOL     OW53288   8.044   7.058   6.731
11534SOL    HW153289   8.082   7.046   6.640
11534SOL    HW253290   7.956   7.011   6.738
11535SOL     OW53291   4.372   5.323   8.625
11535SOL    HW153292   4.390   5.416   8.592
11535SOL    HW253293   4.296   5.283   8.574
11536SOL     OW53294   8.307   8.789   1.021
11536SOL    HW153295   8.306   8.865   0.956
11536SOL    HW253296   8.368   8.811   1.097
11537SOL     OW53297   0.885   4.629   1.597
11537SOL    HW153298   0.917   4.721   1.622
11537SOL    HW253299   0.798   4.637   1.548
11538SOL     OW53300   5.516   4.091   0.114
11538SOL    HW153301   5.561   4.010   0.150
11538SOL    HW253302   5.431   4.107   0.164
11539SOL     OW53303   8.711   5.123   6.222
11539SOL    HW153304   8.616   5.112   6.193
11539SOL    HW253305   8.763   5.169   6.149
11540SOL     OW53306   9.856   4.841   1.198
11540SOL    HW153307   9.925   4.796   1.254
11540SOL    HW253308   9.896   4.868   1.111
11541SOL     OW53309   0.521   7.707   2.159
11541SOL    HW153310   0.508   7.751   2.248
11541SOL    HW253311   0.432   7.692   2.116
11542SOL     OW53312   3.386   9.386   0.931
11542SOL    HW153313   3.306   9.418   0.981
11542SOL    HW253314   3.413   9.453   0.863
11543SOL     OW53315   0.646   7.946   7.594
11543SOL    HW153316   0.612   7.975   7.683
11543SOL    HW253317   0.629   8.017   7.526
11544SOL     OW53318   9.009   6.130   1.400
11544SOL    HW153319   8.995   6.038   1.361
11544SOL    HW253320   9.051   6.189   1.331
11545SOL     OW53321   8.075   8.052   1.555
11545SOL    HW153322   8.117   8.119   1.493
11545SOL    HW253323   7.976   8.055   1.545
11546SOL     OW53324   7.369   2.750   6.810
11546SOL    HW153325   7.468   2.755   6.793
11546SOL    HW253326   7.344   2.819   6.878
11547SOL     OW53327   7.551   5.825   7.916
11547SOL    HW153328   7.535   5.865   8.006
11547SOL    HW253329   7.618   5.751   7.923
11548SOL     OW53330   0.368   6.576   7.711
11548SOL    HW153331   0.387   6.656   7.655
11548SOL    HW253332   0.349   6.497   7.652
11549SOL     OW53333   6.692   0.840   8.140
11549SOL    HW153334   6.791   0.829   8.127
11549SOL    HW253335   6.675   0.891   8.224
11550SOL     OW53336   4.946  10.221   1.733
11550SOL    HW153337   5.040  10.235   1.701
11550SOL    HW253338   4.905  10.310   1.754
11551SOL     OW53339   4.782   8.055   0.502
11551SOL    HW153340   4.821   8.104   0.580
11551SOL    HW253341   4.754   7.964   0.530
11552SOL     OW53342   2.735   5.968   7.292
11552SOL    HW153343   2.698   5.899   7.354
11552SOL    HW253344   2.729   6.058   7.334
11553SOL     OW53345   6.770   3.482   8.529
11553SOL    HW153346   6.851   3.460   8.475
11553SOL    HW253347   6.779   3.575   8.566
11554SOL     OW53348   2.972   2.736   7.978
11554SOL    HW153349   2.898   2.779   8.029
11554SOL    HW253350   2.952   2.638   7.967
11555SOL     OW53351   4.613   0.645   7.170
11555SOL    HW153352   4.618   0.714   7.098
11555SOL    HW253353   4.558   0.568   7.139
11556SOL     OW53354   8.502   1.688   7.086
11556SOL    HW153355   8.403   1.677   7.077
11556SOL    HW253356   8.523   1.723   7.178
11557SOL     OW53357   3.482   7.943   6.549
11557SOL    HW153358   3.408   7.964   6.485
11557SOL    HW253359   3.459   7.979   6.639
11558SOL     OW53360   9.551   3.873   0.201
11558SOL    HW153361   9.473   3.918   0.244
11558SOL    HW253362   9.524   3.835   0.113
11559SOL     OW53363   4.221   8.890   2.027
11559SOL    HW153364   4.187   8.853   2.113
11559SOL    HW253365   4.309   8.936   2.043
11560SOL     OW53366   3.791   0.569   7.777
11560SOL    HW153367   3.693   0.586   7.785
11560SOL    HW253368   3.817   0.573   7.680
11561SOL     OW53369   4.957   1.733   0.756
11561SOL    HW153370   5.016   1.764   0.831
11561SOL    HW253371   4.978   1.637   0.736
11562SOL     OW53372   3.576   0.332   8.198
11562SOL    HW153373   3.476   0.345   8.198
11562SOL    HW253374   3.618   0.403   8.255
11563SOL     OW53375   1.494   0.787   0.771
11563SOL    HW153376   1.520   0.704   0.821
11563SOL    HW253377   1.577   0.837   0.745
11564SOL     OW53378   1.707   9.930   6.398
11564SOL    HW153379   1.727  10.001   6.331
11564SOL    HW253380   1.791   9.878   6.417
11565SOL     OW53381   7.758   5.617   6.482
11565SOL    HW153382   7.764   5.518   6.466
11565SOL    HW253383   7.740   5.663   6.396
11566SOL     OW53384   3.988   9.946   0.647
11566SOL    HW153385   4.073   9.927   0.696
11566SOL    HW253386   3.942   9.860   0.626
11567SOL     OW53387   5.980   0.451   0.534
11567SOL    HW153388   6.023   0.410   0.614
11567SOL    HW253389   6.027   0.537   0.512
11568SOL     OW53390   2.690   7.199   6.989
11568SOL    HW153391   2.625   7.235   7.056
11568SOL    HW253392   2.708   7.269   6.920
11569SOL     OW53393   7.452   9.007   8.057
11569SOL    HW153394   7.494   9.096   8.076
11569SOL    HW253395   7.522   8.942   8.029
11570SOL     OW53396   9.956   5.237   1.284
11570SOL    HW153397  10.019   5.176   1.237
11570SOL    HW253398   9.966   5.330   1.249
11571SOL     OW53399   9.281   3.665   8.385
11571SOL    HW153400   9.278   3.630   8.479
11571SOL    HW253401   9.188   3.685   8.354
11572SOL     OW53402   3.150   4.452   0.498
11572SOL    HW153403   3.063   4.404   0.503
11572SOL    HW253404   3.145   4.523   0.429
11573SOL     OW53405   5.818   3.750   8.389
11573SOL    HW153406   5.794   3.846   8.404
11573SOL    HW253407   5.759   3.711   8.318
11574SOL     OW53408   3.000   0.656   2.013
11574SOL    HW153409   2.902   0.663   1.993
11574SOL    HW253410   3.021   0.706   2.097
11575SOL     OW53411   7.238   5.013   0.311
11575SOL    HW153412   7.201   5.032   0.220
11575SOL    HW253413   7.336   4.996   0.305
11576SOL     OW53414   6.078   4.363   7.964
11576SOL    HW153415   6.017   4.368   7.885
11576SOL    HW253416   6.115   4.454   7.983
11577SOL     OW53417   6.377   8.277   7.175
11577SOL    HW153418   6.310   8.208   7.146
11577SOL    HW253419   6.454   8.277   7.111
11578SOL     OW53420   1.716   1.071   7.985
11578SOL    HW153421   1.768   1.120   8.056
11578SOL    HW253422   1.708   1.129   7.904
11579SOL     OW53423  10.121  10.296   7.993
11579SOL    HW153424  10.120  10.251   8.082
11579SOL    HW253425   0.037  10.364   7.991
11580SOL     OW53426   9.350   5.905   6.199
11580SOL    HW153427   9.423   5.878   6.262
11580SOL    HW253428   9.320   5.825   6.147
11581SOL     OW53429   4.941   4.130   1.878
11581SOL    HW153430   4.944   4.114   1.977
11581SOL    HW253431   4.872   4.200   1.858
11582SOL     OW53432   1.673   1.601   1.328
11582SOL    HW153433   1.773   1.605   1.329
11582SOL    HW253434   1.643   1.539   1.255
11583SOL     OW53435   8.639   5.134   0.657
11583SOL    HW153436   8.624   5.158   0.753
11583SOL    HW253437   8.556   5.152   0.605
11584SOL     OW53438   6.862   9.462   2.169
11584SOL    HW153439   6.806   9.536   2.132
11584SOL    HW253440   6.939   9.501   2.220
11585SOL     OW53441   2.800   9.373   6.623
11585SOL    HW153442   2.705   9.398   6.606
11585SOL    HW253443   2.857   9.399   6.545
11586SOL     OW53444   0.961   9.034   8.570
11586SOL    HW153445   1.032   8.984   8.620
11586SOL    HW253446   0.903   9.083   8.634
11587SOL     OW53447   4.216   2.035   0.540
11587SOL    HW153448   4.190   2.131   0.526
11587SOL    HW253449   4.271   2.004   0.462
11588SOL     OW53450   3.572   8.034   7.508
11588SOL    HW153451   3.586   8.035   7.607
11588SOL    HW253452   3.476   8.017   7.487
11589SOL     OW53453   3.706  10.198   1.182
11589SOL    HW153454   3.640  10.135   1.223
11589SOL    HW253455   3.734  10.163   1.092
11590SOL     OW53456   0.433   9.852   1.248
11590SOL    HW153457   0.489   9.913   1.192
11590SOL    HW253458   0.338   9.882   1.245
11591SOL     OW53459   4.397   2.262   7.221
11591SOL    HW153460   4.309   2.253   7.175
11591SOL    HW253461   4.467   2.216   7.167
11592SOL     OW53462   5.290   2.897   0.713
11592SOL    HW153463   5.299   2.975   0.652
11592SOL    HW253464   5.300   2.927   0.808
11593SOL     OW53465   1.794   7.983   8.234
11593SOL    HW153466   1.828   7.897   8.271
11593SOL    HW253467   1.742   8.032   8.304
11594SOL     OW53468   9.907   2.049   1.224
11594SOL    HW153469   9.981   2.087   1.280
11594SOL    HW253470   9.820   2.090   1.252
11595SOL     OW53471   0.217   7.913   8.284
11595SOL    HW153472   0.230   7.846   8.356
11595SOL    HW253473   0.277   7.891   8.207
11596SOL     OW53474   2.287   3.823   7.041
11596SOL    HW153475   2.315   3.849   7.134
11596SOL    HW253476   2.282   3.904   6.984
11597SOL     OW53477   0.782   5.007   7.331
11597SOL    HW153478   0.847   4.931   7.338
11597SOL    HW253479   0.734   5.018   7.418
11598SOL     OW53480   6.692   6.337   0.471
11598SOL    HW153481   6.680   6.335   0.372
11598SOL    HW253482   6.765   6.402   0.495
11599SOL     OW53483  10.061   6.026   0.077
11599SOL    HW153484  10.080   5.952   0.142
11599SOL    HW253485  10.036   5.987   8.770
11600SOL     OW53486   6.762   4.799   8.211
11600SOL    HW153487   6.739   4.877   8.153
11600SOL    HW253488   6.859   4.803   8.235
11601SOL     OW53489   1.798   1.833   1.859
11601SOL    HW153490   1.746   1.918   1.868
11601SOL    HW253491   1.766   1.767   1.926
11602SOL     OW53492   5.623   9.722   1.999
11602SOL    HW153493   5.568   9.786   2.054
11602SOL    HW253494   5.615   9.630   2.037
11603SOL     OW53495   7.781   7.715   8.237
11603SOL    HW153496   7.858   7.707   8.300
11603SOL    HW253497   7.696   7.725   8.290
11604SOL     OW53498   8.036   3.400   6.351
11604SOL    HW153499   7.990   3.472   6.300
11604SOL    HW253500   8.015   3.311   6.309
11605SOL     OW53501   5.081   3.172   0.954
11605SOL    HW153502   5.028   3.200   1.034
11605SOL    HW253503   5.027   3.107   0.899
11606SOL     OW53504   9.036   3.611   0.941
11606SOL    HW153505   9.066   3.610   0.846
11606SOL    HW253506   8.939   3.633   0.946
11607SOL     OW53507   7.565   7.465   1.284
11607SOL    HW153508   7.651   7.426   1.251
11607SOL    HW253509   7.488   7.413   1.247
11608SOL     OW53510   6.689   8.991   1.008
11608SOL    HW153511   6.629   9.036   0.942
11608SOL    HW253512   6.768   8.952   0.960
11609SOL     OW53513   2.739  10.358   1.421
11609SOL    HW153514   2.656  10.304   1.421
11609SOL    HW253515   2.795  10.334   1.501
11610SOL     OW53516   7.804   7.973   0.860
11610SOL    HW153517   7.739   8.047   0.844
11610SOL    HW253518   7.853   7.952   0.775
11611SOL     OW53519   4.909   6.397   1.192
11611SOL    HW153520   4.964   6.476   1.167
11611SOL    HW253521   4.860   6.363   1.112
11612SOL     OW53522   1.475   3.768   7.759
11612SOL    HW153523   1.442   3.776   7.665
11612SOL    HW253524   1.556   3.710   7.761
11613SOL     OW53525   6.013   8.045   2.248
11613SOL    HW153526   5.960   8.114   2.298
11613SOL    HW253527   6.096   8.024   2.300
11614SOL     OW53528   3.499   8.176   0.085
11614SOL    HW153529   3.495   8.109   0.011
11614SOL    HW253530   3.551   8.137   0.161
11615SOL     OW53531   8.794   0.318   2.172
11615SOL    HW153532   8.887   0.285   2.182
11615SOL    HW253533   8.737   0.281   2.246
11616SOL     OW53534   4.520   1.905   7.476
11616SOL    HW153535   4.494   1.837   7.408
11616SOL    HW253536   4.619   1.920   7.472
11617SOL     OW53537   0.583   3.097   7.104
11617SOL    HW153538   0.520   3.055   7.039
11617SOL    HW253539   0.587   3.041   7.187
11618SOL     OW53540   2.171   4.185   8.398
11618SOL    HW153541   2.139   4.209   8.490
11618SOL    HW253542   2.256   4.234   8.379
11619SOL     OW53543   2.833   5.707   0.139
11619SOL    HW153544   2.744   5.674   0.108
11619SOL    HW253545   2.905   5.663   0.085
11620SOL     OW53546   4.035   2.045   1.263
11620SOL    HW153547   3.947   2.015   1.299
11620SOL    HW253548   4.076   1.972   1.209
11621SOL     OW53549   9.504   8.154   0.379
11621SOL    HW153550   9.564   8.142   0.458
11621SOL    HW253551   9.432   8.084   0.382
11622SOL     OW53552   1.747   2.626   8.575
11622SOL    HW153553   1.681   2.682   8.625
11622SOL    HW253554   1.708   2.597   8.488
11623SOL     OW53555   4.250   9.513   6.889
11623SOL    HW153556   4.180   9.578   6.918
11623SOL    HW253557   4.338   9.559   6.882
11624SOL     OW53558   1.902   5.688   1.835
11624SOL    HW153559   1.840   5.764   1.852
11624SOL    HW253560   1.866   5.631   1.761
11625SOL     OW53561   4.862   6.857   0.756
11625SOL    HW153562   4.808   6.842   0.839
11625SOL    HW253563   4.805   6.840   0.676
11626SOL     OW53564   8.494   0.475   1.322
11626SOL    HW153565   8.472   0.461   1.418
11626SOL    HW253566   8.553   0.400   1.290
11627SOL     OW53567   4.196   6.208   7.865
11627SOL    HW153568   4.116   6.220   7.924
11627SOL    HW253569   4.176   6.138   7.796
11628SOL     OW53570   3.134  10.155   6.946
11628SOL    HW153571   3.151  10.064   6.984
11628SOL    HW253572   3.213  10.184   6.893
11629SOL     OW53573   2.295   6.884   0.256
11629SOL    HW153574   2.231   6.844   0.321
11629SOL    HW253575   2.387   6.849   0.274
11630SOL     OW53576   3.432   0.005   1.833
11630SOL    HW153577   3.515   0.005   1.888
11630SOL    HW253578   3.426   0.091   1.781
11631SOL     OW53579   3.510   6.756   1.247
11631SOL    HW153580   3.595   6.782   1.202
11631SOL    HW253581   3.531   6.706   1.331
11632SOL     OW53582   2.404   9.267   0.703
11632SOL    HW153583   2.442   9.322   0.777
11632SOL    HW253584   2.312   9.236   0.729
11633SOL     OW53585   6.620   7.870   1.667
11633SOL    HW153586   6.610   7.771   1.652
11633SOL    HW253587   6.701   7.887   1.723
11634SOL     OW53588   3.828   5.950   1.299
11634SOL    HW153589   3.761   5.949   1.373
11634SOL    HW253590   3.903   6.011   1.323
11635SOL     OW53591   4.691   0.027   7.839
11635SOL    HW153592   4.704   0.086   7.760
11635SOL    HW253593   4.664   0.082   7.918
11636SOL     OW53594   1.776   8.489   7.638
11636SOL    HW153595   1.838   8.540   7.696
11636SOL    HW253596   1.765   8.537   7.551
11637SOL     OW53597   3.390   2.786   7.259
11637SOL    HW153598   3.342   2.699   7.269
11637SOL    HW253599   3.430   2.792   7.168
11638SOL     OW53600   8.117   5.840   7.861
11638SOL    HW153601   8.125   5.895   7.944
11638SOL    HW253602   8.205   5.799   7.839
11639SOL     OW53603   8.243   4.312   0.545
11639SOL    HW153604   8.198   4.292   0.632
11639SOL    HW253605   8.324   4.369   0.561
11640SOL     OW53606   4.499   9.560   0.024
11640SOL    HW153607   4.544   9.645   0.050
11640SOL    HW253608   4.546   9.520   8.727
11641SOL     OW53609   4.651   4.953   1.502
11641SOL    HW153610   4.740   4.998   1.504
11641SOL    HW253611   4.632   4.921   1.409
11642SOL     OW53612   5.866   4.542   0.863
11642SOL    HW153613   5.771   4.520   0.885
11642SOL    HW253614   5.868   4.614   0.793
11643SOL     OW53615   7.097   1.927   1.690
11643SOL    HW153616   7.157   2.003   1.716
11643SOL    HW253617   7.002   1.956   1.699
11644SOL     OW53618   5.812   8.756   8.577
11644SOL    HW153619   5.766   8.719   8.496
11644SOL    HW253620   5.848   8.682   8.632
11645SOL     OW53621   7.966   3.987   6.069
11645SOL    HW153622   7.930   4.038   6.147
11645SOL    HW253623   8.011   4.049   6.006
11646SOL     OW53624   9.069   0.772   0.420
11646SOL    HW153625   9.066   0.870   0.400
11646SOL    HW253626   8.976   0.735   0.417
11647SOL     OW53627   1.271   3.398   0.978
11647SOL    HW153628   1.252   3.310   0.935
11647SOL    HW253629   1.202   3.418   1.048
11648SOL     OW53630   5.946   6.785   2.298
11648SOL    HW153631   6.037   6.798   2.338
11648SOL    HW253632   5.877   6.814   2.364
11649SOL     OW53633   3.521   4.558   6.319
11649SOL    HW153634   3.516   4.466   6.359
11649SOL    HW253635   3.516   4.550   6.219
11650SOL     OW53636   3.516   1.723   0.240
11650SOL    HW153637   3.428   1.705   0.196
11650SOL    HW253638   3.561   1.637   0.263
11651SOL     OW53639   7.519   5.390   6.361
11651SOL    HW153640   7.489   5.327   6.289
11651SOL    HW253641   7.617   5.381   6.375
11652SOL     OW53642   1.089   2.861   6.231
11652SOL    HW153643   0.997   2.823   6.224
11652SOL    HW253644   1.154   2.799   6.186
11653SOL     OW53645   8.075   1.400   0.677
11653SOL    HW153646   8.174   1.418   0.681
11653SOL    HW253647   8.026   1.476   0.720
11654SOL     OW53648   8.258  10.341   6.686
11654SOL    HW153649   8.262  10.399   6.768
11654SOL    HW253650   8.168  10.350   6.643
11655SOL     OW53651   4.801   6.843   2.363
11655SOL    HW153652   4.859   6.818   2.440
11655SOL    HW253653   4.806   6.941   2.346
11656SOL     OW53654   7.613   1.994   0.383
11656SOL    HW153655   7.522   1.961   0.404
11656SOL    HW253656   7.681   1.936   0.427
11657SOL     OW53657   5.045   9.953   7.255
11657SOL    HW153658   5.115   9.883   7.239
11657SOL    HW253659   4.980   9.953   7.179
11658SOL     OW53660   4.284   8.282   1.374
11658SOL    HW153661   4.278   8.295   1.473
11658SOL    HW253662   4.238   8.357   1.327
11659SOL     OW53663   2.025   0.950   6.071
11659SOL    HW153664   1.940   0.989   6.107
11659SOL    HW253665   2.007   0.903   5.985
11660SOL     OW53666   9.790   1.183   8.066
11660SOL    HW153667   9.815   1.105   8.122
11660SOL    HW253668   9.824   1.267   8.108
11661SOL     OW53669   9.203   4.034   1.165
11661SOL    HW153670   9.194   3.942   1.126
11661SOL    HW253671   9.232   4.097   1.093
11662SOL     OW53672   6.460   4.815   0.479
11662SOL    HW153673   6.373   4.806   0.527
11662SOL    HW253674   6.453   4.771   0.390
11663SOL     OW53675   8.620   6.165   1.693
11663SOL    HW153676   8.712   6.133   1.672
11663SOL    HW253677   8.623   6.228   1.770
11664SOL     OW53678   3.171   5.467   1.985
11664SOL    HW153679   3.091   5.516   2.020
11664SOL    HW253680   3.194   5.393   2.048
11665SOL     OW53681   2.250   9.787   6.254
11665SOL    HW153682   2.225   9.720   6.325
11665SOL    HW253683   2.340   9.763   6.216
11666SOL     OW53684   5.652   1.248   1.579
11666SOL    HW153685   5.732   1.302   1.607
11666SOL    HW253686   5.630   1.267   1.484
11667SOL     OW53687   8.662   3.222   6.878
11667SOL    HW153688   8.737   3.240   6.941
11667SOL    HW253689   8.687   3.253   6.787
11668SOL     OW53690   9.160   6.149   2.052
11668SOL    HW153691   9.174   6.056   2.085
11668SOL    HW253692   9.114   6.203   2.123
11669SOL     OW53693   3.489   3.058   7.569
11669SOL    HW153694   3.557   3.073   7.498
11669SOL    HW253695   3.524   2.992   7.636
11670SOL     OW53696   9.146   1.138   6.756
11670SOL    HW153697   9.200   1.178   6.681
11670SOL    HW253698   9.103   1.054   6.724
11671SOL     OW53699   8.357   8.827   7.294
11671SOL    HW153700   8.423   8.875   7.352
11671SOL    HW253701   8.344   8.734   7.328
11672SOL     OW53702   0.914   7.521   6.506
11672SOL    HW153703   0.933   7.457   6.431
11672SOL    HW253704   0.818   7.551   6.501
11673SOL     OW53705   2.373  10.478   0.690
11673SOL    HW153706   2.424   0.038   0.749
11673SOL    HW253707   2.389  10.502   0.594
11674SOL     OW53708   2.974   1.866   1.728
11674SOL    HW153709   3.017   1.884   1.816
11674SOL    HW253710   2.963   1.767   1.716
11675SOL     OW53711   9.529   1.140   7.992
11675SOL    HW153712   9.626   1.140   8.017
11675SOL    HW253713   9.483   1.217   8.038
11676SOL     OW53714  10.151   3.121   0.330
11676SOL    HW153715  10.098   3.172   0.263
11676SOL    HW253716   0.059   3.182   0.375
11677SOL     OW53717   7.137   2.163   2.044
11677SOL    HW153718   7.047   2.207   2.051
11677SOL    HW253719   7.189   2.180   2.128
11678SOL     OW53720   2.554   0.572   8.333
11678SOL    HW153721   2.481   0.634   8.363
11678SOL    HW253722   2.607   0.615   8.260
11679SOL     OW53723   2.571   6.145   1.468
11679SOL    HW153724   2.529   6.220   1.417
11679SOL    HW253725   2.554   6.159   1.566
11680SOL     OW53726   5.021   8.795   7.490
11680SOL    HW153727   5.104   8.807   7.544
11680SOL    HW253728   5.019   8.863   7.417
11681SOL     OW53729   4.873   4.771   7.942
11681SOL    HW153730   4.799   4.826   7.905
11681SOL    HW253731   4.926   4.732   7.866
11682SOL     OW53732   7.817   4.771   7.806
11682SOL    HW153733   7.737   4.722   7.841
11682SOL    HW253734   7.895   4.754   7.866
11683SOL     OW53735   5.132   2.673   1.471
11683SOL    HW153736   5.143   2.737   1.396
11683SOL    HW253737   5.219   2.625   1.488
11684SOL     OW53738   7.863  10.019   7.219
11684SOL    HW153739   7.870   9.919   7.213
11684SOL    HW253740   7.885  10.048   7.312
11685SOL     OW53741   6.543   4.638   1.874
11685SOL    HW153742   6.617   4.642   1.941
11685SOL    HW253743   6.581   4.613   1.785
11686SOL     OW53744   2.044   2.838   1.928
11686SOL    HW153745   2.057   2.830   1.829
11686SOL    HW253746   1.986   2.917   1.948
11687SOL     OW53747   0.027   0.122   8.194
11687SOL    HW153748  10.102   0.086   8.236
11687SOL    HW253749   0.006   0.209   8.149
11688SOL     OW53750   2.494  10.369   7.044
11688SOL    HW153751   2.397  10.394   7.048
11688SOL    HW253752   2.525  10.344   7.136
11689SOL     OW53753   0.686   3.684   8.703
11689SOL    HW153754   0.685   3.767   8.647
11689SOL    HW253755   0.773   3.636   8.690
11690SOL     OW53756   5.515   3.028   8.231
11690SOL    HW153757   5.563   3.039   8.318
11690SOL    HW253758   5.564   3.077   8.159
11691SOL     OW53759   6.623   1.367   0.681
11691SOL    HW153760   6.569   1.424   0.619
11691SOL    HW253761   6.573   1.356   0.767
11692SOL     OW53762   7.652   2.740   0.830
11692SOL    HW153763   7.700   2.725   0.917
11692SOL    HW253764   7.626   2.836   0.822
11693SOL     OW53765   3.148   1.979   7.570
11693SOL    HW153766   3.077   2.033   7.525
11693SOL    HW253767   3.195   1.922   7.503
11694SOL     OW53768   9.648   3.738   7.417
11694SOL    HW153769   9.601   3.653   7.395
11694SOL    HW253770   9.694   3.730   7.505
11695SOL     OW53771   8.756   9.389   7.529
11695SOL    HW153772   8.672   9.335   7.535
11695SOL    HW253773   8.826   9.346   7.586
11696SOL     OW53774   1.414   1.419   0.625
11696SOL    HW153775   1.421   1.493   0.692
11696SOL    HW253776   1.498   1.417   0.569
11697SOL     OW53777   7.082   0.216   7.948
11697SOL    HW153778   7.137   0.210   8.031
11697SOL    HW253779   7.043   0.308   7.941
11698SOL     OW53780   6.552   3.326   1.161
11698SOL    HW153781   6.534   3.421   1.186
11698SOL    HW253782   6.510   3.265   1.228
11699SOL     OW53783   5.448  10.230   0.584
11699SOL    HW153784   5.363  10.208   0.537
11699SOL    HW253785   5.521  10.240   0.517
11700SOL     OW53786   9.729   2.978   0.030
11700SOL    HW153787   9.817   2.930   0.023
11700SOL    HW253788   9.739   3.058   0.089
11701SOL     OW53789   6.217   9.700   1.284
11701SOL    HW153790   6.250   9.781   1.235
11701SOL    HW253791   6.149   9.652   1.228
11702SOL     OW53792   1.245   2.096   1.470
11702SOL    HW153793   1.256   2.011   1.418
11702SOL    HW253794   1.335   2.132   1.495
11703SOL     OW53795   1.340   1.144   0.506
11703SOL    HW153796   1.361   1.231   0.549
11703SOL    HW253797   1.242   1.140   0.485
11704SOL     OW53798   1.781   9.301   8.410
11704SOL    HW153799   1.759   9.392   8.445
11704SOL    HW253800   1.833   9.250   8.478
11705SOL     OW53801   1.665   2.195   2.100
11705SOL    HW153802   1.676   2.169   2.004
11705SOL    HW253803   1.705   2.285   2.114
11706SOL     OW53804   9.307   4.820   6.770
11706SOL    HW153805   9.217   4.860   6.754
11706SOL    HW253806   9.357   4.875   6.837
11707SOL     OW53807   2.851   2.621   0.646
11707SOL    HW153808   2.942   2.658   0.630
11707SOL    HW253809   2.856   2.551   0.718
11708SOL     OW53810   9.251  10.310   1.328
11708SOL    HW153811   9.175  10.300   1.392
11708SOL    HW253812   9.264  10.407   1.307
11709SOL     OW53813   6.239   3.335   0.860
11709SOL    HW153814   6.189   3.309   0.943
11709SOL    HW253815   6.176   3.372   0.793
11710SOL     OW53816   6.057   8.318   7.299
11710SOL    HW153817   6.043   8.335   7.201
11710SOL    HW253818   6.130   8.377   7.332
11711SOL     OW53819   5.854   2.993   8.208
11711SOL    HW153820   5.824   2.922   8.145
11711SOL    HW253821   5.954   3.003   8.202
11712SOL     OW53822   1.651   4.310   2.247
11712SOL    HW153823   1.564   4.287   2.204
11712SOL    HW253824   1.637   4.383   2.314
11713SOL     OW53825   5.785   0.297   0.022
11713SOL    HW153826   5.857   0.366   0.012
11713SOL    HW253827   5.739   0.309   0.110
11714SOL     OW53828   5.514   2.739   6.975
11714SOL    HW153829   5.493   2.770   7.068
11714SOL    HW253830   5.461   2.792   6.909
11715SOL     OW53831   3.187   7.490   7.026
11715SOL    HW153832   3.097   7.520   6.995
11715SOL    HW253833   3.234   7.443   6.951
11716SOL     OW53834  10.011   5.792   0.721
11716SOL    HW153835  10.041   5.696   0.722
11716SOL    HW253836   9.912   5.795   0.735
11717SOL     OW53837   7.275   5.584   8.000
11717SOL    HW153838   7.257   5.547   8.091
11717SOL    HW253839   7.246   5.680   7.996
11718SOL     OW53840   4.951   4.879   0.406
11718SOL    HW153841   4.874   4.849   0.462
11718SOL    HW253842   5.037   4.866   0.457
11719SOL     OW53843   8.555   1.594   1.393
11719SOL    HW153844   8.467   1.642   1.393
11719SOL    HW253845   8.577   1.564   1.485
11720SOL     OW53846   2.928   3.952   6.925
11720SOL    HW153847   3.013   3.916   6.888
11720SOL    HW253848   2.853   3.891   6.901
11721SOL     OW53849   8.554   4.168   8.627
11721SOL    HW153850   8.547   4.080   8.674
11721SOL    HW253851   8.625   4.224   8.671
11722SOL     OW53852   7.631   5.019   6.265
11722SOL    HW153853   7.562   5.084   6.232
11722SOL    HW253854   7.639   4.943   6.200
11723SOL     OW53855   1.533   0.118   7.624
11723SOL    HW153856   1.555   0.042   7.684
11723SOL    HW253857   1.617   0.153   7.583
11724SOL     OW53858   4.677   1.538   6.890
11724SOL    HW153859   4.664   1.565   6.794
11724SOL    HW253860   4.692   1.439   6.895
11725SOL     OW53861   5.326  10.399   6.402
11725SOL    HW153862   5.270  10.442   6.332
11725SOL    HW253863   5.423  10.410   6.380
11726SOL     OW53864   8.331   9.515   1.453
11726SOL    HW153865   8.304   9.495   1.547
11726SOL    HW253866   8.249   9.536   1.400
11727SOL     OW53867   0.929   2.795   0.091
11727SOL    HW153868   0.853   2.738   0.121
11727SOL    HW253869   0.988   2.816   0.168
11728SOL     OW53870   1.174   9.562   2.246
11728SOL    HW153871   1.270   9.554   2.271
11728SOL    HW253872   1.134   9.641   2.291
11729SOL     OW53873   8.326   8.619   2.670
11729SOL    HW153874   8.292   8.702   2.626
11729SOL    HW253875   8.416   8.636   2.711
11730SOL     OW53876   5.238   9.572   1.680
11730SOL    HW153877   5.151   9.612   1.650
11730SOL    HW253878   5.313   9.617   1.632
11731SOL     OW53879   5.468   6.324   8.562
11731SOL    HW153880   5.561   6.295   8.584
11731SOL    HW253881   5.415   6.246   8.529
11732SOL     OW53882   3.920   6.898   0.442
11732SOL    HW153883   3.934   6.995   0.420
11732SOL    HW253884   3.984   6.842   0.389
11733SOL     OW53885   1.978   0.709   8.536
11733SOL    HW153886   1.879   0.719   8.547
11733SOL    HW253887   1.998   0.628   8.482
11734SOL     OW53888   9.583   0.291   6.775
11734SOL    HW153889   9.625   0.207   6.811
11734SOL    HW253890   9.489   0.273   6.749
11735SOL     OW53891   7.145   5.080   0.064
11735SOL    HW153892   7.146   5.175   0.032
11735SOL    HW253893   7.112   5.021   8.773
11736SOL     OW53894   1.648   2.484   1.944
11736SOL    HW153895   1.622   2.580   1.931
11736SOL    HW253896   1.698   2.475   2.031
11737SOL     OW53897   5.789   6.695   7.683
11737SOL    HW153898   5.863   6.722   7.745
11737SOL    HW253899   5.788   6.758   7.604
11738SOL     OW53900   8.986   5.959   6.898
11738SOL    HW153901   8.951   5.906   6.821
11738SOL    HW253902   9.082   5.981   6.882
11739SOL     OW53903   1.592   2.175   6.737
11739SOL    HW153904   1.574   2.084   6.775
11739SOL    HW253905   1.538   2.189   6.654
11740SOL     OW53906   8.785   2.978   6.573
11740SOL    HW153907   8.820   2.953   6.482
11740SOL    HW253908   8.860   2.981   6.638
11741SOL     OW53909   6.072   9.965   7.352
11741SOL    HW153910   6.038  10.036   7.290
11741SOL    HW253911   6.162   9.934   7.322
11742SOL     OW53912   8.090   6.904   6.232
11742SOL    HW153913   7.993   6.881   6.227
11742SOL    HW253914   8.115   6.963   6.155
11743SOL     OW53915   9.495   4.544   1.046
11743SOL    HW153916   9.534   4.632   1.073
11743SOL    HW253917   9.533   4.516   0.958
11744SOL     OW53918   9.316   6.224   8.763
11744SOL    HW153919   9.226   6.204   0.020
11744SOL    HW253920   9.367   6.284   0.043
11745SOL     OW53921   4.617   1.602   6.626
11745SOL    HW153922   4.552   1.668   6.588
11745SOL    HW253923   4.614   1.517   6.574
11746SOL     OW53924   8.084  10.346   0.215
11746SOL    HW153925   8.037  10.364   0.301
11746SOL    HW253926   8.129  10.429   0.183
11747SOL     OW53927   1.384   2.403   8.651
11747SOL    HW153928   1.387   2.421   8.749
11747SOL    HW253929   1.466   2.352   8.624
11748SOL     OW53930   4.456   5.518   1.575
11748SOL    HW153931   4.552   5.492   1.562
11748SOL    HW253932   4.405   5.439   1.608
11749SOL     OW53933   6.004   0.165   0.316
11749SOL    HW153934   6.048   0.099   0.376
11749SOL    HW253935   6.067   0.239   0.295
11750SOL     OW53936   2.573   9.245   1.069
11750SOL    HW153937   2.534   9.319   1.015
11750SOL    HW253938   2.505   9.213   1.135
11751SOL     OW53939   7.706   1.246   1.958
11751SOL    HW153940   7.622   1.199   1.985
11751SOL    HW253941   7.756   1.274   2.039
11752SOL     OW53942   7.987   3.674   7.904
11752SOL    HW153943   8.070   3.728   7.918
11752SOL    HW253944   7.938   3.709   7.824
11753SOL     OW53945   4.590   3.533   6.898
11753SOL    HW153946   4.672   3.475   6.902
11753SOL    HW253947   4.578   3.580   6.985
11754SOL     OW53948   1.948   2.210   1.905
11754SOL    HW153949   2.014   2.183   1.836
11754SOL    HW253950   1.959   2.307   1.927
11755SOL     OW53951   8.260   3.383   0.833
11755SOL    HW153952   8.345   3.369   0.884
11755SOL    HW253953   8.183   3.347   0.886
11756SOL     OW53954   9.674   6.721   6.316
11756SOL    HW153955   9.718   6.808   6.338
11756SOL    HW253956   9.739   6.661   6.272
11757SOL     OW53957   5.370   3.795   7.447
11757SOL    HW153958   5.458   3.804   7.400
11757SOL    HW253959   5.376   3.840   7.537
11758SOL     OW53960   8.050   3.736   8.359
11758SOL    HW153961   8.016   3.814   8.308
11758SOL    HW253962   7.989   3.718   8.437
11759SOL     OW53963   8.341   0.226   8.388
11759SOL    HW153964   8.355   0.136   8.427
11759SOL    HW253965   8.248   0.257   8.406
11760SOL     OW53966   5.227  10.157   0.427
11760SOL    HW153967   5.232  10.208   0.341
11760SOL    HW253968   5.278  10.071   0.418
11761SOL     OW53969   6.813   2.428   1.637
11761SOL    HW153970   6.719   2.404   1.660
11761SOL    HW253971   6.870   2.420   1.719
11762SOL     OW53972   3.001   2.895   8.558
11762SOL    HW153973   3.098   2.882   8.540
11762SOL    HW253974   2.972   2.832   8.630
11763SOL     OW53975   4.549   2.521   7.581
11763SOL    HW153976   4.473   2.578   7.608
11763SOL    HW253977   4.548   2.507   7.482
11764SOL     OW53978   0.459   0.179   6.949
11764SOL    HW153979   0.361   0.157   6.947
11764SOL    HW253980   0.473   0.261   7.005
11765SOL     OW53981   0.015   0.581   8.309
11765SOL    HW153982   0.012   0.604   8.406
11765SOL    HW253983   0.096   0.622   8.267
11766SOL     OW53984   4.680   1.447   0.908
11766SOL    HW153985   4.642   1.380   0.845
11766SOL    HW253986   4.635   1.439   0.997
11767SOL     OW53987   4.291   1.479   6.507
11767SOL    HW153988   4.361   1.502   6.440
11767SOL    HW253989   4.215   1.431   6.462
11768SOL     OW53990   9.116   2.268   1.593
11768SOL    HW153991   9.113   2.174   1.559
11768SOL    HW253992   9.034   2.316   1.562
11769SOL     OW53993   2.265   1.081   6.118
11769SOL    HW153994   2.273   1.157   6.053
11769SOL    HW253995   2.177   1.035   6.104
11770SOL     OW53996   6.320   1.326   7.718
11770SOL    HW153997   6.319   1.360   7.812
11770SOL    HW253998   6.365   1.236   7.716
11771SOL     OW53999   6.489   5.321   7.185
11771SOL    HW154000   6.407   5.273   7.216
11771SOL    HW254001   6.464   5.404   7.135
11772SOL     OW54002   4.420   0.707   1.849
11772SOL    HW154003   4.392   0.802   1.836
11772SOL    HW254004   4.474   0.700   1.933
11773SOL     OW54005   6.650  10.483   7.527
11773SOL    HW154006   6.705  10.496   7.609
11773SOL    HW254007   6.655  10.388   7.498
11774SOL     OW54008   8.368   6.094   1.616
11774SOL    HW154009   8.462   6.114   1.645
11774SOL    HW254010   8.361   6.103   1.517
11775SOL     OW54011   0.458   4.739   6.678
11775SOL    HW154012   0.418   4.813   6.732
11775SOL    HW254013   0.547   4.714   6.717
11776SOL     OW54014   2.378   9.176   1.255
11776SOL    HW154015   2.285   9.172   1.218
11776SOL    HW254016   2.379   9.234   1.337
11777SOL     OW54017   1.891   4.665   1.324
11777SOL    HW154018   1.876   4.657   1.422
11777SOL    HW254019   1.810   4.632   1.275
11778SOL     OW54020   4.569   4.611   6.207
11778SOL    HW154021   4.520   4.546   6.150
11778SOL    HW254022   4.634   4.562   6.266
11779SOL     OW54023   8.594   3.103   2.075
11779SOL    HW154024   8.694   3.101   2.086
11779SOL    HW254025   8.566   3.196   2.050
11780SOL     OW54026   7.490   9.322   0.557
11780SOL    HW154027   7.506   9.228   0.587
11780SOL    HW254028   7.536   9.385   0.619
11781SOL     OW54029   2.108   1.923   6.909
11781SOL    HW154030   2.094   1.860   6.832
11781SOL    HW254031   2.108   1.872   6.995
11782SOL     OW54032   8.327   4.085   1.519
11782SOL    HW154033   8.298   4.008   1.575
11782SOL    HW254034   8.265   4.162   1.534
11783SOL     OW54035   5.899   6.426   0.430
11783SOL    HW154036   5.932   6.515   0.398
11783SOL    HW254037   5.939   6.407   0.520
11784SOL     OW54038   2.775   5.842   7.054
11784SOL    HW154039   2.837   5.890   6.992
11784SOL    HW254040   2.771   5.890   7.141
11785SOL     OW54041   0.535   1.201   1.636
11785SOL    HW154042   0.516   1.135   1.708
11785SOL    HW254043   0.568   1.287   1.676
11786SOL     OW54044   1.070   4.841   6.978
11786SOL    HW154045   0.995   4.908   6.976
11786SOL    HW254046   1.157   4.889   6.989
11787SOL     OW54047   2.689   8.818   1.063
11787SOL    HW154048   2.589   8.826   1.064
11787SOL    HW254049   2.720   8.764   1.141
11788SOL     OW54050   7.574   1.266   7.633
11788SOL    HW154051   7.587   1.365   7.632
11788SOL    HW254052   7.612   1.226   7.549
11789SOL     OW54053   4.892   0.461   1.852
11789SOL    HW154054   4.823   0.467   1.923
11789SOL    HW254055   4.946   0.545   1.849
11790SOL     OW54056   3.824   7.756   0.736
11790SOL    HW154057   3.788   7.699   0.809
11790SOL    HW254058   3.772   7.739   0.652
11791SOL     OW54059   9.851   9.901   2.268
11791SOL    HW154060   9.909   9.827   2.302
11791SOL    HW254061   9.841   9.971   2.339
11792SOL     OW54062   7.471   9.021   8.511
11792SOL    HW154063   7.487   9.084   8.587
11792SOL    HW254064   7.551   9.019   8.451
11793SOL     OW54065   2.826   5.111   1.533
11793SOL    HW154066   2.862   5.085   1.443
11793SOL    HW254067   2.867   5.198   1.561
11794SOL     OW54068   7.516  10.270   8.109
11794SOL    HW154069   7.460  10.194   8.143
11794SOL    HW254070   7.541  10.253   8.014
11795SOL     OW54071   3.251  10.347   6.358
11795SOL    HW154072   3.325  10.283   6.337
11795SOL    HW254073   3.260  10.428   6.301
11796SOL     OW54074   0.117   5.322   6.520
11796SOL    HW154075   0.180   5.262   6.569
11796SOL    HW254076   0.168   5.400   6.483
11797SOL     OW54077   3.523   5.671   7.853
11797SOL    HW154078   3.509   5.769   7.842
11797SOL    HW254079   3.477   5.639   7.936
11798SOL     OW54080   8.015   8.852   1.187
11798SOL    HW154081   7.926   8.806   1.189
11798SOL    HW254082   8.082   8.796   1.237
11799SOL     OW54083   3.253   0.544   1.345
11799SOL    HW154084   3.167   0.534   1.396
11799SOL    HW254085   3.274   0.641   1.335
11800SOL     OW54086   5.773   5.406   1.654
11800SOL    HW154087   5.857   5.353   1.647
11800SOL    HW254088   5.696   5.344   1.673
11801SOL     OW54089   8.895   8.291   0.637
11801SOL    HW154090   8.928   8.337   0.719
11801SOL    HW254091   8.915   8.193   0.644
11802SOL     OW54092   3.687   4.799   0.607
11802SOL    HW154093   3.601   4.810   0.656
11802SOL    HW254094   3.709   4.883   0.558
11803SOL     OW54095   5.382   2.240   2.201
11803SOL    HW154096   5.383   2.287   2.290
11803SOL    HW254097   5.465   2.185   2.192
11804SOL     OW54098   6.534   5.118   7.848
11804SOL    HW154099   6.439   5.136   7.871
11804SOL    HW254100   6.585   5.204   7.845
11805SOL     OW54101   8.969   7.213   1.252
11805SOL    HW154102   8.941   7.304   1.222
11805SOL    HW254103   8.898   7.147   1.229
11806SOL     OW54104   5.618   5.309   0.986
11806SOL    HW154105   5.671   5.383   0.944
11806SOL    HW254106   5.652   5.293   1.079
11807SOL     OW54107   9.634   2.750   0.951
11807SOL    HW154108   9.606   2.659   0.918
11807SOL    HW254109   9.553   2.806   0.966
11808SOL     OW54110   2.484   1.179   7.961
11808SOL    HW154111   2.421   1.122   8.013
11808SOL    HW254112   2.526   1.125   7.889
11809SOL     OW54113   0.323   6.995   8.385
11809SOL    HW154114   0.268   7.078   8.382
11809SOL    HW254115   0.290   6.936   8.458
11810SOL     OW54116   6.953   9.274   1.974
11810SOL    HW154117   7.035   9.230   2.010
11810SOL    HW254118   6.916   9.336   2.044
11811SOL     OW54119   3.881   6.106   2.138
11811SOL    HW154120   3.948   6.070   2.202
11811SOL    HW254121   3.826   6.176   2.182
11812SOL     OW54122   7.809   7.833   1.393
11812SOL    HW154123   7.804   7.837   1.293
11812SOL    HW254124   7.813   7.926   1.429
11813SOL     OW54125   2.384   0.968   1.610
11813SOL    HW154126   2.435   1.018   1.680
11813SOL    HW254127   2.330   0.895   1.653
11814SOL     OW54128   5.274   1.510   8.740
11814SOL    HW154129   5.316   1.582   8.685
11814SOL    HW254130   5.309   1.421   8.710
11815SOL     OW54131   4.012   5.975   6.966
11815SOL    HW154132   3.962   6.029   6.898
11815SOL    HW254133   4.091   5.933   6.923
11816SOL     OW54134   2.940   7.158   7.220
11816SOL    HW154135   2.960   7.149   7.123
11816SOL    HW254136   2.976   7.078   7.269
11817SOL     OW54137   8.486   8.882   1.203
11817SOL    HW154138   8.559   8.934   1.158
11817SOL    HW254139   8.501   8.883   1.302
11818SOL     OW54140   5.757   1.523   0.594
11818SOL    HW154141   5.745   1.530   0.693
11818SOL    HW254142   5.745   1.613   0.552
11819SOL     OW54143   0.204  10.228   8.264
11819SOL    HW154144   0.267  10.295   8.303
11819SOL    HW254145   0.192  10.152   8.328
11820SOL     OW54146   9.478   7.837   8.435
11820SOL    HW154147   9.513   7.880   8.352
11820SOL    HW254148   9.524   7.749   8.450
11821SOL     OW54149   5.214   4.942   8.183
11821SOL    HW154150   5.173   4.857   8.150
11821SOL    HW254151   5.293   4.920   8.240
11822SOL     OW54152   4.852  10.473   1.780
11822SOL    HW154153   4.823   0.007   1.692
11822SOL    HW254154   4.897   0.042   1.833
11823SOL     OW54155   3.165   6.527   0.738
11823SOL    HW154156   3.151   6.571   0.826
11823SOL    HW254157   3.078   6.524   0.689
11824SOL     OW54158   3.407   4.682   0.241
11824SOL    HW154159   3.425   4.780   0.235
11824SOL    HW254160   3.469   4.641   0.307
11825SOL     OW54161   7.930   2.076   0.560
11825SOL    HW154162   7.901   2.144   0.492
11825SOL    HW254163   7.867   1.998   0.558
11826SOL     OW54164   6.187   5.773   8.486
11826SOL    HW154165   6.155   5.726   8.568
11826SOL    HW254166   6.283   5.799   8.499
11827SOL     OW54167   9.793  10.143   7.426
11827SOL    HW154168   9.766  10.049   7.406
11827SOL    HW254169   9.857  10.144   7.503
11828SOL     OW54170   1.274   4.516   0.176
11828SOL    HW154171   1.181   4.538   0.204
11828SOL    HW254172   1.329   4.599   0.175
11829SOL     OW54173   0.231   0.035   7.283
11829SOL    HW154174   0.321  10.495   7.272
11829SOL    HW254175   0.162  10.467   7.298
11830SOL     OW54176   0.182   4.287   1.750
11830SOL    HW154177   0.194   4.255   1.656
11830SOL    HW254178   0.139   4.214   1.804
11831SOL     OW54179   7.592   5.412   8.031
11831SOL    HW154180   7.646   5.328   8.026
11831SOL    HW254181   7.519   5.410   7.963
11832SOL     OW54182   1.677   0.312   1.534
11832SOL    HW154183   1.719   0.395   1.570
11832SOL    HW254184   1.739   0.234   1.547
11833SOL     OW54185   1.254   3.402   6.778
11833SOL    HW154186   1.323   3.469   6.806
11833SOL    HW254187   1.281   3.311   6.810
11834SOL     OW54188   6.870   3.489   1.523
11834SOL    HW154189   6.808   3.441   1.586
11834SOL    HW254190   6.853   3.458   1.429
11835SOL     OW54191   8.710   6.876   0.999
11835SOL    HW154192   8.746   6.862   0.907
11835SOL    HW254193   8.785   6.879   1.065
11836SOL     OW54194   4.303   2.617   0.814
11836SOL    HW154195   4.305   2.662   0.903
11836SOL    HW254196   4.396   2.613   0.776
11837SOL     OW54197   8.476   2.039   7.238
11837SOL    HW154198   8.506   2.109   7.302
11837SOL    HW254199   8.381   2.056   7.211
11838SOL     OW54200   3.853   8.326   1.501
11838SOL    HW154201   3.864   8.277   1.587
11838SOL    HW254202   3.905   8.411   1.504
11839SOL     OW54203   2.663   4.900   1.230
11839SOL    HW154204   2.596   4.931   1.297
11839SOL    HW254205   2.631   4.815   1.187
11840SOL     OW54206   0.160   3.007   7.980
11840SOL    HW154207   0.182   2.910   7.968
11840SOL    HW254208   0.206   3.042   8.061
11841SOL     OW54209   6.080   5.180   1.039
11841SOL    HW154210   6.148   5.120   1.082
11841SOL    HW254211   6.004   5.125   1.004
11842SOL     OW54212   9.456  10.083   6.661
11842SOL    HW154213   9.454  10.002   6.602
11842SOL    HW254214   9.512  10.154   6.618
11843SOL     OW54215   9.296   4.530   6.446
11843SOL    HW154216   9.292   4.446   6.392
11843SOL    HW254217   9.226   4.593   6.414
11844SOL     OW54218   2.811   5.388   2.145
11844SOL    HW154219   2.726   5.417   2.190
11844SOL    HW254220   2.870   5.468   2.130
11845SOL     OW54221   9.392   2.735   6.880
11845SOL    HW154222   9.322   2.664   6.870
11845SOL    HW254223   9.464   2.720   6.811
11846SOL     OW54224   0.613   5.428   8.620
11846SOL    HW154225   0.677   5.359   8.585
11846SOL    HW254226   0.543   5.383   8.676
11847SOL     OW54227   1.156   2.866   7.334
11847SOL    HW154228   1.246   2.900   7.307
11847SOL    HW254229   1.089   2.939   7.328
11848SOL     OW54230   0.254   7.708   2.102
11848SOL    HW154231   0.175   7.696   2.043
11848SOL    HW254232   0.227   7.695   2.197
11849SOL     OW54233   4.681   7.625   8.572
11849SOL    HW154234   4.615   7.675   8.517
11849SOL    HW254235   4.738   7.569   8.512
11850SOL     OW54236   2.937   1.903   7.098
11850SOL    HW154237   2.985   1.816   7.112
11850SOL    HW254238   2.866   1.913   7.167
11851SOL     OW54239   8.762  10.164   1.697
11851SOL    HW154240   8.705  10.202   1.770
11851SOL    HW254241   8.739  10.207   1.610
11852SOL     OW54242   9.454   8.905   7.530
11852SOL    HW154243   9.551   8.929   7.523
11852SOL    HW254244   9.408   8.924   7.443
11853SOL     OW54245   3.964   9.765   8.094
11853SOL    HW154246   4.046   9.709   8.089
11853SOL    HW254247   3.903   9.728   8.165
11854SOL     OW54248   9.216   9.244   7.736
11854SOL    HW154249   9.249   9.320   7.679
11854SOL    HW254250   9.286   9.173   7.741
11855SOL     OW54251   4.178   1.773   6.482
11855SOL    HW154252   4.148   1.797   6.390
11855SOL    HW254253   4.110   1.713   6.525
11856SOL     OW54254   9.518   7.968   7.675
11856SOL    HW154255   9.533   8.033   7.749
11856SOL    HW254256   9.454   7.897   7.705
11857SOL     OW54257   0.439   7.501   6.738
11857SOL    HW154258   0.430   7.422   6.677
11857SOL    HW254259   0.456   7.583   6.684
11858SOL     OW54260   6.361   5.981   0.174
11858SOL    HW154261   6.381   6.023   0.085
11858SOL    HW254262   6.384   6.046   0.247
11859SOL     OW54263   6.648   7.934   6.625
11859SOL    HW154264   6.688   8.009   6.571
11859SOL    HW254265   6.583   7.884   6.569
11860SOL     OW54266   3.596  10.152   7.610
11860SOL    HW154267   3.694  10.138   7.619
11860SOL    HW254268   3.564  10.210   7.686
11861SOL     OW54269   0.297   3.462   1.652
11861SOL    HW154270   0.231   3.408   1.599
11861SOL    HW254271   0.257   3.486   1.740
11862SOL     OW54272   0.439   2.704   0.992
11862SOL    HW154273   0.535   2.707   0.964
11862SOL    HW254274   0.425   2.767   1.069
11863SOL     OW54275   5.229   6.371   7.376
11863SOL    HW154276   5.205   6.465   7.400
11863SOL    HW254277   5.215   6.311   7.456
11864SOL     OW54278   4.210   6.242   2.308
11864SOL    HW154279   4.182   6.316   2.370
11864SOL    HW254280   4.149   6.164   2.320
11865SOL     OW54281   6.272   6.384   8.741
11865SOL    HW154282   6.220   6.301   8.723
11865SOL    HW254283   6.233   6.432   0.038
11866SOL     OW54284   5.305   0.214   8.364
11866SOL    HW154285   5.366   0.281   8.407
11866SOL    HW254286   5.211   0.234   8.391
11867SOL     OW54287   6.844   4.314   0.494
11867SOL    HW154288   6.925   4.297   0.550
11867SOL    HW254289   6.872   4.357   0.408
11868SOL     OW54290   9.814  10.097   2.449
11868SOL    HW154291   9.863  10.107   2.536
11868SOL    HW254292   9.780  10.186   2.419
11869SOL     OW54293   6.683   0.771   1.066
11869SOL    HW154294   6.643   0.750   0.976
11869SOL    HW254295   6.733   0.857   1.060
11870SOL     OW54296   7.037   7.067   7.600
11870SOL    HW154297   6.966   7.041   7.666
11870SOL    HW254298   6.993   7.110   7.520
11871SOL     OW54299   6.569   4.714   7.007
11871SOL    HW154300   6.506   4.647   7.046
11871SOL    HW254301   6.538   4.740   6.915
11872SOL     OW54302   0.444   0.073   1.364
11872SOL    HW154303   0.451  10.477   1.376
11872SOL    HW254304   0.535   0.114   1.360
11873SOL     OW54305   5.771   0.763   1.062
11873SOL    HW154306   5.785   0.665   1.076
11873SOL    HW254307   5.843   0.814   1.108
11874SOL     OW54308   9.407   2.794   7.340
11874SOL    HW154309   9.351   2.875   7.321
11874SOL    HW254310   9.389   2.762   7.433
11875SOL     OW54311   5.297   4.496   2.226
11875SOL    HW154312   5.356   4.480   2.304
11875SOL    HW254313   5.329   4.441   2.148
11876SOL     OW54314   7.272   1.241   7.946
11876SOL    HW154315   7.252   1.147   7.971
11876SOL    HW254316   7.205   1.302   7.989
11877SOL     OW54317   9.968   9.186   1.724
11877SOL    HW154318   9.919   9.104   1.693
11877SOL    HW254319  10.054   9.159   1.766
11878SOL     OW54320   5.615   3.236   7.613
11878SOL    HW154321   5.655   3.146   7.633
11878SOL    HW254322   5.672   3.307   7.654
11879SOL     OW54323   0.413   7.292   6.569
11879SOL    HW154324   0.500   7.302   6.520
11879SOL    HW254325   0.392   7.194   6.578
11880SOL     OW54326   2.697   5.603   1.259
11880SOL    HW154327   2.661   5.681   1.310
11880SOL    HW254328   2.622   5.554   1.215
11881SOL     OW54329   4.493   9.052   1.156
11881SOL    HW154330   4.546   8.977   1.118
11881SOL    HW254331   4.417   9.016   1.210
11882SOL     OW54332   5.765   3.367   8.582
11882SOL    HW154333   5.834   3.436   8.559
11882SOL    HW254334   5.687   3.412   8.626
11883SOL     OW54335   3.741   1.265   2.117
11883SOL    HW154336   3.824   1.260   2.173
11883SOL    HW254337   3.660   1.257   2.175
11884SOL     OW54338   8.125   6.579   7.439
11884SOL    HW154339   8.060   6.504   7.423
11884SOL    HW254340   8.155   6.615   7.351
11885SOL     OW54341   4.487   3.882   8.458
11885SOL    HW154342   4.452   3.908   8.547
11885SOL    HW254343   4.524   3.962   8.411
11886SOL     OW54344   5.475   1.207   8.383
11886SOL    HW154345   5.503   1.303   8.391
11886SOL    HW254346   5.535   1.150   8.438
11887SOL     OW54347   3.697   0.906   1.473
11887SOL    HW154348   3.776   0.916   1.534
11887SOL    HW254349   3.639   0.831   1.506
11888SOL     OW54350   1.094   8.100   8.138
11888SOL    HW154351   1.132   8.140   8.222
11888SOL    HW254352   0.994   8.091   8.148
11889SOL     OW54353   8.371   9.677   2.034
11889SOL    HW154354   8.464   9.713   2.024
11889SOL    HW254355   8.375   9.577   2.042
11890SOL     OW54356   5.319   0.312   0.577
11890SOL    HW154357   5.391   0.251   0.611
11890SOL    HW254358   5.298   0.381   0.647
11891SOL     OW54359   4.383   5.919   7.805
11891SOL    HW154360   4.351   5.845   7.864
11891SOL    HW254361   4.304   5.966   7.765
11892SOL     OW54362   1.447   8.717   0.091
11892SOL    HW154363   1.431   8.656   0.014
11892SOL    HW254364   1.436   8.667   0.177
11893SOL     OW54365   3.666   2.890   1.349
11893SOL    HW154366   3.608   2.814   1.378
11893SOL    HW254367   3.685   2.882   1.251
11894SOL     OW54368   2.861   4.245   0.771
11894SOL    HW154369   2.763   4.254   0.788
11894SOL    HW254370   2.896   4.167   0.823
11895SOL     OW54371   4.168   0.165   7.132
11895SOL    HW154372   4.078   0.206   7.148
11895SOL    HW254373   4.235   0.209   7.193
11896SOL     OW54374   1.947   5.677   7.400
11896SOL    HW154375   1.905   5.698   7.487
11896SOL    HW254376   2.024   5.739   7.384
11897SOL     OW54377   3.466   9.805   1.003
11897SOL    HW154378   3.379   9.774   0.966
11897SOL    HW254379   3.486   9.898   0.970
11898SOL     OW54380   6.984   4.547   6.547
11898SOL    HW154381   6.957   4.511   6.457
11898SOL    HW254382   7.080   4.573   6.545
11899SOL     OW54383   7.779   9.714   0.245
11899SOL    HW154384   7.715   9.646   0.208
11899SOL    HW254385   7.773   9.798   0.191
11900SOL     OW54386   5.959   5.942   6.988
11900SOL    HW154387   5.932   6.036   6.968
11900SOL    HW254388   5.879   5.882   6.978
11901SOL     OW54389   0.948   1.298   7.655
11901SOL    HW154390   0.982   1.358   7.582
11901SOL    HW254391   0.851   1.280   7.641
11902SOL     OW54392   7.530   0.857   0.825
11902SOL    HW154393   7.468   0.901   0.891
11902SOL    HW254394   7.491   0.865   0.733
11903SOL     OW54395   7.097   5.296   6.985
11903SOL    HW154396   7.076   5.290   7.082
11903SOL    HW254397   7.014   5.281   6.932
11904SOL     OW54398   0.153   1.313   8.555
11904SOL    HW154399   0.099   1.369   8.492
11904SOL    HW254400   0.174   1.225   8.512
11905SOL     OW54401   7.785   7.264   0.738
11905SOL    HW154402   7.786   7.359   0.769
11905SOL    HW254403   7.859   7.214   0.782
11906SOL     OW54404   6.037   5.457   0.370
11906SOL    HW154405   5.965   5.457   0.301
11906SOL    HW254406   6.091   5.373   0.362
11907SOL     OW54407   3.723   7.694   0.485
11907SOL    HW154408   3.718   7.738   0.396
11907SOL    HW254409   3.645   7.632   0.496
11908SOL     OW54410   0.199   6.896   1.960
11908SOL    HW154411   0.173   6.817   2.015
11908SOL    HW254412   0.125   6.963   1.959
11909SOL     OW54413   9.477   3.987   1.202
11909SOL    HW154414   9.525   4.070   1.172
11909SOL    HW254415   9.378   4.004   1.200
11910SOL     OW54416   6.687   7.659   1.996
11910SOL    HW154417   6.675   7.657   2.096
11910SOL    HW254418   6.781   7.688   1.975
11911SOL     OW54419   5.951   3.559   8.535
11911SOL    HW154420   6.006   3.597   8.610
11911SOL    HW254421   5.901   3.633   8.490
11912SOL     OW54422   3.661   4.292   0.462
11912SOL    HW154423   3.607   4.304   0.379
11912SOL    HW254424   3.649   4.199   0.496
11913SOL     OW54425   1.121  10.326   7.219
11913SOL    HW154426   1.184  10.323   7.142
11913SOL    HW254427   1.137  10.246   7.277
11914SOL     OW54428   0.305   4.356   2.238
11914SOL    HW154429   0.242   4.396   2.304
11914SOL    HW254430   0.356   4.282   2.281
11915SOL     OW54431   1.370   7.603   6.474
11915SOL    HW154432   1.311   7.552   6.411
11915SOL    HW254433   1.450   7.548   6.497
11916SOL     OW54434   2.485   7.588   7.443
11916SOL    HW154435   2.526   7.667   7.489
11916SOL    HW254436   2.419   7.544   7.504
11917SOL     OW54437   6.359   7.503   0.060
11917SOL    HW154438   6.427   7.544   0.122
11917SOL    HW254439   6.394   7.503   8.749
11918SOL     OW54440   2.054   0.361   0.088
11918SOL    HW154441   2.143   0.407   0.087
11918SOL    HW254442   2.064   0.269   0.049
11919SOL     OW54443   4.395   1.383   0.521
11919SOL    HW154444   4.476   1.416   0.472
11919SOL    HW254445   4.350   1.312   0.468
11920SOL     OW54446   6.966   0.900   2.284
11920SOL    HW154447   6.935   0.971   2.348
11920SOL    HW254448   6.889   0.872   2.226
11921SOL     OW54449   5.762   5.533   0.898
11921SOL    HW154450   5.859   5.558   0.894
11921SOL    HW254451   5.714   5.596   0.959
11922SOL     OW54452   3.449   0.191   0.282
11922SOL    HW154453   3.406   0.103   0.302
11922SOL    HW254454   3.387   0.265   0.309
11923SOL     OW54455   8.219   9.300   8.105
11923SOL    HW154456   8.219   9.309   8.006
11923SOL    HW254457   8.311   9.317   8.140
11924SOL     OW54458   3.540   6.553   8.680
11924SOL    HW154459   3.463   6.489   8.686
11924SOL    HW254460   3.510   6.637   8.634
11925SOL     OW54461   0.278   1.128   2.039
11925SOL    HW154462   0.199   1.187   2.026
11925SOL    HW254463   0.318   1.143   2.130
11926SOL     OW54464   0.533   4.330   8.459
11926SOL    HW154465   0.497   4.326   8.552
11926SOL    HW254466   0.608   4.396   8.456
11927SOL     OW54467   2.562   5.749   6.665
11927SOL    HW154468   2.639   5.793   6.711
11927SOL    HW254469   2.498   5.713   6.733
11928SOL     OW54470   5.469   3.157   1.091
11928SOL    HW154471   5.563   3.186   1.105
11928SOL    HW254472   5.420   3.156   1.178
11929SOL     OW54473   0.498   5.502   7.649
11929SOL    HW154474   0.545   5.548   7.725
11929SOL    HW254475   0.451   5.571   7.593
11930SOL     OW54476   4.462   7.293   6.852
11930SOL    HW154477   4.524   7.342   6.790
11930SOL    HW254478   4.367   7.309   6.824
11931SOL     OW54479   2.479   4.726   7.210
11931SOL    HW154480   2.453   4.744   7.305
11931SOL    HW254481   2.483   4.627   7.195
11932SOL     OW54482   6.744   8.126   7.349
11932SOL    HW154483   6.685   8.045   7.357
11932SOL    HW254484   6.787   8.127   7.259
11933SOL     OW54485   9.716   5.940   8.544
11933SOL    HW154486   9.654   5.876   8.589
11933SOL    HW254487   9.663   6.013   8.501
11934SOL     OW54488   1.072   4.260   1.292
11934SOL    HW154489   1.098   4.224   1.381
11934SOL    HW254490   1.034   4.186   1.236
11935SOL     OW54491   4.383   1.859   2.252
11935SOL    HW154492   4.309   1.849   2.318
11935SOL    HW254493   4.350   1.909   2.172
11936SOL     OW54494   0.820   0.445   1.704
11936SOL    HW154495   0.887   0.518   1.685
11936SOL    HW254496   0.828   0.416   1.799
11937SOL     OW54497   8.957   3.342   0.918
11937SOL    HW154498   8.994   3.429   0.949
11937SOL    HW254499   8.896   3.305   0.988
11938SOL     OW54500   0.672   1.213   7.134
11938SOL    HW154501   0.739   1.143   7.108
11938SOL    HW254502   0.696   1.249   7.224
11939SOL     OW54503   1.426   7.076   5.976
11939SOL    HW154504   1.357   7.036   5.915
11939SOL    HW254505   1.510   7.094   5.925
11940SOL     OW54506   2.437   2.211   8.183
11940SOL    HW154507   2.450   2.310   8.171
11940SOL    HW254508   2.485   2.162   8.110
11941SOL     OW54509   1.861   6.020   0.593
11941SOL    HW154510   1.915   5.974   0.663
11941SOL    HW254511   1.767   6.033   0.626
11942SOL     OW54512   8.232   7.225   6.358
11942SOL    HW154513   8.289   7.203   6.278
11942SOL    HW254514   8.194   7.317   6.347
11943SOL     OW54515   2.229   9.501   8.725
11943SOL    HW154516   2.303   9.439   8.751
11943SOL    HW254517   2.267   9.592   8.706
11944SOL     OW54518   8.251   9.732   0.513
11944SOL    HW154519   8.311   9.699   0.440
11944SOL    HW254520   8.184   9.661   0.535
11945SOL     OW54521   0.827   9.776   8.634
11945SOL    HW154522   0.855   9.814   8.722
11945SOL    HW254523   0.739   9.816   8.607
11946SOL     OW54524   3.224   1.478   8.252
11946SOL    HW154525   3.288   1.517   8.186
11946SOL    HW254526   3.141   1.534   8.255
11947SOL     OW54527   8.381   8.550   8.147
11947SOL    HW154528   8.298   8.496   8.166
11947SOL    HW254529   8.359   8.621   8.080
11948SOL     OW54530   3.014   5.443   7.658
11948SOL    HW154531   2.927   5.408   7.693
11948SOL    HW254532   3.053   5.507   7.725
11949SOL     OW54533   8.305   7.493   1.783
11949SOL    HW154534   8.208   7.508   1.764
11949SOL    HW254535   8.344   7.575   1.823
11950SOL     OW54536   8.934   2.036   0.108
11950SOL    HW154537   8.974   2.127   0.121
11950SOL    HW254538   8.968   1.995   0.024
11951SOL     OW54539   9.992   4.625   6.752
11951SOL    HW154540  10.034   4.713   6.731
11951SOL    HW254541   9.894   4.637   6.765
11952SOL     OW54542   8.429   0.167   1.874
11952SOL    HW154543   8.384   0.129   1.955
11952SOL    HW254544   8.509   0.219   1.903
11953SOL     OW54545   3.159   9.436   7.925
11953SOL    HW154546   3.235   9.450   7.862
11953SOL    HW254547   3.151   9.338   7.947
11954SOL     OW54548   4.392   6.900   0.805
11954SOL    HW154549   4.311   6.850   0.775
11954SOL    HW254550   4.454   6.838   0.852
11955SOL     OW54551   7.086   1.001   6.633
11955SOL    HW154552   7.127   0.972   6.546
11955SOL    HW254553   7.016   1.069   6.615
11956SOL     OW54554   4.852   8.569   8.564
11956SOL    HW154555   4.862   8.558   8.663
11956SOL    HW254556   4.874   8.663   8.539
11957SOL     OW54557   0.163  10.494   7.996
11957SOL    HW154558   0.119   0.035   8.074
11957SOL    HW254559   0.262  10.491   8.009
11958SOL     OW54560  10.053   2.266   8.300
11958SOL    HW154561  10.151   2.282   8.291
11958SOL    HW254562  10.029   2.177   8.261
11959SOL     OW54563   5.126   5.197   6.707
11959SOL    HW154564   5.181   5.117   6.731
11959SOL    HW254565   5.059   5.172   6.637
11960SOL     OW54566   2.346   8.499   0.245
11960SOL    HW154567   2.406   8.485   0.166
11960SOL    HW254568   2.399   8.538   0.320
11961SOL     OW54569   0.916   5.172   8.049
11961SOL    HW154570   0.903   5.259   8.002
11961SOL    HW254571   1.012   5.143   8.039
11962SOL     OW54572   6.820   7.308   2.074
11962SOL    HW154573   6.788   7.339   2.164
11962SOL    HW254574   6.780   7.365   2.003
11963SOL     OW54575   6.928   1.155   1.724
11963SOL    HW154576   7.007   1.108   1.764
11963SOL    HW254577   6.860   1.172   1.795
11964SOL     OW54578   9.677   6.013   6.867
11964SOL    HW154579   9.620   6.034   6.947
11964SOL    HW254580   9.758   5.962   6.897
11965SOL     OW54581   3.128   4.390   6.350
11965SOL    HW154582   3.064   4.355   6.281
11965SOL    HW254583   3.193   4.318   6.375
11966SOL     OW54584   4.385   7.954   7.929
11966SOL    HW154585   4.365   8.046   7.963
11966SOL    HW254586   4.484   7.942   7.923
11967SOL     OW54587   3.836   2.887   8.009
11967SOL    HW154588   3.779   2.969   7.997
11967SOL    HW254589   3.852   2.845   7.920
11968SOL     OW54590   8.622   7.012   0.095
11968SOL    HW154591   8.708   7.062   0.089
11968SOL    HW254592   8.622   6.953   0.176
11969SOL     OW54593   9.363   3.571   7.751
11969SOL    HW154594   9.315   3.510   7.814
11969SOL    HW254595   9.449   3.601   7.793
11970SOL     OW54596   0.065   8.414   0.750
11970SOL    HW154597   0.014   8.422   0.836
11970SOL    HW254598   0.116   8.328   0.749
11971SOL     OW54599   1.326   9.956   0.358
11971SOL    HW154600   1.401   9.890   0.365
11971SOL    HW254601   1.249   9.924   0.414
11972SOL     OW54602   6.159   2.748   6.720
11972SOL    HW154603   6.063   2.745   6.746
11972SOL    HW254604   6.171   2.699   6.633
11973SOL     OW54605   6.595   1.851   7.951
11973SOL    HW154606   6.510   1.849   7.899
11973SOL    HW254607   6.672   1.838   7.888
11974SOL     OW54608   9.380   5.074   7.498
11974SOL    HW154609   9.354   5.157   7.448
11974SOL    HW254610   9.418   5.099   7.587
11975SOL     OW54611   6.857   0.727   1.445
11975SOL    HW154612   6.881   0.678   1.528
11975SOL    HW254613   6.853   0.825   1.465
11976SOL     OW54614   1.086   5.742   1.243
11976SOL    HW154615   1.050   5.651   1.260
11976SOL    HW254616   1.144   5.740   1.161
11977SOL     OW54617   9.389   8.663   1.145
11977SOL    HW154618   9.400   8.761   1.129
11977SOL    HW254619   9.462   8.631   1.205
11978SOL     OW54620   8.380  10.014   1.933
11978SOL    HW154621   8.295   9.964   1.944
11978SOL    HW254622   8.369  10.107   1.968
11979SOL     OW54623   0.633   8.184   7.452
11979SOL    HW154624   0.561   8.234   7.500
11979SOL    HW254625   0.717   8.238   7.453
11980SOL     OW54626   1.574   5.239   7.803
11980SOL    HW154627   1.606   5.145   7.812
11980SOL    HW254628   1.626   5.286   7.732
11981SOL     OW54629   9.101   9.662   0.604
11981SOL    HW154630   9.118   9.564   0.616
11981SOL    HW254631   9.104   9.684   0.506
11982SOL     OW54632   0.094   0.307   7.109
11982SOL    HW154633   0.150   0.375   7.155
11982SOL    HW254634   0.035   0.352   7.042
11983SOL     OW54635   8.529   6.000   0.235
11983SOL    HW154636   8.460   5.930   0.215
11983SOL    HW254637   8.548   6.001   0.333
11984SOL     OW54638   1.264   7.816   8.542
11984SOL    HW154639   1.326   7.869   8.484
11984SOL    HW254640   1.242   7.869   8.624
11985SOL     OW54641   3.737   5.156   8.546
11985SOL    HW154642   3.683   5.123   8.468
11985SOL    HW254643   3.676   5.201   8.612
11986SOL     OW54644   5.988   4.676   8.227
11986SOL    HW154645   6.042   4.677   8.311
11986SOL    HW254646   6.046   4.650   8.150
11987SOL     OW54647   8.993   6.458   8.495
11987SOL    HW154648   9.041   6.506   8.568
11987SOL    HW254649   8.978   6.363   8.522
11988SOL     OW54650   7.073   6.784   8.685
11988SOL    HW154651   7.141   6.767   8.756
11988SOL    HW254652   6.985   6.744   8.713
11989SOL     OW54653   7.618   0.274   1.513
11989SOL    HW154654   7.607   0.175   1.503
11989SOL    HW254655   7.539   0.311   1.563
11990SOL     OW54656   4.497   2.865   6.893
11990SOL    HW154657   4.563   2.895   6.961
11990SOL    HW254658   4.536   2.875   6.801
11991SOL     OW54659   9.216   9.388   8.262
11991SOL    HW154660   9.218   9.354   8.168
11991SOL    HW254661   9.289   9.343   8.314
11992SOL     OW54662   1.543   0.857   7.749
11992SOL    HW154663   1.626   0.897   7.708
11992SOL    HW254664   1.529   0.765   7.713
11993SOL     OW54665   4.083   1.046   1.441
11993SOL    HW154666   4.039   1.093   1.364
11993SOL    HW254667   4.141   0.972   1.406
11994SOL     OW54668   1.973   4.025   6.944
11994SOL    HW154669   1.908   3.957   6.977
11994SOL    HW254670   2.027   3.986   6.869
11995SOL     OW54671   6.265  10.275   7.498
11995SOL    HW154672   6.167  10.293   7.500
11995SOL    HW254673   6.314  10.358   7.525
11996SOL     OW54674   6.264   2.619   2.015
11996SOL    HW154675   6.289   2.621   2.112
11996SOL    HW254676   6.319   2.685   1.965
11997SOL     OW54677   1.536   8.216   8.039
11997SOL    HW154678   1.557   8.283   7.968
11997SOL    HW254679   1.584   8.130   8.018
11998SOL     OW54680   7.632   8.483   0.175
11998SOL    HW154681   7.651   8.510   0.081
11998SOL    HW254682   7.534   8.491   0.193
11999SOL     OW54683   1.494   5.712   0.910
11999SOL    HW154684   1.451   5.703   0.820
11999SOL    HW254685   1.546   5.629   0.931
12000SOL     OW54686   6.155   2.614   6.479
12000SOL    HW154687   6.076   2.647   6.428
12000SOL    HW254688   6.139   2.518   6.504
12001SOL     OW54689   3.777  10.073   0.944
12001SOL    HW154690   3.813  10.107   0.857
12001SOL    HW254691   3.830   9.992   0.971
12002SOL     OW54692   3.621   8.005   8.269
12002SOL    HW154693   3.612   8.047   8.179
12002SOL    HW254694   3.598   8.071   8.340
12003SOL     OW54695   5.662   4.664   1.689
12003SOL    HW154696   5.742   4.673   1.629
12003SOL    HW254697   5.693   4.661   1.784
12004SOL     OW54698   7.216   6.879   8.316
12004SOL    HW154699   7.179   6.949   8.254
12004SOL    HW254700   7.149   6.807   8.329
12005SOL     OW54701   8.973   5.406   7.915
12005SOL    HW154702   8.964   5.360   8.004
12005SOL    HW254703   8.927   5.352   7.845
12006SOL     OW54704   5.057   0.842   0.015
12006SOL    HW154705   5.100   0.930   8.778
12006SOL    HW254706   5.027   0.839   0.110
12007SOL     OW54707   4.727   0.294   7.073
12007SOL    HW154708   4.768   0.222   7.128
12007SOL    HW254709   4.789   0.372   7.069
12008SOL     OW54710   5.016   7.466   0.754
12008SOL    HW154711   5.033   7.519   0.671
12008SOL    HW254712   4.920   7.472   0.780
12009SOL     OW54713  10.105   8.594   8.575
12009SOL    HW154714  10.041   8.651   8.524
12009SOL    HW254715   0.033   8.645   8.589
12010SOL     OW54716  10.140   2.859   0.616
12010SOL    HW154717   0.079   2.873   0.639
12010SOL    HW254718  10.094   2.948   0.613
12011SOL     OW54719   7.791   5.994   0.998
12011SOL    HW154720   7.715   5.957   1.051
12011SOL    HW254721   7.823   6.078   1.040
12012SOL     OW54722   1.029   4.080   0.664
12012SOL    HW154723   0.964   4.073   0.739
12012SOL    HW254724   0.996   4.147   0.597
12013SOL     OW54725   4.569   2.626   0.729
12013SOL    HW154726   4.641   2.566   0.762
12013SOL    HW254727   4.588   2.720   0.757
12014SOL     OW54728   7.072   2.719   2.022
12014SOL    HW154729   7.087   2.639   2.080
12014SOL    HW254730   7.126   2.796   2.058
12015SOL     OW54731   0.151   1.487   7.114
12015SOL    HW154732   0.212   1.422   7.070
12015SOL    HW254733   0.131   1.561   7.050
12016SOL     OW54734   1.099   8.474   7.098
12016SOL    HW154735   1.199   8.476   7.094
12016SOL    HW254736   1.066   8.389   7.058
12017SOL     OW54737   7.758   8.505   7.016
12017SOL    HW154738   7.855   8.481   7.023
12017SOL    HW254739   7.734   8.517   6.920
12018SOL     OW54740   6.495   7.398   1.229
12018SOL    HW154741   6.513   7.452   1.147
12018SOL    HW254742   6.572   7.338   1.248
12019SOL     OW54743   9.690   9.268   6.992
12019SOL    HW154744   9.697   9.174   6.960
12019SOL    HW254745   9.776   9.316   6.973
12020SOL     OW54746   6.080   7.835   2.070
12020SOL    HW154747   6.141   7.771   2.116
12020SOL    HW254748   6.055   7.909   2.133
12021SOL     OW54749   5.963   2.335   8.432
12021SOL    HW154750   5.876   2.313   8.477
12021SOL    HW254751   5.971   2.434   8.420
12022SOL     OW54752   2.424   8.946   1.826
12022SOL    HW154753   2.369   8.868   1.853
12022SOL    HW254754   2.372   9.031   1.839
12023SOL     OW54755   8.147   9.962   1.690
12023SOL    HW154756   8.233  10.010   1.674
12023SOL    HW254757   8.158   9.899   1.767
12024SOL     OW54758   7.426   0.872   1.944
12024SOL    HW154759   7.378   0.794   1.983
12024SOL    HW254760   7.481   0.842   1.866
12025SOL     OW54761   5.203   9.859   1.865
12025SOL    HW154762   5.266   9.793   1.906
12025SOL    HW254763   5.110   9.825   1.873
12026SOL     OW54764   5.813   5.759   1.969
12026SOL    HW154765   5.726   5.809   1.971
12026SOL    HW254766   5.839   5.734   2.063
12027SOL     OW54767   0.233   3.241   7.859
12027SOL    HW154768   0.207   3.150   7.889
12027SOL    HW254769   0.181   3.309   7.911
12028SOL     OW54770   9.382   0.906   7.010
12028SOL    HW154771   9.361   0.902   6.912
12028SOL    HW254772   9.324   0.975   7.054
12029SOL     OW54773   6.865   4.167   1.460
12029SOL    HW154774   6.939   4.135   1.518
12029SOL    HW254775   6.881   4.138   1.366
12030SOL     OW54776   2.041   0.159   0.438
12030SOL    HW154777   2.039   0.257   0.417
12030SOL    HW254778   2.076   0.146   0.530
12031SOL     OW54779  10.023   7.143   6.987
12031SOL    HW154780  10.012   7.080   7.064
12031SOL    HW254781   9.964   7.223   7.000
12032SOL     OW54782   8.698   4.391   7.110
12032SOL    HW154783   8.730   4.460   7.174
12032SOL    HW254784   8.632   4.332   7.156
12033SOL     OW54785   9.526   4.316   6.634
12033SOL    HW154786   9.565   4.360   6.554
12033SOL    HW254787   9.432   4.348   6.647
12034SOL     OW54788   1.588   7.068   8.119
12034SOL    HW154789   1.573   7.159   8.158
12034SOL    HW254790   1.571   7.071   8.020
12035SOL     OW54791  10.047   2.632   0.729
12035SOL    HW154792  10.119   2.565   0.745
12035SOL    HW254793  10.085   2.712   0.684
12036SOL     OW54794   4.810   3.245   1.570
12036SOL    HW154795   4.868   3.300   1.629
12036SOL    HW254796   4.792   3.296   1.485
12037SOL     OW54797   7.794   8.082   1.525
12037SOL    HW154798   7.700   8.071   1.558
12037SOL    HW254799   7.796   8.153   1.455
12038SOL     OW54800   8.440   8.259   7.318
12038SOL    HW154801   8.483   8.197   7.253
12038SOL    HW254802   8.497   8.340   7.330
12039SOL     OW54803   1.865   4.861   7.310
12039SOL    HW154804   1.936   4.915   7.355
12039SOL    HW254805   1.871   4.766   7.341
12040SOL     OW54806   1.487   3.475   1.150
12040SOL    HW154807   1.453   3.569   1.148
12040SOL    HW254808   1.436   3.420   1.084
12041SOL     OW54809   6.406   4.427   8.337
12041SOL    HW154810   6.386   4.510   8.285
12041SOL    HW254811   6.495   4.391   8.309
12042SOL     OW54812   0.939   1.703   7.586
12042SOL    HW154813   0.918   1.764   7.508
12042SOL    HW254814   0.991   1.624   7.553
12043SOL     OW54815   6.966   8.930   7.198
12043SOL    HW154816   7.016   8.845   7.218
12043SOL    HW254817   6.870   8.917   7.222
12044SOL     OW54818   2.196   7.985   7.555
12044SOL    HW154819   2.214   7.998   7.458
12044SOL    HW254820   2.164   8.071   7.595
12045SOL     OW54821   3.588   2.841   7.721
12045SOL    HW154822   3.678   2.815   7.757
12045SOL    HW254823   3.577   2.804   7.629
12046SOL     OW54824   4.165   4.171   7.634
12046SOL    HW154825   4.131   4.178   7.728
12046SOL    HW254826   4.265   4.173   7.634
12047SOL     OW54827   6.162   2.769   8.279
12047SOL    HW154828   6.142   2.863   8.252
12047SOL    HW254829   6.193   2.717   8.199
12048SOL     OW54830   0.198   4.213   1.490
12048SOL    HW154831   0.286   4.166   1.493
12048SOL    HW254832   0.145   4.180   1.412
12049SOL     OW54833   2.987  10.304   6.046
12049SOL    HW154834   3.017  10.380   5.989
12049SOL    HW254835   2.903  10.330   6.094
12050SOL     OW54836   6.521   3.738   0.505
12050SOL    HW154837   6.500   3.804   0.577
12050SOL    HW254838   6.475   3.651   0.525
12051SOL     OW54839   3.595   8.346   6.907
12051SOL    HW154840   3.671   8.410   6.903
12051SOL    HW254841   3.627   8.255   6.881
12052SOL     OW54842   2.002   6.520   8.733
12052SOL    HW154843   1.952   6.593   8.686
12052SOL    HW254844   1.938   6.460   8.780
12053SOL     OW54845   1.736   5.357   7.618
12053SOL    HW154846   1.819   5.408   7.641
12053SOL    HW254847   1.720   5.362   7.519
12054SOL     OW54848   0.840   0.385   0.333
12054SOL    HW154849   0.784   0.302   0.329
12054SOL    HW254850   0.801   0.454   0.271
12055SOL     OW54851   7.512   5.149   1.436
12055SOL    HW154852   7.460   5.112   1.360
12055SOL    HW254853   7.574   5.220   1.403
12056SOL     OW54854   5.151   0.905   6.114
12056SOL    HW154855   5.156   0.833   6.045
12056SOL    HW254856   5.055   0.924   6.136
12057SOL     OW54857   7.129   6.736   6.294
12057SOL    HW154858   7.094   6.796   6.222
12057SOL    HW254859   7.184   6.790   6.358
12058SOL     OW54860   1.969   4.051   2.271
12058SOL    HW154861   1.993   4.116   2.342
12058SOL    HW254862   2.050   3.998   2.245
12059SOL     OW54863   7.968   5.615   7.796
12059SOL    HW154864   7.999   5.597   7.703
12059SOL    HW254865   8.016   5.695   7.832
12060SOL     OW54866   5.693   8.400   8.011
12060SOL    HW154867   5.701   8.485   8.064
12060SOL    HW254868   5.703   8.322   8.073
12061SOL     OW54869   7.666   1.348   7.900
12061SOL    HW154870   7.664   1.324   7.803
12061SOL    HW254871   7.760   1.373   7.926
12062SOL     OW54872   4.352   9.118   0.423
12062SOL    HW154873   4.374   9.021   0.434
12062SOL    HW254874   4.304   9.151   0.504
12063SOL     OW54875   1.729   6.194   6.823
12063SOL    HW154876   1.690   6.275   6.780
12063SOL    HW254877   1.734   6.120   6.756
12064SOL     OW54878   9.583   4.225   1.122
12064SOL    HW154879   9.556   4.291   1.193
12064SOL    HW254880   9.680   4.237   1.100
12065SOL     OW54881   6.967   5.771   0.176
12065SOL    HW154882   6.987   5.683   0.133
12065SOL    HW254883   7.024   5.782   0.258
12066SOL     OW54884   4.647   8.475   7.230
12066SOL    HW154885   4.666   8.573   7.233
12066SOL    HW254886   4.579   8.451   7.299
12067SOL     OW54887   1.059   2.335   6.969
12067SOL    HW154888   1.155   2.313   6.986
12067SOL    HW254889   1.005   2.314   7.051
12068SOL     OW54890   5.286   3.933   1.429
12068SOL    HW154891   5.378   3.940   1.392
12068SOL    HW254892   5.263   4.017   1.479
12069SOL     OW54893   5.950   1.944   8.535
12069SOL    HW154894   5.996   1.881   8.472
12069SOL    HW254895   5.900   1.892   8.604
12070SOL     OW54896   6.047   9.138   1.336
12070SOL    HW154897   6.096   9.123   1.250
12070SOL    HW254898   6.113   9.159   1.409
12071SOL     OW54899   9.826   2.795   1.695
12071SOL    HW154900   9.889   2.841   1.757
12071SOL    HW254901   9.821   2.698   1.717
12072SOL     OW54902  10.028   1.198   0.889
12072SOL    HW154903   9.990   1.227   0.802
12072SOL    HW254904  10.115   1.245   0.905
12073SOL     OW54905   3.595   9.012   6.821
12073SOL    HW154906   3.641   9.069   6.889
12073SOL    HW254907   3.526   9.067   6.774
12074SOL     OW54908   6.330   6.361   1.528
12074SOL    HW154909   6.288   6.338   1.616
12074SOL    HW254910   6.396   6.435   1.540
12075SOL     OW54911   7.841   4.638   8.561
12075SOL    HW154912   7.885   4.722   8.529
12075SOL    HW254913   7.767   4.661   8.624
12076SOL     OW54914   8.532   7.189   8.129
12076SOL    HW154915   8.548   7.092   8.111
12076SOL    HW254916   8.586   7.243   8.064
12077SOL     OW54917   1.521   6.839   1.318
12077SOL    HW154918   1.615   6.810   1.336
12077SOL    HW254919   1.512   6.937   1.336
12078SOL     OW54920   7.554   9.936   8.355
12078SOL    HW154921   7.567   9.978   8.445
12078SOL    HW254922   7.488   9.989   8.302
12079SOL     OW54923   0.578   0.732   1.229
12079SOL    HW154924   0.478   0.721   1.232
12079SOL    HW254925   0.615   0.720   1.322
12080SOL     OW54926   6.941   5.124   6.286
12080SOL    HW154927   6.912   5.057   6.355
12080SOL    HW254928   6.862   5.175   6.253
12081SOL     OW54929   8.684   2.300   7.639
12081SOL    HW154930   8.633   2.264   7.561
12081SOL    HW254931   8.702   2.397   7.625
12082SOL     OW54932   8.793   2.964   2.333
12082SOL    HW154933   8.822   3.016   2.252
12082SOL    HW254934   8.869   2.908   2.366
12083SOL     OW54935   8.998   9.310   0.125
12083SOL    HW154936   9.067   9.370   0.085
12083SOL    HW254937   8.931   9.364   0.175
12084SOL     OW54938   1.868   3.260   1.361
12084SOL    HW154939   1.807   3.340   1.355
12084SOL    HW254940   1.886   3.239   1.457
12085SOL     OW54941   6.526   9.633   0.154
12085SOL    HW154942   6.542   9.671   0.063
12085SOL    HW254943   6.584   9.679   0.221
12086SOL     OW54944   2.964   5.773   0.981
12086SOL    HW154945   2.930   5.684   0.952
12086SOL    HW254946   2.903   5.812   1.050
12087SOL     OW54947   2.017   2.673   8.515
12087SOL    HW154948   2.068   2.680   8.600
12087SOL    HW254949   1.919   2.665   8.535
12088SOL     OW54950   7.087   8.885   1.757
12088SOL    HW154951   7.175   8.870   1.712
12088SOL    HW254952   7.099   8.880   1.856
12089SOL     OW54953   7.089   8.560   2.301
12089SOL    HW154954   7.001   8.539   2.258
12089SOL    HW254955   7.120   8.482   2.355
12090SOL     OW54956   3.990   4.876   1.990
12090SOL    HW154957   3.967   4.871   1.892
12090SOL    HW254958   4.063   4.943   2.003
12091SOL     OW54959   3.774   1.348   1.454
12091SOL    HW154960   3.725   1.276   1.405
12091SOL    HW254961   3.747   1.347   1.550
12092SOL     OW54962   2.400   3.759   8.186
12092SOL    HW154963   2.359   3.835   8.236
12092SOL    HW254964   2.469   3.714   8.244
12093SOL     OW54965   3.923   8.172   7.427
12093SOL    HW154966   3.936   8.225   7.511
12093SOL    HW254967   3.830   8.184   7.394
12094SOL     OW54968   8.360   6.888   7.732
12094SOL    HW154969   8.356   6.980   7.770
12094SOL    HW254970   8.396   6.825   7.801
12095SOL     OW54971   6.126   7.396   1.242
12095SOL    HW154972   6.083   7.434   1.324
12095SOL    HW254973   6.179   7.468   1.196
12096SOL     OW54974   6.234   1.870   8.097
12096SOL    HW154975   6.295   1.791   8.094
12096SOL    HW254976   6.283   1.951   8.063
12097SOL     OW54977   8.074   9.522   0.562
12097SOL    HW154978   7.999   9.472   0.604
12097SOL    HW254979   8.156   9.463   0.559
12098SOL     OW54980   1.493   1.170   8.215
12098SOL    HW154981   1.512   1.094   8.278
12098SOL    HW254982   1.398   1.200   8.226
12099SOL     OW54983   1.043   0.580   7.573
12099SOL    HW154984   0.944   0.586   7.557
12099SOL    HW254985   1.083   0.671   7.567
12100SOL     OW54986   4.122   5.552   0.352
12100SOL    HW154987   4.054   5.480   0.333
12100SOL    HW254988   4.189   5.517   0.417
12101SOL     OW54989   5.598   4.458   0.924
12101SOL    HW154990   5.525   4.521   0.946
12101SOL    HW254991   5.588   4.375   0.978
12102SOL     OW54992   3.980  10.470   6.049
12102SOL    HW154993   3.899  10.475   6.108
12102SOL    HW254994   3.991   0.054   6.000
12103SOL     OW54995   4.156   6.375   6.790
12103SOL    HW154996   4.076   6.372   6.850
12103SOL    HW254997   4.127   6.393   6.696
12104SOL     OW54998   1.294   3.767   8.367
12104SOL    HW154999   1.315   3.859   8.335
12104SOL    HW255000   1.355   3.743   8.443
12105SOL     OW55001   9.492   7.404   7.039
12105SOL    HW155002   9.522   7.411   6.944
12105SOL    HW255003   9.400   7.440   7.048
12106SOL     OW55004   0.360   1.856   7.914
12106SOL    HW155005   0.409   1.805   7.985
12106SOL    HW255006   0.346   1.950   7.944
12107SOL     OW55007   2.700   6.642   8.077
12107SOL    HW155008   2.645   6.691   8.009
12107SOL    HW255009   2.796   6.642   8.049
12108SOL     OW55010   2.165   2.328   0.302
12108SOL    HW155011   2.145   2.358   0.209
12108SOL    HW255012   2.152   2.230   0.309
12109SOL     OW55013   7.112   0.079   1.477
12109SOL    HW155014   7.153   0.067   1.386
12109SOL    HW255015   7.184   0.092   1.545
12110SOL     OW55016   9.052   6.926   8.532
12110SOL    HW155017   8.963   6.963   8.503
12110SOL    HW255018   9.113   6.920   8.453
12111SOL     OW55019   9.684   3.869   7.989
12111SOL    HW155020   9.781   3.887   8.006
12111SOL    HW255021   9.658   3.905   7.900
12112SOL     OW55022   3.186   4.991   8.568
12112SOL    HW155023   3.158   4.973   8.474
12112SOL    HW255024   3.172   4.908   8.623
12113SOL     OW55025   8.871   2.912   6.967
12113SOL    HW155026   8.778   2.941   6.992
12113SOL    HW255027   8.937   2.981   6.999
12114SOL     OW55028   5.819   3.619   7.001
12114SOL    HW155029   5.839   3.521   7.009
12114SOL    HW255030   5.806   3.643   6.905
12115SOL     OW55031   1.034   3.045   8.277
12115SOL    HW155032   1.079   2.997   8.202
12115SOL    HW255033   1.074   3.137   8.286
12116SOL     OW55034   1.260   6.392   8.418
12116SOL    HW155035   1.273   6.489   8.439
12116SOL    HW255036   1.274   6.338   8.501
12117SOL     OW55037   4.194   1.079   7.512
12117SOL    HW155038   4.118   1.099   7.574
12117SOL    HW255039   4.244   1.164   7.493
12118SOL     OW55040   5.605   6.026   6.902
12118SOL    HW155041   5.643   5.940   6.936
12118SOL    HW255042   5.647   6.050   6.815
12119SOL     OW55043   2.506   7.328   7.146
12119SOL    HW155044   2.449   7.368   7.074
12119SOL    HW255045   2.561   7.400   7.189
12120SOL     OW55046   4.463   6.415   1.280
12120SOL    HW155047   4.423   6.498   1.242
12120SOL    HW255048   4.459   6.342   1.212
12121SOL     OW55049   2.513   8.459   7.790
12121SOL    HW155050   2.586   8.434   7.853
12121SOL    HW255051   2.449   8.383   7.781
12122SOL     OW55052   2.189   3.338   1.712
12122SOL    HW155053   2.169   3.378   1.802
12122SOL    HW255054   2.252   3.398   1.662
12123SOL     OW55055   0.641   9.887   6.619
12123SOL    HW155056   0.665   9.873   6.523
12123SOL    HW255057   0.557   9.836   6.639
12124SOL     OW55058   4.219   0.381   1.092
12124SOL    HW155059   4.230   0.288   1.129
12124SOL    HW255060   4.152   0.379   1.017
12125SOL     OW55061   1.756   2.540   0.382
12125SOL    HW155062   1.728   2.491   0.465
12125SOL    HW255063   1.856   2.548   0.380
12126SOL     OW55064   6.402   8.001   0.254
12126SOL    HW155065   6.430   8.005   0.159
12126SOL    HW255066   6.344   8.080   0.275
12127SOL     OW55067   1.558   1.920   6.809
12127SOL    HW155068   1.484   1.868   6.852
12127SOL    HW255069   1.639   1.917   6.867
12128SOL     OW55070   2.673   9.548   8.500
12128SOL    HW155071   2.709   9.497   8.422
12128SOL    HW255072   2.586   9.590   8.476
12129SOL     OW55073   8.163   8.415   1.609
12129SOL    HW155074   8.085   8.458   1.566
12129SOL    HW255075   8.196   8.340   1.552
12130SOL     OW55076   5.681   6.749   6.220
12130SOL    HW155077   5.761   6.713   6.174
12130SOL    HW255078   5.599   6.726   6.168
12131SOL     OW55079   3.777   7.114   0.016
12131SOL    HW155080   3.851   7.094   8.733
12131SOL    HW255081   3.801   7.195   0.070
12132SOL     OW55082   0.124   8.770   1.009
12132SOL    HW155083   0.056   8.786   0.938
12132SOL    HW255084   0.207   8.821   0.988
12133SOL     OW55085   2.042   8.172   1.963
12133SOL    HW155086   2.056   8.181   1.865
12133SOL    HW255087   1.993   8.087   1.982
12134SOL     OW55088   5.344   6.774   1.748
12134SOL    HW155089   5.390   6.821   1.673
12134SOL    HW255090   5.373   6.814   1.835
12135SOL     OW55091   7.623   5.560   8.767
12135SOL    HW155092   7.598   5.466   8.748
12135SOL    HW255093   7.723   5.570   8.765
12136SOL     OW55094   0.786   3.104   8.370
12136SOL    HW155095   0.874   3.088   8.325
12136SOL    HW255096   0.802   3.145   8.460
12137SOL     OW55097   6.363   5.546   1.182
12137SOL    HW155098   6.327   5.600   1.259
12137SOL    HW255099   6.462   5.561   1.174
12138SOL     OW55100   7.070   8.000   0.975
12138SOL    HW155101   7.076   8.096   0.949
12138SOL    HW255102   7.095   7.989   1.071
12139SOL     OW55103   3.027   0.032   0.656
12139SOL    HW155104   2.953  10.469   0.647
12139SOL    HW255105   3.115  10.489   0.643
12140SOL     OW55106   7.832   3.327   0.204
12140SOL    HW155107   7.897   3.398   0.233
12140SOL    HW255108   7.869   3.278   0.125
12141SOL     OW55109   1.345   5.019   8.553
12141SOL    HW155110   1.253   5.051   8.531
12141SOL    HW255111   1.412   5.074   8.504
12142SOL     OW55112   0.592   4.925   6.973
12142SOL    HW155113   0.589   4.881   7.062
12142SOL    HW255114   0.500   4.923   6.932
12143SOL     OW55115   2.614   8.617   2.280
12143SOL    HW155116   2.620   8.553   2.356
12143SOL    HW255117   2.522   8.656   2.275
12144SOL     OW55118   6.654   0.254   7.471
12144SOL    HW155119   6.575   0.264   7.410
12144SOL    HW255120   6.668   0.158   7.492
12145SOL     OW55121   2.769  10.426   8.289
12145SOL    HW155122   2.682  10.466   8.318
12145SOL    HW255123   2.844  10.481   8.323
12146SOL     OW55124   6.332   7.049   2.498
12146SOL    HW155125   6.264   7.051   2.571
12146SOL    HW255126   6.328   7.134   2.446
12147SOL     OW55127   4.667   9.461   8.586
12147SOL    HW155128   4.752   9.410   8.579
12147SOL    HW255129   4.684   9.559   8.571
12148SOL     OW55130   1.222   9.511   0.850
12148SOL    HW155131   1.211   9.503   0.751
12148SOL    HW255132   1.261   9.601   0.872
12149SOL     OW55133   4.236   2.443   7.952
12149SOL    HW155134   4.246   2.396   7.865
12149SOL    HW255135   4.271   2.536   7.944
12150SOL     OW55136   8.195   1.530   1.038
12150SOL    HW155137   8.251   1.453   1.010
12150SOL    HW255138   8.109   1.497   1.077
12151SOL     OW55139   5.951   1.513   1.204
12151SOL    HW155140   5.957   1.426   1.155
12151SOL    HW255141   6.017   1.578   1.165
12152SOL     OW55142   3.367   9.214   7.478
12152SOL    HW155143   3.416   9.142   7.428
12152SOL    HW255144   3.427   9.253   7.548
12153SOL     OW55145   7.538   5.921   8.180
12153SOL    HW155146   7.449   5.894   8.216
12153SOL    HW255147   7.550   6.020   8.190
12154SOL     OW55148   2.112   4.988   6.618
12154SOL    HW155149   2.096   4.907   6.563
12154SOL    HW255150   2.085   5.069   6.567
12155SOL     OW55151   5.900   0.269   0.858
12155SOL    HW155152   5.890   0.183   0.808
12155SOL    HW255153   5.881   0.254   0.955
12156SOL     OW55154   5.064   6.995   6.580
12156SOL    HW155155   5.109   7.071   6.534
12156SOL    HW255156   5.120   6.913   6.570
12157SOL     OW55157   1.769   3.137   0.911
12157SOL    HW155158   1.782   3.114   1.007
12157SOL    HW255159   1.783   3.235   0.898
12158SOL     OW55160   3.174   0.972   7.410
12158SOL    HW155161   3.093   0.928   7.369
12158SOL    HW255162   3.219   0.907   7.472
12159SOL     OW55163   3.080   2.128   6.208
12159SOL    HW155164   3.156   2.174   6.254
12159SOL    HW255165   3.078   2.155   6.112
12160SOL     OW55166   1.583   4.526   2.398
12160SOL    HW155167   1.628   4.601   2.446
12160SOL    HW255168   1.485   4.545   2.389
12161SOL     OW55169   1.983   4.323   6.711
12161SOL    HW155170   1.932   4.398   6.668
12161SOL    HW255171   1.937   4.296   6.795
12162SOL     OW55172   2.213   6.610   6.460
12162SOL    HW155173   2.238   6.670   6.384
12162SOL    HW255174   2.162   6.531   6.425
12163SOL     OW55175   9.569   1.872   6.528
12163SOL    HW155176   9.611   1.816   6.456
12163SOL    HW255177   9.472   1.848   6.537
12164SOL     OW55178   6.161   2.446   0.044
12164SOL    HW155179   6.074   2.489   0.069
12164SOL    HW255180   6.150   2.395   8.740
12165SOL     OW55181   1.722   1.266   6.327
12165SOL    HW155182   1.798   1.269   6.392
12165SOL    HW255183   1.688   1.359   6.311
12166SOL     OW55184   1.650   7.011   0.429
12166SOL    HW155185   1.665   6.914   0.449
12166SOL    HW255186   1.642   7.023   0.330
12167SOL     OW55187   3.494   7.108   0.009
12167SOL    HW155188   3.474   7.011   0.016
12167SOL    HW255189   3.592   7.121   8.775
12168SOL     OW55190   1.157   9.007   8.145
12168SOL    HW155191   1.256   9.005   8.157
12168SOL    HW255192   1.128   9.100   8.120
12169SOL     OW55193  10.157   5.155   7.344
12169SOL    HW155194  10.113   5.236   7.306
12169SOL    HW255195  10.091   5.080   7.347
12170SOL     OW55196   2.565   8.500   0.055
12170SOL    HW155197   2.639   8.464   8.781
12170SOL    HW255198   2.591   8.591   0.089
12171SOL     OW55199   7.218   8.397   0.416
12171SOL    HW155200   7.129   8.425   0.453
12171SOL    HW255201   7.282   8.383   0.492
12172SOL     OW55202   9.173   5.074   7.725
12172SOL    HW155203   9.150   5.091   7.629
12172SOL    HW255204   9.210   5.157   7.766
12173SOL     OW55205   9.413  10.302   8.632
12173SOL    HW155206   9.325  10.320   8.587
12173SOL    HW255207   9.399  10.238   8.708
12174SOL     OW55208   7.840   7.336   8.137
12174SOL    HW155209   7.792   7.248   8.151
12174SOL    HW255210   7.776   7.402   8.099
12175SOL     OW55211   9.921  10.155   7.873
12175SOL    HW155212   9.942  10.149   7.776
12175SOL    HW255213   9.985  10.216   7.918
12176SOL     OW55214   6.114   3.651   8.741
12176SOL    HW155215   6.208   3.661   8.708
12176SOL    HW255216   6.094   3.722   0.026
12177SOL     OW55217   8.483   0.667   8.259
12177SOL    HW155218   8.510   0.583   8.306
12177SOL    HW255219   8.384   0.668   8.247
12178SOL     OW55220   8.886   3.285   1.292
12178SOL    HW155221   8.843   3.245   1.211
12178SOL    HW255222   8.974   3.241   1.309
12179SOL     OW55223   5.708   7.897   7.158
12179SOL    HW155224   5.695   7.798   7.162
12179SOL    HW255225   5.658   7.933   7.079
12180SOL     OW55226   3.182   9.429   7.130
12180SOL    HW155227   3.178   9.453   7.033
12180SOL    HW255228   3.160   9.510   7.185
12181SOL     OW55229   4.809   9.014   7.626
12181SOL    HW155230   4.781   8.932   7.576
12181SOL    HW255231   4.892   9.051   7.586
12182SOL     OW55232   3.799   4.529   2.254
12182SOL    HW155233   3.851   4.615   2.248
12182SOL    HW255234   3.738   4.532   2.333
12183SOL     OW55235   1.121   8.635   1.027
12183SOL    HW155236   1.164   8.725   1.013
12183SOL    HW255237   1.192   8.566   1.039
12184SOL     OW55238   6.843   0.417   2.445
12184SOL    HW155239   6.883   0.326   2.434
12184SOL    HW255240   6.890   0.466   2.519
12185SOL     OW55241   7.461   8.405   8.302
12185SOL    HW155242   7.530   8.335   8.290
12185SOL    HW255243   7.499   8.481   8.355
12186SOL     OW55244   9.401   1.922   2.112
12186SOL    HW155245   9.388   2.013   2.071
12186SOL    HW255246   9.437   1.860   2.042
12187SOL     OW55247   7.950   9.664   7.898
12187SOL    HW155248   7.984   9.753   7.927
12187SOL    HW255249   7.954   9.600   7.975
12188SOL     OW55250   9.963   3.819   8.738
12188SOL    HW155251   9.890   3.754   8.761
12188SOL    HW255252   9.924   3.895   8.686
12189SOL     OW55253   6.801   7.163   8.721
12189SOL    HW155254   6.888   7.125   8.753
12189SOL    HW255255   6.728   7.097   8.739
12190SOL     OW55256   6.330   8.239   8.715
12190SOL    HW155257   6.302   8.239   8.619
12190SOL    HW255258   6.372   8.151   8.737
12191SOL     OW55259   9.423   9.507   2.172
12191SOL    HW155260   9.451   9.507   2.268
12191SOL    HW255261   9.324   9.494   2.165
12192SOL     OW55262   2.785   3.572   7.661
12192SOL    HW155263   2.774   3.631   7.581
12192SOL    HW255264   2.880   3.541   7.667
12193SOL     OW55265   9.305   8.388   7.215
12193SOL    HW155266   9.220   8.353   7.256
12193SOL    HW255267   9.371   8.408   7.287
12194SOL     OW55268   3.144   4.276   1.973
12194SOL    HW155269   3.194   4.311   1.893
12194SOL    HW255270   3.184   4.313   2.056
12195SOL     OW55271   1.456   4.971   1.244
12195SOL    HW155272   1.544   4.963   1.291
12195SOL    HW255273   1.443   4.893   1.183
12196SOL     OW55274   0.770   9.532   8.306
12196SOL    HW155275   0.786   9.630   8.292
12196SOL    HW255276   0.826   9.480   8.242
12197SOL     OW55277   9.412   1.083   8.766
12197SOL    HW155278   9.502   1.061   0.024
12197SOL    HW255279   9.420   1.088   8.667
12198SOL     OW55280   2.064   9.859   8.097
12198SOL    HW155281   2.038   9.953   8.122
12198SOL    HW255282   1.982   9.809   8.069
12199SOL     OW55283   3.252   8.300   0.173
12199SOL    HW155284   3.202   8.272   0.091
12199SOL    HW255285   3.347   8.270   0.167
12200SOL     OW55286   7.046   0.664   0.049
12200SOL    HW155287   7.025   0.745   8.777
12200SOL    HW255288   7.002   0.584   0.008
12201SOL     OW55289   2.542   6.765   7.884
12201SOL    HW155290   2.452   6.722   7.873
12201SOL    HW255291   2.531   6.856   7.922
12202SOL     OW55292   1.794   1.732   8.053
12202SOL    HW155293   1.803   1.755   8.150
12202SOL    HW255294   1.880   1.751   8.005
12203SOL     OW55295   3.983   2.091   6.512
12203SOL    HW155296   3.946   2.003   6.482
12203SOL    HW255297   3.923   2.130   6.582
12204SOL     OW55298   1.286   6.777   0.700
12204SOL    HW155299   1.381   6.759   0.727
12204SOL    HW255300   1.240   6.690   0.681
12205SOL     OW55301   5.806   8.402   1.388
12205SOL    HW155302   5.850   8.354   1.312
12205SOL    HW255303   5.707   8.390   1.383
12206SOL     OW55304   0.762   7.951   2.264
12206SOL    HW155305   0.854   7.938   2.227
12206SOL    HW255306   0.740   7.877   2.327
12207SOL     OW55307   7.414   8.488   7.160
12207SOL    HW155308   7.431   8.524   7.068
12207SOL    HW255309   7.371   8.397   7.153
12208SOL     OW55310   1.945   9.444   1.791
12208SOL    HW155311   2.010   9.511   1.829
12208SOL    HW255312   1.925   9.375   1.860
12209SOL     OW55313   4.009   1.203   0.232
12209SOL    HW155314   4.002   1.107   0.260
12209SOL    HW255315   4.080   1.212   0.163
12210SOL     OW55316   4.134   1.795   8.312
12210SOL    HW155317   4.169   1.712   8.269
12210SOL    HW255318   4.049   1.774   8.361
12211SOL     OW55319   8.618   3.813   1.358
12211SOL    HW155320   8.672   3.862   1.426
12211SOL    HW255321   8.618   3.716   1.379
12212SOL     OW55322   7.182   0.784   0.761
12212SOL    HW155323   7.224   0.744   0.842
12212SOL    HW255324   7.251   0.829   0.705
12213SOL     OW55325   4.947   5.613   7.300
12213SOL    HW155326   4.937   5.703   7.341
12213SOL    HW255327   5.012   5.559   7.353
12214SOL     OW55328   6.747   2.687   6.479
12214SOL    HW155329   6.767   2.647   6.389
12214SOL    HW255330   6.710   2.779   6.468
12215SOL     OW55331   3.922   1.811   1.559
12215SOL    HW155332   3.975   1.868   1.621
12215SOL    HW255333   3.971   1.726   1.541
12216SOL     OW55334   6.354   0.446   7.714
12216SOL    HW155335   6.341   0.349   7.733
12216SOL    HW255336   6.425   0.482   7.773
12217SOL     OW55337   9.868   9.285   0.947
12217SOL    HW155338   9.786   9.342   0.948
12217SOL    HW255339   9.926   9.312   0.869
12218SOL     OW55340   5.269   5.320   8.662
12218SOL    HW155341   5.256   5.292   8.567
12218SOL    HW255342   5.181   5.347   8.701
12219SOL     OW55343   1.580   5.704   0.427
12219SOL    HW155344   1.665   5.730   0.382
12219SOL    HW255345   1.600   5.638   0.500
12220SOL     OW55346   2.679  10.377   6.450
12220SOL    HW155347   2.701  10.453   6.512
12220SOL    HW255348   2.583  10.382   6.425
12221SOL     OW55349   0.573   5.919   0.352
12221SOL    HW155350   0.625   5.943   0.270
12221SOL    HW255351   0.480   5.955   0.344
12222SOL     OW55352   2.413   8.094   6.899
12222SOL    HW155353   2.414   8.090   6.799
12222SOL    HW255354   2.329   8.052   6.933
12223SOL     OW55355   1.971   6.729   0.905
12223SOL    HW155356   2.067   6.720   0.882
12223SOL    HW255357   1.938   6.643   0.945
12224SOL     OW55358   8.818   0.275   7.721
12224SOL    HW155359   8.882   0.211   7.678
12224SOL    HW255360   8.782   0.338   7.652
12225SOL     OW55361   1.618   4.696   0.500
12225SOL    HW155362   1.639   4.635   0.576
12225SOL    HW255363   1.525   4.731   0.510
12226SOL     OW55364   4.123   9.715   2.137
12226SOL    HW155365   4.144   9.641   2.201
12226SOL    HW255366   4.029   9.705   2.104
12227SOL     OW55367   8.427   2.906   7.537
12227SOL    HW155368   8.491   2.948   7.473
12227SOL    HW255369   8.347   2.966   7.547
12228SOL     OW55370   3.007   0.296   6.593
12228SOL    HW155371   3.065   0.354   6.536
12228SOL    HW255372   3.002   0.204   6.555
12229SOL     OW55373   8.254   5.175   8.506
12229SOL    HW155374   8.168   5.200   8.551
12229SOL    HW255375   8.262   5.076   8.503
12230SOL     OW55376   6.934   1.377   6.790
12230SOL    HW155377   6.896   1.425   6.711
12230SOL    HW255378   7.031   1.359   6.774
12231SOL     OW55379   1.784   1.313   1.633
12231SOL    HW155380   1.704   1.365   1.603
12231SOL    HW255381   1.789   1.314   1.733
12232SOL     OW55382   9.810   5.375   0.816
12232SOL    HW155383   9.750   5.348   0.740
12232SOL    HW255384   9.754   5.409   0.892
12233SOL     OW55385   4.618   2.407   2.126
12233SOL    HW155386   4.525   2.431   2.156
12233SOL    HW255387   4.672   2.380   2.206
12234SOL     OW55388   5.184   7.212   6.462
12234SOL    HW155389   5.200   7.284   6.529
12234SOL    HW255390   5.154   7.251   6.376
12235SOL     OW55391   5.896   8.737   0.710
12235SOL    HW155392   5.905   8.765   0.805
12235SOL    HW255393   5.986   8.738   0.666
12236SOL     OW55394   0.648   2.401   0.793
12236SOL    HW155395   0.748   2.408   0.787
12236SOL    HW255396   0.621   2.391   0.888
12237SOL     OW55397   9.549   9.512   6.977
12237SOL    HW155398   9.486   9.516   7.055
12237SOL    HW255399   9.595   9.423   6.976
12238SOL     OW55400   6.930   3.106   0.668
12238SOL    HW155401   6.877   3.050   0.605
12238SOL    HW255402   6.871   3.137   0.743
12239SOL     OW55403   5.931  10.274   0.834
12239SOL    HW155404   5.840  10.266   0.874
12239SOL    HW255405   5.954  10.189   0.785
12240SOL     OW55406   4.567   3.795   0.046
12240SOL    HW155407   4.650   3.804   8.772
12240SOL    HW255408   4.493   3.847   0.004
12241SOL     OW55409   2.244   1.861   8.546
12241SOL    HW155410   2.160   1.864   8.599
12241SOL    HW255411   2.224   1.834   8.452
12242SOL     OW55412   6.686   7.451   1.829
12242SOL    HW155413   6.678   7.529   1.890
12242SOL    HW255414   6.620   7.381   1.855
12243SOL     OW55415   9.538   7.137   8.219
12243SOL    HW155416   9.516   7.103   8.127
12243SOL    HW255417   9.525   7.064   8.285
12244SOL     OW55418   2.781   4.642   7.686
12244SOL    HW155419   2.832   4.586   7.751
12244SOL    HW255420   2.843   4.707   7.642
12245SOL     OW55421   9.266   3.524   7.280
12245SOL    HW155422   9.186   3.542   7.337
12245SOL    HW255423   9.315   3.610   7.263
12246SOL     OW55424   5.894  10.095   2.126
12246SOL    HW155425   5.928  10.030   2.194
12246SOL    HW255426   5.888  10.186   2.167
12247SOL     OW55427   4.438   0.077   0.317
12247SOL    HW155428   4.347   0.036   0.316
12247SOL    HW255429   4.496   0.028   0.381
12248SOL     OW55430   2.752   1.685   6.454
12248SOL    HW155431   2.758   1.721   6.547
12248SOL    HW255432   2.816   1.608   6.444
12249SOL     OW55433   0.775   0.607   7.520
12249SOL    HW155434   0.698   0.545   7.540
12249SOL    HW255435   0.764   0.691   7.573
12250SOL     OW55436   9.694   6.711   6.766
12250SOL    HW155437   9.675   6.619   6.731
12250SOL    HW255438   9.642   6.778   6.713
12251SOL     OW55439   4.896  10.125   7.628
12251SOL    HW155440   4.995  10.137   7.633
12251SOL    HW255441   4.857  10.192   7.565
12252SOL     OW55442   2.427   2.318   6.905
12252SOL    HW155443   2.336   2.277   6.918
12252SOL    HW255444   2.458   2.300   6.812
12253SOL     OW55445   6.420   6.190   0.651
12253SOL    HW155446   6.412   6.207   0.553
12253SOL    HW255447   6.466   6.102   0.666
12254SOL     OW55448   0.732   4.015   0.021
12254SOL    HW155449   0.705   3.970   8.717
12254SOL    HW255450   0.669   3.988   0.094
12255SOL     OW55451   7.291   0.649   2.054
12255SOL    HW155452   7.192   0.660   2.049
12255SOL    HW255453   7.319   0.639   2.150
12256SOL     OW55454   2.946   0.485   0.914
12256SOL    HW155455   3.005   0.517   0.840
12256SOL    HW255456   2.999   0.428   0.977
12257SOL     OW55457   7.576   4.276   8.417
12257SOL    HW155458   7.655   4.275   8.478
12257SOL    HW255459   7.580   4.196   8.356
12258SOL     OW55460   2.730   7.418   6.830
12258SOL    HW155461   2.746   7.444   6.735
12258SOL    HW255462   2.668   7.484   6.872
12259SOL     OW55463   5.193   4.799   0.522
12259SOL    HW155464   5.238   4.802   0.433
12259SOL    HW255465   5.146   4.711   0.532
12260SOL     OW55466   8.904   4.895   7.936
12260SOL    HW155467   8.949   4.856   8.017
12260SOL    HW255468   8.835   4.961   7.964
12261SOL     OW55469   5.506   6.362   6.469
12261SOL    HW155470   5.518   6.395   6.375
12261SOL    HW255471   5.479   6.439   6.527
12262SOL     OW55472   3.373   1.914   1.854
12262SOL    HW155473   3.365   1.927   1.952
12262SOL    HW255474   3.373   1.816   1.833
12263SOL     OW55475   5.552   9.880   8.087
12263SOL    HW155476   5.620   9.929   8.142
12263SOL    HW255477   5.568   9.782   8.094
12264SOL     OW55478   2.335   3.452   1.217
12264SOL    HW155479   2.249   3.445   1.268
12264SOL    HW255480   2.349   3.367   1.165
12265SOL     OW55481   5.992   1.854   7.951
12265SOL    HW155482   5.985   1.934   7.893
12265SOL    HW255483   6.065   1.867   8.018
12266SOL     OW55484   8.273   5.743   7.448
12266SOL    HW155485   8.318   5.729   7.359
12266SOL    HW255486   8.342   5.765   7.517
12267SOL     OW55487   3.064   1.954   8.489
12267SOL    HW155488   3.013   2.022   8.543
12267SOL    HW255489   3.092   1.995   8.402
12268SOL     OW55490   3.901   7.111   1.344
12268SOL    HW155491   3.897   7.016   1.375
12268SOL    HW255492   3.939   7.169   1.417
12269SOL     OW55493   3.842   1.696   0.891
12269SOL    HW155494   3.910   1.768   0.873
12269SOL    HW255495   3.815   1.698   0.987
12270SOL     OW55496   0.436   4.909   2.024
12270SOL    HW155497   0.505   4.860   2.077
12270SOL    HW255498   0.458   5.006   2.021
12271SOL     OW55499   6.605   1.805   2.106
12271SOL    HW155500   6.530   1.839   2.164
12271SOL    HW255501   6.637   1.718   2.142
12272SOL     OW55502   6.173   5.875   7.476
12272SOL    HW155503   6.117   5.908   7.400
12272SOL    HW255504   6.258   5.928   7.479
12273SOL     OW55505   9.548   1.107   0.924
12273SOL    HW155506   9.452   1.125   0.901
12273SOL    HW255507   9.581   1.179   0.986
12274SOL     OW55508   5.916   4.950   0.983
12274SOL    HW155509   5.958   4.862   1.003
12274SOL    HW255510   5.857   4.977   1.060
12275SOL     OW55511   4.157   6.781   0.723
12275SOL    HW155512   4.061   6.753   0.726
12275SOL    HW255513   4.170   6.848   0.650
12276SOL     OW55514   2.967   0.433   8.124
12276SOL    HW155515   3.046   0.464   8.071
12276SOL    HW255516   2.945   0.500   8.194
12277SOL     OW55517   4.970   5.692   1.857
12277SOL    HW155518   4.925   5.684   1.946
12277SOL    HW255519   5.034   5.769   1.859
12278SOL     OW55520   3.115   5.770   6.887
12278SOL    HW155521   3.057   5.850   6.879
12278SOL    HW255522   3.205   5.789   6.846
12279SOL     OW55523  10.106   4.428   7.621
12279SOL    HW155524  10.079   4.524   7.627
12279SOL    HW255525  10.032   4.374   7.580
12280SOL     OW55526   0.618   2.710   1.319
12280SOL    HW155527   0.549   2.772   1.281
12280SOL    HW255528   0.651   2.649   1.247
12281SOL     OW55529   3.347   9.834   1.509
12281SOL    HW155530   3.328   9.832   1.411
12281SOL    HW255531   3.441   9.804   1.525
12282SOL     OW55532   5.467   6.089   1.874
12282SOL    HW155533   5.538   6.158   1.864
12282SOL    HW255534   5.392   6.126   1.930
12283SOL     OW55535  10.113   8.055   8.733
12283SOL    HW155536  10.042   8.093   0.011
12283SOL    HW255537   0.018   8.128   8.706
12284SOL     OW55538   3.092   8.144   6.799
12284SOL    HW155539   3.113   8.237   6.831
12284SOL    HW255540   3.050   8.092   6.873
12285SOL     OW55541   3.612   7.461   0.236
12285SOL    HW155542   3.602   7.529   0.164
12285SOL    HW255543   3.574   7.497   0.321
12286SOL     OW55544   3.736   3.569   8.745
12286SOL    HW155545   3.773   3.516   0.039
12286SOL    HW255546   3.646   3.606   8.771
12287SOL     OW55547  10.060   8.555   0.064
12287SOL    HW155548   9.965   8.537   0.091
12287SOL    HW255549  10.064   8.574   8.748
12288SOL     OW55550   9.333   6.087   1.235
12288SOL    HW155551   9.408   6.093   1.301
12288SOL    HW255552   9.266   6.158   1.255
12289SOL     OW55553   9.410   5.852   1.430
12289SOL    HW155554   9.366   5.887   1.513
12289SOL    HW255555   9.475   5.919   1.396
12290SOL     OW55556   5.550   2.170   0.499
12290SOL    HW155557   5.629   2.120   0.533
12290SOL    HW255558   5.524   2.134   0.409
12291SOL     OW55559   4.972   1.920   8.608
12291SOL    HW155560   4.892   1.906   8.550
12291SOL    HW255561   5.020   2.003   8.579
12292SOL     OW55562   5.689   8.541   7.235
12292SOL    HW155563   5.697   8.459   7.292
12292SOL    HW255564   5.595   8.575   7.237
12293SOL     OW55565   2.197   8.450   1.345
12293SOL    HW155566   2.279   8.396   1.364
12293SOL    HW255567   2.120   8.413   1.398
12294SOL     OW55568   1.740   6.001   8.393
12294SOL    HW155569   1.735   5.961   8.302
12294SOL    HW255570   1.803   6.080   8.392
12295SOL     OW55571   2.760   6.477   6.798
12295SOL    HW155572   2.747   6.385   6.836
12295SOL    HW255573   2.707   6.543   6.851
12296SOL     OW55574   4.082   0.602   8.628
12296SOL    HW155575   4.119   0.517   8.591
12296SOL    HW255576   4.033   0.651   8.556
12297SOL     OW55577   1.627   9.638   7.873
12297SOL    HW155578   1.595   9.660   7.781
12297SOL    HW255579   1.594   9.548   7.900
12298SOL     OW55580   0.792   7.045   8.614
12298SOL    HW155581   0.841   6.959   8.628
12298SOL    HW255582   0.722   7.032   8.544
12299SOL     OW55583   7.124   4.903   8.010
12299SOL    HW155584   7.204   4.950   8.047
12299SOL    HW255585   7.152   4.845   7.933
12300SOL     OW55586   9.822   0.859   1.245
12300SOL    HW155587   9.866   0.917   1.176
12300SOL    HW255588   9.757   0.798   1.200
12301SOL     OW55589   5.367   6.075   0.877
12301SOL    HW155590   5.281   6.108   0.915
12301SOL    HW255591   5.437   6.146   0.887
12302SOL     OW55592   2.805   9.091   2.339
12302SOL    HW155593   2.774   9.004   2.300
12302SOL    HW255594   2.739   9.123   2.406
12303SOL     OW55595   6.887   9.277   1.381
12303SOL    HW155596   6.822   9.251   1.310
12303SOL    HW255597   6.840   9.325   1.454
12304SOL     OW55598   1.804   0.804   6.649
12304SOL    HW155599   1.710   0.830   6.669
12304SOL    HW255600   1.832   0.842   6.561
12305SOL     OW55601   9.130   6.600   8.690
12305SOL    HW155602   9.050   6.658   8.708
12305SOL    HW255603   9.181   6.588   8.775
12306SOL     OW55604   4.495   7.344   7.858
12306SOL    HW155605   4.475   7.262   7.804
12306SOL    HW255606   4.461   7.331   7.951
12307SOL     OW55607   9.507   5.596   0.220
12307SOL    HW155608   9.454   5.564   0.141
12307SOL    HW255609   9.542   5.688   0.201
12308SOL     OW55610   5.453   2.988   7.447
12308SOL    HW155611   5.395   2.922   7.495
12308SOL    HW255612   5.418   3.080   7.462
12309SOL     OW55613   3.684   5.158   1.056
12309SOL    HW155614   3.628   5.221   1.000
12309SOL    HW255615   3.626   5.116   1.126
12310SOL     OW55616   4.175  10.057   0.473
12310SOL    HW155617   4.243  10.093   0.536
12310SOL    HW255618   4.099  10.017   0.525
12311SOL     OW55619   9.850   8.339   0.386
12311SOL    HW155620   9.877   8.284   0.307
12311SOL    HW255621   9.931   8.363   0.439
12312SOL     OW55622   6.867   4.408   6.989
12312SOL    HW155623   6.904   4.477   6.927
12312SOL    HW255624   6.852   4.448   7.079
12313SOL     OW55625   3.490   2.037   7.041
12313SOL    HW155626   3.415   1.979   7.074
12313SOL    HW255627   3.463   2.083   6.957
12314SOL     OW55628   0.224   4.241   0.215
12314SOL    HW155629   0.157   4.287   0.273
12314SOL    HW255630   0.300   4.304   0.197
12315SOL     OW55631   5.342   9.471   1.910
12315SOL    HW155632   5.305   9.512   1.826
12315SOL    HW255633   5.440   9.455   1.899
12316SOL     OW55634   2.701   1.618   2.073
12316SOL    HW155635   2.640   1.557   2.022
12316SOL    HW255636   2.716   1.580   2.164
12317SOL     OW55637   8.816   2.607   1.288
12317SOL    HW155638   8.724   2.643   1.271
12317SOL    HW255639   8.851   2.564   1.205
12318SOL     OW55640  10.021   8.905   7.310
12318SOL    HW155641  10.077   8.986   7.294
12318SOL    HW255642   9.929   8.919   7.273
12319SOL     OW55643   5.113   7.380   8.245
12319SOL    HW155644   5.170   7.320   8.301
12319SOL    HW255645   5.169   7.450   8.202
12320SOL     OW55646   0.883  10.449   0.981
12320SOL    HW155647   0.935  10.374   0.941
12320SOL    HW255648   0.829  10.494   0.909
12321SOL     OW55649   3.209   5.197   1.456
12321SOL    HW155650   3.236   5.274   1.398
12321SOL    HW255651   3.220   5.223   1.552
12322SOL     OW55652   2.635   6.780   0.838
12322SOL    HW155653   2.665   6.875   0.852
12322SOL    HW255654   2.688   6.720   0.898
12323SOL     OW55655   7.294   7.669   1.589
12323SOL    HW155656   7.234   7.597   1.624
12323SOL    HW255657   7.382   7.629   1.563
12324SOL     OW55658   2.201   8.022   1.074
12324SOL    HW155659   2.111   8.010   1.117
12324SOL    HW255660   2.250   8.096   1.120
12325SOL     OW55661   8.026   0.941   6.443
12325SOL    HW155662   7.968   0.859   6.435
12325SOL    HW255663   7.995   1.009   6.377
12326SOL     OW55664   2.734   0.955   7.158
12326SOL    HW155665   2.730   0.857   7.177
12326SOL    HW255666   2.641   0.992   7.155
12327SOL     OW55667   4.463   6.337   0.501
12327SOL    HW155668   4.390   6.304   0.561
12327SOL    HW255669   4.430   6.340   0.406
12328SOL     OW55670   1.831   2.331   8.455
12328SOL    HW155671   1.777   2.396   8.402
12328SOL    HW255672   1.927   2.358   8.453
12329SOL     OW55673   1.367   0.033   0.484
12329SOL    HW155674   1.362  10.453   0.539
12329SOL    HW255675   1.316   0.106   0.529
12330SOL     OW55676   1.341   5.481   0.489
12330SOL    HW155677   1.387   5.463   0.402
12330SOL    HW255678   1.317   5.394   0.533
12331SOL     OW55679   5.431   4.529   0.153
12331SOL    HW155680   5.490   4.577   0.087
12331SOL    HW255681   5.337   4.526   0.118
12332SOL     OW55682   6.139   9.810   8.623
12332SOL    HW155683   6.153   9.909   8.633
12332SOL    HW255684   6.119   9.770   8.712
12333SOL     OW55685   1.163   4.497   8.694
12333SOL    HW155686   1.179   4.480   0.009
12333SOL    HW255687   1.149   4.411   8.646
12334SOL     OW55688   5.826   7.870   7.679
12334SOL    HW155689   5.875   7.831   7.757
12334SOL    HW255690   5.837   7.969   7.679
12335SOL     OW55691   8.432   5.688   1.074
12335SOL    HW155692   8.364   5.615   1.069
12335SOL    HW255693   8.520   5.653   1.043
12336SOL     OW55694   9.937   9.645   1.240
12336SOL    HW155695   9.876   9.677   1.168
12336SOL    HW255696   9.942   9.713   1.313
12337SOL     OW55697   3.665   5.622   6.410
12337SOL    HW155698   3.637   5.603   6.504
12337SOL    HW255699   3.717   5.544   6.374
12338SOL     OW55700   5.707   1.963   6.378
12338SOL    HW155701   5.697   2.062   6.389
12338SOL    HW255702   5.618   1.919   6.389
12339SOL     OW55703   8.713   7.468   1.722
12339SOL    HW155704   8.693   7.473   1.820
12339SOL    HW255705   8.789   7.530   1.701
12340SOL     OW55706   6.797   9.517   0.844
12340SOL    HW155707   6.879   9.470   0.876
12340SOL    HW255708   6.802   9.528   0.745
12341SOL     OW55709   9.076   6.252   0.357
12341SOL    HW155710   9.158   6.277   0.408
12341SOL    HW255711   9.011   6.208   0.419
12342SOL     OW55712   5.315   1.359   1.413
12342SOL    HW155713   5.268   1.446   1.400
12342SOL    HW255714   5.321   1.338   1.510
12343SOL     OW55715   8.056   3.293   0.982
12343SOL    HW155716   8.024   3.385   1.003
12343SOL    HW255717   8.000   3.226   1.032
12344SOL     OW55718   3.263   7.153   0.607
12344SOL    HW155719   3.183   7.099   0.634
12344SOL    HW255720   3.324   7.097   0.551
12345SOL     OW55721   9.791   9.171   8.052
12345SOL    HW155722   9.826   9.253   8.098
12345SOL    HW255723   9.816   9.175   7.955
12346SOL     OW55724   6.450   6.621   8.114
12346SOL    HW155725   6.531   6.665   8.152
12346SOL    HW255726   6.408   6.681   8.046
12347SOL     OW55727   8.845   7.758   8.387
12347SOL    HW155728   8.933   7.712   8.376
12347SOL    HW255729   8.853   7.830   8.456
12348SOL     OW55730   0.596   5.683   8.218
12348SOL    HW155731   0.536   5.758   8.192
12348SOL    HW255732   0.691   5.714   8.219
12349SOL     OW55733   6.804   3.736   8.631
12349SOL    HW155734   6.781   3.801   8.560
12349SOL    HW255735   6.876   3.774   8.690
12350SOL     OW55736   3.938   2.331   7.116
12350SOL    HW155737   3.849   2.287   7.110
12350SOL    HW255738   3.965   2.340   7.212
12351SOL     OW55739   4.841   1.935   2.037
12351SOL    HW155740   4.778   1.930   2.114
12351SOL    HW255741   4.823   1.859   1.974
12352SOL     OW55742   0.298   5.135   6.602
12352SOL    HW155743   0.258   5.044   6.591
12352SOL    HW255744   0.387   5.138   6.557
12353SOL     OW55745   9.745   4.283   1.716
12353SOL    HW155746   9.742   4.225   1.635
12353SOL    HW255747   9.681   4.359   1.705
12354SOL     OW55748   5.922   8.701   7.341
12354SOL    HW155749   5.839   8.648   7.328
12354SOL    HW255750   5.956   8.688   7.435
12355SOL     OW55751   2.483   4.974   1.420
12355SOL    HW155752   2.491   5.070   1.447
12355SOL    HW255753   2.390   4.942   1.440
12356SOL     OW55754   6.521  10.408   1.156
12356SOL    HW155755   6.598  10.376   1.101
12356SOL    HW255756   6.483  10.490   1.114
12357SOL     OW55757   0.378   7.888   1.938
12357SOL    HW155758   0.326   7.830   2.000
12357SOL    HW255759   0.444   7.942   1.990
12358SOL     OW55760   6.373   7.627   8.266
12358SOL    HW155761   6.439   7.668   8.329
12358SOL    HW255762   6.312   7.567   8.318
12359SOL     OW55763  10.008  10.067   8.141
12359SOL    HW155764  10.066   9.988   8.156
12359SOL    HW255765   9.973  10.066   8.048
12360SOL     OW55766   4.436   6.402   0.870
12360SOL    HW155767   4.354   6.458   0.873
12360SOL    HW255768   4.516   6.460   0.851
12361SOL     OW55769   0.821   7.385   7.756
12361SOL    HW155770   0.801   7.352   7.663
12361SOL    HW255771   0.876   7.468   7.751
12362SOL     OW55772   9.700   6.034   0.668
12362SOL    HW155773   9.722   5.942   0.702
12362SOL    HW255774   9.732   6.043   0.573
12363SOL     OW55775   4.895   7.322   0.402
12363SOL    HW155776   4.984   7.305   0.445
12363SOL    HW255777   4.823   7.309   0.470
12364SOL     OW55778   4.111   0.566   8.014
12364SOL    HW155779   4.112   0.580   8.113
12364SOL    HW255780   4.073   0.647   7.970
12365SOL     OW55781   6.849   6.739   7.354
12365SOL    HW155782   6.823   6.820   7.302
12365SOL    HW255783   6.949   6.729   7.352
12366SOL     OW55784   9.728   0.120   7.486
12366SOL    HW155785   9.799   0.182   7.519
12366SOL    HW255786   9.746   0.097   7.390
12367SOL     OW55787   0.452   7.243   1.340
12367SOL    HW155788   0.504   7.238   1.425
12367SOL    HW255789   0.355   7.254   1.362
12368SOL     OW55790   3.728   6.339   8.326
12368SOL    HW155791   3.636   6.378   8.325
12368SOL    HW255792   3.730   6.259   8.386
12369SOL     OW55793   2.599   0.259   7.189
12369SOL    HW155794   2.583   0.173   7.238
12369SOL    HW255795   2.681   0.249   7.131
12370SOL     OW55796   7.375   0.755   1.229
12370SOL    HW155797   7.386   0.676   1.289
12370SOL    HW255798   7.422   0.834   1.269
12371SOL     OW55799   8.637   2.355   1.615
12371SOL    HW155800   8.573   2.416   1.662
12371SOL    HW255801   8.636   2.265   1.659
12372SOL     OW55802   7.864   2.228   7.287
12372SOL    HW155803   7.955   2.216   7.327
12372SOL    HW255804   7.862   2.310   7.230
12373SOL     OW55805   1.976   8.805   0.842
12373SOL    HW155806   1.974   8.709   0.871
12373SOL    HW255807   1.921   8.815   0.759
12374SOL     OW55808   8.310   1.342   7.944
12374SOL    HW155809   8.284   1.335   7.848
12374SOL    HW255810   8.394   1.290   7.960
12375SOL     OW55811   6.173   6.780   1.759
12375SOL    HW155812   6.249   6.804   1.818
12375SOL    HW255813   6.132   6.694   1.789
12376SOL     OW55814   3.329   1.397   0.898
12376SOL    HW155815   3.276   1.468   0.944
12376SOL    HW255816   3.305   1.394   0.801
12377SOL     OW55817   6.669   0.546   8.536
12377SOL    HW155818   6.679   0.547   8.635
12377SOL    HW255819   6.618   0.626   8.506
12378SOL     OW55820   1.456   4.493   1.510
12378SOL    HW155821   1.405   4.580   1.503
12378SOL    HW255822   1.408   4.432   1.573
12379SOL     OW55823   4.846   6.441   8.464
12379SOL    HW155824   4.822   6.351   8.429
12379SOL    HW255825   4.767   6.501   8.460
12380SOL     OW55826   4.097   6.893   8.274
12380SOL    HW155827   4.145   6.844   8.347
12380SOL    HW255828   4.031   6.832   8.231
12381SOL     OW55829   9.196   5.232   7.120
12381SOL    HW155830   9.104   5.262   7.098
12381SOL    HW255831   9.201   5.132   7.115
12382SOL     OW55832   0.094   2.979   1.869
12382SOL    HW155833   0.101   3.076   1.850
12382SOL    HW255834   0.123   2.960   1.963
12383SOL     OW55835   6.228   8.039   7.143
12383SOL    HW155836   6.272   8.035   7.232
12383SOL    HW255837   6.133   8.007   7.151
12384SOL     OW55838   4.719   6.787   0.986
12384SOL    HW155839   4.636   6.808   1.038
12384SOL    HW255840   4.799   6.793   1.046
12385SOL     OW55841   7.913   4.437   7.764
12385SOL    HW155842   7.999   4.479   7.792
12385SOL    HW255843   7.882   4.480   7.679
12386SOL     OW55844   1.412   3.157   0.261
12386SOL    HW155845   1.399   3.237   0.321
12386SOL    HW255846   1.324   3.112   0.246
12387SOL     OW55847   7.303   3.652   8.152
12387SOL    HW155848   7.369   3.700   8.094
12387SOL    HW255849   7.214   3.697   8.144
12388SOL     OW55850   0.708   6.682   7.060
12388SOL    HW155851   0.636   6.747   7.034
12388SOL    HW255852   0.772   6.727   7.123
12389SOL     OW55853   2.495   3.465   6.266
12389SOL    HW155854   2.584   3.510   6.254
12389SOL    HW255855   2.488   3.387   6.204
12390SOL     OW55856   1.906   6.613   0.406
12390SOL    HW155857   1.835   6.669   0.449
12390SOL    HW255858   1.875   6.585   0.315
12391SOL     OW55859   4.375   4.248   1.703
12391SOL    HW155860   4.368   4.324   1.768
12391SOL    HW255861   4.284   4.213   1.684
12392SOL     OW55862   5.513   5.511   1.346
12392SOL    HW155863   5.526   5.584   1.414
12392SOL    HW255864   5.442   5.539   1.281
12393SOL     OW55865   2.569   9.737   0.160
12393SOL    HW155866   2.547   9.709   0.253
12393SOL    HW255867   2.589   9.655   0.105
12394SOL     OW55868   3.084   0.584   0.287
12394SOL    HW155869   3.103   0.655   0.219
12394SOL    HW255870   3.056   0.627   0.373
12395SOL     OW55871   3.248   1.977   1.315
12395SOL    HW155872   3.222   1.967   1.219
12395SOL    HW255873   3.176   1.940   1.374
12396SOL     OW55874   8.196   5.216   6.179
12396SOL    HW155875   8.136   5.136   6.168
12396SOL    HW255876   8.291   5.185   6.187
12397SOL     OW55877   2.682   6.213   7.425
12397SOL    HW155878   2.680   6.312   7.442
12397SOL    HW255879   2.590   6.180   7.406
12398SOL     OW55880   0.986   0.891   1.482
12398SOL    HW155881   0.930   0.969   1.455
12398SOL    HW255882   1.072   0.892   1.431
12399SOL     OW55883   4.290   0.345   8.153
12399SOL    HW155884   4.221   0.275   8.173
12399SOL    HW255885   4.247   0.435   8.156
12400SOL     OW55886   6.316   6.574   0.424
12400SOL    HW155887   6.269   6.486   0.412
12400SOL    HW255888   6.252   6.640   0.464
12401SOL     OW55889   1.620   0.523   1.892
12401SOL    HW155890   1.720   0.525   1.897
12401SOL    HW255891   1.582   0.600   1.942
12402SOL     OW55892   3.663   7.030   7.317
12402SOL    HW155893   3.686   7.041   7.414
12402SOL    HW255894   3.707   7.101   7.264
12403SOL     OW55895   6.530   8.390   0.050
12403SOL    HW155896   6.453   8.337   0.014
12403SOL    HW255897   6.529   8.481   0.011
12404SOL     OW55898   0.341   3.584   1.401
12404SOL    HW155899   0.341   3.546   1.493
12404SOL    HW255900   0.294   3.673   1.401
12405SOL     OW55901   3.900   1.443   7.653
12405SOL    HW155902   3.886   1.538   7.682
12405SOL    HW255903   3.989   1.435   7.609
12406SOL     OW55904   9.564   2.769   0.098
12406SOL    HW155905   9.522   2.744   0.011
12406SOL    HW255906   9.627   2.845   0.085
12407SOL     OW55907   1.869   5.736   7.139
12407SOL    HW155908   1.870   5.713   7.236
12407SOL    HW255909   1.908   5.827   7.125
12408SOL     OW55910   9.831   8.037   7.859
12408SOL    HW155911   9.743   8.083   7.869
12408SOL    HW255912   9.897   8.074   7.925
12409SOL     OW55913   8.832   6.593   1.389
12409SOL    HW155914   8.857   6.552   1.301
12409SOL    HW255915   8.909   6.646   1.424
12410SOL     OW55916   4.590   9.316   0.876
12410SOL    HW155917   4.497   9.281   0.885
12410SOL    HW255918   4.638   9.266   0.804
12411SOL     OW55919   8.713   0.688   7.007
12411SOL    HW155920   8.787   0.690   6.940
12411SOL    HW255921   8.638   0.630   6.974
12412SOL     OW55922   8.815   0.213   8.466
12412SOL    HW155923   8.830   0.156   8.547
12412SOL    HW255924   8.847   0.306   8.485
12413SOL     OW55925   0.423   4.145   7.969
12413SOL    HW155926   0.469   4.083   8.032
12413SOL    HW255927   0.472   4.232   7.965
12414SOL     OW55928   8.984   4.348   8.013
12414SOL    HW155929   9.082   4.341   8.028
12414SOL    HW255930   8.938   4.268   8.053
12415SOL     OW55931   3.590   5.963   1.768
12415SOL    HW155932   3.594   6.030   1.842
12415SOL    HW255933   3.660   5.893   1.783
12416SOL     OW55934   3.588   5.539   6.653
12416SOL    HW155935   3.492   5.528   6.678
12416SOL    HW255936   3.634   5.450   6.658
12417SOL     OW55937   9.345   6.389   6.145
12417SOL    HW155938   9.270   6.450   6.170
12417SOL    HW255939   9.310   6.297   6.130
12418SOL     OW55940   6.629   0.844   0.256
12418SOL    HW155941   6.687   0.904   0.313
12418SOL    HW255942   6.537   0.882   0.250
12419SOL     OW55943   8.840   9.184   0.381
12419SOL    HW155944   8.924   9.148   0.341
12419SOL    HW255945   8.827   9.279   0.351
12420SOL     OW55946  10.038   9.418   2.003
12420SOL    HW155947  10.111   9.425   1.934
12420SOL    HW255948  10.030   9.323   2.032
12421SOL     OW55949   1.326   5.365   7.747
12421SOL    HW155950   1.367   5.436   7.689
12421SOL    HW255951   1.396   5.302   7.779
12422SOL     OW55952   9.622   9.684   0.184
12422SOL    HW155953   9.554   9.755   0.162
12422SOL    HW255954   9.617   9.611   0.115
12423SOL     OW55955   7.577   5.536   7.655
12423SOL    HW155956   7.552   5.611   7.594
12423SOL    HW255957   7.664   5.496   7.625
12424SOL     OW55958   5.055   8.544   0.370
12424SOL    HW155959   5.049   8.462   0.314
12424SOL    HW255960   5.144   8.588   0.356
12425SOL     OW55961   3.440   8.045   6.801
12425SOL    HW155962   3.392   8.132   6.796
12425SOL    HW255963   3.533   8.060   6.833
12426SOL     OW55964   5.466   9.634   2.337
12426SOL    HW155965   5.379   9.629   2.386
12426SOL    HW255966   5.536   9.670   2.399
12427SOL     OW55967   8.881   4.605   6.207
12427SOL    HW155968   8.879   4.681   6.143
12427SOL    HW255969   8.794   4.555   6.203
12428SOL     OW55970   2.985   2.472   6.884
12428SOL    HW155971   2.893   2.437   6.865
12428SOL    HW255972   3.038   2.475   6.799
12429SOL     OW55973   0.071   8.849   7.705
12429SOL    HW155974   0.030   8.939   7.714
12429SOL    HW255975   0.017   8.793   7.642
12430SOL     OW55976   1.044   8.683   0.749
12430SOL    HW155977   1.022   8.781   0.752
12430SOL    HW255978   1.075   8.654   0.840
12431SOL     OW55979   7.896   0.551   0.451
12431SOL    HW155980   7.924   0.467   0.404
12431SOL    HW255981   7.846   0.609   0.387
12432SOL     OW55982   5.119   1.730   2.249
12432SOL    HW155983   5.171   1.803   2.294
12432SOL    HW255984   5.024   1.735   2.278
12433SOL     OW55985   8.133   1.182   1.017
12433SOL    HW155986   8.151   1.194   1.115
12433SOL    HW255987   8.201   1.233   0.964
12434SOL     OW55988   4.548   4.889   0.361
12434SOL    HW155989   4.461   4.889   0.411
12434SOL    HW255990   4.545   4.823   0.286
12435SOL     OW55991   5.781   6.109   8.061
12435SOL    HW155992   5.818   6.158   7.982
12435SOL    HW255993   5.836   6.027   8.079
12436SOL     OW55994   2.224   8.062   7.288
12436SOL    HW155995   2.224   7.978   7.233
12436SOL    HW255996   2.158   8.127   7.249
12437SOL     OW55997   9.873   5.356   7.038
12437SOL    HW155998   9.939   5.366   7.112
12437SOL    HW255999   9.922   5.333   6.953
12438SOL     OW56000   4.221   4.291   6.641
12438SOL    HW156001   4.208   4.339   6.728
12438SOL    HW256002   4.301   4.328   6.594
12439SOL     OW56003   1.602   9.006   7.618
12439SOL    HW156004   1.623   8.990   7.522
12439SOL    HW256005   1.507   9.039   7.626
12440SOL     OW56006   4.941   2.749   6.678
12440SOL    HW156007   4.900   2.758   6.768
12440SOL    HW256008   4.901   2.816   6.616
12441SOL     OW56009   2.224   1.157   1.879
12441SOL    HW156010   2.226   1.203   1.968
12441SOL    HW256011   2.160   1.080   1.883
12442SOL     OW56012   7.095  10.098   1.143
12442SOL    HW156013   7.053  10.131   1.059
12442SOL    HW256014   7.038  10.025   1.182
12443SOL     OW56015   0.301   7.836   1.353
12443SOL    HW156016   0.347   7.823   1.266
12443SOL    HW256017   0.352   7.903   1.407
12444SOL     OW56018   8.511   0.078   6.901
12444SOL    HW156019   8.413   0.062   6.910
12444SOL    HW256020   8.529   0.134   6.821
12445SOL     OW56021   1.520   1.801   1.461
12445SOL    HW156022   1.436   1.822   1.410
12445SOL    HW256023   1.572   1.732   1.412
12446SOL     OW56024   2.355  10.166   7.442
12446SOL    HW156025   2.268  10.214   7.429
12446SOL    HW256026   2.396  10.195   7.528
12447SOL     OW56027   7.803   1.123   0.634
12447SOL    HW156028   7.766   1.201   0.584
12447SOL    HW256029   7.733   1.052   0.642
12448SOL     OW56030   0.986   6.732   6.703
12448SOL    HW156031   1.037   6.656   6.664
12448SOL    HW256032   0.960   6.795   6.630
12449SOL     OW56033   1.810   4.296   0.644
12449SOL    HW156034   1.858   4.257   0.566
12449SOL    HW256035   1.782   4.223   0.706
12450SOL     OW56036   6.186  10.226   0.342
12450SOL    HW156037   6.254  10.184   0.402
12450SOL    HW256038   6.213  10.214   0.247
12451SOL     OW56039   7.844   0.040   1.293
12451SOL    HW156040   7.759   0.050   1.241
12451SOL    HW256041   7.824   0.041   1.391
12452SOL     OW56042   2.617   7.086   8.259
12452SOL    HW156043   2.583   7.178   8.281
12452SOL    HW256044   2.618   7.031   8.342
12453SOL     OW56045   2.643   7.794   7.545
12453SOL    HW156046   2.670   7.848   7.465
12453SOL    HW256047   2.716   7.729   7.567
12454SOL     OW56048   5.214   0.256   7.164
12454SOL    HW156049   5.210   0.355   7.180
12454SOL    HW256050   5.225   0.209   7.251
12455SOL     OW56051   9.303   2.304   6.944
12455SOL    HW156052   9.231   2.278   7.007
12455SOL    HW256053   9.280   2.391   6.900
12456SOL     OW56054   8.569   0.561   8.611
12456SOL    HW156055   8.643   0.620   8.577
12456SOL    HW256056   8.538   0.501   8.537
12457SOL     OW56057   2.306   4.069   7.863
12457SOL    HW156058   2.286   3.977   7.897
12457SOL    HW256059   2.399   4.095   7.891
12458SOL     OW56060   3.904   6.698   8.217
12458SOL    HW156061   3.911   6.613   8.164
12458SOL    HW256062   3.890   6.676   8.314
12459SOL     OW56063   5.766   5.047   0.234
12459SOL    HW156064   5.785   5.071   0.330
12459SOL    HW256065   5.729   5.127   0.187
12460SOL     OW56066   9.557   9.103   0.417
12460SOL    HW156067   9.502   9.042   0.474
12460SOL    HW256068   9.509   9.190   0.405
12461SOL     OW56069   4.998   2.900   7.856
12461SOL    HW156070   4.967   2.927   7.948
12461SOL    HW256071   5.091   2.934   7.842
12462SOL     OW56072   8.624   7.045   6.508
12462SOL    HW156073   8.722   7.041   6.528
12462SOL    HW256074   8.609   7.020   6.412
12463SOL     OW56075   3.098   9.269   0.623
12463SOL    HW156076   3.121   9.205   0.697
12463SOL    HW256077   3.125   9.230   0.535
12464SOL     OW56078   2.531   3.046   6.686
12464SOL    HW156079   2.445   3.004   6.714
12464SOL    HW256080   2.527   3.145   6.700
12465SOL     OW56081   6.631   8.864   8.748
12465SOL    HW156082   6.585   8.905   8.669
12465SOL    HW256083   6.724   8.899   8.755
12466SOL     OW56084   6.221   0.457   8.670
12466SOL    HW156085   6.314   0.431   8.695
12466SOL    HW256086   6.221   0.501   8.580
12467SOL     OW56087   9.995   4.431   0.930
12467SOL    HW156088  10.040   4.367   0.869
12467SOL    HW256089   9.938   4.381   0.996
12468SOL     OW56090   6.559   3.974   1.457
12468SOL    HW156091   6.606   3.908   1.398
12468SOL    HW256092   6.543   4.058   1.405
12469SOL     OW56093   4.918   3.974   1.098
12469SOL    HW156094   4.987   3.930   1.155
12469SOL    HW256095   4.894   4.063   1.138
12470SOL     OW56096   1.829   3.644   0.720
12470SOL    HW156097   1.836   3.700   0.637
12470SOL    HW256098   1.816   3.704   0.799
12471SOL     OW56099   0.185   1.869   1.547
12471SOL    HW156100   0.210   1.859   1.643
12471SOL    HW256101   0.216   1.789   1.496
12472SOL     OW56102   0.637   3.328   8.324
12472SOL    HW156103   0.691   3.243   8.326
12472SOL    HW256104   0.572   3.323   8.248
12473SOL     OW56105   1.645   7.784   1.134
12473SOL    HW156106   1.570   7.835   1.092
12473SOL    HW256107   1.726   7.788   1.075
12474SOL     OW56108   1.445   4.303   0.181
12474SOL    HW156109   1.508   4.327   0.107
12474SOL    HW256110   1.376   4.375   0.191
12475SOL     OW56111   4.277   3.095   8.704
12475SOL    HW156112   4.325   3.127   8.623
12475SOL    HW256113   4.193   3.148   8.716
12476SOL     OW56114   3.516   9.755   8.243
12476SOL    HW156115   3.446   9.733   8.312
12476SOL    HW256116   3.484   9.725   8.153
12477SOL     OW56117   0.142   9.874   6.267
12477SOL    HW156118   0.090   9.955   6.242
12477SOL    HW256119   0.079   9.798   6.286
12478SOL     OW56120   2.629  10.496   7.685
12478SOL    HW156121   2.586  10.405   7.682
12478SOL    HW256122   2.558   0.063   7.678
12479SOL     OW56123   5.629   5.637   6.624
12479SOL    HW156124   5.685   5.586   6.558
12479SOL    HW256125   5.600   5.723   6.582
12480SOL     OW56126   9.169   9.590   7.401
12480SOL    HW156127   9.145   9.531   7.324
12480SOL    HW256128   9.096   9.657   7.416
12481SOL     OW56129   9.272   7.725   1.610
12481SOL    HW156130   9.228   7.677   1.534
12481SOL    HW256131   9.291   7.660   1.684
12482SOL     OW56132   7.098   2.718   6.770
12482SOL    HW156133   7.065   2.626   6.791
12482SOL    HW256134   7.195   2.725   6.791
12483SOL     OW56135   2.107  10.259   7.363
12483SOL    HW156136   2.016  10.281   7.398
12483SOL    HW256137   2.099  10.193   7.289
12484SOL     OW56138   7.867   8.582   0.285
12484SOL    HW156139   7.777   8.547   0.255
12484SOL    HW256140   7.888   8.545   0.376
12485SOL     OW56141   3.897   6.698   0.737
12485SOL    HW156142   3.851   6.659   0.817
12485SOL    HW256143   3.842   6.680   0.655
12486SOL     OW56144   9.570   9.144   0.766
12486SOL    HW156145   9.595   9.217   0.702
12486SOL    HW256146   9.608   9.057   0.734
12487SOL     OW56147   0.497   3.733   8.166
12487SOL    HW156148   0.534   3.698   8.080
12487SOL    HW256149   0.507   3.832   8.170
12488SOL     OW56150   8.835   0.972   1.685
12488SOL    HW156151   8.895   0.898   1.659
12488SOL    HW256152   8.742   0.937   1.700
12489SOL     OW56153   7.842  10.093   1.436
12489SOL    HW156154   7.876  10.175   1.390
12489SOL    HW256155   7.908  10.018   1.426
12490SOL     OW56156   0.270   8.025   7.931
12490SOL    HW156157   0.323   7.960   7.985
12490SOL    HW256158   0.173   8.003   7.938
12491SOL     OW56159   9.135   5.868   7.485
12491SOL    HW156160   9.147   5.824   7.574
12491SOL    HW256161   9.220   5.912   7.458
12492SOL     OW56162   9.686   6.437   6.700
12492SOL    HW156163   9.701   6.378   6.779
12492SOL    HW256164   9.770   6.440   6.644
12493SOL     OW56165   0.048   6.308   1.199
12493SOL    HW156166   0.081   6.231   1.255
12493SOL    HW256167  10.147   6.273   1.126
12494SOL     OW56168   4.400   0.780   1.002
12494SOL    HW156169   4.424   0.686   1.024
12494SOL    HW256170   4.336   0.782   0.925
12495SOL     OW56171   6.146   5.105   7.881
12495SOL    HW156172   6.171   5.169   7.809
12495SOL    HW256173   6.137   5.013   7.842
12496SOL     OW56174   1.669   2.077   0.003
12496SOL    HW156175   1.751   2.124   0.037
12496SOL    HW256176   1.591   2.101   0.061
12497SOL     OW56177   3.546   8.908   1.408
12497SOL    HW156178   3.590   8.867   1.328
12497SOL    HW256179   3.589   8.996   1.429
12498SOL     OW56180   5.959   4.952   1.827
12498SOL    HW156181   5.989   4.871   1.878
12498SOL    HW256182   6.038   5.003   1.796
12499SOL     OW56183   1.423   3.903   6.662
12499SOL    HW156184   1.334   3.881   6.621
12499SOL    HW256185   1.495   3.883   6.596
12500SOL     OW56186   5.894   0.404   6.462
12500SOL    HW156187   5.828   0.343   6.505
12500SOL    HW256188   5.871   0.417   6.366
12501SOL     OW56189   1.735   9.358   1.177
12501SOL    HW156190   1.736   9.276   1.235
12501SOL    HW256191   1.649   9.361   1.126
12502SOL     OW56192   5.797   7.551   8.100
12502SOL    HW156193   5.882   7.540   8.049
12502SOL    HW256194   5.720   7.556   8.036
12503SOL     OW56195   3.300   5.399   1.289
12503SOL    HW156196   3.264   5.492   1.297
12503SOL    HW256197   3.297   5.371   1.193
12504SOL     OW56198   6.726   7.806   0.439
12504SOL    HW156199   6.799   7.755   0.394
12504SOL    HW256200   6.752   7.825   0.534
12505SOL     OW56201   6.646   2.534   8.198
12505SOL    HW156202   6.618   2.628   8.214
12505SOL    HW256203   6.604   2.501   8.113
12506SOL     OW56204   9.006   2.921   6.729
12506SOL    HW156205   8.962   2.908   6.818
12506SOL    HW256206   9.024   2.832   6.687
12507SOL     OW56207   4.211   1.964   7.899
12507SOL    HW156208   4.167   1.993   7.984
12507SOL    HW256209   4.175   2.018   7.823
12508SOL     OW56210   9.724   6.668   7.034
12508SOL    HW156211   9.812   6.704   7.066
12508SOL    HW256212   9.713   6.690   6.937
12509SOL     OW56213   7.874   6.241   1.388
12509SOL    HW156214   7.800   6.305   1.412
12509SOL    HW256215   7.911   6.201   1.471
12510SOL     OW56216   5.736   4.844   1.403
12510SOL    HW156217   5.642   4.813   1.389
12510SOL    HW256218   5.793   4.767   1.431
12511SOL     OW56219   2.275   0.846   7.827
12511SOL    HW156220   2.240   0.779   7.893
12511SOL    HW256221   2.231   0.831   7.739
12512SOL     OW56222   2.711   8.952   0.684
12512SOL    HW156223   2.735   9.016   0.758
12512SOL    HW256224   2.632   8.988   0.634
12513SOL     OW56225   5.284   0.461   1.360
12513SOL    HW156226   5.333   0.531   1.308
12513SOL    HW256227   5.190   0.453   1.324
12514SOL     OW56228   7.704   8.592   8.701
12514SOL    HW156229   7.696   8.691   8.717
12514SOL    HW256230   7.797   8.562   8.722
12515SOL     OW56231   0.482   1.086   6.613
12515SOL    HW156232   0.448   0.994   6.594
12515SOL    HW256233   0.411   1.153   6.592
12516SOL     OW56234   2.564   5.136   7.304
12516SOL    HW156235   2.623   5.216   7.309
12516SOL    HW256236   2.471   5.162   7.330
12517SOL     OW56237   9.529   1.091   6.682
12517SOL    HW156238   9.481   1.151   6.619
12517SOL    HW256239   9.628   1.104   6.672
12518SOL     OW56240   3.389   6.752   0.985
12518SOL    HW156241   3.296   6.717   0.990
12518SOL    HW256242   3.423   6.770   1.078
12519SOL     OW56243   6.396   6.069   8.693
12519SOL    HW156244   6.449   6.145   8.655
12519SOL    HW256245   6.411   5.987   8.639
12520SOL     OW56246   2.019   5.787   8.158
12520SOL    HW156247   2.100   5.751   8.204
12520SOL    HW256248   2.046   5.835   8.075
12521SOL     OW56249   8.578   0.516   6.775
12521SOL    HW156250   8.592   0.599   6.720
12521SOL    HW256251   8.580   0.436   6.716
12522SOL     OW56252   7.650   5.613   0.995
12522SOL    HW156253   7.559   5.656   0.988
12522SOL    HW256254   7.711   5.674   1.047
12523SOL     OW56255   8.540   2.729   8.313
12523SOL    HW156256   8.498   2.677   8.238
12523SOL    HW256257   8.551   2.824   8.285
12524SOL     OW56258   3.976   8.466   1.067
12524SOL    HW156259   3.901   8.411   1.103
12524SOL    HW256260   4.031   8.411   1.005
12525SOL     OW56261   6.241   6.619   7.333
12525SOL    HW156262   6.221   6.557   7.256
12525SOL    HW256263   6.274   6.566   7.410
12526SOL     OW56264   4.293   8.084   0.369
12526SOL    HW156265   4.332   8.176   0.356
12526SOL    HW256266   4.200   8.093   0.406
12527SOL     OW56267   4.677   3.905   0.889
12527SOL    HW156268   4.758   3.846   0.881
12527SOL    HW256269   4.659   3.924   0.986
12528SOL     OW56270   6.499   6.745   1.410
12528SOL    HW156271   6.495   6.673   1.480
12528SOL    HW256272   6.555   6.821   1.444
12529SOL     OW56273   6.553   7.019   2.037
12529SOL    HW156274   6.626   6.952   2.022
12529SOL    HW256275   6.545   7.039   2.135
12530SOL     OW56276   8.907   6.741   8.782
12530SOL    HW156277   8.908   6.758   0.098
12530SOL    HW256278   8.901   6.828   8.733
12531SOL     OW56279   4.112   3.722   0.241
12531SOL    HW156280   4.199   3.680   0.267
12531SOL    HW256281   4.098   3.714   0.143
12532SOL     OW56282   5.203   1.512   1.878
12532SOL    HW156283   5.297   1.492   1.903
12532SOL    HW256284   5.146   1.515   1.961
12533SOL     OW56285   8.560   9.254   0.673
12533SOL    HW156286   8.616   9.186   0.625
12533SOL    HW256287   8.546   9.224   0.767
12534SOL     OW56288   0.853   2.223   8.134
12534SOL    HW156289   0.767   2.186   8.098
12534SOL    HW256290   0.902   2.151   8.183
12535SOL     OW56291   0.047   2.897   1.611
12535SOL    HW156292   0.061   2.927   1.706
12535SOL    HW256293   0.040   2.797   1.609
12536SOL     OW56294   5.680   1.743   7.249
12536SOL    HW156295   5.741   1.821   7.252
12536SOL    HW256296   5.598   1.766   7.198
12537SOL     OW56297  10.061   4.888   6.403
12537SOL    HW156298  10.101   4.979   6.392
12537SOL    HW256299  10.111   4.823   6.345
12538SOL     OW56300   9.724   2.067   7.614
12538SOL    HW156301   9.695   2.122   7.535
12538SOL    HW256302   9.780   2.123   7.674
12539SOL     OW56303   6.499   8.284   0.438
12539SOL    HW156304   6.409   8.262   0.402
12539SOL    HW256305   6.568   8.272   0.366
12540SOL     OW56306   8.534   8.510   7.755
12540SOL    HW156307   8.600   8.461   7.698
12540SOL    HW256308   8.469   8.446   7.795
12541SOL     OW56309   0.882   5.385   0.059
12541SOL    HW156310   0.805   5.328   0.090
12541SOL    HW256311   0.847   5.466   0.013
12542SOL     OW56312   1.510   4.931   1.744
12542SOL    HW156313   1.412   4.942   1.727
12542SOL    HW256314   1.543   5.007   1.799
12543SOL     OW56315   2.309   1.180   1.452
12543SOL    HW156316   2.229   1.162   1.394
12543SOL    HW256317   2.326   1.102   1.511
12544SOL     OW56318   5.258   1.924   2.375
12544SOL    HW156319   5.350   1.892   2.398
12544SOL    HW256320   5.229   1.993   2.440
12545SOL     OW56321   8.022   9.478   0.907
12545SOL    HW156322   7.987   9.438   0.823
12545SOL    HW256323   7.960   9.550   0.938
12546SOL     OW56324   9.916   8.187   0.152
12546SOL    HW156325   9.925   8.242   0.069
12546SOL    HW256326   9.824   8.149   0.157
12547SOL     OW56327   5.317   6.308   1.125
12547SOL    HW156328   5.279   6.370   1.193
12547SOL    HW256329   5.243   6.269   1.070
12548SOL     OW56330   5.564   5.866   1.997
12548SOL    HW156331   5.535   5.949   1.948
12548SOL    HW256332   5.534   5.872   2.093
12549SOL     OW56333  10.126  10.082   8.664
12549SOL    HW156334  10.142  10.179   8.646
12549SOL    HW256335  10.141  10.030   8.581
12550SOL     OW56336   4.557  10.404   7.105
12550SOL    HW156337   4.480  10.445   7.057
12550SOL    HW256338   4.560  10.306   7.085
12551SOL     OW56339   5.903   6.260   7.870
12551SOL    HW156340   5.844   6.334   7.837
12551SOL    HW256341   5.974   6.299   7.928
12552SOL     OW56342   0.663   8.845   8.096
12552SOL    HW156343   0.666   8.945   8.099
12552SOL    HW256344   0.733   8.811   8.033
12553SOL     OW56345   7.083   0.227   8.426
12553SOL    HW156346   7.132   0.196   8.344
12553SOL    HW256347   7.074   0.326   8.423
12554SOL     OW56348   9.245   7.453   7.755
12554SOL    HW156349   9.283   7.371   7.799
12554SOL    HW256350   9.316   7.523   7.747
12555SOL     OW56351   1.837   9.711   8.286
12555SOL    HW156352   1.824   9.691   8.189
12555SOL    HW256353   1.778   9.651   8.341
12556SOL     OW56354   2.861  10.383   1.179
12556SOL    HW156355   2.817  10.366   1.267
12556SOL    HW256356   2.836  10.475   1.147
12557SOL     OW56357   6.908   4.146   8.708
12557SOL    HW156358   6.867   4.094   0.001
12557SOL    HW256359   7.005   4.161   8.728
12558SOL     OW56360   8.041   9.344   1.150
12558SOL    HW156361   8.035   9.388   1.060
12558SOL    HW256362   8.075   9.251   1.140
12559SOL     OW56363   0.654   9.159   7.525
12559SOL    HW156364   0.671   9.075   7.473
12559SOL    HW256365   0.582   9.212   7.479
12560SOL     OW56366   7.165  10.146   1.569
12560SOL    HW156367   7.212  10.116   1.487
12560SOL    HW256368   7.162  10.070   1.635
12561SOL     OW56369   3.184   8.733   7.617
12561SOL    HW156370   3.192   8.793   7.538
12561SOL    HW256371   3.100   8.754   7.667
12562SOL     OW56372   3.379   5.453   8.729
12562SOL    HW156373   3.323   5.431   8.649
12562SOL    HW256374   3.319   5.467   0.026
12563SOL     OW56375   4.034   8.732   7.096
12563SOL    HW156376   4.031   8.644   7.144
12563SOL    HW256377   3.987   8.801   7.150
12564SOL     OW56378   4.838   6.049   6.975
12564SOL    HW156379   4.747   6.058   7.014
12564SOL    HW256380   4.830   6.012   6.882
12565SOL     OW56381   6.535   3.634   0.953
12565SOL    HW156382   6.580   3.549   0.927
12565SOL    HW256383   6.592   3.711   0.926
12566SOL     OW56384   0.976   0.127   1.699
12566SOL    HW156385   1.041   0.203   1.709
12566SOL    HW256386   0.888   0.162   1.669
12567SOL     OW56387   0.035   8.646   8.146
12567SOL    HW156388   0.042   8.724   8.083
12567SOL    HW256389  10.145   8.571   8.100
12568SOL     OW56390   2.968   5.600   8.257
12568SOL    HW156391   2.971   5.516   8.204
12568SOL    HW256392   3.058   5.617   8.298
12569SOL     OW56393   4.791   3.961   7.093
12569SOL    HW156394   4.692   3.958   7.101
12569SOL    HW256395   4.817   3.968   6.997
12570SOL     OW56396   7.139   8.982   8.681
12570SOL    HW156397   7.165   8.945   8.592
12570SOL    HW256398   7.212   8.966   8.747
12571SOL     OW56399   5.635   0.586   0.366
12571SOL    HW156400   5.711   0.567   0.304
12571SOL    HW256401   5.633   0.517   0.438
12572SOL     OW56402   1.448   5.428   6.171
12572SOL    HW156403   1.413   5.417   6.077
12572SOL    HW256404   1.523   5.364   6.186
12573SOL     OW56405   4.464   1.113   7.713
12573SOL    HW156406   4.515   1.186   7.668
12573SOL    HW256407   4.444   1.041   7.647
12574SOL     OW56408   1.084   4.396   6.135
12574SOL    HW156409   1.068   4.479   6.082
12574SOL    HW256410   1.164   4.348   6.098
12575SOL     OW56411   6.964   0.883   6.850
12575SOL    HW156412   7.005   0.919   6.766
12575SOL    HW256413   6.904   0.953   6.890
12576SOL     OW56414   6.350   8.441   0.887
12576SOL    HW156415   6.420   8.369   0.883
12576SOL    HW256416   6.275   8.410   0.944
12577SOL     OW56417   2.745   5.805   1.597
12577SOL    HW156418   2.754   5.881   1.663
12577SOL    HW256419   2.699   5.838   1.515
12578SOL     OW56420   3.556   2.307   5.767
12578SOL    HW156421   3.561   2.228   5.706
12578SOL    HW256422   3.585   2.281   5.859
12579SOL     OW56423   3.228   4.787   1.600
12579SOL    HW156424   3.190   4.846   1.530
12579SOL    HW256425   3.189   4.811   1.689
12580SOL     OW56426   6.637   0.590   2.068
12580SOL    HW156427   6.593   0.508   2.104
12580SOL    HW256428   6.654   0.578   1.970
12581SOL     OW56429   0.194   4.302   7.575
12581SOL    HW156430   0.118   4.361   7.601
12581SOL    HW256431   0.168   4.246   7.497
12582SOL     OW56432   8.745   8.856   8.216
12582SOL    HW156433   8.824   8.876   8.273
12582SOL    HW256434   8.735   8.757   8.206
12583SOL     OW56435   6.431   0.264   7.296
12583SOL    HW156436   6.335   0.274   7.272
12583SOL    HW256437   6.460   0.170   7.278
12584SOL     OW56438   5.389   3.839   0.881
12584SOL    HW156439   5.319   3.777   0.845
12584SOL    HW256440   5.349   3.930   0.895
12585SOL     OW56441   5.868   9.572   7.235
12585SOL    HW156442   5.821   9.634   7.298
12585SOL    HW256443   5.902   9.623   7.156
12586SOL     OW56444   7.831   8.715   2.122
12586SOL    HW156445   7.802   8.788   2.184
12586SOL    HW256446   7.859   8.635   2.176
12587SOL     OW56447   0.412   5.893   7.868
12587SOL    HW156448   0.353   5.817   7.841
12587SOL    HW256449   0.387   5.975   7.817
12588SOL     OW56450   5.369   8.008   1.690
12588SOL    HW156451   5.297   7.988   1.624
12588SOL    HW256452   5.345   8.089   1.743
12589SOL     OW56453   6.167  10.423   1.509
12589SOL    HW156454   6.196  10.452   1.600
12589SOL    HW256455   6.068  10.435   1.501
12590SOL     OW56456   7.742   1.062   1.753
12590SOL    HW156457   7.734   1.129   1.827
12590SOL    HW256458   7.834   1.068   1.713
12591SOL     OW56459   2.266   6.804   8.777
12591SOL    HW156460   2.330   6.728   8.770
12591SOL    HW256461   2.264   6.838   0.089
12592SOL     OW56462  10.001   6.088   7.902
12592SOL    HW156463   9.956   6.176   7.913
12592SOL    HW256464  10.085   6.099   7.848
12593SOL     OW56465   3.636   9.779   1.458
12593SOL    HW156466   3.696   9.766   1.379
12593SOL    HW256467   3.657   9.867   1.501
12594SOL     OW56468   4.537   6.832   1.191
12594SOL    HW156469   4.589   6.819   1.276
12594SOL    HW256470   4.468   6.761   1.183
12595SOL     OW56471   4.157   7.733   0.650
12595SOL    HW156472   4.115   7.717   0.740
12595SOL    HW256473   4.086   7.741   0.581
12596SOL     OW56474   6.741   4.916   1.946
12596SOL    HW156475   6.789   4.947   2.028
12596SOL    HW256476   6.647   4.950   1.948
12597SOL     OW56477   7.346   3.710   7.419
12597SOL    HW156478   7.360   3.613   7.396
12597SOL    HW256479   7.301   3.717   7.508
12598SOL     OW56480   8.930   3.435   6.898
12598SOL    HW156481   8.901   3.386   6.980
12598SOL    HW256482   8.856   3.496   6.868
12599SOL     OW56483   7.709   8.238   2.291
12599SOL    HW156484   7.655   8.320   2.311
12599SOL    HW256485   7.795   8.242   2.342
12600SOL     OW56486   9.295   6.702   6.777
12600SOL    HW156487   9.295   6.765   6.699
12600SOL    HW256488   9.201   6.689   6.809
12601SOL     OW56489   4.998   8.233   7.037
12601SOL    HW156490   5.025   8.293   6.962
12601SOL    HW256491   4.898   8.235   7.047
12602SOL     OW56492   0.375   5.663   0.294
12602SOL    HW156493   0.384   5.565   0.316
12602SOL    HW256494   0.363   5.714   0.379
12603SOL     OW56495   5.977   1.383   0.041
12603SOL    HW156496   5.940   1.475   0.024
12603SOL    HW256497   5.963   1.326   8.742
12604SOL     OW56498   5.269   9.812   6.019
12604SOL    HW156499   5.329   9.826   6.097
12604SOL    HW256500   5.308   9.742   5.958
12605SOL     OW56501   5.536   1.251   6.240
12605SOL    HW156502   5.475   1.189   6.191
12605SOL    HW256503   5.525   1.343   6.204
12606SOL     OW56504   1.909   8.293   8.446
12606SOL    HW156505   1.931   8.391   8.441
12606SOL    HW256506   1.936   8.258   8.536
12607SOL     OW56507   8.949   1.089   1.455
12607SOL    HW156508   8.911   1.057   1.368
12607SOL    HW256509   8.893   1.054   1.531
12608SOL     OW56510  10.134  10.492   6.854
12608SOL    HW156511  10.088  10.416   6.900
12608SOL    HW256512  10.065   0.055   6.824
12609SOL     OW56513   9.802   1.900   6.664
12609SOL    HW156514   9.717   1.890   6.612
12609SOL    HW256515   9.792   1.973   6.731
12610SOL     OW56516   6.678   8.614   7.494
12610SOL    HW156517   6.582   8.643   7.487
12610SOL    HW256518   6.687   8.547   7.567
12611SOL     OW56519   5.456   1.512   7.004
12611SOL    HW156520   5.456   1.499   6.905
12611SOL    HW256521   5.370   1.477   7.042
12612SOL     OW56522   4.791   2.555   8.178
12612SOL    HW156523   4.816   2.500   8.258
12612SOL    HW256524   4.857   2.539   8.105
12613SOL     OW56525   6.108   1.884   7.205
12613SOL    HW156526   6.185   1.940   7.235
12613SOL    HW256527   6.110   1.796   7.252
12614SOL     OW56528   5.272   3.021   7.130
12614SOL    HW156529   5.233   3.098   7.182
12614SOL    HW256530   5.198   2.968   7.089
12615SOL     OW56531   7.194   7.493   0.082
12615SOL    HW156532   7.144   7.471   0.166
12615SOL    HW256533   7.158   7.577   0.043
12616SOL     OW56534   9.431   9.072   7.745
12616SOL    HW156535   9.469   9.019   7.821
12616SOL    HW256536   9.430   9.015   7.662
12617SOL     OW56537   7.305   5.882   6.718
12617SOL    HW156538   7.240   5.851   6.649
12617SOL    HW256539   7.367   5.949   6.677
12618SOL     OW56540   7.407   6.306   1.370
12618SOL    HW156541   7.415   6.217   1.325
12618SOL    HW256542   7.481   6.366   1.338
12619SOL     OW56543   9.265   3.179   1.800
12619SOL    HW156544   9.199   3.148   1.869
12619SOL    HW256545   9.217   3.229   1.728
12620SOL     OW56546   4.549   8.696   7.699
12620SOL    HW156547   4.541   8.787   7.741
12620SOL    HW256548   4.622   8.697   7.631
12621SOL     OW56549   8.708   5.614   6.396
12621SOL    HW156550   8.732   5.710   6.381
12621SOL    HW256551   8.792   5.559   6.403
12622SOL     OW56552   5.511   4.862   0.826
12622SOL    HW156553   5.533   4.954   0.795
12622SOL    HW256554   5.540   4.851   0.921
12623SOL     OW56555   5.931   8.341   0.154
12623SOL    HW156556   6.026   8.360   0.131
12623SOL    HW256557   5.915   8.360   0.251
12624SOL     OW56558   6.465   7.892   0.683
12624SOL    HW156559   6.527   7.970   0.677
12624SOL    HW256560   6.463   7.845   0.595
12625SOL     OW56561   2.775   6.250   1.729
12625SOL    HW156562   2.677   6.267   1.720
12625SOL    HW256563   2.791   6.156   1.758
12626SOL     OW56564   0.091   0.019   6.386
12626SOL    HW156565   0.018  10.492   6.325
12626SOL    HW256566   0.162   0.065   6.333
12627SOL     OW56567   6.680   0.036   1.335
12627SOL    HW156568   6.637   0.098   1.401
12627SOL    HW256569   6.609  10.497   1.278
12628SOL     OW56570   2.583   0.474   8.587
12628SOL    HW156571   2.490   0.488   8.622
12628SOL    HW256572   2.589   0.506   8.493
12629SOL     OW56573   7.968   7.708   0.210
12629SOL    HW156574   7.941   7.614   0.233
12629SOL    HW256575   7.886   7.765   0.204
12630SOL     OW56576   8.419  10.326   2.286
12630SOL    HW156577   8.402  10.248   2.346
12630SOL    HW256578   8.384  10.409   2.328
12631SOL     OW56579   0.305   0.938   7.416
12631SOL    HW156580   0.239   0.910   7.486
12631SOL    HW256581   0.358   0.858   7.387
12632SOL     OW56582   7.014   8.894   2.231
12632SOL    HW156583   6.982   8.848   2.147
12632SOL    HW256584   7.096   8.849   2.264
12633SOL     OW56585   0.819   8.062   7.036
12633SOL    HW156586   0.849   7.967   7.038
12633SOL    HW256587   0.897   8.122   7.020
12634SOL     OW56588   5.726   4.759   2.190
12634SOL    HW156589   5.755   4.846   2.152
12634SOL    HW256590   5.641   4.771   2.240
12635SOL     OW56591   5.166   6.626   7.450
12635SOL    HW156592   5.249   6.682   7.457
12635SOL    HW256593   5.111   6.658   7.373
12636SOL     OW56594   6.203   3.470   7.200
12636SOL    HW156595   6.165   3.411   7.272
12636SOL    HW256596   6.191   3.566   7.225
12637SOL     OW56597   2.332  10.205   1.253
12637SOL    HW156598   2.411  10.211   1.314
12637SOL    HW256599   2.346  10.131   1.187
12638SOL     OW56600   3.363   0.894   0.959
12638SOL    HW156601   3.351   0.992   0.976
12638SOL    HW256602   3.273   0.852   0.943
12639SOL     OW56603   3.730   2.395   7.619
12639SOL    HW156604   3.655   2.396   7.685
12639SOL    HW256605   3.695   2.412   7.527
12640SOL     OW56606   5.312   8.604   0.040
12640SOL    HW156607   5.313   8.616   0.139
12640SOL    HW256608   5.326   8.692   8.777
12641SOL     OW56609   0.699   2.714   0.544
12641SOL    HW156610   0.614   2.661   0.553
12641SOL    HW256611   0.770   2.655   0.505
12642SOL     OW56612   0.969   2.449   8.624
12642SOL    HW156613   0.952   2.502   8.541
12642SOL    HW256614   1.036   2.377   8.604
12643SOL     OW56615   5.131   7.131   1.051
12643SOL    HW156616   5.228   7.131   1.075
12643SOL    HW256617   5.120   7.154   0.955
12644SOL     OW56618   4.573   4.519   7.226
12644SOL    HW156619   4.510   4.504   7.149
12644SOL    HW256620   4.543   4.465   7.305
12645SOL     OW56621   9.130   1.482   7.728
12645SOL    HW156622   9.129   1.555   7.659
12645SOL    HW256623   9.101   1.519   7.816
12646SOL     OW56624   2.401   9.933   0.079
12646SOL    HW156625   2.464   9.863   0.111
12646SOL    HW256626   2.451  10.019   0.067
12647SOL     OW56627   5.529   3.971   1.313
12647SOL    HW156628   5.549   3.930   1.224
12647SOL    HW256629   5.532   4.070   1.306
12648SOL     OW56630   5.210   2.087   0.855
12648SOL    HW156631   5.235   2.141   0.935
12648SOL    HW256632   5.256   2.125   0.774
12649SOL     OW56633   8.499   6.519   7.051
12649SOL    HW156634   8.549   6.438   7.021
12649SOL    HW256635   8.509   6.529   7.150
12650SOL     OW56636   1.986   8.224   8.705
12650SOL    HW156637   2.085   8.236   8.699
12650SOL    HW256638   1.963   8.127   8.709
12651SOL     OW56639   3.788   8.094   2.400
12651SOL    HW156640   3.857   8.144   2.348
12651SOL    HW256641   3.808   8.101   2.498
12652SOL     OW56642   8.413   6.999   1.293
12652SOL    HW156643   8.426   7.080   1.236
12652SOL    HW256644   8.316   6.979   1.301
12653SOL     OW56645   1.736   5.901   1.905
12653SOL    HW156646   1.750   5.995   1.873
12653SOL    HW256647   1.638   5.882   1.908
12654SOL     OW56648   2.532   6.192   8.582
12654SOL    HW156649   2.442   6.212   8.620
12654SOL    HW256650   2.551   6.094   8.591
12655SOL     OW56651   4.968   2.401   7.623
12655SOL    HW156652   4.976   2.496   7.653
12655SOL    HW256653   5.056   2.354   7.634
12656SOL     OW56654   8.442   7.360   0.314
12656SOL    HW156655   8.541   7.367   0.305
12656SOL    HW256656   8.404   7.314   0.233
12657SOL     OW56657   8.668   2.009   0.199
12657SOL    HW156658   8.630   2.095   0.234
12657SOL    HW256659   8.754   2.027   0.152
12658SOL     OW56660   3.207   3.876   0.148
12658SOL    HW156661   3.285   3.883   0.086
12658SOL    HW256662   3.122   3.878   0.094
12659SOL     OW56663   7.931   8.270   0.036
12659SOL    HW156664   7.843   8.244   8.778
12659SOL    HW256665   7.943   8.369   0.028
12660SOL     OW56666   9.226   1.095   7.137
12660SOL    HW156667   9.214   1.193   7.128
12660SOL    HW256668   9.152   1.058   7.194
12661SOL     OW56669   6.623   6.313   0.202
12661SOL    HW156670   6.675   6.252   0.141
12661SOL    HW256671   6.586   6.388   0.149
12662SOL     OW56672   5.259   7.758   7.797
12662SOL    HW156673   5.201   7.759   7.879
12662SOL    HW256674   5.354   7.776   7.824
12663SOL     OW56675   0.463   2.602   0.118
12663SOL    HW156676   0.379   2.650   0.143
12663SOL    HW256677   0.452   2.504   0.133
12664SOL     OW56678   6.099   9.493   1.653
12664SOL    HW156679   6.056   9.407   1.682
12664SOL    HW256680   6.089   9.561   1.726
12665SOL     OW56681   6.945   3.084   7.052
12665SOL    HW156682   6.895   3.065   6.968
12665SOL    HW256683   7.026   3.140   7.031
12666SOL     OW56684   3.788   4.196   6.937
12666SOL    HW156685   3.777   4.157   7.028
12666SOL    HW256686   3.769   4.294   6.940
12667SOL     OW56687   7.651   4.584   1.366
12667SOL    HW156688   7.674   4.503   1.311
12667SOL    HW256689   7.735   4.633   1.388
12668SOL     OW56690   8.475   2.200   7.797
12668SOL    HW156691   8.488   2.167   7.891
12668SOL    HW256692   8.562   2.229   7.759
12669SOL     OW56693   6.003   1.440   0.723
12669SOL    HW156694   6.100   1.457   0.709
12669SOL    HW256695   5.951   1.477   0.646
12670SOL     OW56696   4.306   1.744   1.462
12670SOL    HW156697   4.331   1.817   1.527
12670SOL    HW256698   4.329   1.773   1.369
12671SOL     OW56699   2.607   5.264   7.591
12671SOL    HW156700   2.679   5.287   7.656
12671SOL    HW256701   2.627   5.308   7.503
12672SOL     OW56702   8.299   0.395   6.549
12672SOL    HW156703   8.226   0.367   6.487
12672SOL    HW256704   8.357   0.315   6.569
12673SOL     OW56705   0.937   2.459   0.108
12673SOL    HW156706   0.950   2.458   0.009
12673SOL    HW256707   0.858   2.516   0.130
12674SOL     OW56708   5.855   1.395   8.133
12674SOL    HW156709   5.780   1.431   8.187
12674SOL    HW256710   5.825   1.381   8.039
12675SOL     OW56711   3.102   0.961   8.553
12675SOL    HW156712   3.020   1.018   8.555
12675SOL    HW256713   3.094   0.888   8.621
12676SOL     OW56714   8.296   8.007   7.096
12676SOL    HW156715   8.245   8.020   7.181
12676SOL    HW256716   8.391   8.035   7.110
12677SOL     OW56717   1.279   9.498   7.314
12677SOL    HW156718   1.283   9.496   7.414
12677SOL    HW256719   1.186   9.518   7.285
12678SOL     OW56720   6.014   9.466   8.282
12678SOL    HW156721   6.000   9.546   8.340
12678SOL    HW256722   5.937   9.403   8.291
12679SOL     OW56723   1.820   8.401   0.056
12679SOL    HW156724   1.886   8.339   0.013
12679SOL    HW256725   1.806   8.480   8.778
12680SOL     OW56726   2.956   3.261   7.529
12680SOL    HW156727   2.871   3.280   7.481
12680SOL    HW256728   2.967   3.162   7.540
12681SOL     OW56729   8.402   6.502   0.576
12681SOL    HW156730   8.400   6.556   0.491
12681SOL    HW256731   8.329   6.532   0.637
12682SOL     OW56732   9.689   2.889   8.150
12682SOL    HW156733   9.727   2.977   8.124
12682SOL    HW256734   9.755   2.816   8.129
12683SOL     OW56735   6.566   9.973   1.075
12683SOL    HW156736   6.603   9.884   1.047
12683SOL    HW256737   6.613  10.004   1.157
12684SOL     OW56738   2.988   6.913   8.383
12684SOL    HW156739   2.968   6.982   8.313
12684SOL    HW256740   2.927   6.835   8.372
12685SOL     OW56741   8.611   9.440   1.947
12685SOL    HW156742   8.595   9.487   1.860
12685SOL    HW256743   8.524   9.421   1.991
12686SOL     OW56744   0.851   3.254   8.596
12686SOL    HW156745   0.827   3.342   8.635
12686SOL    HW256746   0.950   3.244   8.593
12687SOL     OW56747   1.409   8.588   8.621
12687SOL    HW156748   1.459   8.518   8.570
12687SOL    HW256749   1.406   8.673   8.568
12688SOL     OW56750   1.209   6.946   0.498
12688SOL    HW156751   1.126   6.992   0.530
12688SOL    HW256752   1.247   6.891   0.572
12689SOL     OW56753   8.514  10.325   1.302
12689SOL    HW156754   8.522  10.233   1.262
12689SOL    HW256755   8.420  10.340   1.332
12690SOL     OW56756   0.107   6.069   1.320
12690SOL    HW156757   0.013   6.035   1.317
12690SOL    HW256758   0.137   6.075   1.415
12691SOL     OW56759   2.179   3.466   8.386
12691SOL    HW156760   2.131   3.384   8.418
12691SOL    HW256761   2.228   3.445   8.302
12692SOL     OW56762   8.034   0.698   7.630
12692SOL    HW156763   7.982   0.746   7.700
12692SOL    HW256764   7.994   0.607   7.615
12693SOL     OW56765   5.791   6.104   7.188
12693SOL    HW156766   5.737   6.167   7.244
12693SOL    HW256767   5.806   6.145   7.098
12694SOL     OW56768   4.222   9.054   8.570
12694SOL    HW156769   4.138   9.093   8.531
12694SOL    HW256770   4.301   9.088   8.518
12695SOL     OW56771   5.205   4.013   6.376
12695SOL    HW156772   5.210   3.971   6.467
12695SOL    HW256773   5.175   3.945   6.309
12696SOL     OW56774   4.819   5.967   6.711
12696SOL    HW156775   4.850   5.875   6.687
12696SOL    HW256776   4.734   5.987   6.662
12697SOL     OW56777   6.388   0.708   0.471
12697SOL    HW156778   6.411   0.768   0.548
12697SOL    HW256779   6.395   0.760   0.386
12698SOL     OW56780   1.107   0.330   0.369
12698SOL    HW156781   1.148   0.332   0.278
12698SOL    HW256782   1.008   0.344   0.361
12699SOL     OW56783   3.210   1.984   6.760
12699SOL    HW156784   3.245   1.899   6.798
12699SOL    HW256785   3.277   2.057   6.776
12700SOL     OW56786   4.317   5.446   0.531
12700SOL    HW156787   4.397   5.388   0.543
12700SOL    HW256788   4.282   5.473   0.621
12701SOL     OW56789   7.913   2.792   8.219
12701SOL    HW156790   8.010   2.816   8.209
12701SOL    HW256791   7.856   2.866   8.184
12702SOL     OW56792   5.222   9.911   1.397
12702SOL    HW156793   5.313   9.885   1.366
12702SOL    HW256794   5.227   9.945   1.491
12703SOL     OW56795   4.051   3.818   1.065
12703SOL    HW156796   4.127   3.790   1.125
12703SOL    HW256797   4.053   3.763   0.982
12704SOL     OW56798   1.858   6.278   8.099
12704SOL    HW156799   1.876   6.238   8.189
12704SOL    HW256800   1.774   6.332   8.103
12705SOL     OW56801   9.403   4.531   7.175
12705SOL    HW156802   9.458   4.606   7.211
12705SOL    HW256803   9.390   4.543   7.076
12706SOL     OW56804   8.930   9.794   7.791
12706SOL    HW156805   8.883   9.737   7.723
12706SOL    HW256806   9.005   9.742   7.831
12707SOL     OW56807   8.869   2.724   7.742
12707SOL    HW156808   8.933   2.687   7.809
12707SOL    HW256809   8.815   2.796   7.784
12708SOL     OW56810   1.000   1.242   6.981
12708SOL    HW156811   0.949   1.169   7.027
12708SOL    HW256812   1.019   1.315   7.046
12709SOL     OW56813   3.682   6.775   1.915
12709SOL    HW156814   3.739   6.844   1.960
12709SOL    HW256815   3.600   6.819   1.878
12710SOL     OW56816   0.723   1.252   1.935
12710SOL    HW156817   0.682   1.257   2.026
12710SOL    HW256818   0.675   1.316   1.874
12711SOL     OW56819   3.605   6.311   0.093
12711SOL    HW156820   3.540   6.236   0.089
12711SOL    HW256821   3.557   6.399   0.092
12712SOL     OW56822   9.162   6.831   7.869
12712SOL    HW156823   9.101   6.828   7.949
12712SOL    HW256824   9.139   6.911   7.813
12713SOL     OW56825   2.996   9.392   8.646
12713SOL    HW156826   2.947   9.339   8.577
12713SOL    HW256827   2.980   9.352   8.736
12714SOL     OW56828   2.014   3.242   8.465
12714SOL    HW156829   1.968   3.153   8.470
12714SOL    HW256830   2.032   3.276   8.558
12715SOL     OW56831   2.507   9.375   7.750
12715SOL    HW156832   2.597   9.395   7.790
12715SOL    HW256833   2.517   9.300   7.685
12716SOL     OW56834   4.612   2.047   6.689
12716SOL    HW156835   4.566   1.973   6.738
12716SOL    HW256836   4.599   2.035   6.591
12717SOL     OW56837   0.323   6.498   0.435
12717SOL    HW156838   0.291   6.592   0.447
12717SOL    HW256839   0.401   6.497   0.374
12718SOL     OW56840   0.576   6.425   8.576
12718SOL    HW156841   0.636   6.402   8.499
12718SOL    HW256842   0.540   6.341   8.616
12719SOL     OW56843  10.023   4.398   6.917
12719SOL    HW156844  10.063   4.316   6.877
12719SOL    HW256845  10.016   4.469   6.847
12720SOL     OW56846   2.078   0.415   0.363
12720SOL    HW156847   2.064   0.508   0.395
12720SOL    HW256848   2.051   0.408   0.267
12721SOL     OW56849   8.679   7.330   7.247
12721SOL    HW156850   8.703   7.413   7.297
12721SOL    HW256851   8.619   7.352   7.171
12722SOL     OW56852  10.069   6.512   7.027
12722SOL    HW156853  10.030   6.592   7.073
12722SOL    HW256854  10.127   6.542   6.951
12723SOL     OW56855   6.226   1.219   8.754
12723SOL    HW156856   6.141   1.236   8.704
12723SOL    HW256857   6.208   1.155   0.047
12724SOL     OW56858   1.429   8.621   8.145
12724SOL    HW156859   1.411   8.529   8.180
12724SOL    HW256860   1.415   8.688   8.219
12725SOL     OW56861   9.754   8.386   1.234
12725SOL    HW156862   9.809   8.423   1.309
12725SOL    HW256863   9.772   8.288   1.224
12726SOL     OW56864   2.107  10.139   0.613
12726SOL    HW156865   2.099  10.041   0.629
12726SOL    HW256866   2.104  10.187   0.700
12727SOL     OW56867   9.691   3.210   0.176
12727SOL    HW156868   9.638   3.192   0.259
12727SOL    HW256869   9.740   3.297   0.188
12728SOL     OW56870   5.937   9.940   0.904
12728SOL    HW156871   6.018   9.942   0.845
12728SOL    HW256872   5.958   9.983   0.991
12729SOL     OW56873   5.475   5.653   0.309
12729SOL    HW156874   5.414   5.720   0.350
12729SOL    HW256875   5.564   5.656   0.355
12730SOL     OW56876   1.318   8.950   5.956
12730SOL    HW156877   1.401   8.895   5.965
12730SOL    HW256878   1.248   8.897   5.908
12731SOL     OW56879   6.009   5.424   7.580
12731SOL    HW156880   5.921   5.381   7.598
12731SOL    HW256881   6.000   5.523   7.588
12732SOL     OW56882   6.184   4.295   0.124
12732SOL    HW156883   6.146   4.220   0.070
12732SOL    HW256884   6.239   4.354   0.065
12733SOL     OW56885   3.699   6.819   8.087
12733SOL    HW156886   3.623   6.754   8.086
12733SOL    HW256887   3.778   6.777   8.133
12734SOL     OW56888   7.440   5.663   6.409
12734SOL    HW156889   7.436   5.647   6.508
12734SOL    HW256890   7.466   5.578   6.362
12735SOL     OW56891   2.686   4.104   0.194
12735SOL    HW156892   2.696   4.011   0.159
12735SOL    HW256893   2.731   4.168   0.132
12736SOL     OW56894   1.226   1.641   0.103
12736SOL    HW156895   1.314   1.664   0.060
12736SOL    HW256896   1.237   1.560   0.160
12737SOL     OW56897   8.611   1.260   0.957
12737SOL    HW156898   8.657   1.264   1.046
12737SOL    HW256899   8.657   1.320   0.892
12738SOL     OW56900   3.184   0.147   7.294
12738SOL    HW156901   3.201   0.232   7.244
12738SOL    HW256902   3.236   0.147   7.380
12739SOL     OW56903   7.564   8.006   8.386
12739SOL    HW156904   7.569   7.907   8.395
12739SOL    HW256905   7.476   8.038   8.423
12740SOL     OW56906   6.271   5.710   1.381
12740SOL    HW156907   6.235   5.798   1.353
12740SOL    HW256908   6.216   5.675   1.458
12741SOL     OW56909   5.846   2.219   7.337
12741SOL    HW156910   5.886   2.251   7.423
12741SOL    HW256911   5.905   2.247   7.261
12742SOL     OW56912   6.947   7.447   6.999
12742SOL    HW156913   6.998   7.374   7.044
12742SOL    HW256914   6.899   7.409   6.920
12743SOL     OW56915   2.935   3.215   0.360
12743SOL    HW156916   2.961   3.311   0.346
12743SOL    HW256917   2.919   3.172   0.271
12744SOL     OW56918   1.976   4.649   7.868
12744SOL    HW156919   1.903   4.673   7.805
12744SOL    HW256920   2.010   4.731   7.914
12745SOL     OW56921   1.663   3.658   0.192
12745SOL    HW156922   1.679   3.725   0.120
12745SOL    HW256923   1.619   3.577   0.154
12746SOL     OW56924   3.299   7.097   8.201
12746SOL    HW156925   3.250   7.125   8.284
12746SOL    HW256926   3.387   7.143   8.198
12747SOL     OW56927   2.018   6.422   0.569
12747SOL    HW156928   1.974   6.495   0.517
12747SOL    HW256929   2.073   6.366   0.507
12748SOL     OW56930   5.987   2.316   7.551
12748SOL    HW156931   6.010   2.413   7.547
12748SOL    HW256932   6.072   2.263   7.559
12749SOL     OW56933   2.073   3.881   0.116
12749SOL    HW156934   2.035   3.811   0.177
12749SOL    HW256935   2.164   3.906   0.148
12750SOL     OW56936   6.186   5.088   1.737
12750SOL    HW156937   6.247   5.154   1.779
12750SOL    HW256938   6.239   5.016   1.692
12751SOL     OW56939   1.166   5.473   6.705
12751SOL    HW156940   1.256   5.432   6.715
12751SOL    HW256941   1.101   5.404   6.673
12752SOL     OW56942   9.882   6.950   0.652
12752SOL    HW156943   9.980   6.934   0.664
12752SOL    HW256944   9.836   6.861   0.645
12753SOL     OW56945   9.013   6.768   7.315
12753SOL    HW156946   9.062   6.770   7.402
12753SOL    HW256947   8.935   6.705   7.322
12754SOL     OW56948   2.809   3.264   0.596
12754SOL    HW156949   2.786   3.176   0.639
12754SOL    HW256950   2.851   3.247   0.506
12755SOL     OW56951   3.997   8.572   1.501
12755SOL    HW156952   3.953   8.662   1.505
12755SOL    HW256953   4.071   8.569   1.568
12756SOL     OW56954   2.870   5.773   0.411
12756SOL    HW156955   2.867   5.739   0.317
12756SOL    HW256956   2.953   5.739   0.456
12757SOL     OW56957   9.665   3.041   7.339
12757SOL    HW156958   9.604   3.020   7.416
12757SOL    HW256959   9.610   3.056   7.256
12758SOL     OW56960   2.064   3.505   0.659
12758SOL    HW156961   2.067   3.430   0.725
12758SOL    HW256962   1.984   3.562   0.676
12759SOL     OW56963   9.354   2.235   8.209
12759SOL    HW156964   9.412   2.311   8.239
12759SOL    HW256965   9.372   2.155   8.266
12760SOL     OW56966   5.288   4.491   0.676
12760SOL    HW156967   5.363   4.554   0.654
12760SOL    HW256968   5.207   4.515   0.622
12761SOL     OW56969   1.710   9.363   6.756
12761SOL    HW156970   1.711   9.387   6.854
12761SOL    HW256971   1.664   9.275   6.744
12762SOL     OW56972   6.557   9.100   1.668
12762SOL    HW156973   6.605   9.069   1.585
12762SOL    HW256974   6.514   9.189   1.649
12763SOL     OW56975   5.136   4.056   0.614
12763SOL    HW156976   5.215   4.110   0.642
12763SOL    HW256977   5.085   4.027   0.696
12764SOL     OW56978   0.454   8.328   7.603
12764SOL    HW156979   0.507   8.359   7.682
12764SOL    HW256980   0.390   8.258   7.631
12765SOL     OW56981   7.326   7.890   2.440
12765SOL    HW156982   7.290   7.980   2.461
12765SOL    HW256983   7.418   7.880   2.480
12766SOL     OW56984   4.968   2.521   7.967
12766SOL    HW156985   4.967   2.565   7.878
12766SOL    HW256986   5.032   2.445   7.967
12767SOL     OW56987   6.780   4.047   2.042
12767SOL    HW156988   6.854   4.099   2.000
12767SOL    HW256989   6.748   4.095   2.124
12768SOL     OW56990   8.228   4.813   1.011
12768SOL    HW156991   8.305   4.803   1.074
12768SOL    HW256992   8.208   4.725   0.968
12769SOL     OW56993   4.509   9.288   8.156
12769SOL    HW156994   4.555   9.206   8.123
12769SOL    HW256995   4.542   9.368   8.105
12770SOL     OW56996   3.404   8.936   2.251
12770SOL    HW156997   3.323   8.910   2.303
12770SOL    HW256998   3.466   8.988   2.310
12771SOL     OW56999   7.387   4.670   1.415
12771SOL    HW157000   7.484   4.644   1.411
12771SOL    HW257001   7.365   4.701   1.507
12772SOL     OW57002   0.423   7.024   7.680
12772SOL    HW157003   0.413   6.941   7.625
12772SOL    HW257004   0.486   7.006   7.756
12773SOL     OW57005   7.487   9.510   1.575
12773SOL    HW157006   7.528   9.432   1.529
12773SOL    HW257007   7.394   9.525   1.538
12774SOL     OW57008  10.034   6.296   0.539
12774SOL    HW157009  10.103   6.246   0.591
12774SOL    HW257010  10.053   6.287   0.441
12775SOL     OW57011   2.014   7.766   7.554
12775SOL    HW157012   2.077   7.841   7.573
12775SOL    HW257013   2.008   7.752   7.455
12776SOL     OW57014   4.626   6.659   8.205
12776SOL    HW157015   4.632   6.641   8.303
12776SOL    HW257016   4.597   6.754   8.190
12777SOL     OW57017   9.663   7.511   0.946
12777SOL    HW157018   9.617   7.424   0.927
12777SOL    HW257019   9.743   7.520   0.887
12778SOL     OW57020   3.371   0.339   6.664
12778SOL    HW157021   3.338   0.263   6.609
12778SOL    HW257022   3.376   0.422   6.607
12779SOL     OW57023   0.728   7.386   1.734
12779SOL    HW157024   0.666   7.341   1.670
12779SOL    HW257025   0.677   7.417   1.814
12780SOL     OW57026   2.062   0.681   0.445
12780SOL    HW157027   1.984   0.743   0.458
12780SOL    HW257028   2.111   0.705   0.362
12781SOL     OW57029   5.014   2.941   0.797
12781SOL    HW157030   4.951   2.954   0.720
12781SOL    HW257031   5.105   2.918   0.763
12782SOL     OW57032   9.339   6.419   0.873
12782SOL    HW157033   9.392   6.450   0.794
12782SOL    HW257034   9.402   6.393   0.947
12783SOL     OW57035   9.333   7.684   8.752
12783SOL    HW157036   9.380   7.660   0.055
12783SOL    HW257037   9.346   7.781   8.733
12784SOL     OW57038   7.103   1.200   8.426
12784SOL    HW157039   7.199   1.211   8.403
12784SOL    HW257040   7.090   1.206   8.525
12785SOL     OW57041   6.523   6.185   1.093
12785SOL    HW157042   6.541   6.227   1.004
12785SOL    HW257043   6.610   6.163   1.137
12786SOL     OW57044   9.441   2.056   8.395
12786SOL    HW157045   9.381   2.072   8.473
12786SOL    HW257046   9.507   1.984   8.418
12787SOL     OW57047   7.523   2.405   8.656
12787SOL    HW157048   7.495   2.317   8.616
12787SOL    HW257049   7.524   2.397   8.755
12788SOL     OW57050   2.985   3.636   8.627
12788SOL    HW157051   3.077   3.611   8.597
12788SOL    HW257052   2.932   3.554   8.645
12789SOL     OW57053   8.905   1.718   1.747
12789SOL    HW157054   8.948   1.790   1.803
12789SOL    HW257055   8.806   1.723   1.757
12790SOL     OW57056   1.060   9.883   6.510
12790SOL    HW157057   1.150   9.857   6.545
12790SOL    HW257058   1.036   9.824   6.432
12791SOL     OW57059   7.994   4.862   8.497
12791SOL    HW157060   8.056   4.835   8.570
12791SOL    HW257061   7.940   4.941   8.526
12792SOL     OW57062   7.636   1.530   7.639
12792SOL    HW157063   7.643   1.581   7.553
12792SOL    HW257064   7.662   1.589   7.715
12793SOL     OW57065   2.810   4.942   8.237
12793SOL    HW157066   2.740   4.897   8.183
12793SOL    HW257067   2.777   5.031   8.268
12794SOL     OW57068   7.232   6.397   0.946
12794SOL    HW157069   7.135   6.394   0.971
12794SOL    HW257070   7.273   6.307   0.960
12795SOL     OW57071   5.537   1.103   0.029
12795SOL    HW157072   5.526   1.012   0.070
12795SOL    HW257073   5.565   1.168   0.100
12796SOL     OW57074   5.122   1.220   6.944
12796SOL    HW157075   5.117   1.120   6.949
12796SOL    HW257076   5.107   1.249   6.850
12797SOL     OW57077   2.884   1.386   0.196
12797SOL    HW157078   2.808   1.450   0.207
12797SOL    HW257079   2.902   1.372   0.098
12798SOL     OW57080   6.394   5.519   8.233
12798SOL    HW157081   6.386   5.614   8.201
12798SOL    HW257082   6.431   5.462   8.160
12799SOL     OW57083   5.772   5.045   7.570
12799SOL    HW157084   5.701   4.987   7.532
12799SOL    HW257085   5.799   5.011   7.660
12800SOL     OW57086   0.475   1.790   0.579
12800SOL    HW157087   0.550   1.734   0.613
12800SOL    HW257088   0.430   1.837   0.655
12801SOL     OW57089   9.266   4.409   6.689
12801SOL    HW157090   9.174   4.376   6.709
12801SOL    HW257091   9.266   4.458   6.602
12802SOL     OW57092   4.105   6.088   8.494
12802SOL    HW157093   4.034   6.021   8.513
12802SOL    HW257094   4.194   6.049   8.517
12803SOL     OW57095   7.968   6.958   8.086
12803SOL    HW157096   8.036   6.978   8.157
12803SOL    HW257097   7.881   7.001   8.110
12804SOL     OW57098   2.066   9.069   0.028
12804SOL    HW157099   2.065   9.105   0.121
12804SOL    HW257100   2.022   8.979   0.027
12805SOL     OW57101   3.907   5.123   2.316
12805SOL    HW157102   3.860   5.129   2.228
12805SOL    HW257103   3.871   5.193   2.378
12806SOL     OW57104   9.665   1.004   0.088
12806SOL    HW157105   9.711   1.072   0.147
12806SOL    HW257106   9.731   0.969   0.021
12807SOL     OW57107   8.381   1.422   8.607
12807SOL    HW157108   8.284   1.431   8.583
12807SOL    HW257109   8.437   1.465   8.536
12808SOL     OW57110   2.233   7.907   1.543
12808SOL    HW157111   2.298   7.932   1.471
12808SOL    HW257112   2.266   7.941   1.631
12809SOL     OW57113   1.984   3.665   6.658
12809SOL    HW157114   2.025   3.591   6.711
12809SOL    HW257115   1.893   3.686   6.695
12810SOL     OW57116   8.498   4.254   1.097
12810SOL    HW157117   8.543   4.194   1.031
12810SOL    HW257118   8.489   4.207   1.184
12811SOL     OW57119   9.189   4.087   7.833
12811SOL    HW157120   9.206   4.098   7.931
12811SOL    HW257121   9.194   4.177   7.788
12812SOL     OW57122   8.164   9.809   1.917
12812SOL    HW157123   8.081   9.756   1.931
12812SOL    HW257124   8.242   9.759   1.954
12813SOL     OW57125   9.477   5.463   0.448
12813SOL    HW157126   9.499   5.509   0.363
12813SOL    HW257127   9.378   5.460   0.460
12814SOL     OW57128   0.989   1.420   0.951
12814SOL    HW157129   0.969   1.373   0.865
12814SOL    HW257130   0.950   1.368   1.027
12815SOL     OW57131   4.554   2.372   7.931
12815SOL    HW157132   4.625   2.358   7.862
12815SOL    HW257133   4.559   2.466   7.965
12816SOL     OW57134   0.971   7.038   7.561
12816SOL    HW157135   1.048   7.072   7.615
12816SOL    HW257136   0.905   6.994   7.623
12817SOL     OW57137   4.926   2.969   8.110
12817SOL    HW157138   4.934   3.061   8.149
12817SOL    HW257139   4.859   2.916   8.162
12818SOL     OW57140   8.222   7.752   7.028
12818SOL    HW157141   8.250   7.845   7.049
12818SOL    HW257142   8.131   7.735   7.065
12819SOL     OW57143   5.359   1.317   0.795
12819SOL    HW157144   5.265   1.298   0.823
12819SOL    HW257145   5.420   1.301   0.873
12820SOL     OW57146   4.763   7.164   1.467
12820SOL    HW157147   4.806   7.250   1.495
12820SOL    HW257148   4.803   7.089   1.519
12821SOL     OW57149   9.780   8.976   1.156
12821SOL    HW157150   9.859   9.036   1.164
12821SOL    HW257151   9.705   9.026   1.112
12822SOL     OW57152   1.430   7.502   8.719
12822SOL    HW157153   1.343   7.535   8.757
12822SOL    HW257154   1.477   7.578   8.674
12823SOL     OW57155   6.406   7.151   0.387
12823SOL    HW157156   6.438   7.057   0.395
12823SOL    HW257157   6.386   7.172   0.292
12824SOL     OW57158   4.816   1.470   1.924
12824SOL    HW157159   4.818   1.378   1.886
12824SOL    HW257160   4.893   1.482   1.986
12825SOL     OW57161   1.944  10.259   0.419
12825SOL    HW157162   1.997  10.216   0.492
12825SOL    HW257163   1.999  10.263   0.335
12826SOL     OW57164   3.598   5.917   8.737
12826SOL    HW157165   3.691   5.925   8.773
12826SOL    HW257166   3.577   5.821   8.722
12827SOL     OW57167   8.815   7.827   7.534
12827SOL    HW157168   8.805   7.743   7.588
12827SOL    HW257169   8.870   7.893   7.585
12828SOL     OW57170   7.280   0.888   7.630
12828SOL    HW157171   7.367   0.925   7.660
12828SOL    HW257172   7.240   0.833   7.704
12829SOL     OW57173   0.801   8.053   8.157
12829SOL    HW157174   0.724   7.996   8.185
12829SOL    HW257175   0.776   8.105   8.076
12830SOL     OW57176   6.324   7.078   0.645
12830SOL    HW157177   6.287   7.144   0.710
12830SOL    HW257178   6.356   7.126   0.563
12831SOL     OW57179   0.343   4.005   8.653
12831SOL    HW157180   0.370   3.908   8.659
12831SOL    HW257181   0.257   4.018   8.701
12832SOL     OW57182   4.934   8.837   8.533
12832SOL    HW157183   5.033   8.845   8.526
12832SOL    HW257184   4.898   8.914   8.586
12833SOL     OW57185   6.906   5.146   0.794
12833SOL    HW157186   6.850   5.194   0.727
12833SOL    HW257187   6.985   5.203   0.820
12834SOL     OW57188   9.089   3.317   6.712
12834SOL    HW157189   9.106   3.388   6.644
12834SOL    HW257190   9.017   3.347   6.774
12835SOL     OW57191   4.434   9.293   6.243
12835SOL    HW157192   4.415   9.384   6.205
12835SOL    HW257193   4.523   9.262   6.212
12836SOL     OW57194   6.700   0.556   1.793
12836SOL    HW157195   6.789   0.577   1.752
12836SOL    HW257196   6.627   0.583   1.730
12837SOL     OW57197   8.827   4.990   6.832
12837SOL    HW157198   8.796   5.074   6.878
12837SOL    HW257199   8.760   4.918   6.846
12838SOL     OW57200   9.633   5.251   7.122
12838SOL    HW157201   9.628   5.152   7.131
12838SOL    HW257202   9.721   5.276   7.080
12839SOL     OW57203   1.009   8.563   8.011
12839SOL    HW157204   1.020   8.566   8.111
12839SOL    HW257205   0.942   8.632   7.983
12840SOL     OW57206   5.610   1.565   6.527
12840SOL    HW157207   5.529   1.581   6.471
12840SOL    HW257208   5.654   1.480   6.499
12841SOL     OW57209   5.860   3.668   7.714
12841SOL    HW157210   5.809   3.737   7.662
12841SOL    HW257211   5.958   3.680   7.698
12842SOL     OW57212   5.909   1.056   7.147
12842SOL    HW157213   5.876   0.983   7.206
12842SOL    HW257214   5.860   1.141   7.169
12843SOL     OW57215   3.923   8.354   7.651
12843SOL    HW157216   3.982   8.417   7.601
12843SOL    HW257217   3.890   8.399   7.734
12844SOL     OW57218   5.181   5.729   8.203
12844SOL    HW157219   5.167   5.651   8.264
12844SOL    HW257220   5.278   5.736   8.180
12845SOL     OW57221   9.533   6.292   1.718
12845SOL    HW157222   9.556   6.201   1.685
12845SOL    HW257223   9.473   6.283   1.798
12846SOL     OW57224   5.272   7.690   0.159
12846SOL    HW157225   5.229   7.600   0.159
12846SOL    HW257226   5.365   7.683   0.124
12847SOL     OW57227   2.264  10.010   0.987
12847SOL    HW157228   2.297  10.087   0.931
12847SOL    HW257229   2.253   9.929   0.929
12848SOL     OW57230   4.958   8.870   0.659
12848SOL    HW157231   4.914   8.838   0.575
12848SOL    HW257232   5.022   8.944   0.638
12849SOL     OW57233   9.590  10.315   0.726
12849SOL    HW157234   9.505  10.323   0.675
12849SOL    HW257235   9.592  10.384   0.799
12850SOL     OW57236   2.509   6.486   7.009
12850SOL    HW157237   2.430   6.546   6.998
12850SOL    HW257238   2.511   6.419   6.934
12851SOL     OW57239   3.650   5.278   7.671
12851SOL    HW157240   3.551   5.274   7.685
12851SOL    HW257241   3.682   5.372   7.686
12852SOL     OW57242   5.119   0.454   8.040
12852SOL    HW157243   5.047   0.387   8.062
12852SOL    HW257244   5.175   0.471   8.121
12853SOL     OW57245   5.868   0.629   2.194
12853SOL    HW157246   5.922   0.706   2.229
12853SOL    HW257247   5.777   0.632   2.235
12854SOL     OW57248   4.666   1.610   1.486
12854SOL    HW157249   4.658   1.695   1.538
12854SOL    HW257250   4.738   1.554   1.527
12855SOL     OW57251   5.670   4.310   1.966
12855SOL    HW157252   5.660   4.289   1.869
12855SOL    HW257253   5.759   4.354   1.981
12856SOL     OW57254   7.706   4.779   1.719
12856SOL    HW157255   7.679   4.841   1.793
12856SOL    HW257256   7.673   4.816   1.631
12857SOL     OW57257   0.581   3.968   0.250
12857SOL    HW157258   0.598   3.873   0.274
12857SOL    HW257259   0.494   3.997   0.290
12858SOL     OW57260   1.537   9.639   1.182
12858SOL    HW157261   1.543   9.547   1.143
12858SOL    HW257262   1.530   9.633   1.282
12859SOL     OW57263   7.912   3.481   2.189
12859SOL    HW157264   7.995   3.437   2.222
12859SOL    HW257265   7.852   3.501   2.266
12860SOL     OW57266   5.935   4.406   1.648
12860SOL    HW157267   5.952   4.314   1.681
12860SOL    HW257268   6.001   4.469   1.689
12861SOL     OW57269   3.416   6.543   7.828
12861SOL    HW157270   3.320   6.527   7.850
12861SOL    HW257271   3.461   6.585   7.907
12862SOL     OW57272   0.210   9.990   8.416
12862SOL    HW157273   0.127   9.938   8.435
12862SOL    HW257274   0.267   9.994   8.498
12863SOL     OW57275   2.344   3.530   6.484
12863SOL    HW157276   2.399   3.503   6.405
12863SOL    HW257277   2.251   3.551   6.454
12864SOL     OW57278   5.036   4.082   8.674
12864SOL    HW157279   4.954   4.068   8.619
12864SOL    HW257280   5.097   4.145   8.626
12865SOL     OW57281   5.177   4.084   2.341
12865SOL    HW157282   5.136   3.998   2.371
12865SOL    HW257283   5.268   4.093   2.381
12866SOL     OW57284   5.410   0.871   7.565
12866SOL    HW157285   5.360   0.953   7.537
12866SOL    HW257286   5.408   0.803   7.492
12867SOL     OW57287   0.925  10.029   7.472
12867SOL    HW157288   0.839  10.069   7.441
12867SOL    HW257289   0.919  10.007   7.569
12868SOL     OW57290   4.468   9.900   8.648
12868SOL    HW157291   4.541   9.860   8.703
12868SOL    HW257292   4.495   9.900   8.551
12869SOL     OW57293   3.920   7.875   7.151
12869SOL    HW157294   3.939   7.777   7.159
12869SOL    HW257295   3.987   7.927   7.204
12870SOL     OW57296   5.774   2.080   8.156
12870SOL    HW157297   5.869   2.099   8.181
12870SOL    HW257298   5.757   2.113   8.064
12871SOL     OW57299   2.520   7.080   0.587
12871SOL    HW157300   2.573   7.162   0.565
12871SOL    HW257301   2.424   7.095   0.565
12872SOL     OW57302   9.194   2.555   0.523
12872SOL    HW157303   9.144   2.635   0.556
12872SOL    HW257304   9.236   2.508   0.600
12873SOL     OW57305   6.862   0.996   1.507
12873SOL    HW157306   6.891   1.058   1.580
12873SOL    HW257307   6.894   1.031   1.419
12874SOL     OW57308   3.074  10.248   7.206
12874SOL    HW157309   3.019  10.330   7.221
12874SOL    HW257310   3.085  10.233   7.107
12875SOL     OW57311   2.781   1.920   2.142
12875SOL    HW157312   2.829   1.847   2.190
12875SOL    HW257313   2.841   1.999   2.132
12876SOL     OW57314   6.926   7.051   0.574
12876SOL    HW157315   6.835   7.010   0.587
12876SOL    HW257316   6.989   7.015   0.643
12877SOL     OW57317   7.202   2.310   1.306
12877SOL    HW157318   7.160   2.296   1.395
12877SOL    HW257319   7.140   2.277   1.234
12878SOL     OW57320   1.438   6.129   1.230
12878SOL    HW157321   1.373   6.189   1.183
12878SOL    HW257322   1.445   6.042   1.181
12879SOL     OW57323  10.079   5.961   0.512
12879SOL    HW157324  10.143   6.029   0.547
12879SOL    HW257325  10.057   5.895   0.584
12880SOL     OW57326   1.741   1.824   7.217
12880SOL    HW157327   1.808   1.883   7.263
12880SOL    HW257328   1.780   1.732   7.207
12881SOL     OW57329   7.688   0.946   8.747
12881SOL    HW157330   7.742   0.922   8.666
12881SOL    HW257331   7.747   0.955   0.045
12882SOL     OW57332   5.961   9.675   8.452
12882SOL    HW157333   6.025   9.724   8.511
12882SOL    HW257334   5.936   9.734   8.375
12883SOL     OW57335   5.265   6.887   8.015
12883SOL    HW157336   5.297   6.977   7.984
12883SOL    HW257337   5.340   6.822   8.010
12884SOL     OW57338   8.868   0.819   8.773
12884SOL    HW157339   8.828   0.875   0.063
12884SOL    HW257340   8.802   0.810   8.698
12885SOL     OW57341   7.908   8.190   7.267
12885SOL    HW157342   7.956   8.181   7.354
12885SOL    HW257343   7.974   8.207   7.194
12886SOL     OW57344   1.253  10.159   8.760
12886SOL    HW157345   1.318  10.084   8.747
12886SOL    HW257346   1.252  10.185   0.075
12887SOL     OW57347   6.182   3.544   8.354
12887SOL    HW157348   6.108   3.499   8.405
12887SOL    HW257349   6.152   3.636   8.326
12888SOL     OW57350   9.032   6.695   6.851
12888SOL    HW157351   8.999   6.787   6.829
12888SOL    HW257352   8.963   6.628   6.824
12889SOL     OW57353   8.140   7.559   8.591
12889SOL    HW157354   8.140   7.464   8.621
12889SOL    HW257355   8.154   7.619   8.670
12890SOL     OW57356   2.767   9.092   8.694
12890SOL    HW157357   2.667   9.098   8.687
12890SOL    HW257358   2.808   9.129   8.610
12891SOL     OW57359   2.642   9.761   1.797
12891SOL    HW157360   2.650   9.746   1.895
12891SOL    HW257361   2.712   9.708   1.749
12892SOL     OW57362   2.369  10.091   0.504
12892SOL    HW157363   2.346   9.996   0.483
12892SOL    HW257364   2.289  10.136   0.544
12893SOL     OW57365   9.688   1.462   7.226
12893SOL    HW157366   9.772   1.430   7.270
12893SOL    HW257367   9.636   1.384   7.191
12894SOL     OW57368   4.249   9.901   1.292
12894SOL    HW157369   4.332   9.936   1.336
12894SOL    HW257370   4.232   9.808   1.323
12895SOL     OW57371   1.035   7.233   7.369
12895SOL    HW157372   1.069   7.298   7.437
12895SOL    HW257373   0.982   7.161   7.414
12896SOL     OW57374   5.490   4.399   2.401
12896SOL    HW157375   5.551   4.361   2.331
12896SOL    HW257376   5.544   4.432   2.478
12897SOL     OW57377   2.110   4.172   7.136
12897SOL    HW157378   2.065   4.122   7.062
12897SOL    HW257379   2.107   4.118   7.220
12898SOL     OW57380   7.432   9.065   1.114
12898SOL    HW157381   7.518   9.115   1.102
12898SOL    HW257382   7.361   9.108   1.059
12899SOL     OW57383   0.545   9.596   0.892
12899SOL    HW157384   0.603   9.559   0.820
12899SOL    HW257385   0.460   9.543   0.897
12900SOL     OW57386   4.476   0.131   1.915
12900SOL    HW157387   4.557   0.160   1.966
12900SOL    HW257388   4.401   0.113   1.978
12901SOL     OW57389   4.621   8.535   0.702
12901SOL    HW157390   4.701   8.534   0.762
12901SOL    HW257391   4.561   8.458   0.725
12902SOL     OW57392   1.859   0.337   8.223
12902SOL    HW157393   1.778   0.387   8.253
12902SOL    HW257394   1.853   0.242   8.256
12903SOL     OW57395   3.987   7.754   0.434
12903SOL    HW157396   3.896   7.747   0.475
12903SOL    HW257397   3.987   7.710   0.345
12904SOL     OW57398   5.718   0.911   8.318
12904SOL    HW157399   5.674   0.950   8.399
12904SOL    HW257400   5.817   0.919   8.327
12905SOL     OW57401   8.851   9.039   1.971
12905SOL    HW157402   8.899   8.983   1.904
12905SOL    HW257403   8.851   9.134   1.940
12906SOL     OW57404   4.074   2.418   8.166
12906SOL    HW157405   4.137   2.431   8.090
12906SOL    HW257406   3.980   2.436   8.135
12907SOL     OW57407   8.257   5.578   0.784
12907SOL    HW157408   8.190   5.646   0.813
12907SOL    HW257409   8.278   5.517   0.860
12908SOL     OW57410   6.978   5.630   7.718
12908SOL    HW157411   6.931   5.661   7.636
12908SOL    HW257412   7.074   5.613   7.698
12909SOL     OW57413   8.688   4.073   7.920
12909SOL    HW157414   8.777   4.039   7.892
12909SOL    HW257415   8.697   4.130   8.001
12910SOL     OW57416   3.022   7.707   0.798
12910SOL    HW157417   3.065   7.775   0.739
12910SOL    HW257418   2.996   7.750   0.885
12911SOL     OW57419   1.058   6.367   7.405
12911SOL    HW157420   1.094   6.425   7.331
12911SOL    HW257421   1.100   6.277   7.399
12912SOL     OW57422   8.407   9.641   8.301
12912SOL    HW157423   8.374   9.652   8.207
12912SOL    HW257424   8.476   9.711   8.321
12913SOL     OW57425   0.379   8.307   8.309
12913SOL    HW157426   0.471   8.272   8.292
12913SOL    HW257427   0.383   8.375   8.383
12914SOL     OW57428   4.520   4.384   7.491
12914SOL    HW157429   4.617   4.388   7.516
12914SOL    HW257430   4.468   4.445   7.551
12915SOL     OW57431   2.574   2.707   7.996
12915SOL    HW157432   2.644   2.765   8.037
12915SOL    HW257433   2.487   2.722   8.043
12916SOL     OW57434   3.388   5.287   7.740
12916SOL    HW157435   3.304   5.259   7.693
12916SOL    HW257436   3.392   5.243   7.830
12917SOL     OW57437   4.247   4.555   7.256
12917SOL    HW157438   4.297   4.548   7.170
12917SOL    HW257439   4.230   4.463   7.291
12918SOL     OW57440   8.722   0.371   7.255
12918SOL    HW157441   8.636   0.412   7.226
12918SOL    HW257442   8.735   0.283   7.209
12919SOL     OW57443   6.297   1.269   1.353
12919SOL    HW157444   6.326   1.177   1.327
12919SOL    HW257445   6.349   1.299   1.433
12920SOL     OW57446   9.640   7.094   1.123
12920SOL    HW157447   9.709   7.166   1.131
12920SOL    HW257448   9.666   7.017   1.183
12921SOL     OW57449   6.588   5.826   8.295
12921SOL    HW157450   6.671   5.819   8.239
12921SOL    HW257451   6.508   5.808   8.238
12922SOL     OW57452   5.667   2.371   0.865
12922SOL    HW157453   5.639   2.282   0.900
12922SOL    HW257454   5.589   2.414   0.818
12923SOL     OW57455   3.101   8.208   7.445
12923SOL    HW157456   3.140   8.294   7.478
12923SOL    HW257457   3.017   8.189   7.496
12924SOL     OW57458   5.838   3.987   8.688
12924SOL    HW157459   5.824   4.000   8.589
12924SOL    HW257460   5.802   3.898   8.715
12925SOL     OW57461   2.217   6.963   8.051
12925SOL    HW157462   2.315   6.985   8.045
12925SOL    HW257463   2.178   6.963   7.960
12926SOL     OW57464   4.779   7.767   2.169
12926SOL    HW157465   4.774   7.742   2.266
12926SOL    HW257466   4.687   7.789   2.136
12927SOL     OW57467   1.628   8.193   7.259
12927SOL    HW157468   1.702   8.260   7.257
12927SOL    HW257469   1.656   8.115   7.315
12928SOL     OW57470   7.190   6.457   8.312
12928SOL    HW157471   7.153   6.373   8.353
12928SOL    HW257472   7.145   6.536   8.354
12929SOL     OW57473   6.982   8.146   8.097
12929SOL    HW157474   6.907   8.088   8.064
12929SOL    HW257475   7.002   8.216   8.029
12930SOL     OW57476   2.572   2.861   8.546
12930SOL    HW157477   2.647   2.868   8.479
12930SOL    HW257478   2.561   2.949   8.593
12931SOL     OW57479   7.551   8.936   2.443
12931SOL    HW157480   7.525   8.975   2.532
12931SOL    HW257481   7.523   8.840   2.440
12932SOL     OW57482   2.528   0.738   7.473
12932SOL    HW157483   2.628   0.747   7.471
12932SOL    HW257484   2.497   0.687   7.393
12933SOL     OW57485   7.779   2.033   8.376
12933SOL    HW157486   7.718   2.042   8.297
12933SOL    HW257487   7.873   2.020   8.344
12934SOL     OW57488   9.235   0.435   0.116
12934SOL    HW157489   9.229   0.529   0.150
12934SOL    HW257490   9.148   0.408   0.075
12935SOL     OW57491   2.091   2.420   8.138
12935SOL    HW157492   2.163   2.399   8.071
12935SOL    HW257493   2.001   2.408   8.095
12936SOL     OW57494   1.832   9.456   0.529
12936SOL    HW157495   1.828   9.464   0.430
12936SOL    HW257496   1.773   9.382   0.560
12937SOL     OW57497   0.676   4.166   7.098
12937SOL    HW157498   0.691   4.073   7.132
12937SOL    HW257499   0.702   4.171   7.002
12938SOL     OW57500   9.796   9.408   0.253
12938SOL    HW157501   9.699   9.429   0.264
12938SOL    HW257502   9.849   9.464   0.316
12939SOL     OW57503   4.756   1.729   1.880
12939SOL    HW157504   4.780   1.632   1.894
12939SOL    HW257505   4.657   1.738   1.875
12940SOL     OW57506   6.955   3.165   7.495
12940SOL    HW157507   6.955   3.075   7.538
12940SOL    HW257508   6.945   3.235   7.565
12941SOL     OW57509   4.758   9.646   0.613
12941SOL    HW157510   4.730   9.643   0.709
12941SOL    HW257511   4.741   9.557   0.570
12942SOL     OW57512   5.571   1.317   1.331
12942SOL    HW157513   5.477   1.344   1.351
12942SOL    HW257514   5.611   1.380   1.265
12943SOL     OW57515   4.129   3.981   0.332
12943SOL    HW157516   4.162   3.981   0.426
12943SOL    HW257517   4.125   3.887   0.298
12944SOL     OW57518   6.369   1.782   1.247
12944SOL    HW157519   6.391   1.733   1.331
12944SOL    HW257520   6.453   1.803   1.197
12945SOL     OW57521   3.575  10.275   7.872
12945SOL    HW157522   3.600  10.247   7.965
12945SOL    HW257523   3.586  10.374   7.863
12946SOL     OW57524   0.970   2.843   1.136
12946SOL    HW157525   1.016   2.804   1.216
12946SOL    HW257526   1.006   2.935   1.119
12947SOL     OW57527   6.715  10.053   7.633
12947SOL    HW157528   6.812  10.049   7.609
12947SOL    HW257529   6.686   9.966   7.673
12948SOL     OW57530   1.232   5.694   1.018
12948SOL    HW157531   1.319   5.725   0.978
12948SOL    HW257532   1.162   5.691   0.947
12949SOL     OW57533   8.860   7.798   2.430
12949SOL    HW157534   8.956   7.807   2.456
12949SOL    HW257535   8.808   7.760   2.506
12950SOL     OW57536   8.854   8.195   7.862
12950SOL    HW157537   8.813   8.172   7.950
12950SOL    HW257538   8.878   8.111   7.813
12951SOL     OW57539   9.941   5.640   1.614
12951SOL    HW157540   9.873   5.611   1.546
12951SOL    HW257541   9.897   5.648   1.704
12952SOL     OW57542   7.436   6.929   1.435
12952SOL    HW157543   7.520   6.982   1.430
12952SOL    HW257544   7.402   6.910   1.343
12953SOL     OW57545   5.002   3.051   1.798
12953SOL    HW157546   5.043   3.106   1.871
12953SOL    HW257547   4.903   3.066   1.797
12954SOL     OW57548   7.088   7.280   0.565
12954SOL    HW157549   7.042   7.360   0.603
12954SOL    HW257550   7.026   7.202   0.565
12955SOL     OW57551   5.884   1.403   1.641
12955SOL    HW157552   5.950   1.404   1.566
12955SOL    HW257553   5.902   1.325   1.701
12956SOL     OW57554   2.995   3.878   8.750
12956SOL    HW157555   2.989   3.783   8.719
12956SOL    HW257556   3.034   3.934   8.676
12957SOL     OW57557   5.787   4.744   8.030
12957SOL    HW157558   5.852   4.720   8.102
12957SOL    HW257559   5.780   4.668   7.965
12958SOL     OW57560   2.298   9.761   8.664
12958SOL    HW157561   2.246   9.812   8.596
12958SOL    HW257562   2.337   9.824   8.730
12959SOL     OW57563   1.762   9.242   7.976
12959SOL    HW157564   1.833   9.260   8.044
12959SOL    HW257565   1.754   9.143   7.963
12960SOL     OW57566   8.615   0.692   1.025
12960SOL    HW157567   8.528   0.665   0.984
12960SOL    HW257568   8.613   0.790   1.046
12961SOL     OW57569   7.232   9.417   8.481
12961SOL    HW157570   7.302   9.471   8.527
12961SOL    HW257571   7.147   9.471   8.475
12962SOL     OW57572   3.826   5.636   8.599
12962SOL    HW157573   3.731   5.643   8.631
12962SOL    HW257574   3.888   5.641   8.677
12963SOL     OW57575   9.826   5.632   6.469
12963SOL    HW157576   9.885   5.699   6.424
12963SOL    HW257577   9.774   5.581   6.401
12964SOL     OW57578   6.963   0.584   7.395
12964SOL    HW157579   6.882   0.563   7.449
12964SOL    HW257580   6.989   0.505   7.340
12965SOL     OW57581   1.838   6.835   0.108
12965SOL    HW157582   1.915   6.883   0.066
12965SOL    HW257583   1.764   6.900   0.126
12966SOL     OW57584   2.432   7.874   8.597
12966SOL    HW157585   2.418   7.803   8.666
12966SOL    HW257586   2.433   7.963   8.642
12967SOL     OW57587   8.509   1.736   1.784
12967SOL    HW157588   8.494   1.638   1.798
12967SOL    HW257589   8.421   1.781   1.772
12968SOL     OW57590   1.927   0.508   7.194
12968SOL    HW157591   1.887   0.440   7.133
12968SOL    HW257592   1.898   0.600   7.166
12969SOL     OW57593   6.525   1.441   6.721
12969SOL    HW157594   6.504   1.394   6.635
12969SOL    HW257595   6.584   1.383   6.777
12970SOL     OW57596   1.492   7.114   0.939
12970SOL    HW157597   1.510   7.115   0.841
12970SOL    HW257598   1.494   7.020   0.973
12971SOL     OW57599   9.342   0.099   7.244
12971SOL    HW157600   9.419   0.162   7.233
12971SOL    HW257601   9.360   0.038   7.321
12972SOL     OW57602   4.206   6.909   6.463
12972SOL    HW157603   4.249   6.821   6.443
12972SOL    HW257604   4.261   6.960   6.528
12973SOL     OW57605  10.007   2.431   6.607
12973SOL    HW157606  10.097   2.469   6.587
12973SOL    HW257607   9.981   2.367   6.534
12974SOL     OW57608   8.303   4.041   8.281
12974SOL    HW157609   8.371   3.968   8.282
12974SOL    HW257610   8.244   4.033   8.361
12975SOL     OW57611   7.977   4.207   8.291
12975SOL    HW157612   8.046   4.223   8.221
12975SOL    HW257613   7.935   4.294   8.317
12976SOL     OW57614   3.670   2.432   0.027
12976SOL    HW157615   3.749   2.492   0.035
12976SOL    HW257616   3.596   2.480   8.761
12977SOL     OW57617   1.688   2.516   8.315
12977SOL    HW157618   1.737   2.576   8.251
12977SOL    HW257619   1.596   2.498   8.280
12978SOL     OW57620   4.065   6.897   7.414
12978SOL    HW157621   4.061   6.873   7.511
12978SOL    HW257622   4.019   6.985   7.400
12979SOL     OW57623   5.867   9.533   1.502
12979SOL    HW157624   5.959   9.508   1.531
12979SOL    HW257625   5.858   9.517   1.403
12980SOL     OW57626   8.031   3.132   2.406
12980SOL    HW157627   8.069   3.104   2.494
12980SOL    HW257628   7.940   3.171   2.420
12981SOL     OW57629   2.215   7.700   8.124
12981SOL    HW157630   2.119   7.672   8.116
12981SOL    HW257631   2.265   7.672   8.042
12982SOL     OW57632   2.715   9.832   0.511
12982SOL    HW157633   2.629   9.788   0.484
12982SOL    HW257634   2.792   9.784   0.468
12983SOL     OW57635   7.243   0.983   8.032
12983SOL    HW157636   7.150   0.986   7.994
12983SOL    HW257637   7.238   0.966   8.130
12984SOL     OW57638   9.185   6.941   8.280
12984SOL    HW157639   9.186   7.040   8.266
12984SOL    HW257640   9.124   6.898   8.214
12985SOL     OW57641   7.546   2.619   0.459
12985SOL    HW157642   7.497   2.624   0.372
12985SOL    HW257643   7.606   2.699   0.469
12986SOL     OW57644   9.918   3.086   7.026
12986SOL    HW157645   9.862   3.003   7.020
12986SOL    HW257646   9.859   3.167   7.023
12987SOL     OW57647   5.320   0.839   7.828
12987SOL    HW157648   5.373   0.837   7.742
12987SOL    HW257649   5.249   0.908   7.820
12988SOL     OW57650   0.440   1.879   0.133
12988SOL    HW157651   0.401   1.788   0.145
12988SOL    HW257652   0.471   1.914   0.221
12989SOL     OW57653   9.278   3.358   0.145
12989SOL    HW157654   9.354   3.309   0.103
12989SOL    HW257655   9.192   3.318   0.113
12990SOL     OW57656   0.300   3.198   0.011
12990SOL    HW157657   0.251   3.258   8.729
12990SOL    HW257658   0.380   3.160   8.746
12991SOL     OW57659   4.947   2.018   1.571
12991SOL    HW157660   4.853   2.050   1.585
12991SOL    HW257661   4.962   1.999   1.474
12992SOL     OW57662   6.349   2.956   0.951
12992SOL    HW157663   6.409   3.034   0.935
12992SOL    HW257664   6.301   2.933   0.867
12993SOL     OW57665   4.063   9.616   8.637
12993SOL    HW157666   4.128   9.669   8.691
12993SOL    HW257667   4.108   9.582   8.555
12994SOL     OW57668   1.303   6.211   7.141
12994SOL    HW157669   1.210   6.228   7.108
12994SOL    HW257670   1.339   6.293   7.185
12995SOL     OW57671   1.900   4.290   2.127
12995SOL    HW157672   1.812   4.301   2.173
12995SOL    HW257673   1.939   4.200   2.150
12996SOL     OW57674   4.509   8.672   7.979
12996SOL    HW157675   4.523   8.654   7.882
12996SOL    HW257676   4.596   8.699   8.021
12997SOL     OW57677   3.447   2.947   0.520
12997SOL    HW157678   3.364   2.912   0.563
12997SOL    HW257679   3.519   2.878   0.525
12998SOL     OW57680   1.445   4.565   7.801
12998SOL    HW157681   1.468   4.644   7.744
12998SOL    HW257682   1.526   4.509   7.815
12999SOL     OW57683   9.746   2.874   6.987
12999SOL    HW157684   9.674   2.842   7.049
12999SOL    HW257685   9.802   2.797   6.958
13000SOL     OW57686   4.645   4.910   7.831
13000SOL    HW157687   4.650   4.977   7.905
13000SOL    HW257688   4.632   4.956   7.744
13001SOL     OW57689   2.460   4.767   6.856
13001SOL    HW157690   2.526   4.829   6.814
13001SOL    HW257691   2.382   4.755   6.794
13002SOL     OW57692   0.072   2.270   0.401
13002SOL    HW157693  10.137   2.307   0.407
13002SOL    HW257694   0.121   2.290   0.486
13003SOL     OW57695   5.933   6.540   1.381
13003SOL    HW157696   5.850   6.564   1.330
13003SOL    HW257697   5.969   6.621   1.427
13004SOL     OW57698   6.503   0.799   2.388
13004SOL    HW157699   6.409   0.796   2.354
13004SOL    HW257700   6.537   0.706   2.400
13005SOL     OW57701   1.554  10.138   0.648
13005SOL    HW157702   1.583  10.151   0.742
13005SOL    HW257703   1.471  10.192   0.631
13006SOL     OW57704   4.485   1.159   8.287
13006SOL    HW157705   4.528   1.127   8.371
13006SOL    HW257706   4.520   1.106   8.210
13007SOL     OW57707   3.629   2.740   0.514
13007SOL    HW157708   3.582   2.708   0.432
13007SOL    HW257709   3.672   2.663   0.560
13008SOL     OW57710   3.834   3.795   7.189
13008SOL    HW157711   3.834   3.722   7.120
13008SOL    HW257712   3.744   3.799   7.233
13009SOL     OW57713   8.280   2.868   1.425
13009SOL    HW157714   8.226   2.849   1.343
13009SOL    HW257715   8.232   2.937   1.480
13010SOL     OW57716   7.796   3.652   7.237
13010SOL    HW157717   7.829   3.655   7.143
13010SOL    HW257718   7.714   3.709   7.245
13011SOL     OW57719   5.852   9.470   8.620
13011SOL    HW157720   5.878   9.541   8.555
13011SOL    HW257721   5.839   9.511   8.710
13012SOL     OW57722   5.908   7.076   1.537
13012SOL    HW157723   5.876   7.163   1.499
13012SOL    HW257724   5.948   7.021   1.464
13013SOL     OW57725   0.545   2.174   8.339
13013SOL    HW157726   0.566   2.195   8.434
13013SOL    HW257727   0.534   2.259   8.288
13014SOL     OW57728   8.031   0.918   7.460
13014SOL    HW157729   7.935   0.924   7.432
13014SOL    HW257730   8.045   0.833   7.510
13015SOL     OW57731   0.083   8.518   7.485
13015SOL    HW157732   0.179   8.545   7.484
13015SOL    HW257733   0.026   8.600   7.497
13016SOL     OW57734   2.557   3.375   7.195
13016SOL    HW157735   2.620   3.325   7.255
13016SOL    HW257736   2.602   3.458   7.163
13017SOL     OW57737   8.201   6.414   7.647
13017SOL    HW157738   8.180   6.476   7.572
13017SOL    HW257739   8.185   6.461   7.734
13018SOL     OW57740   6.066   4.663   1.010
13018SOL    HW157741   6.143   4.660   0.946
13018SOL    HW257742   5.988   4.614   0.970
13019SOL     OW57743   4.057   8.478   0.350
13019SOL    HW157744   4.031   8.482   0.253
13019SOL    HW257745   4.004   8.407   0.396
13020SOL     OW57746   9.036   2.294   0.142
13020SOL    HW157747   8.988   2.325   0.224
13020SOL    HW257748   9.118   2.349   0.128
13021SOL     OW57749   5.601   6.629   1.233
13021SOL    HW157750   5.540   6.620   1.311
13021SOL    HW257751   5.580   6.714   1.183
13022SOL     OW57752   6.897   5.900   1.506
13022SOL    HW157753   6.913   5.930   1.600
13022SOL    HW257754   6.984   5.902   1.456
13023SOL     OW57755   0.664   3.213   6.643
13023SOL    HW157756   0.738   3.187   6.705
13023SOL    HW257757   0.701   3.250   6.559
13024SOL     OW57758   9.030  10.420   0.969
13024SOL    HW157759   9.085  10.496   0.934
13024SOL    HW257760   9.020  10.428   1.068
13025SOL     OW57761   4.783   5.318   2.600
13025SOL    HW157762   4.738   5.234   2.570
13025SOL    HW257763   4.714   5.391   2.609
13026SOL     OW57764   4.990   7.810   1.780
13026SOL    HW157765   5.074   7.821   1.833
13026SOL    HW257766   4.915   7.857   1.826
13027SOL     OW57767   6.434   7.312   7.716
13027SOL    HW157768   6.429   7.375   7.638
13027SOL    HW257769   6.516   7.256   7.708
13028SOL     OW57770   1.737   7.993   0.497
13028SOL    HW157771   1.643   7.981   0.467
13028SOL    HW257772   1.798   7.992   0.418
13029SOL     OW57773   5.884  10.010   6.741
13029SOL    HW157774   5.965  10.011   6.683
13029SOL    HW257775   5.802  10.010   6.684
13030SOL     OW57776   2.735   0.958   8.071
13030SOL    HW157777   2.745   1.057   8.075
13030SOL    HW257778   2.780   0.923   7.989
13031SOL     OW57779   9.538   8.509   8.587
13031SOL    HW157780   9.596   8.590   8.588
13031SOL    HW257781   9.443   8.536   8.574
13032SOL     OW57782   3.128   1.956   1.061
13032SOL    HW157783   3.076   1.883   1.017
13032SOL    HW257784   3.173   2.012   0.991
13033SOL     OW57785   0.717   7.309   1.233
13033SOL    HW157786   0.625   7.279   1.258
13033SOL    HW257787   0.733   7.289   1.136
13034SOL     OW57788   1.544  10.050   1.252
13034SOL    HW157789   1.480  10.077   1.180
13034SOL    HW257790   1.612   9.987   1.213
13035SOL     OW57791   1.344   3.456   8.564
13035SOL    HW157792   1.368   3.407   8.480
13035SOL    HW257793   1.376   3.550   8.558
13036SOL     OW57794   8.610   1.542   7.735
13036SOL    HW157795   8.703   1.568   7.713
13036SOL    HW257796   8.602   1.442   7.733
13037SOL     OW57797   6.940   0.481   1.032
13037SOL    HW157798   6.954   0.550   1.103
13037SOL    HW257799   6.963   0.520   0.943
13038SOL     OW57800   0.944   0.903   0.773
13038SOL    HW157801   0.977   0.817   0.812
13038SOL    HW257802   1.014   0.974   0.784
13039SOL     OW57803   5.413   4.917   7.131
13039SOL    HW157804   5.393   5.004   7.177
13039SOL    HW257805   5.336   4.892   7.072
13040SOL     OW57806   5.400   1.269   1.674
13040SOL    HW157807   5.406   1.335   1.748
13040SOL    HW257808   5.491   1.253   1.636
13041SOL     OW57809   7.203   1.330   6.757
13041SOL    HW157810   7.219   1.236   6.787
13041SOL    HW257811   7.274   1.356   6.691
13042SOL     OW57812   9.267   4.310   8.456
13042SOL    HW157813   9.190   4.373   8.469
13042SOL    HW257814   9.328   4.348   8.387
13043SOL     OW57815   6.882   8.826   7.841
13043SOL    HW157816   6.900   8.895   7.771
13043SOL    HW257817   6.955   8.827   7.909
13044SOL     OW57818   4.701   6.826   0.534
13044SOL    HW157819   4.720   6.855   0.440
13044SOL    HW257820   4.668   6.732   0.534
13045SOL     OW57821   9.031   3.072   7.437
13045SOL    HW157822   9.032   3.003   7.510
13045SOL    HW257823   9.103   3.051   7.371
13046SOL     OW57824   2.632   0.863   8.738
13046SOL    HW157825   2.696   0.833   8.669
13046SOL    HW257826   2.656   0.823   0.045
13047SOL     OW57827   4.951   5.138   0.311
13047SOL    HW157828   4.962   5.044   0.343
13047SOL    HW257829   4.940   5.138   0.211
13048SOL     OW57830   7.455   6.500   8.242
13048SOL    HW157831   7.360   6.490   8.270
13048SOL    HW257832   7.510   6.427   8.284
13049SOL     OW57833   5.951   0.255   2.239
13049SOL    HW157834   6.030   0.220   2.289
13049SOL    HW257835   5.869   0.247   2.296
13050SOL     OW57836   5.595  10.451   1.311
13050SOL    HW157837   5.515  10.490   1.265
13050SOL    HW257838   5.647   0.021   1.355
13051SOL     OW57839   0.699   4.328   1.484
13051SOL    HW157840   0.689   4.242   1.434
13051SOL    HW257841   0.615   4.381   1.478
13052SOL     OW57842   1.969   5.744   1.235
13052SOL    HW157843   2.044   5.691   1.195
13052SOL    HW257844   1.966   5.728   1.333
13053SOL     OW57845   3.008   3.375   6.703
13053SOL    HW157846   2.937   3.307   6.682
13053SOL    HW257847   3.074   3.336   6.766
13054SOL     OW57848   9.858   3.100   8.040
13054SOL    HW157849   9.803   3.167   7.990
13054SOL    HW257850   9.929   3.064   7.979
13055SOL     OW57851   4.322   5.827   1.897
13055SOL    HW157852   4.355   5.800   1.987
13055SOL    HW257853   4.238   5.880   1.907
13056SOL     OW57854   4.594   1.936   8.011
13056SOL    HW157855   4.551   1.852   8.044
13056SOL    HW257856   4.543   2.015   8.045
13057SOL     OW57857   5.762   5.525   8.203
13057SOL    HW157858   5.693   5.461   8.169
13057SOL    HW257859   5.853   5.495   8.172
13058SOL     OW57860   2.563   0.426   7.585
13058SOL    HW157861   2.594   0.432   7.490
13058SOL    HW257862   2.630   0.471   7.644
13059SOL     OW57863   5.490   3.563   7.228
13059SOL    HW157864   5.464   3.601   7.140
13059SOL    HW257865   5.409   3.554   7.286
13060SOL     OW57866   4.389   0.897   7.552
13060SOL    HW157867   4.308   0.956   7.542
13060SOL    HW257868   4.413   0.859   7.462
13061SOL     OW57869   6.987   2.059   0.574
13061SOL    HW157870   6.919   2.069   0.646
13061SOL    HW257871   7.015   2.149   0.541
13062SOL     OW57872   4.084   6.758   1.651
13062SOL    HW157873   4.086   6.858   1.644
13062SOL    HW257874   4.174   6.720   1.629
13063SOL     OW57875   8.535   7.957   0.656
13063SOL    HW157876   8.467   8.007   0.709
13063SOL    HW257877   8.613   7.933   0.715
13064SOL     OW57878   0.795   9.305   1.139
13064SOL    HW157879   0.721   9.258   1.186
13064SOL    HW257880   0.875   9.311   1.199
13065SOL     OW57881   9.904   0.302   7.586
13065SOL    HW157882   9.968   0.297   7.663
13065SOL    HW257883   9.837   0.374   7.604
13066SOL     OW57884   0.443  10.500   8.009
13066SOL    HW157885   0.485  10.432   7.949
13066SOL    HW257886   0.514   0.057   8.046
13067SOL     OW57887   9.718   3.585   0.886
13067SOL    HW157888   9.693   3.510   0.825
13067SOL    HW257889   9.692   3.562   0.980
13068SOL     OW57890   5.302  10.438   8.345
13068SOL    HW157891   5.310   0.033   8.362
13068SOL    HW257892   5.297  10.422   8.246
13069SOL     OW57893   3.884   6.141   6.787
13069SOL    HW157894   3.908   6.127   6.691
13069SOL    HW257895   3.911   6.233   6.815
13070SOL     OW57896   3.225   2.350   6.962
13070SOL    HW157897   3.279   2.427   6.929
13070SOL    HW257898   3.127   2.371   6.953
13071SOL     OW57899   9.247   4.212   7.086
13071SOL    HW157900   9.182   4.167   7.024
13071SOL    HW257901   9.204   4.293   7.126
13072SOL     OW57902   1.281   6.803   1.466
13072SOL    HW157903   1.363   6.802   1.408
13072SOL    HW257904   1.307   6.784   1.561
13073SOL     OW57905   9.800   5.453   7.753
13073SOL    HW157906   9.733   5.527   7.749
13073SOL    HW257907   9.771   5.379   7.692
13074SOL     OW57908   7.312   8.073   8.470
13074SOL    HW157909   7.271   8.136   8.536
13074SOL    HW257910   7.276   8.092   8.379
13075SOL     OW57911   4.274   8.934   1.275
13075SOL    HW157912   4.237   8.962   1.363
13075SOL    HW257913   4.303   8.839   1.280
13076SOL     OW57914   2.374   7.651   7.897
13076SOL    HW157915   2.390   7.721   7.827
13076SOL    HW257916   2.302   7.589   7.867
13077SOL     OW57917   9.186   1.375   7.129
13077SOL    HW157918   9.110   1.415   7.180
13077SOL    HW257919   9.207   1.433   7.049
13078SOL     OW57920   2.280   5.209   0.655
13078SOL    HW157921   2.298   5.148   0.732
13078SOL    HW257922   2.234   5.159   0.582
13079SOL     OW57923   2.314   8.887   6.349
13079SOL    HW157924   2.218   8.905   6.367
13079SOL    HW257925   2.325   8.855   6.255
13080SOL     OW57926   8.033  10.468   7.076
13080SOL    HW157927   8.027  10.368   7.088
13080SOL    HW257928   7.952  10.500   7.028
13081SOL     OW57929   0.337   7.351   0.168
13081SOL    HW157930   0.397   7.274   0.149
13081SOL    HW257931   0.340   7.373   0.266
13082SOL     OW57932   3.275   6.547   7.513
13082SOL    HW157933   3.290   6.565   7.415
13082SOL    HW257934   3.328   6.612   7.567
13083SOL     OW57935   2.957   6.665   7.981
13083SOL    HW157936   2.974   6.764   7.979
13083SOL    HW257937   2.941   6.633   7.888
13084SOL     OW57938   0.705   7.971   0.132
13084SOL    HW157939   0.712   8.034   0.209
13084SOL    HW257940   0.763   7.891   0.149
13085SOL     OW57941   1.053   3.492   0.107
13085SOL    HW157942   1.146   3.521   0.129
13085SOL    HW257943   1.032   3.407   0.154
13086SOL     OW57944   8.615   2.990   7.025
13086SOL    HW157945   8.598   3.007   7.122
13086SOL    HW257946   8.618   3.078   6.976
13087SOL     OW57947   2.287   8.398   0.805
13087SOL    HW157948   2.316   8.411   0.900
13087SOL    HW257949   2.196   8.356   0.803
13088SOL     OW57950   7.632   2.958   2.361
13088SOL    HW157951   7.667   3.016   2.435
13088SOL    HW257952   7.545   2.917   2.389
13089SOL     OW57953   8.110   5.889   6.897
13089SOL    HW157954   8.024   5.915   6.853
13089SOL    HW257955   8.122   5.790   6.889
13090SOL     OW57956   5.149   1.396   6.367
13090SOL    HW157957   5.236   1.445   6.372
13090SOL    HW257958   5.077   1.454   6.404
13091SOL     OW57959   4.263   2.964   8.296
13091SOL    HW157960   4.252   3.064   8.298
13091SOL    HW257961   4.174   2.921   8.279
13092SOL     OW57962   9.612   9.929   1.056
13092SOL    HW157963   9.620  10.007   1.118
13092SOL    HW257964   9.621   9.961   0.962
13093SOL     OW57965   6.780   3.701   7.506
13093SOL    HW157966   6.828   3.782   7.471
13093SOL    HW257967   6.692   3.692   7.460
13094SOL     OW57968   5.143   7.346   6.235
13094SOL    HW157969   5.179   7.315   6.147
13094SOL    HW257970   5.138   7.446   6.235
13095SOL     OW57971   0.648   9.804   7.688
13095SOL    HW157972   0.681   9.875   7.750
13095SOL    HW257973   0.592   9.738   7.739
13096SOL     OW57974   9.386   3.406   0.398
13096SOL    HW157975   9.315   3.393   0.467
13096SOL    HW257976   9.346   3.395   0.307
13097SOL     OW57977   3.518   7.353   1.340
13097SOL    HW157978   3.602   7.327   1.292
13097SOL    HW257979   3.480   7.273   1.387
13098SOL     OW57980   0.058   9.609   0.857
13098SOL    HW157981  10.138   9.671   0.869
13098SOL    HW257982   0.086   9.608   0.761
13099SOL     OW57983   9.560   1.741   0.345
13099SOL    HW157984   9.644   1.774   0.303
13099SOL    HW257985   9.573   1.731   0.444
13100SOL     OW57986   3.395   6.241   6.742
13100SOL    HW157987   3.484   6.198   6.759
13100SOL    HW257988   3.334   6.222   6.818
13101SOL     OW57989   0.065   6.151   7.746
13101SOL    HW157990   0.160   6.125   7.732
13101SOL    HW257991   0.020   6.161   7.657
13102SOL     OW57992   3.681   4.185   0.937
13102SOL    HW157993   3.596   4.229   0.964
13102SOL    HW257994   3.712   4.124   1.011
13103SOL     OW57995   1.832   4.099   1.287
13103SOL    HW157996   1.749   4.107   1.342
13103SOL    HW257997   1.881   4.186   1.288
13104SOL     OW57998   7.638   8.529   7.308
13104SOL    HW157999   7.719   8.534   7.250
13104SOL    HW258000   7.557   8.518   7.251
13105SOL     OW58001   9.977   4.332   8.404
13105SOL    HW158002   9.910   4.304   8.335
13105SOL    HW258003   9.938   4.320   8.495
13106SOL     OW58004   8.263   8.341   7.111
13106SOL    HW158005   8.297   8.304   7.197
13106SOL    HW258006   8.340   8.364   7.051
13107SOL     OW58007   5.808   9.334   7.708
13107SOL    HW158008   5.725   9.279   7.722
13107SOL    HW258009   5.878   9.306   7.774
13108SOL     OW58010   0.406   2.881   1.225
13108SOL    HW158011   0.360   2.965   1.197
13108SOL    HW258012   0.343   2.824   1.279
13109SOL     OW58013   7.982   1.741   8.720
13109SOL    HW158014   8.061   1.789   8.760
13109SOL    HW258015   7.913   1.726   0.008
13110SOL     OW58016   3.399   6.056   0.981
13110SOL    HW158017   3.462   6.134   0.984
13110SOL    HW258018   3.306   6.087   1.001
13111SOL     OW58019   0.676   6.040   7.131
13111SOL    HW158020   0.717   5.962   7.085
13111SOL    HW258021   0.707   6.044   7.226
13112SOL     OW58022   5.571   8.052   6.969
13112SOL    HW158023   5.563   8.098   7.057
13112SOL    HW258024   5.582   8.120   6.896
13113SOL     OW58025   5.017   4.692   1.255
13113SOL    HW158026   5.025   4.791   1.268
13113SOL    HW258027   4.972   4.674   1.167
13114SOL     OW58028   4.118   8.609   8.541
13114SOL    HW158029   4.141   8.691   8.489
13114SOL    HW258030   4.202   8.563   8.569
13115SOL     OW58031   4.946   5.441   0.660
13115SOL    HW158032   5.024   5.378   0.658
13115SOL    HW258033   4.975   5.531   0.630
13116SOL     OW58034   0.221   3.820   1.810
13116SOL    HW158035   0.187   3.845   1.900
13116SOL    HW258036   0.144   3.809   1.747
13117SOL     OW58037   6.371  10.362   7.975
13117SOL    HW158038   6.470  10.360   7.963
13117SOL    HW258039   6.347  10.320   8.063
13118SOL     OW58040   4.051   8.135   7.768
13118SOL    HW158041   4.040   8.128   7.867
13118SOL    HW258042   3.995   8.210   7.733
13119SOL     OW58043   2.372   4.012   7.601
13119SOL    HW158044   2.468   3.985   7.600
13119SOL    HW258045   2.346   4.040   7.694
13120SOL     OW58046   9.378   2.632   7.849
13120SOL    HW158047   9.406   2.684   7.930
13120SOL    HW258048   9.412   2.539   7.856
13121SOL     OW58049   9.855   4.966   8.655
13121SOL    HW158050   9.858   4.900   8.580
13121SOL    HW258051   9.948   4.997   8.675
13122SOL     OW58052   1.373   4.688   6.703
13122SOL    HW158053   1.355   4.604   6.652
13122SOL    HW258054   1.419   4.665   6.789
13123SOL     OW58055   7.951   9.107   8.386
13123SOL    HW158056   8.021   9.064   8.328
13123SOL    HW258057   7.958   9.206   8.379
13124SOL     OW58058   9.298   8.674   7.351
13124SOL    HW158059   9.223   8.639   7.408
13124SOL    HW258060   9.376   8.612   7.358
13125SOL     OW58061   4.761   4.427   6.860
13125SOL    HW158062   4.850   4.423   6.906
13125SOL    HW258063   4.722   4.518   6.872
13126SOL     OW58064   7.240   2.499   8.381
13126SOL    HW158065   7.248   2.401   8.360
13126SOL    HW258066   7.192   2.545   8.306
13127SOL     OW58067   5.947   6.893   6.435
13127SOL    HW158068   5.937   6.993   6.426
13127SOL    HW258069   5.978   6.855   6.348
13128SOL     OW58070   0.493   5.688   0.044
13128SOL    HW158071   0.461   5.682   0.139
13128SOL    HW258072   0.593   5.692   0.043
13129SOL     OW58073   1.720   0.799   8.039
13129SOL    HW158074   1.718   0.896   8.015
13129SOL    HW258075   1.793   0.753   7.988
13130SOL     OW58076   1.339   6.779   6.747
13130SOL    HW158077   1.363   6.713   6.817
13130SOL    HW258078   1.349   6.737   6.657
13131SOL     OW58079   3.534   7.501   1.578
13131SOL    HW158080   3.517   7.441   1.500
13131SOL    HW258081   3.585   7.582   1.547
13132SOL     OW58082   2.470   4.433   7.770
13132SOL    HW158083   2.423   4.497   7.831
13132SOL    HW258084   2.435   4.444   7.677
13133SOL     OW58085   5.414   2.392   2.431
13133SOL    HW158086   5.345   2.463   2.444
13133SOL    HW258087   5.493   2.411   2.488
13134SOL     OW58088   0.176   9.943   1.243
13134SOL    HW158089   0.145   9.916   1.152
13134SOL    HW258090   0.215  10.035   1.240
13135SOL     OW58091   7.219   2.127   0.918
13135SOL    HW158092   7.143   2.156   0.976
13135SOL    HW258093   7.261   2.207   0.876
13136SOL     OW58094   1.196   7.966   6.825
13136SOL    HW158095   1.212   7.869   6.805
13136SOL    HW258096   1.107   7.993   6.788
13137SOL     OW58097   2.555   8.239   2.348
13137SOL    HW158098   2.607   8.157   2.371
13137SOL    HW258099   2.588   8.316   2.403
13138SOL     OW58100   0.508   1.766   6.698
13138SOL    HW158101   0.426   1.793   6.747
13138SOL    HW258102   0.553   1.691   6.746
13139SOL     OW58103   9.021   8.611   8.139
13139SOL    HW158104   9.073   8.695   8.155
13139SOL    HW258105   9.084   8.538   8.112
13140SOL     OW58106   6.801   6.573   8.376
13140SOL    HW158107   6.764   6.618   8.294
13140SOL    HW258108   6.809   6.475   8.359
13141SOL     OW58109   8.889   3.625   7.667
13141SOL    HW158110   8.852   3.617   7.760
13141SOL    HW258111   8.981   3.662   7.671
13142SOL     OW58112   1.611   1.289   7.180
13142SOL    HW158113   1.581   1.235   7.102
13142SOL    HW258114   1.677   1.359   7.149
13143SOL     OW58115   0.668   7.689   7.131
13143SOL    HW158116   0.749   7.732   7.090
13143SOL    HW258117   0.696   7.630   7.206
13144SOL     OW58118   1.992   3.181   1.600
13144SOL    HW158119   2.043   3.113   1.548
13144SOL    HW258120   2.057   3.247   1.640
13145SOL     OW58121   0.259   8.579   0.061
13145SOL    HW158122   0.245   8.634   8.761
13145SOL    HW258123   0.203   8.495   0.054
13146SOL     OW58124   0.200   2.824   8.211
13146SOL    HW158125   0.240   2.915   8.218
13146SOL    HW258126   0.180   2.789   8.303
13147SOL     OW58127   4.384   6.244   8.068
13147SOL    HW158128   4.394   6.341   8.092
13147SOL    HW258129   4.315   6.235   7.997
13148SOL     OW58130   6.229   1.821   7.555
13148SOL    HW158131   6.147   1.767   7.568
13148SOL    HW258132   6.294   1.770   7.498
13149SOL     OW58133   7.162   7.427   1.661
13149SOL    HW158134   7.063   7.434   1.655
13149SOL    HW258135   7.188   7.387   1.749
13150SOL     OW58136   0.210   9.585   1.374
13150SOL    HW158137   0.305   9.587   1.344
13150SOL    HW258138   0.149   9.591   1.295
13151SOL     OW58139   7.676   9.191   0.976
13151SOL    HW158140   7.744   9.177   0.904
13151SOL    HW258141   7.654   9.288   0.982
13152SOL     OW58142   8.221   2.398   8.234
13152SOL    HW158143   8.291   2.459   8.198
13152SOL    HW258144   8.133   2.445   8.236
13153SOL     OW58145   3.058   6.623   1.318
13153SOL    HW158146   3.005   6.651   1.398
13153SOL    HW258147   3.074   6.702   1.260
13154SOL     OW58148   2.667   4.668   0.297
13154SOL    HW158149   2.575   4.668   0.257
13154SOL    HW258150   2.675   4.591   0.360
13155SOL     OW58151   8.188   2.993   2.234
13155SOL    HW158152   8.122   3.039   2.292
13155SOL    HW258153   8.280   3.022   2.258
13156SOL     OW58154   7.419   7.410   2.279
13156SOL    HW158155   7.380   7.329   2.236
13156SOL    HW258156   7.417   7.398   2.379
13157SOL     OW58157   9.117   0.337   1.959
13157SOL    HW158158   9.088   0.297   2.046
13157SOL    HW258159   9.217   0.337   1.955
13158SOL     OW58160   7.193   0.820   7.125
13158SOL    HW158161   7.113   0.764   7.104
13158SOL    HW258162   7.168   0.917   7.123
13159SOL     OW58163   9.382   9.305   8.469
13159SOL    HW158164   9.480   9.314   8.450
13159SOL    HW258165   9.348   9.390   8.510
13160SOL     OW58166   7.443   4.227   7.362
13160SOL    HW158167   7.450   4.169   7.280
13160SOL    HW258168   7.478   4.177   7.441
13161SOL     OW58169   3.837   7.416   8.039
13161SOL    HW158170   3.894   7.391   8.117
13161SOL    HW258171   3.759   7.470   8.071
13162SOL     OW58172   9.687   2.080   8.146
13162SOL    HW158173   9.615   2.093   8.215
13162SOL    HW258174   9.691   2.161   8.088
13163SOL     OW58175   9.353   8.116   0.855
13163SOL    HW158176   9.313   8.205   0.831
13163SOL    HW258177   9.404   8.081   0.777
13164SOL     OW58178   3.248   4.281   0.146
13164SOL    HW158179   3.228   4.213   0.216
13164SOL    HW258180   3.167   4.339   0.132
13165SOL     OW58181   3.138   8.893   8.612
13165SOL    HW158182   3.223   8.852   8.645
13165SOL    HW258183   3.065   8.826   8.617
13166SOL     OW58184   2.136   4.586   7.644
13166SOL    HW158185   2.090   4.585   7.732
13166SOL    HW258186   2.168   4.679   7.624
13167SOL     OW58187   3.564   7.438   8.391
13167SOL    HW158188   3.470   7.438   8.426
13167SOL    HW258189   3.628   7.453   8.467
13168SOL     OW58190   2.806   2.189   0.113
13168SOL    HW158191   2.734   2.121   0.125
13168SOL    HW258192   2.882   2.169   0.175
13169SOL     OW58193   6.928   1.703   8.133
13169SOL    HW158194   6.973   1.770   8.074
13169SOL    HW258195   6.996   1.661   8.193
13170SOL     OW58196   2.740   6.582   8.563
13170SOL    HW158197   2.735   6.506   8.628
13170SOL    HW258198   2.765   6.666   8.612
13171SOL     OW58199   9.066   3.096   7.025
13171SOL    HW158200   9.127   3.169   6.995
13171SOL    HW258201   9.118   3.010   7.031
13172SOL     OW58202   9.181   6.551   7.703
13172SOL    HW158203   9.251   6.492   7.744
13172SOL    HW258204   9.104   6.560   7.767
13173SOL     OW58205   0.762   3.140   8.048
13173SOL    HW158206   0.693   3.082   8.091
13173SOL    HW258207   0.719   3.223   8.012
13174SOL     OW58208   4.878   7.952   7.349
13174SOL    HW158209   4.785   7.971   7.318
13174SOL    HW258210   4.918   7.878   7.295
13175SOL     OW58211   1.678   6.323   8.470
13175SOL    HW158212   1.609   6.251   8.483
13175SOL    HW258213   1.642   6.411   8.500
13176SOL     OW58214   8.759   4.191   1.367
13176SOL    HW158215   8.669   4.155   1.343
13176SOL    HW258216   8.828   4.121   1.348
13177SOL     OW58217   3.663   7.084   7.766
13177SOL    HW158218   3.682   6.988   7.787
13177SOL    HW258219   3.744   7.125   7.723
13178SOL     OW58220   5.704   3.852   0.528
13178SOL    HW158221   5.624   3.904   0.498
13178SOL    HW258222   5.680   3.799   0.610
13179SOL     OW58223   2.924  10.457   6.993
13179SOL    HW158224   3.013  10.476   6.951
13179SOL    HW258225   2.929  10.478   7.091
13180SOL     OW58226   5.078   6.780   1.688
13180SOL    HW158227   5.043   6.687   1.673
13180SOL    HW258228   5.178   6.776   1.698
13181SOL     OW58229   5.009   1.706   0.302
13181SOL    HW158230   4.910   1.697   0.286
13181SOL    HW258231   5.054   1.728   0.215
13182SOL     OW58232   3.790   3.174   7.752
13182SOL    HW158233   3.738   3.143   7.832
13182SOL    HW258234   3.787   3.273   7.746
13183SOL     OW58235   8.639   6.660   0.621
13183SOL    HW158236   8.723   6.608   0.632
13183SOL    HW258237   8.561   6.597   0.613
13184SOL     OW58238   7.572   9.637   1.808
13184SOL    HW158239   7.626   9.588   1.876
13184SOL    HW258240   7.563   9.581   1.725
13185SOL     OW58241   2.811   9.832   7.322
13185SOL    HW158242   2.765   9.859   7.407
13185SOL    HW258243   2.898   9.882   7.314
13186SOL     OW58244   7.166   4.232   7.330
13186SOL    HW158245   7.265   4.246   7.334
13186SOL    HW258246   7.141   4.160   7.394
13187SOL     OW58247   4.684   2.685   7.759
13187SOL    HW158248   4.649   2.623   7.688
13187SOL    HW258249   4.732   2.761   7.716
13188SOL     OW58250   5.448   8.489   8.494
13188SOL    HW158251   5.488   8.478   8.585
13188SOL    HW258252   5.367   8.431   8.486
13189SOL     OW58253   9.233   0.689   0.214
13189SOL    HW158254   9.182   0.706   0.298
13189SOL    HW258255   9.211   0.761   0.147
13190SOL     OW58256   8.231   8.040   8.542
13190SOL    HW158257   8.268   8.108   8.478
13190SOL    HW258258   8.305   7.981   8.574
13191SOL     OW58259   9.409   9.302   0.093
13191SOL    HW158260   9.425   9.211   0.055
13191SOL    HW258261   9.405   9.296   0.192
13192SOL     OW58262   5.565   4.904   7.466
13192SOL    HW158263   5.561   4.829   7.399
13192SOL    HW258264   5.472   4.933   7.488
13193SOL     OW58265   9.828   4.754   1.751
13193SOL    HW158266   9.860   4.849   1.760
13193SOL    HW258267   9.902   4.692   1.774
13194SOL     OW58268   7.248   2.052   0.235
13194SOL    HW158269   7.313   2.123   0.262
13194SOL    HW258270   7.252   2.040   0.136
13195SOL     OW58271   4.621   6.575   0.268
13195SOL    HW158272   4.643   6.559   0.364
13195SOL    HW258273   4.638   6.492   0.215
13196SOL     OW58274   2.266   1.395   7.027
13196SOL    HW158275   2.343   1.417   7.087
13196SOL    HW258276   2.294   1.405   6.931
13197SOL     OW58277   8.409   2.633   1.416
13197SOL    HW158278   8.343   2.562   1.439
13197SOL    HW258279   8.366   2.723   1.423
13198SOL     OW58280   5.049   0.667   6.933
13198SOL    HW158281   4.980   0.615   6.982
13198SOL    HW258282   5.089   0.611   6.861
13199SOL     OW58283   6.961   4.599   6.812
13199SOL    HW158284   6.971   4.555   6.723
13199SOL    HW258285   6.920   4.689   6.801
13200SOL     OW58286   6.899   4.168   6.845
13200SOL    HW158287   6.897   4.250   6.902
13200SOL    HW258288   6.935   4.091   6.898
13201SOL     OW58289   7.717   2.213   7.522
13201SOL    HW158290   7.719   2.116   7.543
13201SOL    HW258291   7.764   2.229   7.436
13202SOL     OW58292   3.532   1.158   8.142
13202SOL    HW158293   3.485   1.080   8.101
13202SOL    HW258294   3.613   1.125   8.191
13203SOL     OW58295   3.112   5.696   0.538
13203SOL    HW158296   3.165   5.638   0.600
13203SOL    HW258297   3.163   5.709   0.453
13204SOL     OW58298   4.552   8.483   8.283
13204SOL    HW158299   4.638   8.502   8.235
13204SOL    HW258300   4.571   8.458   8.377
13205SOL     OW58301   1.525   1.180   1.233
13205SOL    HW158302   1.507   1.089   1.198
13205SOL    HW258303   1.601   1.177   1.298
13206SOL     OW58304   3.254   5.964   0.237
13206SOL    HW158305   3.168   5.991   0.195
13206SOL    HW258306   3.255   5.992   0.333
13207SOL     OW58307   9.809   2.658   8.554
13207SOL    HW158308   9.742   2.710   8.502
13207SOL    HW258309   9.829   2.572   8.506
13208SOL     OW58310   2.434   9.717   1.621
13208SOL    HW158311   2.499   9.743   1.693
13208SOL    HW258312   2.412   9.797   1.565
13209SOL     OW58313   1.746   8.621   7.397
13209SOL    HW158314   1.759   8.685   7.322
13209SOL    HW258315   1.648   8.602   7.408
13210SOL     OW58316   2.750  10.099   0.265
13210SOL    HW158317   2.691  10.134   0.193
13210SOL    HW258318   2.778  10.005   0.242
13211SOL     OW58319   0.652   7.416   0.131
13211SOL    HW158320   0.685   7.398   0.224
13211SOL    HW258321   0.602   7.336   0.097
13212SOL     OW58322   6.752   1.317   8.374
13212SOL    HW158323   6.824   1.247   8.375
13212SOL    HW258324   6.669   1.278   8.334
13213SOL     OW58325   0.618   4.154   7.538
13213SOL    HW158326   0.583   4.174   7.446
13213SOL    HW258327   0.543   4.155   7.603
13214SOL     OW58328   9.454   0.725   8.313
13214SOL    HW158329   9.518   0.756   8.384
13214SOL    HW258330   9.439   0.627   8.323
13215SOL     OW58331   5.066   0.697   0.453
13215SOL    HW158332   5.134   0.644   0.402
13215SOL    HW258333   4.985   0.640   0.469
13216SOL     OW58334   5.815   8.158   0.643
13216SOL    HW158335   5.799   8.156   0.742
13216SOL    HW258336   5.733   8.125   0.596
13217SOL     OW58337   0.097   5.362   1.804
13217SOL    HW158338   0.012   5.314   1.826
13217SOL    HW258339   0.132   5.407   1.887
13218SOL     OW58340   1.303   9.809   6.635
13218SOL    HW158341   1.365   9.738   6.600
13218SOL    HW258342   1.284   9.793   6.732
13219SOL     OW58343   7.579   4.854   6.737
13219SOL    HW158344   7.626   4.791   6.676
13219SOL    HW258345   7.618   4.945   6.728
13220SOL     OW58346   1.737   6.581   6.533
13220SOL    HW158347   1.677   6.573   6.453
13220SOL    HW258348   1.693   6.537   6.612
13221SOL     OW58349   5.324   3.422   7.740
13221SOL    HW158350   5.412   3.425   7.787
13221SOL    HW258351   5.332   3.470   7.653
13222SOL     OW58352   9.589   9.357   1.170
13222SOL    HW158353   9.583   9.263   1.137
13222SOL    HW258354   9.667   9.366   1.232
13223SOL     OW58355   4.871  10.216   0.692
13223SOL    HW158356   4.896  10.288   0.756
13223SOL    HW258357   4.947  10.152   0.683
13224SOL     OW58358   3.870   1.143   6.965
13224SOL    HW158359   3.835   1.233   6.940
13224SOL    HW258360   3.897   1.144   7.062
13225SOL     OW58361   9.805   1.118   6.681
13225SOL    HW158362   9.851   1.206   6.668
13225SOL    HW258363   9.840   1.051   6.614
13226SOL     OW58364   7.234   1.734   1.124
13226SOL    HW158365   7.285   1.691   1.049
13226SOL    HW258366   7.248   1.833   1.122
13227SOL     OW58367   0.372   3.221   0.278
13227SOL    HW158368   0.333   3.213   0.187
13227SOL    HW258369   0.465   3.182   0.278
13228SOL     OW58370   7.985   1.076   1.633
13228SOL    HW158371   8.081   1.103   1.642
13228SOL    HW258372   7.977   1.007   1.561
13229SOL     OW58373   4.947   5.146   6.503
13229SOL    HW158374   4.920   5.224   6.447
13229SOL    HW258375   4.994   5.078   6.445
13230SOL     OW58376   9.918   4.430   7.310
13230SOL    HW158377   9.876   4.395   7.226
13230SOL    HW258378   9.909   4.363   7.383
13231SOL     OW58379   5.943   0.254   7.745
13231SOL    HW158380   5.998   0.318   7.691
13231SOL    HW258381   5.984   0.241   7.835
13232SOL     OW58382   6.043   1.816   0.880
13232SOL    HW158383   6.094   1.770   0.953
13232SOL    HW258384   5.945   1.812   0.901
13233SOL     OW58385   8.649   8.701   7.917
13233SOL    HW158386   8.603   8.631   7.863
13233SOL    HW258387   8.663   8.667   8.010
13234SOL     OW58388   5.207   2.690   6.720
13234SOL    HW158389   5.112   2.710   6.697
13234SOL    HW258390   5.210   2.610   6.780
13235SOL     OW58391   7.691   6.437   0.129
13235SOL    HW158392   7.703   6.438   0.228
13235SOL    HW258393   7.653   6.349   0.101
13236SOL     OW58394   0.485   8.455   8.535
13236SOL    HW158395   0.578   8.440   8.501
13236SOL    HW258396   0.476   8.549   8.568
13237SOL     OW58397   6.369  10.113   0.504
13237SOL    HW158398   6.426  10.032   0.508
13237SOL    HW258399   6.401  10.181   0.570
13238SOL     OW58400   3.997   3.570   8.132
13238SOL    HW158401   4.061   3.558   8.209
13238SOL    HW258402   4.015   3.499   8.064
13239SOL     OW58403   0.476   5.181   2.028
13239SOL    HW158404   0.391   5.215   2.069
13239SOL    HW258405   0.554   5.220   2.077
13240SOL     OW58406   8.130   3.364   2.300
13240SOL    HW158407   8.224   3.368   2.336
13240SOL    HW258408   8.086   3.279   2.329
13241SOL     OW58409   0.507   0.403   7.100
13241SOL    HW158410   0.573   0.346   7.151
13241SOL    HW258411   0.556   0.474   7.051
13242SOL     OW58412   4.634   9.879   6.088
13242SOL    HW158413   4.619   9.781   6.075
13242SOL    HW258414   4.725   9.904   6.054
13243SOL     OW58415   2.288   4.690   6.653
13243SOL    HW158416   2.197   4.714   6.618
13243SOL    HW258417   2.294   4.591   6.664
13244SOL     OW58418   4.278  10.064   8.365
13244SOL    HW158419   4.354  10.101   8.419
13244SOL    HW258420   4.194  10.068   8.419
13245SOL     OW58421   7.518   7.026   0.336
13245SOL    HW158422   7.448   6.967   0.377
13245SOL    HW258423   7.482   7.119   0.330
13246SOL     OW58424  10.059   0.435   7.403
13246SOL    HW158425  10.036   0.415   7.308
13246SOL    HW258426  10.000   0.381   7.463
13247SOL     OW58427   6.254   8.229   0.326
13247SOL    HW158428   6.178   8.209   0.387
13247SOL    HW258429   6.225   8.295   0.256
13248SOL     OW58430   1.538   9.476   0.007
13248SOL    HW158431   1.558   9.571   8.767
13248SOL    HW258432   1.624   9.423   0.010
13249SOL     OW58433   4.844   2.637   0.460
13249SOL    HW158434   4.751   2.600   0.464
13249SOL    HW258435   4.842   2.726   0.415
13250SOL     OW58436   1.884  10.469   7.150
13250SOL    HW158437   1.786  10.481   7.164
13250SOL    HW258438   1.911   0.008   7.064
13251SOL     OW58439  10.097   4.818   7.932
13251SOL    HW158440  10.067   4.863   7.848
13251SOL    HW258441  10.018   4.789   7.985
13252SOL     OW58442   8.643   2.260   6.935
13252SOL    HW158443   8.698   2.261   6.851
13252SOL    HW258444   8.546   2.257   6.911
13253SOL     OW58445   5.085   6.977   1.884
13253SOL    HW158446   5.171   6.984   1.935
13253SOL    HW258447   5.093   6.902   1.818
13254SOL     OW58448   2.327   2.108   7.139
13254SOL    HW158449   2.277   2.040   7.193
13254SOL    HW258450   2.268   2.140   7.064
13255SOL     OW58451   1.768   8.935   8.575
13255SOL    HW158452   1.687   8.939   8.635
13255SOL    HW258453   1.753   8.868   8.502
13256SOL     OW58454   1.678   8.142   8.436
13256SOL    HW158455   1.688   8.084   8.517
13256SOL    HW258456   1.758   8.202   8.429
13257SOL     OW58457   0.134   6.435   7.372
13257SOL    HW158458   0.097   6.368   7.309
13257SOL    HW258459   0.062   6.470   7.431
13258SOL     OW58460   6.297   9.925   1.129
13258SOL    HW158461   6.394   9.943   1.108
13258SOL    HW258462   6.247  10.012   1.131
13259SOL     OW58463   0.717   9.842   6.360
13259SOL    HW158464   0.646   9.785   6.319
13259SOL    HW258465   0.721   9.929   6.312
13260SOL     OW58466   2.432   6.118   7.366
13260SOL    HW158467   2.400   6.152   7.277
13260SOL    HW258468   2.370   6.151   7.438
13261SOL     OW58469   3.627   9.890   6.453
13261SOL    HW158470   3.719   9.917   6.425
13261SOL    HW258471   3.595   9.814   6.396
13262SOL     OW58472   4.867   1.757   2.335
13262SOL    HW158473   4.861   1.794   2.428
13262SOL    HW258474   4.788   1.787   2.283
13263SOL     OW58475   5.077   9.381   1.026
13263SOL    HW158476   5.020   9.334   0.958
13263SOL    HW258477   5.165   9.404   0.985
13264SOL     OW58478   5.653   1.138   7.610
13264SOL    HW158479   5.705   1.224   7.610
13264SOL    HW258480   5.597   1.133   7.693
13265SOL     OW58481   9.303   6.310   0.512
13265SOL    HW158482   9.344   6.385   0.566
13265SOL    HW258483   9.262   6.244   0.574
13266SOL     OW58484   0.320  10.065   0.119
13266SOL    HW158485   0.274  10.153   0.132
13266SOL    HW258486   0.279   9.996   0.178
13267SOL     OW58487   9.629   8.418   7.848
13267SOL    HW158488   9.547   8.476   7.857
13267SOL    HW258489   9.693   8.440   7.921
13268SOL     OW58490   5.771   8.502   0.623
13268SOL    HW158491   5.672   8.496   0.631
13268SOL    HW258492   5.801   8.595   0.646
13269SOL     OW58493   2.240   2.054   8.271
13269SOL    HW158494   2.202   2.090   8.356
13269SOL    HW258495   2.318   2.109   8.242
13270SOL     OW58496   8.453   1.244   7.162
13270SOL    HW158497   8.510   1.289   7.231
13270SOL    HW258498   8.412   1.312   7.102
13271SOL     OW58499   0.502   1.750   8.119
13271SOL    HW158500   0.545   1.662   8.139
13271SOL    HW258501   0.557   1.824   8.158
13272SOL     OW58502   5.069   0.277   0.794
13272SOL    HW158503   5.145   0.342   0.803
13272SOL    HW258504   5.106   0.184   0.794
13273SOL     OW58505   9.081   9.753   0.342
13273SOL    HW158506   8.984   9.743   0.317
13273SOL    HW258507   9.103   9.851   0.347
13274SOL     OW58508   0.227   6.880   1.272
13274SOL    HW158509   0.150   6.824   1.241
13274SOL    HW258510   0.242   6.955   1.208
13275SOL     OW58511   4.531   5.676   7.152
13275SOL    HW158512   4.479   5.755   7.119
13275SOL    HW258513   4.596   5.706   7.223
13276SOL     OW58514   2.270   1.365   7.663
13276SOL    HW158515   2.266   1.395   7.568
13276SOL    HW258516   2.269   1.265   7.667
13277SOL     OW58517   7.652   9.134   1.802
13277SOL    HW158518   7.582   9.126   1.731
13277SOL    HW258519   7.619   9.091   1.886
13278SOL     OW58520   3.916   6.487   8.037
13278SOL    HW158521   3.963   6.400   8.049
13278SOL    HW258522   3.839   6.476   7.975
13279SOL     OW58523   0.214   0.370   1.543
13279SOL    HW158524   0.221   0.419   1.456
13279SOL    HW258525   0.304   0.340   1.572
13280SOL     OW58526   9.518  10.191   7.643
13280SOL    HW158527   9.552  10.285   7.639
13280SOL    HW258528   9.561  10.144   7.720
13281SOL     OW58529   5.891   1.651   0.052
13281SOL    HW158530   5.836   1.720   0.005
13281SOL    HW258531   5.835   1.604   0.120
13282SOL     OW58532   1.506   3.481   0.010
13282SOL    HW158533   1.434   3.464   8.725
13282SOL    HW258534   1.591   3.438   8.760
13283SOL     OW58535   2.266   7.409   6.430
13283SOL    HW158536   2.200   7.356   6.377
13283SOL    HW258537   2.347   7.427   6.375
13284SOL     OW58538   0.505   7.445   7.593
13284SOL    HW158539   0.427   7.427   7.533
13284SOL    HW258540   0.506   7.542   7.618
13285SOL     OW58541   1.264   9.755   6.907
13285SOL    HW158542   1.173   9.713   6.911
13285SOL    HW258543   1.266   9.835   6.967
13286SOL     OW58544   9.655   9.365   0.605
13286SOL    HW158545   9.693   9.420   0.679
13286SOL    HW258546   9.602   9.423   0.544
13287SOL     OW58547   2.914   8.843   6.897
13287SOL    HW158548   2.931   8.847   6.995
13287SOL    HW258549   2.983   8.784   6.854
13288SOL     OW58550  10.039   5.514   0.743
13288SOL    HW158551  10.063   5.479   0.653
13288SOL    HW258552   9.954   5.472   0.774
13289SOL     OW58553   4.388   9.043   2.535
13289SOL    HW158554   4.478   8.999   2.540
13289SOL    HW258555   4.389   9.125   2.591
13290SOL     OW58556   0.635   6.925   1.349
13290SOL    HW158557   0.583   6.946   1.432
13290SOL    HW258558   0.581   6.864   1.292
13291SOL     OW58559   7.441   2.170   8.533
13291SOL    HW158560   7.518   2.123   8.489
13291SOL    HW258561   7.374   2.197   8.463
13292SOL     OW58562   8.623   4.707   7.096
13292SOL    HW158563   8.550   4.683   7.160
13292SOL    HW258564   8.696   4.755   7.146
13293SOL     OW58565   4.321   1.322   8.097
13293SOL    HW158566   4.383   1.278   8.161
13293SOL    HW258567   4.296   1.258   8.024
13294SOL     OW58568   3.074   1.566   8.722
13294SOL    HW158569   3.105   1.605   8.635
13294SOL    HW258570   3.045   1.471   8.707
13295SOL     OW58571   8.158   6.496   6.346
13295SOL    HW158572   8.151   6.397   6.347
13295SOL    HW258573   8.249   6.523   6.314
13296SOL     OW58574   0.315   3.080   8.201
13296SOL    HW158575   0.355   3.051   8.288
13296SOL    HW258576   0.362   3.162   8.168
13297SOL     OW58577   6.111   8.398   1.018
13297SOL    HW158578   6.055   8.344   1.081
13297SOL    HW258579   6.065   8.403   0.929
13298SOL     OW58580   5.150   0.913   8.472
13298SOL    HW158581   5.073   0.854   8.497
13298SOL    HW258582   5.120   1.008   8.475
13299SOL     OW58583   7.324   7.641   0.385
13299SOL    HW158584   7.289   7.559   0.341
13299SOL    HW258585   7.387   7.689   0.324
13300SOL     OW58586   1.220   8.182   8.366
13300SOL    HW158587   1.297   8.122   8.389
13300SOL    HW258588   1.142   8.159   8.424
13301SOL     OW58589   7.415   7.342   0.038
13301SOL    HW158590   7.396   7.247   0.013
13301SOL    HW258591   7.329   7.391   0.049
13302SOL     OW58592   3.540   4.304   6.417
13302SOL    HW158593   3.596   4.286   6.499
13302SOL    HW258594   3.451   4.259   6.427
13303SOL     OW58595   4.079   3.669   0.835
13303SOL    HW158596   4.033   3.580   0.834
13303SOL    HW258597   4.041   3.727   0.763
13304SOL     OW58598   2.420   4.215   7.412
13304SOL    HW158599   2.383   4.145   7.473
13304SOL    HW258600   2.394   4.305   7.445
13305SOL     OW58601   9.165   2.138   1.286
13305SOL    HW158602   9.181   2.071   1.359
13305SOL    HW258603   9.069   2.165   1.287
13306SOL     OW58604   0.502   5.224   8.197
13306SOL    HW158605   0.456   5.148   8.152
13306SOL    HW258606   0.593   5.194   8.228
13307SOL     OW58607   5.782   1.535   0.875
13307SOL    HW158608   5.748   1.495   0.959
13307SOL    HW258609   5.870   1.493   0.850
13308SOL     OW58610   4.178   6.826   1.261
13308SOL    HW158611   4.223   6.871   1.338
13308SOL    HW258612   4.134   6.895   1.203
13309SOL     OW58613   4.700   0.010   0.730
13309SOL    HW158614   4.781  10.493   0.786
13309SOL    HW258615   4.638   0.070   0.781
13310SOL     OW58616   2.099   7.550   0.276
13310SOL    HW158617   2.000   7.533   0.271
13310SOL    HW258618   2.117   7.616   0.349
13311SOL     OW58619   0.315   4.152   0.606
13311SOL    HW158620   0.245   4.109   0.663
13311SOL    HW258621   0.329   4.096   0.524
13312SOL     OW58622   1.978   3.814   8.649
13312SOL    HW158623   2.023   3.842   8.734
13312SOL    HW258624   2.046   3.783   8.583
13313SOL     OW58625   8.743   3.766   0.128
13313SOL    HW158626   8.695   3.699   0.186
13313SOL    HW258627   8.778   3.720   0.047
13314SOL     OW58628   4.144   1.332   7.078
13314SOL    HW158629   4.196   1.268   7.021
13314SOL    HW258630   4.129   1.417   7.028
13315SOL     OW58631   4.116   3.869   6.830
13315SOL    HW158632   4.182   3.927   6.783
13315SOL    HW258633   4.133   3.773   6.808
13316SOL     OW58634   6.368   5.779   8.141
13316SOL    HW158635   6.384   5.850   8.072
13316SOL    HW258636   6.270   5.772   8.158
13317SOL     OW58637   6.167   6.065   6.717
13317SOL    HW158638   6.085   6.008   6.709
13317SOL    HW258639   6.147   6.158   6.685
13318SOL     OW58640   9.946   2.875   6.557
13318SOL    HW158641   9.888   2.922   6.624
13318SOL    HW258642   9.938   2.921   6.469
13319SOL     OW58643   5.591   9.006   0.881
13319SOL    HW158644   5.538   9.078   0.927
13319SOL    HW258645   5.626   8.943   0.950
13320SOL     OW58646   7.071   2.508   0.289
13320SOL    HW158647   7.107   2.544   0.375
13320SOL    HW258648   7.118   2.552   0.212
13321SOL     OW58649   1.319   1.453   8.576
13321SOL    HW158650   1.348   1.417   8.665
13321SOL    HW258651   1.398   1.457   8.515
13322SOL     OW58652   0.863   0.948   0.225
13322SOL    HW158653   0.793   1.014   0.194
13322SOL    HW258654   0.868   0.950   0.325
13323SOL     OW58655   4.048   2.682   1.576
13323SOL    HW158656   4.111   2.688   1.654
13323SOL    HW258657   4.057   2.764   1.520
13324SOL     OW58658   5.278   4.594   1.261
13324SOL    HW158659   5.312   4.593   1.167
13324SOL    HW258660   5.183   4.624   1.261
13325SOL     OW58661   4.771   6.261   7.347
13325SOL    HW158662   4.707   6.336   7.334
13325SOL    HW258663   4.750   6.214   7.433
13326SOL     OW58664   4.508   5.292   8.158
13326SOL    HW158665   4.557   5.359   8.214
13326SOL    HW258666   4.426   5.335   8.119
13327SOL     OW58667   5.152  10.498   7.794
13327SOL    HW158668   5.245   0.025   7.772
13327SOL    HW258669   5.148  10.398   7.793
13328SOL     OW58670   9.279   2.586   8.387
13328SOL    HW158671   9.230   2.587   8.474
13328SOL    HW258672   9.278   2.678   8.347
13329SOL     OW58673   4.578  10.101   1.150
13329SOL    HW158674   4.598  10.125   1.245
13329SOL    HW258675   4.662  10.068   1.106
13330SOL     OW58676   7.613   0.001   0.850
13330SOL    HW158677   7.613   0.079   0.786
13330SOL    HW258678   7.703  10.462   0.850
13331SOL     OW58679   3.390   7.225   7.193
13331SOL    HW158680   3.393   7.175   7.106
13331SOL    HW258681   3.342   7.170   7.261
13332SOL     OW58682   2.881   6.807   0.557
13332SOL    HW158683   2.782   6.819   0.562
13332SOL    HW258684   2.913   6.838   0.467
13333SOL     OW58685   1.933   4.509   7.018
13333SOL    HW158686   2.033   4.500   7.026
13333SOL    HW258687   1.895   4.423   6.983
13334SOL     OW58688   2.507   8.850   6.922
13334SOL    HW158689   2.420   8.805   6.944
13334SOL    HW258690   2.571   8.837   6.998
13335SOL     OW58691   6.061   6.951   1.339
13335SOL    HW158692   6.069   6.907   1.249
13335SOL    HW258693   6.122   7.030   1.343
13336SOL     OW58694   3.020   7.453   0.933
13336SOL    HW158695   2.960   7.452   1.013
13336SOL    HW258696   3.011   7.542   0.886
13337SOL     OW58697   0.745   8.690   8.313
13337SOL    HW158698   0.840   8.666   8.294
13337SOL    HW258699   0.707   8.740   8.235
13338SOL     OW58700   7.215   0.056   0.314
13338SOL    HW158701   7.170   0.137   0.350
13338SOL    HW258702   7.273   0.015   0.384
13339SOL     OW58703   8.501   4.684   0.472
13339SOL    HW158704   8.523   4.753   0.542
13339SOL    HW258705   8.482   4.597   0.517
13340SOL     OW58706   9.432   5.608   0.829
13340SOL    HW158707   9.370   5.682   0.857
13340SOL    HW258708   9.475   5.632   0.742
13341SOL     OW58709   2.733   6.451   2.093
13341SOL    HW158710   2.689   6.374   2.047
13341SOL    HW258711   2.831   6.431   2.104
13342SOL     OW58712   8.984   3.846   1.711
13342SOL    HW158713   9.020   3.925   1.659
13342SOL    HW258714   9.011   3.762   1.665
13343SOL     OW58715   4.350   9.307   1.176
13343SOL    HW158716   4.261   9.318   1.133
13343SOL    HW258717   4.393   9.222   1.144
13344SOL     OW58718   2.122   2.445   0.060
13344SOL    HW158719   2.169   2.520   0.013
13344SOL    HW258720   2.024   2.451   0.040
13345SOL     OW58721   1.356   6.142   0.806
13345SOL    HW158722   1.336   6.222   0.862
13345SOL    HW258723   1.337   6.162   0.710
13346SOL     OW58724   7.950   1.619   7.429
13346SOL    HW158725   7.928   1.522   7.439
13346SOL    HW258726   8.022   1.644   7.494
13347SOL     OW58727   9.063   7.413   1.618
13347SOL    HW158728   9.123   7.384   1.692
13347SOL    HW258729   9.017   7.498   1.643
13348SOL     OW58730   3.138   4.658   6.287
13348SOL    HW158731   3.145   4.560   6.307
13348SOL    HW258732   3.150   4.672   6.189
13349SOL     OW58733   8.328   5.814   0.199
13349SOL    HW158734   8.278   5.795   0.284
13349SOL    HW258735   8.345   5.728   0.151
13350SOL     OW58736   6.143   1.749   6.959
13350SOL    HW158737   6.052   1.712   6.940
13350SOL    HW258738   6.141   1.797   7.047
13351SOL     OW58739   0.532   1.940   1.004
13351SOL    HW158740   0.464   1.897   1.064
13351SOL    HW258741   0.591   2.000   1.057
13352SOL     OW58742   0.949   1.386   0.459
13352SOL    HW158743   0.862   1.428   0.487
13352SOL    HW258744   1.024   1.449   0.480
13353SOL     OW58745   9.940   7.062   2.132
13353SOL    HW158746   9.877   7.117   2.187
13353SOL    HW258747   9.951   6.972   2.173
13354SOL     OW58748   6.214   9.427   8.479
13354SOL    HW158749   6.177   9.441   8.387
13354SOL    HW258750   6.154   9.365   8.530
13355SOL     OW58751   4.953   9.836   6.325
13355SOL    HW158752   4.973   9.788   6.240
13355SOL    HW258753   4.887   9.910   6.307
13356SOL     OW58754   5.486   0.315   7.862
13356SOL    HW158755   5.477   0.300   7.961
13356SOL    HW258756   5.451   0.235   7.813
13357SOL     OW58757  10.039   9.521   7.432
13357SOL    HW158758  10.002   9.546   7.521
13357SOL    HW258759  10.062   9.603   7.380
13358SOL     OW58760   8.510   7.399   8.326
13358SOL    HW158761   8.503   7.330   8.254
13358SOL    HW258762   8.425   7.453   8.328
13359SOL     OW58763   7.987   9.490   7.677
13359SOL    HW158764   7.983   9.570   7.736
13359SOL    HW258765   7.962   9.408   7.730
13360SOL     OW58766   3.133   2.624   2.052
13360SOL    HW158767   3.090   2.538   2.079
13360SOL    HW258768   3.228   2.624   2.082
13361SOL     OW58769   5.008  10.192   1.006
13361SOL    HW158770   5.020  10.164   1.101
13361SOL    HW258771   5.082  10.154   0.951
13362SOL     OW58772   7.448   0.369   7.979
13362SOL    HW158773   7.449   0.351   8.077
13362SOL    HW258774   7.523   0.318   7.935
13363SOL     OW58775   6.489   8.633   8.710
13363SOL    HW158776   6.543   8.714   8.731
13363SOL    HW258777   6.394   8.648   8.737
13364SOL     OW58778   6.202   5.416   0.978
13364SOL    HW158779   6.242   5.461   1.058
13364SOL    HW258780   6.149   5.337   1.008
13365SOL     OW58781   4.946   3.257   7.659
13365SOL    HW158782   4.848   3.256   7.679
13365SOL    HW258783   4.967   3.186   7.592
13366SOL     OW58784   9.556   9.912   6.849
13366SOL    HW158785   9.523   9.823   6.818
13366SOL    HW258786   9.525   9.983   6.786
13367SOL     OW58787   7.984   8.848   2.412
13367SOL    HW158788   8.026   8.924   2.462
13367SOL    HW258789   7.902   8.880   2.365
13368SOL     OW58790   1.066   6.142   1.140
13368SOL    HW158791   1.023   6.150   1.050
13368SOL    HW258792   1.142   6.208   1.146
13369SOL     OW58793   9.556   4.469   1.692
13369SOL    HW158794   9.521   4.505   1.778
13369SOL    HW258795   9.482   4.429   1.639
13370SOL     OW58796   5.701   8.940   8.137
13370SOL    HW158797   5.718   8.842   8.132
13370SOL    HW258798   5.644   8.960   8.217
13371SOL     OW58799   1.780   3.368   0.367
13371SOL    HW158800   1.876   3.395   0.372
13371SOL    HW258801   1.730   3.408   0.444
13372SOL     OW58802   7.346   2.011   1.130
13372SOL    HW158803   7.296   2.044   1.051
13372SOL    HW258804   7.424   2.072   1.148
13373SOL     OW58805   9.712   4.505   0.223
13373SOL    HW158806   9.755   4.555   0.148
13373SOL    HW258807   9.666   4.423   0.188
13374SOL     OW58808   9.385   3.383   7.553
13374SOL    HW158809   9.442   3.413   7.476
13374SOL    HW258810   9.376   3.458   7.618
13375SOL     OW58811   7.129   6.188   7.473
13375SOL    HW158812   7.213   6.205   7.423
13375SOL    HW258813   7.107   6.091   7.471
13376SOL     OW58814   0.022  10.231   1.507
13376SOL    HW158815  10.145  10.320   1.475
13376SOL    HW258816  10.154  10.160   1.442
13377SOL     OW58817   3.464   6.903   1.821
13377SOL    HW158818   3.408   6.930   1.899
13377SOL    HW258819   3.414   6.837   1.765
13378SOL     OW58820   6.085   2.531   7.045
13378SOL    HW158821   6.165   2.543   7.104
13378SOL    HW258822   6.006   2.576   7.086
13379SOL     OW58823   9.646   2.256   7.408
13379SOL    HW158824   9.629   2.219   7.317
13379SOL    HW258825   9.680   2.350   7.400
13380SOL     OW58826   3.855   4.652   8.247
13380SOL    HW158827   3.809   4.565   8.266
13380SOL    HW258828   3.787   4.723   8.230
13381SOL     OW58829   1.338   3.420   1.819
13381SOL    HW158830   1.432   3.413   1.853
13381SOL    HW258831   1.294   3.330   1.825
13382SOL     OW58832   0.307   6.336   6.986
13382SOL    HW158833   0.264   6.320   6.897
13382SOL    HW258834   0.380   6.403   6.977
13383SOL     OW58835   2.352   7.440   6.945
13383SOL    HW158836   2.275   7.399   6.994
13383SOL    HW258837   2.352   7.409   6.850
13384SOL     OW58838   1.639   3.464   0.586
13384SOL    HW158839   1.572   3.461   0.660
13384SOL    HW258840   1.709   3.532   0.608
13385SOL     OW58841   4.330   8.457   0.960
13385SOL    HW158842   4.303   8.552   0.942
13385SOL    HW258843   4.249   8.398   0.956
13386SOL     OW58844   9.066   1.921   8.663
13386SOL    HW158845   9.023   1.882   8.582
13386SOL    HW258846   9.115   1.848   8.713
13387SOL     OW58847   0.714   1.516   1.230
13387SOL    HW158848   0.707   1.469   1.142
13387SOL    HW258849   0.757   1.605   1.217
13388SOL     OW58850   0.520   5.157   0.357
13388SOL    HW158851   0.554   5.098   0.430
13388SOL    HW258852   0.455   5.107   0.300
13389SOL     OW58853   6.292   3.755   0.889
13389SOL    HW158854   6.369   3.699   0.921
13389SOL    HW258855   6.264   3.817   0.962
13390SOL     OW58856  10.156   6.664   0.363
13390SOL    HW158857   0.029   6.648   0.269
13390SOL    HW258858   0.076   6.692   0.419
13391SOL     OW58859   9.259   6.573   0.148
13391SOL    HW158860   9.328   6.501   0.155
13391SOL    HW258861   9.173   6.541   0.187
13392SOL     OW58862   1.980   6.524   8.017
13392SOL    HW158863   1.939   6.438   8.046
13392SOL    HW258864   2.072   6.531   8.055
13393SOL     OW58865   0.915   6.705   8.423
13393SOL    HW158866   0.855   6.625   8.420
13393SOL    HW258867   0.915   6.744   8.515
13394SOL     OW58868   9.371   3.173   7.916
13394SOL    HW158869   9.319   3.258   7.916
13394SOL    HW258870   9.440   3.177   7.845
13395SOL     OW58871   7.909   6.564   0.603
13395SOL    HW158872   7.934   6.487   0.662
13395SOL    HW258873   7.882   6.642   0.659
13396SOL     OW58874   8.475   5.702   1.346
13396SOL    HW158875   8.453   5.710   1.249
13396SOL    HW258876   8.398   5.735   1.401
13397SOL     OW58877   7.448   1.393   1.856
13397SOL    HW158878   7.398   1.376   1.941
13397SOL    HW258879   7.507   1.315   1.836
13398SOL     OW58880   0.512   6.935   1.603
13398SOL    HW158881   0.491   6.978   1.691
13398SOL    HW258882   0.581   6.864   1.616
13399SOL     OW58883   5.907   7.450   0.036
13399SOL    HW158884   5.968   7.522   0.069
13399SOL    HW258885   5.936   7.362   0.073
13400SOL     OW58886   5.993   6.587   6.977
13400SOL    HW158887   6.004   6.591   6.877
13400SOL    HW258888   5.998   6.680   7.014
13401SOL     OW58889   5.156   4.927   1.595
13401SOL    HW158890   5.146   4.829   1.612
13401SOL    HW258891   5.065   4.967   1.579
13402SOL     OW58892   2.990   4.706   8.036
13402SOL    HW158893   2.962   4.623   7.988
13402SOL    HW258894   2.958   4.786   7.984
13403SOL     OW58895   9.314   4.322   0.752
13403SOL    HW158896   9.230   4.361   0.714
13403SOL    HW258897   9.387   4.326   0.683
13404SOL     OW58898   2.501   7.278   2.281
13404SOL    HW158899   2.411   7.316   2.300
13404SOL    HW258900   2.566   7.353   2.266
13405SOL     OW58901   1.225   1.885   6.619
13405SOL    HW158902   1.218   1.950   6.544
13405SOL    HW258903   1.291   1.813   6.596
13406SOL     OW58904   1.682   8.905   1.468
13406SOL    HW158905   1.650   8.891   1.562
13406SOL    HW258906   1.688   8.817   1.421
13407SOL     OW58907   5.601   8.158   7.221
13407SOL    HW158908   5.645   8.069   7.234
13407SOL    HW258909   5.626   8.219   7.296
13408SOL     OW58910   1.875   0.402   7.945
13408SOL    HW158911   1.881   0.501   7.940
13408SOL    HW258912   1.869   0.374   8.041
13409SOL     OW58913   3.629  10.215   8.148
13409SOL    HW158914   3.720  10.247   8.173
13409SOL    HW258915   3.603  10.139   8.207
13410SOL     OW58916   6.272   2.407   1.371
13410SOL    HW158917   6.199   2.454   1.321
13410SOL    HW258918   6.354   2.464   1.371
13411SOL     OW58919   2.889   9.731   0.924
13411SOL    HW158920   2.880   9.781   1.010
13411SOL    HW258921   2.881   9.794   0.847
13412SOL     OW58922   5.939   9.092   8.100
13412SOL    HW158923   5.851   9.045   8.100
13412SOL    HW258924   5.961   9.122   8.192
13413SOL     OW58925   6.029   4.695   7.576
13413SOL    HW158926   6.080   4.610   7.585
13413SOL    HW258927   5.949   4.680   7.518
13414SOL     OW58928   7.911   0.345   8.215
13414SOL    HW158929   7.853   0.424   8.232
13414SOL    HW258930   7.975   0.334   8.292
13415SOL     OW58931   0.995   0.592   8.019
13415SOL    HW158932   1.094   0.589   8.028
13415SOL    HW258933   0.966   0.527   7.949
13416SOL     OW58934   7.308   4.203   6.763
13416SOL    HW158935   7.264   4.271   6.705
13416SOL    HW258936   7.377   4.154   6.711
13417SOL     OW58937   9.910   8.992   0.110
13417SOL    HW158938   9.858   8.906   0.101
13417SOL    HW258939   9.972   9.001   0.033
13418SOL     OW58940   9.659   7.488   1.218
13418SOL    HW158941   9.665   7.501   1.119
13418SOL    HW258942   9.567   7.509   1.249
13419SOL     OW58943   6.977   4.788   1.891
13419SOL    HW158944   6.982   4.745   1.800
13419SOL    HW258945   6.885   4.824   1.906
13420SOL     OW58946   0.751   2.690   7.140
13420SOL    HW158947   0.746   2.744   7.056
13420SOL    HW258948   0.847   2.680   7.167
13421SOL     OW58949   3.230   1.132   6.369
13421SOL    HW158950   3.194   1.064   6.433
13421SOL    HW258951   3.315   1.098   6.329
13422SOL     OW58952   5.521   0.154   0.685
13422SOL    HW158953   5.515   0.061   0.719
13422SOL    HW258954   5.604   0.164   0.629
13423SOL     OW58955   6.872   2.503   8.592
13423SOL    HW158956   6.858   2.464   8.501
13423SOL    HW258957   6.855   2.433   8.661
13424SOL     OW58958   5.351   7.645   0.651
13424SOL    HW158959   5.265   7.642   0.600
13424SOL    HW258960   5.333   7.632   0.748
13425SOL     OW58961   2.464   3.912   1.360
13425SOL    HW158962   2.482   3.822   1.322
13425SOL    HW258963   2.470   3.909   1.460
13426SOL     OW58964   1.464   3.637   7.380
13426SOL    HW158965   1.527   3.588   7.319
13426SOL    HW258966   1.387   3.577   7.402
13427SOL     OW58967   7.790   6.811   1.462
13427SOL    HW158968   7.853   6.774   1.394
13427SOL    HW258969   7.826   6.794   1.554
13428SOL     OW58970   7.749   3.121   0.403
13428SOL    HW158971   7.754   3.200   0.342
13428SOL    HW258972   7.680   3.137   0.473
13429SOL     OW58973   2.024   8.611   7.204
13429SOL    HW158974   1.975   8.695   7.227
13429SOL    HW258975   2.005   8.586   7.109
13430SOL     OW58976   9.675   5.793   1.038
13430SOL    HW158977   9.625   5.750   1.113
13430SOL    HW258978   9.628   5.877   1.010
13431SOL     OW58979   4.302   2.596   6.610
13431SOL    HW158980   4.328   2.688   6.580
13431SOL    HW258981   4.298   2.535   6.531
13432SOL     OW58982   0.740   5.451   7.255
13432SOL    HW158983   0.775   5.507   7.179
13432SOL    HW258984   0.764   5.494   7.342
13433SOL     OW58985   8.893   5.019   7.415
13433SOL    HW158986   8.990   4.999   7.407
13433SOL    HW258987   8.864   5.004   7.510
13434SOL     OW58988   7.041   7.358   1.008
13434SOL    HW158989   7.010   7.452   1.017
13434SOL    HW258990   7.130   7.355   0.964
13435SOL     OW58991   4.496   0.302   1.696
13435SOL    HW158992   4.489   0.244   1.777
13435SOL    HW258993   4.421   0.280   1.633
13436SOL     OW58994   2.326   4.296   0.717
13436SOL    HW158995   2.255   4.230   0.691
13436SOL    HW258996   2.295   4.349   0.796
13437SOL     OW58997   1.752   7.412   0.942
13437SOL    HW158998   1.720   7.346   1.010
13437SOL    HW258999   1.838   7.453   0.973
13438SOL     OW59000   2.863   3.842   1.397
13438SOL    HW159001   2.801   3.906   1.353
13438SOL    HW259002   2.844   3.839   1.495
13439SOL     OW59003   8.311   4.831   6.861
13439SOL    HW159004   8.276   4.853   6.770
13439SOL    HW259005   8.332   4.733   6.865
13440SOL     OW59006   5.149   9.459   1.284
13440SOL    HW159007   5.137   9.558   1.274
13440SOL    HW259008   5.131   9.414   1.197
13441SOL     OW59009   3.917   4.858   8.034
13441SOL    HW159010   3.825   4.846   8.071
13441SOL    HW259011   3.958   4.941   8.073
13442SOL     OW59012   7.150   1.346   7.040
13442SOL    HW159013   7.153   1.362   6.942
13442SOL    HW259014   7.229   1.389   7.084
13443SOL     OW59015   7.471   9.698   0.277
13443SOL    HW159016   7.509   9.659   0.193
13443SOL    HW259017   7.443   9.792   0.260
13444SOL     OW59018   8.943   9.250   7.675
13444SOL    HW159019   9.041   9.237   7.690
13444SOL    HW259020   8.899   9.161   7.661
13445SOL     OW59021   6.832   1.759   0.421
13445SOL    HW159022   6.885   1.820   0.362
13445SOL    HW259023   6.735   1.783   0.416
13446SOL     OW59024   2.343   0.785   7.032
13446SOL    HW159025   2.277   0.728   6.982
13446SOL    HW259026   2.317   0.882   7.023
13447SOL     OW59027   6.453   5.366   8.009
13447SOL    HW159028   6.407   5.287   8.051
13447SOL    HW259029   6.384   5.426   7.968
13448SOL     OW59030   7.364   2.330   0.798
13448SOL    HW159031   7.451   2.281   0.788
13448SOL    HW259032   7.381   2.429   0.792
13449SOL     OW59033   3.459   3.918   6.071
13449SOL    HW159034   3.538   3.860   6.095
13449SOL    HW259035   3.460   3.935   5.972
13450SOL     OW59036   9.956   1.650   7.203
13450SOL    HW159037   9.964   1.561   7.248
13450SOL    HW259038   9.884   1.703   7.247
13451SOL     OW59039   8.271   2.764   6.951
13451SOL    HW159040   8.265   2.788   7.048
13451SOL    HW259041   8.192   2.709   6.924
13452SOL     OW59042   4.189   8.031   0.844
13452SOL    HW159043   4.224   7.981   0.922
13452SOL    HW259044   4.247   8.015   0.764
13453SOL     OW59045   5.187   3.791   8.141
13453SOL    HW159046   5.191   3.714   8.205
13453SOL    HW259047   5.123   3.859   8.176
13454SOL     OW59048   8.903   9.933   0.871
13454SOL    HW159049   8.881  10.011   0.813
13454SOL    HW259050   8.884   9.848   0.823
13455SOL     OW59051   5.540   4.245   1.317
13455SOL    HW159052   5.624   4.267   1.367
13455SOL    HW259053   5.463   4.296   1.356
13456SOL     OW59054   4.997   7.295   1.226
13456SOL    HW159055   4.898   7.290   1.217
13456SOL    HW259056   5.040   7.239   1.155
13457SOL     OW59057   0.060   7.217   8.123
13457SOL    HW159058   0.098   7.161   8.048
13457SOL    HW259059   0.018   7.299   8.085
13458SOL     OW59060   7.420  10.306   6.888
13458SOL    HW159061   7.494  10.351   6.938
13458SOL    HW259062   7.355  10.267   6.953
13459SOL     OW59063   8.642   8.714   7.052
13459SOL    HW159064   8.550   8.705   7.013
13459SOL    HW259065   8.710   8.681   6.986
13460SOL     OW59066   2.928   7.764   7.116
13460SOL    HW159067   2.919   7.700   7.192
13460SOL    HW259068   2.937   7.714   7.030
13461SOL     OW59069   5.381   4.263   7.027
13461SOL    HW159070   5.307   4.196   7.022
13461SOL    HW259071   5.342   4.355   7.029
13462SOL     OW59072   8.414   5.588   8.607
13462SOL    HW159073   8.500   5.637   8.592
13462SOL    HW259074   8.348   5.614   8.536
13463SOL     OW59075   8.104   8.727   0.577
13463SOL    HW159076   8.049   8.651   0.541
13463SOL    HW259077   8.098   8.728   0.676
13464SOL     OW59078   5.545   8.476   8.751
13464SOL    HW159079   5.609   8.478   0.046
13464SOL    HW259080   5.458   8.517   8.779
13465SOL     OW59081   6.653   4.334   1.462
13465SOL    HW159082   6.736   4.279   1.465
13465SOL    HW259083   6.599   4.310   1.381
13466SOL     OW59084   1.905   2.575   7.731
13466SOL    HW159085   1.806   2.567   7.743
13466SOL    HW259086   1.933   2.670   7.745
13467SOL     OW59087   6.186   8.152   7.664
13467SOL    HW159088   6.268   8.094   7.665
13467SOL    HW259089   6.141   8.144   7.575
13468SOL     OW59090   7.068   2.817   8.362
13468SOL    HW159091   7.088   2.738   8.305
13468SOL    HW259092   6.971   2.840   8.355
13469SOL     OW59093   8.812   6.374   7.707
13469SOL    HW159094   8.799   6.281   7.742
13469SOL    HW259095   8.844   6.371   7.613
13470SOL     OW59096   0.536   1.254   0.511
13470SOL    HW159097   0.553   1.161   0.477
13470SOL    HW259098   0.460   1.294   0.460
13471SOL     OW59099   2.386   8.484   1.650
13471SOL    HW159100   2.400   8.550   1.576
13471SOL    HW259101   2.450   8.504   1.725
13472SOL     OW59102   7.905   8.584   8.237
13472SOL    HW159103   7.888   8.487   8.221
13472SOL    HW259104   7.969   8.594   8.313
13473SOL     OW59105   6.154   7.692   7.647
13473SOL    HW159106   6.137   7.604   7.602
13473SOL    HW259107   6.157   7.764   7.578
13474SOL     OW59108   4.541   8.597   1.833
13474SOL    HW159109   4.501   8.546   1.756
13474SOL    HW259110   4.641   8.594   1.826
13475SOL     OW59111   3.713   4.119   7.444
13475SOL    HW159112   3.712   4.033   7.495
13475SOL    HW259113   3.795   4.170   7.467
13476SOL     OW59114   9.605   3.626   7.881
13476SOL    HW159115   9.630   3.710   7.929
13476SOL    HW259116   9.594   3.552   7.947
13477SOL     OW59117   3.649   1.331   7.711
13477SOL    HW159118   3.603   1.396   7.651
13477SOL    HW259119   3.747   1.352   7.713
13478SOL     OW59120   0.808   9.812   8.299
13478SOL    HW159121   0.789   9.896   8.248
13478SOL    HW259122   0.895   9.821   8.347
13479SOL     OW59123   7.851   6.739   0.386
13479SOL    HW159124   7.856   6.668   0.456
13479SOL    HW259125   7.910   6.715   0.309
13480SOL     OW59126   1.004   9.681   6.923
13480SOL    HW159127   0.941   9.627   6.979
13480SOL    HW259128   0.952   9.730   6.853
13481SOL     OW59129   2.218   3.125   7.084
13481SOL    HW159130   2.289   3.180   7.039
13481SOL    HW259131   2.162   3.081   7.015
13482SOL     OW59132   1.875   2.041   0.294
13482SOL    HW159133   1.784   2.035   0.335
13482SOL    HW259134   1.875   2.113   0.224
13483SOL     OW59135   3.984   6.518   0.108
13483SOL    HW159136   4.009   6.557   0.197
13483SOL    HW259137   4.008   6.421   0.106
13484SOL     OW59138   5.792   3.085   1.990
13484SOL    HW159139   5.771   3.109   2.085
13484SOL    HW259140   5.837   2.996   1.987
13485SOL     OW59141  10.062   4.717   1.323
13485SOL    HW159142  10.101   4.684   1.238
13485SOL    HW259143  10.059   4.643   1.390
13486SOL     OW59144   7.227   0.166   8.178
13486SOL    HW159145   7.309   0.218   8.204
13486SOL    HW259146   7.256   0.081   8.134
13487SOL     OW59147   3.504   9.016   0.729
13487SOL    HW159148   3.461   8.930   0.754
13487SOL    HW259149   3.514   9.074   0.810
13488SOL     OW59150   9.907   8.088   7.442
13488SOL    HW159151   9.942   8.151   7.512
13488SOL    HW259152   9.860   8.012   7.487
13489SOL     OW59153   5.968   7.681   8.287
13489SOL    HW159154   5.960   7.636   8.376
13489SOL    HW259155   5.896   7.648   8.226
13490SOL     OW59156   7.589   0.005   1.479
13490SOL    HW159157   7.563  10.437   1.413
13490SOL    HW259158   7.672  10.479   1.527
13491SOL     OW59159   6.617   5.521   1.534
13491SOL    HW159160   6.525   5.499   1.566
13491SOL    HW259161   6.644   5.456   1.463
13492SOL     OW59162   2.989   7.422   7.714
13492SOL    HW159163   2.967   7.390   7.806
13492SOL    HW259164   3.085   7.449   7.710
13493SOL     OW59165   4.450   3.431   8.639
13493SOL    HW159166   4.439   3.346   8.586
13493SOL    HW259167   4.492   3.501   8.581
13494SOL     OW59168   3.424   9.639   0.367
13494SOL    HW159169   3.356   9.572   0.338
13494SOL    HW259170   3.459   9.688   0.288
13495SOL     OW59171   7.050   8.814   0.465
13495SOL    HW159172   7.133   8.762   0.487
13495SOL    HW259173   7.076   8.906   0.435
13496SOL     OW59174   8.309   0.767   7.277
13496SOL    HW159175   8.299   0.738   7.372
13496SOL    HW259176   8.361   0.853   7.275
13497SOL     OW59177   1.165   5.451   0.796
13497SOL    HW159178   1.086   5.406   0.837
13497SOL    HW259179   1.144   5.548   0.783
13498SOL     OW59180   1.466  10.348   0.309
13498SOL    HW159181   1.444  10.423   0.372
13498SOL    HW259182   1.545  10.298   0.343
13499SOL     OW59183   8.933   1.948   7.355
13499SOL    HW159184   8.958   2.045   7.360
13499SOL    HW259185   8.911   1.924   7.261
13500SOL     OW59186   3.372   7.893   0.923
13500SOL    HW159187   3.372   7.893   0.823
13500SOL    HW259188   3.442   7.831   0.957
13501SOL     OW59189   8.458  10.168   7.284
13501SOL    HW159190   8.385  10.127   7.338
13501SOL    HW259191   8.419  10.228   7.214
13502SOL     OW59192   7.667   4.640   0.248
13502SOL    HW159193   7.718   4.555   0.257
13502SOL    HW259194   7.674   4.674   0.154
13503SOL     OW59195   8.879   3.552   8.437
13503SOL    HW159196   8.930   3.613   8.377
13503SOL    HW259197   8.827   3.486   8.383
13504SOL     OW59198   3.113   9.777   2.079
13504SOL    HW159199   3.134   9.875   2.079
13504SOL    HW259200   3.179   9.728   2.135
13505SOL     OW59201   7.414   5.422   7.009
13505SOL    HW159202   7.379   5.390   7.097
13505SOL    HW259203   7.430   5.343   6.949
13506SOL     OW59204   2.277   1.782   8.270
13506SOL    HW159205   2.362   1.760   8.318
13506SOL    HW259206   2.269   1.881   8.258
13507SOL     OW59207   1.580   3.867   8.157
13507SOL    HW159208   1.641   3.941   8.128
13507SOL    HW259209   1.496   3.906   8.194
13508SOL     OW59210   1.518   0.561   6.800
13508SOL    HW159211   1.521   0.641   6.860
13508SOL    HW259212   1.490   0.590   6.708
13509SOL     OW59213   2.402   0.063   0.425
13509SOL    HW159214   2.489   0.026   0.394
13509SOL    HW259215   2.331   0.044   0.356
13510SOL     OW59216   7.539   3.044   6.817
13510SOL    HW159217   7.483   3.067   6.737
13510SOL    HW259218   7.575   2.952   6.807
13511SOL     OW59219   4.033   1.253   0.842
13511SOL    HW159220   4.012   1.225   0.935
13511SOL    HW259221   3.949   1.261   0.788
13512SOL     OW59222   3.231   0.001   0.965
13512SOL    HW159223   3.136   0.032   0.963
13512SOL    HW259224   3.291   0.081   0.975
13513SOL     OW59225   8.679   4.288   1.623
13513SOL    HW159226   8.689   4.246   1.532
13513SOL    HW259227   8.770   4.305   1.661
13514SOL     OW59228  10.013   7.487   7.440
13514SOL    HW159229   9.999   7.405   7.496
13514SOL    HW259230   9.938   7.551   7.456
13515SOL     OW59231   2.188   1.941   7.297
13515SOL    HW159232   2.089   1.957   7.302
13515SOL    HW259233   2.210   1.854   7.341
13516SOL     OW59234   8.347   4.909   0.044
13516SOL    HW159235   8.415   4.900   8.754
13516SOL    HW259236   8.341   5.005   0.073
13517SOL     OW59237   9.660   9.973   1.801
13517SOL    HW159238   9.722   9.950   1.876
13517SOL    HW259239   9.690   9.927   1.717
13518SOL     OW59240   2.081   7.421   1.503
13518SOL    HW159241   2.106   7.477   1.581
13518SOL    HW259242   2.003   7.363   1.527
13519SOL     OW59243   7.006   2.612   7.817
13519SOL    HW159244   6.991   2.516   7.839
13519SOL    HW259245   7.104   2.629   7.806
13520SOL     OW59246   2.598   4.469   6.663
13520SOL    HW159247   2.532   4.403   6.628
13520SOL    HW259248   2.574   4.495   6.757
13521SOL     OW59249   0.975   7.282   0.396
13521SOL    HW159250   0.881   7.316   0.391
13521SOL    HW259251   1.023   7.329   0.471
13522SOL     OW59252   2.062   0.049   7.927
13522SOL    HW159253   1.981   0.034   7.984
13522SOL    HW259254   2.054   0.136   7.879
13523SOL     OW59255   2.265   1.044   6.988
13523SOL    HW159256   2.166   1.054   6.988
13523SOL    HW259257   2.304   1.089   6.908
13524SOL     OW59258   1.080   1.469   7.476
13524SOL    HW159259   1.065   1.401   7.404
13524SOL    HW259260   1.177   1.490   7.483
13525SOL     OW59261   0.300   3.072   7.001
13525SOL    HW159262   0.200   3.065   6.999
13525SOL    HW259263   0.328   3.154   6.950
13526SOL     OW59264   4.484   3.663   6.025
13526SOL    HW159265   4.536   3.668   5.940
13526SOL    HW259266   4.426   3.582   6.024
13527SOL     OW59267   1.580   5.519   6.619
13527SOL    HW159268   1.669   5.473   6.616
13527SOL    HW259269   1.591   5.608   6.664
13528SOL     OW59270   8.211   6.876   0.527
13528SOL    HW159271   8.285   6.916   0.580
13528SOL    HW259272   8.242   6.790   0.486
13529SOL     OW59273   1.378   0.439   0.674
13529SOL    HW159274   1.330   0.494   0.606
13529SOL    HW259275   1.476   0.435   0.651
13530SOL     OW59276   5.217   1.840   7.152
13530SOL    HW159277   5.199   1.935   7.178
13530SOL    HW259278   5.183   1.779   7.223
13531SOL     OW59279   5.135   5.950   7.575
13531SOL    HW159280   5.226   5.928   7.540
13531SOL    HW259281   5.066   5.915   7.511
13532SOL     OW59282   5.293  10.000   1.649
13532SOL    HW159283   5.264   9.945   1.728
13532SOL    HW259284   5.392  10.009   1.649
13533SOL     OW59285   5.368   8.111   0.676
13533SOL    HW159286   5.335   8.204   0.693
13533SOL    HW259287   5.292   8.054   0.644
13534SOL     OW59288   3.149   1.663   8.000
13534SOL    HW159289   3.183   1.757   8.003
13534SOL    HW259290   3.226   1.599   8.008
13535SOL     OW59291   6.619   8.911   0.243
13535SOL    HW159292   6.640   9.008   0.237
13535SOL    HW259293   6.603   8.874   0.151
13536SOL     OW59294   1.551  10.019   8.431
13536SOL    HW159295   1.561  10.110   8.472
13536SOL    HW259296   1.573  10.024   8.334
13537SOL     OW59297   3.225   7.332   0.363
13537SOL    HW159298   3.314   7.301   0.328
13537SOL    HW259299   3.206   7.287   0.450
13538SOL     OW59300  10.156   2.126   7.738
13538SOL    HW159301   0.021   2.051   7.800
13538SOL    HW259302   0.047   2.114   7.651
13539SOL     OW59303   2.992   6.647   1.843
13539SOL    HW159304   3.041   6.709   1.781
13539SOL    HW259305   3.052   6.621   1.919
13540SOL     OW59306   0.632   8.390   1.596
13540SOL    HW159307   0.710   8.384   1.534
13540SOL    HW259308   0.565   8.454   1.559
13541SOL     OW59309   7.081  10.107   7.865
13541SOL    HW159310   7.073  10.179   7.796
13541SOL    HW259311   7.137  10.033   7.829
13542SOL     OW59312   4.750   2.819   8.250
13542SOL    HW159313   4.673   2.825   8.313
13542SOL    HW259314   4.773   2.723   8.234
13543SOL     OW59315   3.144   9.183   8.047
13543SOL    HW159316   3.176   9.185   8.142
13543SOL    HW259317   3.193   9.111   7.997
13544SOL     OW59318   2.509   1.161   0.734
13544SOL    HW159319   2.495   1.076   0.785
13544SOL    HW259320   2.557   1.142   0.649
13545SOL     OW59321   5.979   9.114   8.376
13545SOL    HW159322   6.003   9.019   8.396
13545SOL    HW259323   6.007   9.172   8.453
13546SOL     OW59324   1.677   8.512   1.686
13546SOL    HW159325   1.710   8.520   1.780
13546SOL    HW259326   1.591   8.561   1.677
13547SOL     OW59327   2.052   5.248   6.528
13547SOL    HW159328   2.093   5.285   6.445
13547SOL    HW259329   2.082   5.301   6.607
13548SOL     OW59330   4.699   2.110   1.644
13548SOL    HW159331   4.683   2.201   1.605
13548SOL    HW259332   4.741   2.119   1.734
13549SOL     OW59333   9.510  10.312   0.395
13549SOL    HW159334   9.439  10.319   0.465
13549SOL    HW259335   9.562  10.398   0.392
13550SOL     OW59336   0.091   8.983   7.020
13550SOL    HW159337   0.049   8.979   6.930
13550SOL    HW259338   0.160   8.910   7.028
13551SOL     OW59339   2.444   8.603   0.701
13551SOL    HW159340   2.525   8.622   0.756
13551SOL    HW259341   2.390   8.531   0.745
13552SOL     OW59342   2.147   6.776   8.247
13552SOL    HW159343   2.172   6.847   8.182
13552SOL    HW259344   2.155   6.811   8.341
13553SOL     OW59345   2.397   4.380   0.461
13553SOL    HW159346   2.340   4.460   0.446
13553SOL    HW259347   2.379   4.342   0.552
13554SOL     OW59348   5.522   4.816   8.058
13554SOL    HW159349   5.490   4.818   8.152
13554SOL    HW259350   5.618   4.787   8.055
13555SOL     OW59351   1.595  10.119   8.169
13555SOL    HW159352   1.640  10.076   8.091
13555SOL    HW259353   1.506  10.154   8.142
13556SOL     OW59354   2.504   0.164   0.847
13556SOL    HW159355   2.527   0.261   0.835
13556SOL    HW259356   2.589   0.111   0.856
13557SOL     OW59357   8.479   7.700   7.427
13557SOL    HW159358   8.471   7.772   7.496
13557SOL    HW259359   8.396   7.644   7.426
13558SOL     OW59360   3.080   7.884   6.696
13558SOL    HW159361   3.079   7.982   6.716
13558SOL    HW259362   3.156   7.840   6.744
13559SOL     OW59363   9.509   3.279   1.135
13559SOL    HW159364   9.541   3.374   1.133
13559SOL    HW259365   9.585   3.218   1.112
13560SOL     OW59366   1.378   0.577   0.105
13560SOL    HW159367   1.441   0.561   0.181
13560SOL    HW259368   1.344   0.671   0.108
13561SOL     OW59369   3.438   1.756   8.497
13561SOL    HW159370   3.522   1.770   8.445
13561SOL    HW259371   3.446   1.674   8.552
13562SOL     OW59372   2.713   8.867   2.220
13562SOL    HW159373   2.689   8.775   2.251
13562SOL    HW259374   2.700   8.874   2.122
13563SOL     OW59375   2.449   4.202   7.133
13563SOL    HW159376   2.390   4.146   7.074
13563SOL    HW259377   2.417   4.194   7.228
13564SOL     OW59378   0.919  10.041   6.889
13564SOL    HW159379   0.925   9.961   6.829
13564SOL    HW259380   1.004  10.093   6.884
13565SOL     OW59381   3.996   1.654   7.958
13565SOL    HW159382   3.914   1.614   7.998
13565SOL    HW259383   3.982   1.669   7.861
13566SOL     OW59384   2.354   4.470   7.518
13566SOL    HW159385   2.402   4.552   7.487
13566SOL    HW259386   2.265   4.495   7.556
13567SOL     OW59387   9.198   9.451   0.008
13567SOL    HW159388   9.199   9.462   8.690
13567SOL    HW259389   9.276   9.395   0.036
13568SOL     OW59390   2.383   3.326   0.132
13568SOL    HW159391   2.393   3.419   0.095
13568SOL    HW259392   2.472   3.280   0.132
13569SOL     OW59393   4.702   6.199   0.246
13569SOL    HW159394   4.672   6.261   0.174
13569SOL    HW259395   4.623   6.155   0.288
13570SOL     OW59396   4.150   6.755   7.189
13570SOL    HW159397   4.102   6.791   7.270
13570SOL    HW259398   4.086   6.702   7.134
13571SOL     OW59399   8.378   1.488   2.120
13571SOL    HW159400   8.393   1.490   2.021
13571SOL    HW259401   8.338   1.400   2.145
13572SOL     OW59402   6.513   9.365   7.064
13572SOL    HW159403   6.571   9.284   7.055
13572SOL    HW259404   6.563   9.437   7.111
13573SOL     OW59405   8.480   0.266   0.756
13573SOL    HW159406   8.397   0.321   0.745
13573SOL    HW259407   8.529   0.295   0.838
13574SOL     OW59408   7.005   8.000   1.613
13574SOL    HW159409   6.993   7.936   1.537
13574SOL    HW259410   6.951   7.969   1.691
13575SOL     OW59411   8.574   7.717   8.742
13575SOL    HW159412   8.560   7.760   0.049
13575SOL    HW259413   8.519   7.634   8.736
13576SOL     OW59414   3.675   1.982   7.556
13576SOL    HW159415   3.689   1.895   7.508
13576SOL    HW259416   3.603   2.034   7.511
13577SOL     OW59417   4.367   4.961   1.087
13577SOL    HW159418   4.277   4.923   1.107
13577SOL    HW259419   4.416   4.901   1.024
13578SOL     OW59420   3.172   1.919   0.437
13578SOL    HW159421   3.261   1.942   0.396
13578SOL    HW259422   3.152   1.822   0.420
13579SOL     OW59423   0.496   5.062   1.145
13579SOL    HW159424   0.589   5.097   1.158
13579SOL    HW259425   0.434   5.139   1.130
13580SOL     OW59426   6.891   6.664   1.369
13580SOL    HW159427   6.871   6.689   1.464
13580SOL    HW259428   6.807   6.670   1.314
13581SOL     OW59429   8.965   4.006   1.316
13581SOL    HW159430   8.951   3.908   1.324
13581SOL    HW259431   9.040   4.024   1.252
13582SOL     OW59432   9.603   4.785   1.119
13582SOL    HW159433   9.697   4.798   1.150
13582SOL    HW259434   9.541   4.840   1.176
13583SOL     OW59435   0.011   4.378   6.422
13583SOL    HW159436   0.096   4.367   6.372
13583SOL    HW259437   0.029   4.419   6.511
13584SOL     OW59438   3.305   0.083   6.227
13584SOL    HW159439   3.401   0.101   6.204
13584SOL    HW259440   3.250   0.088   6.143
13585SOL     OW59441   4.909   9.173   8.045
13585SOL    HW159442   4.983   9.126   7.997
13585SOL    HW259443   4.927   9.173   8.143
13586SOL     OW59444   3.770   4.103   8.102
13586SOL    HW159445   3.765   4.073   8.007
13586SOL    HW259446   3.850   4.162   8.114
13587SOL     OW59447   4.047   8.874   6.857
13587SOL    HW159448   3.957   8.867   6.814
13587SOL    HW259449   4.047   8.825   6.944
13588SOL     OW59450   5.754   5.263   8.411
13588SOL    HW159451   5.718   5.297   8.498
13588SOL    HW259452   5.850   5.290   8.403
13589SOL     OW59453   0.441   2.502   7.491
13589SOL    HW159454   0.407   2.554   7.569
13589SOL    HW259455   0.466   2.565   7.418
13590SOL     OW59456   3.288   9.666   2.253
13590SOL    HW159457   3.329   9.730   2.319
13590SOL    HW259458   3.304   9.572   2.283
13591SOL     OW59459   0.194   4.784   7.353
13591SOL    HW159460   0.261   4.726   7.306
13591SOL    HW259461   0.105   4.738   7.353
13592SOL     OW59462   5.315   6.544   8.241
13592SOL    HW159463   5.408   6.519   8.269
13592SOL    HW259464   5.291   6.496   8.157
13593SOL     OW59465   3.683   3.552   0.372
13593SOL    HW159466   3.675   3.474   0.434
13593SOL    HW259467   3.756   3.613   0.404
13594SOL     OW59468   1.962   2.926   8.119
13594SOL    HW159469   1.878   2.979   8.123
13594SOL    HW259470   2.024   2.965   8.052
13595SOL     OW59471  10.124   1.955   0.731
13595SOL    HW159472  10.059   2.015   0.686
13595SOL    HW259473  10.119   1.970   0.830
13596SOL     OW59474   2.911   0.670   8.284
13596SOL    HW159475   2.975   0.746   8.270
13596SOL    HW259476   2.832   0.682   8.224
13597SOL     OW59477   1.579   6.804   8.667
13597SOL    HW159478   1.607   6.898   8.647
13597SOL    HW259479   1.480   6.795   8.654
13598SOL     OW59480   4.742   7.454   0.851
13598SOL    HW159481   4.710   7.360   0.863
13598SOL    HW259482   4.745   7.499   0.940
13599SOL     OW59483   1.545   3.186   0.588
13599SOL    HW159484   1.529   3.181   0.686
13599SOL    HW259485   1.594   3.271   0.566
13600SOL     OW59486   4.622  10.185   1.413
13600SOL    HW159487   4.604  10.280   1.437
13600SOL    HW259488   4.678  10.143   1.484
13601SOL     OW59489   6.657   6.945   1.501
13601SOL    HW159490   6.744   6.910   1.535
13601SOL    HW259491   6.625   7.019   1.559
13602SOL     OW59492   7.492   7.395   8.160
13602SOL    HW159493   7.564   7.453   8.121
13602SOL    HW259494   7.433   7.361   8.087
13603SOL     OW59495   7.808   0.699   2.290
13603SOL    HW159496   7.858   0.679   2.375
13603SOL    HW259497   7.717   0.734   2.312
13604SOL     OW59498   2.621   1.230   1.565
13604SOL    HW159499   2.576   1.309   1.524
13604SOL    HW259500   2.569   1.201   1.646
13605SOL     OW59501   1.741   2.809   1.699
13605SOL    HW159502   1.766   2.904   1.718
13605SOL    HW259503   1.681   2.775   1.771
13606SOL     OW59504   4.053   9.389   8.297
13606SOL    HW159505   4.104   9.456   8.350
13606SOL    HW259506   4.106   9.363   8.216
13607SOL     OW59507   0.908   7.546   2.087
13607SOL    HW159508   0.968   7.480   2.042
13607SOL    HW259509   0.957   7.589   2.163
13608SOL     OW59510   6.475   0.619   1.626
13608SOL    HW159511   6.459   0.701   1.680
13608SOL    HW259512   6.456   0.639   1.530
13609SOL     OW59513   8.907   4.350   8.380
13609SOL    HW159514   8.811   4.322   8.375
13609SOL    HW259515   8.925   4.420   8.310
13610SOL     OW59516   7.378   7.863   1.216
13610SOL    HW159517   7.416   7.955   1.205
13610SOL    HW259518   7.444   7.795   1.185
13611SOL     OW59519   7.133   6.268   7.148
13611SOL    HW159520   7.211   6.258   7.210
13611SOL    HW259521   7.163   6.250   7.054
13612SOL     OW59522   7.032  10.139   0.326
13612SOL    HW159523   7.021  10.142   0.425
13612SOL    HW259524   7.119  10.095   0.303
13613SOL     OW59525   3.577   8.584   8.126
13613SOL    HW159526   3.669   8.564   8.158
13613SOL    HW259527   3.526   8.634   8.196
13614SOL     OW59528   5.753   0.040   7.770
13614SOL    HW159529   5.746   0.047   7.870
13614SOL    HW259530   5.825   0.101   7.737
13615SOL     OW59531   1.001   2.765   7.726
13615SOL    HW159532   0.924   2.728   7.674
13615SOL    HW259533   0.978   2.857   7.758
13616SOL     OW59534   5.537   7.490   7.297
13616SOL    HW159535   5.597   7.529   7.227
13616SOL    HW259536   5.499   7.563   7.353
13617SOL     OW59537   4.810   5.600   0.180
13617SOL    HW159538   4.748   5.669   0.216
13617SOL    HW259539   4.764   5.512   0.176
13618SOL     OW59540   8.627   7.831   7.225
13618SOL    HW159541   8.573   7.782   7.292
13618SOL    HW259542   8.660   7.767   7.156
13619SOL     OW59543   8.228   1.330   7.684
13619SOL    HW159544   8.281   1.365   7.606
13619SOL    HW259545   8.201   1.236   7.666
13620SOL     OW59546   2.592   5.093   0.171
13620SOL    HW159547   2.496   5.067   0.163
13620SOL    HW259548   2.603   5.189   0.144
13621SOL     OW59549   4.726   9.934   8.170
13621SOL    HW159550   4.719   9.982   8.083
13621SOL    HW259551   4.817   9.948   8.209
13622SOL     OW59552   1.380   1.069   0.015
13622SOL    HW159553   1.369   0.970   0.027
13622SOL    HW259554   1.309   1.117   0.066
13623SOL     OW59555   2.782   6.895   7.521
13623SOL    HW159556   2.742   6.816   7.568
13623SOL    HW259557   2.715   6.934   7.458
13624SOL     OW59558   9.968   1.323   8.576
13624SOL    HW159559  10.021   1.356   8.498
13624SOL    HW259560  10.021   1.336   8.660
13625SOL     OW59561   9.495   6.975   0.483
13625SOL    HW159562   9.578   6.977   0.428
13625SOL    HW259563   9.432   7.046   0.452
13626SOL     OW59564   1.234   5.823   6.930
13626SOL    HW159565   1.269   5.828   6.836
13626SOL    HW259566   1.195   5.732   6.946
13627SOL     OW59567   7.052   9.222   6.534
13627SOL    HW159568   6.980   9.184   6.477
13627SOL    HW259569   7.067   9.162   6.613
13628SOL     OW59570   8.984   3.885   7.391
13628SOL    HW159571   9.082   3.884   7.408
13628SOL    HW259572   8.962   3.818   7.320
13629SOL     OW59573   0.618   5.128   1.518
13629SOL    HW159574   0.547   5.184   1.475
13629SOL    HW259575   0.598   5.118   1.615
13630SOL     OW59576   4.079   8.244   7.126
13630SOL    HW159577   4.104   8.225   7.031
13630SOL    HW259578   4.107   8.167   7.183
13631SOL     OW59579   5.591   5.121   0.775
13631SOL    HW159580   5.545   5.164   0.697
13631SOL    HW259581   5.598   5.187   0.850
13632SOL     OW59582   0.842   9.499   7.066
13632SOL    HW159583   0.751   9.475   7.099
13632SOL    HW259584   0.869   9.437   6.993
13633SOL     OW59585   4.853   0.007   7.028
13633SOL    HW159586   4.774   0.027   6.968
13633SOL    HW259587   4.837  10.423   7.075
13634SOL     OW59588   7.937   1.657   0.722
13634SOL    HW159589   7.870   1.711   0.672
13634SOL    HW259590   8.027   1.700   0.715
13635SOL     OW59591   8.169   9.545   8.433
13635SOL    HW159592   8.192   9.478   8.503
13635SOL    HW259593   8.253   9.584   8.395
13636SOL     OW59594   4.862   5.078   1.784
13636SOL    HW159595   4.937   5.134   1.819
13636SOL    HW259596   4.835   5.011   1.854
13637SOL     OW59597   3.063   2.629   7.580
13637SOL    HW159598   3.138   2.592   7.634
13637SOL    HW259599   2.976   2.590   7.612
13638SOL     OW59600   0.191   8.726   8.618
13638SOL    HW159601   0.220   8.703   8.525
13638SOL    HW259602   0.202   8.824   8.633
13639SOL     OW59603   3.608   2.348   6.774
13639SOL    HW159604   3.699   2.315   6.751
13639SOL    HW259605   3.600   2.445   6.752
13640SOL     OW59606   2.209   0.771   1.705
13640SOL    HW159607   2.203   0.676   1.737
13640SOL    HW259608   2.148   0.828   1.760
13641SOL     OW59609   7.159   7.687   1.265
13641SOL    HW159610   7.243   7.742   1.259
13641SOL    HW259611   7.178   7.603   1.316
13642SOL     OW59612   3.600   3.108   0.794
13642SOL    HW159613   3.661   3.104   0.873
13642SOL    HW259614   3.646   3.070   0.714
13643SOL     OW59615   4.972   0.612   1.025
13643SOL    HW159616   5.045   0.648   0.967
13643SOL    HW259617   4.933   0.530   0.983
13644SOL     OW59618   7.351   3.968   7.674
13644SOL    HW159619   7.430   4.007   7.626
13644SOL    HW259620   7.362   3.982   7.772
13645SOL     OW59621   0.353   9.804   6.425
13645SOL    HW159622   0.420   9.763   6.363
13645SOL    HW259623   0.274   9.835   6.372
13646SOL     OW59624   6.091   2.516   1.206
13646SOL    HW159625   5.995   2.505   1.232
13646SOL    HW259626   6.097   2.579   1.129
13647SOL     OW59627   6.699   4.998   8.031
13647SOL    HW159628   6.630   5.043   7.972
13647SOL    HW259629   6.768   4.954   7.973
13648SOL     OW59630   8.473   8.415   6.952
13648SOL    HW159631   8.445   8.511   6.948
13648SOL    HW259632   8.503   8.385   6.861
13649SOL     OW59633   6.856   2.313   0.020
13649SOL    HW159634   6.833   2.219   0.047
13649SOL    HW259635   6.832   2.376   0.093
13650SOL     OW59636   8.404   8.160   1.960
13650SOL    HW159637   8.336   8.181   2.031
13650SOL    HW259638   8.360   8.113   1.884
13651SOL     OW59639   4.339   2.700   7.946
13651SOL    HW159640   4.433   2.683   7.976
13651SOL    HW259641   4.292   2.756   8.015
13652SOL     OW59642   5.477   1.421   1.894
13652SOL    HW159643   5.552   1.480   1.867
13652SOL    HW259644   5.513   1.337   1.935
13653SOL     OW59645  10.097  10.026   1.345
13653SOL    HW159646  10.041   9.953   1.384
13653SOL    HW259647   0.026   9.988   1.311
13654SOL     OW59648   9.999   0.668   0.337
13654SOL    HW159649   9.972   0.765   0.339
13654SOL    HW259650   9.919   0.611   0.324
13655SOL     OW59651   6.973  10.001   7.578
13655SOL    HW159652   7.059   9.983   7.626
13655SOL    HW259653   6.956   9.927   7.512
13656SOL     OW59654   7.439   4.845   0.070
13656SOL    HW159655   7.359   4.792   0.097
13656SOL    HW259656   7.476   4.893   0.150
13657SOL     OW59657   3.973   8.898   0.874
13657SOL    HW159658   4.058   8.925   0.920
13657SOL    HW259659   3.909   8.975   0.873
13658SOL     OW59660   9.150   9.144   0.528
13658SOL    HW159661   9.085   9.090   0.582
13658SOL    HW259662   9.133   9.127   0.431
13659SOL     OW59663   4.704   2.377   1.573
13659SOL    HW159664   4.796   2.404   1.544
13659SOL    HW259665   4.637   2.435   1.526
13660SOL     OW59666   7.204   3.398   6.514
13660SOL    HW159667   7.161   3.487   6.530
13660SOL    HW259668   7.227   3.389   6.417
13661SOL     OW59669   9.177   8.915   6.625
13661SOL    HW159670   9.226   8.857   6.560
13661SOL    HW259671   9.116   8.977   6.576
13662SOL     OW59672   0.558  10.325   8.781
13662SOL    HW159673   0.471  10.283   8.756
13662SOL    HW259674   0.577  10.307   0.096
13663SOL     OW59675   7.558   7.480   7.412
13663SOL    HW159676   7.655   7.473   7.434
13663SOL    HW259677   7.543   7.447   7.319
13664SOL     OW59678   6.537   4.816   1.268
13664SOL    HW159679   6.485   4.809   1.183
13664SOL    HW259680   6.632   4.792   1.251
13665SOL     OW59681   8.007   5.516   8.529
13665SOL    HW159682   7.932   5.521   8.462
13665SOL    HW259683   8.089   5.557   8.491
13666SOL     OW59684   0.392   0.123   0.511
13666SOL    HW159685   0.294   0.117   0.496
13666SOL    HW259686   0.429   0.200   0.460
13667SOL     OW59687   0.329   1.838   1.151
13667SOL    HW159688   0.300   1.787   1.232
13667SOL    HW259689   0.270   1.918   1.138
13668SOL     OW59690   7.262   5.871   6.998
13668SOL    HW159691   7.247   5.772   7.004
13668SOL    HW259692   7.288   5.895   6.904
13669SOL     OW59693   0.433   8.842   1.352
13669SOL    HW159694   0.435   8.874   1.447
13669SOL    HW259695   0.518   8.868   1.306
13670SOL     OW59696   4.332   5.444   7.808
13670SOL    HW159697   4.415   5.454   7.754
13670SOL    HW259698   4.254   5.481   7.756
13671SOL     OW59699   6.925   9.145   7.373
13671SOL    HW159700   6.925   9.228   7.317
13671SOL    HW259701   6.957   9.068   7.318
13672SOL     OW59702   4.567   4.887   2.142
13672SOL    HW159703   4.527   4.796   2.147
13672SOL    HW259704   4.540   4.940   2.223
13673SOL     OW59705   0.242   0.722   8.226
13673SOL    HW159706   0.320   0.717   8.288
13673SOL    HW259707   0.231   0.816   8.194
13674SOL     OW59708   8.782   3.535   1.242
13674SOL    HW159709   8.830   3.448   1.253
13674SOL    HW259710   8.717   3.548   1.316
13675SOL     OW59711   4.313   9.445   6.626
13675SOL    HW159712   4.339   9.348   6.623
13675SOL    HW259713   4.288   9.470   6.719
13676SOL     OW59714   6.768   6.350   7.436
13676SOL    HW159715   6.781   6.448   7.445
13676SOL    HW259716   6.806   6.304   7.516
13677SOL     OW59717   1.928   2.714   0.184
13677SOL    HW159718   1.873   2.778   0.237
13677SOL    HW259719   1.996   2.672   0.243
13678SOL     OW59720   4.847   1.409   1.592
13678SOL    HW159721   4.835   1.345   1.667
13678SOL    HW259722   4.934   1.457   1.603
13679SOL     OW59723   6.084   6.525   7.749
13679SOL    HW159724   6.034   6.516   7.663
13679SOL    HW259725   6.142   6.444   7.762
13680SOL     OW59726   8.479   7.897   8.555
13680SOL    HW159727   8.471   7.857   8.464
13680SOL    HW259728   8.513   7.829   8.619
13681SOL     OW59729   1.491   3.358   7.044
13681SOL    HW159730   1.504   3.306   7.128
13681SOL    HW259731   1.452   3.299   6.973
13682SOL     OW59732   9.620   7.701   8.142
13682SOL    HW159733   9.557   7.636   8.099
13682SOL    HW259734   9.642   7.669   8.234
13683SOL     OW59735   3.371   3.793   6.999
13683SOL    HW159736   3.409   3.880   7.030
13683SOL    HW259737   3.376   3.789   6.899
13684SOL     OW59738   5.919   7.594   6.543
13684SOL    HW159739   5.852   7.605   6.470
13684SOL    HW259740   5.951   7.500   6.545
13685SOL     OW59741   9.222   3.630   0.129
13685SOL    HW159742   9.144   3.653   0.188
13685SOL    HW259743   9.251   3.536   0.146
13686SOL     OW59744   3.702   1.709   6.968
13686SOL    HW159745   3.646   1.744   6.892
13686SOL    HW259746   3.700   1.774   7.044
13687SOL     OW59747   2.725  10.386   8.018
13687SOL    HW159748   2.748  10.391   8.116
13687SOL    HW259749   2.769  10.462   7.970
13688SOL     OW59750   1.842   2.122   0.972
13688SOL    HW159751   1.763   2.183   0.971
13688SOL    HW259752   1.844   2.068   0.888
13689SOL     OW59753   5.420   7.640   8.588
13689SOL    HW159754   5.355   7.711   8.562
13689SOL    HW259755   5.448   7.654   8.683
13690SOL     OW59756   9.005   7.415   7.633
13690SOL    HW159757   8.992   7.319   7.607
13690SOL    HW259758   9.093   7.425   7.679
13691SOL     OW59759   3.887   9.191   1.153
13691SOL    HW159760   3.895   9.142   1.240
13691SOL    HW259761   3.810   9.254   1.157
13692SOL     OW59762   5.867   5.690   2.226
13692SOL    HW159763   5.784   5.705   2.280
13692SOL    HW259764   5.947   5.719   2.279
13693SOL     OW59765  10.052   1.828   0.307
13693SOL    HW159766  10.082   1.919   0.281
13693SOL    HW259767  10.088   1.806   0.398
13694SOL     OW59768   0.525   1.984   0.375
13694SOL    HW159769   0.507   1.917   0.447
13694SOL    HW259770   0.460   2.060   0.382
13695SOL     OW59771   6.890   7.433   1.640
13695SOL    HW159772   6.823   7.444   1.713
13695SOL    HW259773   6.866   7.492   1.563
13696SOL     OW59774   4.624   8.733   0.323
13696SOL    HW159775   4.548   8.787   0.359
13696SOL    HW259776   4.610   8.716   0.226
13697SOL     OW59777   0.567   1.133   1.375
13697SOL    HW159778   0.517   1.194   1.314
13697SOL    HW259779   0.559   1.166   1.469
13698SOL     OW59780   0.603   8.886   0.789
13698SOL    HW159781   0.524   8.840   0.749
13698SOL    HW259782   0.632   8.960   0.729
13699SOL     OW59783   7.236   5.015   1.746
13699SOL    HW159784   7.215   5.024   1.843
13699SOL    HW259785   7.305   5.082   1.720
13700SOL     OW59786   1.138   1.099   0.761
13700SOL    HW159787   1.225   1.145   0.778
13700SOL    HW259788   1.065   1.167   0.750
13701SOL     OW59789   7.642   3.341   6.364
13701SOL    HW159790   7.644   3.406   6.288
13701SOL    HW259791   7.563   3.281   6.355
13702SOL     OW59792   8.580   4.862   0.666
13702SOL    HW159793   8.625   4.951   0.655
13702SOL    HW259794   8.485   4.876   0.693
13703SOL     OW59795   8.795   8.367   1.279
13703SOL    HW159796   8.791   8.461   1.243
13703SOL    HW259797   8.887   8.350   1.316
13704SOL     OW59798   9.109   7.749   1.174
13704SOL    HW159799   9.165   7.692   1.113
13704SOL    HW259800   9.163   7.827   1.205
13705SOL     OW59801   1.216   0.362   8.179
13705SOL    HW159802   1.243   0.358   8.276
13705SOL    HW259803   1.239   0.452   8.142
13706SOL     OW59804   0.437  10.311   1.420
13706SOL    HW159805   0.517  10.250   1.418
13706SOL    HW259806   0.376  10.282   1.494
13707SOL     OW59807   9.528   0.108   1.842
13707SOL    HW159808   9.621   0.108   1.879
13707SOL    HW259809   9.471   0.171   1.896
13708SOL     OW59810   9.808   4.323   0.708
13708SOL    HW159811   9.902   4.306   0.737
13708SOL    HW259812   9.807   4.357   0.614
13709SOL     OW59813   1.382   1.671   7.961
13709SOL    HW159814   1.462   1.711   7.917
13709SOL    HW259815   1.405   1.646   8.055
13710SOL     OW59816   1.327   9.419   8.613
13710SOL    HW159817   1.401   9.445   8.675
13710SOL    HW259818   1.350   9.333   8.567
13711SOL     OW59819   8.613   2.129   1.766
13711SOL    HW159820   8.563   2.109   1.850
13711SOL    HW259821   8.616   2.047   1.709
13712SOL     OW59822   8.118   3.952   0.247
13712SOL    HW159823   8.115   4.046   0.283
13712SOL    HW259824   8.061   3.893   0.305
13713SOL     OW59825   5.673   0.943   0.637
13713SOL    HW159826   5.753   0.984   0.593
13713SOL    HW259827   5.644   0.999   0.714
13714SOL     OW59828   7.866   9.125   0.774
13714SOL    HW159829   7.897   9.054   0.838
13714SOL    HW259830   7.862   9.087   0.681
13715SOL     OW59831   2.631   2.184   7.341
13715SOL    HW159832   2.614   2.231   7.255
13715SOL    HW259833   2.693   2.239   7.397
13716SOL     OW59834   2.573   1.463   8.321
13716SOL    HW159835   2.499   1.395   8.325
13716SOL    HW259836   2.536   1.553   8.345
13717SOL     OW59837   7.585   9.286   7.112
13717SOL    HW159838   7.600   9.355   7.041
13717SOL    HW259839   7.627   9.316   7.197
13718SOL     OW59840   9.768   0.038   7.220
13718SOL    HW159841   9.729  10.487   7.145
13718SOL    HW259842   9.866   0.052   7.204
13719SOL     OW59843   4.299   9.464   0.185
13719SOL    HW159844   4.374   9.497   0.127
13719SOL    HW259845   4.245   9.397   0.134
13720SOL     OW59846   8.937   9.423   0.852
13720SOL    HW159847   8.917   9.447   0.947
13720SOL    HW259848   8.855   9.439   0.796
13721SOL     OW59849   3.852   4.943   0.974
13721SOL    HW159850   3.793   5.016   1.008
13721SOL    HW259851   3.796   4.862   0.953
13722SOL     OW59852   8.347   4.564   6.861
13722SOL    HW159853   8.283   4.536   6.789
13722SOL    HW259854   8.338   4.502   6.939
13723SOL     OW59855   0.948   9.896   0.841
13723SOL    HW159856   0.974   9.868   0.933
13723SOL    HW259857   0.855   9.935   0.843
13724SOL     OW59858   5.425   2.483   0.784
13724SOL    HW159859   5.410   2.483   0.882
13724SOL    HW259860   5.351   2.533   0.739
13725SOL     OW59861   2.693   5.969   8.320
13725SOL    HW159862   2.745   5.893   8.358
13725SOL    HW259863   2.664   6.030   8.394
13726SOL     OW59864   2.858   2.517   6.397
13726SOL    HW159865   2.873   2.435   6.453
13726SOL    HW259866   2.847   2.491   6.301
13727SOL     OW59867   5.604   5.818   8.452
13727SOL    HW159868   5.625   5.812   8.354
13727SOL    HW259869   5.663   5.887   8.495
13728SOL     OW59870   9.365  10.251   1.085
13728SOL    HW159871   9.326  10.264   1.176
13728SOL    HW259872   9.352  10.334   1.031
13729SOL     OW59873   1.461   9.499   8.227
13729SOL    HW159874   1.363   9.496   8.205
13729SOL    HW259875   1.479   9.578   8.286
13730SOL     OW59876   4.352   4.482   8.477
13730SOL    HW159877   4.260   4.520   8.490
13730SOL    HW259878   4.364   4.456   8.381
13731SOL     OW59879   7.880   1.355   7.449
13731SOL    HW159880   7.967   1.323   7.413
13731SOL    HW259881   7.808   1.289   7.428
13732SOL     OW59882   4.513   2.957   7.337
13732SOL    HW159883   4.485   2.971   7.432
13732SOL    HW259884   4.469   3.026   7.279
13733SOL     OW59885   8.054   2.661   7.221
13733SOL    HW159886   7.997   2.718   7.162
13733SOL    HW259887   8.142   2.706   7.236
13734SOL     OW59888   3.146   6.622   0.998
13734SOL    HW159889   3.096   6.694   1.047
13734SOL    HW259890   3.164   6.546   1.060
13735SOL     OW59891   4.451   0.728   7.760
13735SOL    HW159892   4.429   0.788   7.683
13735SOL    HW259893   4.550   0.717   7.766
13736SOL     OW59894   2.661   7.312   0.570
13736SOL    HW159895   2.760   7.309   0.584
13736SOL    HW259896   2.616   7.337   0.657
13737SOL     OW59897   9.888   5.704   7.132
13737SOL    HW159898   9.872   5.760   7.213
13737SOL    HW259899   9.801   5.663   7.102
13738SOL     OW59900   5.959   9.827   7.553
13738SOL    HW159901   5.999   9.886   7.482
13738SOL    HW259902   6.029   9.765   7.587
13739SOL     OW59903   5.541   0.006   8.007
13739SOL    HW159904   5.551   0.093   8.056
13739SOL    HW259905   5.612  10.446   8.036
13740SOL     OW59906   7.408   3.565   1.350
13740SOL    HW159907   7.405   3.661   1.379
13740SOL    HW259908   7.474   3.516   1.408
13741SOL     OW59909   6.117   0.675   0.462
13741SOL    HW159910   6.103   0.672   0.363
13741SOL    HW259911   6.215   0.682   0.482
13742SOL     OW59912   3.980   3.021   7.633
13742SOL    HW159913   3.904   3.072   7.672
13742SOL    HW259914   3.946   2.936   7.591
13743SOL     OW59915   4.442  10.016   6.582
13743SOL    HW159916   4.459   9.963   6.499
13743SOL    HW259917   4.349  10.054   6.579
13744SOL     OW59918   3.500   1.514   0.547
13744SOL    HW159919   3.585   1.529   0.598
13744SOL    HW259920   3.521   1.494   0.452
13745SOL     OW59921   1.140   9.263   8.048
13745SOL    HW159922   1.168   9.344   8.099
13745SOL    HW259923   1.213   9.236   7.985
13746SOL     OW59924   9.426   5.571   6.235
13746SOL    HW159925   9.395   5.490   6.185
13746SOL    HW259926   9.356   5.598   6.302
13747SOL     OW59927   5.895   1.662   6.901
13747SOL    HW159928   5.826   1.614   6.956
13747SOL    HW259929   5.861   1.673   6.807
13748SOL     OW59930   4.236   5.486   8.351
13748SOL    HW159931   4.313   5.518   8.407
13748SOL    HW259932   4.268   5.467   8.258
13749SOL     OW59933   1.533   3.923   1.583
13749SOL    HW159934   1.462   3.914   1.653
13749SOL    HW259935   1.501   3.882   1.497
13750SOL     OW59936   1.763   1.911   8.586
13750SOL    HW159937   1.715   1.961   8.658
13750SOL    HW259938   1.785   1.972   8.511
13751SOL     OW59939   0.540   7.327   6.934
13751SOL    HW159940   0.521   7.237   6.896
13751SOL    HW259941   0.513   7.397   6.868
13752SOL     OW59942   7.791   3.113   6.890
13752SOL    HW159943   7.837   3.036   6.846
13752SOL    HW259944   7.694   3.112   6.864
13753SOL     OW59945   0.636   5.023   7.572
13753SOL    HW159946   0.586   4.941   7.602
13753SOL    HW259947   0.574   5.101   7.572
13754SOL     OW59948   3.807  10.147   0.664
13754SOL    HW159949   3.877  10.076   0.660
13754SOL    HW259950   3.832  10.221   0.602
13755SOL     OW59951   0.572   4.001   8.162
13755SOL    HW159952   0.670   3.981   8.153
13755SOL    HW259953   0.552   4.025   8.257
13756SOL     OW59954   8.454   3.027   1.846
13756SOL    HW159955   8.420   2.934   1.855
13756SOL    HW259956   8.503   3.054   1.929
13757SOL     OW59957   6.199  10.478   1.131
13757SOL    HW159958   6.277   0.038   1.128
13757SOL    HW259959   6.124   0.018   1.180
13758SOL     OW59960   4.911   2.186   7.442
13758SOL    HW159961   4.920   2.267   7.499
13758SOL    HW259962   4.919   2.212   7.346
13759SOL     OW59963   2.770   3.001   0.674
13759SOL    HW159964   2.832   2.978   0.749
13759SOL    HW259965   2.785   2.937   0.598
13760SOL     OW59966   9.275   8.474   0.186
13760SOL    HW159967   9.244   8.569   0.186
13760SOL    HW259968   9.364   8.468   0.230
13761SOL     OW59969   6.443   2.589   0.306
13761SOL    HW159970   6.371   2.649   0.341
13761SOL    HW259971   6.530   2.638   0.303
13762SOL     OW59972   3.249   4.061   6.664
13762SOL    HW159973   3.336   4.079   6.709
13762SOL    HW259974   3.204   3.983   6.708
13763SOL     OW59975   0.266   3.934   7.368
13763SOL    HW159976   0.212   4.018   7.376
13763SOL    HW259977   0.321   3.937   7.285
13764SOL     OW59978   3.932   5.869   8.480
13764SOL    HW159979   4.013   5.833   8.433
13764SOL    HW259980   3.881   5.794   8.522
13765SOL     OW59981   9.394   9.559   1.450
13765SOL    HW159982   9.474   9.510   1.482
13765SOL    HW259983   9.420   9.619   1.374
13766SOL     OW59984   2.941   2.972   0.887
13766SOL    HW159985   3.003   3.033   0.838
13766SOL    HW259986   2.994   2.904   0.937
13767SOL     OW59987   4.252   1.974   7.481
13767SOL    HW159988   4.351   1.968   7.487
13767SOL    HW259989   4.217   2.028   7.557
13768SOL     OW59990   2.399   2.709   1.327
13768SOL    HW159991   2.369   2.626   1.374
13768SOL    HW259992   2.329   2.738   1.262
13769SOL     OW59993   2.159   3.726   8.457
13769SOL    HW159994   2.167   3.628   8.440
13769SOL    HW259995   2.110   3.768   8.381
13770SOL     OW59996   9.498   3.391   8.601
13770SOL    HW159997   9.487   3.322   8.673
13770SOL    HW259998   9.421   3.455   8.605
13771SOL     OW59999   4.086   0.102   0.775
13771SOL    HW160000   4.088   0.079   0.678
13771SOL    HW260001   4.170   0.068   0.819
13772SOL     OW60002   9.522   0.838   0.891
13772SOL    HW160003   9.540   0.936   0.904
13772SOL    HW260004   9.533   0.815   0.795
13773SOL     OW60005   9.483   8.641   7.625
13773SOL    HW160006   9.463   8.631   7.723
13773SOL    HW260007   9.468   8.736   7.598
13774SOL     OW60008   1.873   1.192   8.181
13774SOL    HW160009   1.929   1.270   8.151
13774SOL    HW260010   1.827   1.216   8.266
13775SOL     OW60011   6.411   1.376   7.466
13775SOL    HW160012   6.506   1.348   7.450
13775SOL    HW260013   6.388   1.361   7.562
13776SOL     OW60014   4.586   7.410   2.085
13776SOL    HW160015   4.562   7.463   2.166
13776SOL    HW260016   4.669   7.358   2.103
13777SOL     OW60017   8.410   7.049   1.566
13777SOL    HW160018   8.397   7.147   1.580
13777SOL    HW260019   8.414   7.030   1.468
13778SOL     OW60020   3.246   2.309   0.550
13778SOL    HW160021   3.310   2.233   0.557
13778SOL    HW260022   3.278   2.373   0.480
13779SOL     OW60023   9.152   9.483   2.159
13779SOL    HW160024   9.119   9.517   2.247
13779SOL    HW260025   9.117   9.540   2.085
13780SOL     OW60026   4.672   5.145   0.351
13780SOL    HW160027   4.632   5.054   0.352
13780SOL    HW260028   4.772   5.138   0.358
13781SOL     OW60029   3.682   1.808   8.346
13781SOL    HW160030   3.754   1.744   8.373
13781SOL    HW260031   3.720   1.901   8.340
13782SOL     OW60032   2.606   6.388   8.402
13782SOL    HW160033   2.577   6.316   8.465
13782SOL    HW260034   2.641   6.466   8.454
13783SOL     OW60035   2.423   0.628   7.243
13783SOL    HW160036   2.403   0.695   7.171
13783SOL    HW260037   2.411   0.536   7.206
13784SOL     OW60038   4.451   1.778   6.487
13784SOL    HW160039   4.479   1.872   6.469
13784SOL    HW260040   4.352   1.773   6.493
13785SOL     OW60041   1.405   2.635   6.773
13785SOL    HW160042   1.336   2.622   6.702
13785SOL    HW260043   1.432   2.546   6.810
13786SOL     OW60044   6.616   8.473   1.554
13786SOL    HW160045   6.585   8.536   1.625
13786SOL    HW260046   6.596   8.379   1.581
13787SOL     OW60047   4.778   9.663   8.148
13787SOL    HW160048   4.834   9.631   8.224
13787SOL    HW260049   4.754   9.759   8.163
13788SOL     OW60050   6.092   1.387   0.287
13788SOL    HW160051   6.065   1.469   0.337
13788SOL    HW260052   6.050   1.388   0.196
13789SOL     OW60053   6.426   3.152   1.341
13789SOL    HW160054   6.352   3.111   1.286
13789SOL    HW260055   6.388   3.222   1.402
13790SOL     OW60056   3.106   2.075   7.228
13790SOL    HW160057   3.057   2.097   7.312
13790SOL    HW260058   3.046   2.026   7.166
13791SOL     OW60059   8.175   5.479   0.540
13791SOL    HW160060   8.105   5.408   0.547
13791SOL    HW260061   8.200   5.509   0.632
13792SOL     OW60062   1.178  10.252   6.593
13792SOL    HW160063   1.252  10.186   6.578
13792SOL    HW260064   1.093  10.216   6.556
13793SOL     OW60065   8.340   0.952   0.721
13793SOL    HW160066   8.268   0.939   0.653
13793SOL    HW260067   8.411   0.882   0.708
13794SOL     OW60068   2.618   4.818   7.817
13794SOL    HW160069   2.591   4.885   7.748
13794SOL    HW260070   2.660   4.739   7.772
13795SOL     OW60071   2.587   5.924   8.612
13795SOL    HW160072   2.570   5.835   8.571
13795SOL    HW260073   2.617   5.913   8.707
13796SOL     OW60074   6.056   2.425   1.630
13796SOL    HW160075   6.005   2.415   1.715
13796SOL    HW260076   6.008   2.378   1.556
13797SOL     OW60077   1.290   4.765   8.467
13797SOL    HW160078   1.330   4.701   8.532
13797SOL    HW260079   1.317   4.859   8.490
13798SOL     OW60080   1.256   6.761   0.296
13798SOL    HW160081   1.276   6.674   0.342
13798SOL    HW260082   1.246   6.833   0.365
13799SOL     OW60083   2.189   9.503   0.436
13799SOL    HW160084   2.143   9.419   0.465
13799SOL    HW260085   2.162   9.525   0.342
13800SOL     OW60086   9.129   0.213   7.376
13800SOL    HW160087   9.107   0.295   7.323
13800SOL    HW260088   9.207   0.167   7.334
13801SOL     OW60089   3.960   0.727   8.413
13801SOL    HW160090   3.864   0.721   8.389
13801SOL    HW260091   3.989   0.822   8.417
13802SOL     OW60092  10.038   1.008   1.933
13802SOL    HW160093  10.130   0.967   1.937
13802SOL    HW260094   9.970   0.936   1.929
13803SOL     OW60095   7.025   0.363   7.243
13803SOL    HW160096   7.099   0.327   7.187
13803SOL    HW260097   6.944   0.379   7.186
13804SOL     OW60098   0.248   2.081   0.084
13804SOL    HW160099   0.160   2.055   0.125
13804SOL    HW260100   0.311   2.003   0.090
13805SOL     OW60101   8.579   9.483   0.128
13805SOL    HW160102   8.518   9.405   0.137
13805SOL    HW260103   8.593   9.503   0.031
13806SOL     OW60104   0.979   5.132   1.268
13806SOL    HW160105   0.924   5.064   1.220
13806SOL    HW260106   1.035   5.182   1.202
13807SOL     OW60107   9.775   5.464   5.994
13807SOL    HW160108   9.867   5.501   5.994
13807SOL    HW260109   9.724   5.501   5.916
13808SOL     OW60110   8.369   1.421   7.463
13808SOL    HW160111   8.379   1.517   7.490
13808SOL    HW260112   8.457   1.386   7.432
13809SOL     OW60113   0.874  10.384   0.565
13809SOL    HW160114   0.958  10.330   0.573
13809SOL    HW260115   0.865  10.418   0.471
13810SOL     OW60116   4.450   5.713   0.868
13810SOL    HW160117   4.503   5.686   0.949
13810SOL    HW260118   4.513   5.731   0.792
13811SOL     OW60119   8.384   2.553   8.766
13811SOL    HW160120   8.310   2.584   8.706
13811SOL    HW260121   8.404   2.457   8.746
13812SOL     OW60122   8.260   4.233   7.850
13812SOL    HW160123   8.309   4.147   7.835
13812SOL    HW260124   8.243   4.277   7.762
13813SOL     OW60125   8.581  10.036   6.895
13813SOL    HW160126   8.500  10.061   6.841
13813SOL    HW260127   8.663  10.051   6.840
13814SOL     OW60128   1.043   4.114   7.469
13814SOL    HW160129   1.052   4.132   7.567
13814SOL    HW260130   1.002   4.024   7.455
13815SOL     OW60131   1.590   0.207   6.247
13815SOL    HW160132   1.565   0.118   6.286
13815SOL    HW260133   1.689   0.210   6.231
13816SOL     OW60134   9.555   3.567   0.548
13816SOL    HW160135   9.494   3.515   0.488
13816SOL    HW260136   9.609   3.503   0.603
13817SOL     OW60137   8.963   1.889   0.955
13817SOL    HW160138   8.924   1.966   1.006
13817SOL    HW260139   9.036   1.847   1.009
13818SOL     OW60140   8.249   0.419   7.968
13818SOL    HW160141   8.157   0.387   7.947
13818SOL    HW260142   8.301   0.345   8.012
13819SOL     OW60143   7.998   5.397   6.247
13819SOL    HW160144   7.965   5.428   6.157
13819SOL    HW260145   8.070   5.329   6.234
13820SOL     OW60146   1.895   0.563   1.887
13820SOL    HW160147   1.967   0.497   1.866
13820SOL    HW260148   1.930   0.630   1.953
13821SOL     OW60149   4.727   7.940   1.585
13821SOL    HW160150   4.821   7.974   1.582
13821SOL    HW260151   4.679   7.984   1.661
13822SOL     OW60152   2.925   5.597   1.572
13822SOL    HW160153   2.857   5.670   1.579
13822SOL    HW260154   3.017   5.635   1.576
13823SOL     OW60155   3.423   3.789   0.987
13823SOL    HW160156   3.426   3.854   1.062
13823SOL    HW260157   3.501   3.727   0.993
13824SOL     OW60158   4.170   5.762   8.376
13824SOL    HW160159   4.218   5.802   8.298
13824SOL    HW260160   4.170   5.663   8.369
13825SOL     OW60161   0.780   8.649   0.690
13825SOL    HW160162   0.878   8.661   0.703
13825SOL    HW260163   0.730   8.722   0.737
13826SOL     OW60164   8.525  10.119   7.912
13826SOL    HW160165   8.588  10.094   7.985
13826SOL    HW260166   8.431  10.116   7.946
13827SOL     OW60167   6.174   5.423   8.595
13827SOL    HW160168   6.150   5.508   8.643
13827SOL    HW260169   6.268   5.430   8.562
13828SOL     OW60170   8.659   5.583   8.202
13828SOL    HW160171   8.639   5.675   8.237
13828SOL    HW260172   8.629   5.576   8.107
13829SOL     OW60173   0.463   9.323   7.393
13829SOL    HW160174   0.382   9.264   7.398
13829SOL    HW260175   0.438   9.416   7.419
13830SOL     OW60176   4.519  10.284   0.174
13830SOL    HW160177   4.457  10.320   0.243
13830SOL    HW260178   4.609  10.326   0.185
13831SOL     OW60179   6.698  10.192   7.875
13831SOL    HW160180   6.679  10.167   7.780
13831SOL    HW260181   6.753  10.120   7.918
13832SOL     OW60182   8.917   1.470   1.264
13832SOL    HW160183   8.957   1.440   1.350
13832SOL    HW260184   8.876   1.561   1.276
13833SOL     OW60185   7.431   9.583   8.588
13833SOL    HW160186   7.380   9.654   8.637
13833SOL    HW260187   7.452   9.616   8.496
13834SOL     OW60188   2.381   1.224   0.140
13834SOL    HW160189   2.462   1.198   0.086
13834SOL    HW260190   2.303   1.234   0.079
13835SOL     OW60191   4.815   9.058   8.662
13835SOL    HW160192   4.840   9.070   8.758
13835SOL    HW260193   4.725   9.100   8.646
13836SOL     OW60194   5.203   3.382   1.296
13836SOL    HW160195   5.242   3.293   1.320
13836SOL    HW260196   5.170   3.427   1.379
13837SOL     OW60197   6.844   2.107   7.980
13837SOL    HW160198   6.752   2.135   7.952
13837SOL    HW260199   6.848   2.100   8.080
13838SOL     OW60200   1.384   8.509   7.130
13838SOL    HW160201   1.390   8.433   7.194
13838SOL    HW260202   1.366   8.594   7.181
13839SOL     OW60203   6.886   3.736   6.782
13839SOL    HW160204   6.843   3.710   6.695
13839SOL    HW260205   6.880   3.659   6.845
13840SOL     OW60206   2.183   9.882   8.447
13840SOL    HW160207   2.235   9.852   8.367
13840SOL    HW260208   2.088   9.898   8.421
13841SOL     OW60209   2.328   1.171   6.757
13841SOL    HW160210   2.249   1.142   6.705
13841SOL    HW260211   2.332   1.271   6.759
13842SOL     OW60212  10.017   5.615   8.679
13842SOL    HW160213  10.110   5.598   8.712
13842SOL    HW260214   9.985   5.536   8.626
13843SOL     OW60215   3.104   0.868   8.287
13843SOL    HW160216   3.114   0.950   8.230
13843SOL    HW260217   3.107   0.895   8.384
13844SOL     OW60218   9.003   8.750   0.822
13844SOL    HW160219   9.024   8.697   0.904
13844SOL    HW260220   8.999   8.689   0.743
13845SOL     OW60221   1.118   1.357   8.409
13845SOL    HW160222   1.161   1.344   8.320
13845SOL    HW260223   1.185   1.394   8.473
13846SOL     OW60224   5.357   9.703   8.250
13846SOL    HW160225   5.346   9.798   8.219
13846SOL    HW260226   5.429   9.658   8.196
13847SOL     OW60227   1.805   1.706   6.779
13847SOL    HW160228   1.791   1.781   6.843
13847SOL    HW260229   1.902   1.697   6.757
13848SOL     OW60230   1.368   5.758   7.838
13848SOL    HW160231   1.337   5.717   7.924
13848SOL    HW260232   1.353   5.857   7.841
13849SOL     OW60233   7.704   4.952   2.174
13849SOL    HW160234   7.783   4.998   2.213
13849SOL    HW260235   7.621   5.003   2.197
13850SOL     OW60236   0.018   7.904   7.226
13850SOL    HW160237  10.135   7.882   7.315
13850SOL    HW260238   0.059   7.821   7.188
13851SOL     OW60239   3.316   0.455   8.461
13851SOL    HW160240   3.314   0.382   8.529
13851SOL    HW260241   3.228   0.502   8.461
13852SOL     OW60242   3.765   6.675   0.486
13852SOL    HW160243   3.680   6.686   0.435
13852SOL    HW260244   3.825   6.754   0.470
13853SOL     OW60245   3.753   3.270   8.191
13853SOL    HW160246   3.756   3.368   8.208
13853SOL    HW260247   3.846   3.235   8.182
13854SOL     OW60248   2.723   9.692   7.926
13854SOL    HW160249   2.628   9.702   7.953
13854SOL    HW260250   2.750   9.769   7.868
13855SOL     OW60251   7.493   1.115   1.143
13855SOL    HW160252   7.484   1.062   1.226
13855SOL    HW260253   7.509   1.211   1.166
13856SOL     OW60254   5.539   8.535   0.925
13856SOL    HW160255   5.472   8.605   0.952
13856SOL    HW260256   5.531   8.518   0.826
13857SOL     OW60257   2.743   8.400   0.937
13857SOL    HW160258   2.783   8.423   0.848
13857SOL    HW260259   2.724   8.302   0.941
13858SOL     OW60260   0.418   3.422   1.014
13858SOL    HW160261   0.379   3.396   0.926
13858SOL    HW260262   0.349   3.415   1.085
13859SOL     OW60263   6.860   1.985   8.605
13859SOL    HW160264   6.956   1.965   8.582
13859SOL    HW260265   6.854   2.010   8.702
13860SOL     OW60266   5.033   8.447   7.219
13860SOL    HW160267   5.029   8.356   7.176
13860SOL    HW260268   4.990   8.514   7.158
13861SOL     OW60269   0.865   2.190   0.111
13861SOL    HW160270   0.917   2.145   0.038
13861SOL    HW260271   0.900   2.283   0.123
13862SOL     OW60272   3.694   1.470   8.582
13862SOL    HW160273   3.746   1.544   8.625
13862SOL    HW260274   3.597   1.481   8.603
13863SOL     OW60275   6.665   4.781   0.876
13863SOL    HW160276   6.678   4.758   0.779
13863SOL    HW260277   6.740   4.839   0.907
13864SOL     OW60278   5.001   3.345   0.374
13864SOL    HW160279   4.922   3.289   0.400
13864SOL    HW260280   4.970   3.438   0.353
13865SOL     OW60281   5.541   4.885   0.447
13865SOL    HW160282   5.539   4.983   0.465
13865SOL    HW260283   5.547   4.870   0.348
13866SOL     OW60284   7.760   0.398   1.322
13866SOL    HW160285   7.731   0.373   1.229
13866SOL    HW260286   7.707   0.344   1.388
13867SOL     OW60287   3.592   8.659   6.290
13867SOL    HW160288   3.518   8.593   6.277
13867SOL    HW260289   3.561   8.749   6.260
13868SOL     OW60290   5.825  10.465   0.477
13868SOL    HW160291   5.924  10.458   0.465
13868SOL    HW260292   5.791   0.041   0.428
13869SOL     OW60293   2.461   6.350   1.315
13869SOL    HW160294   2.502   6.440   1.303
13869SOL    HW260295   2.482   6.293   1.235
13870SOL     OW60296   2.392   0.140   8.594
13870SOL    HW160297   2.447   0.119   8.513
13870SOL    HW260298   2.347   0.057   8.626
13871SOL     OW60299   5.973   8.921   0.284
13871SOL    HW160300   5.935   8.832   0.260
13871SOL    HW260301   6.061   8.934   0.239
13872SOL     OW60302   3.886   3.128   1.636
13872SOL    HW160303   3.823   3.205   1.626
13872SOL    HW260304   3.835   3.042   1.637
13873SOL     OW60305   0.593   2.947   7.331
13873SOL    HW160306   0.574   2.849   7.326
13873SOL    HW260307   0.665   2.964   7.399
13874SOL     OW60308   8.247   3.485   6.755
13874SOL    HW160309   8.258   3.460   6.658
13874SOL    HW260310   8.330   3.461   6.805
13875SOL     OW60311   8.293   1.885   6.868
13875SOL    HW160312   8.379   1.920   6.904
13875SOL    HW260313   8.222   1.955   6.881
13876SOL     OW60314   1.803   5.527   1.634
13876SOL    HW160315   1.759   5.465   1.700
13876SOL    HW260316   1.789   5.492   1.541
13877SOL     OW60317   8.372   4.069   0.491
13877SOL    HW160318   8.317   4.150   0.512
13877SOL    HW260319   8.454   4.097   0.442
13878SOL     OW60320   3.743   5.974   7.916
13878SOL    HW160321   3.748   6.048   7.983
13878SOL    HW260322   3.648   5.952   7.897
13879SOL     OW60323   9.488   0.109   0.173
13879SOL    HW160324   9.546   0.148   0.102
13879SOL    HW260325   9.545   0.080   0.250
13880SOL     OW60326   9.628   2.818   8.418
13880SOL    HW160327   9.655   2.902   8.465
13880SOL    HW260328   9.635   2.832   8.319
13881SOL     OW60329   0.692   9.411   7.886
13881SOL    HW160330   0.616   9.350   7.864
13881SOL    HW260331   0.739   9.377   7.968
13882SOL     OW60332   5.885   6.166   0.027
13882SOL    HW160333   5.841   6.078   0.045
13882SOL    HW260334   5.978   6.151   8.777
13883SOL     OW60335   1.717   7.973   8.639
13883SOL    HW160336   1.815   7.958   8.657
13883SOL    HW260337   1.669   7.886   8.642
13884SOL     OW60338   8.047   9.681   0.215
13884SOL    HW160339   7.949   9.690   0.232
13884SOL    HW260340   8.089   9.772   0.209
13885SOL     OW60341   6.324   9.862   7.884
13885SOL    HW160342   6.235   9.816   7.897
13885SOL    HW260343   6.371   9.868   7.972
13886SOL     OW60344   2.967   0.157   0.416
13886SOL    HW160345   2.942   0.077   0.361
13886SOL    HW260346   2.987   0.127   0.510
13887SOL     OW60347   9.753   4.249   2.487
13887SOL    HW160348   9.809   4.178   2.531
13887SOL    HW260349   9.801   4.336   2.490
13888SOL     OW60350   5.001   3.958   0.842
13888SOL    HW160351   4.968   3.967   0.936
13888SOL    HW260352   4.991   3.863   0.812
13889SOL     OW60353   2.173   3.323   6.030
13889SOL    HW160354   2.249   3.379   5.998
13889SOL    HW260355   2.087   3.373   6.018
13890SOL     OW60356   8.849   9.825   1.978
13890SOL    HW160357   8.901   9.869   2.051
13890SOL    HW260358   8.752   9.836   1.995
13891SOL     OW60359   3.896   4.832   6.781
13891SOL    HW160360   3.887   4.884   6.696
13891SOL    HW260361   3.972   4.868   6.834
13892SOL     OW60362   9.691   3.629   6.642
13892SOL    HW160363   9.761   3.641   6.713
13892SOL    HW260364   9.732   3.584   6.563
13893SOL     OW60365   1.118   4.198   1.560
13893SOL    HW160366   1.123   4.118   1.619
13893SOL    HW260367   1.041   4.256   1.589
13894SOL     OW60368   8.078   4.204   0.355
13894SOL    HW160369   8.059   4.266   0.278
13894SOL    HW260370   8.140   4.249   0.419
13895SOL     OW60371   7.211   4.296   1.496
13895SOL    HW160372   7.192   4.376   1.440
13895SOL    HW260373   7.307   4.268   1.482
13896SOL     OW60374   8.555   9.775   7.885
13896SOL    HW160375   8.555   9.794   7.786
13896SOL    HW260376   8.627   9.828   7.929
13897SOL     OW60377  10.066   6.191   0.994
13897SOL    HW160378   9.966   6.186   1.003
13897SOL    HW260379  10.103   6.099   0.979
13898SOL     OW60380   3.909   9.844   1.030
13898SOL    HW160381   3.901   9.775   0.958
13898SOL    HW260382   3.869   9.808   1.114
13899SOL     OW60383   7.403   2.404   1.139
13899SOL    HW160384   7.325   2.387   1.199
13899SOL    HW260385   7.460   2.323   1.134
13900SOL     OW60386   4.124   3.968   1.512
13900SOL    HW160387   4.122   4.024   1.594
13900SOL    HW260388   4.044   3.909   1.509
13901SOL     OW60389   7.190   3.191   6.961
13901SOL    HW160390   7.225   3.239   6.880
13901SOL    HW260391   7.224   3.097   6.961
13902SOL     OW60392   7.444   9.932   7.057
13902SOL    HW160393   7.357   9.910   7.100
13902SOL    HW260394   7.431   9.943   6.958
13903SOL     OW60395   2.360  10.220   8.193
13903SOL    HW160396   2.285  10.252   8.251
13903SOL    HW260397   2.385  10.293   8.129
13904SOL     OW60398   3.977   9.099   7.076
13904SOL    HW160399   3.944   9.042   7.151
13904SOL    HW260400   4.066   9.065   7.046
13905SOL     OW60401   7.254   0.393   1.082
13905SOL    HW160402   7.185   0.326   1.052
13905SOL    HW260403   7.233   0.423   1.175
13906SOL     OW60404   8.047   7.231   8.435
13906SOL    HW160405   8.069   7.303   8.370
13906SOL    HW260406   8.071   7.142   8.396
13907SOL     OW60407   7.154   0.472   1.328
13907SOL    HW160408   7.110   0.431   1.407
13907SOL    HW260409   7.096   0.545   1.291
13908SOL     OW60410   9.589   0.160   8.498
13908SOL    HW160411   9.662   0.204   8.445
13908SOL    HW260412   9.572   0.069   8.462
13909SOL     OW60413   9.167   1.761   1.086
13909SOL    HW160414   9.174   1.689   1.018
13909SOL    HW260415   9.179   1.722   1.177
13910SOL     OW60416   7.586   7.728   6.731
13910SOL    HW160417   7.528   7.793   6.682
13910SOL    HW260418   7.639   7.776   6.800
13911SOL     OW60419   5.405   3.550   0.096
13911SOL    HW160420   5.401   3.453   0.121
13911SOL    HW260421   5.425   3.604   0.178
13912SOL     OW60422   4.860   8.267   6.293
13912SOL    HW160423   4.788   8.256   6.225
13912SOL    HW260424   4.922   8.340   6.265
13913SOL     OW60425   2.007   2.363   6.780
13913SOL    HW160426   2.017   2.367   6.681
13913SOL    HW260427   2.013   2.456   6.818
13914SOL     OW60428   5.542   7.210   0.607
13914SOL    HW160429   5.467   7.151   0.638
13914SOL    HW260430   5.525   7.239   0.513
13915SOL     OW60431   1.599   1.855   2.204
13915SOL    HW160432   1.679   1.909   2.233
13915SOL    HW260433   1.630   1.779   2.146
13916SOL     OW60434   5.598   7.788   0.559
13916SOL    HW160435   5.634   7.727   0.488
13916SOL    HW260436   5.518   7.745   0.602
13917SOL     OW60437   3.762   0.077   7.681
13917SOL    HW160438   3.704   0.068   7.762
13917SOL    HW260439   3.849   0.119   7.706
13918SOL     OW60440   0.302   5.242   1.097
13918SOL    HW160441   0.227   5.231   1.032
13918SOL    HW260442   0.265   5.270   1.185
13919SOL     OW60443   6.373   6.680   6.531
13919SOL    HW160444   6.473   6.672   6.521
13919SOL    HW260445   6.347   6.776   6.525
13920SOL     OW60446   3.086   2.634   1.780
13920SOL    HW160447   3.106   2.630   1.878
13920SOL    HW260448   2.994   2.671   1.767
13921SOL     OW60449   2.894   0.114   5.898
13921SOL    HW160450   2.824   0.043   5.893
13921SOL    HW260451   2.857   0.201   5.866
13922SOL     OW60452   5.389   2.157   6.522
13922SOL    HW160453   5.476   2.187   6.483
13922SOL    HW260454   5.314   2.186   6.463
13923SOL     OW60455   7.573   1.377   1.203
13923SOL    HW160456   7.581   1.472   1.234
13923SOL    HW260457   7.660   1.330   1.217
13924SOL     OW60458   9.831   8.852   6.741
13924SOL    HW160459   9.889   8.917   6.691
13924SOL    HW260460   9.861   8.759   6.722
13925SOL     OW60461   8.248   8.922   7.764
13925SOL    HW160462   8.305   9.003   7.762
13925SOL    HW260463   8.156   8.945   7.733
13926SOL     OW60464   2.615  10.208   0.483
13926SOL    HW160465   2.667  10.153   0.418
13926SOL    HW260466   2.524  10.168   0.496
13927SOL     OW60467   6.874   6.669   1.016
13927SOL    HW160468   6.800   6.671   1.082
13927SOL    HW260469   6.839   6.689   0.925
13928SOL     OW60470   5.160   3.012   8.575
13928SOL    HW160471   5.105   2.936   8.608
13928SOL    HW260472   5.194   2.992   8.483
13929SOL     OW60473   2.577   9.905   8.533
13929SOL    HW160474   2.531   9.820   8.506
13929SOL    HW260475   2.652   9.883   8.596
13930SOL     OW60476   6.748   6.071   0.523
13930SOL    HW160477   6.722   6.165   0.503
13930SOL    HW260478   6.678   6.029   0.581
13931SOL     OW60479   4.995   8.536   6.608
13931SOL    HW160480   4.905   8.570   6.583
13931SOL    HW260481   5.060   8.612   6.609
13932SOL     OW60482   4.845  10.258   7.161
13932SOL    HW160483   4.856  10.261   7.260
13932SOL    HW260484   4.930  10.227   7.119
13933SOL     OW60485   5.762   1.519   0.248
13933SOL    HW160486   5.705   1.439   0.231
13933SOL    HW260487   5.800   1.514   0.341
13934SOL     OW60488   9.818   9.582   8.534
13934SOL    HW160489   9.834   9.645   8.610
13934SOL    HW260490   9.837   9.489   8.564
13935SOL     OW60491   5.974   2.697   7.784
13935SOL    HW160492   5.959   2.632   7.858
13935SOL    HW260493   5.985   2.648   7.697
13936SOL     OW60494   6.947   2.133   7.729
13936SOL    HW160495   6.911   2.067   7.663
13936SOL    HW260496   6.905   2.115   7.819
13937SOL     OW60497   8.000  10.021   2.139
13937SOL    HW160498   7.925   9.964   2.169
13937SOL    HW260499   8.087   9.973   2.154
13938SOL     OW60500   7.731   8.273   6.473
13938SOL    HW160501   7.656   8.337   6.491
13938SOL    HW260502   7.706   8.182   6.507
13939SOL     OW60503   0.082   1.379   0.891
13939SOL    HW160504   0.164   1.393   0.836
13939SOL    HW260505   0.013   1.448   0.867
13940SOL     OW60506   9.721   7.771   7.898
13940SOL    HW160507   9.760   7.863   7.894
13940SOL    HW260508   9.692   7.751   7.991
13941SOL     OW60509   5.994   9.921   2.306
13941SOL    HW160510   6.041   9.946   2.391
13941SOL    HW260511   5.946   9.835   2.319
13942SOL     OW60512   4.268   0.550   0.618
13942SOL    HW160513   4.256   0.631   0.674
13942SOL    HW260514   4.338   0.567   0.549
13943SOL     OW60515   6.078   0.438   1.798
13943SOL    HW160516   6.054   0.456   1.894
13943SOL    HW260517   6.049   0.515   1.742
13944SOL     OW60518   3.963   5.074   7.385
13944SOL    HW160519   3.927   4.985   7.359
13944SOL    HW260520   4.062   5.069   7.399
13945SOL     OW60521   4.834   2.329   1.279
13945SOL    HW160522   4.882   2.369   1.356
13945SOL    HW260523   4.900   2.278   1.222
13946SOL     OW60524   7.098   5.615   7.229
13946SOL    HW160525   7.138   5.606   7.138
13946SOL    HW260526   7.169   5.606   7.298
13947SOL     OW60527   3.808   6.763   1.613
13947SOL    HW160528   3.901   6.728   1.625
13947SOL    HW260529   3.796   6.845   1.668
13948SOL     OW60530   9.519   3.115   7.111
13948SOL    HW160531   9.446   3.173   7.148
13948SOL    HW260532   9.490   3.079   7.022
13949SOL     OW60533   8.184   6.752   6.644
13949SOL    HW160534   8.153   6.836   6.599
13949SOL    HW260535   8.256   6.710   6.591
13950SOL     OW60536   1.009   1.235   7.318
13950SOL    HW160537   1.005   1.136   7.333
13950SOL    HW260538   0.918   1.275   7.332
13951SOL     OW60539   3.027   3.349   0.868
13951SOL    HW160540   3.054   3.270   0.814
13951SOL    HW260541   2.971   3.410   0.813
13952SOL     OW60542   5.468   7.293   0.335
13952SOL    HW160543   5.531   7.337   0.271
13952SOL    HW260544   5.430   7.210   0.293
13953SOL     OW60545   4.550   2.054   8.368
13953SOL    HW160546   4.530   2.095   8.279
13953SOL    HW260547   4.471   2.002   8.399
13954SOL     OW60548   8.129   6.848   2.323
13954SOL    HW160549   8.169   6.796   2.398
13954SOL    HW260550   8.031   6.861   2.341
13955SOL     OW60551   9.191  10.290   7.571
13955SOL    HW160552   9.221  10.199   7.542
13955SOL    HW260553   9.113  10.319   7.515
13956SOL     OW60554   5.039   3.521   6.939
13956SOL    HW160555   5.045   3.610   6.893
13956SOL    HW260556   5.048   3.534   7.037
13957SOL     OW60557   8.637   1.194   1.722
13957SOL    HW160558   8.714   1.131   1.726
13957SOL    HW260559   8.594   1.200   1.812
13958SOL     OW60560   2.526   0.041   7.333
13958SOL    HW160561   2.445   0.049   7.390
13958SOL    HW260562   2.550  10.448   7.322
13959SOL     OW60563   3.162   8.821   1.499
13959SOL    HW160564   3.203   8.886   1.564
13959SOL    HW260565   3.065   8.843   1.487
13960SOL     OW60566   1.678   0.385   7.748
13960SOL    HW160567   1.741   0.383   7.826
13960SOL    HW260568   1.710   0.323   7.677
13961SOL     OW60569  10.027   8.141   8.022
13961SOL    HW160570  10.019   8.149   8.121
13961SOL    HW260571  10.090   8.066   7.999
13962SOL     OW60572   2.365   2.676   1.647
13962SOL    HW160573   2.409   2.642   1.731
13962SOL    HW260574   2.358   2.601   1.581
13963SOL     OW60575   3.667   6.871   0.098
13963SOL    HW160576   3.709   6.958   0.075
13963SOL    HW260577   3.709   6.798   0.043
13964SOL     OW60578   3.612   7.300   7.931
13964SOL    HW160579   3.623   7.218   7.874
13964SOL    HW260580   3.703   7.331   7.961
13965SOL     OW60581   3.715   0.118   7.235
13965SOL    HW160582   3.668   0.047   7.182
13965SOL    HW260583   3.665   0.134   7.320
13966SOL     OW60584   1.266   3.462   7.450
13966SOL    HW160585   1.297   3.433   7.541
13966SOL    HW260586   1.189   3.406   7.422
13967SOL     OW60587   5.477   9.845   1.319
13967SOL    HW160588   5.514   9.767   1.268
13967SOL    HW260589   5.485   9.927   1.264
13968SOL     OW60590   2.066   7.301   6.815
13968SOL    HW160591   2.096   7.291   6.909
13968SOL    HW260592   2.036   7.213   6.779
13969SOL     OW60593   3.718   5.963   0.446
13969SOL    HW160594   3.714   6.052   0.401
13969SOL    HW260595   3.813   5.946   0.475
13970SOL     OW60596   6.942   8.095   8.364
13970SOL    HW160597   6.953   8.111   8.266
13970SOL    HW260598   6.963   8.000   8.385
13971SOL     OW60599   0.778   1.968   0.256
13971SOL    HW160600   0.690   1.979   0.301
13971SOL    HW260601   0.803   2.054   0.211
13972SOL     OW60602   5.254   3.718   1.594
13972SOL    HW160603   5.263   3.753   1.687
13972SOL    HW260604   5.261   3.795   1.529
13973SOL     OW60605   5.888   7.114   2.516
13973SOL    HW160606   5.847   7.179   2.452
13973SOL    HW260607   5.842   7.025   2.507
13974SOL     OW60608   5.540   5.722   1.531
13974SOL    HW160609   5.589   5.692   1.613
13974SOL    HW260610   5.478   5.797   1.556
13975SOL     OW60611   1.265   6.135   6.654
13975SOL    HW160612   1.166   6.146   6.662
13975SOL    HW260613   1.310   6.174   6.735
13976SOL     OW60614   4.730   7.802   1.177
13976SOL    HW160615   4.661   7.826   1.245
13976SOL    HW260616   4.718   7.707   1.149
13977SOL     OW60617   9.847  10.241   8.280
13977SOL    HW160618   9.826  10.207   8.372
13977SOL    HW260619   9.909  10.178   8.235
13978SOL     OW60620   6.623   3.780   0.047
13978SOL    HW160621   6.691   3.763   8.758
13978SOL    HW260622   6.531   3.766   0.010
13979SOL     OW60623   5.716   0.472   0.811
13979SOL    HW160624   5.748   0.566   0.803
13979SOL    HW260625   5.793   0.411   0.832
13980SOL     OW60626   4.755   3.233   0.442
13980SOL    HW160627   4.740   3.236   0.541
13980SOL    HW260628   4.716   3.315   0.400
13981SOL     OW60629   5.025   7.741   7.235
13981SOL    HW160630   5.026   7.696   7.146
13981SOL    HW260631   5.033   7.672   7.308
13982SOL     OW60632   2.739   2.272   8.037
13982SOL    HW160633   2.763   2.285   8.134
13982SOL    HW260634   2.682   2.190   8.028
13983SOL     OW60635   8.766   2.888   8.103
13983SOL    HW160636   8.751   2.915   8.007
13983SOL    HW260637   8.701   2.936   8.162
13984SOL     OW60638   7.979   7.028   7.603
13984SOL    HW160639   7.986   7.058   7.508
13984SOL    HW260640   8.023   6.939   7.614
13985SOL     OW60641   3.737   0.147   5.907
13985SOL    HW160642   3.676   0.226   5.900
13985SOL    HW260643   3.832   0.178   5.902
13986SOL     OW60644   0.991   4.046   0.095
13986SOL    HW160645   0.999   4.140   0.128
13986SOL    HW260646   0.897   4.029   0.064
13987SOL     OW60647   4.402   6.963   8.489
13987SOL    HW160648   4.459   6.936   8.566
13987SOL    HW260649   4.329   6.896   8.476
13988SOL     OW60650   5.899   2.234   8.778
13988SOL    HW160651   5.849   2.264   0.077
13988SOL    HW260652   5.978   2.180   0.024
13989SOL     OW60653   4.035   7.350   7.086
13989SOL    HW160654   4.129   7.315   7.088
13989SOL    HW260655   4.014   7.385   6.995
13990SOL     OW60656   1.924   5.844   0.015
13990SOL    HW160657   2.005   5.787   0.003
13990SOL    HW260658   1.953   5.938   0.035
13991SOL     OW60659   6.690   1.807   0.032
13991SOL    HW160660   6.670   1.786   8.718
13991SOL    HW260661   6.608   1.795   0.087
13992SOL     OW60662   5.542   8.936   8.375
13992SOL    HW160663   5.481   8.859   8.358
13992SOL    HW260664   5.571   8.936   8.471
13993SOL     OW60665   2.978   8.757   0.275
13993SOL    HW160666   3.036   8.683   0.241
13993SOL    HW260667   2.925   8.795   0.199
13994SOL     OW60668   1.617   2.921   0.538
13994SOL    HW160669   1.591   3.018   0.542
13994SOL    HW260670   1.541   2.868   0.501
13995SOL     OW60671   4.060   2.742   7.108
13995SOL    HW160672   4.053   2.710   7.203
13995SOL    HW260673   4.147   2.788   7.095
13996SOL     OW60674   5.350   4.816   8.714
13996SOL    HW160675   5.366   4.914   8.722
13996SOL    HW260676   5.437   4.767   8.725
13997SOL     OW60677   9.738   1.823   6.113
13997SOL    HW160678   9.750   1.917   6.082
13997SOL    HW260679   9.651   1.787   6.076
13998SOL     OW60680   8.916   8.653   7.872
13998SOL    HW160681   8.821   8.682   7.885
13998SOL    HW260682   8.957   8.635   7.961
13999SOL     OW60683   8.562   2.412   1.352
13999SOL    HW160684   8.511   2.496   1.372
13999SOL    HW260685   8.592   2.371   1.438
14000SOL     OW60686   3.429   7.469   7.506
14000SOL    HW160687   3.492   7.483   7.583
14000SOL    HW260688   3.391   7.377   7.510
14001SOL     OW60689   0.737   0.824   7.680
14001SOL    HW160690   0.646   0.856   7.703
14001SOL    HW260691   0.794   0.824   7.762
14002SOL     OW60692   3.558   7.505   7.741
14002SOL    HW160693   3.571   7.436   7.812
14002SOL    HW260694   3.571   7.596   7.781
14003SOL     OW60695   8.549   1.187   7.991
14003SOL    HW160696   8.619   1.116   7.985
14003SOL    HW260697   8.525   1.202   8.086
14004SOL     OW60698   1.537   8.124   7.694
14004SOL    HW160699   1.476   8.202   7.703
14004SOL    HW260700   1.615   8.148   7.635
14005SOL     OW60701   1.119   3.760   7.649
14005SOL    HW160702   1.152   3.763   7.744
14005SOL    HW260703   1.192   3.790   7.588
14006SOL     OW60704   9.796   5.035   1.383
14006SOL    HW160705   9.815   4.965   1.314
14006SOL    HW260706   9.847   5.118   1.362
14007SOL     OW60707   7.089   4.083   1.614
14007SOL    HW160708   7.128   4.172   1.591
14007SOL    HW260709   7.163   4.019   1.634
14008SOL     OW60710   6.271   7.375   7.924
14008SOL    HW160711   6.223   7.292   7.952
14008SOL    HW260712   6.333   7.353   7.848
14009SOL     OW60713   1.770  10.256   7.831
14009SOL    HW160714   1.863  10.260   7.869
14009SOL    HW260715   1.726  10.171   7.860
14010SOL     OW60716   8.008   4.693   2.113
14010SOL    HW160717   7.975   4.608   2.072
14010SOL    HW260718   7.967   4.705   2.204
14011SOL     OW60719   2.633   4.257   6.931
14011SOL    HW160720   2.607   4.350   6.907
14011SOL    HW260721   2.565   4.219   6.995
14012SOL     OW60722   6.842   3.146   8.277
14012SOL    HW160723   6.872   3.158   8.372
14012SOL    HW260724   6.823   3.235   8.237
14013SOL     OW60725  10.025   4.999   0.195
14013SOL    HW160726  10.053   5.024   0.102
14013SOL    HW260727   9.927   4.978   0.196
14014SOL     OW60728   0.628   6.000   7.616
14014SOL    HW160729   0.530   5.981   7.624
14014SOL    HW260730   0.680   5.917   7.637
14015SOL     OW60731   0.852   8.775   7.915
14015SOL    HW160732   0.935   8.832   7.910
14015SOL    HW260733   0.811   8.767   7.825
14016SOL     OW60734   9.292   1.721   7.874
14016SOL    HW160735   9.291   1.821   7.871
14016SOL    HW260736   9.340   1.686   7.794
14017SOL     OW60737   4.069  10.241   0.948
14017SOL    HW160738   4.158  10.253   0.905
14017SOL    HW260739   4.070  10.159   1.006
14018SOL     OW60740   2.740   0.135   1.156
14018SOL    HW160741   2.733   0.204   1.083
14018SOL    HW260742   2.749   0.181   1.244
14019SOL     OW60743   3.915   8.289   0.479
14019SOL    HW160744   3.951   8.196   0.469
14019SOL    HW260745   3.928   8.320   0.573
14020SOL     OW60746   2.067   8.136   1.683
14020SOL    HW160747   2.027   8.074   1.615
14020SOL    HW260748   2.153   8.098   1.716
14021SOL     OW60749   9.840   8.960   1.651
14021SOL    HW160750   9.750   8.919   1.663
14021SOL    HW260751   9.892   8.908   1.583
14022SOL     OW60752   6.586   7.895   7.365
14022SOL    HW160753   6.673   7.860   7.401
14022SOL    HW260754   6.580   7.875   7.267
14023SOL     OW60755   7.970   1.356   1.623
14023SOL    HW160756   7.969   1.256   1.633
14023SOL    HW260757   8.018   1.381   1.539
14024SOL     OW60758   7.183   2.605   0.522
14024SOL    HW160759   7.186   2.690   0.469
14024SOL    HW260760   7.152   2.625   0.615
14025SOL     OW60761   8.272   6.503   8.106
14025SOL    HW160762   8.365   6.469   8.118
14025SOL    HW260763   8.213   6.464   8.176
14026SOL     OW60764   6.163   2.913   1.561
14026SOL    HW160765   6.125   2.918   1.469
14026SOL    HW260766   6.195   2.820   1.580
14027SOL     OW60767   7.924   9.226   1.465
14027SOL    HW160768   8.018   9.193   1.454
14027SOL    HW260769   7.880   9.234   1.375
14028SOL     OW60770  10.111   9.088   7.733
14028SOL    HW160771   0.016   9.139   7.792
14028SOL    HW260772  10.076   9.149   7.662
14029SOL     OW60773   0.875   1.028   7.087
14029SOL    HW160774   0.884   0.963   7.012
14029SOL    HW260775   0.907   0.985   7.172
14030SOL     OW60776   6.000   4.485   0.223
14030SOL    HW160777   5.917   4.488   0.168
14030SOL    HW260778   6.058   4.410   0.192
14031SOL     OW60779   5.161   7.442   0.091
14031SOL    HW160780   5.110   7.458   0.006
14031SOL    HW260781   5.237   7.379   0.073
14032SOL     OW60782   6.243   1.910   0.113
14032SOL    HW160783   6.204   1.963   0.038
14032SOL    HW260784   6.261   1.970   0.191
14033SOL     OW60785   7.256   1.707   1.639
14033SOL    HW160786   7.342   1.706   1.689
14033SOL    HW260787   7.207   1.791   1.659
14034SOL     OW60788   5.098   7.185   1.474
14034SOL    HW160789   5.071   7.200   1.569
14034SOL    HW260790   5.048   7.249   1.415
14035SOL     OW60791   6.490   3.835   7.721
14035SOL    HW160792   6.488   3.774   7.799
14035SOL    HW260793   6.432   3.799   7.648
14036SOL     OW60794   7.989   2.773   1.701
14036SOL    HW160795   7.988   2.865   1.741
14036SOL    HW260796   7.929   2.713   1.754
14037SOL     OW60797   1.160   3.838   6.580
14037SOL    HW160798   1.095   3.780   6.530
14037SOL    HW260799   1.147   3.933   6.553
14038SOL     OW60800   0.212   6.566   0.854
14038SOL    HW160801   0.209   6.547   0.953
14038SOL    HW260802   0.196   6.663   0.838
14039SOL     OW60803   4.032   8.037   0.481
14039SOL    HW160804   3.998   8.030   0.574
14039SOL    HW260805   4.021   7.948   0.435
14040SOL     OW60806  10.027  10.317   6.628
14040SOL    HW160807  10.039  10.289   6.533
14040SOL    HW260808  10.111  10.360   6.662
14041SOL     OW60809   3.457   2.778   7.959
14041SOL    HW160810   3.486   2.796   7.865
14041SOL    HW260811   3.530   2.729   8.007
14042SOL     OW60812   6.191   5.123   0.178
14042SOL    HW160813   6.198   5.161   0.270
14042SOL    HW260814   6.128   5.046   0.179
14043SOL     OW60815   7.627   0.210   7.835
14043SOL    HW160816   7.545   0.193   7.780
14043SOL    HW260817   7.676   0.123   7.849
14044SOL     OW60818   4.835   8.858   7.036
14044SOL    HW160819   4.807   8.950   7.065
14044SOL    HW260820   4.848   8.857   6.937
14045SOL     OW60821   7.803   0.053   7.532
14045SOL    HW160822   7.793   0.129   7.467
14045SOL    HW260823   7.855   0.083   7.611
14046SOL     OW60824   0.790   5.248   8.524
14046SOL    HW160825   0.873   5.304   8.525
14046SOL    HW260826   0.779   5.208   8.433
14047SOL     OW60827   0.323   2.701   7.997
14047SOL    HW160828   0.277   2.738   8.077
14047SOL    HW260829   0.413   2.743   7.987
14048SOL     OW60830   8.562   6.097   1.181
14048SOL    HW160831   8.629   6.024   1.195
14048SOL    HW260832   8.606   6.186   1.196
14049SOL     OW60833   1.422   2.831   1.586
14049SOL    HW160834   1.445   2.926   1.567
14049SOL    HW260835   1.388   2.823   1.679
14050SOL     OW60836   9.444   1.512   0.245
14050SOL    HW160837   9.479   1.594   0.290
14050SOL    HW260838   9.453   1.522   0.146
14051SOL     OW60839   4.513   5.029   6.393
14051SOL    HW160840   4.480   4.952   6.339
14051SOL    HW260841   4.531   5.107   6.333
14052SOL     OW60842   9.814   2.185   1.870
14052SOL    HW160843   9.864   2.247   1.809
14052SOL    HW260844   9.873   2.108   1.895
14053SOL     OW60845   3.662  10.359   0.788
14053SOL    HW160846   3.742  10.399   0.832
14053SOL    HW260847   3.688  10.272   0.746
14054SOL     OW60848   4.708   5.336   0.155
14054SOL    HW160849   4.686   5.277   0.233
14054SOL    HW260850   4.781   5.294   0.101
14055SOL     OW60851   2.791   6.605   0.978
14055SOL    HW160852   2.836   6.586   0.890
14055SOL    HW260853   2.830   6.546   1.049
14056SOL     OW60854   9.250   0.045   0.045
14056SOL    HW160855   9.254   0.083   8.734
14056SOL    HW260856   9.338   0.060   0.090
14057SOL     OW60857   4.743   8.854   1.787
14057SOL    HW160858   4.809   8.906   1.843
14057SOL    HW260859   4.768   8.758   1.787
14058SOL     OW60860   5.004   3.694   7.702
14058SOL    HW160861   5.080   3.684   7.766
14058SOL    HW260862   4.967   3.787   7.708
14059SOL     OW60863   3.425   5.944   0.681
14059SOL    HW160864   3.424   5.927   0.780
14059SOL    HW260865   3.478   5.874   0.635
14060SOL     OW60866   5.627   8.238   6.784
14060SOL    HW160867   5.618   8.338   6.789
14060SOL    HW260868   5.710   8.215   6.733
14061SOL     OW60869   1.781   9.335   0.020
14061SOL    HW160870   1.734   9.254   0.055
14061SOL    HW260871   1.841   9.309   8.726
14062SOL     OW60872   1.366   3.171   6.876
14062SOL    HW160873   1.312   3.113   6.937
14062SOL    HW260874   1.424   3.114   6.818
14063SOL     OW60875   7.398   7.078   8.748
14063SOL    HW160876   7.433   7.007   0.026
14063SOL    HW260877   7.383   7.040   8.656
14064SOL     OW60878   5.751   5.763   6.947
14064SOL    HW160879   5.694   5.697   6.994
14064SOL    HW260880   5.816   5.716   6.887
14065SOL     OW60881   4.764   5.313   7.656
14065SOL    HW160882   4.856   5.306   7.619
14065SOL    HW260883   4.716   5.227   7.643
14066SOL     OW60884   5.648   6.280   7.338
14066SOL    HW160885   5.625   6.291   7.434
14066SOL    HW260886   5.685   6.365   7.302
14067SOL     OW60887   3.163   4.414   7.809
14067SOL    HW160888   3.125   4.448   7.723
14067SOL    HW260889   3.263   4.413   7.804
14068SOL     OW60890   2.417   6.001   7.940
14068SOL    HW160891   2.433   6.100   7.943
14068SOL    HW260892   2.432   5.963   8.031
14069SOL     OW60893   5.785   8.116   0.116
14069SOL    HW160894   5.744   8.108   0.025
14069SOL    HW260895   5.840   8.200   0.121
14070SOL     OW60896   3.357   4.361   6.861
14070SOL    HW160897   3.257   4.357   6.860
14070SOL    HW260898   3.393   4.276   6.822
14071SOL     OW60899   1.973   7.937   1.476
14071SOL    HW160900   2.070   7.922   1.492
14071SOL    HW260901   1.923   7.852   1.495
14072SOL     OW60902   6.864   5.191   8.172
14072SOL    HW160903   6.799   5.126   8.133
14072SOL    HW260904   6.934   5.212   8.103
14073SOL     OW60905   8.147   3.634   0.779
14073SOL    HW160906   8.203   3.551   0.783
14073SOL    HW260907   8.202   3.710   0.745
14074SOL     OW60908   0.945   1.343   1.804
14074SOL    HW160909   0.866   1.310   1.857
14074SOL    HW260910   1.004   1.265   1.780
14075SOL     OW60911   2.867   8.190   7.603
14075SOL    HW160912   2.808   8.250   7.550
14075SOL    HW260913   2.813   8.116   7.643
14076SOL     OW60914   7.508   3.067   7.086
14076SOL    HW160915   7.515   3.073   6.987
14076SOL    HW260916   7.560   3.141   7.128
14077SOL     OW60917   2.520   2.268   6.647
14077SOL    HW160918   2.497   2.337   6.579
14077SOL    HW260919   2.524   2.178   6.603
14078SOL     OW60920   5.678   6.541   1.847
14078SOL    HW160921   5.727   6.604   1.787
14078SOL    HW260922   5.581   6.540   1.822
14079SOL     OW60923   2.214   5.067   7.770
14079SOL    HW160924   2.117   5.089   7.765
14079SOL    HW260925   2.266   5.135   7.718
14080SOL     OW60926   4.115   5.104   1.453
14080SOL    HW160927   4.094   5.184   1.396
14080SOL    HW260928   4.212   5.105   1.477
14081SOL     OW60929   2.842   3.404   8.643
14081SOL    HW160930   2.880   3.315   8.667
14081SOL    HW260931   2.840   3.413   8.543
14082SOL     OW60932   9.030   0.416   6.463
14082SOL    HW160933   9.046   0.464   6.376
14082SOL    HW260934   8.999   0.323   6.445
14083SOL     OW60935   8.393   6.586   8.757
14083SOL    HW160936   8.454   6.538   0.037
14083SOL    HW260937   8.376   6.678   0.009
14084SOL     OW60938   0.910   0.542   7.282
14084SOL    HW160939   0.855   0.571   7.361
14084SOL    HW260940   0.929   0.621   7.224
14085SOL     OW60941   9.998   1.984   1.916
14085SOL    HW160942  10.059   1.955   1.989
14085SOL    HW260943  10.045   1.976   1.828
14086SOL     OW60944   2.311  10.184   2.133
14086SOL    HW160945   2.303  10.271   2.182
14086SOL    HW260946   2.222  10.139   2.128
14087SOL     OW60947   7.979   5.521   1.130
14087SOL    HW160948   7.964   5.620   1.130
14087SOL    HW260949   7.961   5.484   1.039
14088SOL     OW60950   6.500   6.268   7.393
14088SOL    HW160951   6.487   6.230   7.301
14088SOL    HW260952   6.596   6.295   7.404
14089SOL     OW60953   6.564  10.125   0.840
14089SOL    HW160954   6.635  10.094   0.777
14089SOL    HW260955   6.570  10.074   0.926
14090SOL     OW60956   3.640   4.265   8.642
14090SOL    HW160957   3.559   4.214   8.671
14090SOL    HW260958   3.615   4.331   8.572
14091SOL     OW60959   7.935   8.895   1.759
14091SOL    HW160960   7.987   8.948   1.826
14091SOL    HW260961   7.861   8.846   1.806
14092SOL     OW60962   4.906   9.310   8.550
14092SOL    HW160963   5.004   9.318   8.569
14092SOL    HW260964   4.872   9.225   8.590
14093SOL     OW60965   5.874   6.205   6.929
14093SOL    HW160966   5.898   6.198   6.833
14093SOL    HW260967   5.829   6.293   6.946
14094SOL     OW60968   2.944   8.731   7.784
14094SOL    HW160969   2.921   8.663   7.715
14094SOL    HW260970   2.886   8.716   7.865
14095SOL     OW60971   8.184   2.154   8.095
14095SOL    HW160972   8.197   2.227   8.162
14095SOL    HW260973   8.184   2.192   8.003
14096SOL     OW60974   9.018   8.600   1.055
14096SOL    HW160975   9.087   8.601   1.126
14096SOL    HW260976   8.927   8.610   1.096
14097SOL     OW60977   0.272   8.131   7.673
14097SOL    HW160978   0.192   8.190   7.663
14097SOL    HW260979   0.271   8.088   7.763
14098SOL     OW60980  10.155   8.546   0.320
14098SOL    HW160981   0.083   8.598   0.331
14098SOL    HW260982  10.119   8.560   0.228
14099SOL     OW60983   7.986   0.119   2.222
14099SOL    HW160984   7.926   0.172   2.282
14099SOL    HW260985   8.030   0.045   2.274
14100SOL     OW60986   2.156   8.911   1.429
14100SOL    HW160987   2.076   8.884   1.482
14100SOL    HW260988   2.211   8.975   1.482
14101SOL     OW60989   2.706   4.912   7.385
14101SOL    HW160990   2.734   4.854   7.308
14101SOL    HW260991   2.669   4.998   7.350
14102SOL     OW60992   9.079   8.349   7.385
14102SOL    HW160993   9.090   8.438   7.430
14102SOL    HW260994   8.987   8.343   7.346
14103SOL     OW60995   9.129   8.254   0.287
14103SOL    HW160996   9.198   8.326   0.277
14103SOL    HW260997   9.042   8.286   0.250
14104SOL     OW60998   4.878   7.345   8.089
14104SOL    HW160999   4.805   7.353   8.157
14104SOL    HW261000   4.967   7.343   8.135
14105SOL     OW61001   8.203   5.049   7.290
14105SOL    HW161002   8.259   5.084   7.365
14105SOL    HW261003   8.200   5.116   7.216
14106SOL     OW61004   9.168   7.570   1.409
14106SOL    HW161005   9.127   7.498   1.466
14106SOL    HW261006   9.099   7.605   1.345
14107SOL     OW61007   4.956   6.520   0.664
14107SOL    HW161008   4.999   6.587   0.724
14107SOL    HW261009   4.952   6.557   0.571
14108SOL     OW61010   5.659   9.581   1.682
14108SOL    HW161011   5.738   9.555   1.626
14108SOL    HW261012   5.650   9.517   1.758
14109SOL     OW61013   5.392   9.976   7.605
14109SOL    HW161014   5.351   9.897   7.559
14109SOL    HW261015   5.445   9.944   7.684
14110SOL     OW61016   9.011   2.773   1.385
14110SOL    HW161017   8.937   2.710   1.364
14110SOL    HW261018   9.012   2.793   1.483
14111SOL     OW61019   0.506   9.472   8.262
14111SOL    HW161020   0.476   9.549   8.206
14111SOL    HW261021   0.603   9.484   8.285
14112SOL     OW61022   1.115   8.776   1.773
14112SOL    HW161023   1.168   8.694   1.795
14112SOL    HW261024   1.034   8.779   1.832
14113SOL     OW61025   4.908   6.315   0.393
14113SOL    HW161026   4.833   6.272   0.342
14113SOL    HW261027   4.952   6.246   0.451
14114SOL     OW61028   6.739   3.298   1.947
14114SOL    HW161029   6.693   3.365   2.005
14114SOL    HW261030   6.744   3.210   1.995
14115SOL     OW61031   0.255   9.315   7.645
14115SOL    HW161032   0.239   9.266   7.560
14115SOL    HW261033   0.205   9.271   7.719
14116SOL     OW61034   1.242   4.655   7.409
14116SOL    HW161035   1.188   4.651   7.325
14116SOL    HW261036   1.191   4.610   7.483
14117SOL     OW61037   6.462  10.261   6.814
14117SOL    HW161038   6.428  10.208   6.737
14117SOL    HW261039   6.556  10.236   6.834
14118SOL     OW61040   1.044   6.025   8.332
14118SOL    HW161041   1.025   6.122   8.341
14118SOL    HW261042   0.958   5.974   8.335
14119SOL     OW61043   2.449   8.015   0.933
14119SOL    HW161044   2.366   8.029   0.988
14119SOL    HW261045   2.423   8.009   0.836
14120SOL     OW61046   3.974   5.305   6.738
14120SOL    HW161047   3.925   5.317   6.824
14120SOL    HW261048   4.064   5.348   6.744
14121SOL     OW61049   9.403   1.948   7.085
14121SOL    HW161050   9.323   1.995   7.122
14121SOL    HW261051   9.378   1.904   6.998
14122SOL     OW61052   7.759   7.095   0.150
14122SOL    HW161053   7.660   7.112   0.145
14122SOL    HW261054   7.783   7.064   0.242
14123SOL     OW61055   7.536   8.990   0.145
14123SOL    HW161056   7.594   9.018   0.221
14123SOL    HW261057   7.455   8.943   0.180
14124SOL     OW61058   8.250   3.152   0.678
14124SOL    HW161059   8.187   3.171   0.603
14124SOL    HW261060   8.259   3.234   0.735
14125SOL     OW61061   2.837   7.816   6.599
14125SOL    HW161062   2.929   7.837   6.630
14125SOL    HW261063   2.809   7.881   6.529
14126SOL     OW61064   6.854   6.730   1.639
14126SOL    HW161065   6.893   6.809   1.687
14126SOL    HW261066   6.786   6.686   1.698
14127SOL     OW61067   9.373   5.548   7.640
14127SOL    HW161068   9.389   5.543   7.541
14127SOL    HW261069   9.455   5.583   7.685
14128SOL     OW61070   5.910   6.863   0.206
14128SOL    HW161071   5.892   6.949   0.253
14128SOL    HW261072   5.828   6.834   0.156
14129SOL     OW61073   6.214   3.461   7.637
14129SOL    HW161074   6.188   3.553   7.667
14129SOL    HW261075   6.306   3.463   7.599
14130SOL     OW61076   9.617   6.628   0.168
14130SOL    HW161077   9.578   6.719   0.153
14130SOL    HW261078   9.714   6.630   0.145
14131SOL     OW61079   6.852   8.818   1.628
14131SOL    HW161080   6.876   8.778   1.539
14131SOL    HW261081   6.935   8.846   1.675
14132SOL     OW61082   3.761   0.535   0.283
14132SOL    HW161083   3.754   0.436   0.277
14132SOL    HW261084   3.827   0.568   0.216
14133SOL     OW61085   2.846   1.080   8.560
14133SOL    HW161086   2.766   1.128   8.525
14133SOL    HW261087   2.830   0.981   8.555
14134SOL     OW61088   5.949   0.791   0.171
14134SOL    HW161089   6.010   0.712   0.169
14134SOL    HW261090   5.861   0.767   0.132
14135SOL     OW61091   6.939   4.062   8.448
14135SOL    HW161092   6.859   4.004   8.439
14135SOL    HW261093   6.942   4.101   8.540
14136SOL     OW61094   9.679   0.568   8.062
14136SOL    HW161095   9.696   0.569   8.160
14136SOL    HW261096   9.595   0.618   8.042
14137SOL     OW61097   2.204   0.764   1.426
14137SOL    HW161098   2.205   0.765   1.526
14137SOL    HW261099   2.139   0.833   1.393
14138SOL     OW61100   4.443   4.167   7.655
14138SOL    HW161101   4.493   4.165   7.742
14138SOL    HW261102   4.479   4.241   7.598
14139SOL     OW61103   0.560   6.207   0.934
14139SOL    HW161104   0.549   6.199   0.835
14139SOL    HW261105   0.481   6.255   0.973
14140SOL     OW61106   0.020   7.916   7.974
14140SOL    HW161107   0.031   7.857   8.054
14140SOL    HW261108  10.155   7.861   7.894
14141SOL     OW61109   0.726   0.967   7.446
14141SOL    HW161110   0.733   0.916   7.532
14141SOL    HW261111   0.645   1.025   7.448
14142SOL     OW61112   1.911   6.220   8.374
14142SOL    HW161113   1.986   6.282   8.352
14142SOL    HW261114   1.834   6.273   8.412
14143SOL     OW61115   1.124   8.506   7.769
14143SOL    HW161116   1.162   8.595   7.746
14143SOL    HW261117   1.088   8.508   7.862
14144SOL     OW61118   7.879   1.128   0.908
14144SOL    HW161119   7.878   1.134   0.808
14144SOL    HW261120   7.969   1.153   0.943
14145SOL     OW61121   0.368   7.249   7.829
14145SOL    HW161122   0.392   7.177   7.764
14145SOL    HW261123   0.449   7.302   7.852
14146SOL     OW61124   4.543  10.256   6.326
14146SOL    HW161125   4.451  10.222   6.308
14146SOL    HW261126   4.551  10.350   6.294
14147SOL     OW61127   5.495   8.504   0.656
14147SOL    HW161128   5.420   8.440   0.670
14147SOL    HW261129   5.460   8.590   0.620
14148SOL     OW61130   7.668   1.009   8.379
14148SOL    HW161131   7.686   0.985   8.284
14148SOL    HW261132   7.728   0.956   8.439
14149SOL     OW61133   7.297   1.641   8.456
14149SOL    HW161134   7.329   1.659   8.549
14149SOL    HW261135   7.375   1.649   8.393
14150SOL     OW61136   5.510   0.064   7.489
14150SOL    HW161137   5.567   0.146   7.486
14150SOL    HW261138   5.543  10.502   7.421
14151SOL     OW61139   7.800   7.329   8.543
14151SOL    HW161140   7.883   7.289   8.503
14151SOL    HW261141   7.720   7.296   8.493
14152SOL     OW61142   9.079   9.749   8.616
14152SOL    HW161143   9.123   9.747   8.706
14152SOL    HW261144   9.106   9.833   8.569
14153SOL     OW61145   3.246   0.682   7.291
14153SOL    HW161146   3.310   0.746   7.333
14153SOL    HW261147   3.271   0.668   7.196
14154SOL     OW61148   7.321  10.450   8.025
14154SOL    HW161149   7.396  10.400   8.069
14154SOL    HW261150   7.335  10.453   7.927
14155SOL     OW61151   9.004   8.616   8.440
14155SOL    HW161152   9.013   8.595   8.342
14155SOL    HW261153   8.907   8.618   8.465
14156SOL     OW61154   7.883   2.306   1.233
14156SOL    HW161155   7.841   2.222   1.266
14156SOL    HW261156   7.814   2.362   1.186
14157SOL     OW61157   1.108   5.570   6.954
14157SOL    HW161158   1.126   5.542   6.860
14157SOL    HW261159   1.115   5.490   7.014
14158SOL     OW61160   3.039   1.939   0.056
14158SOL    HW161161   3.120   1.919   0.002
14158SOL    HW261162   2.972   1.865   0.044
14159SOL     OW61163   0.223   0.821   1.545
14159SOL    HW161164   0.170   0.820   1.460
14159SOL    HW261165   0.317   0.847   1.526
14160SOL     OW61166   3.147   5.203   7.645
14160SOL    HW161167   3.124   5.146   7.566
14160SOL    HW261168   3.095   5.288   7.640
14161SOL     OW61169   0.630   7.036   6.086
14161SOL    HW161170   0.624   6.953   6.031
14161SOL    HW261171   0.699   7.024   6.157
14162SOL     OW61172   3.396   2.187   6.825
14162SOL    HW161173   3.479   2.243   6.813
14162SOL    HW261174   3.327   2.241   6.873
14163SOL     OW61175   9.231   0.523   7.986
14163SOL    HW161176   9.252   0.434   7.944
14163SOL    HW261177   9.145   0.557   7.950
14164SOL     OW61178   5.409   4.302   7.905
14164SOL    HW161179   5.364   4.236   7.965
14164SOL    HW261180   5.365   4.392   7.916
14165SOL     OW61181   9.408   0.864   1.963
14165SOL    HW161182   9.389   0.768   1.985
14165SOL    HW261183   9.366   0.922   2.032
14166SOL     OW61184   9.334  10.254   1.704
14166SOL    HW161185   9.300  10.174   1.655
14166SOL    HW261186   9.385  10.224   1.785
14167SOL     OW61187   7.435  10.146   0.950
14167SOL    HW161188   7.531  10.170   0.939
14167SOL    HW261189   7.391  10.213   1.010
14168SOL     OW61190   1.870   0.490   7.473
14168SOL    HW161191   1.882   0.512   7.376
14168SOL    HW261192   1.862   0.575   7.525
14169SOL     OW61193   9.804  10.383   1.059
14169SOL    HW161194   9.885  10.374   1.000
14169SOL    HW261195   9.824  10.446   1.134
14170SOL     OW61196   1.014   2.584   8.376
14170SOL    HW161197   1.105   2.581   8.418
14170SOL    HW261198   0.977   2.677   8.384
14171SOL     OW61199   4.933   5.444   1.722
14171SOL    HW161200   4.983   5.370   1.766
14171SOL    HW261201   4.969   5.532   1.752
14172SOL     OW61202   0.248   2.473   1.357
14172SOL    HW161203   0.286   2.393   1.311
14172SOL    HW261204   0.271   2.469   1.455
14173SOL     OW61205   2.105   3.901   6.736
14173SOL    HW161206   2.068   3.812   6.708
14173SOL    HW261207   2.203   3.903   6.720
14174SOL     OW61208   5.077   2.518   8.290
14174SOL    HW161209   5.164   2.490   8.331
14174SOL    HW261210   5.090   2.603   8.239
14175SOL     OW61211   6.007   9.850   0.309
14175SOL    HW161212   5.929   9.881   0.256
14175SOL    HW261213   6.028   9.917   0.380
14176SOL     OW61214   7.160   4.471   7.580
14176SOL    HW161215   7.238   4.517   7.540
14176SOL    HW261216   7.089   4.538   7.602
14177SOL     OW61217   5.376   1.694   0.946
14177SOL    HW161218   5.348   1.637   0.869
14177SOL    HW261219   5.437   1.766   0.914
14178SOL     OW61220   7.632   4.906   1.493
14178SOL    HW161221   7.639   4.873   1.399
14178SOL    HW261222   7.585   4.994   1.494
14179SOL     OW61223   6.233   8.539   0.655
14179SOL    HW161224   6.277   8.505   0.738
14179SOL    HW261225   6.209   8.636   0.668
14180SOL     OW61226   2.212   2.098   6.143
14180SOL    HW161227   2.193   2.015   6.089
14180SOL    HW261228   2.188   2.178   6.089
14181SOL     OW61229   9.916   1.395   1.441
14181SOL    HW161230   9.820   1.380   1.467
14181SOL    HW261231   9.958   1.461   1.503
14182SOL     OW61232   9.888   7.172   0.130
14182SOL    HW161233   9.975   7.161   0.082
14182SOL    HW261234   9.842   7.083   0.135
14183SOL     OW61235   7.934   3.946   8.220
14183SOL    HW161236   7.938   4.040   8.253
14183SOL    HW261237   7.843   3.908   8.237
14184SOL     OW61238   7.267   6.904   6.462
14184SOL    HW161239   7.344   6.928   6.521
14184SOL    HW261240   7.198   6.977   6.467
14185SOL     OW61241   6.062   3.959   7.162
14185SOL    HW161242   6.114   4.001   7.088
14185SOL    HW261243   6.060   4.022   7.241
14186SOL     OW61244   3.390   6.431   7.087
14186SOL    HW161245   3.354   6.509   7.137
14186SOL    HW261246   3.478   6.456   7.045
14187SOL     OW61247   4.938   2.096   0.883
14187SOL    HW161248   5.034   2.093   0.854
14187SOL    HW261249   4.889   2.019   0.842
14188SOL     OW61250   4.515   2.051   6.426
14188SOL    HW161251   4.513   2.021   6.331
14188SOL    HW261252   4.495   2.149   6.430
14189SOL     OW61253   0.590   0.726   0.341
14189SOL    HW161254   0.655   0.686   0.276
14189SOL    HW261255   0.497   0.702   0.315
14190SOL     OW61256   6.725   0.690   7.715
14190SOL    HW161257   6.812   0.739   7.708
14190SOL    HW261258   6.711   0.633   7.634
14191SOL     OW61259   6.977   0.863   7.358
14191SOL    HW161260   6.961   0.765   7.357
14191SOL    HW261261   6.891   0.911   7.340
14192SOL     OW61262   6.004   5.177   6.902
14192SOL    HW161263   6.051   5.213   6.821
14192SOL    HW261264   5.909   5.157   6.878
14193SOL     OW61265   4.638   0.614   0.600
14193SOL    HW161266   4.640   0.581   0.694
14193SOL    HW261267   4.723   0.588   0.554
14194SOL     OW61268   9.819   7.201   7.367
14194SOL    HW161269   9.867   7.223   7.452
14194SOL    HW261270   9.766   7.281   7.338
14195SOL     OW61271   2.853   9.335   0.743
14195SOL    HW161272   2.936   9.311   0.692
14195SOL    HW261273   2.816   9.252   0.786
14196SOL     OW61274   6.464   5.968   6.305
14196SOL    HW161275   6.517   5.910   6.243
14196SOL    HW261276   6.397   6.020   6.253
14197SOL     OW61277   7.555   5.263   5.952
14197SOL    HW161278   7.626   5.317   5.907
14197SOL    HW261279   7.572   5.166   5.936
14198SOL     OW61280   3.175   8.627   7.052
14198SOL    HW161281   3.193   8.725   7.058
14198SOL    HW261282   3.140   8.594   7.139
14199SOL     OW61283   8.961   8.749   7.329
14199SOL    HW161284   8.999   8.674   7.382
14199SOL    HW261285   8.987   8.836   7.371
14200SOL     OW61286   8.135   6.739   8.359
14200SOL    HW161287   8.113   6.656   8.310
14200SOL    HW261288   8.090   6.739   8.448
14201SOL     OW61289   8.624   3.782   6.281
14201SOL    HW161290   8.620   3.683   6.287
14201SOL    HW261291   8.684   3.808   6.205
14202SOL     OW61292   4.351   6.696   1.585
14202SOL    HW161293   4.340   6.783   1.537
14202SOL    HW261294   4.439   6.697   1.633
14203SOL     OW61295   3.567   5.992   8.261
14203SOL    HW161296   3.634   6.059   8.228
14203SOL    HW261297   3.543   6.014   8.355
14204SOL     OW61298   9.068   2.623   7.095
14204SOL    HW161299   9.094   2.569   7.175
14204SOL    HW261300   8.974   2.599   7.068
14205SOL     OW61301   7.367   4.370   8.034
14205SOL    HW161302   7.370   4.363   7.935
14205SOL    HW261303   7.324   4.288   8.072
14206SOL     OW61304   4.182   8.727   0.340
14206SOL    HW161305   4.179   8.746   0.241
14206SOL    HW261306   4.123   8.649   0.360
14207SOL     OW61307   4.472   8.949   8.210
14207SOL    HW161308   4.553   8.986   8.164
14207SOL    HW261309   4.404   8.922   8.141
14208SOL     OW61310   6.134   7.957   1.826
14208SOL    HW161311   6.079   8.040   1.828
14208SOL    HW261312   6.117   7.904   1.909
14209SOL     OW61313   0.593   3.421   7.686
14209SOL    HW161314   0.543   3.508   7.692
14209SOL    HW261315   0.530   3.347   7.666
14210SOL     OW61316   9.901   9.160   8.488
14210SOL    HW161317   9.869   9.227   8.555
14210SOL    HW261318   9.960   9.205   8.421
14211SOL     OW61319   4.586   7.159   6.574
14211SOL    HW161320   4.670   7.121   6.537
14211SOL    HW261321   4.600   7.255   6.597
14212SOL     OW61322   4.222   9.651   1.392
14212SOL    HW161323   4.201   9.687   1.484
14212SOL    HW261324   4.141   9.604   1.356
14213SOL     OW61325   9.904  10.465   0.231
14213SOL    HW161326   9.821  10.416   0.204
14213SOL    HW261327   9.948  10.417   0.306
14214SOL     OW61328   9.552   3.557   7.113
14214SOL    HW161329   9.568   3.651   7.082
14214SOL    HW261330   9.503   3.506   7.042
14215SOL     OW61331   1.701   1.713   7.627
14215SOL    HW161332   1.664   1.740   7.716
14215SOL    HW261333   1.629   1.721   7.558
14216SOL     OW61334   9.220  10.040   0.951
14216SOL    HW161335   9.146  10.012   1.012
14216SOL    HW261336   9.287  10.094   1.001
14217SOL     OW61337   6.647   7.762   7.723
14217SOL    HW161338   6.694   7.711   7.795
14217SOL    HW261339   6.548   7.756   7.737
14218SOL     OW61340   4.878   9.936   7.031
14218SOL    HW161341   4.835   9.856   7.073
14218SOL    HW261342   4.854   9.940   6.934
14219SOL     OW61343   1.136   2.337   8.294
14219SOL    HW161344   1.143   2.297   8.203
14219SOL    HW261345   1.086   2.424   8.289
14220SOL     OW61346   3.478   1.998   0.928
14220SOL    HW161347   3.445   1.913   0.968
14220SOL    HW261348   3.519   1.979   0.838
14221SOL     OW61349   6.209   7.248   0.827
14221SOL    HW161350   6.152   7.177   0.868
14221SOL    HW261351   6.151   7.326   0.801
14222SOL     OW61352   7.554   9.699   0.553
14222SOL    HW161353   7.653   9.701   0.543
14222SOL    HW261354   7.512   9.701   0.462
14223SOL     OW61355   2.486   3.669   6.917
14223SOL    HW161356   2.547   3.635   6.989
14223SOL    HW261357   2.413   3.723   6.959
14224SOL     OW61358   6.652   2.997   1.282
14224SOL    HW161359   6.570   3.053   1.293
14224SOL    HW261360   6.662   2.971   1.186
14225SOL     OW61361   3.294   7.420   0.938
14225SOL    HW161362   3.336   7.467   1.016
14225SOL    HW261363   3.195   7.435   0.939
14226SOL     OW61364   0.182   0.491   1.298
14226SOL    HW161365   0.088   0.525   1.309
14226SOL    HW261366   0.241   0.567   1.271
14227SOL     OW61367   4.626   2.877   0.834
14227SOL    HW161368   4.590   2.912   0.747
14227SOL    HW261369   4.669   2.952   0.884
14228SOL     OW61370   9.887   2.713   8.082
14228SOL    HW161371   9.957   2.764   8.133
14228SOL    HW261372   9.902   2.725   7.984
14229SOL     OW61373   6.111   5.657   8.723
14229SOL    HW161374   6.169   5.682   0.018
14229SOL    HW261375   6.015   5.656   8.752
14230SOL     OW61376   4.805   4.472   8.595
14230SOL    HW161377   4.789   4.529   8.676
14230SOL    HW261378   4.903   4.469   8.576
14231SOL     OW61379   2.889   7.154   1.251
14231SOL    HW161380   2.805   7.107   1.278
14231SOL    HW261381   2.968   7.109   1.293
14232SOL     OW61382   5.630   8.056   6.508
14232SOL    HW161383   5.710   8.080   6.563
14232SOL    HW261384   5.614   7.958   6.516
14233SOL     OW61385   0.659   1.986   0.764
14233SOL    HW161386   0.618   1.966   0.853
14233SOL    HW261387   0.721   1.912   0.738
14234SOL     OW61388   8.406   4.669   7.277
14234SOL    HW161389   8.386   4.753   7.227
14234SOL    HW261390   8.322   4.634   7.318
14235SOL     OW61391   4.086   2.023   8.171
14235SOL    HW161392   4.148   2.096   8.199
14235SOL    HW261393   4.112   1.938   8.218
14236SOL     OW61394   0.934   9.877   0.084
14236SOL    HW161395   0.961   9.968   0.051
14236SOL    HW261396   0.867   9.888   0.158
14237SOL     OW61397   7.450   1.085   8.718
14237SOL    HW161398   7.433   1.120   0.028
14237SOL    HW261399   7.539   1.041   8.715
14238SOL     OW61400   2.427   7.134   2.064
14238SOL    HW161401   2.336   7.097   2.083
14238SOL    HW261402   2.461   7.181   2.145
14239SOL     OW61403   5.238   3.648   0.486
14239SOL    HW161404   5.158   3.707   0.478
14239SOL    HW261405   5.308   3.678   0.422
14240SOL     OW61406   1.230   0.888   7.185
14240SOL    HW161407   1.146   0.840   7.161
14240SOL    HW261408   1.211   0.986   7.195
14241SOL     OW61409   7.182   9.502   7.796
14241SOL    HW161410   7.109   9.439   7.770
14241SOL    HW261411   7.265   9.451   7.817
14242SOL     OW61412   9.066   4.181   0.507
14242SOL    HW161413   9.128   4.116   0.553
14242SOL    HW261414   9.064   4.267   0.558
14243SOL     OW61415   1.632   6.152   7.070
14243SOL    HW161416   1.663   6.161   6.976
14243SOL    HW261417   1.563   6.080   7.076
14244SOL     OW61418   0.709   8.493   6.913
14244SOL    HW161419   0.757   8.445   6.839
14244SOL    HW261420   0.626   8.443   6.936
14245SOL     OW61421   3.724   6.178   8.107
14245SOL    HW161422   3.645   6.209   8.053
14245SOL    HW261423   3.739   6.242   8.183
14246SOL     OW61424   9.715   5.252   7.581
14246SOL    HW161425   9.704   5.305   7.497
14246SOL    HW261426   9.752   5.162   7.559
14247SOL     OW61427   0.502  10.465   7.265
14247SOL    HW161428   0.540   0.053   7.244
14247SOL    HW261429   0.554  10.396   7.216
14248SOL     OW61430   5.716   2.940   7.401
14248SOL    HW161431   5.619   2.965   7.410
14248SOL    HW261432   5.767   3.019   7.366
14249SOL     OW61433   5.546   4.210   1.047
14249SOL    HW161434   5.542   4.227   1.146
14249SOL    HW261435   5.460   4.169   1.017
14250SOL     OW61436   7.530   5.234   7.417
14250SOL    HW161437   7.598   5.164   7.437
14250SOL    HW261438   7.576   5.318   7.388
14251SOL     OW61439   3.504   7.534   0.479
14251SOL    HW161440   3.468   7.474   0.551
14251SOL    HW261441   3.436   7.605   0.458
14252SOL     OW61442   5.218   9.730   7.230
14252SOL    HW161443   5.235   9.743   7.328
14252SOL    HW261444   5.302   9.703   7.184
14253SOL     OW61445   6.035   3.452   0.708
14253SOL    HW161446   6.036   3.460   0.609
14253SOL    HW261447   6.025   3.542   0.749
14254SOL     OW61448   2.413   4.284   6.589
14254SOL    HW161449   2.386   4.206   6.532
14254SOL    HW261450   2.351   4.291   6.667
14255SOL     OW61451   8.591   5.049   7.114
14255SOL    HW161452   8.521   4.978   7.119
14255SOL    HW261453   8.580   5.113   7.190
14256SOL     OW61454   8.585   7.077   8.595
14256SOL    HW161455   8.592   7.039   8.687
14256SOL    HW261456   8.568   7.175   8.601
14257SOL     OW61457   6.505   8.417   8.068
14257SOL    HW161458   6.509   8.332   8.016
14257SOL    HW261459   6.476   8.397   8.162
14258SOL     OW61460   6.474   3.211   0.918
14258SOL    HW161461   6.513   3.251   1.001
14258SOL    HW261462   6.389   3.258   0.895
14259SOL     OW61463   3.331   1.244   8.316
14259SOL    HW161464   3.410   1.224   8.258
14259SOL    HW261465   3.293   1.333   8.293
14260SOL     OW61466   0.805   9.560   0.406
14260SOL    HW161467   0.874   9.611   0.457
14260SOL    HW261468   0.848   9.485   0.357
14261SOL     OW61469   0.565   9.677   0.464
14261SOL    HW161470   0.493   9.668   0.395
14261SOL    HW261471   0.650   9.640   0.428
14262SOL     OW61472   8.801   3.874   6.080
14262SOL    HW161473   8.875   3.941   6.078
14262SOL    HW261474   8.724   3.907   6.025
14263SOL     OW61475   5.560   9.693   0.048
14263SOL    HW161476   5.586   9.742   8.747
14263SOL    HW261477   5.471   9.726   0.080
14264SOL     OW61478   6.178   3.658   2.683
14264SOL    HW161479   6.278   3.655   2.691
14264SOL    HW261480   6.139   3.581   2.734
14265SOL     OW61481   7.436   1.257   0.794
14265SOL    HW161482   7.378   1.301   0.862
14265SOL    HW261483   7.532   1.272   0.817
14266SOL     OW61484   9.790   3.291   7.358
14266SOL    HW161485   9.870   3.297   7.299
14266SOL    HW261486   9.754   3.198   7.355
14267SOL     OW61487   2.632   4.114   1.011
14267SOL    HW161488   2.621   4.184   0.940
14267SOL    HW261489   2.652   4.026   0.969
14268SOL     OW61490   5.879   3.278   0.860
14268SOL    HW161491   5.821   3.221   0.801
14268SOL    HW261492   5.931   3.342   0.803
14269SOL     OW61493   9.803   4.649   7.410
14269SOL    HW161494   9.718   4.615   7.450
14269SOL    HW261495   9.849   4.575   7.361
14270SOL     OW61496   1.075   0.553   6.761
14270SOL    HW161497   1.135   0.485   6.718
14270SOL    HW261498   1.129   0.632   6.791
14271SOL     OW61499   1.175   8.198   1.517
14271SOL    HW161500   1.183   8.098   1.525
14271SOL    HW261501   1.103   8.220   1.451
14272SOL     OW61502   3.659   6.528   1.800
14272SOL    HW161503   3.668   6.620   1.840
14272SOL    HW261504   3.722   6.518   1.724
14273SOL     OW61505   5.523   7.658   0.063
14273SOL    HW161506   5.589   7.732   0.076
14273SOL    HW261507   5.559   7.573   0.100
14274SOL     OW61508   5.722   4.227   8.773
14274SOL    HW161509   5.779   4.149   8.749
14274SOL    HW261510   5.640   4.195   0.039
14275SOL     OW61511   1.045   5.177   8.749
14275SOL    HW161512   1.125   5.186   0.026
14275SOL    HW261513   0.988   5.259   8.758
14276SOL     OW61514   7.309   7.395   0.908
14276SOL    HW161515   7.381   7.465   0.902
14276SOL    HW261516   7.315   7.336   0.828
14277SOL     OW61517   3.715   7.986   6.421
14277SOL    HW161518   3.700   7.967   6.325
14277SOL    HW261519   3.632   7.965   6.473
14278SOL     OW61520   3.901   3.718   0.416
14278SOL    HW161521   3.924   3.767   0.500
14278SOL    HW261522   3.982   3.707   0.359
14279SOL     OW61523   5.118   1.677   7.345
14279SOL    HW161524   5.115   1.752   7.411
14279SOL    HW261525   5.133   1.591   7.392
14280SOL     OW61526   4.243   8.325   1.642
14280SOL    HW161527   4.209   8.412   1.678
14280SOL    HW261528   4.188   8.250   1.678
14281SOL     OW61529   7.414   5.622   6.682
14281SOL    HW161530   7.378   5.710   6.713
14281SOL    HW261531   7.489   5.594   6.741
14282SOL     OW61532   2.358   7.136   1.572
14282SOL    HW161533   2.457   7.151   1.567
14282SOL    HW261534   2.315   7.172   1.490
14283SOL     OW61535   0.830   5.021   0.040
14283SOL    HW161536   0.909   5.067   0.000
14283SOL    HW261537   0.766   5.089   0.077
14284SOL     OW61538   3.006   3.220   7.080
14284SOL    HW161539   2.958   3.134   7.067
14284SOL    HW261540   3.051   3.220   7.170
14285SOL     OW61541   0.483   4.143   6.703
14285SOL    HW161542   0.575   4.165   6.735
14285SOL    HW261543   0.448   4.218   6.647
14286SOL     OW61544   9.991   5.482   1.961
14286SOL    HW161545  10.031   5.466   2.052
14286SOL    HW261546   9.989   5.396   1.910
14287SOL     OW61547   5.158   8.384   8.758
14287SOL    HW161548   5.109   8.362   0.060
14287SOL    HW261549   5.215   8.464   8.773
14288SOL     OW61550   1.829   1.165   0.536
14288SOL    HW161551   1.776   1.179   0.620
14288SOL    HW261552   1.925   1.187   0.553
14289SOL     OW61553   2.710   7.728   0.204
14289SOL    HW161554   2.731   7.652   0.143
14289SOL    HW261555   2.710   7.697   0.299
14290SOL     OW61556   4.726   2.921   1.196
14290SOL    HW161557   4.744   2.830   1.158
14290SOL    HW261558   4.808   2.954   1.242
14291SOL     OW61559   5.517   9.623   7.433
14291SOL    HW161560   5.535   9.527   7.457
14291SOL    HW261561   5.603   9.673   7.432
14292SOL     OW61562   3.598   3.548   7.390
14292SOL    HW161563   3.516   3.530   7.444
14292SOL    HW261564   3.594   3.642   7.355
14293SOL     OW61565   1.874   3.640   7.197
14293SOL    HW161566   1.789   3.594   7.224
14293SOL    HW261567   1.917   3.679   7.278
14294SOL     OW61568   5.768   6.004   8.562
14294SOL    HW161569   5.745   5.976   8.656
14294SOL    HW261570   5.754   6.102   8.552
14295SOL     OW61571   5.098   0.941   6.980
14295SOL    HW161572   5.148   0.953   7.065
14295SOL    HW261573   5.089   0.843   6.960
14296SOL     OW61574   7.332   1.366   1.346
14296SOL    HW161575   7.319   1.463   1.365
14296SOL    HW261576   7.421   1.351   1.304
14297SOL     OW61577   7.271   4.458   0.340
14297SOL    HW161578   7.217   4.402   0.277
14297SOL    HW261579   7.333   4.400   0.392
14298SOL     OW61580   6.003   0.737   7.687
14298SOL    HW161581   5.931   0.795   7.648
14298SOL    HW261582   6.088   0.789   7.691
14299SOL     OW61583   1.161   6.541   0.640
14299SOL    HW161584   1.218   6.527   0.559
14299SOL    HW261585   1.065   6.522   0.617
14300SOL     OW61586   8.735   4.567   8.622
14300SOL    HW161587   8.689   4.571   8.533
14300SOL    HW261588   8.833   4.582   8.610
14301SOL     OW61589   2.446   9.441   0.919
14301SOL    HW161590   2.357   9.454   0.963
14301SOL    HW261591   2.483   9.530   0.891
14302SOL     OW61592   3.692   0.529   8.362
14302SOL    HW161593   3.758   0.475   8.415
14302SOL    HW261594   3.627   0.572   8.425
14303SOL     OW61595   6.267   3.032   7.728
14303SOL    HW161596   6.354   3.079   7.718
14303SOL    HW261597   6.281   2.933   7.720
14304SOL     OW61598   8.555   8.363   8.235
14304SOL    HW161599   8.596   8.306   8.164
14304SOL    HW261600   8.495   8.431   8.192
14305SOL     OW61601   5.724   6.085   6.659
14305SOL    HW161602   5.675   6.077   6.572
14305SOL    HW261603   5.778   6.169   6.659
14306SOL     OW61604   4.339   1.596   6.758
14306SOL    HW161605   4.409   1.532   6.790
14306SOL    HW261606   4.307   1.569   6.667
14307SOL     OW61607   7.796   2.728   1.060
14307SOL    HW161608   7.878   2.775   1.029
14307SOL    HW261609   7.761   2.771   1.142
14308SOL     OW61610   9.170   6.163   8.394
14308SOL    HW161611   9.244   6.228   8.414
14308SOL    HW261612   9.093   6.180   8.454
14309SOL     OW61613   4.370   6.371   7.728
14309SOL    HW161614   4.465   6.347   7.746
14309SOL    HW261615   4.310   6.305   7.773
14310SOL     OW61616   2.510   8.699   8.073
14310SOL    HW161617   2.515   8.609   8.117
14310SOL    HW261618   2.445   8.695   7.997
14311SOL     OW61619   5.286  10.446   6.858
14311SOL    HW161620   5.304  10.364   6.911
14311SOL    HW261621   5.215  10.500   6.903
14312SOL     OW61622   8.703   9.143   2.691
14312SOL    HW161623   8.647   9.179   2.766
14312SOL    HW261624   8.791   9.189   2.690
14313SOL     OW61625   5.087   4.479   0.889
14313SOL    HW161626   5.169   4.499   0.836
14313SOL    HW261627   5.091   4.385   0.923
14314SOL     OW61628   6.278   6.441   8.231
14314SOL    HW161629   6.300   6.443   8.328
14314SOL    HW261630   6.335   6.508   8.182
14315SOL     OW61631   7.346   7.974   8.034
14315SOL    HW161632   7.298   7.887   8.022
14315SOL    HW261633   7.300   8.028   8.104
14316SOL     OW61634   0.604   1.285   2.180
14316SOL    HW161635   0.576   1.380   2.194
14316SOL    HW261636   0.530   1.224   2.210
14317SOL     OW61637   4.187   0.382   8.494
14317SOL    HW161638   4.283   0.364   8.515
14317SOL    HW261639   4.138   0.295   8.487
14318SOL     OW61640   9.777   1.823   7.315
14318SOL    HW161641   9.682   1.843   7.338
14318SOL    HW261642   9.837   1.878   7.373
14319SOL     OW61643   4.463   0.386   8.549
14319SOL    HW161644   4.514   0.354   8.628
14319SOL    HW261645   4.460   0.486   8.549
14320SOL     OW61646   1.831   9.505   1.394
14320SOL    HW161647   1.795   9.465   1.309
14320SOL    HW261648   1.821   9.440   1.469
14321SOL     OW61649   1.280   7.114   7.358
14321SOL    HW161650   1.189   7.155   7.360
14321SOL    HW261651   1.340   7.164   7.420
14322SOL     OW61652   0.970   3.057   7.310
14322SOL    HW161653   0.905   3.016   7.374
14322SOL    HW261654   0.922   3.087   7.228
14323SOL     OW61655   4.131   8.163   6.872
14323SOL    HW161656   4.086   8.211   6.796
14323SOL    HW261657   4.155   8.070   6.843
14324SOL     OW61658   3.977   2.199   0.152
14324SOL    HW161659   3.973   2.108   0.110
14324SOL    HW261660   3.905   2.208   0.220
14325SOL     OW61661   5.062   8.435   6.854
14325SOL    HW161662   5.038   8.460   6.760
14325SOL    HW261663   5.016   8.497   6.918
14326SOL     OW61664   4.769   2.046   7.034
14326SOL    HW161665   4.761   1.973   7.102
14326SOL    HW261666   4.678   2.082   7.013
14327SOL     OW61667   4.682   6.074   1.039
14327SOL    HW161668   4.735   6.013   0.981
14327SOL    HW261669   4.690   6.045   1.134
14328SOL     OW61670   1.866   6.336   0.137
14328SOL    HW161671   1.816   6.422   0.145
14328SOL    HW261672   1.853   6.282   0.221
14329SOL     OW61673   2.161   7.259   7.496
14329SOL    HW161674   2.220   7.184   7.526
14329SOL    HW261675   2.083   7.222   7.446
14330SOL     OW61676   5.572   1.256   6.686
14330SOL    HW161677   5.522   1.339   6.710
14330SOL    HW261678   5.625   1.271   6.603
14331SOL     OW61679   3.801   2.808   8.421
14331SOL    HW161680   3.866   2.762   8.481
14331SOL    HW261681   3.729   2.743   8.395
14332SOL     OW61682   0.040   8.906   8.418
14332SOL    HW161683   0.096   8.830   8.383
14332SOL    HW261684   0.090   8.954   8.490
14333SOL     OW61685   1.773   9.216   7.178
14333SOL    HW161686   1.815   9.244   7.265
14333SOL    HW261687   1.747   9.297   7.126
14334SOL     OW61688   4.896   7.331   7.371
14334SOL    HW161689   4.830   7.359   7.302
14334SOL    HW261690   4.939   7.245   7.344
14335SOL     OW61691   9.191   1.574   2.188
14335SOL    HW161692   9.179   1.505   2.260
14335SOL    HW261693   9.220   1.660   2.230
14336SOL     OW61694   0.099   7.635   7.556
14336SOL    HW161695   0.078   7.540   7.531
14336SOL    HW261696   0.181   7.664   7.507
14337SOL     OW61697   0.566   6.757   8.064
14337SOL    HW161698   0.589   6.670   8.108
14337SOL    HW261699   0.481   6.793   8.104
14338SOL     OW61700   3.570   6.659   1.507
14338SOL    HW161701   3.497   6.683   1.571
14338SOL    HW261702   3.657   6.693   1.542
14339SOL     OW61703   2.722  10.036   0.976
14339SOL    HW161704   2.688   9.959   1.031
14339SOL    HW261705   2.692  10.025   0.881
14340SOL     OW61706   0.396   9.947   8.216
14340SOL    HW161707   0.324   9.955   8.284
14340SOL    HW261708   0.449  10.032   8.213
14341SOL     OW61709   2.601   5.148   1.914
14341SOL    HW161710   2.501   5.143   1.914
14341SOL    HW261711   2.638   5.070   1.964
14342SOL     OW61712   0.438   4.414   7.513
14342SOL    HW161713   0.472   4.359   7.437
14342SOL    HW261714   0.346   4.384   7.537
14343SOL     OW61715   6.610   8.129   0.635
14343SOL    HW161716   6.705   8.114   0.607
14343SOL    HW261717   6.563   8.184   0.566
14344SOL     OW61718   2.784   8.705   8.007
14344SOL    HW161719   2.685   8.712   8.020
14344SOL    HW261720   2.829   8.763   8.076
14345SOL     OW61721   9.558   2.127   8.712
14345SOL    HW161722   9.464   2.098   8.696
14345SOL    HW261723   9.582   2.199   8.647
14346SOL     OW61724   2.974   4.776   6.463
14346SOL    HW161725   2.913   4.842   6.420
14346SOL    HW261726   3.033   4.735   6.394
14347SOL     OW61727   6.579   3.713   7.097
14347SOL    HW161728   6.588   3.748   7.004
14347SOL    HW261729   6.540   3.621   7.095
14348SOL     OW61730   8.966   7.719   2.187
14348SOL    HW161731   8.928   7.744   2.276
14348SOL    HW261732   9.001   7.800   2.142
14349SOL     OW61733   3.508  10.433   6.496
14349SOL    HW161734   3.491  10.355   6.435
14349SOL    HW261735   3.425  10.487   6.505
14350SOL     OW61736   6.965   2.830   1.013
14350SOL    HW161737   7.003   2.780   1.090
14350SOL    HW261738   6.993   2.787   0.927
14351SOL     OW61739   6.150   9.663   7.663
14351SOL    HW161740   6.249   9.662   7.674
14351SOL    HW261741   6.107   9.678   7.753
14352SOL     OW61742   8.644   0.203   2.370
14352SOL    HW161743   8.636   0.107   2.345
14352SOL    HW261744   8.554   0.239   2.396
14353SOL     OW61745   6.501   1.493   0.138
14353SOL    HW161746   6.459   1.478   0.049
14353SOL    HW261747   6.597   1.466   0.135
14354SOL     OW61748   7.684   4.143   0.593
14354SOL    HW161749   7.776   4.113   0.568
14354SOL    HW261750   7.617   4.089   0.541
14355SOL     OW61751   8.438   2.076   0.752
14355SOL    HW161752   8.349   2.072   0.707
14355SOL    HW261753   8.426   2.109   0.846
14356SOL     OW61754   7.874   4.022   8.631
14356SOL    HW161755   7.827   4.110   8.631
14356SOL    HW261756   7.960   4.031   8.581
14357SOL     OW61757   1.303   4.966   0.039
14357SOL    HW161758   1.296   5.052   0.089
14357SOL    HW261759   1.326   4.984   8.725
14358SOL     OW61760   5.989   8.099   7.442
14358SOL    HW161761   6.005   8.182   7.391
14358SOL    HW261762   5.930   8.119   7.521
14359SOL     OW61763   9.493   2.792   0.360
14359SOL    HW161764   9.580   2.768   0.402
14359SOL    HW261765   9.499   2.780   0.261
14360SOL     OW61766   8.024   9.134   7.420
14360SOL    HW161767   8.056   9.053   7.370
14360SOL    HW261768   7.986   9.201   7.356
14361SOL     OW61769   2.210   8.643   1.162
14361SOL    HW161770   2.139   8.714   1.169
14361SOL    HW261771   2.191   8.571   1.228
14362SOL     OW61772   6.747   9.535   8.609
14362SOL    HW161773   6.691   9.611   8.643
14362SOL    HW261774   6.736   9.456   8.670
14363SOL     OW61775   8.426   7.049   8.359
14363SOL    HW161776   8.479   7.056   8.444
14363SOL    HW261777   8.467   7.105   8.288
14364SOL     OW61778   0.634   7.280   8.328
14364SOL    HW161779   0.618   7.344   8.403
14364SOL    HW261780   0.707   7.315   8.269
14365SOL     OW61781   7.667   4.791   6.116
14365SOL    HW161782   7.631   4.742   6.195
14365SOL    HW261783   7.766   4.776   6.110
14366SOL     OW61784   3.501   0.309   0.037
14366SOL    HW161785   3.503   0.403   0.071
14366SOL    HW261786   3.489   0.245   0.113
14367SOL     OW61787   7.695   9.006   8.355
14367SOL    HW161788   7.789   9.038   8.367
14367SOL    HW261789   7.697   8.914   8.316
14368SOL     OW61790   3.281   6.852   7.840
14368SOL    HW161791   3.194   6.838   7.793
14368SOL    HW261792   3.271   6.829   7.937
14369SOL     OW61793   1.772   5.977   6.654
14369SOL    HW161794   1.864   5.937   6.646
14369SOL    HW261795   1.754   6.034   6.574
14370SOL     OW61796   5.607   5.124   6.039
14370SOL    HW161797   5.621   5.172   5.952
14370SOL    HW261798   5.648   5.033   6.034
14371SOL     OW61799   7.525   1.412   8.421
14371SOL    HW161800   7.515   1.490   8.359
14371SOL    HW261801   7.497   1.328   8.374
14372SOL     OW61802   5.853   4.929   7.815
14372SOL    HW161803   5.949   4.903   7.807
14372SOL    HW261804   5.811   4.879   7.891
14373SOL     OW61805   5.008   9.042   1.013
14373SOL    HW161806   4.989   9.114   0.946
14373SOL    HW261807   4.978   9.071   1.104
14374SOL     OW61808  10.068   6.302   8.500
14374SOL    HW161809  10.032   6.249   8.423
14374SOL    HW261810   9.995   6.319   8.567
14375SOL     OW61811   6.582   3.101   1.604
14375SOL    HW161812   6.582   3.006   1.637
14375SOL    HW261813   6.531   3.106   1.518
14376SOL     OW61814   1.553   8.929   8.742
14376SOL    HW161815   1.521   8.853   0.017
14376SOL    HW261816   1.584   9.004   0.019
14377SOL     OW61817   2.906   8.527   7.589
14377SOL    HW161818   2.877   8.485   7.503
14377SOL    HW261819   2.995   8.490   7.615
14378SOL     OW61820   9.255   8.591   7.036
14378SOL    HW161821   9.332   8.654   7.038
14378SOL    HW261822   9.270   8.517   7.102
14379SOL     OW61823   3.739   2.523   6.107
14379SOL    HW161824   3.837   2.541   6.112
14379SOL    HW261825   3.695   2.593   6.050
14380SOL     OW61826   2.003   2.413   1.224
14380SOL    HW161827   2.013   2.476   1.147
14380SOL    HW261828   2.037   2.322   1.197
14381SOL     OW61829   8.964   6.189   8.575
14381SOL    HW161830   8.911   6.215   8.656
14381SOL    HW261831   8.960   6.089   8.565
14382SOL     OW61832   7.645   9.159   7.518
14382SOL    HW161833   7.691   9.155   7.606
14382SOL    HW261834   7.650   9.070   7.473
14383SOL     OW61835  10.037   1.492   7.733
14383SOL    HW161836  10.006   1.407   7.777
14383SOL    HW261837   9.963   1.528   7.676
14384SOL     OW61838   5.745   6.349   8.188
14384SOL    HW161839   5.756   6.256   8.152
14384SOL    HW261840   5.834   6.386   8.213
14385SOL     OW61841   8.982   2.589   1.716
14385SOL    HW161842   9.001   2.684   1.690
14385SOL    HW261843   8.944   2.539   1.638
14386SOL     OW61844   3.684   2.511   6.377
14386SOL    HW161845   3.679   2.418   6.415
14386SOL    HW261846   3.708   2.506   6.280
14387SOL     OW61847   8.759   5.002   8.754
14387SOL    HW161848   8.841   4.956   0.006
14387SOL    HW261849   8.779   5.099   8.737
14388SOL     OW61850   4.957   4.078   2.140
14388SOL    HW161851   4.866   4.053   2.173
14388SOL    HW261852   5.013   4.108   2.218
14389SOL     OW61853   5.621   5.255   7.103
14389SOL    HW161854   5.549   5.222   7.164
14389SOL    HW261855   5.704   5.274   7.155
14390SOL     OW61856   1.156   8.679   6.394
14390SOL    HW161857   1.124   8.771   6.414
14390SOL    HW261858   1.229   8.682   6.326
14391SOL     OW61859   5.095   2.419   8.621
14391SOL    HW161860   5.007   2.462   8.601
14391SOL    HW261861   5.086   2.360   8.701
14392SOL     OW61862   2.351   6.670   0.594
14392SOL    HW161863   2.370   6.576   0.567
14392SOL    HW261864   2.434   6.725   0.587
14393SOL     OW61865   1.438   8.628   7.876
14393SOL    HW161866   1.418   8.629   7.974
14393SOL    HW261867   1.520   8.572   7.859
14394SOL     OW61868   1.520   6.852   7.014
14394SOL    HW161869   1.559   6.877   6.925
14394SOL    HW261870   1.436   6.904   7.029
14395SOL     OW61871   9.730   6.957   7.860
14395SOL    HW161872   9.818   7.004   7.854
14395SOL    HW261873   9.706   6.920   7.771
14396SOL     OW61874   6.161   3.733   7.285
14396SOL    HW161875   6.125   3.807   7.229
14396SOL    HW261876   6.229   3.771   7.349
14397SOL     OW61877   1.983   3.231   6.752
14397SOL    HW161878   1.886   3.232   6.728
14397SOL    HW261879   2.014   3.324   6.773
14398SOL     OW61880   3.806   7.221   7.170
14398SOL    HW161881   3.731   7.287   7.166
14398SOL    HW261882   3.890   7.264   7.135
14399SOL     OW61883   0.838   8.207   0.562
14399SOL    HW161884   0.835   8.264   0.644
14399SOL    HW261885   0.876   8.117   0.585
14400SOL     OW61886   8.043   5.803   7.311
14400SOL    HW161887   8.031   5.732   7.242
14400SOL    HW261888   8.124   5.783   7.366
14401SOL     OW61889   2.286   1.623   1.335
14401SOL    HW161890   2.214   1.664   1.391
14401SOL    HW261891   2.333   1.552   1.388
14402SOL     OW61892   0.470   8.223   1.922
14402SOL    HW161893   0.391   8.280   1.946
14402SOL    HW261894   0.488   8.158   1.996
14403SOL     OW61895   3.553   9.323   7.649
14403SOL    HW161896   3.596   9.254   7.708
14403SOL    HW261897   3.622   9.386   7.614
14404SOL     OW61898   9.338   8.083   2.417
14404SOL    HW161899   9.260   8.129   2.460
14404SOL    HW261900   9.307   8.023   2.344
14405SOL     OW61901   8.380   2.300   6.858
14405SOL    HW161902   8.323   2.321   6.938
14405SOL    HW261903   8.413   2.385   6.817
14406SOL     OW61904   4.152   8.779   2.270
14406SOL    HW161905   4.195   8.726   2.343
14406SOL    HW261906   4.080   8.725   2.227
14407SOL     OW61907   4.973   3.278   1.194
14407SOL    HW161908   4.898   3.315   1.248
14407SOL    HW261909   5.059   3.319   1.224
14408SOL     OW61910   5.557   9.607   8.089
14408SOL    HW161911   5.508   9.585   8.005
14408SOL    HW261912   5.638   9.549   8.097
14409SOL     OW61913   2.621   5.383   0.175
14409SOL    HW161914   2.539   5.361   0.227
14409SOL    HW261915   2.701   5.373   0.233
14410SOL     OW61916   2.782   0.261   8.501
14410SOL    HW161917   2.734   0.284   8.416
14410SOL    HW261918   2.747   0.319   8.575
14411SOL     OW61919   4.317   8.543   7.193
14411SOL    HW161920   4.219   8.523   7.197
14411SOL    HW261921   4.364   8.495   7.268
14412SOL     OW61922   5.912   3.236   1.774
14412SOL    HW161923   5.924   3.325   1.818
14412SOL    HW261924   5.868   3.173   1.838
14413SOL     OW61925   7.598   4.011   1.282
14413SOL    HW161926   7.565   4.010   1.188
14413SOL    HW261927   7.694   4.036   1.284
14414SOL     OW61928   5.675   6.268   1.851
14414SOL    HW161929   5.683   6.368   1.846
14414SOL    HW261930   5.740   6.234   1.919
14415SOL     OW61931   1.114   2.194   0.743
14415SOL    HW161932   1.066   2.193   0.656
14415SOL    HW261933   1.206   2.231   0.730
14416SOL     OW61934   2.361   8.535   2.064
14416SOL    HW161935   2.305   8.456   2.091
14416SOL    HW261936   2.373   8.595   2.143
14417SOL     OW61937   9.945   8.797   8.453
14417SOL    HW161938  10.036   8.839   8.451
14417SOL    HW261939   9.892   8.830   8.375
14418SOL     OW61940   7.933   8.982   8.634
14418SOL    HW161941   7.928   9.028   8.545
14418SOL    HW261942   7.841   8.953   8.661
14419SOL     OW61943   8.407   2.028   8.594
14419SOL    HW161944   8.329   2.063   8.645
14419SOL    HW261945   8.431   2.092   8.522
14420SOL     OW61946   1.924   1.470   0.570
14420SOL    HW161947   1.970   1.557   0.558
14420SOL    HW261948   1.955   1.428   0.655
14421SOL     OW61949   4.221   3.606   7.054
14421SOL    HW161950   4.195   3.698   7.083
14421SOL    HW261951   4.229   3.604   6.954
14422SOL     OW61952   8.076   2.500   7.964
14422SOL    HW161953   8.034   2.491   8.054
14422SOL    HW261954   8.115   2.413   7.936
14423SOL     OW61955   1.854   2.782   5.841
14423SOL    HW161956   1.810   2.871   5.825
14423SOL    HW261957   1.948   2.796   5.872
14424SOL     OW61958   0.363   2.242   1.245
14424SOL    HW161959   0.434   2.275   1.182
14424SOL    HW261960   0.296   2.188   1.195
14425SOL     OW61961   2.285   8.594   8.356
14425SOL    HW161962   2.356   8.603   8.426
14425SOL    HW261963   2.289   8.502   8.317
14426SOL     OW61964   7.327   7.553   7.535
14426SOL    HW161965   7.336   7.559   7.635
14426SOL    HW261966   7.417   7.540   7.494
14427SOL     OW61967   5.084   6.911   6.135
14427SOL    HW161968   5.134   6.835   6.093
14427SOL    HW261969   5.147   6.965   6.192
14428SOL     OW61970   4.593   6.475   7.317
14428SOL    HW161971   4.499   6.503   7.299
14428SOL    HW261972   4.645   6.553   7.351
14429SOL     OW61973   6.489   5.790   7.402
14429SOL    HW161974   6.473   5.879   7.443
14429SOL    HW261975   6.413   5.767   7.341
14430SOL     OW61976   8.770   4.067   0.709
14430SOL    HW161977   8.723   3.991   0.664
14430SOL    HW261978   8.864   4.041   0.729
14431SOL     OW61979   4.593  10.400   8.229
14431SOL    HW161980   4.684  10.362   8.212
14431SOL    HW261981   4.524  10.331   8.210
14432SOL     OW61982   5.793   4.226   7.368
14432SOL    HW161983   5.737   4.245   7.288
14432SOL    HW261984   5.734   4.214   7.448
14433SOL     OW61985   3.241   4.115   0.983
14433SOL    HW161986   3.197   4.028   1.006
14433SOL    HW261987   3.244   4.124   0.883
14434SOL     OW61988   6.242   9.339   7.032
14434SOL    HW161989   6.193   9.372   7.113
14434SOL    HW261990   6.340   9.349   7.046
14435SOL     OW61991   9.058   7.729   7.129
14435SOL    HW161992   9.082   7.782   7.048
14435SOL    HW261993   9.038   7.791   7.205
14436SOL     OW61994   0.306   5.597   0.865
14436SOL    HW161995   0.296   5.693   0.840
14436SOL    HW261996   0.400   5.581   0.898
14437SOL     OW61997   7.743   5.628   0.391
14437SOL    HW161998   7.744   5.640   0.490
14437SOL    HW261999   7.804   5.694   0.348
14438SOL     OW62000   6.219   8.963   0.160
14438SOL    HW162001   6.271   8.998   0.082
14438SOL    HW262002   6.283   8.940   0.234
14439SOL     OW62003   6.402   2.191   7.467
14439SOL    HW162004   6.490   2.169   7.508
14439SOL    HW262005   6.388   2.134   7.386
14440SOL     OW62006   4.306   7.810   7.708
14440SOL    HW162007   4.361   7.726   7.708
14440SOL    HW262008   4.331   7.865   7.787
14441SOL     OW62009   5.917   0.816   1.874
14441SOL    HW162010   6.009   0.832   1.838
14441SOL    HW262011   5.867   0.903   1.876
14442SOL     OW62012   1.420   2.359   8.157
14442SOL    HW162013   1.342   2.318   8.110
14442SOL    HW262014   1.449   2.299   8.232
14443SOL     OW62015   2.595   4.418   2.246
14443SOL    HW162016   2.620   4.321   2.255
14443SOL    HW262017   2.609   4.465   2.333
14444SOL     OW62018   7.699   1.777   8.430
14444SOL    HW162019   7.730   1.870   8.411
14444SOL    HW262020   7.648   1.776   8.516
14445SOL     OW62021   1.837   4.573   0.947
14445SOL    HW162022   1.785   4.612   1.023
14445SOL    HW262023   1.895   4.644   0.907
14446SOL     OW62024   0.769   2.813   6.899
14446SOL    HW162025   0.722   2.847   6.818
14446SOL    HW262026   0.855   2.770   6.872
14447SOL     OW62027   5.705   3.866   7.588
14447SOL    HW162028   5.619   3.887   7.633
14447SOL    HW262029   5.688   3.834   7.495
14448SOL     OW62030   8.637   2.588   8.664
14448SOL    HW162031   8.548   2.576   8.708
14448SOL    HW262032   8.640   2.535   8.580
14449SOL     OW62033   7.059   6.011   0.083
14449SOL    HW162034   7.065   6.062   0.169
14449SOL    HW262035   7.030   5.917   0.102
14450SOL     OW62036   7.126   9.575   1.692
14450SOL    HW162037   7.072   9.493   1.707
14450SOL    HW262038   7.088   9.626   1.614
14451SOL     OW62039   2.810   1.991   0.424
14451SOL    HW162040   2.886   2.037   0.377
14451SOL    HW262041   2.738   2.057   0.445
14452SOL     OW62042   7.992   0.888   1.431
14452SOL    HW162043   8.082   0.898   1.388
14452SOL    HW262044   7.925   0.858   1.363
14453SOL     OW62045   5.648   5.479   0.658
14453SOL    HW162046   5.691   5.505   0.745
14453SOL    HW262047   5.551   5.460   0.673
14454SOL     OW62048   7.832   3.406   0.538
14454SOL    HW162049   7.874   3.484   0.583
14454SOL    HW262050   7.746   3.382   0.584
14455SOL     OW62051   6.225   8.367   7.826
14455SOL    HW162052   6.214   8.291   7.762
14455SOL    HW262053   6.310   8.416   7.806
14456SOL     OW62054   7.087   1.411   8.061
14456SOL    HW162055   7.099   1.460   8.147
14456SOL    HW262056   7.010   1.347   8.069
14457SOL     OW62057   6.581   9.922   6.678
14457SOL    HW162058   6.658   9.893   6.735
14457SOL    HW262059   6.605   9.913   6.582
14458SOL     OW62060   4.055   6.438   6.543
14458SOL    HW162061   4.021   6.377   6.470
14458SOL    HW262062   4.000   6.520   6.546
14459SOL     OW62063   4.194   9.744   6.113
14459SOL    HW162064   4.251   9.826   6.114
14459SOL    HW262065   4.143   9.740   6.028
14460SOL     OW62066   8.373   3.272   1.399
14460SOL    HW162067   8.387   3.224   1.486
14460SOL    HW262068   8.325   3.358   1.416
14461SOL     OW62069  10.129  10.244   0.717
14461SOL    HW162070  10.093  10.316   0.776
14461SOL    HW262071   0.064  10.269   0.687
14462SOL     OW62072   1.216   1.054   6.903
14462SOL    HW162073   1.127   1.084   6.938
14462SOL    HW262074   1.251   1.121   6.838
14463SOL     OW62075   3.263   1.650   0.125
14463SOL    HW162076   3.220   1.655   0.216
14463SOL    HW262077   3.199   1.609   0.061
14464SOL     OW62078   5.653  10.266   0.411
14464SOL    HW162079   5.646  10.272   0.311
14464SOL    HW262080   5.715  10.338   0.444
14465SOL     OW62081   2.947   3.620   6.809
14465SOL    HW162082   2.941   3.588   6.904
14465SOL    HW262083   2.962   3.541   6.749
14466SOL     OW62084   6.947   4.041   7.724
14466SOL    HW162085   6.884   4.086   7.661
14466SOL    HW262086   6.994   4.109   7.779
14467SOL     OW62087   3.061   4.517   7.571
14467SOL    HW162088   3.120   4.492   7.493
14467SOL    HW262089   3.092   4.604   7.610
14468SOL     OW62090   1.940   8.878   1.596
14468SOL    HW162091   1.964   8.934   1.676
14468SOL    HW262092   1.855   8.911   1.556
14469SOL     OW62093   6.710   4.040   0.108
14469SOL    HW162094   6.697   4.076   0.201
14469SOL    HW262095   6.684   3.944   0.105
14470SOL     OW62096   3.743   6.825   7.816
14470SOL    HW162097   3.818   6.763   7.793
14470SOL    HW262098   3.731   6.828   7.915
14471SOL     OW62099   7.315   3.315   6.749
14471SOL    HW162100   7.265   3.360   6.675
14471SOL    HW262101   7.408   3.351   6.754
14472SOL     OW62102   8.017  10.215   1.063
14472SOL    HW162103   8.000  10.256   1.153
14472SOL    HW262104   7.958  10.134   1.052
14473SOL     OW62105   1.364   5.125   6.546
14473SOL    HW162106   1.427   5.047   6.545
14473SOL    HW262107   1.280   5.100   6.594
14474SOL     OW62108   8.446   7.892   7.626
14474SOL    HW162109   8.355   7.895   7.667
14474SOL    HW262110   8.514   7.880   7.698
14475SOL     OW62111   8.378   1.218   0.363
14475SOL    HW162112   8.367   1.136   0.308
14475SOL    HW262113   8.310   1.286   0.336
14476SOL     OW62114   4.735   6.746   0.091
14476SOL    HW162115   4.685   6.685   0.153
14476SOL    HW262116   4.670   6.790   0.028
14477SOL     OW62117   4.510   4.413   0.192
14477SOL    HW162118   4.551   4.328   0.159
14477SOL    HW262119   4.411   4.409   0.180
14478SOL     OW62120   5.922   4.725   0.656
14478SOL    HW162121   5.886   4.674   0.577
14478SOL    HW262122   5.873   4.811   0.665
14479SOL     OW62123   5.397   2.566   7.319
14479SOL    HW162124   5.461   2.551   7.394
14479SOL    HW262125   5.419   2.652   7.273
14480SOL     OW62126   8.752   3.912   1.570
14480SOL    HW162127   8.836   3.891   1.620
14480SOL    HW262128   8.673   3.897   1.630
14481SOL     OW62129   4.173   1.561   2.405
14481SOL    HW162130   4.171   1.660   2.414
14481SOL    HW262131   4.243   1.523   2.466
14482SOL     OW62132   3.943   8.417   0.720
14482SOL    HW162133   3.850   8.405   0.757
14482SOL    HW262134   3.964   8.514   0.714
14483SOL     OW62135   1.282   6.189   0.547
14483SOL    HW162136   1.189   6.217   0.569
14483SOL    HW262137   1.307   6.224   0.456
14484SOL     OW62138   6.381   3.580   0.192
14484SOL    HW162139   6.359   3.669   0.232
14484SOL    HW262140   6.479   3.562   0.203
14485SOL     OW62141   8.781   6.834   8.257
14485SOL    HW162142   8.792   6.903   8.329
14485SOL    HW262143   8.771   6.744   8.299
14486SOL     OW62144   1.308   7.716   6.725
14486SOL    HW162145   1.305   7.669   6.637
14486SOL    HW262146   1.384   7.780   6.727
14487SOL     OW62147   8.861   0.579   0.143
14487SOL    HW162148   8.913   0.504   0.104
14487SOL    HW262149   8.874   0.661   0.088
14488SOL     OW62150   3.235   2.105   0.858
14488SOL    HW162151   3.233   2.204   0.844
14488SOL    HW262152   3.329   2.075   0.873
14489SOL     OW62153   1.382   9.184   8.495
14489SOL    HW162154   1.447   9.190   8.419
14489SOL    HW262155   1.365   9.088   8.517
14490SOL     OW62156   2.432   3.831   0.397
14490SOL    HW162157   2.396   3.738   0.386
14490SOL    HW262158   2.396   3.890   0.325
14491SOL     OW62159   4.624   1.206   1.250
14491SOL    HW162160   4.584   1.283   1.202
14491SOL    HW262161   4.601   1.121   1.202
14492SOL     OW62162   3.156   6.954   7.022
14492SOL    HW162163   3.073   7.005   7.002
14492SOL    HW262164   3.139   6.856   7.014
14493SOL     OW62165   8.296   2.209   6.609
14493SOL    HW162166   8.308   2.227   6.706
14493SOL    HW262167   8.383   2.225   6.561
14494SOL     OW62168   4.167  10.261   7.888
14494SOL    HW162169   4.204  10.297   7.802
14494SOL    HW262170   4.092  10.319   7.919
14495SOL     OW62171   1.934   5.029   1.857
14495SOL    HW162172   1.970   5.122   1.865
14495SOL    HW262173   1.951   4.979   1.941
14496SOL     OW62174   7.900   2.224   2.462
14496SOL    HW162175   7.836   2.299   2.480
14496SOL    HW262176   7.961   2.251   2.387
14497SOL     OW62177   7.415   5.764   0.993
14497SOL    HW162178   7.401   5.835   0.924
14497SOL    HW262179   7.328   5.715   1.008
14498SOL     OW62180   9.598   7.959   8.221
14498SOL    HW162181   9.613   7.867   8.183
14498SOL    HW262182   9.687   8.002   8.238
14499SOL     OW62183   4.364   1.418   7.217
14499SOL    HW162184   4.375   1.517   7.207
14499SOL    HW262185   4.280   1.389   7.172
14500SOL     OW62186   3.175   8.456   7.632
14500SOL    HW162187   3.258   8.405   7.610
14500SOL    HW262188   3.193   8.554   7.625
14501SOL     OW62189   5.473   9.639   7.159
14501SOL    HW162190   5.485   9.627   7.258
14501SOL    HW262191   5.550   9.692   7.122
14502SOL     OW62192   0.877   7.038   1.829
14502SOL    HW162193   0.810   7.054   1.902
14502SOL    HW262194   0.921   7.125   1.805
14503SOL     OW62195   7.659   6.023   7.759
14503SOL    HW162196   7.753   6.001   7.734
14503SOL    HW262197   7.619   5.946   7.809
14504SOL     OW62198   8.469   3.414   6.910
14504SOL    HW162199   8.535   3.343   6.887
14504SOL    HW262200   8.514   3.484   6.966
14505SOL     OW62201   3.809   9.764   7.861
14505SOL    HW162202   3.866   9.775   7.943
14505SOL    HW262203   3.738   9.835   7.860
14506SOL     OW62204   6.909   3.751   1.434
14506SOL    HW162205   6.906   3.657   1.467
14506SOL    HW262206   6.827   3.770   1.379
14507SOL     OW62207   4.068   2.637   7.363
14507SOL    HW162208   4.167   2.651   7.370
14507SOL    HW262209   4.048   2.539   7.373
14508SOL     OW62210   0.010   8.163   1.275
14508SOL    HW162211   0.034   8.183   1.370
14508SOL    HW262212  10.149   8.065   1.265
14509SOL     OW62213   1.406   0.748   1.292
14509SOL    HW162214   1.380   0.666   1.344
14509SOL    HW262215   1.340   0.821   1.308
14510SOL     OW62216   7.453   7.114   1.069
14510SOL    HW162217   7.408   7.094   0.982
14510SOL    HW262218   7.413   7.196   1.109
14511SOL     OW62219   1.028   9.279   0.453
14511SOL    HW162220   0.954   9.213   0.440
14511SOL    HW262221   1.103   9.258   0.390
14512SOL     OW62222   2.612   9.125   8.366
14512SOL    HW162223   2.600   9.028   8.346
14512SOL    HW262224   2.568   9.179   8.294
14513SOL     OW62225   5.709  10.290   7.662
14513SOL    HW162226   5.800  10.248   7.669
14513SOL    HW262227   5.716  10.386   7.690
14514SOL     OW62228   1.929   8.876   7.767
14514SOL    HW162229   1.855   8.924   7.814
14514SOL    HW262230   1.939   8.784   7.806
14515SOL     OW62231   7.815   5.952   1.757
14515SOL    HW162232   7.796   6.021   1.826
14515SOL    HW262233   7.860   5.873   1.800
14516SOL     OW62234   2.107   2.111   8.745
14516SOL    HW162235   2.074   2.018   8.732
14516SOL    HW262236   2.135   2.150   8.657
14517SOL     OW62237   5.698   9.606   7.790
14517SOL    HW162238   5.748   9.533   7.742
14517SOL    HW262239   5.603   9.578   7.803
14518SOL     OW62240   9.524   5.774   8.658
14518SOL    HW162241   9.466   5.843   8.702
14518SOL    HW262242   9.466   5.706   8.613
14519SOL     OW62243   1.153   0.160   7.674
14519SOL    HW162244   1.222   0.213   7.725
14519SOL    HW262245   1.198   0.102   7.607
14520SOL     OW62246   2.987   1.068   7.775
14520SOL    HW162247   2.997   1.129   7.853
14520SOL    HW262248   2.952   0.979   7.806
14521SOL     OW62249   5.041   4.497   6.924
14521SOL    HW162250   5.135   4.494   6.960
14521SOL    HW262251   5.003   4.588   6.939
14522SOL     OW62252   2.331   5.006   0.137
14522SOL    HW162253   2.281   5.084   0.099
14522SOL    HW262254   2.335   4.933   0.069
14523SOL     OW62255   7.632   9.464   1.006
14523SOL    HW162256   7.708   9.530   1.000
14523SOL    HW262257   7.574   9.486   1.084
14524SOL     OW62258   6.905   9.872   6.498
14524SOL    HW162259   6.966   9.859   6.420
14524SOL    HW262260   6.811   9.879   6.467
14525SOL     OW62261   8.109   6.789   7.620
14525SOL    HW162262   8.124   6.715   7.554
14525SOL    HW262263   8.196   6.812   7.664
14526SOL     OW62264   9.257   1.806   2.308
14526SOL    HW162265   9.314   1.845   2.237
14526SOL    HW262266   9.277   1.850   2.396
14527SOL     OW62267   8.722   8.072   1.059
14527SOL    HW162268   8.793   8.003   1.048
14527SOL    HW262269   8.712   8.094   1.156
14528SOL     OW62270   1.483   3.739   2.004
14528SOL    HW162271   1.482   3.797   2.085
14528SOL    HW262272   1.555   3.670   2.012
14529SOL     OW62273   6.064   6.421   0.656
14529SOL    HW162274   6.112   6.356   0.715
14529SOL    HW262275   6.023   6.493   0.712
14530SOL     OW62276   2.260   9.788   0.831
14530SOL    HW162277   2.201   9.750   0.760
14530SOL    HW262278   2.352   9.749   0.822
14531SOL     OW62279   0.204   0.020   1.506
14531SOL    HW162280   0.291   0.040   1.461
14531SOL    HW262281   0.138   0.091   1.484
14532SOL     OW62282   1.944   3.896   1.148
14532SOL    HW162283   2.042   3.908   1.163
14532SOL    HW262284   1.895   3.972   1.189
14533SOL     OW62285   7.746   5.191   7.997
14533SOL    HW162286   7.817   5.254   7.965
14533SOL    HW262287   7.727   5.124   7.925
14534SOL     OW62288   6.448   4.640   0.228
14534SOL    HW162289   6.535   4.608   0.265
14534SOL    HW262290   6.465   4.710   0.158
14535SOL     OW62291   7.729   6.145   0.331
14535SOL    HW162292   7.671   6.100   0.399
14535SOL    HW262293   7.822   6.111   0.339
14536SOL     OW62294   4.149   1.581   6.961
14536SOL    HW162295   4.166   1.639   7.041
14536SOL    HW262296   4.221   1.598   6.893
14537SOL     OW62297   9.490   0.634   7.664
14537SOL    HW162298   9.422   0.561   7.671
14537SOL    HW262299   9.467   0.707   7.729
14538SOL     OW62300   6.335   1.099   0.450
14538SOL    HW162301   6.235   1.101   0.439
14538SOL    HW262302   6.373   1.188   0.424
14539SOL     OW62303   8.975   9.033   1.557
14539SOL    HW162304   9.021   8.970   1.495
14539SOL    HW262305   8.963   8.989   1.646
14540SOL     OW62306   3.799   6.299   8.679
14540SOL    HW162307   3.778   6.375   8.617
14540SOL    HW262308   3.732   6.297   8.753
14541SOL     OW62309   4.024   8.095   8.046
14541SOL    HW162310   4.095   8.087   8.116
14541SOL    HW262311   3.982   8.005   8.032
14542SOL     OW62312   7.993   9.006   7.672
14542SOL    HW162313   7.910   9.049   7.707
14542SOL    HW262314   8.014   9.043   7.581
14543SOL     OW62315   4.810   2.903   0.048
14543SOL    HW162316   4.737   2.858   8.778
14543SOL    HW262317   4.899   2.881   0.007
14544SOL     OW62318   2.336   1.574   2.128
14544SOL    HW162319   2.251   1.621   2.104
14544SOL    HW262320   2.403   1.641   2.160
14545SOL     OW62321   7.075   6.234   7.863
14545SOL    HW162322   7.041   6.153   7.912
14545SOL    HW262323   7.091   6.308   7.929
14546SOL     OW62324   1.899   0.729   7.625
14546SOL    HW162325   1.995   0.752   7.610
14546SOL    HW262326   1.844   0.812   7.623
14547SOL     OW62327   3.925   2.482   7.786
14547SOL    HW162328   4.016   2.486   7.743
14547SOL    HW262329   3.858   2.449   7.720
14548SOL     OW62330   2.461   1.217   7.370
14548SOL    HW162331   2.434   1.127   7.403
14548SOL    HW262332   2.533   1.254   7.428
14549SOL     OW62333   2.444   9.429   0.488
14549SOL    HW162334   2.352   9.459   0.464
14549SOL    HW262335   2.440   9.367   0.566
14550SOL     OW62336   8.866   6.788   7.741
14550SOL    HW162337   8.928   6.808   7.665
14550SOL    HW262338   8.905   6.715   7.798
14551SOL     OW62339   9.114   8.243   2.459
14551SOL    HW162340   9.080   8.213   2.369
14551SOL    HW262341   9.180   8.317   2.446
14552SOL     OW62342   5.499   0.332   0.893
14552SOL    HW162343   5.575   0.394   0.873
14552SOL    HW262344   5.497   0.260   0.824
14553SOL     OW62345   2.307   9.772   6.881
14553SOL    HW162346   2.312   9.708   6.805
14553SOL    HW262347   2.278   9.723   6.964
14554SOL     OW62348   8.950   8.962   8.365
14554SOL    HW162349   8.968   8.922   8.455
14554SOL    HW262350   8.978   9.058   8.366
14555SOL     OW62351   4.041   7.031   1.124
14555SOL    HW162352   3.976   7.014   1.050
14555SOL    HW262353   3.991   7.065   1.204
14556SOL     OW62354   0.610   3.089   0.254
14556SOL    HW162355   0.567   3.021   0.195
14556SOL    HW262356   0.653   3.044   0.332
14557SOL     OW62357   4.273   9.877   7.758
14557SOL    HW162358   4.239   9.786   7.731
14557SOL    HW262359   4.373   9.875   7.760
14558SOL     OW62360   4.764   2.209   8.210
14558SOL    HW162361   4.673   2.213   8.169
14558SOL    HW262362   4.802   2.117   8.199
14559SOL     OW62363   6.483   9.337   7.460
14559SOL    HW162364   6.409   9.392   7.420
14559SOL    HW262365   6.489   9.357   7.558
14560SOL     OW62366   0.767   8.673   1.709
14560SOL    HW162367   0.668   8.671   1.723
14560SOL    HW262368   0.811   8.723   1.783
14561SOL     OW62369   7.449   8.085   7.807
14561SOL    HW162370   7.407   8.048   7.890
14561SOL    HW262371   7.441   8.184   7.807
14562SOL     OW62372   5.121   5.919   1.866
14562SOL    HW162373   5.185   5.983   1.909
14562SOL    HW262374   5.094   5.954   1.777
14563SOL     OW62375   7.319   9.569   1.879
14563SOL    HW162376   7.248   9.580   1.810
14563SOL    HW262377   7.406   9.605   1.844
14564SOL     OW62378   8.343  10.054   7.695
14564SOL    HW162379   8.293   9.969   7.714
14564SOL    HW262380   8.424  10.059   7.754
14565SOL     OW62381   5.132   7.989   0.577
14565SOL    HW162382   5.101   7.977   0.671
14565SOL    HW262383   5.089   7.921   0.518
14566SOL     OW62384   5.497   2.886   0.092
14566SOL    HW162385   5.573   2.945   0.069
14566SOL    HW262386   5.476   2.826   0.014
14567SOL     OW62387  10.116  10.211   1.768
14567SOL    HW162388  10.133  10.120   1.805
14567SOL    HW262389  10.135  10.211   1.670
14568SOL     OW62390   6.171   8.803   0.665
14568SOL    HW162391   6.124   8.879   0.619
14568SOL    HW262392   6.259   8.836   0.701
14569SOL     OW62393   9.436   4.981   6.945
14569SOL    HW162394   9.507   4.972   7.015
14569SOL    HW262395   9.461   5.052   6.880
14570SOL     OW62396   8.850   5.532   0.151
14570SOL    HW162397   8.872   5.619   0.194
14570SOL    HW262398   8.881   5.457   0.209
14571SOL     OW62399   5.915   9.832   8.227
14571SOL    HW162400   6.005   9.873   8.213
14571SOL    HW262401   5.876   9.807   8.139
14572SOL     OW62402   3.241   1.107   0.690
14572SOL    HW162403   3.248   1.205   0.671
14572SOL    HW262404   3.171   1.091   0.760
14573SOL     OW62405   0.059   1.067   0.632
14573SOL    HW162406   0.080   1.019   0.546
14573SOL    HW262407   0.142   1.112   0.665
14574SOL     OW62408   6.258   9.282   1.915
14574SOL    HW162409   6.348   9.326   1.910
14574SOL    HW262410   6.191   9.347   1.952
14575SOL     OW62411   2.736   4.044   8.524
14575SOL    HW162412   2.653   4.079   8.567
14575SOL    HW262413   2.806   4.116   8.523
14576SOL     OW62414   7.013   2.453   6.786
14576SOL    HW162415   7.090   2.428   6.845
14576SOL    HW262416   6.962   2.371   6.761
14577SOL     OW62417   8.603   0.967   1.082
14577SOL    HW162418   8.584   1.048   1.027
14577SOL    HW262419   8.548   0.970   1.165
14578SOL     OW62420  10.074   2.653   7.083
14578SOL    HW162421   0.003   2.683   7.043
14578SOL    HW262422  10.004   2.652   7.012
14579SOL     OW62423   0.212   1.937   6.308
14579SOL    HW162424   0.117   1.943   6.278
14579SOL    HW262425   0.233   1.842   6.332
14580SOL     OW62426   2.750   9.956   1.403
14580SOL    HW162427   2.821   9.985   1.467
14580SOL    HW262428   2.716   9.866   1.430
14581SOL     OW62429   5.209   4.574   8.773
14581SOL    HW162430   5.151   4.536   8.701
14581SOL    HW262431   5.244   4.663   8.745
14582SOL     OW62432   2.458   6.587   8.768
14582SOL    HW162433   2.535   6.529   8.742
14582SOL    HW262434   2.433   6.567   0.081
14583SOL     OW62435   5.182   9.349   1.532
14583SOL    HW162436   5.207   9.423   1.595
14583SOL    HW262437   5.173   9.386   1.440
14584SOL     OW62438   8.596   5.233   1.305
14584SOL    HW162439   8.600   5.162   1.376
14584SOL    HW262440   8.561   5.318   1.345
14585SOL     OW62441   7.287   6.140   0.610
14585SOL    HW162442   7.312   6.219   0.555
14585SOL    HW262443   7.187   6.132   0.612
14586SOL     OW62444   8.597   0.210   7.873
14586SOL    HW162445   8.673   0.239   7.816
14586SOL    HW262446   8.534   0.153   7.819
14587SOL     OW62447   2.339   2.331   0.517
14587SOL    HW162448   2.274   2.324   0.442
14587SOL    HW262449   2.412   2.395   0.493
14588SOL     OW62450   4.531   5.278   0.546
14588SOL    HW162451   4.585   5.242   0.470
14588SOL    HW262452   4.489   5.203   0.596
14589SOL     OW62453   4.393  10.216   8.161
14589SOL    HW162454   4.354  10.173   8.242
14589SOL    HW262455   4.374  10.160   8.080
14590SOL     OW62456   3.886   4.431   1.905
14590SOL    HW162457   3.964   4.479   1.866
14590SOL    HW262458   3.909   4.400   1.998
14591SOL     OW62459   7.656   9.605   8.123
14591SOL    HW162460   7.705   9.686   8.155
14591SOL    HW262461   7.686   9.525   8.176
14592SOL     OW62462   4.980   4.226   7.519
14592SOL    HW162463   5.016   4.272   7.438
14592SOL    HW262464   5.054   4.181   7.568
14593SOL     OW62465   0.747  10.048   8.163
14593SOL    HW162466   0.809  10.103   8.107
14593SOL    HW262467   0.664  10.101   8.183
14594SOL     OW62468   5.374   2.292   7.236
14594SOL    HW162469   5.448   2.243   7.282
14594SOL    HW262470   5.372   2.387   7.267
14595SOL     OW62471   6.418   6.191   0.356
14595SOL    HW162472   6.490   6.240   0.306
14595SOL    HW262473   6.339   6.251   0.368
14596SOL     OW62474   6.622  10.002   8.642
14596SOL    HW162475   6.577  10.013   8.731
14596SOL    HW262476   6.698  10.066   8.635
14597SOL     OW62477   1.858   2.837   7.153
14597SOL    HW162478   1.849   2.851   7.055
14597SOL    HW262479   1.927   2.766   7.171
14598SOL     OW62480   5.550   3.427   7.897
14598SOL    HW162481   5.555   3.340   7.947
14598SOL    HW262482   5.630   3.436   7.838
14599SOL     OW62483   5.540   7.506   0.503
14599SOL    HW162484   5.504   7.436   0.442
14599SOL    HW262485   5.465   7.545   0.556
14600SOL     OW62486   1.041   3.544   7.168
14600SOL    HW162487   1.054   3.545   7.069
14600SOL    HW262488   1.127   3.524   7.214
14601SOL     OW62489   6.417   9.666   7.710
14601SOL    HW162490   6.445   9.697   7.619
14601SOL    HW262491   6.406   9.744   7.771
14602SOL     OW62492   6.747   2.034   6.072
14602SOL    HW162493   6.656   2.068   6.048
14602SOL    HW262494   6.750   1.935   6.058
14603SOL     OW62495   0.187   5.178   7.550
14603SOL    HW162496   0.133   5.207   7.630
14603SOL    HW262497   0.129   5.179   7.469
14604SOL     OW62498   8.703   0.928   7.396
14604SOL    HW162499   8.713   0.928   7.496
14604SOL    HW262500   8.610   0.954   7.372
14605SOL     OW62501   9.023   6.050   8.187
14605SOL    HW162502   9.088   6.087   8.254
14605SOL    HW262503   9.051   5.957   8.163
14606SOL     OW62504   3.867   3.940   8.524
14606SOL    HW162505   3.801   3.956   8.451
14606SOL    HW262506   3.877   4.022   8.580
14607SOL     OW62507   1.695   6.814   8.098
14607SOL    HW162508   1.679   6.912   8.106
14607SOL    HW262509   1.608   6.768   8.076
14608SOL     OW62510   7.618   6.280   0.994
14608SOL    HW162511   7.638   6.350   0.926
14608SOL    HW262512   7.704   6.246   1.032
14609SOL     OW62513  10.068   8.640   1.147
14609SOL    HW162514  10.137   8.702   1.110
14609SOL    HW262515  10.111   8.577   1.212
14610SOL     OW62516   9.140   0.886   0.052
14610SOL    HW162517   9.043   0.874   0.033
14610SOL    HW262518   9.158   0.982   0.074
14611SOL     OW62519   4.982   7.734   1.264
14611SOL    HW162520   4.976   7.725   1.363
14611SOL    HW262521   4.894   7.766   1.228
14612SOL     OW62522   6.462   4.272   0.508
14612SOL    HW162523   6.375   4.321   0.510
14612SOL    HW262524   6.535   4.334   0.538
14613SOL     OW62525   7.375   3.615   1.082
14613SOL    HW162526   7.389   3.590   1.178
14613SOL    HW262527   7.285   3.656   1.071
14614SOL     OW62528   5.762  10.054   0.546
14614SOL    HW162529   5.715  10.125   0.493
14614SOL    HW262530   5.736   9.964   0.510
14615SOL     OW62531  10.134   1.422   8.372
14615SOL    HW162532  10.152   1.520   8.359
14615SOL    HW262533  10.155   1.373   8.287
14616SOL     OW62534   3.499   4.039   7.043
14616SOL    HW162535   3.446   4.115   7.082
14616SOL    HW262536   3.588   4.035   7.088
14617SOL     OW62537   5.576   8.513   6.818
14617SOL    HW162538   5.489   8.491   6.861
14617SOL    HW262539   5.561   8.536   6.722
14618SOL     OW62540   5.649   8.325   7.429
14618SOL    HW162541   5.607   8.263   7.495
14618SOL    HW262542   5.678   8.408   7.475
14619SOL     OW62543   9.848   2.544   0.563
14619SOL    HW162544   9.813   2.622   0.512
14619SOL    HW262545   9.917   2.575   0.629
14620SOL     OW62546   5.430   3.498   6.776
14620SOL    HW162547   5.353   3.443   6.745
14620SOL    HW262548   5.475   3.540   6.698
14621SOL     OW62549   5.774   3.411   7.749
14621SOL    HW162550   5.817   3.499   7.731
14621SOL    HW262551   5.839   3.351   7.796
14622SOL     OW62552   8.337   9.687   8.037
14622SOL    HW162553   8.310   9.610   7.980
14622SOL    HW262554   8.412   9.736   7.993
14623SOL     OW62555   3.498   3.795   8.530
14623SOL    HW162556   3.589   3.757   8.511
14623SOL    HW262557   3.430   3.751   8.471
14624SOL     OW62558   3.299   5.540   0.677
14624SOL    HW162559   3.381   5.576   0.722
14624SOL    HW262560   3.326   5.473   0.608
14625SOL     OW62561   5.543   4.132   7.743
14625SOL    HW162562   5.500   4.204   7.798
14625SOL    HW262563   5.639   4.154   7.730
14626SOL     OW62564   7.835   0.790   1.227
14626SOL    HW162565   7.803   0.818   1.136
14626SOL    HW262566   7.760   0.745   1.275
14627SOL     OW62567   3.837   7.004   1.754
14627SOL    HW162568   3.841   6.999   1.854
14627SOL    HW262569   3.755   7.055   1.727
14628SOL     OW62570   8.357   8.835   0.634
14628SOL    HW162571   8.407   8.867   0.554
14628SOL    HW262572   8.274   8.789   0.606
14629SOL     OW62573   7.320   5.564   7.389
14629SOL    HW162574   7.406   5.613   7.400
14629SOL    HW262575   7.334   5.482   7.336
14630SOL     OW62576   4.428   6.189   8.540
14630SOL    HW162577   4.490   6.219   8.467
14630SOL    HW262578   4.402   6.094   8.525
14631SOL     OW62579   1.862   6.508   6.969
14631SOL    HW162580   1.909   6.451   6.902
14631SOL    HW262581   1.856   6.602   6.934
14632SOL     OW62582   0.145   0.890   0.425
14632SOL    HW162583   0.232   0.893   0.473
14632SOL    HW262584   0.098   0.804   0.448
14633SOL     OW62585   1.914   4.621   7.470
14633SOL    HW162586   2.002   4.595   7.509
14633SOL    HW262587   1.859   4.666   7.540
14634SOL     OW62588   6.104   7.867   0.082
14634SOL    HW162589   6.110   7.769   0.100
14634SOL    HW262590   6.067   7.914   0.162
14635SOL     OW62591   7.986   6.643   1.926
14635SOL    HW162592   8.055   6.659   1.996
14635SOL    HW262593   7.942   6.555   1.943
14636SOL     OW62594   5.836   9.696   2.314
14636SOL    HW162595   5.767   9.726   2.379
14636SOL    HW262596   5.837   9.596   2.309
14637SOL     OW62597   9.213   1.496   8.660
14637SOL    HW162598   9.134   1.447   8.696
14637SOL    HW262599   9.214   1.589   8.697
14638SOL     OW62600   6.124   3.469   6.398
14638SOL    HW162601   6.066   3.536   6.444
14638SOL    HW262602   6.085   3.447   6.308
14639SOL     OW62603   1.922   1.871   7.567
14639SOL    HW162604   1.846   1.813   7.598
14639SOL    HW262605   1.957   1.923   7.644
14640SOL     OW62606   5.138   5.535   8.005
14640SOL    HW162607   5.143   5.609   8.072
14640SOL    HW262608   5.158   5.570   7.914
14641SOL     OW62609   3.944   9.218   0.666
14641SOL    HW162610   3.880   9.174   0.729
14641SOL    HW262611   3.905   9.222   0.575
14642SOL     OW62612   4.560   4.020   1.417
14642SOL    HW162613   4.590   3.954   1.485
14642SOL    HW262614   4.574   4.113   1.451
14643SOL     OW62615   0.022   0.628   0.540
14643SOL    HW162616  10.118   0.637   0.462
14643SOL    HW262617  10.127   0.613   0.623
14644SOL     OW62618   2.606   6.543   2.314
14644SOL    HW162619   2.646   6.519   2.225
14644SOL    HW262620   2.566   6.461   2.356
14645SOL     OW62621   1.106   2.536   7.842
14645SOL    HW162622   1.067   2.619   7.802
14645SOL    HW262623   1.031   2.475   7.871
14646SOL     OW62624   7.575   0.588   0.762
14646SOL    HW162625   7.567   0.681   0.797
14646SOL    HW262626   7.536   0.524   0.828
14647SOL     OW62627   2.983   2.575   0.320
14647SOL    HW162628   3.042   2.511   0.271
14647SOL    HW262629   2.903   2.526   0.355
14648SOL     OW62630   3.565   3.320   7.247
14648SOL    HW162631   3.588   3.407   7.291
14648SOL    HW262632   3.498   3.336   7.175
14649SOL     OW62633   2.189   5.611   0.591
14649SOL    HW162634   2.275   5.578   0.553
14649SOL    HW262635   2.205   5.695   0.643
14650SOL     OW62636   2.672  10.107   6.727
14650SOL    HW162637   2.756  10.157   6.745
14650SOL    HW262638   2.680  10.057   6.640
14651SOL     OW62639   2.795   2.843   8.377
14651SOL    HW162640   2.813   2.867   8.282
14651SOL    HW262641   2.874   2.868   8.433
14652SOL     OW62642   6.418   1.649   8.092
14652SOL    HW162643   6.476   1.684   8.165
14652SOL    HW262644   6.475   1.618   8.015
14653SOL     OW62645   1.144   1.561   7.093
14653SOL    HW162646   1.213   1.489   7.107
14653SOL    HW262647   1.154   1.600   7.002
14654SOL     OW62648   3.503  10.234   8.781
14654SOL    HW162649   3.532  10.231   8.685
14654SOL    HW262650   3.559  10.300   0.049
14655SOL     OW62651   8.872   2.443   1.504
14655SOL    HW162652   8.789   2.410   1.547
14655SOL    HW262653   8.848   2.503   1.427
14656SOL     OW62654   2.329   0.145   7.936
14656SOL    HW162655   2.368   0.159   7.845
14656SOL    HW262656   2.235   0.113   7.928
14657SOL     OW62657   6.591   6.299   0.852
14657SOL    HW162658   6.536   6.281   0.771
14657SOL    HW262659   6.585   6.396   0.875
14658SOL     OW62660   5.526   2.996   7.848
14658SOL    HW162661   5.598   2.993   7.779
14658SOL    HW262662   5.554   3.059   7.922
14659SOL     OW62663   0.345   0.044   7.705
14659SOL    HW162664   0.356  10.452   7.733
14659SOL    HW262665   0.248   0.066   7.695
14660SOL     OW62666   9.038   5.409   0.641
14660SOL    HW162667   9.034   5.433   0.738
14660SOL    HW262668   8.947   5.383   0.609
14661SOL     OW62669   5.722   8.551   7.554
14661SOL    HW162670   5.696   8.644   7.580
14661SOL    HW262671   5.753   8.501   7.635
14662SOL     OW62672   0.162   3.329   8.588
14662SOL    HW162673   0.189   3.272   8.510
14662SOL    HW262674   0.154   3.424   8.558
14663SOL     OW62675   2.398   3.293   6.974
14663SOL    HW162676   2.398   3.357   6.897
14663SOL    HW262677   2.462   3.325   7.044
14664SOL     OW62678   0.571   0.576   8.186
14664SOL    HW162679   0.542   0.630   8.265
14664SOL    HW262680   0.558   0.630   8.102
14665SOL     OW62681   8.402   3.446   8.288
14665SOL    HW162682   8.454   3.507   8.348
14665SOL    HW262683   8.305   3.455   8.308
14666SOL     OW62684   0.848   8.564   1.072
14666SOL    HW162685   0.940   8.593   1.046
14666SOL    HW262686   0.784   8.639   1.056
14667SOL     OW62687   2.226   4.777   8.142
14667SOL    HW162688   2.155   4.828   8.092
14667SOL    HW262689   2.270   4.712   8.080
14668SOL     OW62690   1.652   1.212   7.744
14668SOL    HW162691   1.689   1.296   7.705
14668SOL    HW262692   1.553   1.219   7.753
14669SOL     OW62693   5.011   1.669   1.146
14669SOL    HW162694   5.062   1.727   1.082
14669SOL    HW262695   4.918   1.703   1.156
14670SOL     OW62696   8.633  10.293   1.916
14670SOL    HW162697   8.696  10.271   1.991
14670SOL    HW262698   8.539  10.287   1.950
14671SOL     OW62699   1.059  10.284   0.857
14671SOL    HW162700   1.119  10.357   0.823
14671SOL    HW262701   1.107  10.197   0.849
14672SOL     OW62702   1.658   6.252   1.113
14672SOL    HW162703   1.650   6.346   1.145
14672SOL    HW262704   1.587   6.196   1.155
14673SOL     OW62705   8.148   7.487   6.351
14673SOL    HW162706   8.096   7.505   6.435
14673SOL    HW262707   8.133   7.561   6.286
14674SOL     OW62708   5.207   1.811   7.803
14674SOL    HW162709   5.228   1.740   7.736
14674SOL    HW262710   5.291   1.851   7.838
14675SOL     OW62711   9.291   4.287   6.303
14675SOL    HW162712   9.216   4.287   6.236
14675SOL    HW262713   9.323   4.193   6.315
14676SOL     OW62714   0.923   8.026   7.537
14676SOL    HW162715   0.960   7.956   7.475
14676SOL    HW262716   0.825   8.008   7.550
14677SOL     OW62717   1.399   6.519   1.566
14677SOL    HW162718   1.461   6.554   1.637
14677SOL    HW262719   1.385   6.421   1.580
14678SOL     OW62720   3.631   1.138   1.329
14678SOL    HW162721   3.533   1.160   1.328
14678SOL    HW262722   3.646   1.054   1.382
14679SOL     OW62723   4.448   3.295   0.335
14679SOL    HW162724   4.445   3.230   0.259
14679SOL    HW262725   4.525   3.358   0.321
14680SOL     OW62726   5.545   0.842   6.816
14680SOL    HW162727   5.600   0.790   6.881
14680SOL    HW262728   5.485   0.780   6.765
14681SOL     OW62729   2.700   4.941   2.064
14681SOL    HW162730   2.645   4.887   2.128
14681SOL    HW262731   2.785   4.969   2.109
14682SOL     OW62732   5.645   5.320   8.664
14682SOL    HW162733   5.594   5.402   8.640
14682SOL    HW262734   5.641   5.305   8.763
14683SOL     OW62735   5.853   4.267   6.989
14683SOL    HW162736   5.859   4.357   6.945
14683SOL    HW262737   5.776   4.267   7.053
14684SOL     OW62738   4.840   1.761   6.613
14684SOL    HW162739   4.865   1.802   6.701
14684SOL    HW262740   4.757   1.706   6.625
14685SOL     OW62741   4.265   2.030   8.695
14685SOL    HW162742   4.232   1.952   8.749
14685SOL    HW262743   4.355   2.058   8.729
14686SOL     OW62744   6.914   1.660   0.100
14686SOL    HW162745   6.971   1.663   0.017
14686SOL    HW262746   6.834   1.718   0.087
14687SOL     OW62747   6.312  10.457   7.083
14687SOL    HW162748   6.382  10.474   7.152
14687SOL    HW262749   6.343  10.491   6.994
14688SOL     OW62750   6.069   8.741   7.588
14688SOL    HW162751   6.138   8.780   7.526
14688SOL    HW262752   6.072   8.790   7.675
14689SOL     OW62753   9.915   4.453   6.355
14689SOL    HW162754  10.011   4.435   6.377
14689SOL    HW262755   9.904   4.458   6.256
14690SOL     OW62756   5.448   9.519   7.855
14690SOL    HW162757   5.350   9.542   7.854
14690SOL    HW262758   5.459   9.422   7.878
14691SOL     OW62759   6.146  10.153   1.561
14691SOL    HW162760   6.054  10.166   1.599
14691SOL    HW262761   6.177  10.238   1.520
14692SOL     OW62762   6.355   6.795   7.919
14692SOL    HW162763   6.414   6.775   7.840
14692SOL    HW262764   6.260   6.800   7.889
14693SOL     OW62765   2.282   8.708   6.992
14693SOL    HW162766   2.252   8.769   7.066
14693SOL    HW262767   2.218   8.716   6.916
14694SOL     OW62768   6.086   0.513   8.039
14694SOL    HW162769   6.155   0.585   8.040
14694SOL    HW262770   6.013   0.537   7.976
14695SOL     OW62771   3.845   2.746   7.776
14695SOL    HW162772   3.864   2.764   7.680
14695SOL    HW262773   3.872   2.653   7.799
14696SOL     OW62774   0.737   6.610   8.705
14696SOL    HW162775   0.741   6.596   0.022
14696SOL    HW262776   0.674   6.544   8.664
14697SOL     OW62777   6.764   6.889   0.155
14697SOL    HW162778   6.819   6.960   0.200
14697SOL    HW262779   6.688   6.931   0.107
14698SOL     OW62780   1.639  10.139   6.563
14698SOL    HW162781   1.665  10.063   6.503
14698SOL    HW262782   1.678  10.224   6.527
14699SOL     OW62783   8.688   4.698   7.646
14699SOL    HW162784   8.639   4.643   7.578
14699SOL    HW262785   8.627   4.767   7.684
14700SOL     OW62786   2.772   7.713   7.838
14700SOL    HW162787   2.796   7.675   7.749
14700SOL    HW262788   2.854   7.751   7.881
14701SOL     OW62789   6.772   2.069   0.747
14701SOL    HW162790   6.746   1.973   0.741
14701SOL    HW262791   6.717   2.123   0.683
14702SOL     OW62792   9.730   5.280   6.622
14702SOL    HW162793   9.673   5.298   6.541
14702SOL    HW262794   9.826   5.287   6.597
14703SOL     OW62795   6.922   7.099   0.969
14703SOL    HW162796   6.829   7.103   0.933
14703SOL    HW262797   6.958   7.192   0.977
14704SOL     OW62798   0.475   4.486   1.487
14704SOL    HW162799   0.379   4.504   1.465
14704SOL    HW262800   0.530   4.566   1.464
14705SOL     OW62801   2.509  10.238   6.170
14705SOL    HW162802   2.434  10.210   6.110
14705SOL    HW262803   2.475  10.303   6.238
14706SOL     OW62804   1.625   7.458   7.939
14706SOL    HW162805   1.639   7.553   7.911
14706SOL    HW262806   1.712   7.418   7.966
14707SOL     OW62807   4.489   3.031   2.095
14707SOL    HW162808   4.574   3.073   2.066
14707SOL    HW262809   4.450   3.082   2.172
14708SOL     OW62810   2.377   0.381   7.103
14708SOL    HW162811   2.457   0.334   7.141
14708SOL    HW262812   2.393   0.404   7.007
14709SOL     OW62813   5.626   8.332   6.450
14709SOL    HW162814   5.619   8.233   6.468
14709SOL    HW262815   5.722   8.356   6.437
14710SOL     OW62816   2.198   5.135   6.838
14710SOL    HW162817   2.132   5.112   6.909
14710SOL    HW262818   2.184   5.076   6.758
14711SOL     OW62819   6.849   9.598   6.883
14711SOL    HW162820   6.894   9.623   6.969
14711SOL    HW262821   6.868   9.502   6.863
14712SOL     OW62822   8.221   0.482   8.729
14712SOL    HW162823   8.277   0.556   8.764
14712SOL    HW262824   8.187   0.506   8.638
14713SOL     OW62825   1.713  10.144   6.234
14713SOL    HW162826   1.771  10.168   6.156
14713SOL    HW262827   1.626  10.192   6.226
14714SOL     OW62828   0.648   1.329   1.026
14714SOL    HW162829   0.638   1.302   0.930
14714SOL    HW262830   0.563   1.311   1.075
14715SOL     OW62831   9.591   1.259   8.353
14715SOL    HW162832   9.548   1.271   8.263
14715SOL    HW262833   9.611   1.349   8.392
14716SOL     OW62834   1.243   9.602   1.385
14716SOL    HW162835   1.340   9.611   1.410
14716SOL    HW262836   1.199   9.538   1.448
14717SOL     OW62837   1.611   0.423   8.594
14717SOL    HW162838   1.667   0.435   8.676
14717SOL    HW262839   1.522   0.468   8.607
14718SOL     OW62840   2.690   0.694   8.131
14718SOL    HW162841   2.651   0.643   8.055
14718SOL    HW262842   2.698   0.791   8.106
14719SOL     OW62843   3.126   9.970   8.292
14719SOL    HW162844   3.102   9.873   8.293
14719SOL    HW262845   3.166   9.994   8.204
14720SOL     OW62846   8.241  10.064   1.298
14720SOL    HW162847   8.174  10.006   1.344
14720SOL    HW262848   8.235  10.158   1.334
14721SOL     OW62849   1.307   0.219   2.271
14721SOL    HW162850   1.261   0.306   2.287
14721SOL    HW262851   1.301   0.162   2.353
14722SOL     OW62852   5.227   6.761   1.237
14722SOL    HW162853   5.173   6.841   1.262
14722SOL    HW262854   5.170   6.697   1.186
14723SOL     OW62855   3.627   0.760   6.211
14723SOL    HW162856   3.544   0.769   6.156
14723SOL    HW262857   3.673   0.849   6.216
14724SOL     OW62858   1.233   1.313   1.044
14724SOL    HW162859   1.244   1.322   1.143
14724SOL    HW262860   1.155   1.368   1.014
14725SOL     OW62861   4.143   9.773   1.621
14725SOL    HW162862   4.044   9.785   1.630
14725SOL    HW262863   4.190   9.833   1.686
14726SOL     OW62864   4.487   8.151   7.475
14726SOL    HW162865   4.555   8.108   7.416
14726SOL    HW262866   4.409   8.089   7.487
14727SOL     OW62867   2.825   3.788   8.452
14727SOL    HW162868   2.796   3.877   8.487
14727SOL    HW262869   2.873   3.737   8.524
14728SOL     OW62870   3.017   6.690   7.208
14728SOL    HW162871   3.051   6.687   7.114
14728SOL    HW262872   2.929   6.643   7.214
14729SOL     OW62873   9.503   1.214   0.559
14729SOL    HW162874   9.428   1.151   0.537
14729SOL    HW262875   9.576   1.165   0.606
14730SOL     OW62876   9.556   0.885   0.322
14730SOL    HW162877   9.541   0.788   0.303
14730SOL    HW262878   9.594   0.929   0.241
14731SOL     OW62879   7.743   5.638   7.963
14731SOL    HW162880   7.699   5.550   7.980
14731SOL    HW262881   7.818   5.625   7.897
14732SOL     OW62882   5.599   1.090   6.900
14732SOL    HW162883   5.575   0.998   6.868
14732SOL    HW262884   5.588   1.155   6.825
14733SOL     OW62885   3.971   5.905   0.551
14733SOL    HW162886   3.988   5.989   0.603
14733SOL    HW262887   3.984   5.826   0.610
14734SOL     OW62888   4.598   2.648   8.008
14734SOL    HW162889   4.671   2.619   8.070
14734SOL    HW262890   4.637   2.665   7.917
14735SOL     OW62891   7.677  10.191   0.289
14735SOL    HW162892   7.657  10.278   0.333
14735SOL    HW262893   7.725  10.132   0.354
14736SOL     OW62894   2.427   1.420   1.453
14736SOL    HW162895   2.381   1.332   1.448
14736SOL    HW262896   2.427   1.453   1.548
14737SOL     OW62897   6.175   6.184   7.230
14737SOL    HW162898   6.119   6.102   7.235
14737SOL    HW262899   6.269   6.160   7.208
14738SOL     OW62900   6.613   9.385   0.045
14738SOL    HW162901   6.591   9.463   0.105
14738SOL    HW262902   6.533   9.363   8.771
14739SOL     OW62903   3.281   4.039   1.587
14739SOL    HW162904   3.231   3.986   1.656
14739SOL    HW262905   3.362   4.080   1.629
14740SOL     OW62906   7.165   6.331   2.257
14740SOL    HW162907   7.094   6.329   2.327
14740SOL    HW262908   7.243   6.276   2.286
14741SOL     OW62909   7.444   6.910   7.493
14741SOL    HW162910   7.353   6.877   7.521
14741SOL    HW262911   7.510   6.889   7.565
14742SOL     OW62912   8.743  10.261   8.375
14742SOL    HW162913   8.713  10.355   8.361
14742SOL    HW262914   8.743  10.212   8.287
14743SOL     OW62915   1.317   6.525   0.418
14743SOL    HW162916   1.401   6.533   0.472
14743SOL    HW262917   1.327   6.450   0.352
14744SOL     OW62918   9.013   6.484   0.222
14744SOL    HW162919   8.935   6.471   0.161
14744SOL    HW262920   9.025   6.402   0.279
14745SOL     OW62921   7.447   2.286   1.445
14745SOL    HW162922   7.366   2.295   1.388
14745SOL    HW262923   7.509   2.362   1.427
14746SOL     OW62924   9.363   1.870   1.367
14746SOL    HW162925   9.309   1.788   1.345
14746SOL    HW262926   9.314   1.927   1.432
14747SOL     OW62927   8.562   3.002   8.265
14747SOL    HW162928   8.521   3.019   8.355
14747SOL    HW262929   8.557   3.085   8.210
14748SOL     OW62930   2.659   4.467   0.484
14748SOL    HW162931   2.572   4.425   0.461
14748SOL    HW262932   2.655   4.503   0.578
14749SOL     OW62933   8.904  10.086   7.002
14749SOL    HW162934   8.827  10.118   7.058
14749SOL    HW262935   8.874  10.076   6.907
14750SOL     OW62936   6.744   3.855   0.386
14750SOL    HW162937   6.661   3.808   0.417
14750SOL    HW262938   6.727   3.953   0.384
14751SOL     OW62939   7.689   2.568   7.409
14751SOL    HW162940   7.601   2.609   7.430
14751SOL    HW262941   7.675   2.489   7.349
14752SOL     OW62942   7.083   0.272   7.501
14752SOL    HW162943   7.038   0.294   7.414
14752SOL    HW262944   7.176   0.308   7.500
14753SOL     OW62945   3.148   0.104   6.000
14753SOL    HW162946   3.061   0.116   5.953
14753SOL    HW262947   3.223   0.128   5.938
14754SOL     OW62948   6.653   4.153   7.133
14754SOL    HW162949   6.637   4.205   7.049
14754SOL    HW262950   6.751   4.153   7.154
14755SOL     OW62951   9.282   5.299   7.373
14755SOL    HW162952   9.340   5.381   7.370
14755SOL    HW262953   9.251   5.277   7.281
14756SOL     OW62954   5.109  10.321   8.761
14756SOL    HW162955   5.051  10.401   8.769
14756SOL    HW262956   5.126  10.301   8.664
14757SOL     OW62957   3.610   6.060   7.158
14757SOL    HW162958   3.534   6.016   7.110
14757SOL    HW262959   3.596   6.052   7.257
14758SOL     OW62960   2.645   6.399   0.778
14758SOL    HW162961   2.569   6.433   0.834
14758SOL    HW262962   2.706   6.475   0.755
14759SOL     OW62963   8.825   5.272   8.401
14759SOL    HW162964   8.759   5.198   8.412
14759SOL    HW262965   8.797   5.350   8.458
14760SOL     OW62966   6.836   2.695   0.657
14760SOL    HW162967   6.923   2.710   0.704
14760SOL    HW262968   6.829   2.599   0.629
14761SOL     OW62969   4.539   2.759   2.108
14761SOL    HW162970   4.515   2.856   2.108
14761SOL    HW262971   4.598   2.739   2.186
14762SOL     OW62972   7.874   5.146   7.247
14762SOL    HW162973   7.796   5.178   7.193
14762SOL    HW262974   7.946   5.215   7.245
14763SOL     OW62975   5.078   0.193   1.198
14763SOL    HW162976   5.072   0.292   1.210
14763SOL    HW262977   4.997   0.160   1.150
14764SOL     OW62978   7.133   0.499   0.260
14764SOL    HW162979   7.228   0.478   0.237
14764SOL    HW262980   7.092   0.552   0.187
14765SOL     OW62981   4.232   3.977   0.598
14765SOL    HW162982   4.264   4.069   0.579
14765SOL    HW262983   4.301   3.928   0.651
14766SOL     OW62984   5.496   8.266   7.872
14766SOL    HW162985   5.495   8.178   7.919
14766SOL    HW262986   5.563   8.327   7.914
14767SOL     OW62987   8.339   7.146   7.835
14767SOL    HW162988   8.376   7.180   7.922
14767SOL    HW262989   8.241   7.126   7.846
14768SOL     OW62990   4.094   1.814   1.112
14768SOL    HW162991   4.087   1.829   1.014
14768SOL    HW262992   4.017   1.758   1.143
14769SOL     OW62993   5.673   1.485   1.135
14769SOL    HW162994   5.596   1.543   1.161
14769SOL    HW262995   5.757   1.521   1.177
14770SOL     OW62996   1.994   8.945   2.082
14770SOL    HW162997   2.074   8.904   2.127
14770SOL    HW262998   1.969   9.030   2.128
14771SOL     OW62999   0.314   5.662   8.625
14771SOL    HW163000   0.368   5.620   8.551
14771SOL    HW263001   0.373   5.674   8.705
14772SOL     OW63002   3.577   1.372   7.975
14772SOL    HW163003   3.597   1.345   7.881
14772SOL    HW263004   3.563   1.290   8.031
14773SOL     OW63005   7.022   0.823   0.507
14773SOL    HW163006   7.047   0.917   0.532
14773SOL    HW263007   7.060   0.759   0.573
14774SOL     OW63008   5.117   7.206   0.785
14774SOL    HW163009   5.088   7.301   0.779
14774SOL    HW263010   5.067   7.151   0.718
14775SOL     OW63011   7.387   6.500   7.628
14775SOL    HW163012   7.438   6.471   7.547
14775SOL    HW263013   7.366   6.420   7.685
14776SOL     OW63014   8.553   6.842   1.680
14776SOL    HW163015   8.607   6.889   1.750
14776SOL    HW263016   8.495   6.908   1.633
14777SOL     OW63017   1.178   4.901   1.125
14777SOL    HW163018   1.137   4.858   1.205
14777SOL    HW263019   1.262   4.852   1.100
14778SOL     OW63020   2.397   8.830   1.078
14778SOL    HW163021   2.414   8.875   1.166
14778SOL    HW263022   2.339   8.750   1.092
14779SOL     OW63023   9.046  10.098   0.593
14779SOL    HW163024   9.094  10.015   0.623
14779SOL    HW263025   9.073  10.175   0.651
14780SOL     OW63026   2.176   4.813   0.283
14780SOL    HW163027   2.230   4.894   0.256
14780SOL    HW263028   2.099   4.842   0.340
14781SOL     OW63029   2.041   7.268   6.328
14781SOL    HW163030   2.021   7.250   6.231
14781SOL    HW263031   1.959   7.301   6.373
14782SOL     OW63032   7.313   0.672   8.737
14782SOL    HW163033   7.341   0.579   8.714
14782SOL    HW263034   7.221   0.671   8.776
14783SOL     OW63035   6.410   4.518   7.739
14783SOL    HW163036   6.462   4.467   7.808
14783SOL    HW263037   6.455   4.510   7.650
14784SOL     OW63038   6.749   2.750   8.583
14784SOL    HW163039   6.802   2.666   8.591
14784SOL    HW263040   6.776   2.800   8.500
14785SOL     OW63041   0.350   4.173   6.994
14785SOL    HW163042   0.413   4.243   6.962
14785SOL    HW263043   0.294   4.140   6.918
14786SOL     OW63044   5.361   7.927   0.272
14786SOL    HW163045   5.423   7.903   0.346
14786SOL    HW263046   5.316   7.844   0.238
14787SOL     OW63047   4.773   6.991   8.026
14787SOL    HW163048   4.809   7.084   8.037
14787SOL    HW263049   4.849   6.927   8.018
14788SOL     OW63050   1.265   9.773   8.649
14788SOL    HW163051   1.227   9.725   8.728
14788SOL    HW263052   1.330   9.842   8.680
14789SOL     OW63053   8.401   0.586   0.888
14789SOL    HW163054   8.359   0.561   0.975
14789SOL    HW263055   8.355   0.536   0.814
14790SOL     OW63056   8.895   8.327   0.169
14790SOL    HW163057   8.881   8.414   0.123
14790SOL    HW263058   8.873   8.252   0.106
14791SOL     OW63059   5.208  10.255   1.669
14791SOL    HW163060   5.240  10.161   1.663
14791SOL    HW263061   5.271  10.308   1.725
14792SOL     OW63062   0.170   2.068   7.510
14792SOL    HW163063   0.260   2.030   7.532
14792SOL    HW263064   0.127   2.011   7.440
14793SOL     OW63065   9.207   4.258   0.284
14793SOL    HW163066   9.152   4.230   0.363
14793SOL    HW263067   9.227   4.355   0.290
14794SOL     OW63068   7.752   8.803   7.027
14794SOL    HW163069   7.689   8.858   7.081
14794SOL    HW263070   7.737   8.706   7.046
14795SOL     OW63071   8.622   5.375   6.039
14795SOL    HW163072   8.719   5.355   6.051
14795SOL    HW263073   8.600   5.459   6.090
14796SOL     OW63074   6.956   9.446   8.168
14796SOL    HW163075   7.031   9.496   8.124
14796SOL    HW263076   6.874   9.504   8.170
14797SOL     OW63077   8.779   7.879   8.146
14797SOL    HW163078   8.828   7.826   8.076
14797SOL    HW263079   8.800   7.841   8.236
14798SOL     OW63080   5.032   4.664   7.751
14798SOL    HW163081   4.967   4.661   7.675
14798SOL    HW263082   5.054   4.571   7.780
14799SOL     OW63083   1.239   9.843   1.251
14799SOL    HW163084   1.228   9.759   1.303
14799SOL    HW263085   1.307   9.901   1.294
14800SOL     OW63086   7.246   5.089   6.894
14800SOL    HW163087   7.216   5.180   6.921
14800SOL    HW263088   7.171   5.024   6.904
14801SOL     OW63089   9.475   1.646   8.071
14801SOL    HW163090   9.549   1.710   8.051
14801SOL    HW263091   9.398   1.664   8.010
14802SOL     OW63092   6.730   4.781   8.700
14802SOL    HW163093   6.703   4.774   8.604
14802SOL    HW263094   6.651   4.806   8.756
14803SOL     OW63095   1.804  10.218   7.258
14803SOL    HW163096   1.720  10.247   7.302
14803SOL    HW263097   1.847  10.296   7.212
14804SOL     OW63098   7.403   8.798   1.048
14804SOL    HW163099   7.410   8.891   1.082
14804SOL    HW263100   7.308   8.779   1.023
14805SOL     OW63101   2.242   3.768   7.558
14805SOL    HW163102   2.214   3.729   7.645
14805SOL    HW263103   2.275   3.861   7.572
14806SOL     OW63104   3.601   7.395   7.162
14806SOL    HW163105   3.521   7.335   7.171
14806SOL    HW263106   3.582   7.483   7.206
14807SOL     OW63107   3.576   5.063   8.318
14807SOL    HW163108   3.502   5.114   8.362
14807SOL    HW263109   3.615   5.118   8.244
14808SOL     OW63110   4.419   4.642   1.749
14808SOL    HW163111   4.503   4.696   1.740
14808SOL    HW263112   4.356   4.666   1.675
14809SOL     OW63113   8.515   3.837   0.825
14809SOL    HW163114   8.542   3.924   0.866
14809SOL    HW263115   8.483   3.775   0.896
14810SOL     OW63116   9.264   2.077   6.292
14810SOL    HW163117   9.232   2.159   6.244
14810SOL    HW263118   9.234   2.081   6.387
14811SOL     OW63119   5.706   5.315   1.252
14811SOL    HW163120   5.638   5.380   1.288
14811SOL    HW263121   5.797   5.342   1.282
14812SOL     OW63122   2.430   1.782   0.999
14812SOL    HW163123   2.341   1.783   0.955
14812SOL    HW263124   2.423   1.826   1.089
14813SOL     OW63125   2.622   3.180   0.135
14813SOL    HW163126   2.580   3.109   0.193
14813SOL    HW263127   2.718   3.159   0.122
14814SOL     OW63128   8.097   9.556   1.315
14814SOL    HW163129   8.021   9.584   1.374
14814SOL    HW263130   8.070   9.475   1.263
14815SOL     OW63131   9.459   7.513   8.030
14815SOL    HW163132   9.403   7.462   8.095
14815SOL    HW263133   9.506   7.449   7.969
14816SOL     OW63134   0.215   2.426   6.223
14816SOL    HW163135   0.169   2.507   6.260
14816SOL    HW263136   0.148   2.366   6.180
14817SOL     OW63137   7.800   8.150   8.395
14817SOL    HW163138   7.868   8.098   8.447
14817SOL    HW263139   7.713   8.101   8.396
14818SOL     OW63140   8.968   5.204   0.979
14818SOL    HW163141   9.054   5.165   1.010
14818SOL    HW263142   8.941   5.163   0.892
14819SOL     OW63143   3.096   9.533   0.524
14819SOL    HW163144   3.093   9.444   0.571
14819SOL    HW263145   3.107   9.606   0.591
14820SOL     OW63146   5.024   4.501   2.207
14820SOL    HW163147   5.124   4.506   2.214
14820SOL    HW263148   4.990   4.427   2.265
14821SOL     OW63149   6.404   2.164   1.188
14821SOL    HW163150   6.477   2.212   1.236
14821SOL    HW263151   6.345   2.231   1.142
14822SOL     OW63152   2.068  10.319   6.837
14822SOL    HW163153   1.979  10.351   6.806
14822SOL    HW263154   2.139  10.381   6.804
14823SOL     OW63155   5.267   8.786   7.621
14823SOL    HW163156   5.287   8.777   7.718
14823SOL    HW263157   5.300   8.704   7.573
14824SOL     OW63158   7.183   9.666   6.433
14824SOL    HW163159   7.245   9.718   6.491
14824SOL    HW263160   7.133   9.729   6.373
14825SOL     OW63161   7.282   5.843   8.261
14825SOL    HW163162   7.210   5.868   8.326
14825SOL    HW263163   7.245   5.846   8.168
14826SOL     OW63164   3.337   7.933   1.794
14826SOL    HW163165   3.414   7.887   1.840
14826SOL    HW263166   3.366   8.022   1.760
14827SOL     OW63167   9.500   1.599   7.376
14827SOL    HW163168   9.572   1.556   7.321
14827SOL    HW263169   9.499   1.697   7.358
14828SOL     OW63170   0.913  10.191   0.270
14828SOL    HW163171   0.911  10.290   0.284
14828SOL    HW263172   0.950  10.172   0.179
14829SOL     OW63173   0.357   9.979   2.043
14829SOL    HW163174   0.319   9.969   2.135
14829SOL    HW263175   0.457   9.977   2.048
14830SOL     OW63176   3.824   8.485   7.869
14830SOL    HW163177   3.766   8.567   7.870
14830SOL    HW263178   3.889   8.490   7.945
14831SOL     OW63179   3.345  10.426   0.339
14831SOL    HW163180   3.293  10.436   0.424
14831SOL    HW263181   3.282  10.404   0.264
14832SOL     OW63182   2.578   7.602   6.962
14832SOL    HW163183   2.606   7.596   7.058
14832SOL    HW263184   2.488   7.559   6.950
14833SOL     OW63185   2.067   9.386   6.828
14833SOL    HW163186   2.015   9.464   6.861
14833SOL    HW263187   2.017   9.341   6.754
14834SOL     OW63188   9.272   3.383   1.328
14834SOL    HW163189   9.252   3.480   1.317
14834SOL    HW263190   9.362   3.363   1.290
14835SOL     OW63191   3.141   8.205   7.159
14835SOL    HW163192   3.081   8.137   7.117
14835SOL    HW263193   3.127   8.206   7.258
14836SOL     OW63194   7.145   9.934   1.753
14836SOL    HW163195   7.172   9.876   1.830
14836SOL    HW263196   7.049   9.959   1.762
14837SOL     OW63197   3.230  10.310   7.529
14837SOL    HW163198   3.266  10.378   7.466
14837SOL    HW263199   3.262  10.329   7.621
14838SOL     OW63200   2.730   8.432   7.964
14838SOL    HW163201   2.767   8.524   7.978
14838SOL    HW263202   2.804   8.370   7.939
14839SOL     OW63203   4.570   8.009   8.327
14839SOL    HW163204   4.570   8.080   8.257
14839SOL    HW263205   4.636   8.032   8.398
14840SOL     OW63206  10.050   0.937   7.351
14840SOL    HW163207   9.986   0.958   7.277
14840SOL    HW263208  10.051   0.839   7.368
14841SOL     OW63209   0.953   7.758   1.523
14841SOL    HW163210   0.994   7.677   1.482
14841SOL    HW263211   0.884   7.730   1.590
14842SOL     OW63212   8.196   1.872   0.067
14842SOL    HW163213   8.187   1.962   0.025
14842SOL    HW263214   8.280   1.870   0.123
14843SOL     OW63215   0.016   2.513   7.500
14843SOL    HW163216   0.052   2.578   7.433
14843SOL    HW263217   0.084   2.442   7.518
14844SOL     OW63218   4.670   4.622   1.179
14844SOL    HW163219   4.749   4.621   1.118
14844SOL    HW263220   4.647   4.717   1.202
14845SOL     OW63221   4.626   0.840   6.977
14845SOL    HW163222   4.708   0.891   6.952
14845SOL    HW263223   4.576   0.814   6.895
14846SOL     OW63224   2.016   6.107   0.045
14846SOL    HW163225   1.964   6.188   0.074
14846SOL    HW263226   2.032   6.112   8.729
14847SOL     OW63227   1.479   7.462   0.876
14847SOL    HW163228   1.434   7.422   0.956
14847SOL    HW263229   1.578   7.464   0.891
14848SOL     OW63230   3.005   5.878   0.726
14848SOL    HW163231   3.045   5.809   0.666
14848SOL    HW263232   2.999   5.842   0.819
14849SOL     OW63233   9.391   8.876   6.793
14849SOL    HW163234   9.468   8.903   6.735
14849SOL    HW263235   9.305   8.888   6.743
14850SOL     OW63236   9.460   8.230   6.486
14850SOL    HW163237   9.402   8.227   6.405
14850SOL    HW263238   9.556   8.217   6.459
14851SOL     OW63239   3.462   6.845   7.298
14851SOL    HW163240   3.522   6.925   7.291
14851SOL    HW263241   3.515   6.766   7.328
14852SOL     OW63242   1.338   7.949   8.135
14852SOL    HW163243   1.246   7.988   8.139
14852SOL    HW263244   1.376   7.964   8.044
14853SOL     OW63245   8.014   0.186   8.655
14853SOL    HW163246   8.029   0.090   8.677
14853SOL    HW263247   8.013   0.240   8.739
14854SOL     OW63248   3.010   6.926   7.355
14854SOL    HW163249   2.934   6.922   7.420
14854SOL    HW263250   3.013   6.841   7.302
14855SOL     OW63251   5.869   8.140   7.696
14855SOL    HW163252   5.833   8.232   7.707
14855SOL    HW263253   5.929   8.118   7.773
14856SOL     OW63254   7.684   8.894   6.776
14856SOL    HW163255   7.593   8.868   6.744
14856SOL    HW263256   7.697   8.863   6.870
14857SOL     OW63257   2.601   7.350   1.055
14857SOL    HW163258   2.533   7.393   1.114
14857SOL    HW263259   2.692   7.376   1.085
14858SOL     OW63260   2.985   3.155   8.660
14858SOL    HW163261   2.982   3.067   8.612
14858SOL    HW263262   3.078   3.192   8.656
14859SOL     OW63263   1.143   6.412   6.790
14859SOL    HW163264   1.139   6.460   6.703
14859SOL    HW263265   1.085   6.331   6.786
14860SOL     OW63266   5.893   2.293   1.446
14860SOL    HW163267   5.966   2.244   1.398
14860SOL    HW263268   5.855   2.364   1.387
14861SOL     OW63269   9.307   5.356   0.878
14861SOL    HW163270   9.368   5.435   0.867
14861SOL    HW263271   9.212   5.388   0.876
14862SOL     OW63272   9.171   4.597   8.390
14862SOL    HW163273   9.238   4.653   8.340
14862SOL    HW263274   9.097   4.571   8.329
14863SOL     OW63275   9.584   8.151   7.870
14863SOL    HW163276   9.598   8.247   7.850
14863SOL    HW263277   9.526   8.142   7.951
14864SOL     OW63278   6.883   5.975   8.648
14864SOL    HW163279   6.814   5.904   8.663
14864SOL    HW263280   6.940   5.984   8.730
14865SOL     OW63281   9.396   6.240   1.949
14865SOL    HW163282   9.301   6.214   1.970
14865SOL    HW263283   9.458   6.186   2.007
14866SOL     OW63284   0.439   0.939   8.574
14866SOL    HW163285   0.520   0.925   8.631
14866SOL    HW263286   0.439   1.032   8.537
14867SOL     OW63287   7.940   2.749   1.434
14867SOL    HW163288   7.946   2.650   1.420
14867SOL    HW263289   7.962   2.771   1.529
14868SOL     OW63290   4.304   4.881   0.494
14868SOL    HW163291   4.251   4.799   0.513
14868SOL    HW263292   4.243   4.954   0.463
14869SOL     OW63293   3.859   2.255   6.698
14869SOL    HW163294   3.880   2.190   6.772
14869SOL    HW263295   3.933   2.322   6.692
14870SOL     OW63296   1.991   1.355   2.097
14870SOL    HW163297   1.970   1.445   2.134
14870SOL    HW263298   2.091   1.344   2.090
14871SOL     OW63299   7.445   1.433   7.312
14871SOL    HW163300   7.441   1.446   7.213
14871SOL    HW263301   7.432   1.337   7.334
14872SOL     OW63302   1.643   5.448   7.977
14872SOL    HW163303   1.596   5.462   8.064
14872SOL    HW263304   1.599   5.373   7.927
14873SOL     OW63305   9.457   9.908   7.890
14873SOL    HW163306   9.531   9.976   7.886
14873SOL    HW263307   9.369   9.954   7.898
14874SOL     OW63308   6.319   2.096   0.301
14874SOL    HW163309   6.408   2.095   0.254
14874SOL    HW263310   6.285   2.190   0.306
14875SOL     OW63311   0.994  10.287   1.371
14875SOL    HW163312   0.987  10.208   1.432
14875SOL    HW263313   1.065  10.270   1.302
14876SOL     OW63314   1.747   8.334   1.471
14876SOL    HW163315   1.703   8.400   1.531
14876SOL    HW263316   1.846   8.341   1.481
14877SOL     OW63317   9.267   2.834   8.273
14877SOL    HW163318   9.169   2.842   8.253
14877SOL    HW263319   9.293   2.906   8.338
14878SOL     OW63320   3.598   7.118   1.706
14878SOL    HW163321   3.550   7.141   1.621
14878SOL    HW263322   3.544   7.050   1.756
14879SOL     OW63323   3.731   1.929   2.205
14879SOL    HW163324   3.650   1.872   2.220
14879SOL    HW263325   3.705   2.026   2.213
14880SOL     OW63326   1.049   9.779   8.479
14880SOL    HW163327   1.130   9.786   8.538
14880SOL    HW263328   0.967   9.780   8.535
14881SOL     OW63329   4.073   6.024   8.218
14881SOL    HW163330   4.161   5.981   8.197
14881SOL    HW263331   4.072   6.055   8.313
14882SOL     OW63332   4.743   7.710   8.071
14882SOL    HW163333   4.803   7.659   8.009
14882SOL    HW263334   4.709   7.792   8.025
14883SOL     OW63335   9.201   1.654   1.347
14883SOL    HW163336   9.123   1.690   1.399
14883SOL    HW263337   9.235   1.571   1.390
14884SOL     OW63338   4.314   8.068   8.522
14884SOL    HW163339   4.398   8.109   8.559
14884SOL    HW263340   4.302   7.977   8.560
14885SOL     OW63341   8.288   2.668   7.902
14885SOL    HW163342   8.347   2.607   7.849
14885SOL    HW263343   8.202   2.621   7.921
14886SOL     OW63344   3.069   3.214   1.975
14886SOL    HW163345   3.041   3.290   1.917
14886SOL    HW263346   3.145   3.242   2.034
14887SOL     OW63347   1.291   8.716   7.297
14887SOL    HW163348   1.266   8.806   7.262
14887SOL    HW263349   1.209   8.670   7.331
14888SOL     OW63350   7.218   6.235   6.884
14888SOL    HW163351   7.302   6.189   6.913
14888SOL    HW263352   7.223   6.255   6.786
14889SOL     OW63353   3.767   5.384   1.473
14889SOL    HW163354   3.680   5.353   1.433
14889SOL    HW263355   3.805   5.311   1.530
14890SOL     OW63356   8.683   8.755   2.423
14890SOL    HW163357   8.586   8.747   2.399
14890SOL    HW263358   8.704   8.692   2.498
14891SOL     OW63359   9.228   5.644   7.065
14891SOL    HW163360   9.165   5.660   7.141
14891SOL    HW263361   9.322   5.650   7.098
14892SOL     OW63362   9.502   2.872   2.019
14892SOL    HW163363   9.428   2.805   2.030
14892SOL    HW263364   9.525   2.912   2.108
14893SOL     OW63365   4.179   7.516   8.393
14893SOL    HW163366   4.220   7.531   8.303
14893SOL    HW263367   4.146   7.604   8.429
14894SOL     OW63368   9.853   3.694   1.492
14894SOL    HW163369   9.781   3.634   1.459
14894SOL    HW263370   9.842   3.709   1.590
14895SOL     OW63371   9.411   1.417   0.911
14895SOL    HW163372   9.489   1.396   0.970
14895SOL    HW263373   9.444   1.446   0.821
14896SOL     OW63374   4.788  10.029   0.990
14896SOL    HW163375   4.745  10.015   0.901
14896SOL    HW263376   4.862  10.095   0.982
14897SOL     OW63377   6.018   6.571   2.140
14897SOL    HW163378   6.073   6.519   2.204
14897SOL    HW263379   5.985   6.655   2.185
14898SOL     OW63380   1.940   0.808   6.885
14898SOL    HW163381   1.883   0.779   6.962
14898SOL    HW263382   1.887   0.806   6.801
14899SOL     OW63383   8.304   1.519   8.163
14899SOL    HW163384   8.304   1.467   8.077
14899SOL    HW263385   8.371   1.594   8.156
14900SOL     OW63386   0.094   1.313   0.233
14900SOL    HW163387   0.118   1.216   0.228
14900SOL    HW263388   0.058   1.342   0.144
14901SOL     OW63389   2.553  10.144   1.431
14901SOL    HW163390   2.626  10.081   1.404
14901SOL    HW263391   2.557  10.158   1.530
14902SOL     OW63392   6.006   2.599   7.524
14902SOL    HW163393   6.070   2.667   7.489
14902SOL    HW263394   5.916   2.613   7.483
14903SOL     OW63395   2.035   2.430   6.506
14903SOL    HW163396   2.008   2.368   6.432
14903SOL    HW263397   2.115   2.482   6.478
14904SOL     OW63398   3.717   1.450   6.175
14904SOL    HW163399   3.676   1.474   6.087
14904SOL    HW263400   3.806   1.494   6.184
14905SOL     OW63401   9.434   5.114   6.298
14905SOL    HW163402   9.415   5.079   6.390
14905SOL    HW263403   9.463   5.038   6.240
14906SOL     OW63404   0.264   1.255   6.552
14906SOL    HW163405   0.184   1.283   6.604
14906SOL    HW263406   0.239   1.243   6.456
14907SOL     OW63407   7.444   4.276   0.461
14907SOL    HW163408   7.518   4.300   0.524
14907SOL    HW263409   7.434   4.176   0.459
14908SOL     OW63410   2.082   0.765   6.272
14908SOL    HW163411   2.062   0.673   6.238
14908SOL    HW263412   2.076   0.830   6.196
14909SOL     OW63413   2.094   5.590   7.065
14909SOL    HW163414   2.008   5.631   7.096
14909SOL    HW263415   2.122   5.635   6.979
14910SOL     OW63416   2.207   4.847   7.595
14910SOL    HW163417   2.152   4.894   7.525
14910SOL    HW263418   2.225   4.910   7.670
14911SOL     OW63419   6.935   8.127   8.638
14911SOL    HW163420   6.939   8.116   8.539
14911SOL    HW263421   6.844   8.160   8.665
14912SOL     OW63422   9.551   6.898   6.630
14912SOL    HW163423   9.556   6.989   6.670
14912SOL    HW263424   9.458   6.882   6.595
14913SOL     OW63425   6.790   3.157   7.275
14913SOL    HW163426   6.842   3.133   7.193
14913SOL    HW263427   6.854   3.169   7.352
14914SOL     OW63428  10.110   9.310   0.373
14914SOL    HW163429  10.089   9.278   0.280
14914SOL    HW263430  10.051   9.388   0.395
14915SOL     OW63431   1.788   5.787   8.563
14915SOL    HW163432   1.834   5.812   8.647
14915SOL    HW263433   1.764   5.870   8.512
14916SOL     OW63434   4.791  10.169   8.640
14916SOL    HW163435   4.834  10.179   8.550
14916SOL    HW263436   4.729  10.246   8.655
14917SOL     OW63437   2.741   1.559   0.557
14917SOL    HW163438   2.655   1.514   0.582
14917SOL    HW263439   2.746   1.570   0.458
14918SOL     OW63440   7.788   1.467   1.805
14918SOL    HW163441   7.755   1.390   1.859
14918SOL    HW263442   7.866   1.438   1.749
14919SOL     OW63443   9.369   0.334   6.415
14919SOL    HW163444   9.355   0.430   6.392
14919SOL    HW263445   9.298   0.278   6.372
14920SOL     OW63446   0.835  10.219   7.934
14920SOL    HW163447   0.907  10.211   7.865
14920SOL    HW263448   0.840  10.309   7.977
14921SOL     OW63449   1.732   0.396   6.774
14921SOL    HW163450   1.662   0.466   6.784
14921SOL    HW263451   1.767   0.370   6.865
14922SOL     OW63452   9.126   6.254   0.863
14922SOL    HW163453   9.197   6.324   0.869
14922SOL    HW263454   9.137   6.203   0.778
14923SOL     OW63455   4.413   8.734   1.553
14923SOL    HW163456   4.393   8.712   1.457
14923SOL    HW263457   4.512   8.742   1.565
14924SOL     OW63458   1.818   2.664   8.111
14924SOL    HW163459   1.899   2.723   8.123
14924SOL    HW263460   1.744   2.717   8.071
14925SOL     OW63461   8.633   1.910   1.604
14925SOL    HW163462   8.590   1.917   1.514
14925SOL    HW263463   8.591   1.834   1.655
14926SOL     OW63464   6.795   1.488   0.446
14926SOL    HW163465   6.747   1.462   0.529
14926SOL    HW263466   6.805   1.587   0.443
14927SOL     OW63467   4.157   3.446   0.435
14927SOL    HW163468   4.225   3.500   0.386
14927SOL    HW263469   4.190   3.427   0.527
14928SOL     OW63470   8.454   1.755   8.623
14928SOL    HW163471   8.422   1.850   8.617
14928SOL    HW263472   8.418   1.713   8.705
14929SOL     OW63473   3.273   2.996   7.403
14929SOL    HW163474   3.345   3.021   7.467
14929SOL    HW263475   3.305   2.922   7.343
14930SOL     OW63476   0.412   1.143   7.577
14930SOL    HW163477   0.333   1.189   7.617
14930SOL    HW263478   0.381   1.082   7.504
14931SOL     OW63479   4.030   2.351   7.381
14931SOL    HW163480   3.969   2.295   7.437
14931SOL    HW263481   4.125   2.335   7.409
14932SOL     OW63482   3.603   5.217   0.305
14932SOL    HW163483   3.647   5.298   0.267
14932SOL    HW263484   3.505   5.220   0.285
14933SOL     OW63485   1.304   1.492   1.605
14933SOL    HW163486   1.229   1.496   1.538
14933SOL    HW263487   1.297   1.407   1.657
14934SOL     OW63488   3.647   3.004   8.531
14934SOL    HW163489   3.707   2.941   8.481
14934SOL    HW263490   3.615   3.075   8.469
14935SOL     OW63491   6.997   9.997   2.771
14935SOL    HW163492   6.977  10.059   2.695
14935SOL    HW263493   6.968   9.904   2.747
14936SOL     OW63494   9.637   9.928   8.407
14936SOL    HW163495   9.723   9.881   8.385
14936SOL    HW263496   9.657  10.022   8.435
14937SOL     OW63497   1.097   5.548   0.384
14937SOL    HW163498   1.185   5.541   0.430
14937SOL    HW263499   1.058   5.639   0.399
14938SOL     OW63500   7.129   5.523   6.418
14938SOL    HW163501   7.142   5.523   6.319
14938SOL    HW263502   7.203   5.472   6.461
14939SOL     OW63503   4.715   6.350   1.384
14939SOL    HW163504   4.624   6.370   1.347
14939SOL    HW263505   4.783   6.364   1.312
14940SOL     OW63506   8.217   6.272   0.369
14940SOL    HW163507   8.180   6.364   0.381
14940SOL    HW263508   8.275   6.249   0.447
14941SOL     OW63509   5.091   9.554   2.014
14941SOL    HW163510   5.040   9.489   2.070
14941SOL    HW263511   5.183   9.518   1.997
14942SOL     OW63512   7.192   6.838   7.579
14942SOL    HW163513   7.198   6.793   7.668
14942SOL    HW263514   7.137   6.921   7.587
14943SOL     OW63515   2.168   3.242   0.274
14943SOL    HW163516   2.163   3.143   0.264
14943SOL    HW263517   2.246   3.278   0.222
14944SOL     OW63518   3.782   5.829   7.457
14944SOL    HW163519   3.830   5.841   7.370
14944SOL    HW263520   3.739   5.739   7.460
14945SOL     OW63521   2.060   2.937   0.418
14945SOL    HW163522   1.963   2.932   0.396
14945SOL    HW263523   2.113   2.948   0.333
14946SOL     OW63524   5.447   7.760   8.199
14946SOL    HW163525   5.542   7.788   8.211
14946SOL    HW263526   5.389   7.841   8.194
14947SOL     OW63527   5.692   9.293   1.509
14947SOL    HW163528   5.727   9.262   1.420
14947SOL    HW263529   5.765   9.342   1.558
14948SOL     OW63530   9.191   5.740   6.564
14948SOL    HW163531   9.154   5.823   6.524
14948SOL    HW263532   9.240   5.762   6.649
14949SOL     OW63533   1.802   9.028   0.325
14949SOL    HW163534   1.840   8.937   0.344
14949SOL    HW263535   1.721   9.042   0.382
14950SOL     OW63536   7.773   4.283   8.624
14950SOL    HW163537   7.702   4.334   8.673
14950SOL    HW263538   7.859   4.333   8.629
14951SOL     OW63539   1.055   5.690   7.417
14951SOL    HW163540   1.120   5.724   7.486
14951SOL    HW263541   1.100   5.620   7.362
14952SOL     OW63542   6.694   7.421   8.715
14952SOL    HW163543   6.736   7.332   8.734
14952SOL    HW263544   6.740   7.492   8.769
14953SOL     OW63545   7.521   2.287   8.209
14953SOL    HW163546   7.560   2.196   8.197
14953SOL    HW263547   7.517   2.334   8.121
14954SOL     OW63548   3.527   4.113   1.691
14954SOL    HW163549   3.612   4.082   1.649
14954SOL    HW263550   3.529   4.094   1.789
14955SOL     OW63551   9.701   1.277   6.438
14955SOL    HW163552   9.635   1.316   6.503
14955SOL    HW263553   9.736   1.349   6.379
14956SOL     OW63554   6.269   3.089   0.539
14956SOL    HW163555   6.228   3.062   0.452
14956SOL    HW263556   6.220   3.045   0.614
14957SOL     OW63557   8.380   8.308   2.365
14957SOL    HW163558   8.312   8.339   2.431
14957SOL    HW263559   8.439   8.240   2.409
14958SOL     OW63560   3.176  10.352   6.618
14958SOL    HW163561   3.202  10.339   6.522
14958SOL    HW263562   3.236  10.297   6.676
14959SOL     OW63563   0.876   1.604   7.053
14959SOL    HW163564   0.875   1.654   6.966
14959SOL    HW263565   0.970   1.582   7.077
14960SOL     OW63566   4.429   5.982   0.094
14960SOL    HW163567   4.469   5.999   0.184
14960SOL    HW263568   4.393   6.068   0.057
14961SOL     OW63569   0.087   7.273   7.080
14961SOL    HW163570   0.012   7.215   7.047
14961SOL    HW263571   0.048   7.349   7.132
14962SOL     OW63572   3.522   1.234   2.276
14962SOL    HW163573   3.445   1.193   2.228
14962SOL    HW263574   3.490   1.274   2.362
14963SOL     OW63575   6.678   0.416   0.017
14963SOL    HW163576   6.673   0.426   0.117
14963SOL    HW263577   6.598   0.364   8.767
14964SOL     OW63578   9.823   4.375   1.365
14964SOL    HW163579   9.771   4.454   1.397
14964SOL    HW263580   9.786   4.292   1.407
14965SOL     OW63581   7.160   1.034   2.134
14965SOL    HW163582   7.094   0.978   2.184
14965SOL    HW263583   7.184   1.115   2.188
14966SOL     OW63584   5.694   6.970   1.676
14966SOL    HW163585   5.769   7.020   1.632
14966SOL    HW263586   5.660   7.022   1.754
14967SOL     OW63587   0.606   3.701   0.323
14967SOL    HW163588   0.544   3.628   0.293
14967SOL    HW263589   0.700   3.676   0.302
14968SOL     OW63590   5.502   8.030   8.010
14968SOL    HW163591   5.516   7.947   7.955
14968SOL    HW263592   5.424   8.017   8.070
14969SOL     OW63593   0.313   5.031   8.084
14969SOL    HW163594   0.292   5.039   7.986
14969SOL    HW263595   0.240   4.982   8.130
14970SOL     OW63596   3.053   1.162   2.220
14970SOL    HW163597   3.026   1.068   2.239
14970SOL    HW263598   3.150   1.165   2.197
14971SOL     OW63599   8.189   6.182   1.800
14971SOL    HW163600   8.238   6.259   1.840
14971SOL    HW263601   8.249   6.136   1.734
14972SOL     OW63602   1.477   4.200   1.864
14972SOL    HW163603   1.412   4.246   1.804
14972SOL    HW263604   1.452   4.216   1.959
14973SOL     OW63605   5.437   6.284   1.622
14973SOL    HW163606   5.453   6.364   1.679
14973SOL    HW263607   5.524   6.237   1.605
14974SOL     OW63608   7.783   4.481   7.503
14974SOL    HW163609   7.834   4.397   7.484
14974SOL    HW263610   7.707   4.490   7.439
14975SOL     OW63611   9.198   6.501   1.488
14975SOL    HW163612   9.148   6.588   1.495
14975SOL    HW263613   9.265   6.508   1.415
14976SOL     OW63614   8.983   0.629   7.911
14976SOL    HW163615   9.010   0.725   7.910
14976SOL    HW263616   8.886   0.621   7.890
14977SOL     OW63617   1.940   4.980   6.366
14977SOL    HW163618   1.885   5.062   6.380
14977SOL    HW263619   2.010   4.998   6.296
14978SOL     OW63620   0.684   0.985   8.022
14978SOL    HW163621   0.756   0.926   7.985
14978SOL    HW263622   0.713   1.080   8.018
14979SOL     OW63623   4.439   7.583   1.188
14979SOL    HW163624   4.404   7.643   1.116
14979SOL    HW263625   4.368   7.516   1.212
14980SOL     OW63626   5.162   2.102   7.243
14980SOL    HW163627   5.079   2.147   7.209
14980SOL    HW263628   5.239   2.166   7.238
14981SOL     OW63629   1.932   5.618   6.501
14981SOL    HW163630   2.005   5.583   6.442
14981SOL    HW263631   1.888   5.542   6.548
14982SOL     OW63632   6.586   7.605   1.618
14982SOL    HW163633   6.615   7.545   1.693
14982SOL    HW263634   6.511   7.562   1.568
14983SOL     OW63635   9.632   2.959   1.795
14983SOL    HW163636   9.590   2.932   1.882
14983SOL    HW263637   9.700   2.890   1.768
14984SOL     OW63638   1.438   7.317   7.798
14984SOL    HW163639   1.502   7.376   7.847
14984SOL    HW263640   1.352   7.311   7.847
14985SOL     OW63641   8.188   9.352   8.637
14985SOL    HW163642   8.141   9.428   8.683
14985SOL    HW263643   8.166   9.267   8.684
14986SOL     OW63644   1.645   1.515   8.700
14986SOL    HW163645   1.733   1.516   8.748
14986SOL    HW263646   1.588   1.442   8.738
14987SOL     OW63647  10.071   4.559   0.305
14987SOL    HW163648  10.107   4.546   0.213
14987SOL    HW263649  10.077   4.656   0.330
14988SOL     OW63650   2.856   2.161   7.807
14988SOL    HW163651   2.774   2.131   7.759
14988SOL    HW263652   2.830   2.203   7.894
14989SOL     OW63653   1.457   6.690   8.050
14989SOL    HW163654   1.465   6.612   7.988
14989SOL    HW263655   1.378   6.745   8.025
14990SOL     OW63656   4.489   4.017   1.814
14990SOL    HW163657   4.457   4.097   1.762
14990SOL    HW263658   4.456   4.023   1.908
14991SOL     OW63659   1.219   8.367   6.088
14991SOL    HW163660   1.222   8.456   6.043
14991SOL    HW263661   1.131   8.357   6.136
14992SOL     OW63662   7.490   3.833   0.239
14992SOL    HW163663   7.413   3.770   0.231
14992SOL    HW263664   7.572   3.792   0.197
14993SOL     OW63665   7.080   6.448   2.030
14993SOL    HW163666   7.149   6.515   2.002
14993SOL    HW263667   7.110   6.403   2.114
14994SOL     OW63668   1.000   1.606   8.073
14994SOL    HW163669   1.019   1.566   7.983
14994SOL    HW263670   0.952   1.692   8.062
14995SOL     OW63671   7.223   2.004   6.833
14995SOL    HW163672   7.294   2.075   6.838
14995SOL    HW263673   7.161   2.025   6.757
14996SOL     OW63674   6.787   8.171   1.572
14996SOL    HW163675   6.735   8.121   1.503
14996SOL    HW263676   6.876   8.128   1.585
14997SOL     OW63677   9.460   8.453   7.431
14997SOL    HW163678   9.486   8.361   7.459
14997SOL    HW263679   9.477   8.517   7.506
14998SOL     OW63680   8.357   3.844   0.167
14998SOL    HW163681   8.407   3.824   0.251
14998SOL    HW263682   8.271   3.889   0.188
14999SOL     OW63683   7.495   5.305   8.733
14999SOL    HW163684   7.495   5.294   0.050
14999SOL    HW263685   7.488   5.216   8.689
15000SOL     OW63686   2.228   4.600   0.461
15000SOL    HW163687   2.143   4.575   0.507
15000SOL    HW263688   2.208   4.668   0.390
15001SOL     OW63689   5.954   9.266   1.711
15001SOL    HW163690   6.026   9.198   1.723
15001SOL    HW263691   5.871   9.235   1.758
15002SOL     OW63692   6.661   1.607   7.632
15002SOL    HW163693   6.651   1.624   7.534
15002SOL    HW263694   6.710   1.684   7.674
15003SOL     OW63695   8.390   8.946   7.042
15003SOL    HW163696   8.317   8.909   6.985
15003SOL    HW263697   8.389   8.902   7.132
15004SOL     OW63698   1.788   5.041   0.181
15004SOL    HW163699   1.798   5.042   0.082
15004SOL    HW263700   1.764   4.949   0.211
15005SOL     OW63701   3.199   5.494   0.151
15005SOL    HW163702   3.219   5.567   0.217
15005SOL    HW263703   3.125   5.524   0.091
15006SOL     OW63704   6.114   4.594   1.734
15006SOL    HW163705   6.141   4.639   1.649
15006SOL    HW263706   6.094   4.663   1.803
15007SOL     OW63707   3.518   2.683   1.431
15007SOL    HW163708   3.536   2.631   1.515
15007SOL    HW263709   3.428   2.659   1.395
15008SOL     OW63710   0.584   3.644   1.025
15008SOL    HW163711   0.555   3.714   0.960
15008SOL    HW263712   0.527   3.562   1.014
15009SOL     OW63713   2.699   8.476   8.429
15009SOL    HW163714   2.782   8.514   8.387
15009SOL    HW263715   2.723   8.434   8.517
15010SOL     OW63716   1.192   9.181   0.247
15010SOL    HW163717   1.174   9.083   0.244
15010SOL    HW263718   1.173   9.222   0.158
15011SOL     OW63719   3.738   1.495   6.460
15011SOL    HW163720   3.743   1.474   6.363
15011SOL    HW263721   3.825   1.533   6.491
15012SOL     OW63722   2.139   4.215   1.649
15012SOL    HW163723   2.215   4.179   1.703
15012SOL    HW263724   2.052   4.187   1.690
15013SOL     OW63725   5.122  10.053   5.965
15013SOL    HW163726   5.140  10.120   5.893
15013SOL    HW263727   5.185   9.976   5.954
15014SOL     OW63728   2.837   6.366   0.295
15014SOL    HW163729   2.871   6.457   0.273
15014SOL    HW263730   2.852   6.305   0.217
15015SOL     OW63731   8.170   1.370   0.255
15015SOL    HW163732   8.169   1.466   0.229
15015SOL    HW263733   8.146   1.314   0.176
15016SOL     OW63734   6.166   4.453   7.624
15016SOL    HW163735   6.243   4.483   7.680
15016SOL    HW263736   6.197   4.381   7.561
15017SOL     OW63737   4.072   6.524   7.495
15017SOL    HW163738   4.117   6.436   7.481
15017SOL    HW263739   4.141   6.594   7.512
15018SOL     OW63740   2.899   1.786   7.995
15018SOL    HW163741   2.913   1.830   7.906
15018SOL    HW263742   2.978   1.729   8.017
15019SOL     OW63743   5.193   1.367   8.383
15019SOL    HW163744   5.262   1.404   8.322
15019SOL    HW263745   5.122   1.435   8.399
15020SOL     OW63746   2.419   4.292   8.387
15020SOL    HW163747   2.459   4.282   8.296
15020SOL    HW263748   2.470   4.235   8.452
15021SOL     OW63749   6.400   1.074   0.887
15021SOL    HW163750   6.387   1.169   0.860
15021SOL    HW263751   6.458   1.070   0.968
15022SOL     OW63752   0.368   7.822   0.136
15022SOL    HW163753   0.417   7.890   0.081
15022SOL    HW263754   0.309   7.869   0.202
15023SOL     OW63755   0.112   5.610   8.418
15023SOL    HW163756   0.170   5.644   8.492
15023SOL    HW263757   0.154   5.632   8.330
15024SOL     OW63758   3.036   7.123   7.641
15024SOL    HW163759   3.108   7.185   7.612
15024SOL    HW263760   2.955   7.176   7.668
15025SOL     OW63761   7.695   1.997   6.953
15025SOL    HW163762   7.730   2.021   6.863
15025SOL    HW263763   7.624   1.928   6.944
15026SOL     OW63764   7.325   4.844   0.566
15026SOL    HW163765   7.383   4.782   0.514
15026SOL    HW263766   7.277   4.906   0.503
15027SOL     OW63767   8.290   0.839   6.874
15027SOL    HW163768   8.267   0.868   6.781
15027SOL    HW263769   8.300   0.919   6.933
15028SOL     OW63770   1.803   8.802   0.620
15028SOL    HW163771   1.736   8.732   0.597
15028SOL    HW263772   1.865   8.817   0.543
15029SOL     OW63773   4.408   5.081   0.031
15029SOL    HW163774   4.377   5.158   8.758
15029SOL    HW263775   4.374   5.090   0.125
15030SOL     OW63776   3.839   3.511   7.527
15030SOL    HW163777   3.882   3.598   7.503
15030SOL    HW263778   3.755   3.500   7.474
15031SOL     OW63779   6.171  10.392   0.877
15031SOL    HW163780   6.181  10.426   0.970
15031SOL    HW263781   6.080  10.352   0.866
15032SOL     OW63782   2.163   0.648   6.881
15032SOL    HW163783   2.140   0.553   6.859
15032SOL    HW263784   2.080   0.704   6.881
15033SOL     OW63785   6.924   3.347   7.701
15033SOL    HW163786   6.978   3.422   7.662
15033SOL    HW263787   6.829   3.376   7.710
15034SOL     OW63788   7.108  10.266   8.739
15034SOL    HW163789   7.078  10.308   0.043
15034SOL    HW263790   7.197  10.304   8.712
15035SOL     OW63791   5.210   4.141   1.838
15035SOL    HW163792   5.110   4.141   1.845
15035SOL    HW263793   5.250   4.132   1.930
15036SOL     OW63794   7.460   2.789   1.700
15036SOL    HW163795   7.514   2.720   1.748
15036SOL    HW263796   7.493   2.880   1.725
15037SOL     OW63797   8.137   5.618   6.875
15037SOL    HW163798   8.082   5.558   6.818
15037SOL    HW263799   8.234   5.606   6.852
15038SOL     OW63800   3.528   7.626   7.296
15038SOL    HW163801   3.493   7.577   7.375
15038SOL    HW263802   3.593   7.696   7.326
15039SOL     OW63803   8.862   5.271   7.701
15039SOL    HW163804   8.842   5.173   7.693
15039SOL    HW263805   8.941   5.294   7.645
15040SOL     OW63806   7.807   7.274   0.466
15040SOL    HW163807   7.805   7.278   0.566
15040SOL    HW263808   7.811   7.179   0.436
15041SOL     OW63809   3.295   1.154   7.103
15041SOL    HW163810   3.254   1.198   7.183
15041SOL    HW263811   3.373   1.099   7.133
15042SOL     OW63812   2.116   8.564   8.133
15042SOL    HW163813   2.141   8.471   8.106
15042SOL    HW263814   2.175   8.594   8.208
15043SOL     OW63815   4.847   5.664   1.407
15043SOL    HW163816   4.926   5.711   1.446
15043SOL    HW263817   4.850   5.670   1.307
15044SOL     OW63818   4.148   4.653   0.560
15044SOL    HW163819   4.171   4.565   0.518
15044SOL    HW263820   4.060   4.645   0.607
15045SOL     OW63821   1.242   1.039   1.080
15045SOL    HW163822   1.238   1.137   1.063
15045SOL    HW263823   1.288   0.994   1.003
15046SOL     OW63824   1.828   5.443   0.041
15046SOL    HW163825   1.755   5.491   8.776
15046SOL    HW263826   1.882   5.390   8.757
15047SOL     OW63827   2.642   7.554   7.224
15047SOL    HW163828   2.583   7.570   7.303
15047SOL    HW263829   2.738   7.556   7.254
15048SOL     OW63830   4.771   2.481   0.848
15048SOL    HW163831   4.739   2.388   0.868
15048SOL    HW263832   4.777   2.533   0.934
15049SOL     OW63833   1.301   2.604   0.617
15049SOL    HW163834   1.236   2.641   0.684
15049SOL    HW263835   1.260   2.524   0.573
15050SOL     OW63836   3.746   4.888   6.539
15050SOL    HW163837   3.756   4.901   6.441
15050SOL    HW263838   3.717   4.794   6.558
15051SOL     OW63839   3.854   6.408   0.481
15051SOL    HW163840   3.821   6.365   0.566
15051SOL    HW263841   3.829   6.505   0.481
15052SOL     OW63842   4.592   6.087   7.096
15052SOL    HW163843   4.578   6.126   7.186
15052SOL    HW263844   4.525   6.015   7.079
15053SOL     OW63845   1.816   7.875   7.131
15053SOL    HW163846   1.851   7.955   7.082
15053SOL    HW263847   1.788   7.806   7.065
15054SOL     OW63848   7.267  10.234   7.109
15054SOL    HW163849   7.262  10.159   7.175
15054SOL    HW263850   7.174  10.267   7.091
15055SOL     OW63851   6.387   3.557   8.168
15055SOL    HW163852   6.473   3.533   8.212
15055SOL    HW263853   6.311   3.538   8.230
15056SOL     OW63854   7.290   1.835   7.903
15056SOL    HW163855   7.370   1.860   7.848
15056SOL    HW263856   7.265   1.740   7.885
15057SOL     OW63857   9.001   4.272   8.618
15057SOL    HW163858   8.968   4.287   8.525
15057SOL    HW263859   9.056   4.188   8.620
15058SOL     OW63860   0.495   3.729   0.577
15058SOL    HW163861   0.531   3.729   0.484
15058SOL    HW263862   0.395   3.731   0.575
15059SOL     OW63863   2.688   1.791   0.905
15059SOL    HW163864   2.592   1.795   0.933
15059SOL    HW263865   2.695   1.805   0.806
15060SOL     OW63866   1.793   1.279   8.437
15060SOL    HW163867   1.866   1.347   8.448
15060SOL    HW263868   1.801   1.210   8.508
15061SOL     OW63869   2.074   4.282   0.247
15061SOL    HW163870   2.174   4.286   0.236
15061SOL    HW263871   2.035   4.230   0.172
15062SOL     OW63872   6.736   7.736   6.794
15062SOL    HW163873   6.694   7.803   6.733
15062SOL    HW263874   6.687   7.650   6.788
15063SOL     OW63875   5.777   9.319   7.298
15063SOL    HW163876   5.803   9.409   7.263
15063SOL    HW263877   5.849   9.284   7.357
15064SOL     OW63878   5.701   8.163   8.147
15064SOL    HW163879   5.786   8.112   8.159
15064SOL    HW263880   5.637   8.109   8.094
15065SOL     OW63881   3.211   9.753   0.921
15065SOL    HW163882   3.164   9.817   0.981
15065SOL    HW263883   3.170   9.758   0.829
15066SOL     OW63884   2.907   8.429   1.313
15066SOL    HW163885   2.999   8.425   1.352
15066SOL    HW263886   2.894   8.354   1.248
15067SOL     OW63887   3.876   2.592   6.722
15067SOL    HW163888   3.883   2.574   6.820
15067SOL    HW263889   3.946   2.540   6.674
15068SOL     OW63890   1.055   0.733   0.521
15068SOL    HW163891   0.991   0.804   0.492
15068SOL    HW263892   1.123   0.773   0.583
15069SOL     OW63893   9.914  10.491   8.577
15069SOL    HW163894   9.914   0.010   8.479
15069SOL    HW263895   9.824  10.454   8.602
15070SOL     OW63896   0.607   7.430   0.618
15070SOL    HW163897   0.538   7.362   0.643
15070SOL    HW263898   0.635   7.480   0.700
15071SOL     OW63899   2.435   4.225   0.236
15071SOL    HW163900   2.426   4.278   0.320
15071SOL    HW263901   2.527   4.186   0.230
15072SOL     OW63902   9.311   4.086   1.534
15072SOL    HW163903   9.213   4.066   1.544
15072SOL    HW263904   9.357   4.005   1.499
15073SOL     OW63905   6.307   4.246   6.561
15073SOL    HW163906   6.264   4.168   6.516
15073SOL    HW263907   6.352   4.303   6.492
15074SOL     OW63908   7.315   1.634   1.379
15074SOL    HW163909   7.276   1.684   1.301
15074SOL    HW263910   7.277   1.671   1.464
15075SOL     OW63911   7.347   1.318   8.616
15075SOL    HW163912   7.405   1.361   8.546
15075SOL    HW263913   7.389   1.232   8.644
15076SOL     OW63914   8.438   5.062   6.159
15076SOL    HW163915   8.435   5.105   6.069
15076SOL    HW263916   8.408   4.967   6.152
15077SOL     OW63917   2.494   5.610   7.326
15077SOL    HW163918   2.466   5.703   7.305
15077SOL    HW263919   2.426   5.546   7.290
15078SOL     OW63920   0.137   3.909   2.053
15078SOL    HW163921   0.222   3.935   2.097
15078SOL    HW263922   0.069   3.886   2.122
15079SOL     OW63923   4.293   7.810   8.615
15079SOL    HW163924   4.202   7.781   8.588
15079SOL    HW263925   4.311   7.780   8.709
15080SOL     OW63926   8.052   3.055   7.056
15080SOL    HW163927   8.058   3.069   7.155
15080SOL    HW263928   8.058   3.143   7.009
15081SOL     OW63929   1.680  10.368   8.263
15081SOL    HW163930   1.595  10.416   8.241
15081SOL    HW263931   1.672  10.272   8.235
15082SOL     OW63932   4.327   2.085   1.013
15082SOL    HW163933   4.380   2.167   1.036
15082SOL    HW263934   4.343   2.014   1.081
15083SOL     OW63935   9.420   8.992   8.175
15083SOL    HW163936   9.444   9.087   8.156
15083SOL    HW263937   9.322   8.986   8.195
15084SOL     OW63938   4.334   5.930   8.526
15084SOL    HW163939   4.277   5.864   8.477
15084SOL    HW263940   4.403   5.881   8.579
15085SOL     OW63941   3.949   1.573   6.234
15085SOL    HW163942   3.999   1.660   6.230
15085SOL    HW263943   4.002   1.507   6.287
15086SOL     OW63944   9.499   3.761   1.048
15086SOL    HW163945   9.550   3.778   0.963
15086SOL    HW263946   9.500   3.845   1.104
15087SOL     OW63947   0.463   0.721   8.402
15087SOL    HW163948   0.448   0.809   8.447
15087SOL    HW263949   0.519   0.663   8.460
15088SOL     OW63950   8.697   0.002   1.184
15088SOL    HW163951   8.627  10.439   1.211
15088SOL    HW263952   8.712  10.498   1.085
15089SOL     OW63953   4.758   6.682   7.389
15089SOL    HW163954   4.733   6.779   7.394
15089SOL    HW263955   4.846   6.672   7.343
15090SOL     OW63956   6.242   1.451   2.135
15090SOL    HW163957   6.211   1.411   2.222
15090SOL    HW263958   6.338   1.429   2.122
15091SOL     OW63959   9.466   0.432   0.933
15091SOL    HW163960   9.408   0.403   0.857
15091SOL    HW263961   9.412   0.489   0.995
15092SOL     OW63962   9.201   1.547   0.626
15092SOL    HW163963   9.132   1.489   0.583
15092SOL    HW263964   9.175   1.568   0.720
15093SOL     OW63965   7.125  10.114   6.837
15093SOL    HW163966   7.078  10.124   6.749
15093SOL    HW263967   7.218  10.083   6.821
15094SOL     OW63968   9.657   0.488   1.237
15094SOL    HW163969   9.662   0.540   1.152
15094SOL    HW263970   9.610   0.542   1.307
15095SOL     OW63971   4.949   1.573   6.445
15095SOL    HW163972   4.963   1.615   6.356
15095SOL    HW263973   4.920   1.644   6.511
15096SOL     OW63974  10.066   4.480   1.457
15096SOL    HW163975   9.987   4.444   1.408
15096SOL    HW263976  10.074   4.433   1.545
15097SOL     OW63977   5.935   3.583   7.339
15097SOL    HW163978   6.015   3.642   7.325
15097SOL    HW263979   5.853   3.628   7.302
15098SOL     OW63980   9.163   4.818   0.514
15098SOL    HW163981   9.221   4.899   0.507
15098SOL    HW263982   9.113   4.820   0.600
15099SOL     OW63983   4.508   7.745   7.366
15099SOL    HW163984   4.513   7.685   7.446
15099SOL    HW263985   4.542   7.696   7.286
15100SOL     OW63986   3.935  10.379   7.992
15100SOL    HW163987   3.916  10.477   7.991
15100SOL    HW263988   3.926  10.343   8.085
15101SOL     OW63989   2.370   1.288   8.345
15101SOL    HW163990   2.296   1.254   8.402
15101SOL    HW263991   2.335   1.310   8.254
15102SOL     OW63992   7.154   4.486   7.188
15102SOL    HW163993   7.158   4.397   7.233
15102SOL    HW263994   7.147   4.558   7.257
15103SOL     OW63995   4.492   2.179   8.118
15103SOL    HW163996   4.401   2.194   8.155
15103SOL    HW263997   4.510   2.246   8.046
15104SOL     OW63998   4.904   0.030   2.102
15104SOL    HW163999   4.933   0.096   2.032
15104SOL    HW264000   4.965  10.454   2.099
15105SOL     OW64001   8.934   3.985   7.816
15105SOL    HW164002   9.027   4.021   7.809
15105SOL    HW264003   8.893   3.979   7.724
15106SOL     OW64004   1.652   7.112   5.821
15106SOL    HW164005   1.627   7.070   5.734
15106SOL    HW264006   1.704   7.196   5.804
15107SOL     OW64007   1.295   6.868   7.481
15107SOL    HW164008   1.316   6.873   7.579
15107SOL    HW264009   1.276   6.960   7.447
15108SOL     OW64010   1.750  10.389   6.490
15108SOL    HW164011   1.832  10.416   6.438
15108SOL    HW264012   1.669  10.426   6.445
15109SOL     OW64013   8.640   1.497   1.632
15109SOL    HW164014   8.729   1.456   1.653
15109SOL    HW264015   8.573   1.470   1.701
15110SOL     OW64016   8.092   2.069   6.903
15110SOL    HW164017   8.068   2.044   6.810
15110SOL    HW264018   8.052   2.158   6.926
15111SOL     OW64019   8.294   6.992   6.854
15111SOL    HW164020   8.316   6.895   6.856
15111SOL    HW264021   8.203   7.005   6.816
15112SOL     OW64022   2.107   3.476   6.811
15112SOL    HW164023   2.204   3.464   6.788
15112SOL    HW264024   2.099   3.514   6.903
15113SOL     OW64025   2.430   8.322   1.429
15113SOL    HW164026   2.397   8.352   1.519
15113SOL    HW264027   2.524   8.354   1.416
15114SOL     OW64028   3.414  10.043   0.185
15114SOL    HW164029   3.415  10.082   0.277
15114SOL    HW264030   3.452  10.110   0.121
15115SOL     OW64031   9.618   9.435   1.537
15115SOL    HW164032   9.674   9.490   1.598
15115SOL    HW264033   9.670   9.411   1.455
15116SOL     OW64034   2.254   4.826   0.829
15116SOL    HW164035   2.288   4.919   0.842
15116SOL    HW264036   2.271   4.772   0.911
15117SOL     OW64037   9.533   8.461   6.625
15117SOL    HW164038   9.498   8.386   6.569
15117SOL    HW264039   9.612   8.501   6.581
15118SOL     OW64040   5.584   2.667   6.632
15118SOL    HW164041   5.607   2.757   6.669
15118SOL    HW264042   5.639   2.597   6.677
15119SOL     OW64043   8.587   9.822   0.362
15119SOL    HW164044   8.577   9.906   0.309
15119SOL    HW264045   8.512   9.760   0.340
15120SOL     OW64046   9.552   6.857   0.727
15120SOL    HW164047   9.631   6.801   0.704
15120SOL    HW264048   9.521   6.906   0.645
15121SOL     OW64049   0.748   4.825   0.228
15121SOL    HW164050   0.649   4.822   0.233
15121SOL    HW264051   0.776   4.887   0.155
15122SOL     OW64052   0.802   8.282   0.070
15122SOL    HW164053   0.767   8.224   0.144
15122SOL    HW264054   0.813   8.376   0.102
15123SOL     OW64055   1.554   5.192   1.103
15123SOL    HW164056   1.500   5.123   1.152
15123SOL    HW264057   1.645   5.155   1.083
15124SOL     OW64058   6.024   5.620   0.897
15124SOL    HW164059   6.046   5.700   0.952
15124SOL    HW264060   6.091   5.547   0.915
15125SOL     OW64061   0.263   0.159   6.224
15125SOL    HW164062   0.337   0.130   6.164
15125SOL    HW264063   0.180   0.173   6.170
15126SOL     OW64064   0.657   3.377   7.952
15126SOL    HW164065   0.636   3.385   7.855
15126SOL    HW264066   0.724   3.447   7.977
15127SOL     OW64067   4.442   5.056   1.961
15127SOL    HW164068   4.487   4.985   2.015
15127SOL    HW264069   4.343   5.055   1.980
15128SOL     OW64070   3.583   0.901   8.439
15128SOL    HW164071   3.565   0.805   8.461
15128SOL    HW264072   3.505   0.956   8.467
15129SOL     OW64073   7.382   0.439   0.175
15129SOL    HW164074   7.392   0.425   0.077
15129SOL    HW264075   7.471   0.436   0.219
15130SOL     OW64076   4.059   0.524   7.158
15130SOL    HW164077   3.995   0.601   7.160
15130SOL    HW264078   4.009   0.439   7.171
15131SOL     OW64079   1.707   5.075   6.644
15131SOL    HW164080   1.729   5.122   6.559
15131SOL    HW264081   1.634   5.009   6.627
15132SOL     OW64082   0.454   4.381   0.157
15132SOL    HW164083   0.536   4.330   0.186
15132SOL    HW264084   0.478   4.478   0.146
15133SOL     OW64085   4.487   2.017   7.728
15133SOL    HW164086   4.507   1.970   7.642
15133SOL    HW264087   4.498   1.952   7.804
15134SOL     OW64088   5.627   4.236   1.704
15134SOL    HW164089   5.652   4.144   1.733
15134SOL    HW264090   5.669   4.255   1.615
15135SOL     OW64091   5.164   5.506   8.354
15135SOL    HW164092   5.145   5.555   8.439
15135SOL    HW264093   5.170   5.408   8.373
15136SOL     OW64094   2.575   3.059   8.185
15136SOL    HW164095   2.518   3.094   8.111
15136SOL    HW264096   2.534   3.083   8.273
15137SOL     OW64097   4.021   9.160   7.505
15137SOL    HW164098   4.073   9.165   7.419
15137SOL    HW264099   4.044   9.239   7.562
15138SOL     OW64100   2.663   0.504   0.245
15138SOL    HW164101   2.604   0.509   0.326
15138SOL    HW264102   2.747   0.453   0.269
15139SOL     OW64103   1.008   8.499   8.554
15139SOL    HW164104   0.981   8.565   8.623
15139SOL    HW264105   1.087   8.446   8.587
15140SOL     OW64106   7.721   3.722   0.128
15140SOL    HW164107   7.723   3.663   0.209
15140SOL    HW264108   7.809   3.769   0.119
15141SOL     OW64109   0.192   6.256   6.745
15141SOL    HW164110   0.240   6.260   6.657
15141SOL    HW264111   0.093   6.254   6.729
15142SOL     OW64112   8.455   3.061   0.210
15142SOL    HW164113   8.553   3.077   0.217
15142SOL    HW264114   8.407   3.148   0.202
15143SOL     OW64115   4.101   2.422   0.063
15143SOL    HW164116   4.057   2.342   0.104
15143SOL    HW264117   4.163   2.463   0.129
15144SOL     OW64118   4.409   8.357   0.717
15144SOL    HW164119   4.353   8.393   0.642
15144SOL    HW264120   4.372   8.388   0.804
15145SOL     OW64121   6.529   6.553   1.615
15145SOL    HW164122   6.582   6.467   1.616
15145SOL    HW264123   6.548   6.605   1.698
15146SOL     OW64124   3.635   0.076   8.160
15146SOL    HW164125   3.615   0.025   8.244
15146SOL    HW264126   3.611   0.173   8.174
15147SOL     OW64127   5.824  10.327   7.348
15147SOL    HW164128   5.739  10.371   7.321
15147SOL    HW264129   5.862  10.374   7.428
15148SOL     OW64130   9.535   1.761   1.937
15148SOL    HW164131   9.545   1.697   2.014
15148SOL    HW264132   9.625   1.799   1.914
15149SOL     OW64133   1.027   2.685   7.168
15149SOL    HW164134   1.085   2.685   7.086
15149SOL    HW264135   1.071   2.737   7.240
15150SOL     OW64136   3.843   2.373   0.911
15150SOL    HW164137   3.754   2.398   0.949
15150SOL    HW264138   3.833   2.292   0.853
15151SOL     OW64139   1.968   8.893   8.274
15151SOL    HW164140   1.889   8.953   8.260
15151SOL    HW264141   2.024   8.893   8.191
15152SOL     OW64142   7.831   5.057   8.603
15152SOL    HW164143   7.750   5.015   8.562
15152SOL    HW264144   7.822   5.057   8.702
15153SOL     OW64145   7.236   4.595   8.488
15153SOL    HW164146   7.173   4.570   8.414
15153SOL    HW264147   7.183   4.630   8.566
15154SOL     OW64148   1.980   2.715   0.780
15154SOL    HW164149   1.907   2.783   0.776
15154SOL    HW264150   2.049   2.738   0.711
15155SOL     OW64151   2.774   9.352   6.224
15155SOL    HW164152   2.747   9.265   6.266
15155SOL    HW264153   2.791   9.338   6.126
15156SOL     OW64154   4.639   5.058   7.093
15156SOL    HW164155   4.652   4.964   7.122
15156SOL    HW264156   4.689   5.074   7.007
15157SOL     OW64157   4.478   1.282   6.756
15157SOL    HW164158   4.496   1.283   6.658
15157SOL    HW264159   4.564   1.272   6.806
15158SOL     OW64160   5.027   2.793   8.693
15158SOL    HW164161   5.108   2.748   8.732
15158SOL    HW264162   4.959   2.725   8.669
15159SOL     OW64163   6.833   6.175   1.493
15159SOL    HW164164   6.888   6.220   1.422
15159SOL    HW264165   6.850   6.077   1.490
15160SOL     OW64166   9.963   2.339   0.421
15160SOL    HW164167   9.902   2.322   0.344
15160SOL    HW264168   9.929   2.417   0.473
15161SOL     OW64169   8.517   9.158   0.926
15161SOL    HW164170   8.472   9.214   0.996
15161SOL    HW264171   8.590   9.105   0.969
15162SOL     OW64172   1.375   7.720   0.506
15162SOL    HW164173   1.374   7.668   0.420
15162SOL    HW264174   1.458   7.699   0.557
15163SOL     OW64175   4.495   7.510   8.743
15163SOL    HW164176   4.573   7.551   8.696
15163SOL    HW264177   4.441   7.456   8.678
15164SOL     OW64178   0.982   2.271   2.263
15164SOL    HW164179   0.965   2.366   2.287
15164SOL    HW264180   1.077   2.247   2.285
15165SOL     OW64181   0.680   8.392   1.874
15165SOL    HW164182   0.602   8.333   1.898
15165SOL    HW264183   0.680   8.408   1.775
15166SOL     OW64184   3.089   2.789   1.031
15166SOL    HW164185   3.137   2.832   1.107
15166SOL    HW264186   3.025   2.721   1.066
15167SOL     OW64187   7.754   9.175   1.247
15167SOL    HW164188   7.725   9.081   1.264
15167SOL    HW264189   7.754   9.192   1.148
15168SOL     OW64190   4.756  10.060   1.613
15168SOL    HW164191   4.791   9.984   1.559
15168SOL    HW264192   4.832  10.111   1.653
15169SOL     OW64193   9.612   5.466   0.983
15169SOL    HW164194   9.557   5.528   0.928
15169SOL    HW264195   9.564   5.444   1.068
15170SOL     OW64196   4.983   0.885   0.273
15170SOL    HW164197   5.034   0.970   0.287
15170SOL    HW264198   5.011   0.817   0.341
15171SOL     OW64199   1.042   0.345   0.991
15171SOL    HW164200   1.126   0.398   0.983
15171SOL    HW264201   1.001   0.333   0.901
15172SOL     OW64202   7.675   1.172   7.392
15172SOL    HW164203   7.585   1.168   7.350
15172SOL    HW264204   7.716   1.080   7.392
15173SOL     OW64205   4.294   3.992   7.271
15173SOL    HW164206   4.221   3.956   7.212
15173SOL    HW264207   4.313   3.926   7.344
15174SOL     OW64208   9.508   4.362   0.565
15174SOL    HW164209   9.556   4.283   0.526
15174SOL    HW264210   9.521   4.441   0.505
15175SOL     OW64211   6.615   6.150   6.802
15175SOL    HW164212   6.659   6.167   6.713
15175SOL    HW264213   6.667   6.195   6.874
15176SOL     OW64214   9.982   6.736   6.429
15176SOL    HW164215   9.971   6.662   6.363
15176SOL    HW264216   9.925   6.813   6.403
15177SOL     OW64217   2.420   0.324   1.269
15177SOL    HW164218   2.381   0.255   1.207
15177SOL    HW264219   2.349   0.390   1.294
15178SOL     OW64220   9.535   0.109   6.463
15178SOL    HW164221   9.494   0.199   6.450
15178SOL    HW264222   9.545   0.063   6.375
15179SOL     OW64223   5.192   4.624   8.334
15179SOL    HW164224   5.142   4.654   8.253
15179SOL    HW264225   5.281   4.588   8.306
15180SOL     OW64226   5.340   7.398   7.940
15180SOL    HW164227   5.270   7.406   7.869
15180SOL    HW264228   5.318   7.458   8.016
15181SOL     OW64229   2.411   8.082   6.621
15181SOL    HW164230   2.436   7.985   6.625
15181SOL    HW264231   2.480   8.132   6.570
15182SOL     OW64232   6.358   9.065   8.734
15182SOL    HW164233   6.365   9.165   8.724
15182SOL    HW264234   6.403   9.021   8.657
15183SOL     OW64235   8.181   8.281   0.709
15183SOL    HW164236   8.112   8.254   0.641
15183SOL    HW264237   8.251   8.337   0.665
15184SOL     OW64238   1.019   4.059   1.097
15184SOL    HW164239   1.016   3.959   1.103
15184SOL    HW264240   1.108   4.088   1.061
15185SOL     OW64241   6.780   1.986   7.172
15185SOL    HW164242   6.751   2.078   7.195
15185SOL    HW264243   6.740   1.959   7.084
15186SOL     OW64244   1.793   0.732   7.107
15186SOL    HW164245   1.768   0.822   7.144
15186SOL    HW264246   1.716   0.669   7.117
15187SOL     OW64247   7.173   2.976   0.727
15187SOL    HW164248   7.236   2.997   0.652
15187SOL    HW264249   7.087   3.026   0.713
15188SOL     OW64250  10.110   5.055   8.719
15188SOL    HW164251   0.005   5.132   8.681
15188SOL    HW264252   0.010   4.973   8.721
15189SOL     OW64253   1.723   7.779   7.572
15189SOL    HW164254   1.693   7.846   7.504
15189SOL    HW264255   1.822   7.770   7.567
15190SOL     OW64256   1.108   2.032   7.075
15190SOL    HW164257   1.048   2.097   7.121
15190SOL    HW264258   1.115   1.949   7.129
15191SOL     OW64259   8.668   0.273   1.243
15191SOL    HW164260   8.755   0.295   1.287
15191SOL    HW264261   8.663   0.174   1.227
15192SOL     OW64262   0.518   4.386   6.915
15192SOL    HW164263   0.593   4.330   6.879
15192SOL    HW264264   0.557   4.460   6.970
15193SOL     OW64265   1.276   6.322   1.124
15193SOL    HW164266   1.304   6.392   1.189
15193SOL    HW264267   1.248   6.365   1.038
15194SOL     OW64268   9.391   0.483   7.217
15194SOL    HW164269   9.405   0.544   7.295
15194SOL    HW264270   9.450   0.402   7.228
15195SOL     OW64271   2.003   7.041   6.768
15195SOL    HW164272   2.021   6.977   6.693
15195SOL    HW264273   2.052   7.011   6.850
15196SOL     OW64274   4.572   3.619   8.490
15196SOL    HW164275   4.670   3.614   8.472
15196SOL    HW264276   4.541   3.713   8.478
15197SOL     OW64277   9.337   1.089   1.241
15197SOL    HW164278   9.294   1.075   1.331
15197SOL    HW264279   9.436   1.091   1.252
15198SOL     OW64280   8.193   9.808   8.712
15198SOL    HW164281   8.287   9.774   8.705
15198SOL    HW264282   8.178   9.846   0.021
15199SOL     OW64283   6.383   0.005   7.578
15199SOL    HW164284   6.361   0.079   7.642
15199SOL    HW264285   6.482   0.002   7.563
15200SOL     OW64286   0.925   7.235   7.965
15200SOL    HW164287   0.887   7.275   7.882
15200SOL    HW264288   0.885   7.281   8.045
15201SOL     OW64289   1.022   2.081   8.691
15201SOL    HW164290   0.992   2.008   8.628
15201SOL    HW264291   1.068   2.152   8.639
15202SOL     OW64292   3.418   6.782   8.572
15202SOL    HW164293   3.376   6.832   8.648
15202SOL    HW264294   3.504   6.825   8.547
15203SOL     OW64295   1.500   1.331   0.289
15203SOL    HW164296   1.505   1.231   0.298
15203SOL    HW264297   1.566   1.373   0.352
15204SOL     OW64298   9.279   1.047   1.746
15204SOL    HW164299   9.189   1.063   1.788
15204SOL    HW264300   9.335   0.992   1.808
15205SOL     OW64301   1.152   3.801   1.584
15205SOL    HW164302   1.144   3.877   1.648
15205SOL    HW264303   1.231   3.745   1.607
15206SOL     OW64304   0.816   4.215   7.904
15206SOL    HW164305   0.880   4.234   7.978
15206SOL    HW264306   0.735   4.272   7.915
15207SOL     OW64307  10.000   4.921   7.326
15207SOL    HW164308   9.959   4.924   7.234
15207SOL    HW264309  10.041   4.831   7.341
15208SOL     OW64310   9.268   5.838   0.841
15208SOL    HW164311   9.281   5.929   0.879
15208SOL    HW264312   9.272   5.843   0.741
15209SOL     OW64313   3.671   4.842   8.159
15209SOL    HW164314   3.648   4.914   8.225
15209SOL    HW264315   3.597   4.834   8.092
15210SOL     OW64316   2.155   0.873   7.325
15210SOL    HW164317   2.085   0.941   7.302
15210SOL    HW264318   2.170   0.813   7.245
15211SOL     OW64319   9.142   6.300   1.232
15211SOL    HW164320   9.059   6.341   1.194
15211SOL    HW264321   9.212   6.370   1.243
15212SOL     OW64322   6.061   3.412   0.087
15212SOL    HW164323   6.142   3.370   0.129
15212SOL    HW264324   6.089   3.491   0.032
15213SOL     OW64325   3.165   6.566   2.040
15213SOL    HW164326   3.218   6.633   2.092
15213SOL    HW264327   3.105   6.515   2.101
15214SOL     OW64328   3.130   0.950   6.543
15214SOL    HW164329   3.146   0.860   6.504
15214SOL    HW264330   3.071   0.942   6.623
15215SOL     OW64331   1.018   3.155   7.958
15215SOL    HW164332   0.929   3.153   8.004
15215SOL    HW264333   1.075   3.081   7.992
15216SOL     OW64334   2.624   1.809   8.064
15216SOL    HW164335   2.561   1.732   8.058
15216SOL    HW264336   2.716   1.779   8.038
15217SOL     OW64337   5.664   0.155   6.908
15217SOL    HW164338   5.724   0.087   6.950
15217SOL    HW264339   5.592   0.181   6.972
15218SOL     OW64340   5.632   0.493   1.230
15218SOL    HW164341   5.604   0.398   1.215
15218SOL    HW264342   5.726   0.505   1.198
15219SOL     OW64343  10.104   7.519   0.966
15219SOL    HW164344  10.011   7.504   0.932
15219SOL    HW264345   0.008   7.538   0.889
15220SOL     OW64346   9.305   6.073   0.968
15220SOL    HW164347   9.235   6.138   0.939
15220SOL    HW264348   9.318   6.080   1.067
15221SOL     OW64349   0.285  10.185   1.226
15221SOL    HW164350   0.345  10.236   1.287
15221SOL    HW264351   0.222  10.248   1.180
15222SOL     OW64352   2.254   9.701   7.155
15222SOL    HW164353   2.170   9.653   7.180
15222SOL    HW264354   2.267   9.779   7.216
15223SOL     OW64355   5.784   5.125   8.175
15223SOL    HW164356   5.768   5.174   8.261
15223SOL    HW264357   5.696   5.109   8.129
15224SOL     OW64358   9.331   8.766   8.397
15224SOL    HW164359   9.430   8.776   8.388
15224SOL    HW264360   9.310   8.695   8.464
15225SOL     OW64361   9.691  10.066   0.817
15225SOL    HW164362   9.654  10.153   0.788
15225SOL    HW264363   9.789  10.076   0.834
15226SOL     OW64364   9.315   0.265   0.320
15226SOL    HW164365   9.274   0.323   0.250
15226SOL    HW264366   9.379   0.200   0.278
15227SOL     OW64367   4.340   8.520   7.629
15227SOL    HW164368   4.411   8.584   7.659
15227SOL    HW264369   4.326   8.451   7.699
15228SOL     OW64370   3.991   5.122   0.811
15228SOL    HW164371   4.089   5.111   0.828
15228SOL    HW264372   3.941   5.049   0.857
15229SOL     OW64373   3.720   0.262   0.283
15229SOL    HW164374   3.754   0.217   0.200
15229SOL    HW264375   3.625   0.234   0.299
15230SOL     OW64376   8.240   7.315   0.504
15230SOL    HW164377   8.324   7.319   0.450
15230SOL    HW264378   8.186   7.398   0.488
15231SOL     OW64379   7.878   9.980   1.050
15231SOL    HW164380   7.975   9.957   1.040
15231SOL    HW264381   7.836   9.918   1.117
15232SOL     OW64382   9.678   9.900   0.596
15232SOL    HW164383   9.679   9.955   0.679
15232SOL    HW264384   9.584   9.872   0.575
15233SOL     OW64385   9.269   9.800   2.018
15233SOL    HW164386   9.191   9.740   1.999
15233SOL    HW264387   9.344   9.779   1.956
15234SOL     OW64388   1.246   7.578   8.384
15234SOL    HW164389   1.250   7.651   8.453
15234SOL    HW264390   1.296   7.606   8.302
15235SOL     OW64391   3.956   0.226   1.512
15235SOL    HW164392   3.955   0.183   1.602
15235SOL    HW264393   4.002   0.315   1.518
15236SOL     OW64394   7.474   3.810   0.664
15236SOL    HW164395   7.498   3.797   0.760
15236SOL    HW264396   7.446   3.723   0.624
15237SOL     OW64397   6.559   5.082   0.548
15237SOL    HW164398   6.544   4.995   0.501
15237SOL    HW264399   6.479   5.103   0.605
15238SOL     OW64400   8.970   4.351   6.397
15238SOL    HW164401   8.873   4.335   6.380
15238SOL    HW264402   8.998   4.434   6.348
15239SOL     OW64403   7.186   3.079   7.363
15239SOL    HW164404   7.108   3.130   7.400
15239SOL    HW264405   7.269   3.134   7.374
15240SOL     OW64406   8.439   5.343   6.908
15240SOL    HW164407   8.434   5.273   6.836
15240SOL    HW264408   8.422   5.433   6.867
15241SOL     OW64409  10.115   7.217   0.498
15241SOL    HW164410  10.133   7.209   0.596
15241SOL    HW264411  10.158   7.300   0.463
15242SOL     OW64412   1.401   5.333   6.720
15242SOL    HW164413   1.472   5.400   6.695
15242SOL    HW264414   1.399   5.260   6.651
15243SOL     OW64415   8.443   3.902   6.455
15243SOL    HW164416   8.513   3.854   6.402
15243SOL    HW264417   8.362   3.917   6.399
15244SOL     OW64418   2.340   6.398   6.215
15244SOL    HW164419   2.256   6.409   6.268
15244SOL    HW264420   2.352   6.302   6.191
15245SOL     OW64421   2.797   3.466   1.431
15245SOL    HW164422   2.853   3.516   1.498
15245SOL    HW264423   2.815   3.500   1.339
15246SOL     OW64424   1.894   5.343   7.932
15246SOL    HW164425   1.806   5.384   7.952
15246SOL    HW264426   1.948   5.338   8.016
15247SOL     OW64427   6.660   8.032   7.768
15247SOL    HW164428   6.711   8.093   7.708
15247SOL    HW264429   6.673   7.937   7.739
15248SOL     OW64430   2.214   3.408   7.605
15248SOL    HW164431   2.275   3.419   7.526
15248SOL    HW264432   2.207   3.495   7.654
15249SOL     OW64433   5.136   1.932   7.469
15249SOL    HW164434   5.059   1.945   7.532
15249SOL    HW264435   5.129   1.998   7.394
15250SOL     OW64436   8.542   3.190   1.199
15250SOL    HW164437   8.479   3.225   1.268
15250SOL    HW264438   8.580   3.102   1.229
15251SOL     OW64439   9.940   1.394   7.327
15251SOL    HW164440  10.024   1.352   7.291
15251SOL    HW264441   9.919   1.354   7.416
15252SOL     OW64442   3.885   5.167   1.593
15252SOL    HW164443   3.816   5.098   1.613
15252SOL    HW264444   3.961   5.126   1.544
15253SOL     OW64445   1.249   5.482   8.639
15253SOL    HW164446   1.260   5.580   8.619
15253SOL    HW264447   1.223   5.471   8.735
15254SOL     OW64448   6.814   2.039   0.101
15254SOL    HW164449   6.879   2.025   0.175
15254SOL    HW264450   6.769   1.952   0.079
15255SOL     OW64451   1.015   9.149   7.775
15255SOL    HW164452   1.042   9.072   7.833
15255SOL    HW264453   1.050   9.136   7.683
15256SOL     OW64454   0.281   5.811   0.519
15256SOL    HW164455   0.200   5.755   0.501
15256SOL    HW264456   0.280   5.892   0.461
15257SOL     OW64457  10.072   8.129   0.571
15257SOL    HW164458  10.006   8.110   0.644
15257SOL    HW264459  10.072   8.227   0.552
15258SOL     OW64460   4.509   8.080   7.053
15258SOL    HW164461   4.474   8.172   7.038
15258SOL    HW264462   4.433   8.015   7.055
15259SOL     OW64463   1.064   8.212   0.022
15259SOL    HW164464   1.115   8.289   8.767
15259SOL    HW264465   0.966   8.235   0.026
15260SOL     OW64466   6.470   6.633   2.088
15260SOL    HW164467   6.436   6.542   2.061
15260SOL    HW264468   6.562   6.645   2.053
15261SOL     OW64469   7.946   5.254   7.614
15261SOL    HW164470   7.906   5.169   7.580
15261SOL    HW264471   7.898   5.332   7.573
15262SOL     OW64472   2.755   9.127   0.893
15262SOL    HW164473   2.817   9.071   0.947
15262SOL    HW264474   2.684   9.166   0.952
15263SOL     OW64475   0.787   7.662   1.711
15263SOL    HW164476   0.770   7.564   1.699
15263SOL    HW264477   0.756   7.690   1.803
15264SOL     OW64478   4.181   7.916   0.178
15264SOL    HW164479   4.229   7.973   0.245
15264SOL    HW264480   4.243   7.845   0.144
15265SOL     OW64481   3.851   5.903   0.058
15265SOL    HW164482   3.899   5.969   0.115
15265SOL    HW264483   3.900   5.816   0.056
15266SOL     OW64484   7.901   0.600   7.131
15266SOL    HW164485   7.976   0.663   7.111
15266SOL    HW264486   7.933   0.529   7.194
15267SOL     OW64487   2.903   5.852   7.757
15267SOL    HW164488   2.936   5.843   7.850
15267SOL    HW264489   2.862   5.943   7.744
15268SOL     OW64490   5.747   9.765   7.395
15268SOL    HW164491   5.723   9.848   7.346
15268SOL    HW264492   5.820   9.784   7.461
15269SOL     OW64493   5.351   7.046   0.251
15269SOL    HW164494   5.275   7.008   0.305
15269SOL    HW264495   5.333   7.031   0.154
15270SOL     OW64496   5.233   2.621   8.763
15270SOL    HW164497   5.195   2.553   8.700
15270SOL    HW264498   5.315   2.660   8.723
15271SOL     OW64499   1.988   5.050   7.009
15271SOL    HW164500   1.957   4.997   6.930
15271SOL    HW264501   1.911   5.068   7.070
15272SOL     OW64502   2.238   4.308   6.800
15272SOL    HW164503   2.148   4.309   6.757
15272SOL    HW264504   2.234   4.356   6.888
15273SOL     OW64505   9.779   7.910   7.615
15273SOL    HW164506   9.680   7.923   7.617
15273SOL    HW264507   9.819   7.945   7.699
15274SOL     OW64508   1.546   3.610   8.063
15274SOL    HW164509   1.448   3.595   8.075
15274SOL    HW264510   1.570   3.702   8.093
15275SOL     OW64511   1.787   1.921   6.953
15275SOL    HW164512   1.826   2.013   6.945
15275SOL    HW264513   1.780   1.896   7.049
15276SOL     OW64514   8.436   7.631   6.918
15276SOL    HW164515   8.453   7.690   6.840
15276SOL    HW264516   8.355   7.662   6.967
15277SOL     OW64517   5.581   2.132   0.978
15277SOL    HW164518   5.672   2.101   1.006
15277SOL    HW264519   5.520   2.132   1.057
15278SOL     OW64520   0.314   1.659   7.724
15278SOL    HW164521   0.323   1.737   7.786
15278SOL    HW264522   0.379   1.669   7.649
15279SOL     OW64523   2.740   6.192   7.929
15279SOL    HW164524   2.747   6.152   7.838
15279SOL    HW264525   2.646   6.223   7.944
15280SOL     OW64526   4.191   1.725   7.587
15280SOL    HW164527   4.207   1.808   7.534
15280SOL    HW264528   4.251   1.725   7.667
15281SOL     OW64529   7.576  10.088   1.343
15281SOL    HW164530   7.666  10.081   1.384
15281SOL    HW264531   7.562  10.182   1.309
15282SOL     OW64532   7.854   4.895   7.113
15282SOL    HW164533   7.936   4.849   7.079
15282SOL    HW264534   7.880   4.979   7.162
15283SOL     OW64535   9.910   6.412   0.171
15283SOL    HW164536   9.995   6.374   0.207
15283SOL    HW264537   9.920   6.511   0.160
15284SOL     OW64538   1.151   6.544   7.202
15284SOL    HW164539   1.246   6.516   7.216
15284SOL    HW264540   1.142   6.590   7.114
15285SOL     OW64541   6.956   5.777   1.917
15285SOL    HW164542   6.963   5.816   2.009
15285SOL    HW264543   6.912   5.687   1.922
15286SOL     OW64544   7.890   8.774   7.375
15286SOL    HW164545   7.965   8.834   7.345
15286SOL    HW264546   7.900   8.684   7.333
15287SOL     OW64547   8.221   5.214   7.059
15287SOL    HW164548   8.153   5.274   7.100
15287SOL    HW264549   8.302   5.267   7.035
15288SOL     OW64550   5.709   8.853   1.091
15288SOL    HW164551   5.729   8.769   1.141
15288SOL    HW264552   5.664   8.918   1.151
15289SOL     OW64553   6.086   8.580   0.397
15289SOL    HW164554   6.159   8.579   0.464
15289SOL    HW264555   6.029   8.498   0.409
15290SOL     OW64556   3.193   5.192   8.183
15290SOL    HW164557   3.172   5.111   8.237
15290SOL    HW264558   3.115   5.254   8.184
15291SOL     OW64559   9.011   8.186   2.211
15291SOL    HW164560   8.917   8.195   2.243
15291SOL    HW264561   9.017   8.109   2.148
15292SOL     OW64562   5.392   3.835   8.533
15292SOL    HW164563   5.339   3.820   8.617
15292SOL    HW264564   5.453   3.757   8.519
15293SOL     OW64565   5.455   6.871   1.134
15293SOL    HW164566   5.443   6.970   1.145
15293SOL    HW264567   5.375   6.824   1.171
15294SOL     OW64568   9.184   6.237   1.588
15294SOL    HW164569   9.201   6.330   1.555
15294SOL    HW264570   9.119   6.191   1.528
15295SOL     OW64571   9.909   2.794   0.903
15295SOL    HW164572   9.815   2.764   0.921
15295SOL    HW264573   9.955   2.726   0.847
15296SOL     OW64574   8.281   7.063   7.296
15296SOL    HW164575   8.184   7.048   7.316
15296SOL    HW264576   8.332   7.070   7.382
15297SOL     OW64577   4.838   9.450   1.201
15297SOL    HW164578   4.927   9.443   1.157
15297SOL    HW264579   4.783   9.369   1.180
15298SOL     OW64580   2.203   4.356   1.424
15298SOL    HW164581   2.187   4.302   1.506
15298SOL    HW264582   2.299   4.350   1.398
15299SOL     OW64583   1.869   8.612   1.146
15299SOL    HW164584   1.922   8.694   1.170
15299SOL    HW264585   1.889   8.587   1.051
15300SOL     OW64586   4.388   2.374   8.441
15300SOL    HW164587   4.472   2.335   8.479
15300SOL    HW264588   4.338   2.422   8.512
15301SOL     OW64589   6.136   3.709   7.734
15301SOL    HW164590   6.136   3.799   7.690
15301SOL    HW264591   6.142   3.720   7.833
15302SOL     OW64592   3.926   7.422   7.774
15302SOL    HW164593   3.913   7.330   7.736
15302SOL    HW264594   3.905   7.421   7.871
15303SOL     OW64595   3.278   6.676   6.292
15303SOL    HW164596   3.298   6.602   6.227
15303SOL    HW264597   3.330   6.758   6.267
15304SOL     OW64598   2.900   2.960   7.046
15304SOL    HW164599   2.835   2.956   6.970
15304SOL    HW264600   2.960   2.879   7.042
15305SOL     OW64601   6.213   5.058   7.033
15305SOL    HW164602   6.133   5.092   6.983
15305SOL    HW264603   6.228   5.114   7.114
15306SOL     OW64604   6.755   6.208   6.577
15306SOL    HW164605   6.734   6.125   6.525
15306SOL    HW264606   6.830   6.257   6.533
15307SOL     OW64607   9.794   8.705   7.539
15307SOL    HW164608   9.772   8.801   7.556
15307SOL    HW264609   9.753   8.677   7.452
15308SOL     OW64610   9.282   6.886   6.567
15308SOL    HW164611   9.248   6.837   6.487
15308SOL    HW264612   9.235   6.975   6.574
15309SOL     OW64613   8.367   7.317   1.582
15309SOL    HW164614   8.362   7.379   1.504
15309SOL    HW264615   8.346   7.367   1.666
15310SOL     OW64616   4.162   9.605   0.382
15310SOL    HW164617   4.210   9.557   0.309
15310SOL    HW264618   4.065   9.612   0.359
15311SOL     OW64619   4.355   1.854   1.198
15311SOL    HW164620   4.425   1.786   1.180
15311SOL    HW264621   4.268   1.823   1.161
15312SOL     OW64622   7.643   0.057   8.595
15312SOL    HW164623   7.721   0.046   8.535
15312SOL    HW264624   7.558   0.043   8.544
15313SOL     OW64625   5.878   1.685   1.575
15313SOL    HW164626   5.895   1.591   1.604
15313SOL    HW264627   5.827   1.733   1.646
15314SOL     OW64628   7.447   2.754   7.984
15314SOL    HW164629   7.374   2.822   7.989
15314SOL    HW264630   7.481   2.735   8.077
15315SOL     OW64631   3.125   6.688   6.958
15315SOL    HW164632   3.221   6.673   6.933
15315SOL    HW264633   3.067   6.665   6.881
15316SOL     OW64634   2.941   7.235   8.740
15316SOL    HW164635   2.975   7.327   8.718
15316SOL    HW264636   2.845   7.242   8.769
15317SOL     OW64637   4.421   3.234   0.593
15317SOL    HW164638   4.422   3.255   0.495
15317SOL    HW264639   4.343   3.280   0.635
15318SOL     OW64640   0.612   2.307   0.093
15318SOL    HW164641   0.701   2.261   0.095
15318SOL    HW264642   0.589   2.338   0.185
15319SOL     OW64643   8.200   2.069   0.602
15319SOL    HW164644   8.102   2.056   0.590
15319SOL    HW264645   8.226   2.160   0.572
15320SOL     OW64646   3.964   1.177   7.219
15320SOL    HW164647   3.922   1.216   7.301
15320SOL    HW264648   4.029   1.242   7.180
15321SOL     OW64649   2.713   6.724   6.936
15321SOL    HW164650   2.691   6.800   6.998
15321SOL    HW264651   2.803   6.739   6.896
15322SOL     OW64652   5.242   8.815   7.211
15322SOL    HW164653   5.289   8.728   7.226
15322SOL    HW264654   5.295   8.889   7.252
15323SOL     OW64655   0.038   0.741   1.733
15323SOL    HW164656   0.052   0.806   1.808
15323SOL    HW264657   0.103   0.761   1.660
15324SOL     OW64658   8.568   8.928   7.468
15324SOL    HW164659   8.618   8.865   7.409
15324SOL    HW264660   8.525   8.877   7.542
15325SOL     OW64661   0.323   1.391   8.765
15325SOL    HW164662   0.276   1.367   8.680
15325SOL    HW264663   0.369   1.311   0.020
15326SOL     OW64664   6.878   1.361   1.547
15326SOL    HW164665   6.900   1.291   1.615
15326SOL    HW264666   6.943   1.355   1.471
15327SOL     OW64667   6.386   7.732   7.786
15327SOL    HW164668   6.399   7.677   7.869
15327SOL    HW264669   6.302   7.703   7.741
15328SOL     OW64670   1.203   3.272   7.667
15328SOL    HW164671   1.154   3.261   7.581
15328SOL    HW264672   1.138   3.298   7.739
15329SOL     OW64673   6.637   7.136   7.666
15329SOL    HW164674   6.581   7.071   7.615
15329SOL    HW264675   6.716   7.089   7.704
15330SOL     OW64676   8.861   1.652   7.696
15330SOL    HW164677   8.937   1.657   7.631
15330SOL    HW264678   8.897   1.649   7.789
15331SOL     OW64679   9.751   4.067   0.213
15331SOL    HW164680   9.694   3.986   0.198
15331SOL    HW264681   9.845   4.048   0.185
15332SOL     OW64682   4.766   1.866   1.123
15332SOL    HW164683   4.753   1.874   1.024
15332SOL    HW264684   4.732   1.948   1.168
15333SOL     OW64685   1.712   3.200   6.671
15333SOL    HW164686   1.648   3.131   6.705
15333SOL    HW264687   1.738   3.177   6.577
15334SOL     OW64688   2.943   8.860   7.172
15334SOL    HW164689   2.925   8.887   7.267
15334SOL    HW264690   3.039   8.877   7.150
15335SOL     OW64691   4.510   2.133   6.989
15335SOL    HW164692   4.489   2.200   6.919
15335SOL    HW264693   4.463   2.047   6.968
15336SOL     OW64694   8.977  10.467   1.238
15336SOL    HW164695   8.882  10.497   1.230
15336SOL    HW264696   8.986  10.404   1.315
15337SOL     OW64697   5.951   1.868   6.449
15337SOL    HW164698   5.993   1.956   6.470
15337SOL    HW264699   5.860   1.882   6.411
15338SOL     OW64700   3.399   7.876   0.647
15338SOL    HW164701   3.472   7.940   0.622
15338SOL    HW264702   3.382   7.813   0.572
15339SOL     OW64703   8.308   6.349   8.483
15339SOL    HW164704   8.382   6.416   8.480
15339SOL    HW264705   8.301   6.310   8.575
15340SOL     OW64706   7.709   4.428   0.953
15340SOL    HW164707   7.649   4.506   0.939
15340SOL    HW264708   7.735   4.423   1.050
15341SOL     OW64709   4.757  10.207   0.446
15341SOL    HW164710   4.796  10.213   0.538
15341SOL    HW264711   4.771  10.115   0.409
15342SOL     OW64712   9.609   4.501   0.795
15342SOL    HW164713   9.543   4.463   0.729
15342SOL    HW264714   9.694   4.448   0.791
15343SOL     OW64715   3.687   5.114   7.450
15343SOL    HW164716   3.785   5.102   7.432
15343SOL    HW264717   3.675   5.174   7.530
15344SOL     OW64718   6.457   3.964   7.141
15344SOL    HW164719   6.494   3.872   7.129
15344SOL    HW264720   6.532   4.030   7.145
15345SOL     OW64721   9.751   3.489   8.560
15345SOL    HW164722   9.820   3.417   8.554
15345SOL    HW264723   9.660   3.447   8.571
15346SOL     OW64724   7.732   1.914   0.984
15346SOL    HW164725   7.698   1.910   0.890
15346SOL    HW264726   7.667   1.870   1.045
15347SOL     OW64727   1.062   9.818   7.341
15347SOL    HW164728   1.090   9.781   7.430
15347SOL    HW264729   0.995   9.891   7.356
15348SOL     OW64730   5.358   5.005   1.434
15348SOL    HW164731   5.387   5.099   1.452
15348SOL    HW264732   5.287   4.980   1.499
15349SOL     OW64733   2.358   6.326   2.165
15349SOL    HW164734   2.379   6.371   2.252
15349SOL    HW264735   2.326   6.393   2.099
15350SOL     OW64736   1.339   6.526   1.299
15350SOL    HW164737   1.370   6.527   1.394
15350SOL    HW264738   1.251   6.573   1.292
15351SOL     OW64739   9.189   9.134   8.586
15351SOL    HW164740   9.214   9.060   8.648
15351SOL    HW264741   9.271   9.181   8.555
15352SOL     OW64742   6.105  10.461   0.461
15352SOL    HW164743   6.133  10.378   0.413
15352SOL    HW264744   6.168  10.479   0.536
15353SOL     OW64745   3.843   4.838   7.293
15353SOL    HW164746   3.923   4.800   7.245
15353SOL    HW264747   3.789   4.892   7.228
15354SOL     OW64748   4.226   4.252   6.095
15354SOL    HW164749   4.274   4.248   6.183
15354SOL    HW264750   4.182   4.164   6.077
15355SOL     OW64751   8.489   8.938   0.413
15355SOL    HW164752   8.517   8.912   0.321
15355SOL    HW264753   8.426   9.016   0.408
15356SOL     OW64754   8.338   3.217   1.690
15356SOL    HW164755   8.384   3.145   1.742
15356SOL    HW264756   8.381   3.305   1.711
15357SOL     OW64757   6.706   0.522   7.492
15357SOL    HW164758   6.612   0.547   7.469
15357SOL    HW264759   6.714   0.422   7.494
15358SOL     OW64760   8.645   6.871   7.088
15358SOL    HW164761   8.693   6.958   7.096
15358SOL    HW264762   8.711   6.797   7.076
15359SOL     OW64763   6.466   7.492   8.592
15359SOL    HW164764   6.474   7.584   8.555
15359SOL    HW264765   6.554   7.463   8.629
15360SOL     OW64766   4.935   4.668   2.002
15360SOL    HW164767   4.961   4.605   2.076
15360SOL    HW264768   4.911   4.614   1.921
15361SOL     OW64769   4.249   7.014   7.854
15361SOL    HW164770   4.196   6.954   7.795
15361SOL    HW264771   4.327   7.051   7.804
15362SOL     OW64772   4.296   1.552   1.025
15362SOL    HW164773   4.358   1.617   0.981
15362SOL    HW264774   4.212   1.544   0.971
15363SOL     OW64775   6.489   7.746   8.492
15363SOL    HW164776   6.577   7.775   8.455
15363SOL    HW264777   6.423   7.822   8.484
15364SOL     OW64778   9.950   6.011   6.588
15364SOL    HW164779   9.935   5.919   6.624
15364SOL    HW264780   9.921   6.014   6.492
15365SOL     OW64781   6.648   8.379   8.482
15365SOL    HW164782   6.572   8.386   8.417
15365SOL    HW264783   6.735   8.382   8.433
15366SOL     OW64784   4.455   6.520   8.642
15366SOL    HW164785   4.423   6.496   8.550
15366SOL    HW264786   4.377   6.542   8.700
15367SOL     OW64787   4.078   3.116   7.896
15367SOL    HW164788   4.048   3.071   7.811
15367SOL    HW264789   4.176   3.102   7.908
15368SOL     OW64790   9.976   5.078   0.582
15368SOL    HW164791   9.933   5.147   0.522
15368SOL    HW264792   9.910   5.006   0.602
15369SOL     OW64793   0.448   6.351   7.875
15369SOL    HW164794   0.537   6.311   7.854
15369SOL    HW264795   0.438   6.438   7.827
15370SOL     OW64796   5.167   6.226   7.596
15370SOL    HW164797   5.145   6.266   7.685
15370SOL    HW264798   5.155   6.127   7.599
15371SOL     OW64799   4.762   8.075   1.136
15371SOL    HW164800   4.756   7.975   1.135
15371SOL    HW264801   4.676   8.114   1.168
15372SOL     OW64802   0.490   2.393   8.177
15372SOL    HW164803   0.527   2.483   8.202
15372SOL    HW264804   0.403   2.405   8.129
15373SOL     OW64805   2.858   8.006   7.980
15373SOL    HW164806   2.805   7.980   8.061
15373SOL    HW264807   2.929   7.937   7.964
15374SOL     OW64808   9.855   0.777   1.939
15374SOL    HW164809   9.813   0.724   1.865
15374SOL    HW264810   9.896   0.714   2.005
15375SOL     OW64811   8.829   7.464   0.666
15375SOL    HW164812   8.914   7.517   0.663
15375SOL    HW264813   8.757   7.519   0.707
15376SOL     OW64814   5.022   6.619   8.572
15376SOL    HW164815   5.115   6.588   8.553
15376SOL    HW264816   4.957   6.559   8.526
15377SOL     OW64817   6.869   3.044   8.022
15377SOL    HW164818   6.933   3.108   7.981
15377SOL    HW264819   6.855   3.068   8.119
15378SOL     OW64820   7.718   3.332   2.045
15378SOL    HW164821   7.628   3.374   2.056
15378SOL    HW264822   7.785   3.383   2.098
15379SOL     OW64823   8.535   9.215   7.507
15379SOL    HW164824   8.474   9.267   7.447
15379SOL    HW264825   8.541   9.121   7.475
15380SOL     OW64826   4.567   3.664   7.142
15380SOL    HW164827   4.550   3.761   7.123
15380SOL    HW264828   4.496   3.628   7.203
15381SOL     OW64829   8.562   0.381   0.338
15381SOL    HW164830   8.566   0.464   0.393
15381SOL    HW264831   8.577   0.404   0.242
15382SOL     OW64832   2.900   0.379   0.281
15382SOL    HW164833   2.928   0.301   0.338
15382SOL    HW264834   2.968   0.452   0.289
15383SOL     OW64835   1.967   4.488   1.763
15383SOL    HW164836   2.010   4.474   1.852
15383SOL    HW264837   1.999   4.418   1.699
15384SOL     OW64838   1.527   2.588   1.521
15384SOL    HW164839   1.602   2.555   1.579
15384SOL    HW264840   1.508   2.684   1.544
15385SOL     OW64841  10.065   3.022   7.869
15385SOL    HW164842  10.086   3.063   7.780
15385SOL    HW264843  10.147   3.020   7.925
15386SOL     OW64844   1.881   4.703   1.607
15386SOL    HW164845   1.904   4.619   1.656
15386SOL    HW264846   1.782   4.710   1.598
15387SOL     OW64847   1.176   1.123   6.473
15387SOL    HW164848   1.093   1.178   6.464
15387SOL    HW264849   1.162   1.053   6.543
15388SOL     OW64850   7.856   4.107   1.212
15388SOL    HW164851   7.853   4.061   1.123
15388SOL    HW264852   7.950   4.108   1.246
15389SOL     OW64853   2.518   1.861   6.721
15389SOL    HW164854   2.502   1.903   6.811
15389SOL    HW264855   2.612   1.828   6.717
15390SOL     OW64856   8.177   2.605   8.588
15390SOL    HW164857   8.083   2.616   8.622
15390SOL    HW264858   8.189   2.512   8.555
15391SOL     OW64859   3.588   5.280   8.741
15391SOL    HW164860   3.513   5.344   8.730
15391SOL    HW264861   3.642   5.305   0.040
15392SOL     OW64862   9.827   3.456   0.209
15392SOL    HW164863   9.800   3.525   0.141
15392SOL    HW264864   9.859   3.502   0.292
15393SOL     OW64865   3.630   6.104   2.001
15393SOL    HW164866   3.726   6.102   2.029
15393SOL    HW264867   3.577   6.042   2.059
15394SOL     OW64868   2.754   3.567   6.215
15394SOL    HW164869   2.781   3.502   6.145
15394SOL    HW264870   2.798   3.655   6.199
15395SOL     OW64871   7.202   3.826   7.207
15395SOL    HW164872   7.256   3.798   7.286
15395SOL    HW264873   7.240   3.911   7.170
15396SOL     OW64874   4.343   4.181   8.018
15396SOL    HW164875   4.358   4.259   8.079
15396SOL    HW264876   4.428   4.159   7.971
15397SOL     OW64877   2.382   9.928   1.461
15397SOL    HW164878   2.362   9.894   1.369
15397SOL    HW264879   2.435  10.012   1.454
15398SOL     OW64880   7.567   1.780   8.666
15398SOL    HW164881   7.600   1.853   8.726
15398SOL    HW264882   7.556   1.696   8.718
15399SOL     OW64883   6.858   3.779   7.151
15399SOL    HW164884   6.764   3.752   7.131
15399SOL    HW264885   6.919   3.702   7.134
15400SOL     OW64886   6.331  10.287   8.244
15400SOL    HW164887   6.312  10.206   8.299
15400SOL    HW264888   6.251  10.347   8.243
15401SOL     OW64889   9.388   4.342   1.526
15401SOL    HW164890   9.359   4.247   1.528
15401SOL    HW264891   9.421   4.366   1.434
15402SOL     OW64892   2.985   0.772   7.321
15402SOL    HW164893   2.917   0.739   7.256
15402SOL    HW264894   3.073   0.727   7.303
15403SOL     OW64895   1.918   6.757   5.944
15403SOL    HW164896   1.852   6.702   5.893
15403SOL    HW264897   1.875   6.842   5.974
15404SOL     OW64898   8.699   3.345   6.631
15404SOL    HW164899   8.779   3.367   6.576
15404SOL    HW264900   8.636   3.423   6.631
15405SOL     OW64901   4.347   1.947   0.769
15405SOL    HW164902   4.337   2.007   0.848
15405SOL    HW264903   4.301   1.987   0.690
15406SOL     OW64904   3.318   3.706   6.465
15406SOL    HW164905   3.242   3.754   6.421
15406SOL    HW264906   3.317   3.610   6.439
15407SOL     OW64907   6.000   2.754   0.582
15407SOL    HW164908   5.946   2.758   0.498
15407SOL    HW264909   6.028   2.659   0.599
15408SOL     OW64910   0.334   2.210   0.312
15408SOL    HW164911   0.320   2.169   0.222
15408SOL    HW264912   0.246   2.235   0.351
15409SOL     OW64913  10.139   3.574   0.001
15409SOL    HW164914  10.082   3.655   8.768
15409SOL    HW264915  10.093   3.494   8.744
15410SOL     OW64916   1.929   8.603   1.613
15410SOL    HW164917   1.834   8.579   1.632
15410SOL    HW264918   1.937   8.702   1.601
15411SOL     OW64919   1.437   6.664   8.321
15411SOL    HW164920   1.447   6.662   8.222
15411SOL    HW264921   1.342   6.686   8.345
15412SOL     OW64922   2.237   1.910   0.567
15412SOL    HW164923   2.331   1.889   0.541
15412SOL    HW264924   2.235   1.953   0.657
15413SOL     OW64925   5.525   6.591   2.259
15413SOL    HW164926   5.605   6.561   2.206
15413SOL    HW264927   5.553   6.612   2.352
15414SOL     OW64928   3.359   0.967   6.693
15414SOL    HW164929   3.280   0.971   6.632
15414SOL    HW264930   3.328   0.957   6.787
15415SOL     OW64931   5.662  10.008   6.576
15415SOL    HW164932   5.632   9.924   6.532
15415SOL    HW264933   5.584  10.070   6.586
15416SOL     OW64934   8.176   6.680   2.117
15416SOL    HW164935   8.156   6.738   2.196
15416SOL    HW264936   8.176   6.584   2.145
15417SOL     OW64937   3.446   8.012   8.631
15417SOL    HW164938   3.447   7.926   8.579
15417SOL    HW264939   3.498   8.081   8.581
15418SOL     OW64940   0.012   0.214   1.463
15418SOL    HW164941   0.088   0.271   1.494
15418SOL    HW264942  10.083   0.258   1.487
15419SOL     OW64943   0.575   1.603   8.756
15419SOL    HW164944   0.505   1.604   0.045
15419SOL    HW264945   0.651   1.661   0.002
15420SOL     OW64946   6.697   6.902   0.604
15420SOL    HW164947   6.704   6.823   0.666
15420SOL    HW264948   6.613   6.894   0.551
15421SOL     OW64949   7.110   5.532   1.564
15421SOL    HW164950   7.157   5.483   1.637
15421SOL    HW264951   7.012   5.533   1.582
15422SOL     OW64952   2.808   3.667   0.462
15422SOL    HW164953   2.732   3.732   0.461
15422SOL    HW264954   2.817   3.628   0.554
15423SOL     OW64955   0.929   3.793   7.201
15423SOL    HW164956   0.934   3.818   7.298
15423SOL    HW264957   0.966   3.700   7.189
15424SOL     OW64958   3.608   3.152   1.415
15424SOL    HW164959   3.543   3.193   1.350
15424SOL    HW264960   3.629   3.059   1.388
15425SOL     OW64961  10.104   6.443   6.139
15425SOL    HW164962   0.037   6.480   6.120
15425SOL    HW264963  10.072   6.390   6.060
15426SOL     OW64964   4.307   5.281   0.299
15426SOL    HW164965   4.352   5.325   0.222
15426SOL    HW264966   4.312   5.341   0.379
15427SOL     OW64967   9.639   5.844   0.183
15427SOL    HW164968   9.682   5.785   0.114
15427SOL    HW264969   9.682   5.934   0.182
15428SOL     OW64970   5.694   9.781   7.075
15428SOL    HW164971   5.792   9.770   7.054
15428SOL    HW264972   5.681   9.861   7.133
15429SOL     OW64973  10.114   4.651   7.314
15429SOL    HW164974  10.151   4.604   7.233
15429SOL    HW264975  10.045   4.593   7.358
15430SOL     OW64976   6.890   4.906   0.649
15430SOL    HW164977   6.926   4.931   0.560
15430SOL    HW264978   6.896   4.984   0.711
15431SOL     OW64979   7.831  10.317   6.395
15431SOL    HW164980   7.741  10.274   6.407
15431SOL    HW264981   7.855  10.318   6.298
15432SOL     OW64982   5.993   4.149   1.727
15432SOL    HW164983   6.034   4.144   1.818
15432SOL    HW264984   6.050   4.100   1.662
15433SOL     OW64985   7.863   0.859   8.542
15433SOL    HW164986   7.911   0.866   8.455
15433SOL    HW264987   7.930   0.857   8.617
15434SOL     OW64988   2.441   9.678   8.444
15434SOL    HW164989   2.381   9.691   8.523
15434SOL    HW264990   2.388   9.687   8.359
15435SOL     OW64991   2.159   7.960   6.922
15435SOL    HW164992   2.073   8.001   6.952
15435SOL    HW264993   2.165   7.963   6.823
15436SOL     OW64994   8.262   3.719   8.181
15436SOL    HW164995   8.187   3.730   8.246
15436SOL    HW264996   8.348   3.748   8.223
15437SOL     OW64997   0.974   3.689   6.441
15437SOL    HW164998   0.878   3.662   6.453
15437SOL    HW264999   0.980   3.757   6.369
15438SOL     OW65000   0.701   7.743   2.427
15438SOL    HW165001   0.715   7.654   2.384
15438SOL    HW265002   0.603   7.759   2.441
15439SOL     OW65003   5.050   0.943   1.193
15439SOL    HW165004   5.125   0.954   1.128
15439SOL    HW265005   5.056   1.013   1.263
15440SOL     OW65006   2.681   1.191   0.966
15440SOL    HW165007   2.625   1.198   0.883
15440SOL    HW265008   2.626   1.153   1.040
15441SOL     OW65009   0.762   3.729   0.680
15441SOL    HW165010   0.671   3.729   0.640
15441SOL    HW265011   0.827   3.770   0.615
15442SOL     OW65012   6.047   1.396   7.241
15442SOL    HW165013   6.106   1.329   7.286
15442SOL    HW265014   5.954   1.358   7.233
15443SOL     OW65015   7.745   2.879   2.121
15443SOL    HW165016   7.812   2.805   2.123
15443SOL    HW265017   7.718   2.902   2.214
15444SOL     OW65018   1.645   4.223   7.381
15444SOL    HW165019   1.656   4.147   7.317
15444SOL    HW265020   1.700   4.301   7.350
15445SOL     OW65021   9.845   5.282   0.447
15445SOL    HW165022   9.808   5.261   0.357
15445SOL    HW265023   9.771   5.291   0.513
15446SOL     OW65024   3.154   6.188   1.052
15446SOL    HW165025   3.059   6.160   1.060
15446SOL    HW265026   3.170   6.269   1.108
15447SOL     OW65027   4.585   7.500   0.433
15447SOL    HW165028   4.629   7.425   0.483
15447SOL    HW265029   4.501   7.527   0.481
15448SOL     OW65030   9.799   7.799   7.119
15448SOL    HW165031   9.836   7.785   7.027
15448SOL    HW265032   9.842   7.879   7.160
15449SOL     OW65033   3.046   3.533   8.179
15449SOL    HW165034   3.009   3.561   8.090
15449SOL    HW265035   3.111   3.459   8.166
15450SOL     OW65036   1.843   7.760   0.138
15450SOL    HW165037   1.869   7.737   0.044
15450SOL    HW265038   1.844   7.677   0.194
15451SOL     OW65039   0.135   2.242   1.575
15451SOL    HW165040   0.099   2.223   1.666
15451SOL    HW265041   0.202   2.317   1.580
15452SOL     OW65042   4.567   9.140   1.525
15452SOL    HW165043   4.493   9.200   1.494
15452SOL    HW265044   4.537   9.086   1.603
15453SOL     OW65045  10.103   2.177   1.382
15453SOL    HW165046  10.047   2.259   1.382
15453SOL    HW265047   0.019   2.186   1.449
15454SOL     OW65048   9.986   3.093   0.557
15454SOL    HW165049   9.892   3.068   0.533
15454SOL    HW265050  10.041   3.102   0.473
15455SOL     OW65051   3.014   3.269   1.134
15455SOL    HW165052   2.988   3.289   1.040
15455SOL    HW265053   3.105   3.308   1.153
15456SOL     OW65054   4.440   5.180   1.248
15456SOL    HW165055   4.424   5.270   1.209
15456SOL    HW265056   4.411   5.110   1.182
15457SOL     OW65057   8.031   4.673   0.178
15457SOL    HW165058   8.061   4.716   0.093
15457SOL    HW265059   8.011   4.577   0.162
15458SOL     OW65060   6.867   6.232   0.849
15458SOL    HW165061   6.907   6.299   0.912
15458SOL    HW265062   6.769   6.249   0.839
15459SOL     OW65063   5.447   6.812   7.566
15459SOL    HW165064   5.471   6.721   7.531
15459SOL    HW265065   5.498   6.830   7.650
15460SOL     OW65066   3.133   7.599   1.312
15460SOL    HW165067   3.035   7.591   1.328
15460SOL    HW265068   3.151   7.680   1.256
15461SOL     OW65069   4.399   1.460   0.182
15461SOL    HW165070   4.477   1.464   0.245
15461SOL    HW265071   4.431   1.475   0.089
15462SOL     OW65072   7.067   0.089   7.701
15462SOL    HW165073   7.090   0.134   7.787
15462SOL    HW265074   7.075   0.156   7.626
15463SOL     OW65075   2.032   1.405   8.111
15463SOL    HW165076   2.126   1.383   8.087
15463SOL    HW265077   2.030   1.488   8.168
15464SOL     OW65078   5.369   8.483   2.279
15464SOL    HW165079   5.316   8.419   2.334
15464SOL    HW265080   5.308   8.552   2.240
15465SOL     OW65081   6.062   5.210   8.729
15465SOL    HW165082   6.115   5.187   0.029
15465SOL    HW265083   6.104   5.288   8.683
15466SOL     OW65084   7.374   6.447   8.714
15466SOL    HW165085   7.279   6.476   8.712
15466SOL    HW265086   7.432   6.520   8.678
15467SOL     OW65087   5.870   0.027   0.739
15467SOL    HW165088   5.898  10.445   0.785
15467SOL    HW265089   5.844   0.007   0.645
15468SOL     OW65090   2.237   4.873   1.468
15468SOL    HW165091   2.162   4.909   1.523
15468SOL    HW265092   2.219   4.776   1.448
15469SOL     OW65093   5.608   0.254   2.186
15469SOL    HW165094   5.510   0.237   2.191
15469SOL    HW265095   5.650   0.232   2.274
15470SOL     OW65096   8.637   1.159   0.031
15470SOL    HW165097   8.683   1.241   0.066
15470SOL    HW265098   8.539   1.176   0.024
15471SOL     OW65099   0.676  10.197   0.672
15471SOL    HW165100   0.744  10.262   0.638
15471SOL    HW265101   0.590  10.244   0.690
15472SOL     OW65102   9.108   3.631   6.807
15472SOL    HW165103   9.049   3.565   6.853
15472SOL    HW265104   9.128   3.600   6.714
15473SOL     OW65105   5.596   9.023   1.266
15473SOL    HW165106   5.587   8.955   1.338
15473SOL    HW265107   5.515   9.082   1.266
15474SOL     OW65108   0.096   5.733   1.105
15474SOL    HW165109   0.035   5.799   1.060
15474SOL    HW265110   0.090   5.645   1.057
15475SOL     OW65111   4.583   1.550   7.461
15475SOL    HW165112   4.521   1.607   7.407
15475SOL    HW265113   4.657   1.517   7.402
15476SOL     OW65114   1.093   0.999   7.943
15476SOL    HW165115   1.074   1.093   7.971
15476SOL    HW265116   1.156   0.957   8.008
15477SOL     OW65117   3.239   6.479   8.440
15477SOL    HW165118   3.253   6.472   8.539
15477SOL    HW265119   3.220   6.574   8.415
15478SOL     OW65120   9.119   7.556   8.105
15478SOL    HW165121   9.188   7.489   8.133
15478SOL    HW265122   9.035   7.509   8.079
15479SOL     OW65123   7.693   7.484   1.955
15479SOL    HW165124   7.763   7.549   1.927
15479SOL    HW265125   7.678   7.492   2.054
15480SOL     OW65126   1.639   0.744   8.296
15480SOL    HW165127   1.675   0.758   8.204
15480SOL    HW265128   1.585   0.823   8.323
15481SOL     OW65129   7.492   8.102   1.138
15481SOL    HW165130   7.541   8.188   1.138
15481SOL    HW265131   7.479   8.070   1.044
15482SOL     OW65132   0.535   2.816   7.602
15482SOL    HW165133   0.620   2.765   7.589
15482SOL    HW265134   0.466   2.756   7.643
15483SOL     OW65135   7.503   5.267   0.222
15483SOL    HW165136   7.588   5.314   0.246
15483SOL    HW265137   7.430   5.294   0.285
15484SOL     OW65138   4.024  10.027   8.146
15484SOL    HW165139   4.119  10.037   8.114
15484SOL    HW265140   3.997   9.931   8.140
15485SOL     OW65141   3.494   2.166   7.402
15485SOL    HW165142   3.425   2.174   7.330
15485SOL    HW265143   3.558   2.242   7.395
15486SOL     OW65144   4.655   7.910   7.899
15486SOL    HW165145   4.668   7.836   7.833
15486SOL    HW265146   4.727   7.979   7.885
15487SOL     OW65147   0.324   4.524   6.775
15487SOL    HW165148   0.370   4.600   6.729
15487SOL    HW265149   0.391   4.467   6.822
15488SOL     OW65150   8.120   1.444   8.551
15488SOL    HW165151   8.054   1.515   8.526
15488SOL    HW265152   8.071   1.360   8.575
15489SOL     OW65153   7.568   4.291   1.635
15489SOL    HW165154   7.530   4.282   1.543
15489SOL    HW265155   7.520   4.229   1.697
15490SOL     OW65156   3.246   0.181   7.774
15490SOL    HW165157   3.154   0.175   7.735
15490SOL    HW265158   3.249   0.128   7.859
15491SOL     OW65159   1.617   9.298   1.945
15491SOL    HW165160   1.596   9.388   1.983
15491SOL    HW265161   1.715   9.280   1.955
15492SOL     OW65162   1.345   8.188   6.862
15492SOL    HW165163   1.294   8.102   6.855
15492SOL    HW265164   1.428   8.174   6.916
15493SOL     OW65165   6.115   9.635   0.444
15493SOL    HW165166   6.181   9.596   0.381
15493SOL    HW265167   6.070   9.714   0.402
15494SOL     OW65168   2.901   8.559   0.733
15494SOL    HW165169   2.819   8.612   0.753
15494SOL    HW265170   2.959   8.556   0.815
15495SOL     OW65171   7.167   0.912   1.139
15495SOL    HW165172   7.206   0.955   1.058
15495SOL    HW265173   7.236   0.853   1.181
15496SOL     OW65174   3.475   5.730   8.418
15496SOL    HW165175   3.462   5.826   8.442
15496SOL    HW265176   3.550   5.722   8.352
15497SOL     OW65177   2.573   5.224   1.500
15497SOL    HW165178   2.560   5.282   1.580
15497SOL    HW265179   2.665   5.184   1.503
15498SOL     OW65180   5.739   1.744   7.929
15498SOL    HW165181   5.832   1.780   7.939
15498SOL    HW265182   5.696   1.739   8.020
15499SOL     OW65183   4.755  10.442   6.700
15499SOL    HW165184   4.681  10.383   6.668
15499SOL    HW265185   4.716   0.015   6.752
15500SOL     OW65186   3.294   7.233   7.552
15500SOL    HW165187   3.284   7.165   7.480
15500SOL    HW265188   3.326   7.189   7.636
15501SOL     OW65189   9.658   6.400   7.079
15501SOL    HW165190   9.706   6.347   7.009
15501SOL    HW265191   9.686   6.495   7.074
15502SOL     OW65192   0.856   7.764   1.098
15502SOL    HW165193   0.841   7.687   1.160
15502SOL    HW265194   0.894   7.731   1.012
15503SOL     OW65195   9.773   3.090   2.214
15503SOL    HW165196   9.682   3.054   2.232
15503SOL    HW265197   9.780   3.183   2.248
15504SOL     OW65198   5.341  10.389   1.990
15504SOL    HW165199   5.375  10.407   2.083
15504SOL    HW265200   5.400  10.323   1.945
15505SOL     OW65201   4.142   6.006   7.683
15505SOL    HW165202   4.042   6.014   7.677
15505SOL    HW265203   4.174   5.943   7.612
15506SOL     OW65204   0.815   7.712   7.540
15506SOL    HW165205   0.865   7.675   7.618
15506SOL    HW265206   0.752   7.783   7.571
15507SOL     OW65207   8.767  10.487   0.916
15507SOL    HW165208   8.786   0.077   0.884
15507SOL    HW265209   8.853  10.437   0.927
15508SOL     OW65210   8.645   8.337   8.500
15508SOL    HW165211   8.633   8.407   8.571
15508SOL    HW265212   8.599   8.367   8.417
15509SOL     OW65213   2.819   5.895   6.499
15509SOL    HW165214   2.745   5.902   6.432
15509SOL    HW265215   2.884   5.825   6.469
15510SOL     OW65216   6.559   1.792   0.444
15510SOL    HW165217   6.502   1.850   0.502
15510SOL    HW265218   6.524   1.794   0.350
15511SOL     OW65219   6.519   0.748   8.419
15511SOL    HW165220   6.495   0.713   8.328
15511SOL    HW265221   6.576   0.829   8.409
15512SOL     OW65222   1.071   2.398   1.067
15512SOL    HW165223   1.062   2.300   1.048
15512SOL    HW265224   1.013   2.422   1.146
15513SOL     OW65225   8.543   5.241   7.302
15513SOL    HW165226   8.485   5.200   7.373
15513SOL    HW265227   8.497   5.322   7.265
15514SOL     OW65228   4.144   4.278   7.099
15514SOL    HW165229   4.210   4.271   7.175
15514SOL    HW265230   4.054   4.300   7.136
15515SOL     OW65231   0.714   6.031   2.098
15515SOL    HW165232   0.777   5.984   2.160
15515SOL    HW265233   0.622   5.994   2.110
15516SOL     OW65234   4.610   4.256   1.563
15516SOL    HW165235   4.625   4.339   1.509
15516SOL    HW265236   4.520   4.260   1.606
15517SOL     OW65237   8.114   9.512   7.080
15517SOL    HW165238   8.035   9.555   7.037
15517SOL    HW265239   8.154   9.445   7.017
15518SOL     OW65240   3.775   5.933   1.031
15518SOL    HW165241   3.689   5.885   1.011
15518SOL    HW265242   3.790   5.934   1.130
15519SOL     OW65243   5.786   4.986   2.045
15519SOL    HW165244   5.844   4.976   1.964
15519SOL    HW265245   5.706   5.042   2.021
15520SOL     OW65246   9.712   8.625   7.288
15520SOL    HW165247   9.762   8.543   7.317
15520SOL    HW265248   9.638   8.599   7.225
15521SOL     OW65249   5.279   0.979   1.050
15521SOL    HW165250   5.277   1.076   1.074
15521SOL    HW265251   5.372   0.943   1.061
15522SOL     OW65252   4.678   4.247   8.123
15522SOL    HW165253   4.614   4.195   8.180
15522SOL    HW265254   4.730   4.310   8.181
15523SOL     OW65255   2.698   4.500   2.003
15523SOL    HW165256   2.754   4.583   2.001
15523SOL    HW265257   2.667   4.482   2.096
15524SOL     OW65258   8.603   0.846   1.738
15524SOL    HW165259   8.564   0.823   1.828
15524SOL    HW265260   8.638   0.763   1.695
15525SOL     OW65261   7.241   9.395   6.430
15525SOL    HW165262   7.170   9.334   6.464
15525SOL    HW265263   7.206   9.489   6.425
15526SOL     OW65264   6.598   7.171   1.654
15526SOL    HW165265   6.569   7.199   1.745
15526SOL    HW265266   6.698   7.173   1.649
15527SOL     OW65267   6.752   1.200   1.927
15527SOL    HW165268   6.789   1.200   2.020
15527SOL    HW265269   6.654   1.178   1.930
15528SOL     OW65270   0.393   4.135   7.694
15528SOL    HW165271   0.401   4.138   7.794
15528SOL    HW265272   0.320   4.196   7.665
15529SOL     OW65273  10.047   3.858   0.682
15529SOL    HW165274  10.024   3.761   0.688
15529SOL    HW265275  10.015   3.906   0.763
15530SOL     OW65276   1.583   8.885   1.003
15530SOL    HW165277   1.547   8.896   1.095
15530SOL    HW265278   1.594   8.788   0.982
15531SOL     OW65279   0.752   3.249   0.782
15531SOL    HW165280   0.706   3.329   0.742
15531SOL    HW265281   0.783   3.272   0.874
15532SOL     OW65282   1.624   1.511   6.265
15532SOL    HW165283   1.530   1.520   6.298
15532SOL    HW265284   1.638   1.572   6.187
15533SOL     OW65285   3.289   6.470   1.808
15533SOL    HW165286   3.244   6.502   1.892
15533SOL    HW265287   3.364   6.409   1.831
15534SOL     OW65288   1.250   6.773   6.307
15534SOL    HW165289   1.324   6.823   6.262
15534SOL    HW265290   1.162   6.810   6.276
15535SOL     OW65291   4.706   5.041   6.590
15535SOL    HW165292   4.792   5.081   6.560
15535SOL    HW265293   4.638   5.048   6.516
15536SOL     OW65294   0.085   6.823   6.978
15536SOL    HW165295   0.080   6.749   6.912
15536SOL    HW265296   0.160   6.807   7.042
15537SOL     OW65297   0.262   0.220   8.567
15537SOL    HW165298   0.169   0.239   8.599
15537SOL    HW265299   0.258   0.181   8.475
15538SOL     OW65300   9.220   3.781   1.057
15538SOL    HW165301   9.155   3.720   1.011
15538SOL    HW265302   9.313   3.762   1.025
15539SOL     OW65303   7.766   1.403   8.553
15539SOL    HW165304   7.818   1.483   8.524
15539SOL    HW265305   7.677   1.401   8.508
15540SOL     OW65306  10.063   9.349   7.169
15540SOL    HW165307  10.038   9.415   7.240
15540SOL    HW265308  10.012   9.369   7.086
15541SOL     OW65309   6.693   6.650   1.855
15541SOL    HW165310   6.711   6.735   1.904
15541SOL    HW265311   6.732   6.573   1.905
15542SOL     OW65312   5.632   2.232   6.420
15542SOL    HW165313   5.683   2.308   6.460
15542SOL    HW265314   5.613   2.251   6.324
15543SOL     OW65315   0.443   5.902   8.495
15543SOL    HW165316   0.374   5.912   8.424
15543SOL    HW265317   0.410   5.837   8.564
15544SOL     OW65318   8.958   5.289   8.162
15544SOL    HW165319   8.902   5.277   8.244
15544SOL    HW265320   9.031   5.220   8.161
15545SOL     OW65321   6.201   6.599   0.983
15545SOL    HW165322   6.222   6.509   1.022
15545SOL    HW265323   6.265   6.619   0.908
15546SOL     OW65324   3.671   5.656   7.124
15546SOL    HW165325   3.711   5.741   7.156
15546SOL    HW265326   3.710   5.632   7.035
15547SOL     OW65327   1.224   5.183   8.266
15547SOL    HW165328   1.206   5.130   8.184
15547SOL    HW265329   1.164   5.152   8.340
15548SOL     OW65330   7.067   6.951   0.785
15548SOL    HW165331   7.070   6.852   0.796
15548SOL    HW265332   7.014   6.992   0.859
15549SOL     OW65333   1.503   2.993   5.788
15549SOL    HW165334   1.603   2.998   5.793
15549SOL    HW265335   1.468   3.072   5.738
15550SOL     OW65336   6.455   1.672   1.485
15550SOL    HW165337   6.495   1.753   1.528
15550SOL    HW265338   6.523   1.600   1.479
15551SOL     OW65339   6.393   4.651   8.152
15551SOL    HW165340   6.480   4.615   8.119
15551SOL    HW265341   6.400   4.750   8.164
15552SOL     OW65342   4.050   2.637   6.364
15552SOL    HW165343   4.023   2.621   6.269
15552SOL    HW265344   4.133   2.585   6.385
15553SOL     OW65345   7.511   4.021   1.022
15553SOL    HW165346   7.567   4.079   0.963
15553SOL    HW265347   7.512   3.927   0.988
15554SOL     OW65348   6.335  10.187   0.101
15554SOL    HW165349   6.393  10.107   0.103
15554SOL    HW265350   6.387  10.267   0.131
15555SOL     OW65351   8.867   1.864   0.565
15555SOL    HW165352   8.949   1.902   0.608
15555SOL    HW265353   8.821   1.803   0.629
15556SOL     OW65354   7.859   1.966   7.169
15556SOL    HW165355   7.862   2.050   7.222
15556SOL    HW265356   7.820   1.984   7.079
15557SOL     OW65357   6.995   3.458   8.365
15557SOL    HW165358   7.038   3.396   8.299
15557SOL    HW265359   6.965   3.541   8.317
15558SOL     OW65360   9.350   0.292   8.533
15558SOL    HW165361   9.432   0.237   8.518
15558SOL    HW265362   9.271   0.232   8.540
15559SOL     OW65363   8.344   2.579   2.071
15559SOL    HW165364   8.386   2.491   2.050
15559SOL    HW265365   8.274   2.567   2.141
15560SOL     OW65366   1.579   6.745   7.673
15560SOL    HW165367   1.589   6.645   7.677
15560SOL    HW265368   1.491   6.771   7.712
15561SOL     OW65369   6.495   4.078   7.568
15561SOL    HW165370   6.493   4.009   7.640
15561SOL    HW265371   6.590   4.104   7.549
15562SOL     OW65372   3.498   4.427   7.323
15562SOL    HW165373   3.473   4.368   7.246
15562SOL    HW265374   3.579   4.480   7.300
15563SOL     OW65375   0.354   6.561   7.263
15563SOL    HW165376   0.427   6.494   7.278
15563SOL    HW265377   0.268   6.524   7.299
15564SOL     OW65378   9.286   5.769   6.826
15564SOL    HW165379   9.255   5.728   6.913
15564SOL    HW265380   9.287   5.868   6.835
15565SOL     OW65381   6.696   2.893   7.338
15565SOL    HW165382   6.642   2.890   7.423
15565SOL    HW265383   6.712   2.988   7.311
15566SOL     OW65384   4.242   3.597   7.718
15566SOL    HW165385   4.249   3.668   7.787
15566SOL    HW265386   4.321   3.537   7.723
15567SOL     OW65387   4.440   4.094   0.300
15567SOL    HW165388   4.442   3.995   0.311
15567SOL    HW265389   4.515   4.122   0.240
15568SOL     OW65390   8.041  10.270   0.688
15568SOL    HW165391   8.128  10.316   0.672
15568SOL    HW265392   8.058  10.181   0.731
15569SOL     OW65393   7.945   9.618   1.991
15569SOL    HW165394   7.850   9.598   2.018
15569SOL    HW265395   8.003   9.623   2.072
15570SOL     OW65396   1.060   3.862   0.285
15570SOL    HW165397   1.159   3.847   0.273
15570SOL    HW265398   1.030   3.935   0.224
15571SOL     OW65399   9.187   9.728   6.792
15571SOL    HW165400   9.119   9.687   6.731
15571SOL    HW265401   9.187   9.827   6.779
15572SOL     OW65402   3.376   2.517   6.568
15572SOL    HW165403   3.465   2.558   6.587
15572SOL    HW265404   3.387   2.418   6.556
15573SOL     OW65405   1.795   8.595   8.648
15573SOL    HW165406   1.726   8.639   8.591
15573SOL    HW265407   1.876   8.575   8.593
15574SOL     OW65408   2.702   3.866   7.158
15574SOL    HW165409   2.794   3.861   7.197
15574SOL    HW265410   2.702   3.928   7.079
15575SOL     OW65411   1.870   6.198   0.388
15575SOL    HW165412   1.866   6.135   0.465
15575SOL    HW265413   1.964   6.229   0.375
15576SOL     OW65414   1.976   4.468   8.518
15576SOL    HW165415   2.033   4.401   8.565
15576SOL    HW265416   2.026   4.507   8.441
15577SOL     OW65417   7.348   7.344   1.176
15577SOL    HW165418   7.281   7.372   1.245
15577SOL    HW265419   7.318   7.372   1.086
15578SOL     OW65420   2.073   1.685   6.760
15578SOL    HW165421   2.067   1.609   6.825
15578SOL    HW265422   2.161   1.682   6.713
15579SOL     OW65423   4.907   5.160   0.040
15579SOL    HW165424   4.958   5.237   0.003
15579SOL    HW265425   4.948   5.074   0.009
15580SOL     OW65426   8.000  10.374   6.596
15580SOL    HW165427   7.962  10.455   6.642
15580SOL    HW265428   7.942  10.350   6.518
15581SOL     OW65429   3.608   0.193   7.482
15581SOL    HW165430   3.665   0.152   7.553
15581SOL    HW265431   3.644   0.284   7.459
15582SOL     OW65432   6.230   5.261   0.422
15582SOL    HW165433   6.209   5.266   0.519
15582SOL    HW265434   6.321   5.299   0.405
15583SOL     OW65435   3.062   0.322   0.013
15583SOL    HW165436   3.058   0.394   0.083
15583SOL    HW265437   2.972   0.280   0.005
15584SOL     OW65438   3.912   8.834   1.566
15584SOL    HW165439   3.817   8.829   1.597
15584SOL    HW265440   3.972   8.843   1.646
15585SOL     OW65441   8.399   0.370   2.160
15585SOL    HW165442   8.406   0.369   2.260
15585SOL    HW265443   8.357   0.285   2.128
15586SOL     OW65444   0.283   0.750   7.787
15586SOL    HW165445   0.302   0.657   7.756
15586SOL    HW265446   0.214   0.791   7.728
15587SOL     OW65447   7.676   3.554   0.343
15587SOL    HW165448   7.737   3.481   0.373
15587SOL    HW265449   7.672   3.625   0.412
15588SOL     OW65450   0.156   2.376   8.303
15588SOL    HW165451   0.187   2.398   8.211
15588SOL    HW265452   0.235   2.367   8.364
15589SOL     OW65453   7.953   2.683   2.098
15589SOL    HW165454   8.013   2.753   2.061
15589SOL    HW265455   8.004   2.626   2.163
15590SOL     OW65456   5.130   6.183   0.968
15590SOL    HW165457   5.071   6.144   1.039
15590SOL    HW265458   5.073   6.224   0.896
15591SOL     OW65459   3.808   9.907   0.297
15591SOL    HW165460   3.817   9.808   0.300
15591SOL    HW265461   3.741   9.937   0.365
15592SOL     OW65462   9.473   1.666   7.656
15592SOL    HW165463   9.462   1.642   7.560
15592SOL    HW265464   9.529   1.597   7.702
15593SOL     OW65465   9.582   5.867   6.354
15593SOL    HW165466   9.596   5.865   6.453
15593SOL    HW265467   9.664   5.832   6.308
15594SOL     OW65468   3.598   4.596   0.433
15594SOL    HW165469   3.601   4.504   0.471
15594SOL    HW265470   3.628   4.662   0.502
15595SOL     OW65471   3.493   4.576   6.767
15595SOL    HW165472   3.436   4.658   6.768
15595SOL    HW265473   3.441   4.498   6.802
15596SOL     OW65474   1.986   1.305   7.695
15596SOL    HW165475   1.908   1.365   7.678
15596SOL    HW265476   2.068   1.360   7.709
15597SOL     OW65477  10.078   4.326   1.679
15597SOL    HW165478   0.017   4.325   1.706
15597SOL    HW265479  10.021   4.334   1.761
15598SOL     OW65480   7.811   8.502   0.992
15598SOL    HW165481   7.906   8.475   0.976
15598SOL    HW265482   7.809   8.581   1.052
15599SOL     OW65483   4.734   9.088   0.418
15599SOL    HW165484   4.803   9.087   0.345
15599SOL    HW265485   4.643   9.089   0.377
15600SOL     OW65486   5.866   4.012   7.940
15600SOL    HW165487   5.856   3.915   7.961
15600SOL    HW265488   5.963   4.034   7.925
15601SOL     OW65489   7.665   4.635   0.614
15601SOL    HW165490   7.591   4.644   0.547
15601SOL    HW265491   7.736   4.576   0.577
15602SOL     OW65492   0.032   9.570   1.160
15602SOL    HW165493   0.053   9.588   1.064
15602SOL    HW265494  10.099   9.606   1.181
15603SOL     OW65495   6.022   1.616   7.573
15603SOL    HW165496   6.032   1.518   7.593
15603SOL    HW265497   6.039   1.631   7.475
15604SOL     OW65498   0.969   0.984   1.079
15604SOL    HW165499   0.948   0.887   1.095
15604SOL    HW265500   1.068   0.997   1.080
15605SOL     OW65501   1.211   2.600   6.582
15605SOL    HW165502   1.152   2.530   6.623
15605SOL    HW265503   1.156   2.681   6.559
15606SOL     OW65504   0.861   6.319   6.501
15606SOL    HW165505   0.764   6.296   6.495
15606SOL    HW265506   0.878   6.404   6.450
15607SOL     OW65507   9.753   2.526   7.389
15607SOL    HW165508   9.816   2.499   7.316
15607SOL    HW265509   9.747   2.625   7.392
15608SOL     OW65510   6.809  10.302   1.366
15608SOL    HW165511   6.877  10.304   1.440
15608SOL    HW265512   6.763  10.391   1.361
15609SOL     OW65513   6.799   8.198   7.605
15609SOL    HW165514   6.782   8.180   7.508
15609SOL    HW265515   6.897   8.186   7.624
15610SOL     OW65516   7.519   0.483   2.519
15610SOL    HW165517   7.618   0.483   2.513
15610SOL    HW265518   7.491   0.474   2.614
15611SOL     OW65519   7.821   8.264   1.321
15611SOL    HW165520   7.746   8.292   1.262
15611SOL    HW265521   7.875   8.193   1.276
15612SOL     OW65522   5.527   7.825   1.003
15612SOL    HW165523   5.548   7.902   0.943
15612SOL    HW265524   5.458   7.852   1.070
15613SOL     OW65525   6.762   3.364   8.091
15613SOL    HW165526   6.787   3.447   8.040
15613SOL    HW265527   6.722   3.298   8.028
15614SOL     OW65528   5.925   9.663   0.886
15614SOL    HW165529   5.928   9.763   0.885
15614SOL    HW265530   5.957   9.628   0.797
15615SOL     OW65531   8.288   7.558   8.358
15615SOL    HW165532   8.255   7.567   8.452
15615SOL    HW265533   8.216   7.518   8.301
15616SOL     OW65534   7.087   0.280   0.411
15616SOL    HW165535   7.090   0.303   0.508
15616SOL    HW265536   7.104   0.361   0.356
15617SOL     OW65537   9.627  10.190   1.166
15617SOL    HW165538   9.536  10.211   1.131
15617SOL    HW265539   9.694  10.249   1.121
15618SOL     OW65540   8.088   1.237   8.085
15618SOL    HW165541   8.017   1.304   8.061
15618SOL    HW265542   8.174   1.263   8.041
15619SOL     OW65543   6.128   7.434   7.539
15619SOL    HW165544   6.080   7.404   7.457
15619SOL    HW265545   6.074   7.411   7.620
15620SOL     OW65546   3.986   0.352   0.015
15620SOL    HW165547   3.956   0.443   0.042
15620SOL    HW265548   4.076   0.333   0.054
15621SOL     OW65549   6.447   4.684   1.501
15621SOL    HW165550   6.521   4.635   1.548
15621SOL    HW265551   6.483   4.728   1.419
15622SOL     OW65552   5.853   7.822   0.693
15622SOL    HW165553   5.759   7.809   0.661
15622SOL    HW265554   5.853   7.854   0.787
15623SOL     OW65555   6.478   5.540   7.011
15623SOL    HW165556   6.502   5.609   7.078
15623SOL    HW265557   6.561   5.506   6.966
15624SOL     OW65558   5.234   0.976   7.228
15624SOL    HW165559   5.228   1.013   7.321
15624SOL    HW265560   5.322   1.002   7.188
15625SOL     OW65561   3.252   5.758   7.681
15625SOL    HW165562   3.249   5.855   7.707
15625SOL    HW265563   3.196   5.705   7.745
15626SOL     OW65564   8.803  10.063   0.035
15626SOL    HW165565   8.812   9.965   0.016
15626SOL    HW265566   8.745  10.105   8.747
15627SOL     OW65567   3.749   6.991   7.004
15627SOL    HW165568   3.748   7.073   7.062
15627SOL    HW265569   3.841   6.976   6.968
15628SOL     OW65570   0.490   0.920   7.720
15628SOL    HW165571   0.462   1.008   7.681
15628SOL    HW265572   0.409   0.867   7.745
15629SOL     OW65573   8.001   1.947   7.552
15629SOL    HW165574   7.902   1.932   7.547
15629SOL    HW265575   8.048   1.860   7.565
15630SOL     OW65576   1.113   0.692   0.878
15630SOL    HW165577   1.168   0.613   0.905
15630SOL    HW265578   1.163   0.745   0.810
15631SOL     OW65579   0.384   1.027   0.965
15631SOL    HW165580   0.353   0.932   0.958
15631SOL    HW265581   0.464   1.032   1.024
15632SOL     OW65582   5.145  10.269   8.493
15632SOL    HW165583   5.053  10.258   8.457
15632SOL    HW265584   5.193  10.338   8.440
15633SOL     OW65585   5.769   4.520   8.336
15633SOL    HW165586   5.722   4.489   8.254
15633SOL    HW265587   5.854   4.566   8.310
15634SOL     OW65588   7.538   3.764   0.925
15634SOL    HW165589   7.473   3.715   0.982
15634SOL    HW265590   7.624   3.713   0.920
15635SOL     OW65591   4.422   4.660   2.200
15635SOL    HW165592   4.356   4.729   2.232
15635SOL    HW265593   4.377   4.601   2.133
15636SOL     OW65594   5.541   0.119   0.172
15636SOL    HW165595   5.598   0.144   0.251
15636SOL    HW265596   5.599   0.079   0.101
15637SOL     OW65597   9.179   9.327   7.999
15637SOL    HW165598   9.192   9.292   7.906
15637SOL    HW265599   9.081   9.326   8.022
15638SOL     OW65600   5.138   1.827   0.945
15638SOL    HW165601   5.158   1.921   0.919
15638SOL    HW265602   5.223   1.776   0.957
15639SOL     OW65603   3.882   0.224   6.291
15639SOL    HW165604   3.860   0.293   6.360
15639SOL    HW265605   3.895   0.269   6.203
15640SOL     OW65606   2.236   5.746   6.224
15640SOL    HW165607   2.325   5.759   6.181
15640SOL    HW265608   2.228   5.808   6.302
15641SOL     OW65609   1.574   4.502   7.136
15641SOL    HW165610   1.655   4.490   7.194
15641SOL    HW265611   1.560   4.421   7.081
15642SOL     OW65612   0.612   4.933   0.505
15642SOL    HW165613   0.710   4.912   0.512
15642SOL    HW265614   0.573   4.883   0.428
15643SOL     OW65615   7.323   6.532   6.778
15643SOL    HW165616   7.229   6.532   6.813
15643SOL    HW265617   7.333   6.460   6.709
15644SOL     OW65618   5.557   9.352   7.460
15644SOL    HW165619   5.636   9.338   7.402
15644SOL    HW265620   5.557   9.285   7.534
15645SOL     OW65621   1.336   8.168   0.427
15645SOL    HW165622   1.320   8.181   0.525
15645SOL    HW265623   1.248   8.169   0.379
15646SOL     OW65624   8.706   4.258   8.122
15646SOL    HW165625   8.674   4.340   8.074
15646SOL    HW265626   8.669   4.258   8.215
15647SOL     OW65627  10.101   0.308   7.776
15647SOL    HW165628   0.012   0.345   7.714
15647SOL    HW265629  10.130   0.322   7.871
15648SOL     OW65630   3.645   2.280   0.663
15648SOL    HW165631   3.710   2.211   0.693
15648SOL    HW265632   3.571   2.237   0.612
15649SOL     OW65633   6.643   6.999   6.809
15649SOL    HW165634   6.616   7.085   6.766
15649SOL    HW265635   6.610   6.997   6.904
15650SOL     OW65636   4.168   4.418   0.413
15650SOL    HW165637   4.193   4.422   0.316
15650SOL    HW265638   4.069   4.407   0.420
15651SOL     OW65639   2.540   3.236   0.873
15651SOL    HW165640   2.511   3.167   0.807
15651SOL    HW265641   2.620   3.204   0.923
15652SOL     OW65642   0.868   3.020   7.760
15652SOL    HW165643   0.923   3.077   7.821
15652SOL    HW265644   0.771   3.032   7.781
15653SOL     OW65645   1.519  10.470   6.358
15653SOL    HW165646   1.506  10.393   6.295
15653SOL    HW265647   1.445  10.472   6.425
15654SOL     OW65648   5.687   2.608   6.268
15654SOL    HW165649   5.602   2.614   6.320
15654SOL    HW265650   5.667   2.596   6.171
15655SOL     OW65651   3.444   9.160   0.505
15655SOL    HW165652   3.409   9.252   0.519
15655SOL    HW265653   3.464   9.118   0.594
15656SOL     OW65654   8.231   0.902   6.612
15656SOL    HW165655   8.154   0.921   6.551
15656SOL    HW265656   8.275   0.817   6.585
15657SOL     OW65657   7.619   1.135   1.517
15657SOL    HW165658   7.648   1.229   1.501
15657SOL    HW265659   7.655   1.104   1.605
15658SOL     OW65660   7.082   3.634   6.563
15658SOL    HW165661   6.982   3.637   6.561
15658SOL    HW265662   7.115   3.649   6.656
15659SOL     OW65663   6.474   9.338   8.211
15659SOL    HW165664   6.461   9.240   8.228
15659SOL    HW265665   6.517   9.381   8.291
15660SOL     OW65666   9.527   0.174   0.614
15660SOL    HW165667   9.582   0.196   0.695
15660SOL    HW265668   9.438   0.218   0.622
15661SOL     OW65669   3.996   1.196   7.955
15661SOL    HW165670   3.962   1.115   8.002
15661SOL    HW265671   4.093   1.185   7.934
15662SOL     OW65672   5.926   2.850   7.046
15662SOL    HW165673   5.899   2.767   7.096
15662SOL    HW265674   5.977   2.911   7.107
15663SOL     OW65675   2.657   7.490   2.219
15663SOL    HW165676   2.729   7.444   2.167
15663SOL    HW265677   2.691   7.578   2.253
15664SOL     OW65678   3.875   2.789   7.509
15664SOL    HW165679   3.941   2.738   7.454
15664SOL    HW265680   3.783   2.774   7.474
15665SOL     OW65681   2.225   8.477   8.648
15665SOL    HW165682   2.196   8.530   8.728
15665SOL    HW265683   2.311   8.514   8.614
15666SOL     OW65684   4.384   2.828   6.489
15666SOL    HW165685   4.306   2.890   6.484
15666SOL    HW265686   4.434   2.830   6.402
15667SOL     OW65687   4.236   7.405   1.243
15667SOL    HW165688   4.254   7.382   1.339
15667SOL    HW265689   4.253   7.325   1.186
15668SOL     OW65690   6.143   2.942   0.738
15668SOL    HW165691   6.090   2.949   0.822
15668SOL    HW265692   6.101   2.873   0.678
15669SOL     OW65693   6.895   0.083   0.083
15669SOL    HW165694   6.963   0.127   0.024
15669SOL    HW265695   6.935  10.503   0.122
15670SOL     OW65696   5.701   0.439   7.033
15670SOL    HW165697   5.763   0.422   6.956
15670SOL    HW265698   5.746   0.413   7.118
15671SOL     OW65699   2.300   6.893   1.690
15671SOL    HW165700   2.233   6.898   1.764
15671SOL    HW265701   2.310   6.982   1.647
15672SOL     OW65702   3.711  10.404   0.098
15672SOL    HW165703   3.755  10.343   0.033
15672SOL    HW265704   3.746  10.497   0.086
15673SOL     OW65705   5.794   2.448   6.479
15673SOL    HW165706   5.875   2.403   6.440
15673SOL    HW265707   5.757   2.514   6.413
15674SOL     OW65708   3.331   1.935   2.121
15674SOL    HW165709   3.391   1.868   2.166
15674SOL    HW265710   3.313   2.011   2.183
15675SOL     OW65711   4.909   0.403   7.348
15675SOL    HW165712   4.869   0.311   7.340
15675SOL    HW265713   4.998   0.396   7.394
15676SOL     OW65714   4.231   9.504   0.632
15676SOL    HW165715   4.206   9.542   0.542
15676SOL    HW265716   4.296   9.565   0.677
15677SOL     OW65717   5.198   3.690   7.891
15677SOL    HW165718   5.294   3.689   7.866
15677SOL    HW265719   5.187   3.739   7.978
15678SOL     OW65720   9.039   1.363   0.489
15678SOL    HW165721   8.946   1.377   0.457
15678SOL    HW265722   9.102   1.362   0.411
15679SOL     OW65723   7.710   3.266   7.107
15679SOL    HW165724   7.773   3.280   7.183
15679SOL    HW265725   7.755   3.209   7.037
15680SOL     OW65726   4.796   2.871   0.325
15680SOL    HW165727   4.697   2.882   0.336
15680SOL    HW265728   4.819   2.876   0.228
15681SOL     OW65729   8.936   4.050   0.981
15681SOL    HW165730   8.977   4.001   0.904
15681SOL    HW265731   8.882   3.987   1.036
15682SOL     OW65732   7.046   9.019   6.734
15682SOL    HW165733   7.010   9.045   6.824
15682SOL    HW265734   7.145   9.006   6.740
15683SOL     OW65735   1.199   7.254   7.950
15683SOL    HW165736   1.238   7.240   8.041
15683SOL    HW265737   1.100   7.255   7.956
15684SOL     OW65738   4.935   2.075   0.505
15684SOL    HW165739   4.984   2.159   0.530
15684SOL    HW265740   4.994   1.996   0.521
15685SOL     OW65741   9.728   3.026   0.508
15685SOL    HW165742   9.688   2.983   0.589
15685SOL    HW265743   9.658   3.080   0.461
15686SOL     OW65744   1.292   8.976   1.465
15686SOL    HW165745   1.297   8.985   1.564
15686SOL    HW265746   1.262   9.063   1.425
15687SOL     OW65747   0.920   7.952   0.622
15687SOL    HW165748   0.996   7.909   0.573
15687SOL    HW265749   0.838   7.897   0.611
15688SOL     OW65750   9.351   6.491   1.236
15688SOL    HW165751   9.398   6.579   1.233
15688SOL    HW265752   9.403   6.423   1.184
15689SOL     OW65753   8.487   1.169   1.495
15689SOL    HW165754   8.500   1.244   1.430
15689SOL    HW265755   8.545   1.184   1.575
15690SOL     OW65756   6.317   4.203   7.220
15690SOL    HW165757   6.351   4.119   7.179
15690SOL    HW265758   6.244   4.241   7.163
15691SOL     OW65759   2.626   7.184   1.558
15691SOL    HW165760   2.683   7.267   1.561
15691SOL    HW265761   2.647   7.133   1.475
15692SOL     OW65762   2.743   7.150   7.680
15692SOL    HW165763   2.660   7.183   7.636
15692SOL    HW265764   2.769   7.061   7.640
15693SOL     OW65765   1.013   7.062   0.238
15693SOL    HW165766   0.991   7.140   0.298
15693SOL    HW265767   1.112   7.053   0.230
15694SOL     OW65768   6.510   6.500   0.603
15694SOL    HW165769   6.575   6.433   0.567
15694SOL    HW265770   6.446   6.526   0.531
15695SOL     OW65771   0.227   4.678   6.977
15695SOL    HW165772   0.279   4.666   7.061
15695SOL    HW265773   0.261   4.615   6.907
15696SOL     OW65774   2.150   7.298   7.073
15696SOL    HW165775   2.157   7.204   7.107
15696SOL    HW265776   2.096   7.353   7.137
15697SOL     OW65777   0.942   8.662   8.764
15697SOL    HW165778   0.926   8.598   0.057
15697SOL    HW265779   0.883   8.742   8.774
15698SOL     OW65780   8.028   8.447   7.032
15698SOL    HW165781   8.044   8.506   6.953
15698SOL    HW265782   8.115   8.406   7.061
15699SOL     OW65783   5.425  10.471   2.234
15699SOL    HW165784   5.422  10.441   2.330
15699SOL    HW265785   5.392   0.062   2.228
15700SOL     OW65786   7.606   6.926   7.275
15700SOL    HW165787   7.563   6.876   7.200
15700SOL    HW265788   7.547   6.921   7.356
15701SOL     OW65789   2.674   0.775   0.214
15701SOL    HW165790   2.672   0.675   0.221
15701SOL    HW265791   2.613   0.815   0.283
15702SOL     OW65792   3.027   7.498   8.701
15702SOL    HW165793   3.089   7.561   8.748
15702SOL    HW265794   3.039   7.508   8.602
15703SOL     OW65795   0.666   5.226   0.134
15703SOL    HW165796   0.631   5.206   0.225
15703SOL    HW265797   0.591   5.254   0.074
15704SOL     OW65798   6.810   2.488   0.228
15704SOL    HW165799   6.765   2.576   0.243
15704SOL    HW265800   6.907   2.494   0.251
15705SOL     OW65801   4.407   9.637   7.877
15705SOL    HW165802   4.462   9.715   7.848
15705SOL    HW265803   4.345   9.610   7.803
15706SOL     OW65804   9.083  10.185   2.481
15706SOL    HW165805   9.160  10.149   2.533
15706SOL    HW265806   9.043  10.263   2.530
15707SOL     OW65807   1.993   5.980   7.121
15707SOL    HW165808   2.008   6.041   7.043
15707SOL    HW265809   1.934   6.026   7.188
15708SOL     OW65810   8.363   0.210   7.568
15708SOL    HW165811   8.379   0.203   7.469
15708SOL    HW265812   8.407   0.134   7.614
15709SOL     OW65813   4.005   1.334   0.475
15709SOL    HW165814   4.068   1.276   0.526
15709SOL    HW265815   3.998   1.302   0.381
15710SOL     OW65816   8.323   3.127   7.287
15710SOL    HW165817   8.232   3.110   7.324
15710SOL    HW265818   8.316   3.186   7.206
15711SOL     OW65819   9.641   9.474   0.929
15711SOL    HW165820   9.618   9.439   1.020
15711SOL    HW265821   9.560   9.469   0.871
15712SOL     OW65822   6.572   5.878   7.769
15712SOL    HW165823   6.500   5.813   7.745
15712SOL    HW265824   6.544   5.931   7.849
15713SOL     OW65825   4.365   9.193   7.710
15713SOL    HW165826   4.360   9.181   7.611
15713SOL    HW265827   4.460   9.206   7.737
15714SOL     OW65828   8.383  10.092   1.665
15714SOL    HW165829   8.407  10.059   1.756
15714SOL    HW265830   8.426  10.181   1.650
15715SOL     OW65831   4.966   1.508   8.461
15715SOL    HW165832   4.955   1.458   8.548
15715SOL    HW265833   4.888   1.488   8.401
15716SOL     OW65834   3.488   0.809   1.187
15716SOL    HW165835   3.423   0.818   1.262
15716SOL    HW265836   3.444   0.839   1.102
15717SOL     OW65837   3.224   8.124   8.494
15717SOL    HW165838   3.303   8.083   8.539
15717SOL    HW265839   3.254   8.190   8.426
15718SOL     OW65840   6.443   5.305   7.552
15718SOL    HW165841   6.419   5.221   7.504
15718SOL    HW265842   6.543   5.313   7.558
15719SOL     OW65843   1.057   5.683   6.568
15719SOL    HW165844   1.103   5.615   6.625
15719SOL    HW265845   1.125   5.731   6.513
15720SOL     OW65846   8.006   7.136   0.836
15720SOL    HW165847   8.082   7.198   0.816
15720SOL    HW265848   8.003   7.064   0.767
15721SOL     OW65849   4.831   1.025   7.217
15721SOL    HW165850   4.888   0.946   7.240
15721SOL    HW265851   4.820   1.030   7.118
15722SOL     OW65852   4.126   2.118   7.682
15722SOL    HW165853   4.038   2.147   7.645
15722SOL    HW265854   4.182   2.199   7.702
15723SOL     OW65855   9.998   2.228   6.806
15723SOL    HW165856   9.994   2.315   6.757
15723SOL    HW265857   9.905   2.193   6.818
15724SOL     OW65858   7.687   6.505   0.835
15724SOL    HW165859   7.727   6.596   0.822
15724SOL    HW265860   7.590   6.507   0.811
15725SOL     OW65861   6.352   8.003   1.049
15725SOL    HW165862   6.451   8.008   1.056
15725SOL    HW265863   6.325   8.006   0.953
15726SOL     OW65864   8.601   5.127   8.487
15726SOL    HW165865   8.555   5.191   8.547
15726SOL    HW265866   8.593   5.034   8.524
15727SOL     OW65867   3.140   1.456   7.623
15727SOL    HW165868   3.142   1.358   7.599
15727SOL    HW265869   3.083   1.469   7.704
15728SOL     OW65870   4.502   2.852   8.388
15728SOL    HW165871   4.503   2.753   8.372
15728SOL    HW265872   4.412   2.889   8.364
15729SOL     OW65873   8.671   3.451   8.611
15729SOL    HW165874   8.674   3.353   8.591
15729SOL    HW265875   8.747   3.496   8.565
15730SOL     OW65876   0.629   0.599   6.946
15730SOL    HW165877   0.593   0.636   6.861
15730SOL    HW265878   0.716   0.553   6.928
15731SOL     OW65879   0.998   2.013   8.264
15731SOL    HW165880   0.973   1.977   8.354
15731SOL    HW265881   1.097   2.024   8.259
15732SOL     OW65882   6.669   0.602   1.281
15732SOL    HW165883   6.739   0.636   1.344
15732SOL    HW265884   6.676   0.652   1.195
15733SOL     OW65885   0.639   0.084   0.045
15733SOL    HW165886   0.587   0.152   8.775
15733SOL    HW265887   0.613  10.496   0.015
15734SOL     OW65888   1.764   8.364   1.197
15734SOL    HW165889   1.748   8.347   1.295
15734SOL    HW265890   1.809   8.452   1.186
15735SOL     OW65891   7.955   5.780   1.383
15735SOL    HW165892   7.987   5.705   1.442
15735SOL    HW265893   8.013   5.860   1.398
15736SOL     OW65894   8.280   2.785   8.409
15736SOL    HW165895   8.376   2.768   8.389
15736SOL    HW265896   8.244   2.713   8.469
15737SOL     OW65897   6.589   0.301   1.742
15737SOL    HW165898   6.655   0.372   1.767
15737SOL    HW265899   6.497   0.333   1.764
15738SOL     OW65900   8.758   7.868   1.290
15738SOL    HW165901   8.727   7.958   1.320
15738SOL    HW265902   8.686   7.824   1.237
15739SOL     OW65903   2.732   1.610   1.109
15739SOL    HW165904   2.783   1.533   1.071
15739SOL    HW265905   2.715   1.677   1.037
15740SOL     OW65906   5.535   6.286   7.012
15740SOL    HW165907   5.555   6.193   6.983
15740SOL    HW265908   5.607   6.347   6.980
15741SOL     OW65909   6.310   7.429   2.018
15741SOL    HW165910   6.259   7.429   1.932
15741SOL    HW265911   6.296   7.516   2.065
15742SOL     OW65912   4.064   6.689   7.908
15742SOL    HW165913   4.009   6.621   7.957
15742SOL    HW265914   4.159   6.658   7.905
15743SOL     OW65915   0.219   6.825   8.573
15743SOL    HW165916   0.279   6.745   8.565
15743SOL    HW265917   0.126   6.799   8.552
15744SOL     OW65918   1.925   4.505   0.317
15744SOL    HW165919   1.859   4.524   0.244
15744SOL    HW265920   1.982   4.427   0.290
15745SOL     OW65921   7.612   5.871   1.153
15745SOL    HW165922   7.621   5.833   1.245
15745SOL    HW265923   7.528   5.837   1.112
15746SOL     OW65924   8.100   5.085   0.401
15746SOL    HW165925   8.031   5.034   0.350
15746SOL    HW265926   8.054   5.150   0.462
15747SOL     OW65927   6.834   1.490   1.090
15747SOL    HW165928   6.830   1.539   1.003
15747SOL    HW265929   6.898   1.537   1.151
15748SOL     OW65930   7.871   6.768   1.720
15748SOL    HW165931   7.873   6.868   1.724
15748SOL    HW265932   7.918   6.731   1.800
15749SOL     OW65933   6.619   0.913   6.919
15749SOL    HW165934   6.539   0.949   6.967
15749SOL    HW265935   6.589   0.860   6.840
15750SOL     OW65936   9.332   0.012   0.978
15750SOL    HW165937   9.282   0.053   0.902
15750SOL    HW265938   9.430   0.014   0.960
15751SOL     OW65939   8.233   8.033   1.187
15751SOL    HW165940   8.308   8.077   1.138
15751SOL    HW265941   8.227   7.937   1.161
15752SOL     OW65942   7.242   4.039   6.973
15752SOL    HW165943   7.151   3.999   6.968
15752SOL    HW265944   7.250   4.110   6.903
15753SOL     OW65945   8.179   7.851   1.942
15753SOL    HW165946   8.083   7.877   1.931
15753SOL    HW265947   8.188   7.786   2.017
15754SOL     OW65948   3.053   6.403   7.579
15754SOL    HW165949   3.050   6.320   7.524
15754SOL    HW265950   3.132   6.458   7.553
15755SOL     OW65951   0.207   3.101   6.414
15755SOL    HW165952   0.159   3.039   6.476
15755SOL    HW265953   0.176   3.086   6.320
15756SOL     OW65954   3.883  10.115   7.927
15756SOL    HW165955   3.936  10.073   8.001
15756SOL    HW265956   3.892  10.215   7.933
15757SOL     OW65957   5.492   0.176   7.143
15757SOL    HW165958   5.394   0.192   7.126
15757SOL    HW265959   5.529   0.249   7.200
15758SOL     OW65960   8.821   7.915   0.244
15758SOL    HW165961   8.895   7.954   0.299
15758SOL    HW265962   8.734   7.926   0.293
15759SOL     OW65963   3.023   1.899   1.458
15759SOL    HW165964   3.009   1.884   1.556
15759SOL    HW265965   2.944   1.945   1.419
15760SOL     OW65966   3.134   3.799   0.408
15760SOL    HW165967   3.163   3.796   0.312
15760SOL    HW265968   3.142   3.709   0.449
15761SOL     OW65969   8.630   0.919   8.480
15761SOL    HW165970   8.673   1.006   8.504
15761SOL    HW265971   8.548   0.936   8.425
15762SOL     OW65972   8.781   3.188   1.062
15762SOL    HW165973   8.793   3.095   1.028
15762SOL    HW265974   8.688   3.199   1.097
15763SOL     OW65975   0.393   9.122   1.180
15763SOL    HW165976   0.486   9.123   1.219
15763SOL    HW265977   0.327   9.147   1.251
15764SOL     OW65978   0.224   0.604   6.835
15764SOL    HW165979   0.131   0.591   6.800
15764SOL    HW265980   0.220   0.660   6.918
15765SOL     OW65981   4.647   7.203   0.879
15765SOL    HW165982   4.631   7.141   0.802
15765SOL    HW265983   4.609   7.164   0.962
15766SOL     OW65984   7.820   1.170   6.534
15766SOL    HW165985   7.760   1.249   6.521
15766SOL    HW265986   7.858   1.143   6.446
15767SOL     OW65987   2.610   8.519   1.141
15767SOL    HW165988   2.666   8.478   1.068
15767SOL    HW265989   2.669   8.571   1.203
15768SOL     OW65990   1.634   0.800   0.290
15768SOL    HW165991   1.677   0.777   0.202
15768SOL    HW265992   1.582   0.721   0.323
15769SOL     OW65993   7.198   0.960   1.479
15769SOL    HW165994   7.123   0.968   1.414
15769SOL    HW265995   7.213   1.049   1.523
15770SOL     OW65996   0.069   0.058   7.747
15770SOL    HW165997   0.095   0.031   7.839
15770SOL    HW265998   0.009   0.137   7.751
15771SOL     OW65999   8.624  10.406   0.421
15771SOL    HW166000   8.679  10.328   0.449
15771SOL    HW266001   8.578  10.444   0.501
15772SOL     OW66002   8.858   7.476   8.048
15772SOL    HW166003   8.822   7.484   8.141
15772SOL    HW266004   8.808   7.405   7.999
15773SOL     OW66005   9.196   8.555   6.564
15773SOL    HW166006   9.247   8.637   6.540
15773SOL    HW266007   9.210   8.486   6.493
15774SOL     OW66008   9.129   1.225   2.170
15774SOL    HW166009   9.137   1.292   2.244
15774SOL    HW266010   9.068   1.260   2.099
15775SOL     OW66011   2.691   3.124   7.853
15775SOL    HW166012   2.614   3.153   7.910
15775SOL    HW266013   2.776   3.128   7.906
15776SOL     OW66014   3.902   3.187   7.117
15776SOL    HW166015   3.919   3.169   7.214
15776SOL    HW266016   3.935   3.279   7.094
15777SOL     OW66017   4.943   7.538   0.237
15777SOL    HW166018   5.009   7.499   0.172
15777SOL    HW266019   4.907   7.466   0.296
15778SOL     OW66020   3.631   4.289   6.156
15778SOL    HW166021   3.594   4.374   6.118
15778SOL    HW266022   3.600   4.278   6.250
15779SOL     OW66023   7.120   5.339   8.748
15779SOL    HW166024   7.036   5.362   8.700
15779SOL    HW266025   7.198   5.382   8.702
15780SOL     OW66026   0.842   6.624   8.048
15780SOL    HW166027   0.762   6.582   8.091
15780SOL    HW266028   0.826   6.722   8.037
15781SOL     OW66029   7.665   4.745   6.979
15781SOL    HW166030   7.737   4.803   7.018
15781SOL    HW266031   7.627   4.788   6.898
15782SOL     OW66032   1.505   3.143   0.851
15782SOL    HW166033   1.600   3.137   0.883
15782SOL    HW266034   1.455   3.062   0.881
15783SOL     OW66035   5.203  10.062   6.633
15783SOL    HW166036   5.156  10.129   6.575
15783SOL    HW266037   5.162  10.061   6.724
15784SOL     OW66038   8.331   3.678   8.728
15784SOL    HW166039   8.348   3.747   0.016
15784SOL    HW266040   8.233   3.659   8.722
15785SOL     OW66041   0.334   8.488   6.134
15785SOL    HW166042   0.393   8.468   6.212
15785SOL    HW266043   0.362   8.574   6.092
15786SOL     OW66044   8.566   8.984   6.825
15786SOL    HW166045   8.508   8.971   6.905
15786SOL    HW266046   8.566   8.902   6.769
15787SOL     OW66047   5.015   5.402   8.738
15787SOL    HW166048   4.947   5.425   8.668
15787SOL    HW266049   5.047   5.486   0.001
15788SOL     OW66050   7.103   7.083   8.160
15788SOL    HW166051   7.131   7.178   8.165
15788SOL    HW266052   7.010   7.073   8.195
15789SOL     OW66053   9.146   7.070   7.707
15789SOL    HW166054   9.068   7.097   7.651
15789SOL    HW266055   9.218   7.033   7.648
15790SOL     OW66056   2.223   4.353   6.194
15790SOL    HW166057   2.138   4.343   6.142
15790SOL    HW266058   2.275   4.268   6.190
15791SOL     OW66059   0.534   7.019   6.356
15791SOL    HW166060   0.497   7.015   6.263
15791SOL    HW266061   0.633   7.027   6.353
15792SOL     OW66062   7.281   9.608   2.142
15792SOL    HW166063   7.369   9.622   2.188
15792SOL    HW266064   7.297   9.582   2.047
15793SOL     OW66065   0.593   8.976   6.224
15793SOL    HW166066   0.609   9.075   6.228
15793SOL    HW266067   0.500   8.959   6.192
15794SOL     OW66068   3.201   0.561   7.549
15794SOL    HW166069   3.120   0.503   7.553
15794SOL    HW266070   3.220   0.586   7.454
15795SOL     OW66071   7.192  10.009   2.461
15795SOL    HW166072   7.100  10.045   2.476
15795SOL    HW266073   7.258  10.057   2.518
15796SOL     OW66074   0.384   0.490   0.672
15796SOL    HW166075   0.475   0.517   0.639
15796SOL    HW266076   0.331   0.572   0.694
15797SOL     OW66077   9.867   9.627   1.927
15797SOL    HW166078   9.777   9.601   1.961
15797SOL    HW266079   9.934   9.558   1.955
15798SOL     OW66080   8.618   7.492   1.409
15798SOL    HW166081   8.704   7.541   1.393
15798SOL    HW266082   8.639   7.401   1.446
15799SOL     OW66083   4.315   4.916   6.746
15799SOL    HW166084   4.325   4.990   6.680
15799SOL    HW266085   4.266   4.840   6.704
15800SOL     OW66086   9.164   6.110   0.638
15800SOL    HW166087   9.207   6.023   0.616
15800SOL    HW266088   9.070   6.110   0.603
15801SOL     OW66089   3.691  10.274   7.359
15801SOL    HW166090   3.764  10.324   7.405
15801SOL    HW266091   3.627  10.238   7.427
15802SOL     OW66092   4.099   4.163   7.904
15802SOL    HW166093   4.194   4.168   7.936
15802SOL    HW266094   4.039   4.207   7.970
15803SOL     OW66095   6.540   2.349   1.672
15803SOL    HW166096   6.512   2.443   1.689
15803SOL    HW266097   6.467   2.301   1.623
15804SOL     OW66098   4.616   0.131   8.090
15804SOL    HW166099   4.606   0.046   8.141
15804SOL    HW266100   4.611   0.208   8.154
15805SOL     OW66101   1.055   6.242   7.051
15805SOL    HW166102   0.978   6.306   7.053
15805SOL    HW266103   1.022   6.150   7.031
15806SOL     OW66104   9.088   7.640   8.366
15806SOL    HW166105   9.105   7.618   8.270
15806SOL    HW266106   9.100   7.558   8.422
15807SOL     OW66107   8.862   6.222   8.043
15807SOL    HW166108   8.924   6.161   8.092
15807SOL    HW266109   8.876   6.316   8.075
15808SOL     OW66110   1.984   6.924   7.552
15808SOL    HW166111   1.991   7.003   7.491
15808SOL    HW266112   1.887   6.903   7.568
15809SOL     OW66113   7.539   3.442   6.990
15809SOL    HW166114   7.555   3.427   6.892
15809SOL    HW266115   7.601   3.384   7.043
15810SOL     OW66116   2.117   9.181   1.164
15810SOL    HW166117   2.067   9.121   1.102
15810SOL    HW266118   2.067   9.188   1.250
15811SOL     OW66119   6.168   1.123   7.111
15811SOL    HW166120   6.195   1.163   7.199
15811SOL    HW266121   6.074   1.090   7.117
15812SOL     OW66122   2.663   9.927   6.517
15812SOL    HW166123   2.628   9.839   6.547
15812SOL    HW266124   2.625   9.949   6.427
15813SOL     OW66125   1.628   9.012   7.325
15813SOL    HW166126   1.682   9.087   7.288
15813SOL    HW266127   1.535   9.016   7.287
15814SOL     OW66128   9.517   3.801   8.196
15814SOL    HW166129   9.581   3.836   8.128
15814SOL    HW266130   9.425   3.798   8.156
15815SOL     OW66131   3.083   4.363   6.879
15815SOL    HW166132   3.059   4.383   6.784
15815SOL    HW266133   3.012   4.307   6.920
15816SOL     OW66134   4.427   3.180   1.508
15816SOL    HW166135   4.363   3.119   1.553
15816SOL    HW266136   4.514   3.133   1.493
15817SOL     OW66137   3.340   2.281   7.618
15817SOL    HW166138   3.257   2.250   7.664
15817SOL    HW266139   3.369   2.213   7.552
15818SOL     OW66140   5.974   2.612   8.414
15818SOL    HW166141   5.888   2.613   8.362
15818SOL    HW266142   6.042   2.667   8.367
15819SOL     OW66143   6.993   2.401   1.839
15819SOL    HW166144   7.089   2.425   1.853
15819SOL    HW266145   6.957   2.360   1.923
15820SOL     OW66146   7.922   8.479   1.460
15820SOL    HW166147   7.840   8.537   1.467
15820SOL    HW266148   7.898   8.396   1.410
15821SOL     OW66149   7.572   9.321   1.392
15821SOL    HW166150   7.645   9.268   1.349
15821SOL    HW266151   7.546   9.396   1.332
15822SOL     OW66152   9.578   3.433   8.075
15822SOL    HW166153   9.619   3.484   8.152
15822SOL    HW266154   9.491   3.393   8.104
15823SOL     OW66155   8.549   1.118   2.466
15823SOL    HW166156   8.631   1.170   2.443
15823SOL    HW266157   8.468   1.176   2.452
15824SOL     OW66158   8.127   1.303   7.351
15824SOL    HW166159   8.216   1.338   7.378
15824SOL    HW266160   8.138   1.214   7.307
15825SOL     OW66161   1.588   2.245   0.936
15825SOL    HW166162   1.563   2.316   1.002
15825SOL    HW266163   1.565   2.276   0.844
15826SOL     OW66164   4.339   4.648   0.766
15826SOL    HW166165   4.381   4.559   0.750
15826SOL    HW266166   4.273   4.667   0.694
15827SOL     OW66167   7.675   1.313   0.925
15827SOL    HW166168   7.627   1.314   1.013
15827SOL    HW266169   7.748   1.245   0.926
15828SOL     OW66170   5.622   8.234   0.312
15828SOL    HW166171   5.613   8.174   0.391
15828SOL    HW266172   5.669   8.186   0.238
15829SOL     OW66173   8.159   4.487   8.256
15829SOL    HW166174   8.066   4.481   8.293
15829SOL    HW266175   8.181   4.403   8.207
15830SOL     OW66176   3.608   2.423   1.037
15830SOL    HW166177   3.550   2.344   1.057
15830SOL    HW266178   3.555   2.507   1.047
15831SOL     OW66179   2.183  10.379   1.087
15831SOL    HW166180   2.232  10.465   1.075
15831SOL    HW266181   2.234  10.320   1.149
15832SOL     OW66182   1.240   2.892   6.468
15832SOL    HW166183   1.189   2.884   6.382
15832SOL    HW266184   1.336   2.910   6.448
15833SOL     OW66185   8.121   1.724   1.556
15833SOL    HW166186   8.035   1.707   1.506
15833SOL    HW266187   8.144   1.643   1.609
15834SOL     OW66188   4.937   5.864   7.403
15834SOL    HW166189   4.928   5.942   7.342
15834SOL    HW266190   4.863   5.864   7.470
15835SOL     OW66191   7.076   6.553   1.636
15835SOL    HW166192   6.989   6.604   1.631
15835SOL    HW266193   7.094   6.509   1.548
15836SOL     OW66194   6.732   9.415   1.561
15836SOL    HW166195   6.647   9.369   1.585
15836SOL    HW266196   6.712   9.507   1.526
15837SOL     OW66197   9.644   7.329   8.387
15837SOL    HW166198   9.700   7.272   8.447
15837SOL    HW266199   9.611   7.274   8.310
15838SOL     OW66200   9.960   8.233   7.674
15838SOL    HW166201   9.903   8.315   7.666
15838SOL    HW266202   9.923   8.173   7.744
15839SOL     OW66203   2.994   9.264   7.258
15839SOL    HW166204   3.032   9.219   7.339
15839SOL    HW266205   3.063   9.325   7.218
15840SOL     OW66206   9.455   9.674   6.772
15840SOL    HW166207   9.491   9.604   6.833
15840SOL    HW266208   9.356   9.680   6.782
15841SOL     OW66209   6.168   2.811   7.438
15841SOL    HW166210   6.211   2.804   7.348
15841SOL    HW266211   6.141   2.906   7.455
15842SOL     OW66212   2.999   6.325   6.637
15842SOL    HW166213   3.027   6.363   6.725
15842SOL    HW266214   2.932   6.252   6.652
15843SOL     OW66215   8.815   9.196   7.310
15843SOL    HW166216   8.734   9.218   7.254
15843SOL    HW266217   8.820   9.259   7.387
15844SOL     OW66218   7.240   6.992   7.935
15844SOL    HW166219   7.242   7.064   7.865
15844SOL    HW266220   7.189   7.025   8.015
15845SOL     OW66221   7.971   3.703   7.436
15845SOL    HW166222   7.904   3.685   7.363
15845SOL    HW266223   8.014   3.792   7.420
15846SOL     OW66224   5.917   1.202   0.815
15846SOL    HW166225   5.923   1.137   0.739
15846SOL    HW266226   5.952   1.291   0.786
15847SOL     OW66227   4.880   7.124   6.952
15847SOL    HW166228   4.784   7.108   6.927
15847SOL    HW266229   4.898   7.222   6.951
15848SOL     OW66230   5.748   3.448   0.350
15848SOL    HW166231   5.683   3.486   0.415
15848SOL    HW266232   5.723   3.354   0.327
15849SOL     OW66233   0.806   5.766   1.026
15849SOL    HW166234   0.781   5.767   0.930
15849SOL    HW266235   0.877   5.835   1.043
15850SOL     OW66236   3.559   0.147   6.744
15850SOL    HW166237   3.625   0.132   6.670
15850SOL    HW266238   3.496   0.220   6.717
15851SOL     OW66239   7.340  10.456   8.441
15851SOL    HW166240   7.253  10.430   8.399
15851SOL    HW266241   7.346  10.417   8.533
15852SOL     OW66242   3.982   3.854   0.651
15852SOL    HW166243   3.912   3.921   0.677
15852SOL    HW266244   4.068   3.902   0.633
15853SOL     OW66245   4.288   7.920   7.065
15853SOL    HW166246   4.226   7.944   7.140
15853SOL    HW266247   4.237   7.922   6.979
15854SOL     OW66248   1.026  10.406   8.254
15854SOL    HW166249   1.091  10.479   8.230
15854SOL    HW266250   1.076  10.321   8.270
15855SOL     OW66251   6.952   9.753   0.664
15855SOL    HW166252   6.893   9.684   0.624
15855SOL    HW266253   7.011   9.791   0.593
15856SOL     OW66254   4.197   3.606   6.772
15856SOL    HW166255   4.136   3.550   6.717
15856SOL    HW266256   4.282   3.623   6.722
15857SOL     OW66257   5.642   8.804   7.632
15857SOL    HW166258   5.614   8.861   7.554
15857SOL    HW266259   5.717   8.849   7.680
15858SOL     OW66260   9.928   8.174   1.479
15858SOL    HW166261   9.906   8.146   1.385
15858SOL    HW266262  10.026   8.163   1.494
15859SOL     OW66263   7.291   1.287   7.676
15859SOL    HW166264   7.386   1.279   7.646
15859SOL    HW266265   7.285   1.267   7.774
15860SOL     OW66266   4.797   4.684   7.591
15860SOL    HW166267   4.788   4.585   7.583
15860SOL    HW266268   4.712   4.728   7.562
15861SOL     OW66269   3.347   7.299   6.318
15861SOL    HW166270   3.304   7.312   6.407
15861SOL    HW266271   3.355   7.387   6.271
15862SOL     OW66272   7.909   8.470   6.421
15862SOL    HW166273   7.856   8.547   6.384
15862SOL    HW266274   7.847   8.395   6.443
15863SOL     OW66275   9.109   8.785   7.721
15863SOL    HW166276   9.030   8.741   7.763
15863SOL    HW266277   9.174   8.811   7.793
15864SOL     OW66278   4.372   9.956   6.094
15864SOL    HW166279   4.468   9.933   6.078
15864SOL    HW266280   4.326   9.970   6.007
15865SOL     OW66281   6.107   3.996   0.472
15865SOL    HW166282   6.014   4.029   0.457
15865SOL    HW266283   6.169   4.044   0.409
15866SOL     OW66284   6.264   3.760   1.549
15866SOL    HW166285   6.358   3.765   1.582
15866SOL    HW266286   6.260   3.698   1.470
15867SOL     OW66287   1.482   4.202   0.441
15867SOL    HW166288   1.397   4.152   0.458
15867SOL    HW266289   1.479   4.243   0.349
15868SOL     OW66290   8.177   9.445   0.244
15868SOL    HW166291   8.126   9.531   0.242
15868SOL    HW266292   8.112   9.369   0.247
15869SOL     OW66293   1.867   0.194   6.231
15869SOL    HW166294   1.896   0.110   6.275
15869SOL    HW266295   1.946   0.238   6.187
15870SOL     OW66296   6.853   1.616   0.852
15870SOL    HW166297   6.920   1.568   0.795
15870SOL    HW266298   6.809   1.688   0.797
15871SOL     OW66299   1.252   6.383   7.787
15871SOL    HW166300   1.274   6.304   7.730
15871SOL    HW266301   1.176   6.433   7.747
15872SOL     OW66302   8.788   2.660   6.920
15872SOL    HW166303   8.836   2.745   6.942
15872SOL    HW266304   8.699   2.681   6.878
15873SOL     OW66305   5.084   2.968   1.554
15873SOL    HW166306   5.108   2.871   1.552
15873SOL    HW266307   5.053   2.993   1.646
15874SOL     OW66308   9.792   7.547   6.852
15874SOL    HW166309   9.808   7.645   6.852
15874SOL    HW266310   9.705   7.527   6.808
15875SOL     OW66311   7.515   5.560   1.454
15875SOL    HW166312   7.580   5.631   1.430
15875SOL    HW266313   7.488   5.570   1.550
15876SOL     OW66314   6.467   3.462   7.523
15876SOL    HW166315   6.489   3.539   7.463
15876SOL    HW266316   6.491   3.376   7.477
15877SOL     OW66317   1.747   6.419   1.713
15877SOL    HW166318   1.663   6.457   1.752
15877SOL    HW266319   1.756   6.447   1.618
15878SOL     OW66320   9.336  10.048   8.283
15878SOL    HW166321   9.432  10.074   8.277
15878SOL    HW266322   9.279  10.129   8.267
15879SOL     OW66323   6.688   4.578   0.339
15879SOL    HW166324   6.761   4.515   0.312
15879SOL    HW266325   6.713   4.624   0.424
15880SOL     OW66326   8.376   8.160   7.570
15880SOL    HW166327   8.387   8.200   7.479
15880SOL    HW266328   8.420   8.070   7.572
15881SOL     OW66329   8.462   3.932   7.849
15881SOL    HW166330   8.442   3.958   7.754
15881SOL    HW266331   8.543   3.982   7.880
15882SOL     OW66332   6.181   2.284   0.774
15882SOL    HW166333   6.273   2.252   0.754
15882SOL    HW266334   6.116   2.209   0.762
15883SOL     OW66335   6.503   4.248   1.247
15883SOL    HW166336   6.486   4.178   1.177
15883SOL    HW266337   6.497   4.339   1.205
15884SOL     OW66338   3.231   8.655   1.284
15884SOL    HW166339   3.219   8.713   1.364
15884SOL    HW266340   3.201   8.705   1.202
15885SOL     OW66341   3.162   5.028   2.081
15885SOL    HW166342   3.072   5.015   2.121
15885SOL    HW266343   3.199   5.117   2.109
15886SOL     OW66344   7.051   7.902   7.762
15886SOL    HW166345   7.005   7.864   7.842
15886SOL    HW266346   7.070   7.828   7.697
15887SOL     OW66347   3.804   3.483   7.794
15887SOL    HW166348   3.828   3.571   7.834
15887SOL    HW266349   3.812   3.488   7.694
15888SOL     OW66350   3.543   5.351   0.887
15888SOL    HW166351   3.554   5.447   0.863
15888SOL    HW266352   3.549   5.294   0.805
15889SOL     OW66353   2.728   6.069   7.681
15889SOL    HW166354   2.734   6.121   7.595
15889SOL    HW266355   2.645   6.012   7.680
15890SOL     OW66356   7.093   1.558   8.297
15890SOL    HW166357   7.173   1.588   8.348
15890SOL    HW266358   7.018   1.540   8.360
15891SOL     OW66359   2.337   5.266   7.622
15891SOL    HW166360   2.301   5.261   7.528
15891SOL    HW266361   2.437   5.267   7.619
15892SOL     OW66362   3.576   6.679   7.645
15892SOL    HW166363   3.627   6.747   7.698
15892SOL    HW266364   3.513   6.630   7.705
15893SOL     OW66365   6.190   1.888   6.726
15893SOL    HW166366   6.185   1.825   6.648
15893SOL    HW266367   6.184   1.836   6.811
15894SOL     OW66368   2.802   6.027   0.503
15894SOL    HW166369   2.833   5.937   0.472
15894SOL    HW266370   2.878   6.075   0.547
15895SOL     OW66371   0.646   7.970   8.527
15895SOL    HW166372   0.700   8.054   8.537
15895SOL    HW266373   0.577   7.966   8.599
15896SOL     OW66374   3.054   4.707   6.706
15896SOL    HW166375   2.972   4.691   6.761
15896SOL    HW266376   3.028   4.742   6.616
15897SOL     OW66377   1.844   4.265   6.938
15897SOL    HW166378   1.748   4.262   6.965
15897SOL    HW266379   1.885   4.175   6.952
15898SOL     OW66380   1.855   5.360   1.129
15898SOL    HW166381   1.945   5.386   1.093
15898SOL    HW266382   1.836   5.265   1.106
15899SOL     OW66383   2.500   6.229   1.740
15899SOL    HW166384   2.413   6.277   1.729
15899SOL    HW266385   2.527   6.232   1.836
15900SOL     OW66386   6.675   3.789   1.293
15900SOL    HW166387   6.619   3.708   1.276
15900SOL    HW266388   6.680   3.845   1.210
15901SOL     OW66389   0.448   5.329   1.434
15901SOL    HW166390   0.521   5.383   1.392
15901SOL    HW266391   0.422   5.370   1.521
15902SOL     OW66392   1.518   1.376   8.041
15902SOL    HW166393   1.526   1.292   8.095
15902SOL    HW266394   1.609   1.402   8.008
15903SOL     OW66395   3.224   8.911   7.410
15903SOL    HW166396   3.170   8.991   7.434
15903SOL    HW266397   3.319   8.938   7.392
15904SOL     OW66398   4.401   8.851   0.440
15904SOL    HW166399   4.318   8.810   0.402
15904SOL    HW266400   4.417   8.815   0.532
15905SOL     OW66401   0.524   8.361   0.820
15905SOL    HW166402   0.497   8.451   0.853
15905SOL    HW266403   0.593   8.323   0.882
15906SOL     OW66404   6.773   4.116   7.522
15906SOL    HW166405   6.804   4.041   7.463
15906SOL    HW266406   6.814   4.202   7.491
15907SOL     OW66407   9.132   3.156   1.278
15907SOL    HW166408   9.178   3.088   1.336
15907SOL    HW266409   9.176   3.245   1.291
15908SOL     OW66410   1.013   9.838   1.095
15908SOL    HW166411   0.929   9.828   1.147
15908SOL    HW266412   1.090   9.849   1.157
15909SOL     OW66413   6.343   2.126   2.311
15909SOL    HW166414   6.246   2.141   2.289
15909SOL    HW266415   6.393   2.212   2.301
15910SOL     OW66416   7.774   5.762   8.203
15910SOL    HW166417   7.699   5.828   8.214
15910SOL    HW266418   7.769   5.721   8.113
15911SOL     OW66419   6.883   3.511   6.942
15911SOL    HW166420   6.821   3.466   7.007
15911SOL    HW266421   6.967   3.536   6.990
15912SOL     OW66422   2.432   3.170   0.476
15912SOL    HW166423   2.465   3.130   0.562
15912SOL    HW266424   2.453   3.267   0.475
15913SOL     OW66425   7.923   1.631   8.485
15913SOL    HW166426   7.842   1.679   8.449
15913SOL    HW266427   7.951   1.674   8.571
15914SOL     OW66428   6.314   0.804   8.599
15914SOL    HW166429   6.388   0.782   8.536
15914SOL    HW266430   6.331   0.761   8.688
15915SOL     OW66431   9.852   9.139   2.296
15915SOL    HW166432   9.806   9.060   2.336
15915SOL    HW266433   9.791   9.218   2.298
15916SOL     OW66434   7.715   8.754   1.880
15916SOL    HW166435   7.616   8.753   1.893
15916SOL    HW266436   7.761   8.737   1.967
15917SOL     OW66437   5.379   0.678   6.675
15917SOL    HW166438   5.448   0.616   6.638
15917SOL    HW266439   5.294   0.629   6.690
15918SOL     OW66440   8.612   5.035   0.201
15918SOL    HW166441   8.528   5.081   0.172
15918SOL    HW266442   8.671   5.020   0.121
15919SOL     OW66443   7.734   7.840   6.937
15919SOL    HW166444   7.738   7.746   6.972
15919SOL    HW266445   7.734   7.904   7.013
15920SOL     OW66446   3.510   7.263   6.818
15920SOL    HW166447   3.436   7.325   6.794
15920SOL    HW266448   3.477   7.195   6.883
15921SOL     OW66449   4.219   0.111   1.163
15921SOL    HW166450   4.271   0.063   1.234
15921SOL    HW266451   4.240   0.072   1.073
15922SOL     OW66452   5.389   2.495   1.055
15922SOL    HW166453   5.335   2.578   1.041
15922SOL    HW266454   5.455   2.511   1.128
15923SOL     OW66455   3.402   9.098   0.176
15923SOL    HW166456   3.445   9.042   0.247
15923SOL    HW266457   3.436   9.192   0.182
15924SOL     OW66458   1.672   8.233   0.823
15924SOL    HW166459   1.615   8.156   0.796
15924SOL    HW266460   1.747   8.201   0.881
15925SOL     OW66461   3.026   2.312   8.432
15925SOL    HW166462   3.099   2.364   8.477
15925SOL    HW266463   2.984   2.250   8.499
15926SOL     OW66464   4.592   1.316   6.469
15926SOL    HW166465   4.551   1.387   6.410
15926SOL    HW266466   4.598   1.230   6.418
15927SOL     OW66467   0.045   8.183   1.545
15927SOL    HW166468   0.027   8.143   1.635
15927SOL    HW266469   0.142   8.207   1.538
15928SOL     OW66470   4.848   6.937   1.613
15928SOL    HW166471   4.937   6.892   1.615
15928SOL    HW266472   4.809   6.940   1.705
15929SOL     OW66473  10.033   9.161   2.094
15929SOL    HW166474   9.970   9.152   2.171
15929SOL    HW266475  10.126   9.142   2.125
15930SOL     OW66476   8.074   6.463   7.050
15930SOL    HW166477   8.128   6.521   7.112
15930SOL    HW266478   8.044   6.518   6.973
15931SOL     OW66479   5.841   2.787   0.356
15931SOL    HW166480   5.741   2.779   0.361
15931SOL    HW266481   5.865   2.876   0.318
15932SOL     OW66482   4.139   9.974   0.003
15932SOL    HW166483   4.214  10.039   0.012
15932SOL    HW266484   4.175   9.881   0.007
15933SOL     OW66485   9.029   2.293   8.649
15933SOL    HW166486   9.060   2.383   8.620
15933SOL    HW266487   9.030   2.287   8.748
15934SOL     OW66488   6.700   3.967   7.832
15934SOL    HW166489   6.780   3.977   7.773
15934SOL    HW266490   6.632   3.911   7.786
15935SOL     OW66491   4.990   2.789   1.026
15935SOL    HW166492   4.901   2.743   1.034
15935SOL    HW266493   4.990   2.848   0.946
15936SOL     OW66494   4.966   1.914   7.702
15936SOL    HW166495   4.916   1.985   7.753
15936SOL    HW266496   5.052   1.894   7.748
15937SOL     OW66497   8.257   0.331   1.743
15937SOL    HW166498   8.197   0.374   1.810
15937SOL    HW266499   8.314   0.263   1.788
15938SOL     OW66500   2.230   5.361   1.561
15938SOL    HW166501   2.156   5.298   1.535
15938SOL    HW266502   2.239   5.362   1.660
15939SOL     OW66503   1.605   0.997   8.640
15939SOL    HW166504   1.538   1.034   8.705
15939SOL    HW266505   1.692   1.044   8.652
15940SOL     OW66506   6.542   9.943   8.386
15940SOL    HW166507   6.621   9.944   8.325
15940SOL    HW266508   6.572   9.963   8.479
15941SOL     OW66509   5.732   2.991   7.669
15941SOL    HW166510   5.826   2.981   7.701
15941SOL    HW266511   5.726   2.959   7.574
15942SOL     OW66512   2.107   5.387   1.007
15942SOL    HW166513   2.157   5.306   1.035
15942SOL    HW266514   2.093   5.385   0.908
15943SOL     OW66515   5.893   8.669   0.220
15943SOL    HW166516   5.966   8.634   0.278
15943SOL    HW266517   5.816   8.605   0.219
15944SOL     OW66518   9.106   6.529   6.204
15944SOL    HW166519   9.076   6.538   6.299
15944SOL    HW266520   9.123   6.620   6.166
15945SOL     OW66521   5.817   4.111   7.688
15945SOL    HW166522   5.834   4.081   7.781
15945SOL    HW266523   5.797   4.032   7.630
15946SOL     OW66524   0.365   4.628   7.205
15946SOL    HW166525   0.460   4.653   7.224
15946SOL    HW266526   0.353   4.530   7.214
15947SOL     OW66527   1.544   2.380   1.348
15947SOL    HW166528   1.531   2.462   1.403
15947SOL    HW266529   1.525   2.400   1.252
15948SOL     OW66530   8.723   0.149   7.065
15948SOL    HW166531   8.756   0.227   7.011
15948SOL    HW266532   8.640   0.113   7.023
15949SOL     OW66533   3.134   7.174   0.151
15949SOL    HW166534   3.061   7.194   0.085
15949SOL    HW266535   3.141   7.250   0.215
15950SOL     OW66536   5.758   2.666   7.416
15950SOL    HW166537   5.684   2.628   7.472
15950SOL    HW266538   5.747   2.765   7.409
15951SOL     OW66539   0.552   2.220   8.615
15951SOL    HW166540   0.576   2.265   8.701
15951SOL    HW266541   0.540   2.122   8.631
15952SOL     OW66542   7.639   9.192   6.512
15952SOL    HW166543   7.737   9.198   6.491
15952SOL    HW266544   7.590   9.262   6.460
15953SOL     OW66545   5.611   9.123   0.500
15953SOL    HW166546   5.604   9.086   0.407
15953SOL    HW266547   5.681   9.072   0.551
15954SOL     OW66548   9.667   7.015   7.240
15954SOL    HW166549   9.713   7.082   7.299
15954SOL    HW266550   9.677   7.043   7.144
15955SOL     OW66551   5.740   4.178   8.119
15955SOL    HW166552   5.780   4.121   8.048
15955SOL    HW266553   5.668   4.127   8.166
15956SOL     OW66554   8.336   1.417   6.988
15956SOL    HW166555   8.297   1.508   7.006
15956SOL    HW266556   8.334   1.399   6.890
15957SOL     OW66557   5.478   3.836   6.699
15957SOL    HW166558   5.536   3.847   6.780
15957SOL    HW266559   5.513   3.761   6.643
15958SOL     OW66560   4.872   9.114   0.146
15958SOL    HW166561   4.831   9.205   0.150
15958SOL    HW266562   4.970   9.122   0.127
15959SOL     OW66563   4.869   1.165   8.303
15959SOL    HW166564   4.821   1.080   8.324
15959SOL    HW266565   4.946   1.176   8.366
15960SOL     OW66566   9.947   0.996   0.610
15960SOL    HW166567   9.867   1.046   0.644
15960SOL    HW266568  10.030   1.048   0.631
15961SOL     OW66569   4.413   5.069   0.670
15961SOL    HW166570   4.345   5.085   0.743
15961SOL    HW266571   4.383   4.992   0.613
15962SOL     OW66572   5.560   2.800   0.348
15962SOL    HW166573   5.532   2.826   0.256
15962SOL    HW266574   5.505   2.722   0.379
15963SOL     OW66575   0.950   3.657   0.862
15963SOL    HW166576   1.025   3.628   0.803
15963SOL    HW266577   0.868   3.673   0.806
15964SOL     OW66578   4.214   4.654   1.550
15964SOL    HW166579   4.175   4.728   1.494
15964SOL    HW266580   4.274   4.598   1.493
15965SOL     OW66581   6.953   5.399   6.590
15965SOL    HW166582   6.860   5.434   6.575
15965SOL    HW266583   7.013   5.431   6.516
15966SOL     OW66584   6.119   6.295   8.050
15966SOL    HW166585   6.168   6.365   8.102
15966SOL    HW266586   6.104   6.215   8.107
15967SOL     OW66587   6.359   7.252   2.219
15967SOL    HW166588   6.298   7.276   2.295
15967SOL    HW266589   6.350   7.319   2.146
15968SOL     OW66590   8.560   9.809   7.602
15968SOL    HW166591   8.591   9.889   7.550
15968SOL    HW266592   8.483   9.767   7.555
15969SOL     OW66593   3.279   2.870   8.505
15969SOL    HW166594   3.287   2.786   8.452
15969SOL    HW266595   3.346   2.869   8.579
15970SOL     OW66596   4.296   6.816   0.067
15970SOL    HW166597   4.312   6.729   0.112
15970SOL    HW266598   4.201   6.820   0.034
15971SOL     OW66599   8.800   6.588   7.304
15971SOL    HW166600   8.813   6.602   7.206
15971SOL    HW266601   8.703   6.582   7.325
15972SOL     OW66602   8.895   9.492   1.111
15972SOL    HW166603   8.818   9.541   1.151
15972SOL    HW266604   8.981   9.528   1.148
15973SOL     OW66605   6.273   6.880   6.997
15973SOL    HW166606   6.327   6.820   7.056
15973SOL    HW266607   6.177   6.877   7.027
15974SOL     OW66608   3.996   3.148   8.156
15974SOL    HW166609   4.019   3.140   8.059
15974SOL    HW266610   3.991   3.056   8.196
15975SOL     OW66611   7.911   8.828   0.173
15975SOL    HW166612   8.010   8.835   0.160
15975SOL    HW266613   7.890   8.747   0.227
15976SOL     OW66614   9.899   8.445   1.455
15976SOL    HW166615   9.985   8.494   1.460
15976SOL    HW266616   9.916   8.347   1.467
15977SOL     OW66617   1.008   4.876   8.171
15977SOL    HW166618   0.993   4.794   8.116
15977SOL    HW266619   0.942   4.878   8.246
15978SOL     OW66620   5.444   5.710   8.127
15978SOL    HW166621   5.527   5.761   8.149
15978SOL    HW266622   5.451   5.674   8.034
15979SOL     OW66623   5.643   3.189   8.028
15979SOL    HW166624   5.655   3.252   8.106
15979SOL    HW266625   5.731   3.179   7.981
15980SOL     OW66626   1.880   7.368   7.989
15980SOL    HW166627   1.970   7.347   8.028
15980SOL    HW266628   1.876   7.335   7.895
15981SOL     OW66629   8.839   8.287   8.305
15981SOL    HW166630   8.778   8.300   8.383
15981SOL    HW266631   8.793   8.232   8.236
15982SOL     OW66632   9.666   5.612   6.717
15982SOL    HW166633   9.712   5.584   6.633
15982SOL    HW266634   9.574   5.572   6.720
15983SOL     OW66635   3.074   2.622   1.506
15983SOL    HW166636   3.085   2.624   1.606
15983SOL    HW266637   3.015   2.697   1.477
15984SOL     OW66638   8.197   5.294   7.743
15984SOL    HW166639   8.173   5.324   7.835
15984SOL    HW266640   8.114   5.281   7.689
15985SOL     OW66641   6.985   7.834   8.430
15985SOL    HW166642   6.998   7.793   8.520
15985SOL    HW266643   7.054   7.797   8.367
15986SOL     OW66644   1.913   7.428   8.527
15986SOL    HW166645   1.862   7.380   8.455
15986SOL    HW266646   1.948   7.361   8.593
15987SOL     OW66647   3.355   5.617   1.061
15987SOL    HW166648   3.295   5.642   1.137
15987SOL    HW266649   3.338   5.522   1.034
15988SOL     OW66650   8.894   5.823   6.680
15988SOL    HW166651   8.919   5.726   6.679
15988SOL    HW266652   8.934   5.868   6.600
15989SOL     OW66653   0.252   5.495   7.395
15989SOL    HW166654   0.291   5.576   7.440
15989SOL    HW266655   0.326   5.442   7.353
15990SOL     OW66656   9.836   1.778   1.247
15990SOL    HW166657   9.852   1.875   1.229
15990SOL    HW266658   9.742   1.766   1.279
15991SOL     OW66659   8.756   2.107   8.308
15991SOL    HW166660   8.843   2.120   8.356
15991SOL    HW266661   8.759   2.155   8.220
15992SOL     OW66662   2.523   0.243   0.037
15992SOL    HW166663   2.478   0.229   8.731
15992SOL    HW266664   2.487   0.327   0.079
15993SOL     OW66665   0.252   6.761   0.453
15993SOL    HW166666   0.240   6.800   0.362
15993SOL    HW266667   0.316   6.818   0.505
15994SOL     OW66668   9.651   2.490   1.994
15994SOL    HW166669   9.670   2.556   2.067
15994SOL    HW266670   9.644   2.398   2.032
15995SOL     OW66671  10.156   2.522   1.253
15995SOL    HW166672  10.145   2.621   1.259
15995SOL    HW266673   0.093   2.498   1.273
15996SOL     OW66674   7.905   9.672   1.482
15996SOL    HW166675   7.937   9.629   1.567
15996SOL    HW266676   7.807   9.691   1.490
15997SOL     OW66677   4.590   0.952   6.564
15997SOL    HW166678   4.659   0.996   6.622
15997SOL    HW266679   4.600   0.985   6.470
15998SOL     OW66680   6.891   8.720   8.204
15998SOL    HW166681   6.811   8.685   8.156
15998SOL    HW266682   6.954   8.760   8.138
15999SOL     OW66683   3.416   2.250   6.549
15999SOL    HW166684   3.404   2.214   6.642
15999SOL    HW266685   3.512   2.246   6.524
16000SOL     OW66686   8.300   0.093   1.345
16000SOL    HW166687   8.311   0.135   1.255
16000SOL    HW266688   8.235   0.147   1.398
16001SOL     OW66689   6.254   4.089   8.563
16001SOL    HW166690   6.318   4.166   8.572
16001SOL    HW266691   6.197   4.084   8.645
16002SOL     OW66692   1.351   3.845   7.523
16002SOL    HW166693   1.382   3.939   7.509
16002SOL    HW266694   1.386   3.787   7.450
16003SOL     OW66695   7.581   4.674   6.344
16003SOL    HW166696   7.513   4.602   6.356
16003SOL    HW266697   7.632   4.687   6.429
16004SOL     OW66698   2.543   0.067   8.374
16004SOL    HW166699   2.583   0.155   8.347
16004SOL    HW266700   2.463   0.048   8.318
16005SOL     OW66701   8.746   3.877   1.101
16005SOL    HW166702   8.706   3.858   1.191
16005SOL    HW266703   8.753   3.791   1.049
16006SOL     OW66704   1.409   3.849   6.926
16006SOL    HW166705   1.429   3.877   6.832
16006SOL    HW266706   1.418   3.927   6.987
16007SOL     OW66707   9.648   1.336   1.490
16007SOL    HW166708   9.611   1.373   1.404
16007SOL    HW266709   9.573   1.314   1.552
16008SOL     OW66710   2.316   2.884   1.941
16008SOL    HW166711   2.222   2.850   1.952
16008SOL    HW266712   2.319   2.950   1.866
16009SOL     OW66713   9.969   5.355   8.563
16009SOL    HW166714   9.965   5.393   8.471
16009SOL    HW266715  10.056   5.309   8.576
16010SOL     OW66716   8.292   8.518   1.053
16010SOL    HW166717   8.301   8.617   1.041
16010SOL    HW266718   8.311   8.494   1.148
16011SOL     OW66719   0.004   7.090   1.956
16011SOL    HW166720   0.043   7.182   1.968
16011SOL    HW266721  10.081   7.080   2.014
  10.15760  10.50300   8.78188
