;----------------------------TITLE -----------------------------------------------------------------------------------------
;   Neopentane
[ moleculetype ]
; Name   nrexcl
G008     3
[ atoms ]
;  nr  type  resnr  resid  atom  cgnr  charge    mass
    1  HCH3    1    G008    H12    1    0.111   1.0080
    2  C_H3    1    G008     C5    2   -0.527  12.0110
    3  HCH3    1    G008    H10    3    0.111   1.0080
    4  HCH3    1    G008    H11    4    0.111   1.0080
    5  C_H0    1    G008     C2    5    0.776  12.0110
    6  C_H3    1    G008     C1    6   -0.527  12.0110
    7  HCH3    1    G008     H1    7    0.111   1.0080
    8  HCH3    1    G008     H2    8    0.111   1.0080
    9  HCH3    1    G008     H3    9    0.111   1.0080
   10  C_H3    1    G008     C3   10   -0.527  12.0110
   11  HCH3    1    G008     H4   11    0.111   1.0080
   12  HCH3    1    G008     H5   12    0.111   1.0080
   13  HCH3    1    G008     H6   13    0.111   1.0080
   14  C_H3    1    G008     C4   14   -0.527  12.0110
   15  HCH3    1    G008     H7   15    0.111   1.0080
   16  HCH3    1    G008     H8   16    0.111   1.0080
   17  HCH3    1    G008     H9   17    0.111   1.0080
; total charge of the molecule:  -0.000
[ bonds ]
;  ai   aj  funct   c0         c1
    1    2    2   0.1090   1.2300e+07
    2    3    2   0.1090   1.2300e+07
    2    4    2   0.1090   1.2300e+07
    2    5    2   0.1530   7.1500e+06
    5    6    2   0.1530   7.1500e+06
    5   10    2   0.1530   7.1500e+06
    5   14    2   0.1530   7.1500e+06
    6    7    2   0.1090   1.2300e+07
    6    8    2   0.1090   1.2300e+07
    6    9    2   0.1090   1.2300e+07
   10   11    2   0.1090   1.2300e+07
   10   12    2   0.1090   1.2300e+07
   10   13    2   0.1090   1.2300e+07
   14   15    2   0.1090   1.2300e+07
   14   16    2   0.1090   1.2300e+07
   14   17    2   0.1090   1.2300e+07
[ pairs ]
;  ai   aj  funct  ;  all 1-4 pairs but the ones excluded in GROMOS itp
    1    6    1
    1   10    1
    1   14    1
    2    7    1
    2    8    1
    2    9    1
    2   11    1
    2   12    1
    2   13    1
    2   15    1
    2   16    1
    2   17    1
    3    6    1
    3   10    1
    3   14    1
    4    6    1
    4   10    1
    4   14    1
    6   11    1
    6   12    1
    6   13    1
    6   15    1
    6   16    1
    6   17    1
    7   10    1
    7   14    1
    8   10    1
    8   14    1
    9   10    1
    9   14    1
   10   15    1
   10   16    1
   10   17    1
   11   14    1
   12   14    1
   13   14    1
[ angles ]
;  ai   aj   ak  funct   angle     fc
    1    2    3    2    107.60   507.00
    1    2    4    2    107.60   507.00
    1    2    5    2    111.00   530.00
    3    2    4    2    107.60   507.00
    3    2    5    2    111.00   530.00
    4    2    5    2    111.00   530.00
    2    5    6    2    109.50   520.00
    2    5   10    2    109.50   520.00
    2    5   14    2    109.50   520.00
    6    5   10    2    109.50   520.00
    6    5   14    2    109.50   520.00
   10    5   14    2    109.50   520.00
    5    6    7    2    111.00   530.00
    5    6    8    2    111.00   530.00
    5    6    9    2    111.00   530.00
    7    6    8    2    107.60   507.00
    7    6    9    2    107.60   507.00
    8    6    9    2    107.60   507.00
    5   10   11    2    111.00   530.00
    5   10   12    2    111.00   530.00
    5   10   13    2    111.00   530.00
   11   10   12    2    107.60   507.00
   11   10   13    2    107.60   507.00
   12   10   13    2    107.60   507.00
    5   14   15    2    111.00   530.00
    5   14   16    2    111.00   530.00
    5   14   17    2    111.00   530.00
   15   14   16    2    107.60   507.00
   15   14   17    2    107.60   507.00
   16   14   17    2    107.60   507.00
[ dihedrals ]
; GROMOS improper dihedrals
;  ai   aj   ak   al  funct   angle     fc
[ dihedrals ]
;  ai   aj   ak   al  funct    ph0      cp     mult
    9    6    5    2    1      0.00     4.18    3
   13   10    5    2    1      0.00     4.18    3
   17   14    5    2    1      0.00     4.18    3
    1    2    5    6    1      0.00     4.18    3
[ exclusions ]
;  ai   aj  funct  ;  GROMOS 1-4 exclusions
