19-MER PEPTIDE FROM 50S RIBOSOMAL PROTEIN L1 in water
 2672
    1ALA      N    1   1.187   1.707   2.915
    1ALA     H1    2   1.137   1.619   2.909
    1ALA     H2    3   1.178   1.730   0.013
    1ALA     H3    4   1.139   1.772   2.856
    1ALA     CA    5   1.336   1.685   2.879
    1ALA     HA    6   1.326   1.679   2.774
    1ALA     CB    7   1.408   1.813   2.917
    1ALA    HB1    8   1.515   1.794   2.920
    1ALA    HB2    9   1.381   1.892   2.848
    1ALA    HB3   10   1.372   1.837   0.017
    1ALA      C   11   1.411   1.562   2.952
    1ALA      O   12   1.340   1.597   0.047
    2LYS      N   13   1.510   1.439   2.942
    2LYS      H   14   1.538   1.421   2.847
    2LYS     CA   15   1.589   1.312   0.051
    2LYS     HA   16   1.521   1.236   0.076
    2LYS     CB   17   1.677   1.219   2.967
    2LYS    HB1   18   1.763   1.255   0.011
    2LYS    HB2   19   1.673   1.247   2.862
    2LYS     CG   20   1.707   1.066   2.979
    2LYS    HG1   21   1.744   1.042   0.079
    2LYS    HG2   22   1.785   1.039   2.908
    2LYS     CD   23   1.584   0.980   2.952
    2LYS    HD1   24   1.518   1.056   2.938
    2LYS    HD2   25   1.546   0.931   0.040
    2LYS     CE   26   1.564   0.891   2.831
    2LYS    HE1   27   1.623   0.799   2.843
    2LYS    HE2   28   1.596   0.943   2.740
    2LYS     NZ   29   1.420   0.857   2.820
    2LYS    HZ1   30   1.405   0.780   2.756
    2LYS    HZ2   31   1.378   0.832   2.909
    2LYS    HZ3   32   1.365   0.936   2.783
    2LYS      C   33   1.661   1.314   0.222
    2LYS      O   34   1.771   1.264   0.236
    3LYS      N   35   1.629   1.390   0.345
    3LYS      H   36   1.534   1.363   0.362
    3LYS     CA   37   1.643   1.537   0.425
    3LYS     HA   38   1.738   1.534   0.479
    3LYS     CB   39   1.624   1.699   0.383
    3LYS    HB1   40   1.717   1.747   0.364
    3LYS    HB2   41   1.630   1.758   0.473
    3LYS     CG   42   1.509   1.783   0.311
    3LYS    HG1   43   1.415   1.770   0.365
    3LYS    HG2   44   1.493   1.753   0.209
    3LYS     CD   45   1.536   1.936   0.295
    3LYS    HD1   46   1.643   1.952   0.283
    3LYS    HD2   47   1.503   1.987   0.386
    3LYS     CE   48   1.467   2.003   0.173
    3LYS    HE1   49   1.360   1.981   0.174
    3LYS    HE2   50   1.511   1.959   0.083
    3LYS     NZ   51   1.489   2.150   0.162
    3LYS    HZ1   52   1.436   2.196   0.088
    3LYS    HZ2   53   1.467   2.197   0.249
    3LYS    HZ3   54   1.587   2.169   0.146
    3LYS      C   55   1.537   1.546   0.536
    3LYS      O   56   1.532   1.635   0.623
    4VAL      N   57   1.458   1.443   0.547
    4VAL      H   58   1.441   1.385   0.466
    4VAL     CA   59   1.393   1.409   0.669
    4VAL     HA   60   1.322   1.489   0.687
    4VAL     CB   61   1.316   1.278   0.649
    4VAL     HB   62   1.388   1.199   0.664
    4VAL    CG1   63   1.205   1.278   0.753
    4VAL   HG11   64   1.168   1.177   0.765
    4VAL   HG12   65   1.244   1.305   0.849
    4VAL   HG13   66   1.124   1.345   0.724
    4VAL    CG2   67   1.253   1.249   0.513
    4VAL   HG21   68   1.175   1.174   0.523
    4VAL   HG22   69   1.207   1.338   0.471
    4VAL   HG23   70   1.327   1.208   0.445
    4VAL      C   71   1.499   1.404   0.782
    4VAL      O   72   1.464   1.420   0.898
    5PHE      N   73   1.631   1.404   0.751
    5PHE      H   74   1.654   1.393   0.654
    5PHE     CA   75   1.742   1.445   0.839
    5PHE     HA   76   1.773   1.358   0.896
    5PHE     CB   77   1.863   1.490   0.754
    5PHE    HB1   78   1.846   1.589   0.713
    5PHE    HB2   79   1.873   1.421   0.670
    5PHE     CG   80   1.992   1.489   0.835
    5PHE    CD1   81   2.064   1.370   0.850
    5PHE    HD1   82   2.031   1.281   0.801
    5PHE    CE1   83   2.174   1.362   0.938
    5PHE    HE1   84   2.225   1.268   0.953
    5PHE     CZ   85   2.213   1.475   1.010
    5PHE     HZ   86   2.299   1.471   1.075
    5PHE    CE2   87   2.146   1.596   0.991
    5PHE    HE2   88   2.185   1.685   1.037
    5PHE    CD2   89   2.036   1.604   0.903
    5PHE    HD2   90   1.987   1.699   0.888
    5PHE      C   91   1.709   1.557   0.940
    5PHE      O   92   1.744   1.548   1.057
    6LYS      N   93   1.634   1.660   0.898
    6LYS      H   94   1.605   1.661   0.801
    6LYS     CA   95   1.592   1.769   0.988
    6LYS     HA   96   1.680   1.804   1.042
    6LYS     CB   97   1.535   1.883   0.902
    6LYS    HB1   98   1.427   1.875   0.896
    6LYS    HB2   99   1.575   1.876   0.800
    6LYS     CG  100   1.574   2.019   0.961
    6LYS    HG1  101   1.681   2.017   0.984
    6LYS    HG2  102   1.517   2.037   1.052
    6LYS     CD  103   1.552   2.130   0.858
    6LYS    HD1  104   1.449   2.132   0.825
    6LYS    HD2  105   1.613   2.107   0.771
    6LYS     CE  106   1.598   2.266   0.914
    6LYS    HE1  107   1.629   2.329   0.830
    6LYS    HE2  108   1.686   2.250   0.977
    6LYS     NZ  109   1.493   2.337   0.990
    6LYS    HZ1  110   1.532   2.422   1.030
    6LYS    HZ2  111   1.413   2.359   0.933
    6LYS    HZ3  112   1.464   2.284   1.072
    6LYS      C  113   1.490   1.726   1.094
    6LYS      O  114   1.485   1.782   1.203
    7ARG      N  115   1.405   1.629   1.061
    7ARG      H  116   1.421   1.583   0.973
    7ARG     CA  117   1.312   1.565   1.154
    7ARG     HA  118   1.261   1.640   1.215
    7ARG     CB  119   1.209   1.483   1.078
    7ARG    HB1  120   1.156   1.424   1.150
    7ARG    HB2  121   1.260   1.411   1.017
    7ARG     CG  122   1.101   1.557   0.998
    7ARG    HG1  123   1.056   1.635   1.060
    7ARG    HG2  124   1.026   1.482   0.977
    7ARG     CD  125   1.147   1.612   0.864
    7ARG    HD1  126   1.075   1.579   0.788
    7ARG    HD2  127   1.244   1.570   0.842
    7ARG     NE  128   1.157   1.759   0.863
    7ARG     HE  129   1.165   1.804   0.952
    7ARG     CZ  130   1.155   1.834   0.754
    7ARG    NH1  131   1.142   1.785   0.634
    7ARG   HH11  132   1.122   1.686   0.621
    7ARG   HH12  133   1.129   1.846   0.555
    7ARG    NH2  134   1.166   1.963   0.764
    7ARG   HH21  135   1.172   2.008   0.854
    7ARG   HH22  136   1.163   2.020   0.681
    7ARG      C  137   1.383   1.471   1.252
    7ARG      O  138   1.338   1.465   1.366
    8LEU      N  139   1.492   1.405   1.213
    8LEU      H  140   1.520   1.409   1.116
    8LEU     CA  141   1.577   1.332   1.309
    8LEU     HA  142   1.516   1.255   1.357
    8LEU     CB  143   1.698   1.263   1.242
    8LEU    HB1  144   1.773   1.246   1.319
    8LEU    HB2  145   1.741   1.332   1.170
    8LEU     CG  146   1.665   1.128   1.175
    8LEU     HG  147   1.572   1.091   1.217
    8LEU    CD1  148   1.650   1.143   1.025
    8LEU   HD11  149   1.611   1.048   0.986
    8LEU   HD12  150   1.578   1.222   1.004
    8LEU   HD13  151   1.743   1.163   0.974
    8LEU    CD2  152   1.767   1.017   1.195
    8LEU   HD21  153   1.723   0.921   1.168
    8LEU   HD22  154   1.855   1.030   1.134
    8LEU   HD23  155   1.799   1.016   1.299
    8LEU      C  156   1.625   1.426   1.420
    8LEU      O  157   1.615   1.393   1.537
    9GLU      N  158   1.668   1.548   1.386
    9GLU      H  159   1.680   1.571   1.288
    9GLU     CA  160   1.712   1.643   1.488
    9GLU     HA  161   1.787   1.593   1.550
    9GLU     CB  162   1.777   1.764   1.420
    9GLU    HB1  163   1.698   1.821   1.369
    9GLU    HB2  164   1.847   1.730   1.344
    9GLU     CG  165   1.850   1.858   1.518
    9GLU    HG1  166   1.785   1.881   1.602
    9GLU    HG2  167   1.868   1.951   1.465
    9GLU     CD  168   1.984   1.801   1.568
    9GLU    OE1  169   1.986   1.692   1.628
    9GLU    OE2  170   2.088   1.868   1.544
    9GLU      C  171   1.597   1.684   1.583
    9GLU      O  172   1.614   1.693   1.704
   10LYS      N  173   1.474   1.700   1.531
   10LYS      H  174   1.464   1.692   1.431
   10LYS     CA  175   1.356   1.721   1.616
   10LYS     HA  176   1.377   1.803   1.685
   10LYS     CB  177   1.232   1.755   1.533
   10LYS    HB1  178   1.146   1.756   1.599
   10LYS    HB2  179   1.217   1.677   1.458
   10LYS     CG  180   1.243   1.890   1.464
   10LYS    HG1  181   1.317   1.883   1.384
   10LYS    HG2  182   1.275   1.966   1.536
   10LYS     CD  183   1.107   1.930   1.407
   10LYS    HD1  184   1.050   1.979   1.487
   10LYS    HD2  185   1.053   1.842   1.374
   10LYS     CE  186   1.123   2.023   1.288
   10LYS    HE1  187   1.120   1.961   1.197
   10LYS    HE2  188   1.222   2.068   1.293
   10LYS     NZ  189   1.018   2.128   1.285
   10LYS    HZ1  190   1.026   2.184   1.201
   10LYS    HZ2  191   0.924   2.089   1.287
   10LYS    HZ3  192   1.029   2.190   1.364
   10LYS      C  193   1.323   1.601   1.704
   10LYS      O  194   1.269   1.619   1.813
   11LEU      N  195   1.352   1.481   1.656
   11LEU      H  196   1.393   1.475   1.563
   11LEU     CA  197   1.338   1.357   1.731
   11LEU     HA  198   1.238   1.355   1.773
   11LEU     CB  199   1.358   1.236   1.638
   11LEU    HB1  200   1.453   1.186   1.661
   11LEU    HB2  201   1.362   1.268   1.534
   11LEU     CG  202   1.243   1.136   1.652
   11LEU     HG  203   1.152   1.187   1.623
   11LEU    CD1  204   1.267   1.020   1.558
   11LEU   HD11  205   1.189   0.945   1.569
   11LEU   HD12  206   1.264   1.057   1.456
   11LEU   HD13  207   1.363   0.974   1.579
   11LEU    CD2  208   1.230   1.081   1.794
   11LEU   HD21  209   1.156   1.002   1.796
   11LEU   HD22  210   1.327   1.044   1.828
   11LEU   HD23  211   1.196   1.159   1.862
   11LEU      C  212   1.438   1.352   1.847
   11LEU      O  213   1.400   1.313   1.957
   12PHE      N  214   1.561   1.400   1.827
   12PHE      H  215   1.586   1.432   1.735
   12PHE     CA  216   1.661   1.407   1.934
   12PHE     HA  217   1.678   1.306   1.972
   12PHE     CB  218   1.791   1.460   1.875
   12PHE    HB1  219   1.782   1.567   1.857
   12PHE    HB2  220   1.811   1.412   1.780
   12PHE     CG  221   1.909   1.435   1.966
   12PHE    CD1  222   1.966   1.307   1.972
   12PHE    HD1  223   1.924   1.226   1.914
   12PHE    CE1  224   2.078   1.284   2.055
   12PHE    HE1  225   2.122   1.185   2.058
   12PHE     CZ  226   2.130   1.388   2.134
   12PHE     HZ  227   2.216   1.370   2.197
   12PHE    CE2  228   2.071   1.515   2.130
   12PHE    HE2  229   2.111   1.595   2.190
   12PHE    CD2  230   1.960   1.538   2.047
   12PHE    HD2  231   1.915   1.636   2.044
   12PHE      C  232   1.612   1.494   2.051
   12PHE      O  233   1.619   1.452   2.167
   13SER      N  234   1.547   1.607   2.021
   13SER      H  235   1.549   1.639   1.925
   13SER     CA  236   1.482   1.691   2.122
   13SER     HA  237   1.558   1.723   2.193
   13SER     CB  238   1.418   1.815   2.059
   13SER    HB1  239   1.378   1.877   2.138
   13SER    HB2  240   1.336   1.783   1.994
   13SER     OG  241   1.507   1.892   1.981
   13SER     HG  242   1.491   1.984   2.004
   13SER      C  243   1.373   1.617   2.200
   13SER      O  244   1.344   1.654   2.315
   14LYS      N  245   1.313   1.511   2.143
   14LYS      H  246   1.345   1.482   2.051
   14LYS     CA  247   1.216   1.424   2.212
   14LYS     HA  248   1.153   1.488   2.273
   14LYS     CB  249   1.126   1.346   2.114
   14LYS    HB1  250   1.053   1.291   2.173
   14LYS    HB2  251   1.183   1.273   2.058
   14LYS     CG  252   1.052   1.439   2.018
   14LYS    HG1  253   1.120   1.473   1.940
   14LYS    HG2  254   1.020   1.526   2.074
   14LYS     CD  255   0.931   1.373   1.952
   14LYS    HD1  256   0.894   1.292   2.014
   14LYS    HD2  257   0.960   1.330   1.856
   14LYS     CE  258   0.818   1.476   1.933
   14LYS    HE1  259   0.835   1.559   2.002
   14LYS    HE2  260   0.723   1.430   1.962
   14LYS     NZ  261   0.812   1.527   1.794
   14LYS    HZ1  262   0.739   1.596   1.785
   14LYS    HZ2  263   0.900   1.564   1.763
   14LYS    HZ3  264   0.785   1.451   1.731
   14LYS      C  265   1.284   1.327   2.309
   14LYS      O  266   1.228   1.300   2.414
   15ILE      N  267   1.404   1.280   2.278
   15ILE      H  268   1.447   1.313   2.192
   15ILE     CA  269   1.482   1.188   2.364
   15ILE     HA  270   1.413   1.118   2.411
   15ILE     CB  271   1.587   1.112   2.283
   15ILE     HB  272   1.667   1.182   2.256
   15ILE    CG2  273   1.647   0.999   2.368
   15ILE   HG21  274   1.705   0.934   2.305
   15ILE   HG22  275   1.715   1.039   2.443
   15ILE   HG23  276   1.569   0.942   2.417
   15ILE    CG1  277   1.529   1.053   2.153
   15ILE   HG11  278   1.607   0.997   2.103
   15ILE   HG12  279   1.502   1.135   2.087
   15ILE     CD  280   1.407   0.964   2.175
   15ILE    HD1  281   1.371   0.931   2.078
   15ILE    HD2  282   1.434   0.877   2.234
   15ILE    HD3  283   1.326   1.018   2.224
   15ILE      C  284   1.553   1.260   2.477
   15ILE      O  285   1.598   1.201   2.575
   16GLN      N  286   1.560   1.391   2.464
   16GLN      H  287   1.529   1.434   2.378
   16GLN     CA  288   1.593   1.475   2.574
   16GLN     HA  289   1.649   1.417   2.647
   16GLN     CB  290   1.689   1.587   2.520
   16GLN    HB1  291   1.640   1.684   2.513
   16GLN    HB2  292   1.719   1.563   2.418
   16GLN     CG  293   1.819   1.604   2.602
   16GLN    HG1  294   1.844   1.510   2.651
   16GLN    HG2  295   1.804   1.680   2.679
   16GLN     CD  296   1.939   1.642   2.517
   16GLN    OE1  297   2.029   1.563   2.496
   16GLN    NE2  298   1.948   1.764   2.469
   16GLN   HE21  299   1.876   1.833   2.481
   16GLN   HE22  300   2.037   1.791   2.426
   16GLN      C  301   1.462   1.518   2.642
   16GLN      O  302   1.478   1.633   2.676
   17ASN      N  303   1.349   1.438   2.665
   17ASN      H  304   1.361   1.342   2.632
   17ASN     CA  305   1.209   1.460   2.729
   17ASN     HA  306   1.207   1.566   2.729
   17ASN     CB  307   1.089   1.449   2.635
   17ASN    HB1  308   1.061   1.345   2.620
   17ASN    HB2  309   1.114   1.497   2.541
   17ASN     CG  310   0.971   1.524   2.698
   17ASN    OD1  311   0.876   1.467   2.748
   17ASN    ND2  312   0.981   1.655   2.714
   17ASN   HD21  313   1.033   1.706   2.644
   17ASN   HD22  314   0.895   1.692   2.750
   17ASN      C  315   1.167   1.416   2.879
   17ASN      O  316   1.069   1.456   2.941
   18ASP      N  317   1.261   1.363   2.949
   18ASP      H  318   1.336   1.338   2.885
   18ASP     CA  319   1.303   1.325   0.086
   18ASP     HA  320   1.213   1.316   0.148
   18ASP     CB  321   1.314   1.174   0.025
   18ASP    HB1  322   1.215   1.136   0.034
   18ASP    HB2  323   1.372   1.104   0.085
   18ASP     CG  324   1.330   1.146   2.867
   18ASP    OD1  325   1.419   1.208   2.802
   18ASP    OD2  326   1.256   1.065   2.810
   18ASP      C  327   1.414   1.423   0.190
   18ASP      O  328   1.372   1.415   0.303
   19LYS      N  329   1.531   1.529   0.170
   19LYS      H  330   1.481   1.614   0.152
   19LYS     CA  331   1.698   1.552   0.113
   19LYS     HA  332   1.761   1.487   0.166
   19LYS     CB  333   1.779   1.518   2.971
   19LYS    HB1  334   1.793   1.616   2.925
   19LYS    HB2  335   1.726   1.470   2.890
   19LYS     CG  336   1.928   1.452   2.965
   19LYS    HG1  337   1.974   1.466   0.063
   19LYS    HG2  338   1.985   1.514   2.895
   19LYS     CD  339   1.963   1.300   2.923
   19LYS    HD1  340   1.887   1.274   2.850
   19LYS    HD2  341   1.955   1.247   0.018
   19LYS     CE  342   2.082   1.221   2.861
   19LYS    HE1  343   2.178   1.258   2.895
   19LYS    HE2  344   2.076   1.232   2.752
   19LYS     NZ  345   2.073   1.075   2.897
   19LYS    HZ1  346   2.142   1.016   2.850
   19LYS    HZ2  347   2.087   1.059   2.996
   19LYS    HZ3  348   1.984   1.034   2.872
   19LYS      C  349   1.783   1.670   0.159
   19LYS      O  350   1.757   1.784   0.122
   20NH2      N  351   1.884   1.639   0.242
   20NH2     H1  352   1.895   1.543   0.272
   20NH2     H2  353   1.928   1.711   0.297
   21SOL     OW  354   0.237   0.661   0.106
   21SOL    HW1  355   0.170   0.613   0.155
   21SOL    HW2  356   0.252   0.608   0.028
   22SOL     OW  357   0.204   0.275   1.005
   22SOL    HW1  358   0.243   0.249   1.088
   22SOL    HW2  359   0.112   0.247   1.011
   23SOL     OW  360   0.011   0.387   0.655
   23SOL    HW1  361   2.930   0.426   0.688
   23SOL    HW2  362   2.981   0.313   0.601
   24SOL     OW  363   0.571   1.287   1.171
   24SOL    HW1  364   0.482   1.273   1.139
   24SOL    HW2  365   0.569   1.374   1.210
   25SOL     OW  366   1.132   0.704   0.700
   25SOL    HW1  367   1.180   0.786   0.696
   25SOL    HW2  368   1.082   0.710   0.782
   26SOL     OW  369   1.786   0.563   0.254
   26SOL    HW1  370   1.757   0.577   0.164
   26SOL    HW2  371   1.730   0.491   0.285
   27SOL     OW  372   0.765   1.148   1.041
   27SOL    HW1  373   0.693   1.176   1.097
   27SOL    HW2  374   0.787   1.225   0.989
   28SOL     OW  375   0.860   0.781   1.825
   28SOL    HW1  376   0.843   0.855   1.884
   28SOL    HW2  377   0.883   0.821   1.742
   29SOL     OW  378   0.681   1.005   0.651
   29SOL    HW1  379   0.746   0.992   0.721
   29SOL    HW2  380   0.611   1.055   0.694
   30SOL     OW  381   0.683   1.143   1.816
   30SOL    HW1  382   0.727   1.224   1.841
   30SOL    HW2  383   0.597   1.172   1.784
   31SOL     OW  384   0.333   1.429   1.072
   31SOL    HW1  385   0.263   1.381   1.027
   31SOL    HW2  386   0.377   1.476   1.001
   32SOL     OW  387   0.450   0.400   1.487
   32SOL    HW1  388   0.522   0.337   1.495
   32SOL    HW2  389   0.372   0.350   1.510
   33SOL     OW  390   1.613   0.457   0.735
   33SOL    HW1  391   1.532   0.480   0.688
   33SOL    HW2  392   1.623   0.527   0.800
   34SOL     OW  393   0.218   1.715   0.482
   34SOL    HW1  394   0.240   1.799   0.523
   34SOL    HW2  395   0.285   1.703   0.414
   35SOL     OW  396   0.251   1.450   0.533
   35SOL    HW1  397   0.212   1.537   0.527
   35SOL    HW2  398   0.189   1.400   0.586
   36SOL     OW  399   0.263   1.084   0.897
   36SOL    HW1  400   0.254   0.995   0.932
   36SOL    HW2  401   0.199   1.135   0.946
   37SOL     OW  402   0.620   1.792   1.433
   37SOL    HW1  403   0.536   1.767   1.474
   37SOL    HW2  404   0.634   1.883   1.460
   38SOL     OW  405   0.590   0.976   0.149
   38SOL    HW1  406   0.603   1.049   0.089
   38SOL    HW2  407   0.631   1.004   0.231
   39SOL     OW  408   1.569   0.122   1.389
   39SOL    HW1  409   1.592   0.215   1.387
   39SOL    HW2  410   1.579   0.097   1.481
   40SOL     OW  411   0.120   0.630   0.569
   40SOL    HW1  412   0.084   0.551   0.610
   40SOL    HW2  413   0.117   0.696   0.638
   41SOL     OW  414   0.012   1.594   0.114
   41SOL    HW1  415   0.019   1.501   0.135
   41SOL    HW2  416   2.995   1.637   0.197
   42SOL     OW  417   1.688   0.902   0.639
   42SOL    HW1  418   1.777   0.868   0.635
   42SOL    HW2  419   1.680   0.958   0.562
   43SOL     OW  420   1.673   1.111   0.460
   43SOL    HW1  421   1.738   1.114   0.390
   43SOL    HW2  422   1.717   1.150   0.536
   44SOL     OW  423   0.129   0.748   1.594
   44SOL    HW1  424   0.224   0.757   1.600
   44SOL    HW2  425   0.097   0.837   1.583
   45SOL     OW  426   0.606   1.383   0.735
   45SOL    HW1  427   0.561   1.300   0.742
   45SOL    HW2  428   0.591   1.412   0.644
   46SOL     OW  429   0.820   0.010   0.519
   46SOL    HW1  430   0.850   0.099   0.501
   46SOL    HW2  431   0.725   0.013   0.502
   47SOL     OW  432   0.189   0.960   1.270
   47SOL    HW1  433   0.272   0.917   1.251
   47SOL    HW2  434   0.123   0.907   1.225
   48SOL     OW  435   1.522   0.988   0.268
   48SOL    HW1  436   1.443   0.940   0.295
   48SOL    HW2  437   1.564   1.014   0.350
   49SOL     OW  438   0.337   0.255   1.801
   49SOL    HW1  439   0.377   0.339   1.828
   49SOL    HW2  440   0.250   0.256   1.841
   50SOL     OW  441   0.591   0.720   0.266
   50SOL    HW1  442   0.600   0.802   0.219
   50SOL    HW2  443   0.529   0.739   0.336
   51SOL     OW  444   1.286   0.337   0.928
   51SOL    HW1  445   1.193   0.318   0.939
   51SOL    HW2  446   1.329   0.291   1.001
   52SOL     OW  447   0.791   0.621   1.454
   52SOL    HW1  448   0.765   0.596   1.543
   52SOL    HW2  449   0.752   0.553   1.398
   53SOL     OW  450   1.399   0.488   1.681
   53SOL    HW1  451   1.402   0.521   1.771
   53SOL    HW2  452   1.431   0.398   1.687
   54SOL     OW  453   0.944   0.885   1.585
   54SOL    HW1  454   0.999   0.813   1.553
   54SOL    HW2  455   0.898   0.916   1.508
   55SOL     OW  456   0.994   0.425   1.226
   55SOL    HW1  457   0.920   0.437   1.286
   55SOL    HW2  458   0.960   0.370   1.156
   56SOL     OW  459   1.050   0.702   0.427
   56SOL    HW1  460   1.064   0.694   0.521
   56SOL    HW2  461   0.969   0.655   0.410
   57SOL     OW  462   0.102   0.821   0.762
   57SOL    HW1  463   0.179   0.812   0.818
   57SOL    HW2  464   0.037   0.863   0.818
   58SOL     OW  465   0.139   1.830   1.567
   58SOL    HW1  466   0.125   1.813   1.660
   58SOL    HW2  467   0.058   1.871   1.537
   59SOL     OW  468   0.930   0.339   0.220
   59SOL    HW1  469   0.931   0.398   0.145
   59SOL    HW2  470   0.882   0.262   0.189
   60SOL     OW  471   1.727   0.590   1.825
   60SOL    HW1  472   1.674   0.659   1.784
   60SOL    HW2  473   1.724   0.517   1.763
   61SOL     OW  474   0.526   0.195   0.910
   61SOL    HW1  475   0.536   0.206   1.004
   61SOL    HW2  476   0.541   0.282   0.873
   62SOL     OW  477   1.025   1.512   0.506
   62SOL    HW1  478   0.975   1.537   0.429
   62SOL    HW2  479   0.962   1.466   0.562
   63SOL     OW  480   0.350   1.803   0.852
   63SOL    HW1  481   0.396   1.720   0.866
   63SOL    HW2  482   0.416   1.870   0.870
   64SOL     OW  483   0.318   0.949   0.233
   64SOL    HW1  484   0.410   0.957   0.205
   64SOL    HW2  485   0.292   0.861   0.204
   65SOL     OW  486   1.470   0.744   0.732
   65SOL    HW1  487   1.461   0.693   0.813
   65SOL    HW2  488   1.551   0.793   0.744
   66SOL     OW  489   0.458   1.256   1.732
   66SOL    HW1  490   0.423   1.263   1.643
   66SOL    HW2  491   0.382   1.262   1.789
   67SOL     OW  492   1.116   1.766   0.237
   67SOL    HW1  493   1.033   1.736   0.276
   67SOL    HW2  494   1.167   1.687   0.226
   68SOL     OW  495   0.198   0.301   1.511
   68SOL    HW1  496   0.110   0.328   1.484
   68SOL    HW2  497   0.188   0.210   1.539
   69SOL     OW  498   0.471   1.721   0.339
   69SOL    HW1  499   0.500   1.796   0.392
   69SOL    HW2  500   0.526   1.724   0.261
   70SOL     OW  501   1.410   0.103   0.437
   70SOL    HW1  502   1.391   0.082   0.346
   70SOL    HW2  503   1.502   0.126   0.438
   71SOL     OW  504   0.277   1.797   1.226
   71SOL    HW1  505   0.298   1.720   1.279
   71SOL    HW2  506   0.219   1.763   1.158
   72SOL     OW  507   0.392   0.691   0.474
   72SOL    HW1  508   0.423   0.602   0.491
   72SOL    HW2  509   0.299   0.690   0.499
   73SOL     OW  510   0.607   0.112   0.107
   73SOL    HW1  511   0.702   0.110   0.118
   73SOL    HW2  512   0.594   0.141   0.017
   74SOL     OW  513   0.766   0.273   1.748
   74SOL    HW1  514   0.841   0.215   1.764
   74SOL    HW2  515   0.720   0.276   1.832
   75SOL     OW  516   0.874   1.516   1.205
   75SOL    HW1  517   0.848   1.472   1.124
   75SOL    HW2  518   0.933   1.454   1.248
   76SOL     OW  519   1.336   0.584   1.432
   76SOL    HW1  520   1.369   0.555   1.517
   76SOL    HW2  521   1.379   0.668   1.417
   77SOL     OW  522   0.805   1.392   0.922
   77SOL    HW1  523   0.869   1.419   0.856
   77SOL    HW2  524   0.723   1.383   0.874
   78SOL     OW  525   0.929   0.513   0.901
   78SOL    HW1  526   0.906   0.502   0.808
   78SOL    HW2  527   0.958   0.426   0.928
   79SOL     OW  528   0.541   0.043   0.494
   79SOL    HW1  529   0.456   0.038   0.538
   79SOL    HW2  530   0.537   0.123   0.442
   80SOL     OW  531   0.298   0.082   0.198
   80SOL    HW1  532   0.383   0.124   0.185
   80SOL    HW2  533   0.317   2.988   0.195
   81SOL     OW  534   0.947   0.249   0.473
   81SOL    HW1  535   0.920   0.287   0.390
   81SOL    HW2  536   1.042   0.262   0.476
   82SOL     OW  537   1.079   0.682   1.461
   82SOL    HW1  538   1.011   0.615   1.469
   82SOL    HW2  539   1.160   0.633   1.455
   83SOL     OW  540   0.467   1.150   0.739
   83SOL    HW1  541   0.396   1.129   0.799
   83SOL    HW2  542   0.430   1.135   0.652
   84SOL     OW  543   1.049   0.495   0.025
   84SOL    HW1  544   0.999   0.576   0.015
   84SOL    HW2  545   1.111   0.513   0.095
   85SOL     OW  546   0.079   0.571   1.394
   85SOL    HW1  547   0.165   0.566   1.353
   85SOL    HW2  548   0.089   0.632   1.466
   86SOL     OW  549   0.582   0.210   1.177
   86SOL    HW1  550   0.617   0.169   1.256
   86SOL    HW2  551   0.489   0.222   1.196
   87SOL     OW  552   0.880   0.471   0.636
   87SOL    HW1  553   0.816   0.514   0.579
   87SOL    HW2  554   0.884   0.381   0.603
   88SOL     OW  555   1.002   0.053   0.763
   88SOL    HW1  556   0.961   0.065   0.678
   88SOL    HW2  557   0.974   2.966   0.792
   89SOL     OW  558   1.402   1.100   0.875
   89SOL    HW1  559   1.349   1.022   0.860
   89SOL    HW2  560   1.437   1.123   0.789
   90SOL     OW  561   1.472   0.597   0.976
   90SOL    HW1  562   1.417   0.520   0.992
   90SOL    HW2  563   1.531   0.600   1.051
   91SOL     OW  564   1.843   0.806   0.383
   91SOL    HW1  565   1.897   0.755   0.442
   91SOL    HW2  566   1.822   0.745   0.311
   92SOL     OW  567   0.490   1.405   0.156
   92SOL    HW1  568   0.423   1.374   0.217
   92SOL    HW2  569   0.445   1.413   0.072
   93SOL     OW  570   1.427   0.581   0.104
   93SOL    HW1  571   1.348   0.575   0.158
   93SOL    HW2  572   1.463   0.493   0.105
   94SOL     OW  573   0.533   0.264   0.327
   94SOL    HW1  574   0.567   0.212   0.254
   94SOL    HW2  575   0.502   0.345   0.286
   95SOL     OW  576   1.771   1.182   1.593
   95SOL    HW1  577   1.865   1.193   1.574
   95SOL    HW2  578   1.737   1.271   1.596
   96SOL     OW  579   1.053   1.341   1.340
   96SOL    HW1  580   0.981   1.306   1.393
   96SOL    HW2  581   1.131   1.330   1.395
   97SOL     OW  582   1.111   1.177   1.111
   97SOL    HW1  583   1.073   1.227   1.182
   97SOL    HW2  584   1.051   1.188   1.037
   98SOL     OW  585   0.903   0.108   1.390
   98SOL    HW1  586   0.942   0.094   1.304
   98SOL    HW2  587   0.967   0.164   1.436
   99SOL     OW  588   0.924   1.132   1.702
   99SOL    HW1  589   0.837   1.107   1.733
   99SOL    HW2  590   0.962   1.052   1.667
  100SOL     OW  591   0.701   1.065   0.380
  100SOL    HW1  592   0.686   1.053   0.473
  100SOL    HW2  593   0.778   1.012   0.361
  101SOL     OW  594   0.421   0.814   1.248
  101SOL    HW1  595   0.486   0.823   1.317
  101SOL    HW2  596   0.383   0.727   1.261
  102SOL     OW  597   1.272   0.394   1.247
  102SOL    HW1  598   1.300   0.458   1.313
  102SOL    HW2  599   1.177   0.401   1.246
  103SOL     OW  600   0.068   1.578   1.304
  103SOL    HW1  601   0.011   1.643   1.346
  103SOL    HW2  602   0.149   1.581   1.356
  104SOL     OW  603   0.362   1.111   0.490
  104SOL    HW1  604   0.348   1.182   0.428
  104SOL    HW2  605   0.356   1.031   0.437
  105SOL     OW  606   0.557   0.537   0.859
  105SOL    HW1  607   0.575   0.595   0.785
  105SOL    HW2  608   0.617   0.567   0.928
  106SOL     OW  609   1.573   0.631   0.472
  106SOL    HW1  610   1.544   0.686   0.545
  106SOL    HW2  611   1.641   0.684   0.429
  107SOL     OW  612   0.350   1.527   1.322
  107SOL    HW1  613   0.326   1.487   1.239
  107SOL    HW2  614   0.445   1.538   1.317
  108SOL     OW  615   0.411   0.744   1.602
  108SOL    HW1  616   0.472   0.788   1.543
  108SOL    HW2  617   0.449   0.657   1.616
  109SOL     OW  618   1.580   0.790   1.688
  109SOL    HW1  619   1.496   0.780   1.645
  109SOL    HW2  620   1.637   0.830   1.622
  110SOL     OW  621   1.006   0.111   1.762
  110SOL    HW1  622   1.049   0.195   1.744
  110SOL    HW2  623   1.038   0.053   1.693
  111SOL     OW  624   0.504   0.053   1.744
  111SOL    HW1  625   0.462   2.989   1.686
  111SOL    HW2  626   0.437   0.118   1.762
  112SOL     OW  627   0.584   0.870   1.032
  112SOL    HW1  628   0.604   0.964   1.030
  112SOL    HW2  629   0.526   0.860   1.107
  113SOL     OW  630   1.357   0.855   1.029
  113SOL    HW1  631   1.270   0.835   0.997
  113SOL    HW2  632   1.399   0.769   1.040
  114SOL     OW  633   1.207   0.538   0.271
  114SOL    HW1  634   1.219   0.453   0.314
  114SOL    HW2  635   1.157   0.590   0.334
  115SOL     OW  636   0.330   0.208   1.250
  115SOL    HW1  637   0.295   0.255   1.325
  115SOL    HW2  638   0.275   0.130   1.242
  116SOL     OW  639   0.035   1.306   1.279
  116SOL    HW1  640   0.068   1.261   1.357
  116SOL    HW2  641   0.045   1.399   1.299
  117SOL     OW  642   0.726   0.632   1.059
  117SOL    HW1  643   0.798   0.615   0.999
  117SOL    HW2  644   0.697   0.721   1.037
  118SOL     OW  645   1.737   0.962   1.845
  118SOL    HW1  646   1.685   0.903   1.790
  118SOL    HW2  647   1.685   0.971   1.925
  119SOL     OW  648   0.311   0.068   0.643
  119SOL    HW1  649   0.305   0.156   0.681
  119SOL    HW2  650   0.289   0.009   0.716
  120SOL     OW  651   1.615   0.373   0.370
  120SOL    HW1  652   1.647   0.309   0.433
  120SOL    HW2  653   1.586   0.447   0.423
  121SOL     OW  654   1.031   0.759   0.964
  121SOL    HW1  655   1.028   0.777   1.058
  121SOL    HW2  656   1.002   0.668   0.956
  122SOL     OW  657   0.358   0.919   1.805
  122SOL    HW1  658   0.437   0.926   1.858
  122SOL    HW2  659   0.379   0.852   1.740
  123SOL     OW  660   1.497   0.309   0.129
  123SOL    HW1  661   1.465   0.219   0.136
  123SOL    HW2  662   1.559   0.319   0.201
  124SOL     OW  663   0.310   0.807   0.946
  124SOL    HW1  664   0.404   0.823   0.945
  124SOL    HW2  665   0.300   0.723   0.990
  125SOL     OW  666   0.342   0.512   1.017
  125SOL    HW1  667   0.297   0.430   0.994
  125SOL    HW2  668   0.412   0.520   0.953
  126SOL     OW  669   1.137   0.384   1.697
  126SOL    HW1  670   1.095   0.438   1.764
  126SOL    HW2  671   1.228   0.415   1.694
  127SOL     OW  672   1.103   0.260   1.466
  127SOL    HW1  673   1.122   0.307   1.546
  127SOL    HW2  674   1.186   0.221   1.439
  128SOL     OW  675   0.008   1.315   0.174
  128SOL    HW1  676   2.916   1.327   0.151
  128SOL    HW2  677   0.008   1.238   0.231
  129SOL     OW  678   0.099   1.801   0.973
  129SOL    HW1  679   0.051   1.742   0.915
  129SOL    HW2  680   0.182   1.817   0.928
  130SOL     OW  681   0.497   1.577   0.901
  130SOL    HW1  682   0.572   1.627   0.934
  130SOL    HW2  683   0.536   1.509   0.846
  131SOL     OW  684   0.984   0.798   1.230
  131SOL    HW1  685   1.040   0.772   1.303
  131SOL    HW2  686   0.902   0.751   1.245
  132SOL     OW  687   0.060   0.587   1.107
  132SOL    HW1  688   0.126   0.523   1.079
  132SOL    HW2  689   0.014   0.544   1.179
  133SOL     OW  690   0.199   0.520   1.726
  133SOL    HW1  691   0.252   0.477   1.658
  133SOL    HW2  692   0.158   0.594   1.681
  134SOL     OW  693   0.823   0.581   0.342
  134SOL    HW1  694   0.821   0.498   0.294
  134SOL    HW2  695   0.739   0.622   0.322
  135SOL     OW  696   1.640   0.593   1.186
  135SOL    HW1  697   1.632   0.539   1.264
  135SOL    HW2  698   1.730   0.580   1.156
  136SOL     OW  699   0.289   1.558   1.750
  136SOL    HW1  700   0.228   1.621   1.789
  136SOL    HW2  701   0.251   1.472   1.769
  137SOL     OW  702   0.699   0.455   1.263
  137SOL    HW1  703   0.647   0.380   1.235
  137SOL    HW2  704   0.696   0.516   1.190
  138SOL     OW  705   0.921   1.651   1.487
  138SOL    HW1  706   0.892   1.617   1.402
  138SOL    HW2  707   0.903   1.745   1.482
  139SOL     OW  708   0.450   0.494   0.200
  139SOL    HW1  709   0.512   0.565   0.220
  139SOL    HW2  710   0.366   0.539   0.189
  140SOL     OW  711   0.167   1.144   1.465
  140SOL    HW1  712   0.145   1.096   1.545
  140SOL    HW2  713   0.170   1.076   1.397
  141SOL     OW  714   1.329   1.050   1.218
  141SOL    HW1  715   1.356   0.991   1.147
  141SOL    HW2  716   1.252   1.096   1.184
  142SOL     OW  717   1.286   0.851   0.309
  142SOL    HW1  718   1.219   0.813   0.366
  142SOL    HW2  719   1.289   0.792   0.234
  143SOL     OW  720   0.095   1.249   1.026
  143SOL    HW1  721   0.077   1.259   1.120
  143SOL    HW2  722   0.010   1.262   0.984
  144SOL     OW  723   0.880   0.083   0.146
  144SOL    HW1  724   0.926   0.063   0.065
  144SOL    HW2  725   0.920   0.026   0.211
  145SOL     OW  726   1.713   0.141   0.505
  145SOL    HW1  727   1.783   0.142   0.439
  145SOL    HW2  728   1.732   0.064   0.558
  146SOL     OW  729   0.133   1.791   1.839
  146SOL    HW1  730   0.085   1.726   1.891
  146SOL    HW2  731   0.183   1.841   1.904
  147SOL     OW  732   1.286   0.931   0.669
  147SOL    HW1  733   1.350   0.864   0.688
  147SOL    HW2  734   1.313   0.968   0.584
  148SOL     OW  735   0.811   1.271   1.425
  148SOL    HW1  736   0.784   1.297   1.513
  148SOL    HW2  737   0.733   1.282   1.371
  149SOL     OW  738   0.676   1.607   0.156
  149SOL    HW1  739   0.670   1.625   0.063
  149SOL    HW2  740   0.623   1.528   0.169
  150SOL     OW  741   1.849   0.155   0.964
  150SOL    HW1  742   1.858   0.074   0.914
  150SOL    HW2  743   1.766   0.191   0.936
  151SOL     OW  744   0.268   0.336   0.747
  151SOL    HW1  745   0.178   0.364   0.729
  151SOL    HW2  746   0.266   0.304   0.836
  152SOL     OW  747   0.821   1.004   1.370
  152SOL    HW1  748   0.872   0.992   1.290
  152SOL    HW2  749   0.829   1.098   1.389
  153SOL     OW  750   0.906   0.915   0.317
  153SOL    HW1  751   0.963   0.955   0.252
  153SOL    HW2  752   0.962   0.853   0.364
  154SOL     OW  753   0.377   1.307   1.486
  154SOL    HW1  754   0.352   1.385   1.437
  154SOL    HW2  755   0.304   1.246   1.476
  155SOL     OW  756   0.992   1.059   0.652
  155SOL    HW1  757   0.942   1.027   0.727
  155SOL    HW2  758   1.076   1.013   0.658
  156SOL     OW  759   1.019   0.244   0.963
  156SOL    HW1  760   1.012   0.191   0.883
  156SOL    HW2  761   1.020   0.180   1.034
  157SOL     OW  762   0.605   1.499   0.487
  157SOL    HW1  763   0.643   1.443   0.419
  157SOL    HW2  764   0.539   1.550   0.441
  158SOL     OW  765   1.719   0.393   1.378
  158SOL    HW1  766   1.792   0.455   1.379
  158SOL    HW2  767   1.748   0.322   1.321
  159SOL     OW  768   0.265   1.334   0.295
  159SOL    HW1  769   0.176   1.339   0.260
  159SOL    HW2  770   0.261   1.380   0.379
  160SOL     OW  771   0.126   1.020   1.713
  160SOL    HW1  772   0.052   0.968   1.745
  160SOL    HW2  773   0.203   0.981   1.754
  161SOL     OW  774   0.666   0.209   1.490
  161SOL    HW1  775   0.751   0.181   1.455
  161SOL    HW2  776   0.683   0.224   1.583
  162SOL     OW  777   0.070   0.316   0.053
  162SOL    HW1  778   2.978   0.323   0.031
  162SOL    HW2  779   0.109   0.397   0.020
  163SOL     OW  780   1.444   0.833   1.380
  163SOL    HW1  781   1.393   0.904   1.341
  163SOL    HW2  782   1.535   0.862   1.372
  164SOL     OW  783   0.039   0.191   0.293
  164SOL    HW1  784   0.046   0.243   0.214
  164SOL    HW2  785   0.125   0.149   0.302
  165SOL     OW  786   0.617   0.832   1.434
  165SOL    HW1  787   0.675   0.906   1.416
  165SOL    HW2  788   0.675   0.757   1.443
  166SOL     OW  789   0.720   0.565   1.707
  166SOL    HW1  790   0.757   0.626   1.771
  166SOL    HW2  791   0.753   0.479   1.733
  167SOL     OW  792   0.390   1.733   1.565
  167SOL    HW1  793   0.307   1.776   1.547
  167SOL    HW2  794   0.367   1.656   1.618
  168SOL     OW  795   1.228   0.318   0.452
  168SOL    HW1  796   1.288   0.243   0.453
  168SOL    HW2  797   1.250   0.368   0.531
  169SOL     OW  798   0.594   0.740   0.665
  169SOL    HW1  799   0.630   0.828   0.650
  169SOL    HW2  800   0.521   0.734   0.603
  170SOL     OW  801   1.758   0.347   1.649
  170SOL    HW1  802   1.737   0.368   1.558
  170SOL    HW2  803   1.679   0.304   1.682
  171SOL     OW  804   1.717   0.930   1.513
  171SOL    HW1  805   1.738   1.015   1.553
  171SOL    HW2  806   1.760   0.933   1.427
  172SOL     OW  807   0.675   1.805   0.963
  172SOL    HW1  808   0.628   1.883   0.934
  172SOL    HW2  809   0.741   1.791   0.895
  173SOL     OW  810   0.864   0.962   0.865
  173SOL    HW1  811   0.913   0.890   0.905
  173SOL    HW2  812   0.829   1.011   0.939
  174SOL     OW  813   1.047   1.013   0.121
  174SOL    HW1  814   1.028   1.067   0.044
  174SOL    HW2  815   1.105   0.945   0.089
  175SOL     OW  816   0.226   1.302   1.857
  175SOL    HW1  817   0.174   1.227   1.828
  175SOL    HW2  818   0.207   1.311   1.950
  176SOL     OW  819   0.128   1.251   0.665
  176SOL    HW1  820   0.076   1.186   0.713
  176SOL    HW2  821   0.174   1.199   0.598
  177SOL     OW  822   0.655   1.399   1.613
  177SOL    HW1  823   0.589   1.336   1.643
  177SOL    HW2  824   0.606   1.466   1.566
  178SOL     OW  825   1.808   0.189   1.231
  178SOL    HW1  826   1.838   0.109   1.276
  178SOL    HW2  827   1.833   0.176   1.140
  179SOL     OW  828   0.465   0.433   0.547
  179SOL    HW1  829   0.456   0.372   0.474
  179SOL    HW2  830   0.403   0.401   0.613
  180SOL     OW  831   0.335   0.559   1.292
  180SOL    HW1  832   0.384   0.498   1.347
  180SOL    HW2  833   0.347   0.526   1.203
  181SOL     OW  834   0.821   1.575   0.687
  181SOL    HW1  835   0.813   1.626   0.606
  181SOL    HW2  836   0.743   1.520   0.688
  182SOL     OW  837   1.425   0.206   1.133
  182SOL    HW1  838   1.475   0.164   1.203
  182SOL    HW2  839   1.374   0.274   1.178
  183SOL     OW  840   1.014   0.033   1.148
  183SOL    HW1  841   0.940   2.991   1.103
  183SOL    HW2  842   1.082   2.965   1.149
  184SOL     OW  843   0.770   1.332   0.334
  184SOL    HW1  844   0.726   1.247   0.331
  184SOL    HW2  845   0.863   1.310   0.334
  185SOL     OW  846   0.619   1.558   1.292
  185SOL    HW1  847   0.619   1.644   1.334
  185SOL    HW2  848   0.707   1.551   1.253
  186SOL     OW  849   1.358   0.056   0.173
  186SOL    HW1  850   1.412   2.986   0.137
  186SOL    HW2  851   1.268   0.031   0.149
  187SOL     OW  852   1.300   0.461   0.683
  187SOL    HW1  853   1.242   0.536   0.691
  187SOL    HW2  854   1.296   0.417   0.768
  188SOL     OW  855   1.600   0.225   0.882
  188SOL    HW1  856   1.527   0.234   0.944
  188SOL    HW2  857   1.595   0.304   0.828
  189SOL     OW  858   0.071   1.089   0.340
  189SOL    HW1  859   0.149   1.049   0.302
  189SOL    HW2  860   0.005   1.019   0.340
  190SOL     OW  861   0.880   1.664   0.329
  190SOL    HW1  862   0.811   1.631   0.272
  190SOL    HW2  863   0.837   1.726   0.388
  191SOL     OW  864   0.240   0.652   1.972
  191SOL    HW1  865   0.173   0.612   2.028
  191SOL    HW2  866   0.230   0.608   1.887
  192SOL     OW  867   0.234   0.247   2.853
  192SOL    HW1  868   0.247   0.234   2.947
  192SOL    HW2  869   0.141   0.233   2.839
  193SOL     OW  870   0.010   0.383   2.514
  193SOL    HW1  871   2.928   0.422   2.543
  193SOL    HW2  872   2.983   0.309   2.460
  194SOL     OW  873   1.138   0.692   2.573
  194SOL    HW1  874   1.174   0.775   2.542
  194SOL    HW2  875   1.083   0.716   2.647
  195SOL     OW  876   1.747   0.602   2.098
  195SOL    HW1  877   1.738   0.596   2.003
  195SOL    HW2  878   1.724   0.515   2.129
  196SOL     OW  879   0.760   1.155   2.895
  196SOL    HW1  880   0.686   1.201   2.935
  196SOL    HW2  881   0.806   1.222   2.844
  197SOL     OW  882   0.684   1.007   2.508
  197SOL    HW1  883   0.750   0.994   2.576
  197SOL    HW2  884   0.615   1.057   2.551
  198SOL     OW  885   0.333   1.451   2.934
  198SOL    HW1  886   0.278   1.389   2.885
  198SOL    HW2  887   0.389   1.491   2.868
  199SOL     OW  888   1.616   0.448   2.591
  199SOL    HW1  889   1.537   0.469   2.540
  199SOL    HW2  890   1.618   0.515   2.660
  200SOL     OW  891   0.219   1.711   2.350
  200SOL    HW1  892   0.239   1.795   2.391
  200SOL    HW2  893   0.276   1.707   2.273
  201SOL     OW  894   0.249   1.445   2.388
  201SOL    HW1  895   0.219   1.536   2.390
  201SOL    HW2  896   0.189   1.399   2.446
  202SOL     OW  897   0.237   1.083   2.748
  202SOL    HW1  898   0.258   1.002   2.795
  202SOL    HW2  899   0.193   1.138   2.813
  203SOL     OW  900   0.583   0.974   2.001
  203SOL    HW1  901   0.622   1.027   1.931
  203SOL    HW2  902   0.627   1.003   2.081
  204SOL     OW  903   0.125   0.627   2.433
  204SOL    HW1  904   0.088   0.548   2.474
  204SOL    HW2  905   0.120   0.694   2.501
  205SOL     OW  906   1.805   1.784   2.223
  205SOL    HW1  907   1.874   1.735   2.268
  205SOL    HW2  908   1.851   1.848   2.170
  206SOL     OW  909   0.031   1.597   1.998
  206SOL    HW1  910   0.020   1.503   2.009
  206SOL    HW2  911   2.977   1.635   2.067
  207SOL     OW  912   0.603   1.385   2.595
  207SOL    HW1  913   0.563   1.298   2.601
  207SOL    HW2  914   0.590   1.412   2.504
  208SOL     OW  915   0.821   0.011   2.376
  208SOL    HW1  916   0.852   0.099   2.354
  208SOL    HW2  917   0.727   0.015   2.359
  209SOL     OW  918   0.596   0.723   2.127
  209SOL    HW1  919   0.600   0.802   2.074
  209SOL    HW2  920   0.530   0.742   2.194
  210SOL     OW  921   1.291   0.345   2.808
  210SOL    HW1  922   1.197   0.327   2.804
  210SOL    HW2  923   1.322   0.294   2.882
  211SOL     OW  924   1.039   0.696   2.293
  211SOL    HW1  925   1.054   0.683   2.387
  211SOL    HW2  926   0.959   0.645   2.275
  212SOL     OW  927   0.103   0.815   2.626
  212SOL    HW1  928   0.182   0.812   2.681
  212SOL    HW2  929   0.050   0.884   2.666
  213SOL     OW  930   0.872   0.355   2.046
  213SOL    HW1  931   0.931   0.414   2.000
  213SOL    HW2  932   0.912   0.268   2.036
  214SOL     OW  933   0.559   0.196   2.838
  214SOL    HW1  934   0.505   0.269   2.869
  214SOL    HW2  935   0.576   0.217   2.746
  215SOL     OW  936   0.925   1.451   2.358
  215SOL    HW1  937   0.953   1.528   2.309
  215SOL    HW2  938   1.000   1.430   2.413
  216SOL     OW  939   0.346   1.791   2.708
  216SOL    HW1  940   0.403   1.716   2.727
  216SOL    HW2  941   0.393   1.867   2.744
  217SOL     OW  942   0.313   0.949   2.106
  217SOL    HW1  943   0.396   0.972   2.066
  217SOL    HW2  944   0.292   0.862   2.070
  218SOL     OW  945   1.476   0.743   2.579
  218SOL    HW1  946   1.454   0.656   2.613
  218SOL    HW2  947   1.571   0.744   2.575
  219SOL     OW  948   1.102   1.783   2.084
  219SOL    HW1  949   1.032   1.741   2.134
  219SOL    HW2  950   1.137   1.714   2.028
  220SOL     OW  951   0.467   1.742   2.185
  220SOL    HW1  952   0.496   1.792   2.262
  220SOL    HW2  953   0.541   1.744   2.125
  221SOL     OW  954   1.408   0.126   2.292
  221SOL    HW1  955   1.388   0.087   2.207
  221SOL    HW2  956   1.499   0.102   2.309
  222SOL     OW  957   0.254   1.797   0.101
  222SOL    HW1  958   0.294   1.719   0.141
  222SOL    HW2  959   0.200   1.762   0.030
  223SOL     OW  960   0.393   0.692   2.338
  223SOL    HW1  961   0.426   0.603   2.352
  223SOL    HW2  962   0.300   0.687   2.360
  224SOL     OW  963   0.626   0.119   1.973
  224SOL    HW1  964   0.715   0.085   1.964
  224SOL    HW2  965   0.584   0.102   1.889
  225SOL     OW  966   0.920   0.521   2.757
  225SOL    HW1  967   0.902   0.501   2.666
  225SOL    HW2  968   0.952   0.438   2.794
  226SOL     OW  969   0.548   0.061   2.366
  226SOL    HW1  970   0.461   0.044   2.403
  226SOL    HW2  971   0.535   0.131   2.303
  227SOL     OW  972   0.310   0.028   2.021
  227SOL    HW1  973   0.347   0.116   2.027
  227SOL    HW2  974   0.347   2.981   2.096
  228SOL     OW  975   0.939   0.254   2.326
  228SOL    HW1  976   0.910   0.296   2.245
  228SOL    HW2  977   1.034   0.263   2.324
  229SOL     OW  978   0.463   1.144   2.602
  229SOL    HW1  979   0.389   1.128   2.661
  229SOL    HW2  980   0.427   1.129   2.515
  230SOL     OW  981   1.246   1.833   2.526
  230SOL    HW1  982   1.292   1.794   2.451
  230SOL    HW2  983   1.204   1.911   2.490
  231SOL     OW  984   1.025   0.549   1.888
  231SOL    HW1  985   0.987   0.634   1.867
  231SOL    HW2  986   1.093   0.568   1.952
  232SOL     OW  987   0.875   0.469   2.496
  232SOL    HW1  988   0.820   0.514   2.431
  232SOL    HW2  989   0.890   0.382   2.459
  233SOL     OW  990   0.996   0.052   2.625
  233SOL    HW1  991   0.966   0.058   2.534
  233SOL    HW2  992   0.974   2.962   2.651
  234SOL     OW  993   1.484   0.578   2.822
  234SOL    HW1  994   1.424   0.503   2.815
  234SOL    HW2  995   1.504   0.583   2.916
  235SOL     OW  996   1.886   0.796   2.220
  235SOL    HW1  997   1.922   0.743   2.292
  235SOL    HW2  998   1.835   0.734   2.168
  236SOL     OW  999   0.492   1.409   2.010
  236SOL    HW1 1000   0.427   1.381   2.074
  236SOL    HW2 1001   0.445   1.412   1.927
  237SOL     OW 1002   1.407   0.563   1.946
  237SOL    HW1 1003   1.338   0.552   2.011
  237SOL    HW2 1004   1.467   0.490   1.961
  238SOL     OW 1005   0.529   0.263   2.181
  238SOL    HW1 1006   0.567   0.211   2.111
  238SOL    HW2 1007   0.508   0.347   2.141
  239SOL     OW 1008   0.711   1.054   2.234
  239SOL    HW1 1009   0.697   1.040   2.327
  239SOL    HW2 1010   0.789   1.002   2.213
  240SOL     OW 1011   0.354   1.107   2.354
  240SOL    HW1 1012   0.353   1.180   2.291
  240SOL    HW2 1013   0.355   1.028   2.300
  241SOL     OW 1014   0.546   0.550   2.735
  241SOL    HW1 1015   0.566   0.593   2.652
  241SOL    HW2 1016   0.622   0.569   2.791
  242SOL     OW 1017   1.597   0.636   2.352
  242SOL    HW1 1018   1.526   0.697   2.372
  242SOL    HW2 1019   1.628   0.663   2.266
  243SOL     OW 1020   0.578   0.868   2.880
  243SOL    HW1 1021   0.614   0.952   2.853
  243SOL    HW2 1022   0.550   0.882   2.971
  244SOL     OW 1023   1.210   0.538   2.133
  244SOL    HW1 1024   1.211   0.455   2.181
  244SOL    HW2 1025   1.162   0.598   2.190
  245SOL     OW 1026   0.740   0.648   2.922
  245SOL    HW1 1027   0.798   0.617   2.852
  245SOL    HW2 1028   0.697   0.725   2.885
  246SOL     OW 1029   0.319   0.061   2.508
  246SOL    HW1 1030   0.299   0.151   2.534
  246SOL    HW2 1031   0.286   0.007   2.580
  247SOL     OW 1032   1.629   0.374   2.249
  247SOL    HW1 1033   1.653   0.303   2.308
  247SOL    HW2 1034   1.602   0.445   2.307
  248SOL     OW 1035   1.024   0.761   2.826
  248SOL    HW1 1036   1.019   0.764   2.922
  248SOL    HW2 1037   0.996   0.673   2.803
  249SOL     OW 1038   1.519   0.328   2.009
  249SOL    HW1 1039   1.497   0.237   1.990
  249SOL    HW2 1040   1.559   0.325   2.096
  250SOL     OW 1041   1.270   0.789   1.891
  250SOL    HW1 1042   1.326   0.716   1.916
  250SOL    HW2 1043   1.320   0.837   1.825
  251SOL     OW 1044   0.311   0.811   2.813
  251SOL    HW1 1045   0.405   0.828   2.807
  251SOL    HW2 1046   0.304   0.721   2.845
  252SOL     OW 1047   0.320   0.520   2.875
  252SOL    HW1 1048   0.288   0.433   2.849
  252SOL    HW2 1049   0.399   0.533   2.822
  253SOL     OW 1050   2.996   1.318   2.039
  253SOL    HW1 1051   2.903   1.321   2.016
  253SOL    HW2 1052   0.004   1.238   2.092
  254SOL     OW 1053   0.084   1.802   2.822
  254SOL    HW1 1054   0.061   1.730   2.764
  254SOL    HW2 1055   0.168   1.834   2.790
  255SOL     OW 1056   0.510   1.574   2.765
  255SOL    HW1 1057   0.582   1.634   2.783
  255SOL    HW2 1058   0.547   1.506   2.709
  256SOL     OW 1059   0.985   0.745   0.096
  256SOL    HW1 1060   1.010   0.731   0.187
  256SOL    HW2 1061   0.891   0.764   0.100
  257SOL     OW 1062   0.812   0.567   2.216
  257SOL    HW1 1063   0.817   0.493   2.156
  257SOL    HW2 1064   0.736   0.618   2.186
  258SOL     OW 1065   0.701   0.439   0.091
  258SOL    HW1 1066   0.607   0.428   0.099
  258SOL    HW2 1067   0.711   0.517   0.035
  259SOL     OW 1068   0.467   0.494   2.050
  259SOL    HW1 1069   0.526   0.567   2.068
  259SOL    HW2 1070   0.381   0.535   2.041
  260SOL     OW 1071   0.072   1.245   2.904
  260SOL    HW1 1072   0.046   1.277   2.990
  260SOL    HW2 1073   0.005   1.278   2.845
  261SOL     OW 1074   1.726   0.136   2.378
  261SOL    HW1 1075   1.785   0.123   2.304
  261SOL    HW2 1076   1.711   0.048   2.412
  262SOL     OW 1077   1.271   0.916   2.509
  262SOL    HW1 1078   1.348   0.859   2.516
  262SOL    HW2 1079   1.307   1.005   2.505
  263SOL     OW 1080   1.851   0.167   2.816
  263SOL    HW1 1081   1.849   0.081   2.774
  263SOL    HW2 1082   1.766   0.205   2.798
  264SOL     OW 1083   0.273   0.351   2.610
  264SOL    HW1 1084   0.180   0.368   2.592
  264SOL    HW2 1085   0.272   0.305   2.695
  265SOL     OW 1086   0.927   0.911   2.142
  265SOL    HW1 1087   1.005   0.931   2.090
  265SOL    HW2 1088   0.954   0.837   2.197
  266SOL     OW 1089   1.024   1.096   2.547
  266SOL    HW1 1090   0.967   1.046   2.606
  266SOL    HW2 1091   1.102   1.042   2.538
  267SOL     OW 1092   1.020   0.249   2.808
  267SOL    HW1 1093   1.011   0.185   2.738
  267SOL    HW2 1094   1.041   0.197   2.886
  268SOL     OW 1095   0.589   1.498   2.339
  268SOL    HW1 1096   0.624   1.434   2.278
  268SOL    HW2 1097   0.515   1.538   2.293
  269SOL     OW 1098   0.256   1.347   2.144
  269SOL    HW1 1099   0.162   1.342   2.128
  269SOL    HW2 1100   0.264   1.385   2.231
  270SOL     OW 1101   0.093   0.321   1.912
  270SOL    HW1 1102   0.018   0.281   1.867
  270SOL    HW2 1103   0.104   0.406   1.870
  271SOL     OW 1104   0.035   0.223   2.161
  271SOL    HW1 1105   0.067   0.252   2.076
  271SOL    HW2 1106   0.058   0.130   2.164
  272SOL     OW 1107   1.717   0.772   0.094
  272SOL    HW1 1108   1.630   0.740   0.118
  272SOL    HW2 1109   1.717   0.863   0.125
  273SOL     OW 1110   1.220   0.322   2.322
  273SOL    HW1 1111   1.282   0.251   2.309
  273SOL    HW2 1112   1.253   0.368   2.400
  274SOL     OW 1113   0.592   0.742   2.530
  274SOL    HW1 1114   0.630   0.828   2.512
  274SOL    HW2 1115   0.522   0.733   2.466
  275SOL     OW 1116   0.669   1.808   2.822
  275SOL    HW1 1117   0.618   1.888   2.809
  275SOL    HW2 1118   0.736   1.811   2.753
  276SOL     OW 1119   0.859   0.960   2.721
  276SOL    HW1 1120   0.915   0.893   2.760
  276SOL    HW2 1121   0.834   1.017   2.794
  277SOL     OW 1122   0.125   1.249   2.524
  277SOL    HW1 1123   0.092   1.183   2.584
  277SOL    HW2 1124   0.181   1.200   2.463
  278SOL     OW 1125   1.800   0.187   0.082
  278SOL    HW1 1126   1.834   0.106   0.121
  278SOL    HW2 1127   1.827   0.182   2.990
  279SOL     OW 1128   0.472   0.436   2.405
  279SOL    HW1 1129   0.460   0.375   2.332
  279SOL    HW2 1130   0.409   0.406   2.471
  280SOL     OW 1131   0.764   1.616   2.529
  280SOL    HW1 1132   0.796   1.584   2.445
  280SOL    HW2 1133   0.725   1.540   2.571
  281SOL     OW 1134   0.739   1.324   2.202
  281SOL    HW1 1135   0.721   1.230   2.210
  281SOL    HW2 1136   0.810   1.340   2.264
  282SOL     OW 1137   1.339   0.051   2.035
  282SOL    HW1 1138   1.401   0.024   1.967
  282SOL    HW2 1139   1.269   2.986   2.030
  283SOL     OW 1140   1.314   0.473   2.559
  283SOL    HW1 1141   1.241   0.534   2.557
  283SOL    HW2 1142   1.297   0.417   2.635
  284SOL     OW 1143   1.597   0.243   2.770
  284SOL    HW1 1144   1.510   0.203   2.766
  284SOL    HW2 1145   1.599   0.303   2.696
  285SOL     OW 1146   0.065   1.084   2.168
  285SOL    HW1 1147   0.151   1.043   2.163
  285SOL    HW2 1148   0.007   1.014   2.196
  286SOL     OW 1149   0.861   1.668   2.197
  286SOL    HW1 1150   0.786   1.610   2.210
  286SOL    HW2 1151   0.846   1.741   2.257
  287SOL     OW 1152   0.229   2.531   0.123
  287SOL    HW1 1153   0.165   2.476   0.169
  287SOL    HW2 1154   0.250   2.482   0.043
  288SOL     OW 1155   0.210   2.134   0.989
  288SOL    HW1 1156   0.240   2.106   1.076
  288SOL    HW2 1157   0.120   2.105   0.983
  289SOL     OW 1158   0.015   2.246   0.646
  289SOL    HW1 1159   2.932   2.284   0.675
  289SOL    HW2 1160   2.990   2.166   0.601
  290SOL     OW 1161   1.144   2.559   0.710
  290SOL    HW1 1162   1.188   2.642   0.690
  290SOL    HW2 1163   1.089   2.578   0.786
  291SOL     OW 1164   1.705   2.441   0.205
  291SOL    HW1 1165   1.768   2.454   0.135
  291SOL    HW2 1166   1.749   2.381   0.266
  292SOL     OW 1167   0.759   0.009   1.031
  292SOL    HW1 1168   0.677   0.038   1.071
  292SOL    HW2 1169   0.781   0.079   0.968
  293SOL     OW 1170   0.864   2.637   1.823
  293SOL    HW1 1171   0.842   2.699   1.893
  293SOL    HW2 1172   0.888   2.693   1.749
  294SOL     OW 1173   0.652   2.851   0.712
  294SOL    HW1 1174   0.747   2.865   0.718
  294SOL    HW2 1175   0.620   2.926   0.664
  295SOL     OW 1176   0.478   2.263   1.474
  295SOL    HW1 1177   0.538   2.192   1.497
  295SOL    HW2 1178   0.391   2.229   1.495
  296SOL     OW 1179   0.222   0.314   0.466
  296SOL    HW1 1180   0.206   0.383   0.530
  296SOL    HW2 1181   0.196   0.234   0.511
  297SOL     OW 1182   0.242   2.951   0.885
  297SOL    HW1 1183   0.253   2.864   0.923
  297SOL    HW2 1184   0.181   2.996   0.944
  298SOL     OW 1185   0.614   2.834   0.151
  298SOL    HW1 1186   0.599   2.925   0.124
  298SOL    HW2 1187   0.674   2.840   0.225
  299SOL     OW 1188   1.540   2.018   1.463
  299SOL    HW1 1189   1.601   2.069   1.410
  299SOL    HW2 1190   1.578   2.019   1.551
  300SOL     OW 1191   0.127   2.493   0.567
  300SOL    HW1 1192   0.091   2.412   0.605
  300SOL    HW2 1193   0.119   2.558   0.637
  301SOL     OW 1194   1.688   2.792   0.623
  301SOL    HW1 1195   1.773   2.750   0.638
  301SOL    HW2 1196   1.691   2.819   0.531
  302SOL     OW 1197   0.125   2.606   1.586
  302SOL    HW1 1198   0.218   2.626   1.598
  302SOL    HW2 1199   0.080   2.689   1.604
  303SOL     OW 1200   0.664   0.239   0.676
  303SOL    HW1 1201   0.603   0.184   0.725
  303SOL    HW2 1202   0.608   0.298   0.625
  304SOL     OW 1203   1.301   0.065   1.439
  304SOL    HW1 1204   1.367   0.019   1.387
  304SOL    HW2 1205   1.350   0.106   1.509
  305SOL     OW 1206   0.812   1.859   0.510
  305SOL    HW1 1207   0.850   1.947   0.498
  305SOL    HW2 1208   0.718   1.874   0.514
  306SOL     OW 1209   0.192   2.836   1.257
  306SOL    HW1 1210   0.271   2.784   1.245
  306SOL    HW2 1211   0.121   2.778   1.229
  307SOL     OW 1212   1.522   2.835   0.208
  307SOL    HW1 1213   1.456   2.791   0.262
  307SOL    HW2 1214   1.589   2.863   0.270
  308SOL     OW 1215   0.337   2.116   1.807
  308SOL    HW1 1216   0.377   2.200   1.829
  308SOL    HW2 1217   0.248   2.121   1.842
  309SOL     OW 1218   0.599   2.586   0.273
  309SOL    HW1 1219   0.600   2.663   0.216
  309SOL    HW2 1220   0.527   2.602   0.335
  310SOL     OW 1221   1.242   2.189   0.949
  310SOL    HW1 1222   1.149   2.182   0.967
  310SOL    HW2 1223   1.284   2.173   1.034
  311SOL     OW 1224   0.805   2.466   1.455
  311SOL    HW1 1225   0.770   2.454   1.543
  311SOL    HW2 1226   0.754   2.406   1.400
  312SOL     OW 1227   1.385   2.328   1.677
  312SOL    HW1 1228   1.390   2.378   1.758
  312SOL    HW2 1229   1.455   2.263   1.684
  313SOL     OW 1230   0.960   2.752   1.589
  313SOL    HW1 1231   1.020   2.691   1.545
  313SOL    HW2 1232   0.910   2.792   1.517
  314SOL     OW 1233   1.048   2.561   0.418
  314SOL    HW1 1234   1.055   2.563   0.513
  314SOL    HW2 1235   0.965   2.516   0.401
  315SOL     OW 1236   0.103   2.674   0.763
  315SOL    HW1 1237   0.177   2.678   0.824
  315SOL    HW2 1238   0.036   2.729   0.803
  316SOL     OW 1239   0.935   2.182   0.215
  316SOL    HW1 1240   0.940   2.256   0.155
  316SOL    HW2 1241   0.862   2.129   0.182
  317SOL     OW 1242   1.699   2.434   1.830
  317SOL    HW1 1243   1.673   2.515   1.788
  317SOL    HW2 1244   1.740   2.383   1.760
  318SOL     OW 1245   0.564   2.047   0.892
  318SOL    HW1 1246   0.552   2.076   0.983
  318SOL    HW2 1247   0.546   2.125   0.840
  319SOL     OW 1248   1.789   2.904   0.866
  319SOL    HW1 1249   1.726   2.897   0.794
  319SOL    HW2 1250   1.735   2.916   0.944
  320SOL     OW 1251   1.492   2.600   0.721
  320SOL    HW1 1252   1.462   2.598   0.812
  320SOL    HW2 1253   1.558   2.670   0.719
  321SOL     OW 1254   0.236   2.167   1.506
  321SOL    HW1 1255   0.161   2.220   1.481
  321SOL    HW2 1256   0.200   2.096   1.558
  322SOL     OW 1257   0.394   2.554   0.478
  322SOL    HW1 1258   0.415   2.461   0.485
  322SOL    HW2 1259   0.300   2.559   0.496
  323SOL     OW 1260   1.542   2.094   1.742
  323SOL    HW1 1261   1.571   2.108   1.832
  323SOL    HW2 1262   1.507   2.005   1.742
  324SOL     OW 1263   0.632   1.968   0.133
  324SOL    HW1 1264   0.719   1.941   0.103
  324SOL    HW2 1265   0.578   1.963   0.055
  325SOL     OW 1266   0.763   2.135   1.748
  325SOL    HW1 1267   0.837   2.077   1.767
  325SOL    HW2 1268   0.718   2.145   1.831
  326SOL     OW 1269   1.350   2.445   1.433
  326SOL    HW1 1270   1.376   2.415   1.520
  326SOL    HW2 1271   1.380   2.535   1.428
  327SOL     OW 1272   0.936   2.376   0.899
  327SOL    HW1 1273   0.908   2.374   0.808
  327SOL    HW2 1274   0.932   2.285   0.928
  328SOL     OW 1275   0.551   1.927   0.508
  328SOL    HW1 1276   0.467   1.927   0.553
  328SOL    HW2 1277   0.547   2.002   0.449
  329SOL     OW 1278   0.947   2.102   0.476
  329SOL    HW1 1279   0.903   2.133   0.397
  329SOL    HW2 1280   1.040   2.122   0.461
  330SOL     OW 1281   1.082   2.537   1.443
  330SOL    HW1 1282   1.008   2.492   1.484
  330SOL    HW2 1283   1.159   2.494   1.478
  331SOL     OW 1284   1.052   2.353   0.023
  331SOL    HW1 1285   0.987   2.408   2.978
  331SOL    HW2 1286   1.097   2.414   0.082
  332SOL     OW 1287   0.095   2.401   1.409
  332SOL    HW1 1288   0.171   2.423   1.355
  332SOL    HW2 1289   0.082   2.478   1.464
  333SOL     OW 1290   0.562   2.077   1.168
  333SOL    HW1 1291   0.578   1.988   1.198
  333SOL    HW2 1292   0.470   2.093   1.190
  334SOL     OW 1293   0.876   2.318   0.642
  334SOL    HW1 1294   0.816   2.378   0.597
  334SOL    HW2 1295   0.884   2.243   0.583
  335SOL     OW 1296   1.429   2.987   0.871
  335SOL    HW1 1297   1.353   2.946   0.829
  335SOL    HW2 1298   1.450   0.061   0.815
  336SOL     OW 1299   1.819   2.663   0.392
  336SOL    HW1 1300   1.889   2.617   0.438
  336SOL    HW2 1301   1.824   2.631   0.302
  337SOL     OW 1302   1.414   2.423   0.100
  337SOL    HW1 1303   1.340   2.421   0.161
  337SOL    HW2 1304   1.488   2.454   0.153
  338SOL     OW 1305   0.533   2.128   0.332
  338SOL    HW1 1306   0.550   2.070   0.257
  338SOL    HW2 1307   0.502   2.209   0.292
  339SOL     OW 1308   1.787   0.058   1.578
  339SOL    HW1 1309   1.882   0.049   1.570
  339SOL    HW2 1310   1.775   0.135   1.634
  340SOL     OW 1311   1.621   2.954   1.079
  340SOL    HW1 1312   1.638   0.032   1.132
  340SOL    HW2 1313   1.553   2.982   1.017
  341SOL     OW 1314   0.418   2.677   1.247
  341SOL    HW1 1315   0.482   2.687   1.318
  341SOL    HW2 1316   0.378   2.591   1.263
  342SOL     OW 1317   1.277   2.284   1.224
  342SOL    HW1 1318   1.329   2.308   1.301
  342SOL    HW2 1319   1.211   2.352   1.217
  343SOL     OW 1320   0.571   2.391   0.858
  343SOL    HW1 1321   0.574   2.448   0.781
  343SOL    HW2 1322   0.605   2.445   0.929
  344SOL     OW 1323   1.590   2.486   0.479
  344SOL    HW1 1324   1.547   2.541   0.545
  344SOL    HW2 1325   1.640   2.548   0.426
  345SOL     OW 1326   0.413   2.598   1.603
  345SOL    HW1 1327   0.468   2.650   1.545
  345SOL    HW2 1328   0.464   2.520   1.622
  346SOL     OW 1329   1.581   2.620   1.659
  346SOL    HW1 1330   1.506   2.679   1.671
  346SOL    HW2 1331   1.645   2.672   1.610
  347SOL     OW 1332   0.998   1.980   1.744
  347SOL    HW1 1333   1.048   2.060   1.731
  347SOL    HW2 1334   1.065   1.912   1.755
  348SOL     OW 1335   0.506   1.914   1.740
  348SOL    HW1 1336   0.463   1.851   1.683
  348SOL    HW2 1337   0.439   1.981   1.757
  349SOL     OW 1338   0.594   2.727   1.040
  349SOL    HW1 1339   0.591   2.816   1.005
  349SOL    HW2 1340   0.527   2.725   1.108
  350SOL     OW 1341   1.364   2.676   0.996
  350SOL    HW1 1342   1.278   2.712   0.975
  350SOL    HW2 1343   1.362   2.661   1.091
  351SOL     OW 1344   1.223   2.384   0.288
  351SOL    HW1 1345   1.185   2.306   0.327
  351SOL    HW2 1346   1.176   2.457   0.329
  352SOL     OW 1347   0.301   2.068   1.243
  352SOL    HW1 1348   0.274   2.098   1.329
  352SOL    HW2 1349   0.285   1.973   1.244
  353SOL     OW 1350   0.061   0.184   1.258
  353SOL    HW1 1351   0.057   0.127   1.335
  353SOL    HW2 1352   2.995   0.251   1.274
  354SOL     OW 1353   0.735   2.500   1.069
  354SOL    HW1 1354   0.788   2.488   0.990
  354SOL    HW2 1355   0.692   2.584   1.056
  355SOL     OW 1356   1.741   2.803   1.848
  355SOL    HW1 1357   1.679   2.810   1.776
  355SOL    HW2 1358   1.687   2.817   1.926
  356SOL     OW 1359   0.304   1.933   0.620
  356SOL    HW1 1360   0.284   2.022   0.646
  356SOL    HW2 1361   0.303   1.883   0.701
  357SOL     OW 1362   1.590   2.233   0.400
  357SOL    HW1 1363   1.656   2.187   0.452
  357SOL    HW2 1364   1.594   2.324   0.431
  358SOL     OW 1365   1.041   2.615   0.968
  358SOL    HW1 1366   1.026   2.636   1.060
  358SOL    HW2 1367   0.999   2.531   0.955
  359SOL     OW 1368   0.360   2.786   1.797
  359SOL    HW1 1369   0.421   2.783   1.871
  359SOL    HW2 1370   0.384   2.710   1.744
  360SOL     OW 1371   1.297   2.687   0.034
  360SOL    HW1 1372   1.327   2.596   0.029
  360SOL    HW2 1373   1.321   2.725   2.950
  361SOL     OW 1374   0.311   2.677   0.948
  361SOL    HW1 1375   0.405   2.687   0.937
  361SOL    HW2 1376   0.300   2.594   0.994
  362SOL     OW 1377   0.350   2.368   1.017
  362SOL    HW1 1378   0.297   2.292   0.992
  362SOL    HW2 1379   0.415   2.376   0.946
  363SOL     OW 1380   1.125   2.233   1.673
  363SOL    HW1 1381   1.086   2.293   1.738
  363SOL    HW2 1382   1.216   2.261   1.668
  364SOL     OW 1383   0.984   2.657   1.223
  364SOL    HW1 1384   1.035   2.632   1.300
  364SOL    HW2 1385   0.894   2.635   1.246
  365SOL     OW 1386   0.060   2.442   1.121
  365SOL    HW1 1387   0.120   2.377   1.083
  365SOL    HW2 1388   0.020   2.397   1.195
  366SOL     OW 1389   0.194   2.383   1.719
  366SOL    HW1 1390   0.260   2.358   1.654
  366SOL    HW2 1391   0.155   2.463   1.684
  367SOL     OW 1392   1.386   2.816   1.667
  367SOL    HW1 1393   1.406   2.909   1.678
  367SOL    HW2 1394   1.377   2.804   1.572
  368SOL     OW 1395   0.817   2.433   0.345
  368SOL    HW1 1396   0.802   2.362   0.282
  368SOL    HW2 1397   0.742   2.491   0.333
  369SOL     OW 1398   1.642   2.460   1.185
  369SOL    HW1 1399   1.637   2.422   1.272
  369SOL    HW2 1400   1.733   2.446   1.158
  370SOL     OW 1401   0.721   2.294   1.253
  370SOL    HW1 1402   0.644   2.240   1.235
  370SOL    HW2 1403   0.710   2.370   1.196
  371SOL     OW 1404   0.450   2.359   0.223
  371SOL    HW1 1405   0.511   2.433   0.228
  371SOL    HW2 1406   0.373   2.395   0.179
  372SOL     OW 1407   0.181   0.013   1.467
  372SOL    HW1 1408   0.156   2.963   1.545
  372SOL    HW2 1409   0.181   2.948   1.397
  373SOL     OW 1410   1.331   2.886   1.210
  373SOL    HW1 1411   1.376   2.874   1.127
  373SOL    HW2 1412   1.300   2.976   1.208
  374SOL     OW 1413   1.308   2.703   0.313
  374SOL    HW1 1414   1.222   2.690   0.353
  374SOL    HW2 1415   1.291   2.704   0.219
  375SOL     OW 1416   0.903   1.921   0.105
  375SOL    HW1 1417   0.979   1.963   0.064
  375SOL    HW2 1418   0.936   1.890   0.189
  376SOL     OW 1419   1.740   2.022   0.532
  376SOL    HW1 1420   1.806   2.017   0.463
  376SOL    HW2 1421   1.733   1.932   0.565
  377SOL     OW 1422   1.287   2.788   0.671
  377SOL    HW1 1423   1.364   2.732   0.667
  377SOL    HW2 1424   1.302   2.855   0.605
  378SOL     OW 1425   0.267   2.180   0.723
  378SOL    HW1 1426   0.184   2.217   0.691
  378SOL    HW2 1427   0.252   2.166   0.817
  379SOL     OW 1428   0.820   2.856   1.373
  379SOL    HW1 1429   0.860   2.853   1.286
  379SOL    HW2 1430   0.831   2.946   1.402
  380SOL     OW 1431   0.904   2.792   0.286
  380SOL    HW1 1432   0.980   2.819   0.234
  380SOL    HW2 1433   0.942   2.743   0.360
  381SOL     OW 1434   0.996   2.074   0.980
  381SOL    HW1 1435   0.958   2.084   0.893
  381SOL    HW2 1436   0.938   2.014   1.025
  382SOL     OW 1437   1.720   2.250   1.373
  382SOL    HW1 1438   1.794   2.311   1.381
  382SOL    HW2 1439   1.753   2.181   1.315
  383SOL     OW 1440   0.127   2.864   1.683
  383SOL    HW1 1441   0.054   2.855   1.744
  383SOL    HW2 1442   0.205   2.853   1.737
  384SOL     OW 1443   0.680   2.049   1.501
  384SOL    HW1 1444   0.751   2.105   1.470
  384SOL    HW2 1445   0.677   2.064   1.596
  385SOL     OW 1446   0.076   2.181   0.039
  385SOL    HW1 1447   2.988   2.213   0.019
  385SOL    HW2 1448   0.135   2.245   0.001
  386SOL     OW 1449   1.430   2.708   1.395
  386SOL    HW1 1450   1.392   2.776   1.339
  386SOL    HW2 1451   1.524   2.722   1.388
  387SOL     OW 1452   0.062   2.056   0.320
  387SOL    HW1 1453   0.048   2.103   0.238
  387SOL    HW2 1454   0.130   1.992   0.301
  388SOL     OW 1455   1.141   0.208   0.096
  388SOL    HW1 1456   1.068   0.252   0.140
  388SOL    HW2 1457   1.216   0.223   0.154
  389SOL     OW 1458   0.615   2.687   1.434
  389SOL    HW1 1459   0.667   2.767   1.421
  389SOL    HW2 1460   0.680   2.619   1.448
  390SOL     OW 1461   0.720   2.428   1.704
  390SOL    HW1 1462   0.746   2.499   1.763
  390SOL    HW2 1463   0.755   2.349   1.744
  391SOL     OW 1464   1.678   2.746   1.252
  391SOL    HW1 1465   1.668   2.663   1.206
  391SOL    HW2 1466   1.664   2.813   1.184
  392SOL     OW 1467   1.226   2.155   0.479
  392SOL    HW1 1468   1.313   2.128   0.450
  392SOL    HW2 1469   1.241   2.228   0.538
  393SOL     OW 1470   0.598   2.587   0.665
  393SOL    HW1 1471   0.617   2.680   0.674
  393SOL    HW2 1472   0.527   2.583   0.601
  394SOL     OW 1473   1.767   2.219   1.645
  394SOL    HW1 1474   1.746   2.236   1.553
  394SOL    HW2 1475   1.692   2.169   1.678
  395SOL     OW 1476   1.724   2.798   1.519
  395SOL    HW1 1477   1.749   2.887   1.543
  395SOL    HW2 1478   1.730   2.797   1.423
  396SOL     OW 1479   0.893   2.831   0.865
  396SOL    HW1 1480   0.922   2.750   0.908
  396SOL    HW2 1481   0.827   2.867   0.924
  397SOL     OW 1482   1.109   2.884   0.088
  397SOL    HW1 1483   1.063   2.896   0.005
  397SOL    HW2 1484   1.168   2.810   0.072
  398SOL     OW 1485   1.799   2.038   1.217
  398SOL    HW1 1486   1.835   1.979   1.283
  398SOL    HW2 1487   1.873   2.057   1.159
  399SOL     OW 1488   0.443   2.293   0.539
  399SOL    HW1 1489   0.460   2.228   0.470
  399SOL    HW2 1490   0.383   2.250   0.599
  400SOL     OW 1491   0.338   2.421   1.287
  400SOL    HW1 1492   0.390   2.359   1.340
  400SOL    HW2 1493   0.348   2.389   1.197
  401SOL     OW 1494   1.283   2.313   0.694
  401SOL    HW1 1495   1.246   2.401   0.686
  401SOL    HW2 1496   1.258   2.284   0.782
  402SOL     OW 1497   2.999   2.889   0.286
  402SOL    HW1 1498   0.085   2.915   0.252
  402SOL    HW2 1499   0.018   2.852   0.372
  403SOL     OW 1500   0.240   2.495   1.971
  403SOL    HW1 1501   0.171   2.459   2.026
  403SOL    HW2 1502   0.219   2.465   1.883
  404SOL     OW 1503   0.237   2.057   2.833
  404SOL    HW1 1504   0.278   2.120   2.892
  404SOL    HW2 1505   0.143   2.069   2.845
  405SOL     OW 1506   0.011   2.246   2.504
  405SOL    HW1 1507   2.927   2.286   2.525
  405SOL    HW2 1508   2.989   2.160   2.469
  406SOL     OW 1509   1.135   2.564   2.564
  406SOL    HW1 1510   1.186   2.644   2.549
  406SOL    HW2 1511   1.086   2.582   2.644
  407SOL     OW 1512   1.751   2.463   2.095
  407SOL    HW1 1513   1.741   2.458   2.000
  407SOL    HW2 1514   1.732   2.375   2.126
  408SOL     OW 1515   0.776   0.016   2.879
  408SOL    HW1 1516   0.682   0.030   2.888
  408SOL    HW2 1517   0.806   0.087   2.822
  409SOL     OW 1518   0.649   2.850   2.572
  409SOL    HW1 1519   0.744   2.852   2.588
  409SOL    HW2 1520   0.631   2.932   2.526
  410SOL     OW 1521   1.615   2.312   2.591
  410SOL    HW1 1522   1.549   2.347   2.531
  410SOL    HW2 1523   1.638   2.385   2.648
  411SOL     OW 1524   0.238   0.305   2.337
  411SOL    HW1 1525   0.201   0.377   2.387
  411SOL    HW2 1526   0.182   0.230   2.357
  412SOL     OW 1527   0.233   2.947   2.745
  412SOL    HW1 1528   0.259   2.861   2.777
  412SOL    HW2 1529   0.203   2.994   2.823
  413SOL     OW 1530   0.615   2.822   1.987
  413SOL    HW1 1531   0.587   2.906   1.951
  413SOL    HW2 1532   0.666   2.844   2.065
  414SOL     OW 1533   0.153   2.489   2.440
  414SOL    HW1 1534   0.093   2.416   2.457
  414SOL    HW2 1535   0.131   2.554   2.507
  415SOL     OW 1536   0.623   0.241   2.574
  415SOL    HW1 1537   0.593   0.158   2.536
  415SOL    HW2 1538   0.611   0.305   2.504
  416SOL     OW 1539   0.811   1.867   2.358
  416SOL    HW1 1540   0.850   1.955   2.358
  416SOL    HW2 1541   0.719   1.882   2.380
  417SOL     OW 1542   0.214   2.811   0.107
  417SOL    HW1 1543   0.275   2.737   0.102
  417SOL    HW2 1544   0.128   2.771   0.096
  418SOL     OW 1545   1.543   2.831   2.053
  418SOL    HW1 1546   1.468   2.791   2.099
  418SOL    HW2 1547   1.599   2.863   2.124
  419SOL     OW 1548   0.598   2.579   2.127
  419SOL    HW1 1549   0.602   2.659   2.074
  419SOL    HW2 1550   0.531   2.598   2.193
  420SOL     OW 1551   1.301   2.197   2.815
  420SOL    HW1 1552   1.207   2.199   2.798
  420SOL    HW2 1553   1.314   2.122   2.873
  421SOL     OW 1554   1.052   2.559   2.288
  421SOL    HW1 1555   1.063   2.559   2.383
  421SOL    HW2 1556   0.967   2.517   2.274
  422SOL     OW 1557   0.099   2.672   2.629
  422SOL    HW1 1558   0.177   2.673   2.685
  422SOL    HW2 1559   0.048   2.747   2.659
  423SOL     OW 1560   0.876   2.202   2.042
  423SOL    HW1 1561   0.927   2.271   2.001
  423SOL    HW2 1562   0.927   2.122   2.028
  424SOL     OW 1563   0.555   2.054   2.777
  424SOL    HW1 1564   0.494   2.088   2.843
  424SOL    HW2 1565   0.563   2.126   2.713
  425SOL     OW 1566   1.811   2.912   2.741
  425SOL    HW1 1567   1.763   2.894   2.661
  425SOL    HW2 1568   1.744   2.910   2.810
  426SOL     OW 1569   1.462   2.579   2.591
  426SOL    HW1 1570   1.478   2.545   2.679
  426SOL    HW2 1571   1.524   2.651   2.581
  427SOL     OW 1572   0.399   2.553   2.329
  427SOL    HW1 1573   0.419   2.461   2.348
  427SOL    HW2 1574   0.308   2.564   2.356
  428SOL     OW 1575   0.618   1.972   1.978
  428SOL    HW1 1576   0.710   1.948   1.971
  428SOL    HW2 1577   0.580   1.950   1.893
  429SOL     OW 1578   0.939   2.384   2.757
  429SOL    HW1 1579   0.902   2.371   2.670
  429SOL    HW2 1580   0.955   2.295   2.790
  430SOL     OW 1581   0.546   1.927   2.370
  430SOL    HW1 1582   0.465   1.928   2.421
  430SOL    HW2 1583   0.541   2.005   2.315
  431SOL     OW 1584   0.291   1.904   2.040
  431SOL    HW1 1585   0.348   1.978   2.020
  431SOL    HW2 1586   0.347   1.843   2.088
  432SOL     OW 1587   0.940   2.107   2.326
  432SOL    HW1 1588   0.902   2.153   2.251
  432SOL    HW2 1589   1.034   2.126   2.321
  433SOL     OW 1590   1.027   2.406   1.877
  433SOL    HW1 1591   0.981   2.488   1.861
  433SOL    HW2 1592   1.091   2.428   1.945
  434SOL     OW 1593   0.876   2.313   2.504
  434SOL    HW1 1594   0.818   2.376   2.460
  434SOL    HW2 1595   0.883   2.240   2.443
  435SOL     OW 1596   1.421   0.017   2.732
  435SOL    HW1 1597   1.360   2.948   2.705
  435SOL    HW2 1598   1.474   0.034   2.654
  436SOL     OW 1599   1.493   2.445   2.826
  436SOL    HW1 1600   1.421   2.383   2.836
  436SOL    HW2 1601   1.514   2.471   2.916
  437SOL     OW 1602   1.865   2.670   2.227
  437SOL    HW1 1603   1.906   2.623   2.300
  437SOL    HW2 1604   1.826   2.602   2.173
  438SOL     OW 1605   1.395   2.427   1.932
  438SOL    HW1 1606   1.340   2.413   2.009
  438SOL    HW2 1607   1.484   2.428   1.966
  439SOL     OW 1608   0.525   2.124   2.184
  439SOL    HW1 1609   0.562   2.073   2.111
  439SOL    HW2 1610   0.509   2.210   2.147
  440SOL     OW 1611   1.620   2.964   2.939
  440SOL    HW1 1612   1.636   0.048   2.982
  440SOL    HW2 1613   1.552   2.982   2.874
  441SOL     OW 1614   0.625   2.397   2.720
  441SOL    HW1 1615   0.610   2.456   2.646
  441SOL    HW2 1616   0.543   2.399   2.769
  442SOL     OW 1617   1.583   2.487   2.337
  442SOL    HW1 1618   1.548   2.553   2.396
  442SOL    HW2 1619   1.637   2.537   2.275
  443SOL     OW 1620   0.580   2.720   2.885
  443SOL    HW1 1621   0.610   2.804   2.851
  443SOL    HW2 1622   0.548   2.740   2.973
  444SOL     OW 1623   1.203   2.387   2.130
  444SOL    HW1 1624   1.212   2.313   2.191
  444SOL    HW2 1625   1.164   2.457   2.183
  445SOL     OW 1626   0.345   2.056   0.111
  445SOL    HW1 1627   0.275   2.117   0.135
  445SOL    HW2 1628   0.300   1.972   0.098
  446SOL     OW 1629   0.762   2.523   2.935
  446SOL    HW1 1630   0.767   2.470   2.856
  446SOL    HW2 1631   0.693   2.588   2.916
  447SOL     OW 1632   0.301   1.932   2.483
  447SOL    HW1 1633   0.282   2.022   2.510
  447SOL    HW2 1634   0.304   1.882   2.564
  448SOL     OW 1635   1.591   2.229   2.235
  448SOL    HW1 1636   1.640   2.176   2.298
  448SOL    HW2 1637   1.586   2.315   2.276
  449SOL     OW 1638   1.031   2.624   2.826
  449SOL    HW1 1639   1.025   2.627   2.922
  449SOL    HW2 1640   0.990   2.542   2.802
  450SOL     OW 1641   1.286   2.683   1.889
  450SOL    HW1 1642   1.338   2.603   1.897
  450SOL    HW2 1643   1.327   2.730   1.816
  451SOL     OW 1644   0.312   2.685   2.811
  451SOL    HW1 1645   0.407   2.696   2.802
  451SOL    HW2 1646   0.301   2.593   2.836
  452SOL     OW 1647   0.993   2.612   0.096
  452SOL    HW1 1648   1.002   2.617   0.191
  452SOL    HW2 1649   0.899   2.621   0.080
  453SOL     OW 1650   0.817   2.427   2.212
  453SOL    HW1 1651   0.804   2.354   2.152
  453SOL    HW2 1652   0.745   2.487   2.194
  454SOL     OW 1653   0.709   2.302   0.095
  454SOL    HW1 1654   0.616   2.276   0.096
  454SOL    HW2 1655   0.710   2.381   0.041
  455SOL     OW 1656   0.470   2.354   2.046
  455SOL    HW1 1657   0.527   2.426   2.072
  455SOL    HW2 1658   0.383   2.395   2.037
  456SOL     OW 1659   1.304   2.717   2.166
  456SOL    HW1 1660   1.227   2.689   2.215
  456SOL    HW2 1661   1.280   2.704   2.074
  457SOL     OW 1662   1.745   2.001   2.392
  457SOL    HW1 1663   1.805   2.003   2.317
  457SOL    HW2 1664   1.692   1.922   2.378
  458SOL     OW 1665   1.286   2.790   2.536
  458SOL    HW1 1666   1.357   2.728   2.544
  458SOL    HW2 1667   1.316   2.853   2.470
  459SOL     OW 1668   1.841   2.015   2.825
  459SOL    HW1 1669   1.873   1.955   2.758
  459SOL    HW2 1670   1.754   2.041   2.794
  460SOL     OW 1671   0.271   2.183   2.575
  460SOL    HW1 1672   0.187   2.224   2.555
  460SOL    HW2 1673   0.277   2.187   2.671
  461SOL     OW 1674   0.905   2.754   2.114
  461SOL    HW1 1675   0.976   2.808   2.081
  461SOL    HW2 1676   0.940   2.713   2.192
  462SOL     OW 1677   1.038   2.052   2.821
  462SOL    HW1 1678   1.004   2.073   2.734
  462SOL    HW2 1679   0.965   2.069   2.881
  463SOL     OW 1680   0.093   2.177   1.916
  463SOL    HW1 1681   0.008   2.151   1.880
  463SOL    HW2 1682   0.102   2.269   1.893
  464SOL     OW 1683   0.063   2.055   2.176
  464SOL    HW1 1684   0.068   2.109   2.097
  464SOL    HW2 1685   0.132   1.990   2.165
  465SOL     OW 1686   1.124   0.235   2.013
  465SOL    HW1 1687   1.102   0.155   1.965
  465SOL    HW2 1688   1.217   0.225   2.034
  466SOL     OW 1689   1.735   2.711   0.065
  466SOL    HW1 1690   1.649   2.674   0.086
  466SOL    HW2 1691   1.717   2.802   0.043
  467SOL     OW 1692   1.219   2.173   2.321
  467SOL    HW1 1693   1.305   2.137   2.300
  467SOL    HW2 1694   1.234   2.227   2.398
  468SOL     OW 1695   0.600   2.587   2.516
  468SOL    HW1 1696   0.618   2.680   2.531
  468SOL    HW2 1697   0.525   2.587   2.456
  469SOL     OW 1698   0.885   2.826   2.719
  469SOL    HW1 1699   0.923   2.748   2.758
  469SOL    HW2 1700   0.841   2.871   2.791
  470SOL     OW 1701   1.101   2.871   1.953
  470SOL    HW1 1702   1.064   2.906   1.872
  470SOL    HW2 1703   1.157   2.799   1.925
  471SOL     OW 1704   1.783   2.062   0.089
  471SOL    HW1 1705   1.809   1.976   0.122
  471SOL    HW2 1706   1.811   2.062   2.998
  472SOL     OW 1707   0.437   2.293   2.388
  472SOL    HW1 1708   0.454   2.216   2.333
  472SOL    HW2 1709   0.382   2.260   2.458
  473SOL     OW 1710   1.278   2.310   2.547
  473SOL    HW1 1711   1.246   2.401   2.546
  473SOL    HW2 1712   1.306   2.296   2.637
  474SOL     OW 1713   1.584   2.095   2.756
  474SOL    HW1 1714   1.489   2.093   2.747
  474SOL    HW2 1715   1.613   2.163   2.696
  475SOL     OW 1716   0.036   2.953   2.178
  475SOL    HW1 1717   0.107   2.889   2.173
  475SOL    HW2 1718   2.956   2.900   2.185
  476SOL     OW 1719   2.088   0.651   0.115
  476SOL    HW1 1720   2.005   0.613   0.142
  476SOL    HW2 1721   2.109   0.606   0.033
  477SOL     OW 1722   2.079   0.286   1.007
  477SOL    HW1 1723   2.111   0.251   1.090
  477SOL    HW2 1724   1.994   0.243   0.994
  478SOL     OW 1725   1.867   0.384   0.642
  478SOL    HW1 1726   1.784   0.408   0.684
  478SOL    HW2 1727   1.845   0.310   0.586
  479SOL     OW 1728   2.438   1.276   1.177
  479SOL    HW1 1729   2.344   1.267   1.163
  479SOL    HW2 1730   2.448   1.364   1.215
  480SOL     OW 1731   2.619   1.142   1.031
  480SOL    HW1 1732   2.556   1.176   1.094
  480SOL    HW2 1733   2.658   1.220   0.991
  481SOL     OW 1734   2.721   0.780   1.820
  481SOL    HW1 1735   2.717   0.853   1.882
  481SOL    HW2 1736   2.742   0.821   1.737
  482SOL     OW 1737   2.544   1.009   0.651
  482SOL    HW1 1738   2.609   0.990   0.718
  482SOL    HW2 1739   2.476   1.059   0.697
  483SOL     OW 1740   2.570   1.154   1.812
  483SOL    HW1 1741   2.617   1.235   1.831
  483SOL    HW2 1742   2.486   1.184   1.776
  484SOL     OW 1743   2.308   0.406   1.488
  484SOL    HW1 1744   2.385   0.349   1.493
  484SOL    HW2 1745   2.234   0.347   1.506
  485SOL     OW 1746   2.077   1.714   0.468
  485SOL    HW1 1747   2.097   1.789   0.524
  485SOL    HW2 1748   2.153   1.706   0.410
  486SOL     OW 1749   2.985   1.343   1.686
  486SOL    HW1 1750   0.022   1.348   1.775
  486SOL    HW2 1751   2.937   1.261   1.684
  487SOL     OW 1752   2.079   1.438   0.519
  487SOL    HW1 1753   2.092   1.532   0.534
  487SOL    HW2 1754   2.053   1.404   0.605
  488SOL     OW 1755   2.074   1.057   0.890
  488SOL    HW1 1756   2.111   0.977   0.928
  488SOL    HW2 1757   2.055   1.112   0.965
  489SOL     OW 1758   2.467   1.776   1.443
  489SOL    HW1 1759   2.375   1.783   1.470
  489SOL    HW2 1760   2.504   1.862   1.462
  490SOL     OW 1761   2.455   0.979   0.148
  490SOL    HW1 1762   2.490   1.044   0.086
  490SOL    HW2 1763   2.492   1.005   0.232
  491SOL     OW 1764   1.979   0.645   0.561
  491SOL    HW1 1765   1.939   0.561   0.583
  491SOL    HW2 1766   1.972   0.697   0.641
  492SOL     OW 1767   1.986   0.745   1.580
  492SOL    HW1 1768   2.079   0.753   1.598
  492SOL    HW2 1769   1.949   0.828   1.609
  493SOL     OW 1770   2.484   1.363   0.731
  493SOL    HW1 1771   2.428   1.286   0.739
  493SOL    HW2 1772   2.462   1.399   0.645
  494SOL     OW 1773   2.684   0.014   0.510
  494SOL    HW1 1774   2.705   0.107   0.499
  494SOL    HW2 1775   2.589   0.010   0.502
  495SOL     OW 1776   2.070   0.967   1.266
  495SOL    HW1 1777   2.155   0.924   1.259
  495SOL    HW2 1778   2.006   0.901   1.237
  496SOL     OW 1779   2.184   0.254   1.796
  496SOL    HW1 1780   2.238   0.328   1.823
  496SOL    HW2 1781   2.100   0.268   1.840
  497SOL     OW 1782   2.451   0.721   0.263
  497SOL    HW1 1783   2.462   0.806   0.220
  497SOL    HW2 1784   2.392   0.738   0.336
  498SOL     OW 1785   2.650   0.630   1.454
  498SOL    HW1 1786   2.630   0.599   1.542
  498SOL    HW2 1787   2.617   0.562   1.396
  499SOL     OW 1788   2.833   0.882   1.572
  499SOL    HW1 1789   2.856   0.794   1.544
  499SOL    HW2 1790   2.782   0.918   1.500
  500SOL     OW 1791   2.850   0.422   1.227
  500SOL    HW1 1792   2.795   0.415   1.305
  500SOL    HW2 1793   2.821   0.351   1.170
  501SOL     OW 1794   2.890   0.719   0.412
  501SOL    HW1 1795   2.932   0.698   0.496
  501SOL    HW2 1796   2.817   0.658   0.406
  502SOL     OW 1797   1.955   0.815   0.771
  502SOL    HW1 1798   2.035   0.795   0.819
  502SOL    HW2 1799   1.922   0.896   0.812
  503SOL     OW 1800   2.782   0.344   0.220
  503SOL    HW1 1801   2.767   0.396   0.141
  503SOL    HW2 1802   2.773   0.253   0.191
  504SOL     OW 1803   2.371   0.201   0.907
  504SOL    HW1 1804   2.394   0.204   1.000
  504SOL    HW2 1805   2.408   0.281   0.870
  505SOL     OW 1806   2.861   1.441   0.469
  505SOL    HW1 1807   2.828   1.518   0.424
  505SOL    HW2 1808   2.859   1.465   0.562
  506SOL     OW 1809   2.239   1.829   0.833
  506SOL    HW1 1810   2.285   1.745   0.838
  506SOL    HW2 1811   2.303   1.893   0.863
  507SOL     OW 1812   2.179   0.955   0.205
  507SOL    HW1 1813   2.274   0.960   0.192
  507SOL    HW2 1814   2.159   0.862   0.202
  508SOL     OW 1815   2.326   1.254   1.739
  508SOL    HW1 1816   2.290   1.264   1.650
  508SOL    HW2 1817   2.250   1.264   1.796
  509SOL     OW 1818   2.059   0.296   1.500
  509SOL    HW1 1819   1.971   0.333   1.505
  509SOL    HW2 1820   2.057   0.224   1.564
  510SOL     OW 1821   2.323   1.728   0.324
  510SOL    HW1 1822   2.356   1.793   0.387
  510SOL    HW2 1823   2.396   1.714   0.264
  511SOL     OW 1824   2.095   1.798   1.238
  511SOL    HW1 1825   2.128   1.757   1.319
  511SOL    HW2 1826   2.099   1.728   1.173
  512SOL     OW 1827   2.805   1.695   0.898
  512SOL    HW1 1828   2.864   1.625   0.928
  512SOL    HW2 1829   2.754   1.654   0.828
  513SOL     OW 1830   2.252   0.695   0.474
  513SOL    HW1 1831   2.287   0.608   0.489
  513SOL    HW2 1832   2.159   0.689   0.497
  514SOL     OW 1833   2.474   0.115   0.110
  514SOL    HW1 1834   2.570   0.113   0.118
  514SOL    HW2 1835   2.458   0.135   0.018
  515SOL     OW 1836   2.632   0.288   1.766
  515SOL    HW1 1837   2.702   0.224   1.759
  515SOL    HW2 1838   2.578   0.257   1.839
  516SOL     OW 1839   2.740   1.516   1.194
  516SOL    HW1 1840   2.720   1.483   1.106
  516SOL    HW2 1841   2.801   1.452   1.230
  517SOL     OW 1842   2.668   1.403   0.936
  517SOL    HW1 1843   2.754   1.391   0.896
  517SOL    HW2 1844   2.606   1.391   0.864
  518SOL     OW 1845   2.787   0.509   0.902
  518SOL    HW1 1846   2.759   0.492   0.812
  518SOL    HW2 1847   2.820   0.425   0.934
  519SOL     OW 1848   2.399   0.050   0.498
  519SOL    HW1 1849   2.313   0.041   0.537
  519SOL    HW2 1850   2.392   0.129   0.443
  520SOL     OW 1851   0.321   1.152   0.044
  520SOL    HW1 1852   0.309   1.098   0.122
  520SOL    HW2 1853   0.253   1.220   0.051
  521SOL     OW 1854   2.160   0.086   0.186
  521SOL    HW1 1855   2.244   0.131   0.188
  521SOL    HW2 1856   2.181   2.994   0.203
  522SOL     OW 1857   2.824   0.250   0.468
  522SOL    HW1 1858   2.784   0.296   0.395
  522SOL    HW2 1859   2.900   0.206   0.430
  523SOL     OW 1860   0.082   1.580   0.795
  523SOL    HW1 1861   0.109   1.620   0.712
  523SOL    HW2 1862   0.164   1.554   0.837
  524SOL     OW 1863   2.316   1.140   0.739
  524SOL    HW1 1864   2.247   1.110   0.799
  524SOL    HW2 1865   2.278   1.128   0.652
  525SOL     OW 1866   2.894   0.511   0.021
  525SOL    HW1 1867   2.846   0.593   0.010
  525SOL    HW2 1868   2.943   0.524   0.103
  526SOL     OW 1869   1.936   0.560   1.387
  526SOL    HW1 1870   2.029   0.551   1.363
  526SOL    HW2 1871   1.936   0.627   1.455
  527SOL     OW 1872   2.430   0.208   1.177
  527SOL    HW1 1873   2.469   0.171   1.256
  527SOL    HW2 1874   2.338   0.222   1.200
  528SOL     OW 1875   2.744   0.469   0.634
  528SOL    HW1 1876   2.677   0.516   0.585
  528SOL    HW2 1877   2.740   0.379   0.600
  529SOL     OW 1878   2.862   0.056   0.753
  529SOL    HW1 1879   2.818   0.048   0.669
  529SOL    HW2 1880   2.843   2.974   0.799
  530SOL     OW 1881   2.356   1.392   0.160
  530SOL    HW1 1882   2.281   1.372   0.216
  530SOL    HW2 1883   2.317   1.414   0.075
  531SOL     OW 1884   2.393   0.265   0.327
  531SOL    HW1 1885   2.433   0.214   0.256
  531SOL    HW2 1886   2.362   0.345   0.284
  532SOL     OW 1887   2.839   1.109   1.726
  532SOL    HW1 1888   2.746   1.128   1.739
  532SOL    HW2 1889   2.841   1.040   1.660
  533SOL     OW 1890   2.560   1.060   0.382
  533SOL    HW1 1891   2.552   1.049   0.476
  533SOL    HW2 1892   2.644   1.019   0.360
  534SOL     OW 1893   2.285   0.809   1.250
  534SOL    HW1 1894   2.353   0.820   1.317
  534SOL    HW2 1895   2.250   0.722   1.266
  535SOL     OW 1896   2.200   1.111   0.492
  535SOL    HW1 1897   2.228   1.180   0.432
  535SOL    HW2 1898   2.221   1.029   0.448
  536SOL     OW 1899   2.416   0.542   0.862
  536SOL    HW1 1900   2.437   0.596   0.786
  536SOL    HW2 1901   2.481   0.566   0.928
  537SOL     OW 1902   2.212   1.515   1.326
  537SOL    HW1 1903   2.191   1.486   1.238
  537SOL    HW2 1904   2.306   1.536   1.322
  538SOL     OW 1905   2.274   0.745   1.602
  538SOL    HW1 1906   2.337   0.790   1.546
  538SOL    HW2 1907   2.313   0.659   1.617
  539SOL     OW 1908   2.870   0.125   1.761
  539SOL    HW1 1909   2.889   0.194   1.698
  539SOL    HW2 1910   2.886   0.044   1.714
  540SOL     OW 1911   2.365   0.054   1.752
  540SOL    HW1 1912   2.332   2.987   1.692
  540SOL    HW2 1913   2.293   0.118   1.758
  541SOL     OW 1914   2.433   0.883   1.024
  541SOL    HW1 1915   2.484   0.963   1.037
  541SOL    HW2 1916   2.392   0.867   1.109
  542SOL     OW 1917   0.062   0.534   0.270
  542SOL    HW1 1918   0.080   0.448   0.308
  542SOL    HW2 1919   0.039   0.589   0.344
  543SOL     OW 1920   2.160   0.199   1.251
  543SOL    HW1 1921   2.131   0.242   1.331
  543SOL    HW2 1922   2.142   0.106   1.266
  544SOL     OW 1923   2.588   0.632   1.055
  544SOL    HW1 1924   2.668   0.610   1.008
  544SOL    HW2 1925   2.570   0.723   1.032
  545SOL     OW 1926   2.162   0.066   0.641
  545SOL    HW1 1927   2.173   0.153   0.678
  545SOL    HW2 1928   2.146   0.009   0.717
  546SOL     OW 1929   2.867   0.770   0.973
  546SOL    HW1 1930   2.902   0.772   1.062
  546SOL    HW2 1931   2.868   0.678   0.948
  547SOL     OW 1932   2.835   1.566   1.704
  547SOL    HW1 1933   2.826   1.608   1.618
  547SOL    HW2 1934   2.891   1.490   1.688
  548SOL     OW 1935   2.220   0.917   1.811
  548SOL    HW1 1936   2.305   0.933   1.852
  548SOL    HW2 1937   2.238   0.855   1.741
  549SOL     OW 1938   2.906   1.344   0.835
  549SOL    HW1 1939   2.909   1.266   0.779
  549SOL    HW2 1940   2.979   1.398   0.804
  550SOL     OW 1941   2.176   0.805   0.947
  550SOL    HW1 1942   2.269   0.827   0.952
  550SOL    HW2 1943   2.171   0.716   0.982
  551SOL     OW 1944   2.193   0.527   1.010
  551SOL    HW1 1945   2.159   0.439   0.998
  551SOL    HW2 1946   2.270   0.531   0.953
  552SOL     OW 1947   2.961   0.378   1.669
  552SOL    HW1 1948   2.919   0.445   1.722
  552SOL    HW2 1949   0.052   0.407   1.662
  553SOL     OW 1950   2.405   1.610   0.834
  553SOL    HW1 1951   2.461   1.657   0.896
  553SOL    HW2 1952   2.430   1.518   0.843
  554SOL     OW 1953   2.861   0.794   1.258
  554SOL    HW1 1954   2.916   0.726   1.298
  554SOL    HW2 1955   2.775   0.752   1.249
  555SOL     OW 1956   1.901   0.547   1.114
  555SOL    HW1 1957   1.983   0.525   1.071
  555SOL    HW2 1958   1.923   0.550   1.207
  556SOL     OW 1959   2.052   0.520   1.727
  556SOL    HW1 1960   2.106   0.479   1.660
  556SOL    HW2 1961   2.002   0.587   1.681
  557SOL     OW 1962   2.674   0.573   0.348
  557SOL    HW1 1963   2.684   0.493   0.297
  557SOL    HW2 1964   2.591   0.610   0.318
  558SOL     OW 1965   2.149   1.560   1.782
  558SOL    HW1 1966   2.100   1.620   1.727
  558SOL    HW2 1967   2.098   1.478   1.780
  559SOL     OW 1968   2.541   0.465   1.266
  559SOL    HW1 1969   2.511   0.381   1.232
  559SOL    HW2 1970   2.556   0.518   1.188
  560SOL     OW 1971   2.809   1.682   1.456
  560SOL    HW1 1972   2.767   1.637   1.383
  560SOL    HW2 1973   2.784   1.773   1.446
  561SOL     OW 1974   2.306   0.493   0.202
  561SOL    HW1 1975   2.372   0.561   0.217
  561SOL    HW2 1976   2.225   0.541   0.189
  562SOL     OW 1977   2.016   1.136   1.469
  562SOL    HW1 1978   2.019   1.080   1.546
  562SOL    HW2 1979   2.038   1.077   1.396
  563SOL     OW 1980   1.960   1.234   1.080
  563SOL    HW1 1981   1.953   1.262   1.171
  563SOL    HW2 1982   1.869   1.221   1.052
  564SOL     OW 1983   2.539   1.669   1.730
  564SOL    HW1 1984   2.478   1.742   1.723
  564SOL    HW2 1985   2.597   1.678   1.655
  565SOL     OW 1986   2.767   0.087   0.143
  565SOL    HW1 1987   2.796   0.036   0.067
  565SOL    HW2 1988   2.813   0.047   0.217
  566SOL     OW 1989   1.951   1.834   1.895
  566SOL    HW1 1990   1.966   1.748   1.854
  566SOL    HW2 1991   2.036   1.857   1.933
  567SOL     OW 1992   2.682   1.273   1.425
  567SOL    HW1 1993   2.670   1.315   1.511
  567SOL    HW2 1994   2.605   1.299   1.375
  568SOL     OW 1995   2.527   1.612   0.162
  568SOL    HW1 1996   2.541   1.628   0.069
  568SOL    HW2 1997   2.482   1.528   0.166
  569SOL     OW 1998   2.133   0.346   0.748
  569SOL    HW1 1999   2.041   0.367   0.732
  569SOL    HW2 2000   2.134   0.315   0.839
  570SOL     OW 2001   2.685   1.008   1.375
  570SOL    HW1 2002   2.739   0.996   1.297
  570SOL    HW2 2003   2.690   1.102   1.393
  571SOL     OW 2004   2.785   0.944   0.306
  571SOL    HW1 2005   2.837   0.955   0.227
  571SOL    HW2 2006   2.820   0.865   0.348
  572SOL     OW 2007   2.229   1.299   1.495
  572SOL    HW1 2008   2.215   1.383   1.451
  572SOL    HW2 2009   2.150   1.249   1.477
  573SOL     OW 2010   2.913   1.085   0.719
  573SOL    HW1 2011   2.839   1.043   0.762
  573SOL    HW2 2012   2.936   1.026   0.647
  574SOL     OW 2013   2.873   0.239   0.960
  574SOL    HW1 2014   2.871   0.195   0.876
  574SOL    HW2 2015   2.886   0.169   1.024
  575SOL     OW 2016   2.450   1.478   0.482
  575SOL    HW1 2017   2.504   1.437   0.414
  575SOL    HW2 2018   2.409   1.552   0.438
  576SOL     OW 2019   2.108   1.341   0.275
  576SOL    HW1 2020   2.022   1.300   0.272
  576SOL    HW2 2021   2.113   1.381   0.362
  577SOL     OW 2022   1.977   0.997   1.707
  577SOL    HW1 2023   1.901   0.993   1.765
  577SOL    HW2 2024   2.051   0.976   1.764
  578SOL     OW 2025   2.510   0.219   1.498
  578SOL    HW1 2026   2.595   0.195   1.461
  578SOL    HW2 2027   2.527   0.226   1.592
  579SOL     OW 2028   1.910   0.196   0.329
  579SOL    HW1 2029   1.885   0.236   0.246
  579SOL    HW2 2030   1.999   0.164   0.315
  580SOL     OW 2031   2.478   0.836   1.433
  580SOL    HW1 2032   2.537   0.910   1.419
  580SOL    HW2 2033   2.536   0.761   1.441
  581SOL     OW 2034   2.579   0.562   1.706
  581SOL    HW1 2035   2.617   0.620   1.772
  581SOL    HW2 2036   2.608   0.474   1.731
  582SOL     OW 2037   2.457   0.740   0.664
  582SOL    HW1 2038   2.493   0.828   0.652
  582SOL    HW2 2039   2.384   0.735   0.602
  583SOL     OW 2040   2.762   1.370   0.063
  583SOL    HW1 2041   2.694   1.389   0.128
  583SOL    HW2 2042   2.739   1.425   2.988
  584SOL     OW 2043   2.537   1.802   0.965
  584SOL    HW1 2044   2.506   1.891   0.947
  584SOL    HW2 2045   2.631   1.805   0.944
  585SOL     OW 2046   2.718   0.960   0.855
  585SOL    HW1 2047   2.766   0.889   0.897
  585SOL    HW2 2048   2.688   1.015   0.927
  586SOL     OW 2049   2.954   1.016   0.076
  586SOL    HW1 2050   2.935   1.057   2.991
  586SOL    HW2 2051   0.013   0.943   0.055
  587SOL     OW 2052   1.927   1.174   0.612
  587SOL    HW1 2053   1.947   1.138   0.698
  587SOL    HW2 2054   2.008   1.163   0.562
  588SOL     OW 2055   2.540   1.401   1.628
  588SOL    HW1 2056   2.459   1.358   1.655
  588SOL    HW2 2057   2.533   1.490   1.664
  589SOL     OW 2058   2.334   0.440   0.547
  589SOL    HW1 2059   2.324   0.380   0.473
  589SOL    HW2 2060   2.271   0.410   0.612
  590SOL     OW 2061   2.189   0.552   1.290
  590SOL    HW1 2062   2.244   0.501   1.349
  590SOL    HW2 2063   2.215   0.525   1.202
  591SOL     OW 2064   2.687   1.581   0.678
  591SOL    HW1 2065   2.682   1.619   0.590
  591SOL    HW2 2066   2.605   1.533   0.688
  592SOL     OW 2067   2.897   0.006   1.101
  592SOL    HW1 2068   2.812   2.973   1.130
  592SOL    HW2 2069   2.942   0.031   1.182
  593SOL     OW 2070   2.629   1.331   0.316
  593SOL    HW1 2071   2.603   1.241   0.334
  593SOL    HW2 2072   2.713   1.341   0.360
  594SOL     OW 2073   2.480   1.557   1.277
  594SOL    HW1 2074   2.480   1.635   1.333
  594SOL    HW2 2075   2.569   1.553   1.242
  595SOL     OW 2076   1.928   1.043   0.291
  595SOL    HW1 2077   2.022   1.030   0.281
  595SOL    HW2 2078   1.896   0.960   0.326
  596SOL     OW 2079   2.733   1.647   0.351
  596SOL    HW1 2080   2.666   1.637   0.283
  596SOL    HW2 2081   2.710   1.728   0.395
  597SOL     OW 2082   2.094   0.627   1.983
  597SOL    HW1 2083   2.004   0.622   2.016
  597SOL    HW2 2084   2.088   0.597   1.892
  598SOL     OW 2085   2.083   0.282   2.886
  598SOL    HW1 2086   2.112   0.225   2.957
  598SOL    HW2 2087   2.000   0.244   2.857
  599SOL     OW 2088   1.864   0.380   2.501
  599SOL    HW1 2089   1.781   0.405   2.541
  599SOL    HW2 2090   1.845   0.300   2.452
  600SOL     OW 2091   2.607   1.147   2.899
  600SOL    HW1 2092   2.565   1.199   2.967
  600SOL    HW2 2093   2.657   1.211   2.847
  601SOL     OW 2094   2.550   1.013   2.508
  601SOL    HW1 2095   2.609   0.989   2.579
  601SOL    HW2 2096   2.478   1.060   2.550
  602SOL     OW 2097   2.236   1.462   2.934
  602SOL    HW1 2098   2.155   1.453   2.884
  602SOL    HW2 2099   2.297   1.507   2.874
  603SOL     OW 2100   2.452   0.979   1.993
  603SOL    HW1 2101   2.494   1.032   1.925
  603SOL    HW2 2102   2.493   1.009   2.074
  604SOL     OW 2103   1.976   0.641   2.430
  604SOL    HW1 2104   1.939   0.554   2.442
  604SOL    HW2 2105   1.960   0.686   2.513
  605SOL     OW 2106   2.469   1.381   2.591
  605SOL    HW1 2107   2.424   1.297   2.597
  605SOL    HW2 2108   2.453   1.410   2.501
  606SOL     OW 2109   2.680   0.033   2.418
  606SOL    HW1 2110   2.719   0.102   2.364
  606SOL    HW2 2111   2.603   0.005   2.369
  607SOL     OW 2112   2.457   0.726   2.127
  607SOL    HW1 2113   2.463   0.803   2.071
  607SOL    HW2 2114   2.389   0.747   2.190
  608SOL     OW 2115   2.888   0.712   2.285
  608SOL    HW1 2116   2.923   0.687   2.370
  608SOL    HW2 2117   2.815   0.652   2.270
  609SOL     OW 2118   1.934   0.811   2.660
  609SOL    HW1 2119   2.024   0.797   2.691
  609SOL    HW2 2120   1.938   0.896   2.616
  610SOL     OW 2121   2.746   0.349   2.060
  610SOL    HW1 2122   2.789   0.401   1.992
  610SOL    HW2 2123   2.751   0.259   2.028
  611SOL     OW 2124   2.415   0.196   2.837
  611SOL    HW1 2125   2.379   0.278   2.872
  611SOL    HW2 2126   2.424   0.212   2.743
  612SOL     OW 2127   2.858   1.438   2.331
  612SOL    HW1 2128   2.825   1.515   2.286
  612SOL    HW2 2129   2.868   1.465   2.422
  613SOL     OW 2130   2.211   1.808   2.728
  613SOL    HW1 2131   2.259   1.725   2.724
  613SOL    HW2 2132   2.279   1.875   2.734
  614SOL     OW 2133   2.192   0.948   2.114
  614SOL    HW1 2134   2.270   0.963   2.061
  614SOL    HW2 2135   2.151   0.871   2.076
  615SOL     OW 2136   2.346   1.725   2.192
  615SOL    HW1 2137   2.370   1.793   2.254
  615SOL    HW2 2138   2.416   1.726   2.126
  616SOL     OW 2139   2.113   1.789   0.105
  616SOL    HW1 2140   2.177   1.738   0.155
  616SOL    HW2 2141   2.123   1.759   0.015
  617SOL     OW 2142   2.788   1.699   2.760
  617SOL    HW1 2143   2.860   1.647   2.794
  617SOL    HW2 2144   2.754   1.647   2.687
  618SOL     OW 2145   2.255   0.693   2.345
  618SOL    HW1 2146   2.286   0.603   2.354
  618SOL    HW2 2147   2.160   0.687   2.358
  619SOL     OW 2148   2.504   0.142   1.964
  619SOL    HW1 2149   2.561   0.070   1.991
  619SOL    HW2 2150   2.453   0.105   1.891
  620SOL     OW 2151   2.660   1.399   2.789
  620SOL    HW1 2152   2.748   1.394   2.751
  620SOL    HW2 2153   2.602   1.397   2.713
  621SOL     OW 2154   2.779   0.518   2.756
  621SOL    HW1 2155   2.756   0.494   2.666
  621SOL    HW2 2156   2.813   0.437   2.794
  622SOL     OW 2157   2.405   0.062   2.371
  622SOL    HW1 2158   2.317   0.044   2.404
  622SOL    HW2 2159   2.393   0.130   2.305
  623SOL     OW 2160   2.156   0.034   2.059
  623SOL    HW1 2161   2.202   0.107   2.019
  623SOL    HW2 2162   2.224   2.968   2.073
  624SOL     OW 2163   2.815   0.253   2.318
  624SOL    HW1 2164   2.767   0.294   2.246
  624SOL    HW2 2165   2.895   0.220   2.277
  625SOL     OW 2166   0.084   1.576   2.656
  625SOL    HW1 2167   0.113   1.624   2.578
  625SOL    HW2 2168   0.164   1.560   2.706
  626SOL     OW 2169   2.323   1.145   2.600
  626SOL    HW1 2170   2.248   1.114   2.651
  626SOL    HW2 2171   2.297   1.132   2.509
  627SOL     OW 2172   2.892   0.557   1.876
  627SOL    HW1 2173   2.842   0.637   1.861
  627SOL    HW2 2174   2.938   0.572   1.958
  628SOL     OW 2175   2.742   0.465   2.493
  628SOL    HW1 2176   2.682   0.516   2.440
  628SOL    HW2 2177   2.745   0.379   2.451
  629SOL     OW 2178   2.861   0.057   2.621
  629SOL    HW1 2179   2.812   0.060   2.538
  629SOL    HW2 2180   2.842   2.970   2.656
  630SOL     OW 2181   2.394   0.266   2.181
  630SOL    HW1 2182   2.434   0.215   2.111
  630SOL    HW2 2183   2.370   0.349   2.140
  631SOL     OW 2184   2.569   1.063   2.233
  631SOL    HW1 2185   2.556   1.047   2.327
  631SOL    HW2 2186   2.647   1.011   2.211
  632SOL     OW 2187   2.225   1.098   2.356
  632SOL    HW1 2188   2.216   1.173   2.297
  632SOL    HW2 2189   2.217   1.022   2.299
  633SOL     OW 2190   2.410   0.550   2.734
  633SOL    HW1 2191   2.429   0.592   2.650
  633SOL    HW2 2192   2.485   0.569   2.789
  634SOL     OW 2193   2.428   0.890   2.880
  634SOL    HW1 2194   2.496   0.954   2.861
  634SOL    HW2 2195   2.429   0.881   2.976
  635SOL     OW 2196   0.058   0.536   2.131
  635SOL    HW1 2197   0.071   0.449   2.168
  635SOL    HW2 2198   0.031   0.590   2.206
  636SOL     OW 2199   2.598   0.650   2.914
  636SOL    HW1 2200   2.665   0.613   2.855
  636SOL    HW2 2201   2.570   0.730   2.870
  637SOL     OW 2202   2.173   0.051   2.506
  637SOL    HW1 2203   2.160   0.145   2.520
  637SOL    HW2 2204   2.154   0.011   2.590
  638SOL     OW 2205   2.871   0.778   2.831
  638SOL    HW1 2206   2.885   0.769   2.925
  638SOL    HW2 2207   2.868   0.688   2.798
  639SOL     OW 2208   2.909   1.343   2.699
  639SOL    HW1 2209   2.916   1.269   2.640
  639SOL    HW2 2210   2.976   1.405   2.669
  640SOL     OW 2211   2.174   0.817   2.811
  640SOL    HW1 2212   2.269   0.829   2.810
  640SOL    HW2 2213   2.161   0.725   2.835
  641SOL     OW 2214   2.181   0.540   2.873
  641SOL    HW1 2215   2.144   0.452   2.867
  641SOL    HW2 2216   2.258   0.537   2.816
  642SOL     OW 2217   2.378   1.584   2.755
  642SOL    HW1 2218   2.447   1.647   2.775
  642SOL    HW2 2219   2.420   1.520   2.698
  643SOL     OW 2220   2.849   0.757   0.106
  643SOL    HW1 2221   2.890   0.737   0.190
  643SOL    HW2 2222   2.756   0.763   0.126
  644SOL     OW 2223   2.671   0.566   2.218
  644SOL    HW1 2224   2.679   0.490   2.160
  644SOL    HW2 2225   2.596   0.614   2.184
  645SOL     OW 2226   2.564   0.450   0.092
  645SOL    HW1 2227   2.473   0.420   0.091
  645SOL    HW2 2228   2.565   0.524   0.031
  646SOL     OW 2229   2.327   0.495   2.052
  646SOL    HW1 2230   2.385   0.570   2.069
  646SOL    HW2 2231   2.241   0.534   2.038
  647SOL     OW 2232   2.541   1.613   2.008
  647SOL    HW1 2233   2.543   1.632   1.914
  647SOL    HW2 2234   2.481   1.539   2.015
  648SOL     OW 2235   2.137   0.361   2.629
  648SOL    HW1 2236   2.051   0.360   2.585
  648SOL    HW2 2237   2.122   0.318   2.713
  649SOL     OW 2238   2.783   0.923   2.157
  649SOL    HW1 2239   2.833   0.931   2.076
  649SOL    HW2 2240   2.817   0.843   2.198
  650SOL     OW 2241   2.913   1.077   2.586
  650SOL    HW1 2242   2.832   1.035   2.618
  650SOL    HW2 2243   2.931   1.033   2.503
  651SOL     OW 2244   2.883   0.237   2.821
  651SOL    HW1 2245   2.877   0.190   2.737
  651SOL    HW2 2246   2.873   0.168   2.887
  652SOL     OW 2247   2.453   1.485   2.344
  652SOL    HW1 2248   2.504   1.443   2.275
  652SOL    HW2 2249   2.404   1.555   2.299
  653SOL     OW 2250   1.937   0.338   1.902
  653SOL    HW1 2251   1.849   0.314   1.873
  653SOL    HW2 2252   1.962   0.411   1.845
  654SOL     OW 2253   1.917   0.214   2.172
  654SOL    HW1 2254   1.921   0.260   2.088
  654SOL    HW2 2255   1.960   0.130   2.156
  655SOL     OW 2256   2.452   0.746   2.533
  655SOL    HW1 2257   2.493   0.828   2.505
  655SOL    HW2 2258   2.384   0.730   2.467
  656SOL     OW 2259   2.735   1.373   1.899
  656SOL    HW1 2260   2.683   1.410   1.971
  656SOL    HW2 2261   2.751   1.447   1.841
  657SOL     OW 2262   2.528   1.801   2.826
  657SOL    HW1 2263   2.506   1.886   2.788
  657SOL    HW2 2264   2.621   1.789   2.806
  658SOL     OW 2265   2.707   0.959   2.721
  658SOL    HW1 2266   2.765   0.891   2.757
  658SOL    HW2 2267   2.691   1.017   2.795
  659SOL     OW 2268   2.932   0.957   1.935
  659SOL    HW1 2269   2.909   1.029   1.877
  659SOL    HW2 2270   0.027   0.963   1.945
  660SOL     OW 2271   1.975   1.210   2.554
  660SOL    HW1 2272   1.888   1.174   2.538
  660SOL    HW2 2273   2.003   1.245   2.470
  661SOL     OW 2274   2.334   0.437   2.403
  661SOL    HW1 2275   2.328   0.376   2.330
  661SOL    HW2 2276   2.268   0.406   2.466
  662SOL     OW 2277   2.683   1.581   2.538
  662SOL    HW1 2278   2.687   1.626   2.454
  662SOL    HW2 2279   2.605   1.526   2.531
  663SOL     OW 2280   2.621   1.333   2.175
  663SOL    HW1 2281   2.600   1.241   2.184
  663SOL    HW2 2282   2.706   1.343   2.219
  664SOL     OW 2283   1.906   1.063   2.186
  664SOL    HW1 2284   1.993   1.061   2.146
  664SOL    HW2 2285   1.883   0.971   2.199
  665SOL     OW 2286   2.733   1.644   2.212
  665SOL    HW1 2287   2.669   1.636   2.141
  665SOL    HW2 2288   2.712   1.727   2.254
  666SOL     OW 2289   2.087   2.484   0.114
  666SOL    HW1 2290   1.993   2.498   0.105
  666SOL    HW2 2291   2.117   2.461   0.026
  667SOL     OW 2292   2.074   2.138   0.989
  667SOL    HW1 2293   2.112   2.123   1.075
  667SOL    HW2 2294   2.023   2.059   0.971
  668SOL     OW 2295   1.875   2.249   0.641
  668SOL    HW1 2296   1.789   2.279   0.670
  668SOL    HW2 2297   1.857   2.167   0.595
  669SOL     OW 2298   2.608   0.002   1.035
  669SOL    HW1 2299   2.542   0.052   1.084
  669SOL    HW2 2300   2.655   0.068   0.985
  670SOL     OW 2301   2.724   2.639   1.821
  670SOL    HW1 2302   2.728   2.692   1.900
  670SOL    HW2 2303   2.757   2.697   1.752
  671SOL     OW 2304   2.517   2.842   0.697
  671SOL    HW1 2305   2.605   2.848   0.733
  671SOL    HW2 2306   2.493   2.933   0.679
  672SOL     OW 2307   2.289   2.271   1.540
  672SOL    HW1 2308   2.369   2.248   1.493
  672SOL    HW2 2309   2.227   2.201   1.517
  673SOL     OW 2310   2.108   0.309   0.473
  673SOL    HW1 2311   2.064   0.384   0.514
  673SOL    HW2 2312   2.063   0.232   0.509
  674SOL     OW 2313   2.096   2.946   0.880
  674SOL    HW1 2314   2.128   2.863   0.917
  674SOL    HW2 2315   2.079   0.001   0.957
  675SOL     OW 2316   2.477   2.833   0.148
  675SOL    HW1 2317   2.469   2.925   0.123
  675SOL    HW2 2318   2.541   2.832   0.218
  676SOL     OW 2319   1.973   2.511   0.559
  676SOL    HW1 2320   1.963   2.421   0.589
  676SOL    HW2 2321   1.972   2.563   0.639
  677SOL     OW 2322   1.987   2.603   1.584
  677SOL    HW1 2323   2.080   2.618   1.597
  677SOL    HW2 2324   1.946   2.686   1.611
  678SOL     OW 2325   2.526   0.247   0.680
  678SOL    HW1 2326   2.469   0.182   0.721
  678SOL    HW2 2327   2.467   0.298   0.624
  679SOL     OW 2328   2.673   1.863   0.503
  679SOL    HW1 2329   2.711   1.950   0.492
  679SOL    HW2 2330   2.580   1.880   0.516
  680SOL     OW 2331   2.058   2.841   1.253
  680SOL    HW1 2332   2.141   2.794   1.248
  680SOL    HW2 2333   1.991   2.774   1.238
  681SOL     OW 2334   2.198   2.112   1.821
  681SOL    HW1 2335   2.239   2.199   1.817
  681SOL    HW2 2336   2.108   2.129   1.848
  682SOL     OW 2337   2.453   2.579   0.268
  682SOL    HW1 2338   2.464   2.658   0.216
  682SOL    HW2 2339   2.390   2.604   0.336
  683SOL     OW 2340   2.670   2.498   1.463
  683SOL    HW1 2341   2.640   2.474   1.550
  683SOL    HW2 2342   2.629   2.434   1.405
  684SOL     OW 2343   2.834   2.741   1.578
  684SOL    HW1 2344   2.833   2.652   1.543
  684SOL    HW2 2345   2.783   2.792   1.515
  685SOL     OW 2346   2.852   2.244   1.253
  685SOL    HW1 2347   2.772   2.279   1.293
  685SOL    HW2 2348   2.828   2.231   1.161
  686SOL     OW 2349   2.889   2.578   0.412
  686SOL    HW1 2350   2.921   2.569   0.502
  686SOL    HW2 2351   2.814   2.518   0.406
  687SOL     OW 2352   1.946   2.680   0.778
  687SOL    HW1 2353   2.030   2.670   0.823
  687SOL    HW2 2354   1.913   2.764   0.810
  688SOL     OW 2355   2.789   2.191   0.219
  688SOL    HW1 2356   2.799   2.261   0.153
  688SOL    HW2 2357   2.753   2.117   0.169
  689SOL     OW 2358   2.407   2.053   0.877
  689SOL    HW1 2359   2.402   2.054   0.973
  689SOL    HW2 2360   2.423   2.144   0.853
  690SOL     OW 2361   2.049   2.143   1.493
  690SOL    HW1 2362   1.982   2.190   1.543
  690SOL    HW2 2363   2.059   2.060   1.540
  691SOL     OW 2364   2.248   2.558   0.473
  691SOL    HW1 2365   2.273   2.466   0.482
  691SOL    HW2 2366   2.155   2.560   0.496
  692SOL     OW 2367   2.482   1.976   0.110
  692SOL    HW1 2368   2.576   1.965   0.123
  692SOL    HW2 2369   2.465   1.938   0.024
  693SOL     OW 2370   2.636   2.150   1.759
  693SOL    HW1 2371   2.698   2.078   1.771
  693SOL    HW2 2372   2.569   2.135   1.826
  694SOL     OW 2373   2.800   2.370   0.898
  694SOL    HW1 2374   2.764   2.356   0.810
  694SOL    HW2 2375   2.826   2.283   0.928
  695SOL     OW 2376   2.406   1.920   0.503
  695SOL    HW1 2377   2.332   1.927   0.563
  695SOL    HW2 2378   2.401   1.999   0.449
  696SOL     OW 2379   2.810   2.099   0.465
  696SOL    HW1 2380   2.776   2.147   0.390
  696SOL    HW2 2381   2.898   2.071   0.439
  697SOL     OW 2382   2.882   2.371   0.038
  697SOL    HW1 2383   2.842   2.450   0.003
  697SOL    HW2 2384   2.944   2.402   0.104
  698SOL     OW 2385   1.931   2.424   1.384
  698SOL    HW1 2386   2.023   2.408   1.363
  698SOL    HW2 2387   1.934   2.490   1.453
  699SOL     OW 2388   2.400   2.027   1.141
  699SOL    HW1 2389   2.478   2.004   1.193
  699SOL    HW2 2390   2.369   2.108   1.182
  700SOL     OW 2391   2.741   2.318   0.634
  700SOL    HW1 2392   2.685   2.379   0.585
  700SOL    HW2 2393   2.743   2.239   0.580
  701SOL     OW 2394   2.861   1.921   0.756
  701SOL    HW1 2395   2.811   1.904   0.676
  701SOL    HW2 2396   2.851   1.841   0.808
  702SOL     OW 2397   2.379   2.119   0.322
  702SOL    HW1 2398   2.424   2.072   0.252
  702SOL    HW2 2399   2.367   2.208   0.288
  703SOL     OW 2400   2.766   1.936   1.389
  703SOL    HW1 2401   2.788   1.935   1.295
  703SOL    HW2 2402   2.835   1.990   1.428
  704SOL     OW 2403   2.274   2.675   1.255
  704SOL    HW1 2404   2.346   2.684   1.317
  704SOL    HW2 2405   2.244   2.585   1.265
  705SOL     OW 2406   2.418   2.394   0.864
  705SOL    HW1 2407   2.435   2.455   0.792
  705SOL    HW2 2408   2.478   2.422   0.934
  706SOL     OW 2409   2.273   2.598   1.603
  706SOL    HW1 2410   2.334   2.645   1.546
  706SOL    HW2 2411   2.315   2.514   1.619
  707SOL     OW 2412   2.859   1.988   1.778
  707SOL    HW1 2413   2.892   2.047   1.710
  707SOL    HW2 2414   2.895   1.902   1.755
  708SOL     OW 2415   2.345   1.897   1.744
  708SOL    HW1 2416   2.290   1.852   1.680
  708SOL    HW2 2417   2.298   1.978   1.763
  709SOL     OW 2418   2.428   2.749   1.021
  709SOL    HW1 2419   2.478   2.830   1.031
  709SOL    HW2 2420   2.393   2.731   1.109
  710SOL     OW 2421   0.056   2.391   0.277
  710SOL    HW1 2422   0.078   2.316   0.332
  710SOL    HW2 2423   0.027   2.458   0.339
  711SOL     OW 2424   2.123   2.071   1.240
  711SOL    HW1 2425   2.114   2.100   1.331
  711SOL    HW2 2426   2.140   1.977   1.247
  712SOL     OW 2427   2.593   2.516   1.034
  712SOL    HW1 2428   2.674   2.497   0.987
  712SOL    HW2 2429   2.570   2.605   1.008
  713SOL     OW 2430   2.145   1.931   0.613
  713SOL    HW1 2431   2.141   2.023   0.639
  713SOL    HW2 2432   2.174   1.885   0.692
  714SOL     OW 2433   2.869   2.631   0.972
  714SOL    HW1 2434   2.898   2.634   1.063
  714SOL    HW2 2435   2.872   2.538   0.949
  715SOL     OW 2436   2.224   2.787   1.800
  715SOL    HW1 2437   2.286   2.784   1.873
  715SOL    HW2 2438   2.250   2.714   1.744
  716SOL     OW 2439   2.172   2.672   0.943
  716SOL    HW1 2440   2.263   2.699   0.946
  716SOL    HW2 2441   2.172   2.583   0.978
  717SOL     OW 2442   2.183   2.390   0.999
  717SOL    HW1 2443   2.157   2.298   0.992
  717SOL    HW2 2444   2.267   2.395   0.953
  718SOL     OW 2445   2.967   2.241   1.668
  718SOL    HW1 2446   2.907   2.300   1.712
  718SOL    HW2 2447   0.053   2.283   1.676
  719SOL     OW 2448   2.981   2.069   1.467
  719SOL    HW1 2449   2.966   2.135   1.534
  719SOL    HW2 2450   2.973   2.117   1.384
  720SOL     OW 2451   2.852   2.661   1.252
  720SOL    HW1 2452   2.898   2.606   1.315
  720SOL    HW2 2453   2.768   2.616   1.238
  721SOL     OW 2454   1.897   2.396   1.112
  721SOL    HW1 2455   1.980   2.393   1.065
  721SOL    HW2 2456   1.922   2.408   1.204
  722SOL     OW 2457   2.050   2.374   1.717
  722SOL    HW1 2458   2.123   2.348   1.662
  722SOL    HW2 2459   2.012   2.450   1.674
  723SOL     OW 2460   2.669   2.426   0.357
  723SOL    HW1 2461   2.674   2.359   0.288
  723SOL    HW2 2462   2.596   2.482   0.331
  724SOL     OW 2463   2.305   2.351   0.207
  724SOL    HW1 2464   2.373   2.418   0.221
  724SOL    HW2 2465   2.226   2.401   0.187
  725SOL     OW 2466   2.035   2.997   1.475
  725SOL    HW1 2467   2.031   2.938   1.550
  725SOL    HW2 2468   2.043   2.938   1.399
  726SOL     OW 2469   2.756   1.932   0.126
  726SOL    HW1 2470   2.814   1.921   0.051
  726SOL    HW2 2471   2.807   1.901   0.201
  727SOL     OW 2472   2.130   2.176   0.720
  727SOL    HW1 2473   2.050   2.224   0.699
  727SOL    HW2 2474   2.132   2.173   0.815
  728SOL     OW 2475   2.668   2.856   1.361
  728SOL    HW1 2476   2.736   2.825   1.301
  728SOL    HW2 2477   2.698   2.942   1.389
  729SOL     OW 2478   2.745   2.782   0.284
  729SOL    HW1 2479   2.823   2.835   0.268
  729SOL    HW2 2480   2.769   2.721   0.353
  730SOL     OW 2481   2.890   2.102   0.964
  730SOL    HW1 2482   2.881   2.052   0.883
  730SOL    HW2 2483   2.871   2.040   1.034
  731SOL     OW 2484   1.976   2.858   1.708
  731SOL    HW1 2485   1.903   2.850   1.769
  731SOL    HW2 2486   2.054   2.843   1.762
  732SOL     OW 2487   2.532   2.028   1.521
  732SOL    HW1 2488   2.584   2.063   1.448
  732SOL    HW2 2489   2.550   2.086   1.594
  733SOL     OW 2490   1.924   2.025   0.338
  733SOL    HW1 2491   1.919   2.083   0.263
  733SOL    HW2 2492   2.011   1.985   0.332
  734SOL     OW 2493   2.472   2.691   1.436
  734SOL    HW1 2494   2.529   2.765   1.416
  734SOL    HW2 2495   2.531   2.616   1.443
  735SOL     OW 2496   2.576   2.431   1.706
  735SOL    HW1 2497   2.611   2.496   1.767
  735SOL    HW2 2498   2.611   2.348   1.737
  736SOL     OW 2499   2.456   2.584   0.659
  736SOL    HW1 2500   2.485   2.674   0.671
  736SOL    HW2 2501   2.384   2.590   0.596
  737SOL     OW 2502   2.741   2.835   0.857
  737SOL    HW1 2503   2.785   2.758   0.895
  737SOL    HW2 2504   2.694   2.874   0.930
  738SOL     OW 2505   2.280   2.295   0.521
  738SOL    HW1 2506   2.321   2.226   0.468
  738SOL    HW2 2507   2.252   2.250   0.600
  739SOL     OW 2508   2.187   2.407   1.289
  739SOL    HW1 2509   2.249   2.367   1.350
  739SOL    HW2 2510   2.222   2.388   1.202
  740SOL     OW 2511   2.868   1.883   1.139
  740SOL    HW1 2512   2.810   1.813   1.109
  740SOL    HW2 2513   2.956   1.854   1.115
  741SOL     OW 2514   1.868   2.916   0.308
  741SOL    HW1 2515   1.952   2.920   0.263
  741SOL    HW2 2516   1.864   2.826   0.342
  742SOL     OW 2517   2.093   2.464   1.982
  742SOL    HW1 2518   2.012   2.502   2.015
  742SOL    HW2 2519   2.079   2.454   1.888
  743SOL     OW 2520   2.085   2.142   2.854
  743SOL    HW1 2521   2.111   2.118   2.943
  743SOL    HW2 2522   1.998   2.103   2.842
  744SOL     OW 2523   1.869   2.240   2.506
  744SOL    HW1 2524   1.783   2.271   2.534
  744SOL    HW2 2525   1.851   2.162   2.453
  745SOL     OW 2526   2.632   0.020   2.881
  745SOL    HW1 2527   2.537   0.031   2.883
  745SOL    HW2 2528   2.663   0.083   2.816
  746SOL     OW 2529   2.506   2.855   2.579
  746SOL    HW1 2530   2.602   2.855   2.588
  746SOL    HW2 2531   2.488   2.927   2.518
  747SOL     OW 2532   2.100   0.294   2.363
  747SOL    HW1 2533   2.049   0.374   2.355
  747SOL    HW2 2534   2.040   0.223   2.339
  748SOL     OW 2535   2.118   2.957   2.760
  748SOL    HW1 2536   2.129   2.864   2.782
  748SOL    HW2 2537   2.032   2.980   2.797
  749SOL     OW 2538   2.443   2.845   1.995
  749SOL    HW1 2539   2.474   2.890   1.917
  749SOL    HW2 2540   2.522   2.831   2.048
  750SOL     OW 2541   1.975   2.509   2.424
  750SOL    HW1 2542   1.947   2.421   2.449
  750SOL    HW2 2543   1.964   2.561   2.504
  751SOL     OW 2544   2.485   0.246   2.575
  751SOL    HW1 2545   2.475   0.158   2.538
  751SOL    HW2 2546   2.464   0.304   2.502
  752SOL     OW 2547   2.675   1.862   2.369
  752SOL    HW1 2548   2.716   1.947   2.353
  752SOL    HW2 2549   2.582   1.881   2.377
  753SOL     OW 2550   2.060   2.802   0.130
  753SOL    HW1 2551   2.136   2.754   0.098
  753SOL    HW2 2552   1.986   2.766   0.080
  754SOL     OW 2553   2.451   2.574   2.126
  754SOL    HW1 2554   2.489   2.654   2.089
  754SOL    HW2 2555   2.389   2.605   2.192
  755SOL     OW 2556   2.908   2.537   2.293
  755SOL    HW1 2557   2.907   2.590   2.373
  755SOL    HW2 2558   2.818   2.542   2.260
  756SOL     OW 2559   1.950   2.656   2.651
  756SOL    HW1 2560   2.034   2.674   2.694
  756SOL    HW2 2561   1.904   2.740   2.653
  757SOL     OW 2562   2.749   2.202   2.056
  757SOL    HW1 2563   2.786   2.271   2.001
  757SOL    HW2 2564   2.766   2.121   2.008
  758SOL     OW 2565   2.409   2.048   2.764
  758SOL    HW1 2566   2.392   2.094   2.846
  758SOL    HW2 2567   2.421   2.117   2.699
  759SOL     OW 2568   2.250   2.557   2.341
  759SOL    HW1 2569   2.273   2.465   2.348
  759SOL    HW2 2570   2.156   2.560   2.358
  760SOL     OW 2571   2.485   1.979   1.969
  760SOL    HW1 2572   2.566   1.928   1.971
  760SOL    HW2 2573   2.439   1.948   1.891
  761SOL     OW 2574   2.785   2.372   2.758
  761SOL    HW1 2575   2.761   2.354   2.668
  761SOL    HW2 2576   2.815   2.288   2.793
  762SOL     OW 2577   2.413   1.925   2.364
  762SOL    HW1 2578   2.330   1.924   2.412
  762SOL    HW2 2579   2.408   2.004   2.310
  763SOL     OW 2580   2.161   1.910   2.061
  763SOL    HW1 2581   2.216   1.970   2.010
  763SOL    HW2 2582   2.221   1.842   2.091
  764SOL     OW 2583   2.804   2.101   2.317
  764SOL    HW1 2584   2.764   2.153   2.248
  764SOL    HW2 2585   2.892   2.081   2.286
  765SOL     OW 2586   2.889   2.416   1.880
  765SOL    HW1 2587   2.841   2.494   1.855
  765SOL    HW2 2588   2.933   2.439   1.962
  766SOL     OW 2589   2.737   2.315   2.497
  766SOL    HW1 2590   2.695   2.381   2.442
  766SOL    HW2 2591   2.740   2.237   2.441
  767SOL     OW 2592   2.857   1.923   2.612
  767SOL    HW1 2593   2.808   1.899   2.533
  767SOL    HW2 2594   2.850   1.846   2.669
  768SOL     OW 2595   2.392   2.125   2.184
  768SOL    HW1 2596   2.426   2.074   2.111
  768SOL    HW2 2597   2.371   2.210   2.147
  769SOL     OW 2598   2.415   2.395   2.727
  769SOL    HW1 2599   2.428   2.449   2.649
  769SOL    HW2 2600   2.479   2.427   2.790
  770SOL     OW 2601   2.438   2.725   2.887
  770SOL    HW1 2602   2.474   2.801   2.842
  770SOL    HW2 2603   2.432   2.752   2.979
  771SOL     OW 2604   0.059   2.387   2.135
  771SOL    HW1 2605   0.096   2.321   2.193
  771SOL    HW2 2606   0.006   2.443   2.192
  772SOL     OW 2607   2.132   2.069   0.113
  772SOL    HW1 2608   2.199   2.105   0.171
  772SOL    HW2 2609   2.146   1.974   0.116
  773SOL     OW 2610   2.592   2.497   2.915
  773SOL    HW1 2611   2.664   2.481   2.854
  773SOL    HW2 2612   2.560   2.584   2.892
  774SOL     OW 2613   2.175   1.930   2.485
  774SOL    HW1 2614   2.157   2.021   2.511
  774SOL    HW2 2615   2.169   1.881   2.567
  775SOL     OW 2616   2.863   2.630   2.829
  775SOL    HW1 2617   2.898   2.629   2.918
  775SOL    HW2 2618   2.871   2.539   2.799
  776SOL     OW 2619   2.173   2.678   2.822
  776SOL    HW1 2620   2.266   2.698   2.816
  776SOL    HW2 2621   2.169   2.583   2.836
  777SOL     OW 2622   2.184   2.397   2.868
  777SOL    HW1 2623   2.149   2.309   2.856
  777SOL    HW2 2624   2.265   2.398   2.816
  778SOL     OW 2625   2.885   2.638   0.098
  778SOL    HW1 2626   2.919   2.630   0.187
  778SOL    HW2 2627   2.795   2.667   0.110
  779SOL     OW 2628   2.659   2.415   2.225
  779SOL    HW1 2629   2.662   2.349   2.156
  779SOL    HW2 2630   2.595   2.480   2.194
  780SOL     OW 2631   2.564   2.308   0.102
  780SOL    HW1 2632   2.476   2.274   0.084
  780SOL    HW2 2633   2.575   2.380   0.041
  781SOL     OW 2634   2.329   2.348   2.050
  781SOL    HW1 2635   2.383   2.425   2.073
  781SOL    HW2 2636   2.242   2.384   2.036
  782SOL     OW 2637   0.157   2.714   2.157
  782SOL    HW1 2638   0.099   2.660   2.210
  782SOL    HW2 2639   0.187   2.655   2.087
  783SOL     OW 2640   2.128   2.176   2.581
  783SOL    HW1 2641   2.047   2.218   2.553
  783SOL    HW2 2642   2.123   2.175   2.677
  784SOL     OW 2643   2.872   2.095   2.824
  784SOL    HW1 2644   2.869   2.059   2.735
  784SOL    HW2 2645   2.909   2.025   2.877
  785SOL     OW 2646   1.933   2.202   1.903
  785SOL    HW1 2647   1.863   2.168   1.847
  785SOL    HW2 2648   1.970   2.275   1.853
  786SOL     OW 2649   1.936   2.030   2.177
  786SOL    HW1 2650   1.923   2.103   2.116
  786SOL    HW2 2651   2.018   1.989   2.149
  787SOL     OW 2652   2.452   2.586   2.530
  787SOL    HW1 2653   2.478   2.678   2.538
  787SOL    HW2 2654   2.386   2.586   2.461
  788SOL     OW 2655   2.748   2.836   2.718
  788SOL    HW1 2656   2.786   2.755   2.752
  788SOL    HW2 2657   2.705   2.876   2.794
  789SOL     OW 2658   2.964   2.840   1.886
  789SOL    HW1 2659   2.903   2.909   1.912
  789SOL    HW2 2660   0.010   2.818   1.967
  790SOL     OW 2661   2.290   2.294   2.387
  790SOL    HW1 2662   2.321   2.225   2.328
  790SOL    HW2 2663   2.245   2.247   2.457
  791SOL     OW 2664   1.893   2.930   2.162
  791SOL    HW1 2665   1.983   2.929   2.130
  791SOL    HW2 2666   1.876   2.840   2.190
  792CL      CL 2667   1.477   0.169   1.694
  793CL      CL 2668   1.617   2.841   2.508
  794CL      CL 2669   0.339   2.361   2.886
  795CL      CL 2670   2.798   0.127   1.420
  796CL      CL 2671   2.513   2.280   1.302
  797CL      CL 2672   2.726   2.792   2.117
   3.00000   3.00000   3.00000
