dispersed dyes in crowders in water
26825
    1PIC2   R1A    1   3.103   3.087   2.516
    1PIC2   R1B    2   2.979   3.132   2.473
    1PIC2   R1C    3   2.965   3.260   2.422
    1PIC2   R1D    4   3.076   3.342   2.413
    1PIC2   R1E    5   3.201   3.296   2.453
    1PIC2   R1F    6   3.217   3.168   2.505
    1PIC2   N2A    7   3.345   3.123   2.542
    1PIC2   R2D    8   3.312   3.376   2.436
    1PIC2   R2E    9   3.439   3.331   2.469
    1PIC2   R2F   10   3.456   3.206   2.530
    1PIC2   L1A   11   3.576   3.169   2.595
    1PIC2   N3A   12   3.816   3.159   2.602
    1PIC2   R3B   13   3.699   3.236   2.600
    1PIC2   R3C   14   3.711   3.375   2.587
    1PIC2   R3D   15   3.835   3.434   2.570
    1PIC2   R3E   16   3.951   3.358   2.575
    1PIC2   R3F   17   3.942   3.220   2.592
    1PIC2   R4A   18   4.061   3.148   2.607
    1PIC2   R4D   19   4.074   3.423   2.572
    1PIC2   R4E   20   4.191   3.350   2.588
    1PIC2   R4F   21   4.184   3.213   2.605
    1PIC2   H1A   22   3.108   2.989   2.562
    1PIC2   H1B   23   2.894   3.065   2.474
    1PIC2   H1C   24   2.867   3.296   2.388
    1PIC2   H1D   25   3.065   3.444   2.376
    1PIC2   H2D   26   3.301   3.477   2.396
    1PIC2   H2E   27   3.522   3.379   2.419
    1PIC2   L1H   28   3.562   3.101   2.679
    1PIC2   H3C   29   3.626   3.440   2.608
    1PIC2   H3D   30   3.840   3.540   2.543
    1PIC2   H4A   31   4.062   3.040   2.617
    1PIC2   H4D   32   4.080   3.530   2.552
    1PIC2   H4E   33   4.288   3.400   2.580
    1PIC2   H4F   34   4.276   3.155   2.614
    1PIC2   T2A   35   3.368   2.972   2.556
    1PIC2   T3A   36   3.381   2.900   2.422
    1PIC2   T2B   37   3.804   3.007   2.589
    1PIC2   T3B   38   3.816   2.959   2.445
    2PIC    R1A   39   2.301   3.123   2.764
    2PIC    R1B   40   2.171   3.170   2.774
    2PIC    R1C   41   2.146   3.307   2.781
    2PIC    R1D   42   2.252   3.396   2.780
    2PIC    R1E   43   2.382   3.348   2.773
    2PIC    R1F   44   2.408   3.211   2.763
    2PIC    N2A   45   2.540   3.164   2.764
    2PIC    R2D   46   2.488   3.436   2.789
    2PIC    R2E   47   2.617   3.389   2.799
    2PIC    R2F   48   2.645   3.252   2.789
    2PIC    L1A   49   2.773   3.197   2.812
    2PIC    N3A   50   3.013   3.205   2.864
    2PIC    R3B   51   2.899   3.258   2.802
    2PIC    R3C   52   2.913   3.378   2.732
    2PIC    R3D   53   3.032   3.447   2.729
    2PIC    R3E   54   3.145   3.394   2.789
    2PIC    R3F   55   3.137   3.271   2.854
    2PIC    R4A   56   3.255   3.217   2.906
    2PIC    R4D   57   3.265   3.463   2.778
    2PIC    R4E   58   3.381   3.410   2.833
    2PIC    R4F   59   3.375   3.287   2.896
    2PIC    H1A   60   2.315   3.015   2.765
    2PIC    H1B   61   2.087   3.100   2.778
    2PIC    H1C   62   2.044   3.344   2.785
    2PIC    H1D   63   2.233   3.503   2.782
    2PIC    H2D   64   2.470   3.543   2.795
    2PIC    H2E   65   2.694   3.463   2.821
    2PIC    L1H   66   2.769   3.095   2.851
    2PIC    H3C   67   2.837   3.408   2.659
    2PIC    H3D   68   3.038   3.542   2.675
    2PIC    H4A   69   3.260   3.115   2.942
    2PIC    H4D   70   3.272   3.554   2.718
    2PIC    H4E   71   3.474   3.466   2.830
    2PIC    H4F   72   3.466   3.244   2.939
    2PIC    T2A   73   2.570   3.035   2.686
    2PIC    T3A   74   2.582   3.062   2.536
    2PIC    T2B   75   3.007   3.069   2.937
    2PIC    T3B   76   3.030   2.950   2.844
    3PIC    R1A   77   3.141   3.142   3.305
    3PIC    R1B   78   3.013   3.192   3.291
    3PIC    R1C   79   2.992   3.324   3.253
    3PIC    R1D   80   3.101   3.406   3.227
    3PIC    R1E   81   3.230   3.355   3.240
    3PIC    R1F   82   3.252   3.223   3.279
    3PIC    N2A   83   3.382   3.176   3.297
    3PIC    R2D   84   3.338   3.438   3.219
    3PIC    R2E   85   3.467   3.393   3.240
    3PIC    R2F   86   3.491   3.263   3.286
    3PIC    L1A   87   3.613   3.217   3.339
    3PIC    N3A   88   3.850   3.182   3.325
    3PIC    R3B   89   3.742   3.271   3.329
    3PIC    R3C   90   3.766   3.405   3.296
    3PIC    R3D   91   3.890   3.445   3.250
    3PIC    R3E   92   3.996   3.357   3.246
    3PIC    R3F   93   3.978   3.225   3.287
    3PIC    R4A   94   4.089   3.141   3.295
    3PIC    R4D   95   4.122   3.402   3.208
    3PIC    R4E   96   4.232   3.318   3.214
    3PIC    R4F   97   4.214   3.187   3.258
    3PIC    H1A   98   3.153   3.044   3.352
    3PIC    H1B   99   2.927   3.127   3.308
    3PIC    H1C  100   2.892   3.367   3.258
    3PIC    H1D  101   3.085   3.510   3.198
    3PIC    H2D  102   3.322   3.540   3.184
    3PIC    H2E  103   3.546   3.455   3.199
    3PIC    L1H  104   3.599   3.157   3.429
    3PIC    H3C  105   3.701   3.482   3.337
    3PIC    H3D  106   3.905   3.550   3.223
    3PIC    H4A  107   4.084   3.044   3.345
    3PIC    H4D  108   4.136   3.505   3.174
    3PIC    H4E  109   4.331   3.357   3.193
    3PIC    H4F  110   4.300   3.121   3.267
    3PIC    T2A  111   3.409   3.026   3.277
    3PIC    T3A  112   3.426   2.988   3.130
    3PIC    T2B  113   3.822   3.031   3.332
    3PIC    T3B  114   3.810   2.965   3.194
    4PIC    R1A  115   2.281   3.107   3.761
    4PIC    R1B  116   2.158   3.159   3.724
    4PIC    R1C  117   2.144   3.295   3.699
    4PIC    R1D  118   2.253   3.379   3.713
    4PIC    R1E  119   2.376   3.325   3.746
    4PIC    R1F  120   2.393   3.189   3.768
    4PIC    N2A  121   2.523   3.137   3.783
    4PIC    R2D  122   2.487   3.408   3.741
    4PIC    R2E  123   2.615   3.356   3.748
    4PIC    R2F  124   2.635   3.220   3.774
    4PIC    L1A  125   2.763   3.166   3.801
    4PIC    N3A  126   2.997   3.144   3.851
    4PIC    R3B  127   2.886   3.228   3.833
    4PIC    R3C  128   2.910   3.363   3.809
    4PIC    R3D  129   3.037   3.408   3.781
    4PIC    R3E  130   3.146   3.323   3.788
    4PIC    R3F  131   3.128   3.191   3.828
    4PIC    R4A  132   3.242   3.111   3.843
    4PIC    R4D  133   3.272   3.373   3.757
    4PIC    R4E  134   3.384   3.292   3.771
    4PIC    R4F  135   3.368   3.162   3.815
    4PIC    H1A  136   2.281   3.006   3.802
    4PIC    H1B  137   2.070   3.094   3.718
    4PIC    H1C  138   2.050   3.333   3.659
    4PIC    H1D  139   2.240   3.487   3.703
    4PIC    H2D  140   2.474   3.515   3.727
    4PIC    H2E  141   2.691   3.414   3.698
    4PIC    L1H  142   2.780   3.076   3.742
    4PIC    H3C  143   2.838   3.438   3.843
    4PIC    H3D  144   3.051   3.513   3.755
    4PIC    H4A  145   3.235   3.009   3.880
    4PIC    H4D  146   3.284   3.475   3.723
    4PIC    H4E  147   3.483   3.332   3.748
    4PIC    H4F  148   3.457   3.099   3.832
    4PIC    T2A  149   2.540   2.984   3.781
    4PIC    T3A  150   2.548   2.928   3.638
    4PIC    T2B  151   2.974   3.001   3.902
    4PIC    T3B  152   2.984   2.896   3.791
    5PIC    R1A  153   3.124   3.142   4.255
    5PIC    R1B  154   2.999   3.196   4.228
    5PIC    R1C  155   2.985   3.330   4.197
    5PIC    R1D  156   3.098   3.411   4.193
    5PIC    R1E  157   3.224   3.356   4.218
    5PIC    R1F  158   3.239   3.222   4.251
    5PIC    N2A  159   3.366   3.171   4.282
    5PIC    R2D  160   3.336   3.437   4.210
    5PIC    R2E  161   3.461   3.386   4.237
    5PIC    R2F  162   3.478   3.255   4.281
    5PIC    L1A  163   3.597   3.206   4.340
    5PIC    N3A  164   3.836   3.180   4.335
    5PIC    R3B  165   3.725   3.264   4.347
    5PIC    R3C  166   3.746   3.402   4.340
    5PIC    R3D  167   3.871   3.454   4.314
    5PIC    R3E  168   3.980   3.370   4.296
    5PIC    R3F  169   3.964   3.232   4.308
    5PIC    R4A  170   4.076   3.151   4.288
    5PIC    R4D  171   4.103   3.425   4.262
    5PIC    R4E  172   4.212   3.343   4.239
    5PIC    R4F  173   4.198   3.206   4.252
    5PIC    H1A  174   3.129   3.038   4.287
    5PIC    H1B  175   2.910   3.133   4.237
    5PIC    H1C  176   2.886   3.375   4.190
    5PIC    H1D  177   3.087   3.519   4.192
    5PIC    H2D  178   3.325   3.543   4.188
    5PIC    H2E  179   3.545   3.445   4.201
    5PIC    L1H  180   3.577   3.142   4.427
    5PIC    H3C  181   3.671   3.469   4.384
    5PIC    H3D  182   3.887   3.562   4.321
    5PIC    H4A  183   4.073   3.044   4.309
    5PIC    H4D  184   4.113   3.533   4.250
    5PIC    H4E  185   4.307   3.386   4.208
    5PIC    H4F  186   4.282   3.140   4.225
    5PIC    T2A  187   3.389   3.019   4.276
    5PIC    T3A  188   3.417   2.970   4.133
    5PIC    T2B  189   3.814   3.028   4.343
    5PIC    T3B  190   3.803   2.961   4.206
    6RO1    FR1  191   2.260   1.124   6.432
    6RO1     C1  192   2.144   0.888   0.471
    6RO1     C1  193   2.473   0.757   0.461
    6RO1     C1  194   1.724   1.310   0.122
    6RO1     C1  195   1.861   1.097   0.383
    6RO1     C1  196   1.979   1.440   0.354
    6RO1     C1  197   2.069   1.681   6.326
    6RO1     C1  198   1.781   1.458   6.296
    6RO1     C1  199   2.016   1.486   6.021
    6RO1     C1  200   2.594   1.516   6.126
    6RO1     C1  201   2.340   1.387   5.896
    6RO1     C1  202   2.634   1.191   5.968
    6RO1     C1  203   2.850   1.162   0.022
    6RO1     C1  204   2.863   0.803   0.010
    6RO1     C1  205   2.795   0.971   6.204
    6RO1     C1  206   2.316   0.527   6.398
    6RO1     C1  207   2.180   0.818   5.919
    6RO1     C1  208   2.546   1.656   0.225
    6RO1     C1  209   2.567   0.649   0.134
    6RO1     C1  210   1.977   0.500   0.012
    6RO1     C1  211   1.895   0.761   0.241
    6RO1     C1  212   1.779   0.770   6.386
    6RO1     C1  213   1.674   1.109   6.319
    6RO1     C1  214   1.850   0.910   6.056
    6RO1     C1  215   2.058   1.155   5.870
    6RO1     C1  216   2.882   1.316   6.198
    6RO1     C1  217   2.452   1.113   0.497
    6RO1     C1  218   2.381   1.062   5.748
    6RO1     C1  219   2.124   1.220   0.596
    6RO1     C1  220   2.300   1.705   6.054
    6RO1     C1  221   2.538   0.839   5.980
    6RO1     C1  222   2.727   1.497   6.467
    6RO1     C1  223   2.677   1.329   0.303
    6RO1     C1  224   2.340   1.449   0.426
    6RO1     C1  225   2.711   0.964   0.291
    6RO1     C1  226   2.192   1.672   0.170
    6RO1     C1  227   2.427   1.698   6.391
    6RO1     C1  228   1.840   1.648   0.097
    6RO1     C1  229   2.040   0.620   6.180
    6RO1     C1  230   2.623   0.662   6.278
    6RO1     C1  231   2.226   0.611   0.245
    6RO1     C1  232   1.623   0.968   0.144
    6RO1     C1  233   1.744   1.253   6.003
    7RO2    FR2  234   2.889   2.337   1.109
    7RO2     C2  235   2.816   1.879   0.743
    7RO2     C2  236   3.178   1.937   0.767
    7RO2     C2  237   2.337   2.173   1.272
    7RO2     C2  238   2.445   1.945   1.013
    7RO2     C2  239   2.566   1.896   1.353
    7RO2     C2  240   2.748   2.290   1.689
    7RO2     C2  241   2.469   2.448   1.517
    7RO2     C2  242   2.527   2.765   1.368
    7RO2     C2  243   3.114   2.752   1.497
    7RO2     C2  244   2.856   2.901   1.308
    7RO2     C2  245   3.195   2.843   1.147
    7RO2     C2  246   3.488   2.295   1.169
    7RO2     C2  247   3.405   2.248   0.821
    7RO2     C2  248   3.404   2.597   0.967
    7RO2     C2  249   2.956   2.527   0.551
    7RO2     C2  250   2.745   2.765   0.727
    7RO2     C2  251   3.053   2.085   1.626
    7RO2     C2  252   3.158   2.225   0.563
    7RO2     C2  253   2.811   2.190   0.529
    7RO2     C2  254   2.518   2.082   0.692
    7RO2     C2  255   2.572   2.439   0.620
    7RO2     C2  256   2.325   2.521   1.193
    7RO2     C2  257   2.414   2.640   0.865
    7RO2     C2  258   2.610   2.872   1.043
    7RO2     C2  259   3.388   2.594   1.335
    7RO2     C2  260   3.098   1.774   1.077
    7RO2     C2  261   2.926   3.000   0.965
    7RO2     C2  262   2.742   1.750   1.074
    7RO2     C2  263   2.777   2.651   1.601
    7RO2     C2  264   3.120   2.772   0.783
    7RO2     C2  265   3.342   2.271   1.499
    7RO2     C2  266   3.260   1.939   1.372
    7RO2     C2  267   2.922   1.812   1.391
    7RO2     C2  268   3.397   1.973   1.047
    7RO2     C2  269   2.737   1.928   1.672
    7RO2     C2  270   3.074   2.444   1.672
    7RO2     C2  271   2.437   2.110   1.612
    7RO2     C2  272   2.682   2.682   0.377
    7RO2     C2  273   3.318   2.534   0.621
    7RO2     C2  274   3.020   1.910   0.442
    7RO2     C2  275   2.327   2.288   0.915
    7RO2     C2  276   2.263   2.867   1.127
    8RO3    FR3  277   2.353   5.893   2.902
    8RO3    CC3  278   2.746   6.235   2.600
    8RO3    CC3  279   2.788   5.916   2.452
    8RO3    CC3  280   2.343   6.235   3.393
    8RO3    CC3  281   2.605   6.365   3.183
    8RO3    CC3  282   2.277   6.457   3.083
    8RO3    CC3  283   1.758   6.154   3.218
    8RO3    CC3  284   2.046   6.020   3.395
    8RO3    CC3  285   2.091   5.662   3.391
    8RO3    CC3  286   1.807   5.662   2.838
    8RO3    CC3  287   1.948   5.480   3.116
    8RO3    CC3  288   2.097   5.360   2.814
    8RO3    CC3  289   2.196   5.753   2.346
    8RO3    CC3  290   2.550   5.656   2.387
    8RO3    CC3  291   2.301   5.434   2.520
    8RO3    CC3  292   2.821   5.321   2.841
    8RO3    CC3  293   2.634   5.419   3.132
    8RO3    CC3  294   1.918   6.239   2.633
    8RO3    CC3  295   2.811   5.620   2.648
    8RO3    CC3  296   2.932   5.946   2.782
    8RO3    CC3  297   2.841   6.260   2.942
    8RO3    CC3  298   2.905   5.968   3.141
    8RO3    CC3  299   2.662   6.067   3.386
    8RO3    CC3  300   2.732   5.714   3.330
    8RO3    CC3  301   2.426   5.542   3.399
    8RO3    CC3  302   1.967   5.551   2.540
    8RO3    CC3  303   2.416   6.322   2.487
    8RO3    CC3  304   2.277   5.345   3.138
    8RO3    CC3  305   2.547   6.450   2.824
    8RO3    CC3  306   1.830   5.810   3.177
    8RO3    CC3  307   2.459   5.309   2.827
    8RO3    CC3  308   1.877   5.894   2.542
    8RO3    CC3  309   2.134   6.110   2.384
    8RO3    CC3  310   2.192   6.451   2.732
    8RO3    CC3  311   2.470   6.004   2.322
    8RO3    CC3  312   1.951   6.331   2.975
    8RO3    CC3  313   1.770   6.020   2.879
    8RO3    CC3  314   2.024   6.374   3.323
    8RO3    CC3  315   2.890   5.642   2.999
    8RO3    CC3  316   2.645   5.332   2.519
    8RO3    CC3  317   3.116   5.768   2.526
    8RO3    CC3  318   2.937   6.289   3.298
    8RO3    CC3  319   2.371   5.884   3.499
    9RO4    FR4  320   4.256   5.090   0.224
    9RO4     C4  321   3.705   4.855   0.107
    9RO4     C4  322   3.829   5.005   6.310
    9RO4     C4  323   4.051   4.768   0.695
    9RO4     C4  324   3.588   5.041   0.385
    9RO4     C4  325   3.808   4.753   0.436
    9RO4     C4  326   4.631   4.740   0.578
    9RO4     C4  327   4.385   4.893   0.775
    9RO4     C4  328   4.679   5.093   0.645
    9RO4     C4  329   4.831   4.976   0.087
    9RO4     C4  330   4.824   5.239   0.334
    9RO4     C4  331   4.751   5.313   6.472
    9RO4     C4  332   4.407   4.919   6.174
    9RO4     C4  333   4.135   5.160   6.143
    9RO4     C4  334   4.487   5.283   6.210
    9RO4     C4  335   4.152   5.669   0.062
    9RO4     C4  336   4.399   5.661   0.319
    9RO4     C4  337   4.401   4.514   0.174
    9RO4     C4  338   3.886   5.358   6.322
    9RO4     C4  339   3.831   5.534   0.128
    9RO4     C4  340   3.763   5.354   0.430
    9RO4     C4  341   4.013   5.374   0.691
    9RO4     C4  342   4.098   5.078   0.872
    9RO4     C4  343   4.301   5.581   0.651
    9RO4     C4  344   4.614   5.443   0.549
    9RO4     C4  345   4.738   5.032   6.248
    9RO4     C4  346   3.950   4.653   6.452
    9RO4     C4  347   4.727   5.563   0.228
    9RO4     C4  348   3.712   4.503   0.185
    9RO4     C4  349   4.911   4.908   0.433
    9RO4     C4  350   4.490   5.570   6.459
    9RO4     C4  351   4.617   4.732   6.407
    9RO4     C4  352   4.289   4.610   6.349
    9RO4     C4  353   4.057   4.532   0.283
    9RO4     C4  354   4.070   4.804   6.146
    9RO4     C4  355   4.609   4.399   0.449
    9RO4     C4  356   4.712   4.677   0.242
    9RO4     C4  357   4.312   4.586   0.533
    9RO4     C4  358   4.037   5.613   0.410
    9RO4     C4  359   4.204   5.496   6.256
    9RO4     C4  360   3.684   5.212   0.085
    9RO4     C4  361   3.830   5.059   0.642
    9RO4     C4  362   4.390   5.261   0.781
   10RO5    FR5  363   3.006   5.303   4.566
   10RO5     C5  364   3.410   5.543   4.187
   10RO5     C5  365   3.420   4.973   4.287
   10RO5     C5  366   2.989   5.900   4.612
   10RO5     C5  367   3.246   5.811   4.365
   10RO5     C5  368   2.893   5.817   4.274
   10RO5     C5  369   2.486   5.590   4.639
   10RO5     C5  370   2.736   5.765   4.840
   10RO5     C5  371   2.586   5.455   4.965
   10RO5     C5  372   2.502   4.986   4.587
   10RO5     C5  373   2.595   5.088   4.940
   10RO5     C5  374   2.757   4.805   4.782
   10RO5     C5  375   2.849   4.840   4.080
   10RO5     C5  376   3.114   4.774   4.307
   10RO5     C5  377   3.014   4.618   4.612
   10RO5     C5  378   3.424   5.006   4.873
   10RO5     C5  379   3.165   5.101   5.109
   10RO5     C5  380   2.535   5.350   4.066
   10RO5     C5  381   3.625   4.999   4.578
   10RO5     C5  382   3.579   5.319   4.735
   10RO5     C5  383   3.513   5.617   4.533
   10RO5     C5  384   3.413   5.598   4.895
   10RO5     C5  385   3.090   5.768   4.936
   10RO5     C5  386   3.157   5.464   5.123
   10RO5     C5  387   2.844   5.270   5.142
   10RO5     C5  388   2.756   4.779   4.421
   10RO5     C5  389   3.159   5.373   3.990
   10RO5     C5  390   2.857   4.913   5.109
   10RO5     C5  391   3.144   5.730   4.032
   10RO5     C5  392   2.361   5.275   4.752
   10RO5     C5  393   3.119   4.813   4.891
   10RO5     C5  394   2.587   5.036   4.232
   10RO5     C5  395   2.845   5.187   4.001
   10RO5     C5  396   2.838   5.544   4.044
   10RO5     C5  397   3.162   5.021   4.048
   10RO5     C5  398   2.581   5.624   4.290
   10RO5     C5  399   2.429   5.311   4.406
   10RO5     C5  400   2.642   5.891   4.519
   10RO5     C5  401   3.468   5.294   5.076
   10RO5     C5  402   3.329   4.795   4.595
   10RO5     C5  403   3.576   5.290   4.373
   10RO5     C5  404   3.336   5.885   4.701
   10RO5     C5  405   2.840   5.627   5.151
   11SOL     OW  406   0.151   0.698   0.088
   11SOL    HW1  407   0.075   0.650   0.131
   11SOL    HW2  408   0.118   0.750   0.010
   12SOL     OW  409   0.201   0.208   1.051
   12SOL    HW1  410   0.246   0.172   1.132
   12SOL    HW2  411   0.113   0.248   1.076
   13SOL     OW  412   6.385   0.506   0.614
   13SOL    HW1  413   6.306   0.564   0.634
   13SOL    HW2  414   6.355   0.424   0.564
   14SOL     OW  415   0.587   1.332   1.238
   14SOL    HW1  416   0.506   1.325   1.180
   14SOL    HW2  417   0.604   1.429   1.258
   15SOL     OW  418   1.493   1.514   0.725
   15SOL    HW1  419   1.442   1.491   0.808
   15SOL    HW2  420   1.429   1.541   0.653
   16SOL     OW  421   1.082   0.680   0.663
   16SOL    HW1  422   1.115   0.773   0.682
   16SOL    HW2  423   1.016   0.654   0.733
   17SOL     OW  424   1.658   0.492   0.118
   17SOL    HW1  425   1.751   0.516   0.090
   17SOL    HW2  426   1.659   0.450   0.208
   18SOL     OW  427   0.727   1.147   1.086
   18SOL    HW1  428   0.674   1.189   1.159
   18SOL    HW2  429   0.766   1.218   1.028
   19SOL     OW  430   0.890   0.698   1.790
   19SOL    HW1  431   0.911   0.759   1.866
   19SOL    HW2  432   0.901   0.748   1.704
   20SOL     OW  433   0.670   0.975   0.692
   20SOL    HW1  434   0.749   0.983   0.754
   20SOL    HW2  435   0.602   1.045   0.716
   21SOL     OW  436   0.719   1.191   1.832
   21SOL    HW1  437   0.777   1.259   1.876
   21SOL    HW2  438   0.643   1.237   1.786
   22SOL     OW  439   0.370   1.372   1.069
   22SOL    HW1  440   0.280   1.338   1.044
   22SOL    HW2  441   0.401   1.439   1.002
   23SOL     OW  442   1.447   1.492   1.418
   23SOL    HW1  443   1.491   1.581   1.429
   23SOL    HW2  444   1.364   1.488   1.475
   24SOL     OW  445   0.471   0.441   1.507
   24SOL    HW1  446   0.550   0.454   1.567
   24SOL    HW2  447   0.427   0.353   1.528
   25SOL     OW  448   1.610   0.427   0.795
   25SOL    HW1  449   1.581   0.453   0.703
   25SOL    HW2  450   1.574   0.494   0.861
   26SOL     OW  451   0.211   1.698   0.427
   26SOL    HW1  452   0.198   1.772   0.493
   26SOL    HW2  453   0.302   1.705   0.387
   27SOL     OW  454   1.119   1.332   1.729
   27SOL    HW1  455   1.170   1.321   1.815
   27SOL    HW2  456   1.063   1.251   1.713
   28SOL     OW  457   0.282   1.440   0.490
   28SOL    HW1  458   0.240   1.531   0.485
   28SOL    HW2  459   0.220   1.378   0.537
   29SOL     OW  460   0.209   1.107   0.836
   29SOL    HW1  461   0.251   1.028   0.881
   29SOL    HW2  462   0.172   1.170   0.905
   30SOL     OW  463   0.569   1.837   1.409
   30SOL    HW1  464   0.496   1.810   1.472
   30SOL    HW2  465   0.613   1.920   1.444
   31SOL     OW  466   0.529   0.983   0.228
   31SOL    HW1  467   0.547   1.051   0.157
   31SOL    HW2  468   0.596   0.993   0.302
   32SOL     OW  469   1.622   0.068   1.497
   32SOL    HW1  470   1.673   0.106   1.420
   32SOL    HW2  471   1.601   0.142   1.562
   33SOL     OW  472   0.089   0.700   0.549
   33SOL    HW1  473   0.021   0.628   0.565
   33SOL    HW2  474   0.067   0.780   0.605
   34SOL     OW  475   1.874   1.742   0.429
   34SOL    HW1  476   1.963   1.736   0.475
   34SOL    HW2  477   1.871   1.825   0.374
   35SOL     OW  478   0.103   1.615   0.180
   35SOL    HW1  479   0.079   1.518   0.184
   35SOL    HW2  480   0.133   1.646   0.270
   36SOL     OW  481   1.666   0.930   0.668
   36SOL    HW1  482   1.701   0.854   0.614
   36SOL    HW2  483   1.622   0.996   0.607
   37SOL     OW  484   1.517   1.118   0.518
   37SOL    HW1  485   1.519   1.185   0.443
   37SOL    HW2  486   1.539   1.164   0.604
   38SOL     OW  487   0.152   0.801   1.630
   38SOL    HW1  488   0.251   0.789   1.632
   38SOL    HW2  489   0.120   0.801   1.535
   39SOL     OW  490   0.609   1.386   0.742
   39SOL    HW1  491   0.567   1.297   0.757
   39SOL    HW2  492   0.592   1.416   0.648
   40SOL     OW  493   1.242   1.211   1.438
   40SOL    HW1  494   1.260   1.141   1.369
   40SOL    HW2  495   1.313   1.207   1.509
   41SOL     OW  496   0.900   0.052   0.513
   41SOL    HW1  497   0.929   0.147   0.497
   41SOL    HW2  498   0.814   0.051   0.564
   42SOL     OW  499   0.166   0.941   1.319
   42SOL    HW1  500   0.261   0.913   1.311
   42SOL    HW2  501   0.114   0.905   1.241
   43SOL     OW  502   1.357   1.022   0.313
   43SOL    HW1  503   1.312   0.933   0.318
   43SOL    HW2  504   1.420   1.033   0.390
   44SOL     OW  505   1.269   1.869   1.641
   44SOL    HW1  506   1.222   1.927   1.575
   44SOL    HW2  507   1.259   1.773   1.615
   45SOL     OW  508   0.366   0.327   1.838
   45SOL    HW1  509   0.412   0.406   1.878
   45SOL    HW2  510   0.277   0.315   1.882
   46SOL     OW  511   1.398   1.409   0.958
   46SOL    HW1  512   1.345   1.445   1.034
   46SOL    HW2  513   1.380   1.311   0.949
   47SOL     OW  514   1.583   1.861   0.541
   47SOL    HW1  515   1.551   1.802   0.466
   47SOL    HW2  516   1.635   1.806   0.606
   48SOL     OW  517   0.538   0.708   0.268
   48SOL    HW1  518   0.550   0.802   0.237
   48SOL    HW2  519   0.474   0.706   0.345
   49SOL     OW  520   1.274   0.406   0.930
   49SOL    HW1  521   1.178   0.376   0.929
   49SOL    HW2  522   1.329   0.339   0.980
   50SOL     OW  523   1.484   1.699   0.342
   50SOL    HW1  524   1.560   1.634   0.356
   50SOL    HW2  525   1.474   1.718   0.244
   51SOL     OW  526   0.786   0.613   1.441
   51SOL    HW1  527   0.755   0.568   1.525
   51SOL    HW2  528   0.763   0.555   1.362
   52SOL     OW  529   1.364   0.467   1.668
   52SOL    HW1  530   1.369   0.518   1.754
   52SOL    HW2  531   1.431   0.393   1.668
   53SOL     OW  532   0.940   0.882   1.578
   53SOL    HW1  533   1.000   0.820   1.527
   53SOL    HW2  534   0.889   0.938   1.513
   54SOL     OW  535   1.000   0.426   1.178
   54SOL    HW1  536   0.906   0.445   1.204
   54SOL    HW2  537   1.001   0.377   1.091
   55SOL     OW  538   1.025   0.644   0.399
   55SOL    HW1  539   1.045   0.651   0.496
   55SOL    HW2  540   0.931   0.614   0.386
   56SOL     OW  541   0.035   0.905   0.739
   56SOL    HW1  542   0.092   0.985   0.755
   56SOL    HW2  543   0.043   0.842   0.816
   57SOL     OW  544   0.145   1.919   1.649
   57SOL    HW1  545   0.128   1.959   1.739
   57SOL    HW2  546   0.081   1.844   1.634
   58SOL     OW  547   0.897   0.370   0.223
   58SOL    HW1  548   0.940   0.419   0.147
   58SOL    HW2  549   0.900   0.272   0.204
   59SOL     OW  550   1.668   0.573   1.826
   59SOL    HW1  551   1.639   0.656   1.777
   59SOL    HW2  552   1.699   0.505   1.759
   60SOL     OW  553   1.240   1.159   0.570
   60SOL    HW1  554   1.336   1.137   0.549
   60SOL    HW2  555   1.208   1.230   0.508
   61SOL     OW  556   0.612   0.155   0.957
   61SOL    HW1  557   0.604   0.201   1.045
   61SOL    HW2  558   0.558   0.204   0.889
   62SOL     OW  559   0.908   1.458   0.455
   62SOL    HW1  560   0.904   1.545   0.406
   62SOL    HW2  561   0.882   1.472   0.550
   63SOL     OW  562   0.342   1.811   0.860
   63SOL    HW1  563   0.383   1.722   0.876
   63SOL    HW2  564   0.408   1.883   0.882
   64SOL     OW  565   1.783   0.995   0.909
   64SOL    HW1  566   1.741   0.969   0.822
   64SOL    HW2  567   1.711   1.020   0.974
   65SOL     OW  568   1.202   1.514   1.539
   65SOL    HW1  569   1.184   1.446   1.610
   65SOL    HW2  570   1.139   1.501   1.463
   66SOL     OW  571   0.250   0.945   0.183
   66SOL    HW1  572   0.348   0.947   0.201
   66SOL    HW2  573   0.221   0.851   0.165
   67SOL     OW  574   1.439   0.801   0.752
   67SOL    HW1  575   1.453   0.730   0.821
   67SOL    HW2  576   1.527   0.844   0.729
   68SOL     OW  577   0.491   1.339   1.720
   68SOL    HW1  578   0.472   1.360   1.624
   68SOL    HW2  579   0.405   1.319   1.768
   69SOL     OW  580   1.084   1.812   0.195
   69SOL    HW1  581   1.021   1.768   0.259
   69SOL    HW2  582   1.125   1.742   0.136
   70SOL     OW  583   0.227   0.244   1.523
   70SOL    HW1  584   0.200   0.337   1.501
   70SOL    HW2  585   0.194   0.220   1.614
   71SOL     OW  586   1.504   1.316   0.338
   71SOL    HW1  587   1.552   1.404   0.331
   71SOL    HW2  588   1.465   1.293   0.249
   72SOL     OW  589   0.459   1.742   0.329
   72SOL    HW1  590   0.504   1.811   0.386
   72SOL    HW2  591   0.529   1.686   0.284
   73SOL     OW  592   1.459   0.112   0.462
   73SOL    HW1  593   1.425   0.086   0.372
   73SOL    HW2  594   1.558   0.125   0.459
   74SOL     OW  595   0.165   1.763   1.186
   74SOL    HW1  596   0.238   1.697   1.205
   74SOL    HW2  597   0.134   1.751   1.091
   75SOL     OW  598   0.908   1.712   0.887
   75SOL    HW1  599   1.002   1.678   0.895
   75SOL    HW2  600   0.861   1.662   0.814
   76SOL     OW  601   0.355   0.698   0.473
   76SOL    HW1  602   0.385   0.605   0.493
   76SOL    HW2  603   0.256   0.705   0.488
   77SOL     OW  604   1.511   0.231   1.696
   77SOL    HW1  605   1.517   0.244   1.795
   77SOL    HW2  606   1.433   0.172   1.675
   78SOL     OW  607   0.518   0.025   0.133
   78SOL    HW1  608   0.573   0.073   0.201
   78SOL    HW2  609   0.533   0.067   0.043
   79SOL     OW  610   0.738   0.244   1.696
   79SOL    HW1  611   0.819   0.186   1.706
   79SOL    HW2  612   0.657   0.190   1.719
   80SOL     OW  613   0.870   1.530   1.185
   80SOL    HW1  614   0.846   1.478   1.103
   80SOL    HW2  615   0.936   1.478   1.240
   81SOL     OW  616   1.308   0.581   1.425
   81SOL    HW1  617   1.334   0.547   1.515
   81SOL    HW2  618   1.341   0.674   1.412
   82SOL     OW  619   0.806   1.374   0.955
   82SOL    HW1  620   0.901   1.384   0.925
   82SOL    HW2  621   0.746   1.380   0.876
   83SOL     OW  622   0.913   0.557   0.863
   83SOL    HW1  623   0.869   0.533   0.777
   83SOL    HW2  624   0.945   0.474   0.908
   84SOL     OW  625   0.409   0.124   0.474
   84SOL    HW1  626   0.315   0.098   0.497
   84SOL    HW2  627   0.409   0.178   0.390
   85SOL     OW  628   1.351   1.200   0.115
   85SOL    HW1  629   1.350   1.132   0.188
   85SOL    HW2  630   1.273   1.262   0.125
   86SOL     OW  631   0.267   0.154   0.175
   86SOL    HW1  632   0.327   0.229   0.200
   86SOL    HW2  633   0.321   0.072   0.159
   87SOL     OW  634   0.986   0.308   0.478
   87SOL    HW1  635   0.958   0.337   0.386
   87SOL    HW2  636   1.086   0.304   0.482
   88SOL     OW  637   1.057   0.696   1.418
   88SOL    HW1  638   0.980   0.633   1.429
   88SOL    HW2  639   1.142   0.644   1.415
   89SOL     OW  640   1.175   1.650   0.857
   89SOL    HW1  641   1.198   1.711   0.781
   89SOL    HW2  642   1.209   1.688   0.943
   90SOL     OW  643   0.462   1.155   0.717
   90SOL    HW1  644   0.377   1.144   0.769
   90SOL    HW2  645   0.443   1.145   0.620
   91SOL     OW  646   1.201   1.830   0.648
   91SOL    HW1  647   1.253   1.891   0.589
   91SOL    HW2  648   1.118   1.876   0.678
   92SOL     OW  649   1.019   0.507   0.015
   92SOL    HW1  650   0.960   0.488   6.436
   92SOL    HW2  651   1.062   0.597   0.003
   93SOL     OW  652   0.147   0.496   1.480
   93SOL    HW1  653   0.209   0.543   1.417
   93SOL    HW2  654   0.059   0.544   1.483
   94SOL     OW  655   0.579   0.255   1.214
   94SOL    HW1  656   0.636   0.221   1.288
   94SOL    HW2  657   0.484   0.228   1.230
   95SOL     OW  658   0.826   0.479   0.621
   95SOL    HW1  659   0.776   0.524   0.547
   95SOL    HW2  660   0.885   0.408   0.583
   96SOL     OW  661   0.969   0.053   0.780
   96SOL    HW1  662   0.965   0.048   0.680
   96SOL    HW2  663   0.995   6.464   0.817
   97SOL     OW  664   1.396   1.134   0.916
   97SOL    HW1  665   1.340   1.053   0.895
   97SOL    HW2  666   1.452   1.157   0.837
   98SOL     OW  667   1.456   0.617   0.958
   98SOL    HW1  668   1.385   0.546   0.963
   98SOL    HW2  669   1.514   0.611   1.039
   99SOL     OW  670   1.736   0.720   0.512
   99SOL    HW1  671   1.814   0.668   0.548
   99SOL    HW2  672   1.751   0.737   0.415
  100SOL     OW  673   0.485   1.474   0.107
  100SOL    HW1  674   0.446   1.402   0.164
  100SOL    HW2  675   0.418   1.503   0.039
  101SOL     OW  676   1.577   1.251   0.739
  101SOL    HW1  677   1.676   1.247   0.750
  101SOL    HW2  678   1.548   1.347   0.730
  102SOL     OW  679   1.396   0.557   0.069
  102SOL    HW1  680   1.338   0.518   0.141
  102SOL    HW2  681   1.492   0.539   0.091
  103SOL     OW  682   0.454   0.325   0.273
  103SOL    HW1  683   0.546   0.287   0.270
  103SOL    HW2  684   0.447   0.400   0.207
  104SOL     OW  685   1.727   1.216   1.551
  104SOL    HW1  686   1.817   1.173   1.554
  104SOL    HW2  687   1.735   1.313   1.572
  105SOL     OW  688   1.026   1.360   1.358
  105SOL    HW1  689   0.938   1.336   1.399
  105SOL    HW2  690   1.099   1.305   1.398
  106SOL     OW  691   1.643   1.678   1.683
  106SOL    HW1  692   1.598   1.713   1.600
  106SOL    HW2  693   1.694   1.595   1.660
  107SOL     OW  694   1.144   1.266   1.127
  107SOL    HW1  695   1.079   1.291   1.199
  107SOL    HW2  696   1.114   1.305   1.040
  108SOL     OW  697   1.595   1.082   1.097
  108SOL    HW1  698   1.595   1.150   1.171
  108SOL    HW2  699   1.515   1.096   1.039
  109SOL     OW  700   0.975   0.117   1.341
  109SOL    HW1  701   1.001   0.092   1.248
  109SOL    HW2  702   1.058   0.127   1.397
  110SOL     OW  703   0.962   1.106   1.731
  110SOL    HW1  704   0.869   1.131   1.756
  110SOL    HW2  705   0.961   1.026   1.672
  111SOL     OW  706   0.711   1.027   0.424
  111SOL    HW1  707   0.702   1.005   0.522
  111SOL    HW2  708   0.791   0.981   0.387
  112SOL     OW  709   0.424   0.848   1.295
  112SOL    HW1  710   0.496   0.857   1.363
  112SOL    HW2  711   0.391   0.754   1.292
  113SOL     OW  712   1.246   0.360   1.277
  113SOL    HW1  713   1.282   0.440   1.324
  113SOL    HW2  714   1.155   0.381   1.240
  114SOL     OW  715   0.010   1.606   1.348
  114SOL    HW1  716   0.065   1.665   1.289
  114SOL    HW2  717   0.025   1.510   1.324
  115SOL     OW  718   0.387   1.114   0.453
  115SOL    HW1  719   0.380   1.179   0.378
  115SOL    HW2  720   0.423   1.027   0.420
  116SOL     OW  721   0.458   0.574   0.893
  116SOL    HW1  722   0.453   0.633   0.812
  116SOL    HW2  723   0.543   0.591   0.941
  117SOL     OW  724   1.167   1.383   0.421
  117SOL    HW1  725   1.223   1.454   0.463
  117SOL    HW2  726   1.070   1.402   0.440
  118SOL     OW  727   1.289   1.493   1.194
  118SOL    HW1  728   1.348   1.491   1.275
  118SOL    HW2  729   1.236   1.409   1.190
  119SOL     OW  730   1.537   0.525   0.552
  119SOL    HW1  731   1.443   0.540   0.582
  119SOL    HW2  732   1.582   0.613   0.539
  120SOL     OW  733   0.354   1.575   1.251
  120SOL    HW1  734   0.349   1.497   1.188
  120SOL    HW2  735   0.450   1.600   1.264
  121SOL     OW  736   0.432   0.765   1.651
  121SOL    HW1  737   0.500   0.801   1.587
  121SOL    HW2  738   0.458   0.673   1.678
  122SOL     OW  739   1.597   0.801   1.702
  122SOL    HW1  740   1.502   0.833   1.698
  122SOL    HW2  741   1.649   0.841   1.626
  123SOL     OW  742   0.961   0.090   1.691
  123SOL    HW1  743   1.036   0.155   1.692
  123SOL    HW2  744   0.984   0.013   1.631
  124SOL     OW  745   0.501   0.115   1.739
  124SOL    HW1  746   0.449   0.045   1.690
  124SOL    HW2  747   0.442   0.191   1.763
  125SOL     OW  748   0.574   0.911   1.070
  125SOL    HW1  749   0.628   0.995   1.074
  125SOL    HW2  750   0.525   0.898   1.156
  126SOL     OW  751   1.285   0.852   1.021
  126SOL    HW1  752   1.191   0.834   0.991
  126SOL    HW2  753   1.344   0.776   0.994
  127SOL     OW  754   1.227   0.460   0.262
  127SOL    HW1  755   1.248   0.401   0.340
  127SOL    HW2  756   1.151   0.521   0.287
  128SOL     OW  757   0.335   0.149   1.284
  128SOL    HW1  758   0.304   0.176   1.375
  128SOL    HW2  759   0.353   0.050   1.282
  129SOL     OW  760   0.054   1.333   1.290
  129SOL    HW1  761   0.125   1.289   1.344
  129SOL    HW2  762   6.466   1.320   1.335
  130SOL     OW  763   0.688   0.661   1.016
  130SOL    HW1  764   0.765   0.653   0.952
  130SOL    HW2  765   0.658   0.756   1.022
  131SOL     OW  766   1.749   0.937   1.889
  131SOL    HW1  767   1.695   0.881   1.827
  131SOL    HW2  768   1.690   0.977   1.960
  132SOL     OW  769   0.156   0.094   0.584
  132SOL    HW1  770   0.174   0.158   0.658
  132SOL    HW2  771   0.140   0.003   0.621
  133SOL     OW  772   1.650   0.367   0.361
  133SOL    HW1  773   1.702   0.296   0.408
  133SOL    HW2  774   1.603   0.424   0.429
  134SOL     OW  775   1.016   0.789   0.975
  134SOL    HW1  776   0.981   0.802   1.068
  134SOL    HW2  777   0.988   0.700   0.941
  135SOL     OW  778   1.007   1.581   1.784
  135SOL    HW1  779   0.969   1.636   1.709
  135SOL    HW2  780   1.028   1.489   1.751
  136SOL     OW  781   1.806   1.478   1.586
  136SOL    HW1  782   1.838   1.505   1.495
  136SOL    HW2  783   1.883   1.479   1.650
  137SOL     OW  784   0.405   0.958   1.852
  137SOL    HW1  785   0.488   0.976   1.905
  137SOL    HW2  786   0.424   0.886   1.785
  138SOL     OW  787   1.611   0.177   0.167
  138SOL    HW1  788   1.520   0.137   0.172
  138SOL    HW2  789   1.619   0.251   0.234
  139SOL     OW  790   1.235   0.772   0.034
  139SOL    HW1  791   1.294   0.691   0.040
  139SOL    HW2  792   1.287   0.848   6.493
  140SOL     OW  793   1.071   1.397   0.900
  140SOL    HW1  794   1.062   1.334   0.822
  140SOL    HW2  795   1.119   1.480   0.870
  141SOL     OW  796   0.336   0.880   0.925
  141SOL    HW1  797   0.412   0.892   0.988
  141SOL    HW2  798   0.370   0.840   0.839
  142SOL     OW  799   0.291   0.470   1.077
  142SOL    HW1  800   0.279   0.373   1.058
  142SOL    HW2  801   0.347   0.511   1.005
  143SOL     OW  802   1.136   0.315   1.700
  143SOL    HW1  803   1.076   0.355   1.770
  143SOL    HW2  804   1.215   0.375   1.686
  144SOL     OW  805   1.213   0.178   1.476
  144SOL    HW1  806   1.180   0.228   1.556
  144SOL    HW2  807   1.231   0.242   1.402
  145SOL     OW  808   0.078   1.334   0.124
  145SOL    HW1  809   0.003   1.356   0.062
  145SOL    HW2  810   0.047   1.265   0.190
  146SOL     OW  811   0.076   1.754   0.921
  146SOL    HW1  812   0.023   1.739   0.837
  146SOL    HW2  813   0.168   1.782   0.898
  147SOL     OW  814   0.473   1.566   0.904
  147SOL    HW1  815   0.540   1.633   0.935
  147SOL    HW2  816   0.518   1.501   0.841
  148SOL     OW  817   0.906   0.814   1.222
  148SOL    HW1  818   0.975   0.785   1.287
  148SOL    HW2  819   0.821   0.763   1.238
  149SOL     OW  820   0.015   0.406   1.106
  149SOL    HW1  821   0.101   0.457   1.112
  149SOL    HW2  822   6.451   0.440   1.174
  150SOL     OW  823   0.169   0.548   1.776
  150SOL    HW1  824   0.219   0.492   1.710
  150SOL    HW2  825   0.132   0.629   1.731
  151SOL     OW  826   1.357   0.923   1.648
  151SOL    HW1  827   1.382   1.020   1.646
  151SOL    HW2  828   1.351   0.889   1.555
  152SOL     OW  829   0.763   0.568   0.363
  152SOL    HW1  830   0.789   0.493   0.303
  152SOL    HW2  831   0.685   0.617   0.324
  153SOL     OW  832   1.640   0.600   1.163
  153SOL    HW1  833   1.631   0.545   1.245
  153SOL    HW2  834   1.733   0.593   1.127
  154SOL     OW  835   0.213   1.578   1.730
  154SOL    HW1  836   0.186   1.632   1.809
  154SOL    HW2  837   0.223   1.482   1.756
  155SOL     OW  838   0.731   0.480   1.213
  155SOL    HW1  839   0.671   0.400   1.209
  155SOL    HW2  840   0.708   0.543   1.139
  156SOL     OW  841   0.885   1.723   1.568
  156SOL    HW1  842   0.837   1.649   1.520
  156SOL    HW2  843   0.901   1.799   1.504
  157SOL     OW  844   0.408   0.536   0.102
  157SOL    HW1  845   0.462   0.602   0.154
  157SOL    HW2  846   0.318   0.575   0.082
  158SOL     OW  847   0.220   1.179   1.451
  158SOL    HW1  848   0.213   1.156   1.547
  158SOL    HW2  849   0.213   1.096   1.396
  159SOL     OW  850   1.263   1.036   1.218
  159SOL    HW1  851   1.276   0.968   1.147
  159SOL    HW2  852   1.224   1.119   1.179
  160SOL     OW  853   1.244   0.781   0.309
  160SOL    HW1  854   1.168   0.730   0.351
  160SOL    HW2  855   1.239   0.773   0.210
  161SOL     OW  856   1.670   1.702   1.184
  161SOL    HW1  857   1.768   1.722   1.178
  161SOL    HW2  858   1.653   1.608   1.154
  162SOL     OW  859   1.242   1.748   1.104
  162SOL    HW1  860   1.330   1.796   1.102
  162SOL    HW2  861   1.254   1.658   1.147
  163SOL     OW  862   0.113   1.292   1.019
  163SOL    HW1  863   0.084   1.305   1.113
  163SOL    HW2  864   0.056   1.348   0.958
  164SOL     OW  865   0.712   1.734   1.784
  164SOL    HW1  866   0.639   1.802   1.778
  164SOL    HW2  867   0.781   1.754   1.715
  165SOL     OW  868   0.917   0.091   0.222
  165SOL    HW1  869   0.958   0.064   0.134
  165SOL    HW2  870   0.953   0.031   0.294
  166SOL     OW  871   1.769   0.142   0.472
  166SOL    HW1  872   1.851   0.160   0.418
  166SOL    HW2  873   1.755   0.044   0.481
  167SOL     OW  874   1.308   1.600   0.530
  167SOL    HW1  875   1.366   1.634   0.456
  167SOL    HW2  876   1.259   1.676   0.572
  168SOL     OW  877   0.120   1.733   1.937
  168SOL    HW1  878   0.075   1.660   1.988
  168SOL    HW2  879   0.184   1.782   1.997
  169SOL     OW  880   1.200   0.920   0.708
  169SOL    HW1  881   1.289   0.877   0.721
  169SOL    HW2  882   1.210   1.002   0.652
  170SOL     OW  883   0.772   1.307   1.445
  170SOL    HW1  884   0.755   1.368   1.522
  170SOL    HW2  885   0.697   1.314   1.378
  171SOL     OW  886   0.679   1.647   0.168
  171SOL    HW1  887   0.658   1.728   0.112
  171SOL    HW2  888   0.616   1.573   0.144
  172SOL     OW  889   1.553   1.748   1.429
  172SOL    HW1  890   1.600   1.729   1.342
  172SOL    HW2  891   1.527   1.845   1.432
  173SOL     OW  892   1.836   0.055   1.006
  173SOL    HW1  893   1.863   6.487   0.939
  173SOL    HW2  894   1.757   0.106   0.971
  174SOL     OW  895   0.210   0.271   0.788
  174SOL    HW1  896   0.164   0.360   0.789
  174SOL    HW2  897   0.209   0.231   0.880
  175SOL     OW  898   1.207   1.632   0.027
  175SOL    HW1  899   1.189   1.544   0.071
  175SOL    HW2  900   1.190   1.625   6.429
  176SOL     OW  901   0.803   1.037   1.401
  176SOL    HW1  902   0.840   1.023   1.309
  176SOL    HW2  903   0.796   1.135   1.419
  177SOL     OW  904   0.920   0.898   0.317
  177SOL    HW1  905   0.964   0.928   0.233
  177SOL    HW2  906   0.962   0.813   0.348
  178SOL     OW  907   1.446   1.751   0.074
  178SOL    HW1  908   1.359   1.704   0.055
  178SOL    HW2  909   1.503   1.749   6.491
  179SOL     OW  910   0.391   1.397   1.476
  179SOL    HW1  911   0.370   1.469   1.410
  179SOL    HW2  912   0.332   1.318   1.459
  180SOL     OW  913   1.588   1.280   1.302
  180SOL    HW1  914   1.656   1.249   1.369
  180SOL    HW2  915   1.527   1.347   1.345
  181SOL     OW  916   1.011   1.207   0.721
  181SOL    HW1  917   0.967   1.127   0.763
  181SOL    HW2  918   1.087   1.176   0.664
  182SOL     OW  919   1.019   0.284   0.943
  182SOL    HW1  920   0.989   0.243   0.856
  182SOL    HW2  921   1.035   0.212   1.010
  183SOL     OW  922   0.560   1.466   0.492
  183SOL    HW1  923   0.602   1.408   0.422
  183SOL    HW2  924   0.460   1.463   0.482
  184SOL     OW  925   1.714   0.430   1.383
  184SOL    HW1  926   1.806   0.469   1.377
  184SOL    HW2  927   1.712   0.342   1.335
  185SOL     OW  928   0.327   1.309   0.261
  185SOL    HW1  929   0.244   1.308   0.206
  185SOL    HW2  930   0.312   1.362   0.344
  186SOL     OW  931   0.199   1.068   1.709
  186SOL    HW1  932   0.150   0.987   1.678
  186SOL    HW2  933   0.277   1.041   1.765
  187SOL     OW  934   0.725   0.165   1.427
  187SOL    HW1  935   0.817   0.147   1.393
  187SOL    HW2  936   0.730   0.204   1.519
  188SOL     OW  937   6.407   0.368   0.004
  188SOL    HW1  938   6.321   0.381   6.453
  188SOL    HW2  939   6.420   0.445   0.066
  189SOL     OW  940   1.377   0.846   1.386
  189SOL    HW1  941   1.318   0.908   1.334
  189SOL    HW2  942   1.469   0.846   1.347
  190SOL     OW  943   0.076   0.334   0.295
  190SOL    HW1  944   0.119   0.366   0.380
  190SOL    HW2  945   0.132   0.261   0.256
  191SOL     OW  946   1.141   1.387   0.147
  191SOL    HW1  947   1.047   1.416   0.126
  191SOL    HW2  948   1.152   1.379   0.246
  192SOL     OW  949   0.629   0.838   1.472
  192SOL    HW1  950   0.685   0.920   1.456
  192SOL    HW2  951   0.688   0.757   1.466
  193SOL     OW  952   1.486   1.869   1.076
  193SOL    HW1  953   1.516   1.906   0.989
  193SOL    HW2  954   1.554   1.803   1.110
  194SOL     OW  955   0.696   0.512   1.677
  194SOL    HW1  956   0.752   0.571   1.735
  194SOL    HW2  957   0.719   0.416   1.696
  195SOL     OW  958   1.452   1.182   1.631
  195SOL    HW1  959   1.443   1.206   1.728
  195SOL    HW2  960   1.547   1.197   1.603
  196SOL     OW  961   0.375   1.776   1.602
  196SOL    HW1  962   0.294   1.835   1.603
  196SOL    HW2  963   0.348   1.683   1.627
  197SOL     OW  964   1.619   0.860   1.260
  197SOL    HW1  965   1.630   0.772   1.214
  197SOL    HW2  966   1.612   0.932   1.191
  198SOL     OW  967   1.261   0.308   0.486
  198SOL    HW1  968   1.332   0.237   0.487
  198SOL    HW2  969   1.280   0.375   0.558
  199SOL     OW  970   0.468   0.783   0.706
  199SOL    HW1  971   0.550   0.840   0.694
  199SOL    HW2  972   0.431   0.757   0.617
  200SOL     OW  973   1.746   0.373   1.649
  200SOL    HW1  974   1.730   0.403   1.555
  200SOL    HW2  975   1.672   0.313   1.678
  201SOL     OW  976   1.718   0.932   1.501
  201SOL    HW1  977   1.704   1.030   1.514
  201SOL    HW2  978   1.686   0.906   1.410
  202SOL     OW  979   0.906   1.508   0.065
  202SOL    HW1  980   0.831   1.550   0.114
  202SOL    HW2  981   0.891   1.518   6.466
  203SOL     OW  982   0.644   1.767   0.951
  203SOL    HW1  983   0.622   1.862   0.929
  203SOL    HW2  984   0.743   1.753   0.942
  204SOL     OW  985   0.875   1.008   0.875
  204SOL    HW1  986   0.939   0.935   0.898
  204SOL    HW2  987   0.834   1.044   0.959
  205SOL     OW  988   1.034   0.961   0.074
  205SOL    HW1  989   1.067   1.044   0.029
  205SOL    HW2  990   1.098   0.886   0.056
  206SOL     OW  991   1.739   1.539   0.852
  206SOL    HW1  992   1.660   1.536   0.790
  206SOL    HW2  993   1.714   1.501   0.941
  207SOL     OW  994   0.244   1.316   1.825
  207SOL    HW1  995   0.205   1.233   1.786
  207SOL    HW2  996   0.237   1.313   1.925
  208SOL     OW  997   0.157   1.199   0.571
  208SOL    HW1  998   0.155   1.178   0.669
  208SOL    HW2  999   0.240   1.160   0.531
  209SOL     OW 1000   0.713   1.484   1.651
  209SOL    HW1 1001   0.631   1.434   1.677
  209SOL    HW2 1002   0.718   1.569   1.702
  210SOL     OW 1003   1.729   0.183   1.267
  210SOL    HW1 1004   1.667   0.114   1.232
  210SOL    HW2 1005   1.811   0.188   1.209
  211SOL     OW 1006   0.445   0.452   0.521
  211SOL    HW1 1007   0.453   0.400   0.436
  211SOL    HW2 1008   0.471   0.393   0.598
  212SOL     OW 1009   1.634   1.449   1.088
  212SOL    HW1 1010   1.550   1.433   1.037
  212SOL    HW2 1011   1.640   1.384   1.164
  213SOL     OW 1012   0.344   0.591   1.314
  213SOL    HW1 1013   0.401   0.535   1.374
  213SOL    HW2 1014   0.331   0.544   1.226
  214SOL     OW 1015   0.786   1.590   0.680
  214SOL    HW1 1016   0.743   1.647   0.609
  214SOL    HW2 1017   0.723   1.517   0.707
  215SOL     OW 1018   1.390   0.213   1.085
  215SOL    HW1 1019   1.356   0.120   1.071
  215SOL    HW2 1020   1.346   0.253   1.166
  216SOL     OW 1021   1.056   0.051   1.086
  216SOL    HW1 1022   0.982   6.497   1.046
  216SOL    HW2 1023   1.143   0.021   1.048
  217SOL     OW 1024   0.712   1.291   0.337
  217SOL    HW1 1025   0.714   1.198   0.371
  217SOL    HW2 1026   0.792   1.341   0.370
  218SOL     OW 1027   0.627   1.602   1.284
  218SOL    HW1 1028   0.617   1.691   1.328
  218SOL    HW2 1029   0.718   1.594   1.245
  219SOL     OW 1030   1.358   0.064   0.197
  219SOL    HW1 1031   1.370   0.071   0.098
  219SOL    HW2 1032   1.285   6.498   0.217
  220SOL     OW 1033   1.290   0.503   0.673
  220SOL    HW1 1034   1.219   0.573   0.663
  220SOL    HW2 1035   1.290   0.469   0.767
  221SOL     OW 1036   1.616   0.188   0.928
  221SOL    HW1 1037   1.539   0.187   0.992
  221SOL    HW2 1038   1.614   0.272   0.874
  222SOL     OW 1039   0.064   1.133   0.307
  222SOL    HW1 1040   0.120   1.055   0.278
  222SOL    HW2 1041   0.077   1.148   0.405
  223SOL     OW 1042   0.878   1.707   0.347
  223SOL    HW1 1043   0.801   1.691   0.285
  223SOL    HW2 1044   0.856   1.781   0.409
  224SOL     OW 1045   0.192   0.655   2.039
  224SOL    HW1 1046   0.122   0.629   2.105
  224SOL    HW2 1047   0.164   0.627   1.947
  225SOL     OW 1048   0.209   0.234   2.873
  225SOL    HW1 1049   0.243   0.191   2.957
  225SOL    HW2 1050   0.122   0.279   2.892
  226SOL     OW 1051   6.421   0.531   2.470
  226SOL    HW1 1052   6.336   0.582   2.482
  226SOL    HW2 1053   6.403   0.447   2.418
  227SOL     OW 1054   0.586   1.336   3.085
  227SOL    HW1 1055   0.501   1.332   3.032
  227SOL    HW2 1056   0.607   1.432   3.106
  228SOL     OW 1057   1.612   1.510   2.588
  228SOL    HW1 1058   1.560   1.469   2.663
  228SOL    HW2 1059   1.549   1.534   2.513
  229SOL     OW 1060   1.124   0.721   2.539
  229SOL    HW1 1061   1.174   0.803   2.512
  229SOL    HW2 1062   1.073   0.739   2.623
  230SOL     OW 1063   1.802   0.587   2.057
  230SOL    HW1 1064   1.765   0.594   1.965
  230SOL    HW2 1065   1.750   0.521   2.111
  231SOL     OW 1066   0.732   1.156   2.938
  231SOL    HW1 1067   0.676   1.200   3.008
  231SOL    HW2 1068   0.774   1.225   2.880
  232SOL     OW 1069   0.899   0.714   3.653
  232SOL    HW1 1070   0.924   0.780   3.725
  232SOL    HW2 1071   0.906   0.759   3.564
  233SOL     OW 1072   0.683   0.994   2.520
  233SOL    HW1 1073   0.752   1.001   2.592
  233SOL    HW2 1074   0.606   1.054   2.542
  234SOL     OW 1075   0.727   1.189   3.688
  234SOL    HW1 1076   0.785   1.256   3.735
  234SOL    HW2 1077   0.650   1.236   3.645
  235SOL     OW 1078   0.363   1.393   2.924
  235SOL    HW1 1079   0.272   1.366   2.894
  235SOL    HW2 1080   0.404   1.454   2.857
  236SOL     OW 1081   1.436   1.510   3.249
  236SOL    HW1 1082   1.495   1.590   3.258
  236SOL    HW2 1083   1.356   1.520   3.308
  237SOL     OW 1084   0.457   0.392   3.332
  237SOL    HW1 1085   0.541   0.338   3.330
  237SOL    HW2 1086   0.380   0.334   3.362
  238SOL     OW 1087   1.535   0.455   2.606
  238SOL    HW1 1088   1.450   0.462   2.553
  238SOL    HW2 1089   1.536   0.525   2.677
  239SOL     OW 1090   0.254   1.720   2.356
  239SOL    HW1 1091   0.272   1.798   2.416
  239SOL    HW2 1092   0.318   1.723   2.278
  240SOL     OW 1093   1.129   1.345   3.568
  240SOL    HW1 1094   1.195   1.330   3.642
  240SOL    HW2 1095   1.071   1.264   3.559
  241SOL     OW 1096   0.312   1.454   2.328
  241SOL    HW1 1097   0.281   1.548   2.348
  241SOL    HW2 1098   0.263   1.390   2.387
  242SOL     OW 1099   0.239   1.144   2.710
  242SOL    HW1 1100   0.249   1.054   2.753
  242SOL    HW2 1101   0.187   1.204   2.770
  243SOL     OW 1102   0.577   1.833   3.271
  243SOL    HW1 1103   0.504   1.807   3.333
  243SOL    HW2 1104   0.623   1.915   3.306
  244SOL     OW 1105   0.622   1.005   2.014
  244SOL    HW1 1106   0.665   1.065   1.946
  244SOL    HW2 1107   0.654   1.031   2.106
  245SOL     OW 1108   1.517   0.222   3.314
  245SOL    HW1 1109   1.603   0.269   3.294
  245SOL    HW2 1110   1.494   0.233   3.411
  246SOL     OW 1111   0.112   0.704   2.347
  246SOL    HW1 1112   0.045   0.632   2.369
  246SOL    HW2 1113   0.120   0.767   2.424
  247SOL     OW 1114   1.863   1.756   2.192
  247SOL    HW1 1115   1.933   1.744   2.263
  247SOL    HW2 1116   1.865   1.851   2.160
  248SOL     OW 1117   6.478   1.536   2.054
  248SOL    HW1 1118   6.480   1.436   2.057
  248SOL    HW2 1119   6.383   1.567   2.052
  249SOL     OW 1120   1.701   0.941   2.537
  249SOL    HW1 1121   1.790   0.896   2.531
  249SOL    HW2 1122   1.685   0.996   2.455
  250SOL     OW 1123   1.673   1.114   2.315
  250SOL    HW1 1124   1.753   1.084   2.263
  250SOL    HW2 1125   1.699   1.193   2.372
  251SOL     OW 1126   0.174   0.793   3.465
  251SOL    HW1 1127   0.271   0.774   3.479
  251SOL    HW2 1128   0.158   0.813   3.369
  252SOL     OW 1129   0.619   1.387   2.586
  252SOL    HW1 1130   0.572   1.299   2.592
  252SOL    HW2 1131   0.603   1.426   2.496
  253SOL     OW 1132   1.248   1.225   3.281
  253SOL    HW1 1133   1.269   1.153   3.214
  253SOL    HW2 1134   1.316   1.223   3.354
  254SOL     OW 1135   0.896   0.046   2.364
  254SOL    HW1 1136   0.917   0.143   2.355
  254SOL    HW2 1137   0.819   0.034   2.428
  255SOL     OW 1138   0.167   0.908   3.184
  255SOL    HW1 1139   0.265   0.892   3.170
  255SOL    HW2 1140   0.116   0.866   3.109
  256SOL     OW 1141   1.551   1.040   2.073
  256SOL    HW1 1142   1.471   0.983   2.094
  256SOL    HW2 1143   1.592   1.071   2.159
  257SOL     OW 1144   1.203   1.812   3.492
  257SOL    HW1 1145   1.197   1.880   3.419
  257SOL    HW2 1146   1.203   1.720   3.452
  258SOL     OW 1147   0.365   0.328   3.704
  258SOL    HW1 1148   0.413   0.405   3.746
  258SOL    HW2 1149   0.277   0.315   3.749
  259SOL     OW 1150   1.473   1.390   2.788
  259SOL    HW1 1151   1.410   1.428   2.856
  259SOL    HW2 1152   1.443   1.298   2.762
  260SOL     OW 1153   1.633   1.855   2.410
  260SOL    HW1 1154   1.624   1.789   2.335
  260SOL    HW2 1155   1.643   1.806   2.497
  261SOL     OW 1156   0.586   0.743   2.115
  261SOL    HW1 1157   0.598   0.835   2.078
  261SOL    HW2 1158   0.513   0.744   2.184
  262SOL     OW 1159   1.248   0.406   2.808
  262SOL    HW1 1160   1.152   0.381   2.803
  262SOL    HW2 1161   1.295   0.348   2.875
  263SOL     OW 1162   1.601   1.678   2.198
  263SOL    HW1 1163   1.700   1.694   2.193
  263SOL    HW2 1164   1.564   1.665   2.106
  264SOL     OW 1165   0.794   0.606   3.320
  264SOL    HW1 1166   0.751   0.572   3.404
  264SOL    HW2 1167   0.761   0.554   3.242
  265SOL     OW 1168   1.346   0.489   3.520
  265SOL    HW1 1169   1.354   0.542   3.605
  265SOL    HW2 1170   1.398   0.404   3.529
  266SOL     OW 1171   0.947   0.891   3.430
  266SOL    HW1 1172   1.002   0.826   3.377
  266SOL    HW2 1173   0.895   0.949   3.368
  267SOL     OW 1174   0.986   0.439   3.044
  267SOL    HW1 1175   0.892   0.459   3.071
  267SOL    HW2 1176   0.986   0.387   2.958
  268SOL     OW 1177   1.049   0.692   2.273
  268SOL    HW1 1178   1.070   0.691   2.371
  268SOL    HW2 1179   0.956   0.658   2.259
  269SOL     OW 1180   0.116   0.836   2.587
  269SOL    HW1 1181   0.194   0.871   2.640
  269SOL    HW2 1182   0.076   0.757   2.634
  270SOL     OW 1183   0.144   1.909   3.527
  270SOL    HW1 1184   0.147   1.908   3.627
  270SOL    HW2 1185   0.080   1.840   3.494
  271SOL     OW 1186   0.843   0.363   2.095
  271SOL    HW1 1187   0.893   0.385   2.011
  271SOL    HW2 1188   0.800   0.273   2.085
  272SOL     OW 1189   1.650   0.576   3.695
  272SOL    HW1 1190   1.637   0.657   3.637
  272SOL    HW2 1191   1.681   0.500   3.639
  273SOL     OW 1192   1.407   1.171   2.427
  273SOL    HW1 1193   1.495   1.157   2.382
  273SOL    HW2 1194   1.354   1.240   2.377
  274SOL     OW 1195   0.651   0.169   2.824
  274SOL    HW1 1196   0.623   0.215   2.907
  274SOL    HW2 1197   0.608   0.213   2.745
  275SOL     OW 1198   1.005   1.470   2.334
  275SOL    HW1 1199   0.986   1.546   2.272
  275SOL    HW2 1200   0.966   1.489   2.424
  276SOL     OW 1201   0.366   1.820   2.756
  276SOL    HW1 1202   0.406   1.728   2.759
  276SOL    HW2 1203   0.438   1.887   2.772
  277SOL     OW 1204   1.788   1.062   2.773
  277SOL    HW1 1205   1.744   1.037   2.686
  277SOL    HW2 1206   1.718   1.073   2.844
  278SOL     OW 1207   1.192   1.541   3.379
  278SOL    HW1 1208   1.183   1.471   3.450
  278SOL    HW2 1209   1.131   1.518   3.303
  279SOL     OW 1210   0.275   0.913   2.092
  279SOL    HW1 1211   0.320   0.939   2.007
  279SOL    HW2 1212   0.253   0.816   2.090
  280SOL     OW 1213   1.477   0.781   2.565
  280SOL    HW1 1214   1.463   0.737   2.654
  280SOL    HW2 1215   1.559   0.838   2.569
  281SOL     OW 1216   0.495   1.333   3.579
  281SOL    HW1 1217   0.475   1.349   3.482
  281SOL    HW2 1218   0.410   1.313   3.627
  282SOL     OW 1219   1.159   1.764   2.094
  282SOL    HW1 1220   1.069   1.743   2.131
  282SOL    HW2 1221   1.187   1.690   2.032
  283SOL     OW 1222   0.212   0.249   3.367
  283SOL    HW1 1223   0.180   0.341   3.346
  283SOL    HW2 1224   0.183   0.223   3.459
  284SOL     OW 1225   1.642   1.395   1.966
  284SOL    HW1 1226   1.608   1.489   1.957
  284SOL    HW2 1227   1.570   1.331   1.939
  285SOL     OW 1228   0.478   1.762   2.182
  285SOL    HW1 1229   0.522   1.815   2.254
  285SOL    HW2 1230   0.547   1.706   2.135
  286SOL     OW 1231   1.458   0.156   2.275
  286SOL    HW1 1232   1.451   0.099   2.193
  286SOL    HW2 1233   1.553   0.184   2.289
  287SOL     OW 1234   0.168   1.765   3.068
  287SOL    HW1 1235   0.240   1.699   3.088
  287SOL    HW2 1236   0.139   1.755   2.973
  288SOL     OW 1237   0.937   1.697   2.733
  288SOL    HW1 1238   1.030   1.661   2.739
  288SOL    HW2 1239   0.888   1.648   2.661
  289SOL     OW 1240   0.389   0.691   2.304
  289SOL    HW1 1241   0.414   0.598   2.328
  289SOL    HW2 1242   0.289   0.701   2.308
  290SOL     OW 1243   1.437   0.237   3.578
  290SOL    HW1 1244   1.480   0.240   3.668
  290SOL    HW2 1245   1.353   0.184   3.582
  291SOL     OW 1246   0.516   0.044   2.001
  291SOL    HW1 1247   0.605   0.066   2.042
  291SOL    HW2 1248   0.520   0.059   1.902
  292SOL     OW 1249   0.721   0.269   3.585
  292SOL    HW1 1250   0.804   0.214   3.595
  292SOL    HW2 1251   0.641   0.211   3.602
  293SOL     OW 1252   0.877   1.538   3.025
  293SOL    HW1 1253   0.854   1.485   2.944
  293SOL    HW2 1254   0.938   1.485   3.084
  294SOL     OW 1255   1.311   0.601   3.274
  294SOL    HW1 1256   1.330   0.568   3.367
  294SOL    HW2 1257   1.336   0.697   3.267
  295SOL     OW 1258   0.819   1.374   2.799
  295SOL    HW1 1259   0.911   1.376   2.760
  295SOL    HW2 1260   0.752   1.381   2.725
  296SOL     OW 1261   0.888   0.548   2.737
  296SOL    HW1 1262   0.868   0.540   2.639
  296SOL    HW2 1263   0.909   0.458   2.774
  297SOL     OW 1264   0.512   0.106   2.330
  297SOL    HW1 1265   0.425   0.063   2.355
  297SOL    HW2 1266   0.497   0.170   2.255
  298SOL     OW 1267   1.431   1.224   1.906
  298SOL    HW1 1268   1.473   1.151   1.959
  298SOL    HW2 1269   1.343   1.249   1.948
  299SOL     OW 1270   0.244   6.478   1.993
  299SOL    HW1 1271   0.339   0.006   2.004
  299SOL    HW2 1272   0.238   6.378   2.000
  300SOL     OW 1273   0.977   0.304   2.327
  300SOL    HW1 1274   0.933   0.331   2.241
  300SOL    HW2 1275   1.076   0.313   2.317
  301SOL     OW 1276   1.049   0.703   3.260
  301SOL    HW1 1277   0.973   0.643   3.285
  301SOL    HW2 1278   1.134   0.651   3.261
  302SOL     OW 1279   1.200   1.623   2.691
  302SOL    HW1 1280   1.231   1.674   2.610
  302SOL    HW2 1281   1.240   1.665   2.773
  303SOL     OW 1282   0.466   1.157   2.549
  303SOL    HW1 1283   0.388   1.155   2.613
  303SOL    HW2 1284   0.433   1.141   2.456
  304SOL     OW 1285   1.254   1.799   2.479
  304SOL    HW1 1286   1.302   1.863   2.419
  304SOL    HW2 1287   1.170   1.842   2.513
  305SOL     OW 1288   1.009   0.465   1.896
  305SOL    HW1 1289   0.971   0.549   1.856
  305SOL    HW2 1290   1.078   0.489   1.964
  306SOL     OW 1291   0.133   0.500   3.324
  306SOL    HW1 1292   0.199   0.552   3.270
  306SOL    HW2 1293   0.045   0.548   3.324
  307SOL     OW 1294   0.568   0.266   3.067
  307SOL    HW1 1295   0.614   0.240   3.152
  307SOL    HW2 1296   0.471   0.240   3.072
  308SOL     OW 1297   0.849   0.498   2.476
  308SOL    HW1 1298   0.808   0.551   2.402
  308SOL    HW2 1299   0.897   0.419   2.438
  309SOL     OW 1300   0.995   0.075   2.626
  309SOL    HW1 1301   0.993   0.064   2.527
  309SOL    HW2 1302   1.019   6.487   2.669
  310SOL     OW 1303   1.405   1.129   2.726
  310SOL    HW1 1304   1.348   1.051   2.750
  310SOL    HW2 1305   1.404   1.141   2.626
  311SOL     OW 1306   1.419   0.643   2.804
  311SOL    HW1 1307   1.352   0.569   2.808
  311SOL    HW2 1308   1.478   0.639   2.885
  312SOL     OW 1309   1.784   0.792   2.236
  312SOL    HW1 1310   1.844   0.760   2.309
  312SOL    HW2 1311   1.788   0.728   2.159
  313SOL     OW 1312   0.505   1.432   1.994
  313SOL    HW1 1313   0.422   1.393   2.036
  313SOL    HW2 1314   0.507   1.406   1.897
  314SOL     OW 1315   1.763   1.307   2.472
  314SOL    HW1 1316   1.857   1.298   2.506
  314SOL    HW2 1317   1.719   1.386   2.515
  315SOL     OW 1318   1.385   0.580   1.914
  315SOL    HW1 1319   1.330   0.550   1.991
  315SOL    HW2 1320   1.482   0.563   1.933
  316SOL     OW 1321   0.452   0.288   2.136
  316SOL    HW1 1322   0.462   0.215   2.069
  316SOL    HW2 1323   0.451   0.377   2.090
  317SOL     OW 1324   1.737   1.237   3.397
  317SOL    HW1 1325   1.827   1.196   3.382
  317SOL    HW2 1326   1.749   1.328   3.436
  318SOL     OW 1327   1.028   1.371   3.200
  318SOL    HW1 1328   0.942   1.344   3.243
  318SOL    HW2 1329   1.103   1.317   3.240
  319SOL     OW 1330   1.615   1.647   3.535
  319SOL    HW1 1331   1.594   1.686   3.446
  319SOL    HW2 1332   1.692   1.584   3.527
  320SOL     OW 1333   1.144   1.273   2.969
  320SOL    HW1 1334   1.082   1.307   3.040
  320SOL    HW2 1335   1.112   1.303   2.880
  321SOL     OW 1336   1.581   1.104   2.949
  321SOL    HW1 1337   1.570   1.171   3.022
  321SOL    HW2 1338   1.511   1.120   2.879
  322SOL     OW 1339   0.912   0.144   3.217
  322SOL    HW1 1340   0.928   0.110   3.124
  322SOL    HW2 1341   1.000   0.154   3.264
  323SOL     OW 1342   0.972   1.117   3.582
  323SOL    HW1 1343   0.879   1.139   3.609
  323SOL    HW2 1344   0.971   1.035   3.524
  324SOL     OW 1345   0.738   1.067   2.259
  324SOL    HW1 1346   0.711   1.039   2.351
  324SOL    HW2 1347   0.824   1.023   2.234
  325SOL     OW 1348   0.434   0.844   3.147
  325SOL    HW1 1349   0.509   0.855   3.213
  325SOL    HW2 1350   0.402   0.750   3.148
  326SOL     OW 1351   1.227   0.377   3.147
  326SOL    HW1 1352   1.268   0.457   3.190
  326SOL    HW2 1353   1.137   0.402   3.110
  327SOL     OW 1354   0.004   1.599   3.214
  327SOL    HW1 1355   0.061   1.660   3.159
  327SOL    HW2 1356   0.020   1.505   3.185
  328SOL     OW 1357   0.347   1.107   2.289
  328SOL    HW1 1358   0.343   1.181   2.222
  328SOL    HW2 1359   0.335   1.020   2.243
  329SOL     OW 1360   0.448   0.632   2.749
  329SOL    HW1 1361   0.472   0.667   2.659
  329SOL    HW2 1362   0.529   0.632   2.808
  330SOL     OW 1363   1.263   1.374   2.289
  330SOL    HW1 1364   1.324   1.446   2.322
  330SOL    HW2 1365   1.168   1.397   2.313
  331SOL     OW 1366   1.325   1.476   3.003
  331SOL    HW1 1367   1.366   1.484   3.093
  331SOL    HW2 1368   1.262   1.398   3.001
  332SOL     OW 1369   1.557   0.651   2.328
  332SOL    HW1 1370   1.513   0.690   2.409
  332SOL    HW2 1371   1.624   0.715   2.292
  333SOL     OW 1372   0.360   1.577   3.124
  333SOL    HW1 1373   0.350   1.507   3.053
  333SOL    HW2 1374   0.457   1.600   3.133
  334SOL     OW 1375   0.461   0.746   3.512
  334SOL    HW1 1376   0.517   0.791   3.442
  334SOL    HW2 1377   0.507   0.664   3.544
  335SOL     OW 1378   1.607   0.805   3.554
  335SOL    HW1 1379   1.513   0.839   3.555
  335SOL    HW2 1380   1.658   0.848   3.480
  336SOL     OW 1381   0.943   0.109   3.581
  336SOL    HW1 1382   1.019   0.174   3.578
  336SOL    HW2 1383   0.960   0.035   3.516
  337SOL     OW 1384   0.494   0.116   3.597
  337SOL    HW1 1385   0.441   0.046   3.550
  337SOL    HW2 1386   0.435   0.193   3.622
  338SOL     OW 1387   0.566   0.931   2.915
  338SOL    HW1 1388   0.622   1.014   2.924
  338SOL    HW2 1389   0.522   0.911   3.002
  339SOL     OW 1390   1.275   0.886   2.827
  339SOL    HW1 1391   1.180   0.860   2.813
  339SOL    HW2 1392   1.334   0.806   2.819
  340SOL     OW 1393   1.189   0.523   2.104
  340SOL    HW1 1394   1.218   0.450   2.165
  340SOL    HW2 1395   1.145   0.595   2.156
  341SOL     OW 1396   0.318   0.159   3.117
  341SOL    HW1 1397   0.285   0.186   3.207
  341SOL    HW2 1398   0.340   0.062   3.117
  342SOL     OW 1399   0.048   1.331   3.143
  342SOL    HW1 1400   0.119   1.281   3.191
  342SOL    HW2 1401   6.460   1.316   3.188
  343SOL     OW 1402   0.684   0.677   2.889
  343SOL    HW1 1403   0.752   0.652   2.820
  343SOL    HW2 1404   0.657   0.773   2.875
  344SOL     OW 1405   1.760   0.963   3.727
  344SOL    HW1 1406   1.706   0.898   3.674
  344SOL    HW2 1407   1.705   0.998   3.803
  345SOL     OW 1408   0.252   0.058   2.416
  345SOL    HW1 1409   0.255   0.128   2.487
  345SOL    HW2 1410   0.205   6.477   2.451
  346SOL     OW 1411   1.594   0.432   2.168
  346SOL    HW1 1412   1.644   0.364   2.220
  346SOL    HW2 1413   1.567   0.507   2.228
  347SOL     OW 1414   1.012   0.781   2.804
  347SOL    HW1 1415   0.989   0.802   2.899
  347SOL    HW2 1416   0.975   0.691   2.780
  348SOL     OW 1417   0.998   1.575   3.646
  348SOL    HW1 1418   0.966   1.636   3.574
  348SOL    HW2 1419   1.030   1.489   3.606
  349SOL     OW 1420   1.833   1.490   3.468
  349SOL    HW1 1421   1.854   1.517   3.374
  349SOL    HW2 1422   1.913   1.506   3.526
  350SOL     OW 1423   0.411   0.942   3.707
  350SOL    HW1 1424   0.491   0.966   3.761
  350SOL    HW2 1425   0.434   0.868   3.643
  351SOL     OW 1426   1.508   0.266   1.960
  351SOL    HW1 1427   1.492   0.175   1.998
  351SOL    HW2 1428   1.536   0.328   2.032
  352SOL     OW 1429   1.262   0.820   1.881
  352SOL    HW1 1430   1.305   0.730   1.890
  352SOL    HW2 1431   1.290   0.862   1.795
  353SOL     OW 1432   1.078   1.372   2.721
  353SOL    HW1 1433   1.097   1.293   2.662
  353SOL    HW2 1434   1.135   1.449   2.693
  354SOL     OW 1435   0.319   0.876   2.794
  354SOL    HW1 1436   0.401   0.921   2.831
  354SOL    HW2 1437   0.342   0.783   2.766
  355SOL     OW 1438   0.307   0.487   2.930
  355SOL    HW1 1439   0.294   0.392   2.900
  355SOL    HW2 1440   0.352   0.539   2.857
  356SOL     OW 1441   1.127   0.327   3.575
  356SOL    HW1 1442   1.070   0.370   3.646
  356SOL    HW2 1443   1.201   0.389   3.550
  357SOL     OW 1444   1.153   0.196   3.338
  357SOL    HW1 1445   1.137   0.247   3.423
  357SOL    HW2 1446   1.187   0.259   3.268
  358SOL     OW 1447   6.477   1.253   2.045
  358SOL    HW1 1448   6.401   1.237   1.982
  358SOL    HW2 1449   6.494   1.169   2.097
  359SOL     OW 1450   0.100   1.757   2.801
  359SOL    HW1 1451   0.061   1.731   2.713
  359SOL    HW2 1452   0.194   1.789   2.788
  360SOL     OW 1453   0.497   1.570   2.759
  360SOL    HW1 1454   0.568   1.635   2.785
  360SOL    HW2 1455   0.534   1.505   2.693
  361SOL     OW 1456   0.913   0.822   3.053
  361SOL    HW1 1457   0.972   0.789   3.127
  361SOL    HW2 1458   0.826   0.771   3.054
  362SOL     OW 1459   0.029   0.436   2.937
  362SOL    HW1 1460   0.114   0.478   2.967
  362SOL    HW2 1461   6.457   0.455   3.003
  363SOL     OW 1462   0.182   0.540   3.632
  363SOL    HW1 1463   0.262   0.490   3.599
  363SOL    HW2 1464   0.147   0.599   3.559
  364SOL     OW 1465   1.370   0.938   3.505
  364SOL    HW1 1466   1.395   1.035   3.503
  364SOL    HW2 1467   1.356   0.905   3.412
  365SOL     OW 1468   0.796   0.602   2.223
  365SOL    HW1 1469   0.802   0.516   2.173
  365SOL    HW2 1470   0.722   0.657   2.185
  366SOL     OW 1471   1.578   0.624   3.024
  366SOL    HW1 1472   1.539   0.576   3.103
  366SOL    HW2 1473   1.672   0.594   3.011
  367SOL     OW 1474   0.219   1.571   3.588
  367SOL    HW1 1475   0.194   1.625   3.669
  367SOL    HW2 1476   0.228   1.475   3.614
  368SOL     OW 1477   0.718   0.494   3.085
  368SOL    HW1 1478   0.658   0.414   3.074
  368SOL    HW2 1479   0.697   0.561   3.013
  369SOL     OW 1480   0.879   1.724   3.427
  369SOL    HW1 1481   0.829   1.652   3.379
  369SOL    HW2 1482   0.903   1.796   3.362
  370SOL     OW 1483   0.441   0.533   2.007
  370SOL    HW1 1484   0.513   0.597   2.034
  370SOL    HW2 1485   0.351   0.575   2.023
  371SOL     OW 1486   0.216   1.165   3.296
  371SOL    HW1 1487   0.212   1.146   3.394
  371SOL    HW2 1488   0.210   1.078   3.246
  372SOL     OW 1489   1.261   1.043   3.056
  372SOL    HW1 1490   1.272   0.981   2.978
  372SOL    HW2 1491   1.217   1.127   3.025
  373SOL     OW 1492   1.325   0.905   2.135
  373SOL    HW1 1493   1.260   0.877   2.205
  373SOL    HW2 1494   1.294   0.873   2.045
  374SOL     OW 1495   1.755   1.699   3.021
  374SOL    HW1 1496   1.826   1.724   2.956
  374SOL    HW2 1497   1.722   1.607   2.999
  375SOL     OW 1498   1.283   1.736   2.930
  375SOL    HW1 1499   1.370   1.784   2.935
  375SOL    HW2 1500   1.294   1.643   2.965
  376SOL     OW 1501   0.102   1.328   2.864
  376SOL    HW1 1502   0.069   1.332   2.958
  376SOL    HW2 1503   0.039   1.378   2.804
  377SOL     OW 1504   0.711   1.732   3.647
  377SOL    HW1 1505   0.639   1.801   3.642
  377SOL    HW2 1506   0.780   1.752   3.577
  378SOL     OW 1507   1.746   0.231   2.280
  378SOL    HW1 1508   1.811   0.244   2.205
  378SOL    HW2 1509   1.760   0.140   2.320
  379SOL     OW 1510   1.422   1.585   2.389
  379SOL    HW1 1511   1.480   1.617   2.314
  379SOL    HW2 1512   1.358   1.658   2.415
  380SOL     OW 1513   0.128   1.735   3.792
  380SOL    HW1 1514   0.081   1.661   3.840
  380SOL    HW2 1515   0.190   1.782   3.855
  381SOL     OW 1516   1.273   0.941   2.483
  381SOL    HW1 1517   1.347   0.879   2.509
  381SOL    HW2 1518   1.312   1.026   2.446
  382SOL     OW 1519   0.775   1.312   3.294
  382SOL    HW1 1520   0.758   1.371   3.373
  382SOL    HW2 1521   0.698   1.318   3.230
  383SOL     OW 1522   0.685   1.632   2.037
  383SOL    HW1 1523   0.702   1.668   1.945
  383SOL    HW2 1524   0.626   1.552   2.032
  384SOL     OW 1525   1.601   1.732   3.262
  384SOL    HW1 1526   1.657   1.725   3.179
  384SOL    HW2 1527   1.590   1.828   3.287
  385SOL     OW 1528   1.797   0.245   2.795
  385SOL    HW1 1529   1.825   0.173   2.732
  385SOL    HW2 1530   1.697   0.249   2.799
  386SOL     OW 1531   0.263   0.255   2.607
  386SOL    HW1 1532   0.223   0.342   2.579
  386SOL    HW2 1533   0.240   0.238   2.703
  387SOL     OW 1534   1.248   1.573   1.917
  387SOL    HW1 1535   1.239   1.482   1.957
  387SOL    HW2 1536   1.170   1.591   1.858
  388SOL     OW 1537   0.810   1.042   3.249
  388SOL    HW1 1538   0.843   1.030   3.156
  388SOL    HW2 1539   0.800   1.139   3.269
  389SOL     OW 1540   0.965   0.942   2.190
  389SOL    HW1 1541   0.979   0.941   2.091
  389SOL    HW2 1542   0.998   0.856   2.230
  390SOL     OW 1543   1.513   1.654   1.931
  390SOL    HW1 1544   1.419   1.623   1.916
  390SOL    HW2 1545   1.558   1.670   1.843
  391SOL     OW 1546   0.393   1.381   3.333
  391SOL    HW1 1547   0.373   1.457   3.272
  391SOL    HW2 1548   0.332   1.304   3.311
  392SOL     OW 1549   1.579   1.285   3.168
  392SOL    HW1 1550   1.642   1.261   3.241
  392SOL    HW2 1551   1.517   1.357   3.199
  393SOL     OW 1552   1.090   1.129   2.597
  393SOL    HW1 1553   1.006   1.087   2.632
  393SOL    HW2 1554   1.144   1.060   2.550
  394SOL     OW 1555   0.990   0.284   2.814
  394SOL    HW1 1556   0.993   0.240   2.724
  394SOL    HW2 1557   0.968   0.215   2.883
  395SOL     OW 1558   0.590   1.488   2.339
  395SOL    HW1 1559   0.646   1.438   2.272
  395SOL    HW2 1560   0.494   1.477   2.316
  396SOL     OW 1561   1.768   0.344   3.284
  396SOL    HW1 1562   1.832   0.419   3.265
  396SOL    HW2 1563   1.787   0.268   3.221
  397SOL     OW 1564   0.251   1.319   2.101
  397SOL    HW1 1565   0.154   1.298   2.096
  397SOL    HW2 1566   0.268   1.378   2.180
  398SOL     OW 1567   0.209   1.060   3.561
  398SOL    HW1 1568   0.158   0.981   3.528
  398SOL    HW2 1569   0.286   1.030   3.617
  399SOL     OW 1570   0.679   0.215   3.318
  399SOL    HW1 1571   0.767   0.192   3.277
  399SOL    HW2 1572   0.693   0.240   3.414
  400SOL     OW 1573   0.105   0.361   1.965
  400SOL    HW1 1574   0.032   0.390   2.026
  400SOL    HW2 1575   0.121   0.432   1.896
  401SOL     OW 1576   1.371   0.867   3.239
  401SOL    HW1 1577   1.311   0.924   3.183
  401SOL    HW2 1578   1.464   0.872   3.204
  402SOL     OW 1579   0.113   0.209   2.231
  402SOL    HW1 1580   0.165   0.242   2.151
  402SOL    HW2 1581   0.171   0.151   2.287
  403SOL     OW 1582   1.189   1.322   2.016
  403SOL    HW1 1583   1.090   1.310   2.009
  403SOL    HW2 1584   1.215   1.325   2.113
  404SOL     OW 1585   0.641   0.839   3.322
  404SOL    HW1 1586   0.696   0.921   3.305
  404SOL    HW2 1587   0.701   0.759   3.326
  405SOL     OW 1588   1.531   1.854   2.934
  405SOL    HW1 1589   1.560   1.906   2.854
  405SOL    HW2 1590   1.609   1.802   2.970
  406SOL     OW 1591   0.684   0.548   3.566
  406SOL    HW1 1592   0.753   0.599   3.617
  406SOL    HW2 1593   0.696   0.450   3.585
  407SOL     OW 1594   1.460   1.197   3.484
  407SOL    HW1 1595   1.449   1.218   3.582
  407SOL    HW2 1596   1.554   1.217   3.456
  408SOL     OW 1597   0.379   1.775   3.463
  408SOL    HW1 1598   0.296   1.831   3.465
  408SOL    HW2 1599   0.356   1.680   3.486
  409SOL     OW 1600   1.614   0.887   3.113
  409SOL    HW1 1601   1.611   0.798   3.066
  409SOL    HW2 1602   1.606   0.960   3.046
  410SOL     OW 1603   1.249   0.340   2.302
  410SOL    HW1 1604   1.324   0.274   2.291
  410SOL    HW2 1605   1.262   0.391   2.387
  411SOL     OW 1606   0.530   0.762   2.529
  411SOL    HW1 1607   0.592   0.840   2.518
  411SOL    HW2 1608   0.483   0.745   2.443
  412SOL     OW 1609   1.747   0.356   3.556
  412SOL    HW1 1610   1.752   0.355   3.456
  412SOL    HW2 1611   1.723   0.265   3.589
  413SOL     OW 1612   1.718   0.951   3.355
  413SOL    HW1 1613   1.708   1.049   3.373
  413SOL    HW2 1614   1.684   0.931   3.264
  414SOL     OW 1615   0.896   1.366   1.963
  414SOL    HW1 1616   0.849   1.367   2.051
  414SOL    HW2 1617   0.906   1.460   1.930
  415SOL     OW 1618   0.676   1.769   2.799
  415SOL    HW1 1619   0.656   1.865   2.779
  415SOL    HW2 1620   0.774   1.752   2.789
  416SOL     OW 1621   0.868   1.009   2.728
  416SOL    HW1 1622   0.918   0.926   2.754
  416SOL    HW2 1623   0.825   1.049   2.810
  417SOL     OW 1624   1.013   0.916   1.925
  417SOL    HW1 1625   0.998   0.993   1.864
  417SOL    HW2 1626   1.105   0.878   1.910
  418SOL     OW 1627   1.863   1.525   2.721
  418SOL    HW1 1628   1.774   1.522   2.675
  418SOL    HW2 1629   1.879   1.437   2.767
  419SOL     OW 1630   0.248   1.308   3.684
  419SOL    HW1 1631   0.212   1.225   3.643
  419SOL    HW2 1632   0.239   1.303   3.784
  420SOL     OW 1633   0.184   1.254   2.459
  420SOL    HW1 1634   0.184   1.221   2.554
  420SOL    HW2 1635   0.222   1.185   2.399
  421SOL     OW 1636   0.712   1.483   3.505
  421SOL    HW1 1637   0.631   1.431   3.533
  421SOL    HW2 1638   0.720   1.565   3.561
  422SOL     OW 1639   1.798   0.127   3.119
  422SOL    HW1 1640   1.715   0.097   3.072
  422SOL    HW2 1641   1.872   0.137   3.052
  423SOL     OW 1642   0.458   0.439   2.372
  423SOL    HW1 1643   0.455   0.378   2.293
  423SOL    HW2 1644   0.509   0.396   2.446
  424SOL     OW 1645   1.672   1.451   2.967
  424SOL    HW1 1646   1.609   1.431   2.892
  424SOL    HW2 1647   1.656   1.387   3.043
  425SOL     OW 1648   0.350   0.589   3.175
  425SOL    HW1 1649   0.400   0.525   3.233
  425SOL    HW2 1650   0.337   0.550   3.084
  426SOL     OW 1651   0.820   1.573   2.524
  426SOL    HW1 1652   0.781   1.630   2.452
  426SOL    HW2 1653   0.755   1.501   2.548
  427SOL     OW 1654   1.351   0.201   2.982
  427SOL    HW1 1655   1.432   0.156   3.018
  427SOL    HW2 1656   1.309   0.258   3.053
  428SOL     OW 1657   0.958   0.052   2.966
  428SOL    HW1 1658   0.883   6.491   2.941
  428SOL    HW2 1659   1.045   0.008   2.945
  429SOL     OW 1660   0.788   1.334   2.213
  429SOL    HW1 1661   0.767   1.238   2.229
  429SOL    HW2 1662   0.869   1.360   2.266
  430SOL     OW 1663   0.636   1.602   3.138
  430SOL    HW1 1664   0.626   1.690   3.185
  430SOL    HW2 1665   0.725   1.597   3.093
  431SOL     OW 1666   1.472   0.001   2.048
  431SOL    HW1 1667   1.565   6.470   2.069
  431SOL    HW2 1668   1.421   6.425   2.008
  432SOL     OW 1669   1.266   0.481   2.538
  432SOL    HW1 1670   1.216   0.567   2.529
  432SOL    HW2 1671   1.255   0.446   2.631
  433SOL     OW 1672   1.529   0.222   2.765
  433SOL    HW1 1673   1.446   0.220   2.821
  433SOL    HW2 1674   1.521   0.295   2.697
  434SOL     OW 1675   0.034   1.016   2.168
  434SOL    HW1 1676   0.124   0.983   2.140
  434SOL    HW2 1677   0.004   0.967   2.250
  435SOL     OW 1678   0.909   1.688   2.194
  435SOL    HW1 1679   0.828   1.664   2.140
  435SOL    HW2 1680   0.886   1.763   2.256
  436SOL     OW 1681   0.179   0.652   3.890
  436SOL    HW1 1682   0.102   0.619   3.945
  436SOL    HW2 1683   0.165   0.625   3.795
  437SOL     OW 1684   0.215   0.235   4.741
  437SOL    HW1 1685   0.251   0.194   4.825
  437SOL    HW2 1686   0.128   0.279   4.760
  438SOL     OW 1687   6.419   0.532   4.334
  438SOL    HW1 1688   6.334   0.582   4.347
  438SOL    HW2 1689   6.402   0.450   4.280
  439SOL     OW 1690   0.587   1.335   4.948
  439SOL    HW1 1691   0.502   1.327   4.895
  439SOL    HW2 1692   0.604   1.431   4.970
  440SOL     OW 1693   1.589   1.515   4.418
  440SOL    HW1 1694   1.545   1.469   4.495
  440SOL    HW2 1695   1.522   1.533   4.347
  441SOL     OW 1696   1.136   0.707   4.397
  441SOL    HW1 1697   1.181   0.794   4.373
  441SOL    HW2 1698   1.078   0.721   4.477
  442SOL     OW 1699   1.791   0.586   3.927
  442SOL    HW1 1700   1.749   0.595   3.837
  442SOL    HW2 1701   1.750   0.509   3.975
  443SOL     OW 1702   0.731   1.155   4.795
  443SOL    HW1 1703   0.677   1.198   4.867
  443SOL    HW2 1704   0.772   1.225   4.737
  444SOL     OW 1705   0.883   0.711   5.561
  444SOL    HW1 1706   0.869   0.766   5.643
  444SOL    HW2 1707   0.903   0.771   5.483
  445SOL     OW 1708   0.685   0.990   4.380
  445SOL    HW1 1709   0.754   0.996   4.452
  445SOL    HW2 1710   0.608   1.050   4.402
  446SOL     OW 1711   0.628   1.131   5.555
  446SOL    HW1 1712   0.667   1.205   5.610
  446SOL    HW2 1713   0.572   1.170   5.481
  447SOL     OW 1714   0.365   1.388   4.780
  447SOL    HW1 1715   0.274   1.362   4.750
  447SOL    HW2 1716   0.406   1.450   4.712
  448SOL     OW 1717   1.432   1.520   5.083
  448SOL    HW1 1718   1.490   1.600   5.094
  448SOL    HW2 1719   1.350   1.529   5.141
  449SOL     OW 1720   0.484   0.396   5.204
  449SOL    HW1 1721   0.563   0.337   5.187
  449SOL    HW2 1722   0.441   0.370   5.291
  450SOL     OW 1723   1.594   0.459   4.477
  450SOL    HW1 1724   1.524   0.461   4.406
  450SOL    HW2 1725   1.577   0.532   4.543
  451SOL     OW 1726   0.259   1.721   4.219
  451SOL    HW1 1727   0.274   1.800   4.278
  451SOL    HW2 1728   0.325   1.723   4.144
  452SOL     OW 1729   0.312   1.454   4.187
  452SOL    HW1 1730   0.283   1.547   4.208
  452SOL    HW2 1731   0.264   1.389   4.247
  453SOL     OW 1732   0.241   1.141   4.573
  453SOL    HW1 1733   0.250   1.051   4.615
  453SOL    HW2 1734   0.187   1.201   4.632
  454SOL     OW 1735   0.582   1.832   5.135
  454SOL    HW1 1736   0.506   1.806   5.194
  454SOL    HW2 1737   0.622   1.918   5.167
  455SOL     OW 1738   0.624   1.005   3.871
  455SOL    HW1 1739   0.669   1.063   3.803
  455SOL    HW2 1740   0.655   1.031   3.962
  456SOL     OW 1741   1.617   0.033   5.199
  456SOL    HW1 1742   1.686   0.076   5.141
  456SOL    HW2 1743   1.581   0.100   5.264
  457SOL     OW 1744   0.114   0.705   4.214
  457SOL    HW1 1745   0.047   0.634   4.233
  457SOL    HW2 1746   0.122   0.766   4.293
  458SOL     OW 1747   1.864   1.758   4.034
  458SOL    HW1 1748   1.940   1.745   4.098
  458SOL    HW2 1749   1.863   1.852   4.001
  459SOL     OW 1750   6.480   1.538   3.905
  459SOL    HW1 1751   6.483   1.438   3.909
  459SOL    HW2 1752   6.385   1.569   3.907
  460SOL     OW 1753   1.697   0.943   4.390
  460SOL    HW1 1754   1.789   0.902   4.392
  460SOL    HW2 1755   1.687   0.998   4.307
  461SOL     OW 1756   1.679   1.123   4.172
  461SOL    HW1 1757   1.759   1.094   4.120
  461SOL    HW2 1758   1.704   1.198   4.234
  462SOL     OW 1759   0.183   0.766   5.306
  462SOL    HW1 1760   0.282   0.763   5.318
  462SOL    HW2 1761   0.162   0.804   5.216
  463SOL     OW 1762   0.616   1.384   4.445
  463SOL    HW1 1763   0.570   1.295   4.452
  463SOL    HW2 1764   0.602   1.422   4.354
  464SOL     OW 1765   1.235   1.214   5.124
  464SOL    HW1 1766   1.253   1.144   5.055
  464SOL    HW2 1767   1.306   1.210   5.195
  465SOL     OW 1768   0.896   0.070   4.208
  465SOL    HW1 1769   0.925   0.165   4.220
  465SOL    HW2 1770   0.833   0.045   4.282
  466SOL     OW 1771   0.168   0.896   5.041
  466SOL    HW1 1772   0.266   0.882   5.027
  466SOL    HW2 1773   0.117   0.855   4.965
  467SOL     OW 1774   1.563   1.051   3.926
  467SOL    HW1 1775   1.485   0.992   3.949
  467SOL    HW2 1776   1.605   1.085   4.010
  468SOL     OW 1777   1.176   1.819   5.327
  468SOL    HW1 1778   1.182   1.898   5.267
  468SOL    HW2 1779   1.195   1.736   5.275
  469SOL     OW 1780   0.383   0.337   5.500
  469SOL    HW1 1781   0.406   0.385   5.584
  469SOL    HW2 1782   0.310   0.271   5.519
  470SOL     OW 1783   1.481   1.384   4.636
  470SOL    HW1 1784   1.417   1.423   4.702
  470SOL    HW2 1785   1.451   1.292   4.611
  471SOL     OW 1786   1.633   1.850   4.262
  471SOL    HW1 1787   1.624   1.786   4.186
  471SOL    HW2 1788   1.641   1.799   4.347
  472SOL     OW 1789   0.584   0.743   3.974
  472SOL    HW1 1790   0.597   0.834   3.937
  472SOL    HW2 1791   0.512   0.745   4.043
  473SOL     OW 1792   1.284   0.401   4.662
  473SOL    HW1 1793   1.186   0.381   4.661
  473SOL    HW2 1794   1.332   0.332   4.715
  474SOL     OW 1795   1.600   1.680   4.046
  474SOL    HW1 1796   1.699   1.694   4.039
  474SOL    HW2 1797   1.562   1.667   3.954
  475SOL     OW 1798   0.796   0.612   5.167
  475SOL    HW1 1799   0.758   0.578   5.253
  475SOL    HW2 1800   0.769   0.552   5.092
  476SOL     OW 1801   1.346   0.497   5.422
  476SOL    HW1 1802   1.322   0.539   5.510
  476SOL    HW2 1803   1.445   0.483   5.418
  477SOL     OW 1804   0.940   0.879   5.330
  477SOL    HW1 1805   0.999   0.814   5.281
  477SOL    HW2 1806   0.901   0.944   5.265
  478SOL     OW 1807   1.010   0.425   4.911
  478SOL    HW1 1808   0.915   0.443   4.938
  478SOL    HW2 1809   1.011   0.381   4.821
  479SOL     OW 1810   1.045   0.687   4.134
  479SOL    HW1 1811   1.072   0.684   4.231
  479SOL    HW2 1812   0.951   0.655   4.125
  480SOL     OW 1813   0.122   0.832   4.456
  480SOL    HW1 1814   0.201   0.863   4.508
  480SOL    HW2 1815   0.081   0.753   4.501
  481SOL     OW 1816   0.157   1.928   5.351
  481SOL    HW1 1817   0.134   1.997   5.420
  481SOL    HW2 1818   0.090   1.854   5.354
  482SOL     OW 1819   0.850   0.365   3.963
  482SOL    HW1 1820   0.898   0.394   3.880
  482SOL    HW2 1821   0.805   0.277   3.946
  483SOL     OW 1822   1.622   0.529   5.453
  483SOL    HW1 1823   1.622   0.623   5.419
  483SOL    HW2 1824   1.685   0.474   5.398
  484SOL     OW 1825   1.407   1.166   4.280
  484SOL    HW1 1826   1.496   1.155   4.235
  484SOL    HW2 1827   1.353   1.233   4.230
  485SOL     OW 1828   0.648   0.152   4.684
  485SOL    HW1 1829   0.628   0.200   4.770
  485SOL    HW2 1830   0.608   0.202   4.608
  486SOL     OW 1831   1.003   1.465   4.194
  486SOL    HW1 1832   0.987   1.544   4.135
  486SOL    HW2 1833   0.965   1.483   4.285
  487SOL     OW 1834   0.363   1.820   4.616
  487SOL    HW1 1835   0.402   1.729   4.619
  487SOL    HW2 1836   0.434   1.888   4.634
  488SOL     OW 1837   1.783   1.056   4.629
  488SOL    HW1 1838   1.739   1.036   4.541
  488SOL    HW2 1839   1.714   1.069   4.699
  489SOL     OW 1840   1.182   1.559   5.199
  489SOL    HW1 1841   1.132   1.545   5.285
  489SOL    HW2 1842   1.134   1.512   5.125
  490SOL     OW 1843   0.271   0.908   3.946
  490SOL    HW1 1844   0.320   0.929   3.861
  490SOL    HW2 1845   0.243   0.812   3.945
  491SOL     OW 1846   1.482   0.775   4.417
  491SOL    HW1 1847   1.474   0.732   4.507
  491SOL    HW2 1848   1.561   0.836   4.416
  492SOL     OW 1849   0.488   1.311   5.396
  492SOL    HW1 1850   0.454   1.335   5.305
  492SOL    HW2 1851   0.413   1.316   5.462
  493SOL     OW 1852   1.168   1.763   3.968
  493SOL    HW1 1853   1.077   1.746   4.005
  493SOL    HW2 1854   1.193   1.692   3.903
  494SOL     OW 1855   0.218   0.227   5.239
  494SOL    HW1 1856   0.188   0.321   5.222
  494SOL    HW2 1857   0.225   0.212   5.337
  495SOL     OW 1858   1.648   1.401   3.821
  495SOL    HW1 1859   1.614   1.494   3.810
  495SOL    HW2 1860   1.576   1.336   3.794
  496SOL     OW 1861   0.483   1.763   4.047
  496SOL    HW1 1862   0.526   1.819   4.117
  496SOL    HW2 1863   0.553   1.708   4.001
  497SOL     OW 1864   1.439   0.126   4.141
  497SOL    HW1 1865   1.407   0.077   4.060
  497SOL    HW2 1866   1.539   0.133   4.139
  498SOL     OW 1867   0.151   1.762   4.924
  498SOL    HW1 1868   0.225   1.697   4.942
  498SOL    HW2 1869   0.123   1.754   4.828
  499SOL     OW 1870   0.936   1.701   4.584
  499SOL    HW1 1871   1.029   1.664   4.591
  499SOL    HW2 1872   0.886   1.651   4.513
  500SOL     OW 1873   0.389   0.690   4.164
  500SOL    HW1 1874   0.414   0.597   4.189
  500SOL    HW2 1875   0.289   0.700   4.170
  501SOL     OW 1876   1.496   0.221   5.356
  501SOL    HW1 1877   1.489   0.209   5.455
  501SOL    HW2 1878   1.405   0.216   5.315
  502SOL     OW 1879   0.510   0.046   3.858
  502SOL    HW1 1880   0.599   0.069   3.898
  502SOL    HW2 1881   0.513   0.060   3.759
  503SOL     OW 1882   0.760   0.265   5.439
  503SOL    HW1 1883   0.828   0.192   5.434
  503SOL    HW2 1884   0.736   0.281   5.535
  504SOL     OW 1885   0.867   1.543   4.878
  504SOL    HW1 1886   0.845   1.490   4.796
  504SOL    HW2 1887   0.932   1.493   4.934
  505SOL     OW 1888   1.302   0.575   5.157
  505SOL    HW1 1889   1.321   0.557   5.253
  505SOL    HW2 1890   1.333   0.667   5.134
  506SOL     OW 1891   0.816   1.374   4.655
  506SOL    HW1 1892   0.907   1.376   4.614
  506SOL    HW2 1893   0.747   1.378   4.582
  507SOL     OW 1894   0.905   0.548   4.605
  507SOL    HW1 1895   0.879   0.539   4.509
  507SOL    HW2 1896   0.932   0.458   4.640
  508SOL     OW 1897   0.508   0.103   4.187
  508SOL    HW1 1898   0.423   0.061   4.217
  508SOL    HW2 1899   0.490   0.169   4.115
  509SOL     OW 1900   1.435   1.229   3.759
  509SOL    HW1 1901   1.481   1.158   3.813
  509SOL    HW2 1902   1.348   1.253   3.802
  510SOL     OW 1903   0.240   6.482   3.854
  510SOL    HW1 1904   0.336   0.009   3.863
  510SOL    HW2 1905   0.233   6.383   3.862
  511SOL     OW 1906   0.993   0.325   4.195
  511SOL    HW1 1907   0.948   0.345   4.108
  511SOL    HW2 1908   1.092   0.332   4.183
  512SOL     OW 1909   1.054   0.705   5.150
  512SOL    HW1 1910   0.970   0.651   5.158
  512SOL    HW2 1911   1.132   0.644   5.145
  513SOL     OW 1912   1.198   1.621   4.537
  513SOL    HW1 1913   1.228   1.674   4.457
  513SOL    HW2 1914   1.236   1.662   4.620
  514SOL     OW 1915   0.466   1.152   4.409
  514SOL    HW1 1916   0.390   1.150   4.473
  514SOL    HW2 1917   0.432   1.136   4.316
  515SOL     OW 1918   1.250   1.803   4.330
  515SOL    HW1 1919   1.300   1.867   4.271
  515SOL    HW2 1920   1.167   1.848   4.364
  516SOL     OW 1921   1.008   0.481   3.767
  516SOL    HW1 1922   0.972   0.565   3.727
  516SOL    HW2 1923   1.079   0.504   3.834
  517SOL     OW 1924   0.133   0.477   5.190
  517SOL    HW1 1925   0.201   0.533   5.143
  517SOL    HW2 1926   0.046   0.527   5.194
  518SOL     OW 1927   0.583   0.251   4.933
  518SOL    HW1 1928   0.631   0.220   5.016
  518SOL    HW2 1929   0.485   0.233   4.943
  519SOL     OW 1930   0.850   0.504   4.347
  519SOL    HW1 1931   0.801   0.554   4.275
  519SOL    HW2 1932   0.905   0.431   4.305
  520SOL     OW 1933   1.002   0.069   4.493
  520SOL    HW1 1934   1.048   0.068   4.405
  520SOL    HW2 1935   1.017   6.481   4.539
  521SOL     OW 1936   1.407   1.124   4.572
  521SOL    HW1 1937   1.351   1.044   4.595
  521SOL    HW2 1938   1.406   1.138   4.473
  522SOL     OW 1939   1.453   0.642   4.663
  522SOL    HW1 1940   1.391   0.565   4.677
  522SOL    HW2 1941   1.525   0.639   4.733
  523SOL     OW 1942   1.799   0.788   4.108
  523SOL    HW1 1943   1.865   0.756   4.176
  523SOL    HW2 1944   1.796   0.723   4.032
  524SOL     OW 1945   0.506   1.433   3.853
  524SOL    HW1 1946   0.425   1.393   3.896
  524SOL    HW2 1947   0.509   1.407   3.757
  525SOL     OW 1948   1.768   1.309   4.339
  525SOL    HW1 1949   1.862   1.312   4.373
  525SOL    HW2 1950   1.718   1.390   4.372
  526SOL     OW 1951   1.377   0.596   3.767
  526SOL    HW1 1952   1.329   0.565   3.850
  526SOL    HW2 1953   1.475   0.582   3.779
  527SOL     OW 1954   0.442   0.288   3.999
  527SOL    HW1 1955   0.454   0.217   3.929
  527SOL    HW2 1956   0.442   0.378   3.956
  528SOL     OW 1957   1.709   1.216   5.222
  528SOL    HW1 1958   1.802   1.188   5.198
  528SOL    HW2 1959   1.711   1.309   5.260
  529SOL     OW 1960   1.028   1.372   5.044
  529SOL    HW1 1961   0.941   1.349   5.088
  529SOL    HW2 1962   1.101   1.315   5.081
  530SOL     OW 1963   1.561   1.646   5.368
  530SOL    HW1 1964   1.558   1.696   5.282
  530SOL    HW2 1965   1.632   1.576   5.364
  531SOL     OW 1966   1.138   1.265   4.813
  531SOL    HW1 1967   1.078   1.303   4.884
  531SOL    HW2 1968   1.107   1.297   4.724
  532SOL     OW 1969   1.572   1.096   4.797
  532SOL    HW1 1970   1.557   1.166   4.868
  532SOL    HW2 1971   1.506   1.110   4.723
  533SOL     OW 1972   0.952   0.141   5.091
  533SOL    HW1 1973   0.970   0.116   4.995
  533SOL    HW2 1974   1.026   0.107   5.148
  534SOL     OW 1975   0.895   1.067   5.520
  534SOL    HW1 1976   0.796   1.083   5.527
  534SOL    HW2 1977   0.913   1.000   5.448
  535SOL     OW 1978   0.739   1.063   4.117
  535SOL    HW1 1979   0.713   1.036   4.210
  535SOL    HW2 1980   0.825   1.018   4.092
  536SOL     OW 1981   0.435   0.837   5.008
  536SOL    HW1 1982   0.511   0.853   5.071
  536SOL    HW2 1983   0.404   0.743   5.015
  537SOL     OW 1984   1.255   0.353   5.005
  537SOL    HW1 1985   1.289   0.433   5.054
  537SOL    HW2 1986   1.163   0.372   4.970
  538SOL     OW 1987   0.005   1.598   5.091
  538SOL    HW1 1988   0.053   1.661   5.030
  538SOL    HW2 1989   0.016   1.504   5.058
  539SOL     OW 1990   0.343   1.103   4.148
  539SOL    HW1 1991   0.336   1.176   4.080
  539SOL    HW2 1992   0.332   1.015   4.103
  540SOL     OW 1993   0.450   0.628   4.613
  540SOL    HW1 1994   0.473   0.664   4.522
  540SOL    HW2 1995   0.532   0.625   4.669
  541SOL     OW 1996   1.257   1.364   4.142
  541SOL    HW1 1997   1.317   1.440   4.167
  541SOL    HW2 1998   1.163   1.386   4.168
  542SOL     OW 1999   1.319   1.473   4.840
  542SOL    HW1 2000   1.361   1.483   4.930
  542SOL    HW2 2001   1.259   1.392   4.841
  543SOL     OW 2002   1.584   0.622   4.202
  543SOL    HW1 2003   1.528   0.666   4.272
  543SOL    HW2 2004   1.648   0.689   4.164
  544SOL     OW 2005   0.350   1.581   4.968
  544SOL    HW1 2006   0.345   1.509   4.899
  544SOL    HW2 2007   0.446   1.603   4.986
  545SOL     OW 2008   0.469   0.737   5.356
  545SOL    HW1 2009   0.526   0.788   5.291
  545SOL    HW2 2010   0.519   0.656   5.386
  546SOL     OW 2011   1.596   0.783   5.368
  546SOL    HW1 2012   1.503   0.820   5.363
  546SOL    HW2 2013   1.651   0.825   5.296
  547SOL     OW 2014   0.964   0.068   5.428
  547SOL    HW1 2015   1.037   0.136   5.428
  547SOL    HW2 2016   0.983   6.499   5.358
  548SOL     OW 2017   0.506   0.076   5.489
  548SOL    HW1 2018   0.455   0.014   5.430
  548SOL    HW2 2019   0.481   0.170   5.468
  549SOL     OW 2020   0.577   0.921   4.778
  549SOL    HW1 2021   0.629   1.006   4.787
  549SOL    HW2 2022   0.530   0.902   4.864
  550SOL     OW 2023   1.287   0.877   4.680
  550SOL    HW1 2024   1.193   0.846   4.671
  550SOL    HW2 2025   1.349   0.798   4.675
  551SOL     OW 2026   1.198   0.529   3.969
  551SOL    HW1 2027   1.232   0.457   4.030
  551SOL    HW2 2028   1.148   0.597   4.022
  552SOL     OW 2029   0.327   0.163   4.986
  552SOL    HW1 2030   0.295   0.191   5.076
  552SOL    HW2 2031   0.345   0.065   4.986
  553SOL     OW 2032   0.035   1.331   5.000
  553SOL    HW1 2033   0.105   1.274   5.043
  553SOL    HW2 2034   6.448   1.319   5.047
  554SOL     OW 2035   0.688   0.664   4.750
  554SOL    HW1 2036   0.761   0.643   4.685
  554SOL    HW2 2037   0.663   0.760   4.742
  555SOL     OW 2038   1.679   0.988   5.533
  555SOL    HW1 2039   1.656   0.908   5.477
  555SOL    HW2 2040   1.605   1.005   5.599
  556SOL     OW 2041   0.251   0.059   4.282
  556SOL    HW1 2042   0.255   0.128   4.355
  556SOL    HW2 2043   0.205   6.477   4.317
  557SOL     OW 2044   1.608   0.399   4.040
  557SOL    HW1 2045   1.643   0.321   4.092
  557SOL    HW2 2046   1.586   0.474   4.102
  558SOL     OW 2047   1.022   0.782   4.678
  558SOL    HW1 2048   1.000   0.803   4.773
  558SOL    HW2 2049   0.985   0.692   4.655
  559SOL     OW 2050   0.987   1.546   5.396
  559SOL    HW1 2051   0.959   1.632   5.353
  559SOL    HW2 2052   0.910   1.483   5.398
  560SOL     OW 2053   1.769   1.470   5.303
  560SOL    HW1 2054   1.812   1.513   5.224
  560SOL    HW2 2055   1.840   1.436   5.365
  561SOL     OW 2056   0.360   0.927   5.525
  561SOL    HW1 2057   0.415   0.941   5.608
  561SOL    HW2 2058   0.403   0.856   5.469
  562SOL     OW 2059   1.534   0.221   3.832
  562SOL    HW1 2060   1.466   0.158   3.871
  562SOL    HW2 2061   1.559   0.290   3.900
  563SOL     OW 2062   1.271   0.843   3.741
  563SOL    HW1 2063   1.308   0.751   3.748
  563SOL    HW2 2064   1.302   0.885   3.655
  564SOL     OW 2065   1.072   1.371   4.567
  564SOL    HW1 2066   1.091   1.292   4.509
  564SOL    HW2 2067   1.130   1.448   4.541
  565SOL     OW 2068   0.324   0.872   4.659
  565SOL    HW1 2069   0.405   0.919   4.694
  565SOL    HW2 2070   0.347   0.779   4.633
  566SOL     OW 2071   0.310   0.489   4.800
  566SOL    HW1 2072   0.297   0.394   4.772
  566SOL    HW2 2073   0.355   0.540   4.726
  567SOL     OW 2074   1.133   0.315   5.433
  567SOL    HW1 2075   1.065   0.355   5.494
  567SOL    HW2 2076   1.212   0.376   5.426
  568SOL     OW 2077   1.244   0.186   5.222
  568SOL    HW1 2078   1.192   0.231   5.294
  568SOL    HW2 2079   1.243   0.243   5.139
  569SOL     OW 2080   6.479   1.254   3.901
  569SOL    HW1 2081   6.403   1.237   3.838
  569SOL    HW2 2082   6.496   1.171   3.955
  570SOL     OW 2083   0.094   1.761   4.656
  570SOL    HW1 2084   0.058   1.735   4.567
  570SOL    HW2 2085   0.189   1.791   4.646
  571SOL     OW 2086   0.496   1.570   4.617
  571SOL    HW1 2087   0.567   1.637   4.641
  571SOL    HW2 2088   0.533   1.505   4.551
  572SOL     OW 2089   0.928   0.821   4.932
  572SOL    HW1 2090   0.988   0.792   5.007
  572SOL    HW2 2091   0.840   0.774   4.939
  573SOL     OW 2092   0.031   0.433   4.802
  573SOL    HW1 2093   0.114   0.477   4.836
  573SOL    HW2 2094   6.456   0.451   4.866
  574SOL     OW 2095   0.209   0.558   5.497
  574SOL    HW1 2096   0.283   0.495   5.474
  574SOL    HW2 2097   0.191   0.619   5.420
  575SOL     OW 2098   1.356   0.915   5.344
  575SOL    HW1 2099   1.378   1.013   5.340
  575SOL    HW2 2100   1.337   0.881   5.252
  576SOL     OW 2101   0.789   0.601   4.091
  576SOL    HW1 2102   0.798   0.515   4.041
  576SOL    HW2 2103   0.717   0.656   4.050
  577SOL     OW 2104   1.669   0.634   4.838
  577SOL    HW1 2105   1.670   0.565   4.910
  577SOL    HW2 2106   1.763   0.660   4.815
  578SOL     OW 2107   0.229   1.581   5.456
  578SOL    HW1 2108   0.199   1.630   5.538
  578SOL    HW2 2109   0.242   1.484   5.478
  579SOL     OW 2110   0.738   0.476   4.940
  579SOL    HW1 2111   0.678   0.396   4.933
  579SOL    HW2 2112   0.712   0.543   4.871
  580SOL     OW 2113   0.850   1.745   5.256
  580SOL    HW1 2114   0.773   1.710   5.202
  580SOL    HW2 2115   0.893   1.821   5.206
  581SOL     OW 2116   0.433   0.533   3.874
  581SOL    HW1 2117   0.505   0.598   3.898
  581SOL    HW2 2118   0.344   0.576   3.888
  582SOL     OW 2119   0.197   1.157   5.143
  582SOL    HW1 2120   0.192   1.146   5.243
  582SOL    HW2 2121   0.199   1.067   5.100
  583SOL     OW 2122   1.249   1.033   4.905
  583SOL    HW1 2123   1.273   0.973   4.828
  583SOL    HW2 2124   1.207   1.117   4.871
  584SOL     OW 2125   1.340   0.915   3.999
  584SOL    HW1 2126   1.273   0.893   4.069
  584SOL    HW2 2127   1.305   0.888   3.909
  585SOL     OW 2128   1.748   1.699   4.879
  585SOL    HW1 2129   1.822   1.734   4.822
  585SOL    HW2 2130   1.724   1.607   4.850
  586SOL     OW 2131   1.271   1.735   4.780
  586SOL    HW1 2132   1.360   1.782   4.783
  586SOL    HW2 2133   1.283   1.640   4.811
  587SOL     OW 2134   0.102   1.326   4.723
  587SOL    HW1 2135   0.066   1.331   4.817
  587SOL    HW2 2136   0.041   1.377   4.662
  588SOL     OW 2137   0.710   1.712   5.494
  588SOL    HW1 2138   0.636   1.780   5.500
  588SOL    HW2 2139   0.772   1.737   5.420
  589SOL     OW 2140   1.718   0.151   4.117
  589SOL    HW1 2141   1.784   0.186   4.050
  589SOL    HW2 2142   1.736   0.054   4.134
  590SOL     OW 2143   1.404   1.586   4.223
  590SOL    HW1 2144   1.468   1.619   4.153
  590SOL    HW2 2145   1.343   1.660   4.250
  591SOL     OW 2146   0.126   1.715   5.669
  591SOL    HW1 2147   0.078   1.645   5.722
  591SOL    HW2 2148   0.187   1.766   5.730
  592SOL     OW 2149   1.276   0.935   4.337
  592SOL    HW1 2150   1.350   0.872   4.362
  592SOL    HW2 2151   1.314   1.020   4.302
  593SOL     OW 2152   0.783   1.308   5.149
  593SOL    HW1 2153   0.762   1.357   5.234
  593SOL    HW2 2154   0.704   1.313   5.088
  594SOL     OW 2155   0.688   1.633   3.901
  594SOL    HW1 2156   0.706   1.668   3.808
  594SOL    HW2 2157   0.629   1.553   3.895
  595SOL     OW 2158   1.588   1.751   5.107
  595SOL    HW1 2159   1.648   1.741   5.028
  595SOL    HW2 2160   1.581   1.847   5.132
  596SOL     OW 2161   1.808   0.083   4.722
  596SOL    HW1 2162   1.841   0.019   4.653
  596SOL    HW2 2163   1.738   0.142   4.682
  597SOL     OW 2164   0.268   0.255   4.475
  597SOL    HW1 2165   0.230   0.343   4.447
  597SOL    HW2 2166   0.247   0.238   4.571
  598SOL     OW 2167   1.239   1.573   3.785
  598SOL    HW1 2168   1.231   1.480   3.820
  598SOL    HW2 2169   1.160   1.594   3.727
  599SOL     OW 2170   0.837   1.038   5.132
  599SOL    HW1 2171   0.879   1.020   5.043
  599SOL    HW2 2172   0.822   1.137   5.141
  600SOL     OW 2173   0.965   0.936   4.048
  600SOL    HW1 2174   0.982   0.940   3.949
  600SOL    HW2 2175   0.997   0.849   4.084
  601SOL     OW 2176   1.503   1.654   3.785
  601SOL    HW1 2177   1.408   1.624   3.778
  601SOL    HW2 2178   1.544   1.660   3.694
  602SOL     OW 2179   0.362   1.381   5.170
  602SOL    HW1 2180   0.342   1.458   5.109
  602SOL    HW2 2181   0.302   1.304   5.148
  603SOL     OW 2182   1.552   1.282   4.999
  603SOL    HW1 2183   1.613   1.251   5.072
  603SOL    HW2 2184   1.504   1.365   5.028
  604SOL     OW 2185   1.086   1.125   4.447
  604SOL    HW1 2186   1.005   1.082   4.488
  604SOL    HW2 2187   1.141   1.056   4.402
  605SOL     OW 2188   1.019   0.281   4.676
  605SOL    HW1 2189   1.008   0.238   4.587
  605SOL    HW2 2190   1.014   0.212   4.748
  606SOL     OW 2191   0.592   1.482   4.196
  606SOL    HW1 2192   0.647   1.433   4.129
  606SOL    HW2 2193   0.495   1.473   4.173
  607SOL     OW 2194   1.734   0.449   5.040
  607SOL    HW1 2195   1.822   0.493   5.058
  607SOL    HW2 2196   1.749   0.353   5.015
  608SOL     OW 2197   0.252   1.316   3.961
  608SOL    HW1 2198   0.154   1.297   3.955
  608SOL    HW2 2199   0.270   1.375   4.040
  609SOL     OW 2200   0.169   1.086   5.414
  609SOL    HW1 2201   0.087   1.031   5.400
  609SOL    HW2 2202   0.241   1.029   5.455
  610SOL     OW 2203   0.703   0.198   5.180
  610SOL    HW1 2204   0.794   0.180   5.141
  610SOL    HW2 2205   0.712   0.222   5.276
  611SOL     OW 2206   0.104   0.357   3.818
  611SOL    HW1 2207   0.034   0.388   3.883
  611SOL    HW2 2208   0.119   0.428   3.750
  612SOL     OW 2209   1.360   0.839   5.081
  612SOL    HW1 2210   1.298   0.899   5.030
  612SOL    HW2 2211   1.452   0.846   5.043
  613SOL     OW 2212   0.117   0.210   4.094
  613SOL    HW1 2213   0.174   0.239   4.017
  613SOL    HW2 2214   0.171   0.152   4.155
  614SOL     OW 2215   1.193   1.316   3.870
  614SOL    HW1 2216   1.095   1.303   3.858
  614SOL    HW2 2217   1.215   1.317   3.968
  615SOL     OW 2218   0.649   0.844   5.174
  615SOL    HW1 2219   0.708   0.925   5.167
  615SOL    HW2 2220   0.705   0.762   5.175
  616SOL     OW 2221   1.522   1.846   4.779
  616SOL    HW1 2222   1.553   1.900   4.701
  616SOL    HW2 2223   1.599   1.796   4.818
  617SOL     OW 2224   0.700   0.547   5.414
  617SOL    HW1 2225   0.757   0.599   5.478
  617SOL    HW2 2226   0.717   0.449   5.427
  618SOL     OW 2227   1.440   1.175   5.317
  618SOL    HW1 2228   1.431   1.207   5.411
  618SOL    HW2 2229   1.534   1.191   5.285
  619SOL     OW 2230   0.381   1.775   5.320
  619SOL    HW1 2231   0.303   1.837   5.318
  619SOL    HW2 2232   0.351   1.685   5.352
  620SOL     OW 2233   1.602   0.875   4.957
  620SOL    HW1 2234   1.626   0.792   4.906
  620SOL    HW2 2235   1.593   0.952   4.893
  621SOL     OW 2236   1.268   0.346   4.164
  621SOL    HW1 2237   1.330   0.269   4.156
  621SOL    HW2 2238   1.289   0.397   4.248
  622SOL     OW 2239   0.528   0.760   4.392
  622SOL    HW1 2240   0.591   0.837   4.380
  622SOL    HW2 2241   0.481   0.743   4.305
  623SOL     OW 2242   1.741   0.336   5.295
  623SOL    HW1 2243   1.726   0.381   5.207
  623SOL    HW2 2244   1.657   0.289   5.322
  624SOL     OW 2245   1.730   0.933   5.190
  624SOL    HW1 2246   1.712   1.030   5.209
  624SOL    HW2 2247   1.692   0.909   5.100
  625SOL     OW 2248   0.903   1.361   3.819
  625SOL    HW1 2249   0.856   1.365   3.907
  625SOL    HW2 2250   0.915   1.453   3.783
  626SOL     OW 2251   0.674   1.771   4.652
  626SOL    HW1 2252   0.653   1.867   4.634
  626SOL    HW2 2253   0.772   1.755   4.639
  627SOL     OW 2254   0.872   1.004   4.590
  627SOL    HW1 2255   0.925   0.924   4.620
  627SOL    HW2 2256   0.827   1.046   4.669
  628SOL     OW 2257   1.020   0.931   3.783
  628SOL    HW1 2258   1.004   1.009   3.723
  628SOL    HW2 2259   1.113   0.897   3.770
  629SOL     OW 2260   1.804   1.586   4.571
  629SOL    HW1 2261   1.735   1.573   4.501
  629SOL    HW2 2262   1.785   1.525   4.648
  630SOL     OW 2263   0.262   1.319   5.546
  630SOL    HW1 2264   0.216   1.240   5.505
  630SOL    HW2 2265   0.250   1.316   5.646
  631SOL     OW 2266   0.187   1.254   4.322
  631SOL    HW1 2267   0.187   1.220   4.416
  631SOL    HW2 2268   0.222   1.183   4.261
  632SOL     OW 2269   0.723   1.449   5.387
  632SOL    HW1 2270   0.640   1.395   5.397
  632SOL    HW2 2271   0.709   1.539   5.428
  633SOL     OW 2272   1.757   0.176   5.001
  633SOL    HW1 2273   1.682   0.128   4.958
  633SOL    HW2 2274   1.843   0.152   4.956
  634SOL     OW 2275   0.460   0.439   4.235
  634SOL    HW1 2276   0.453   0.377   4.157
  634SOL    HW2 2277   0.510   0.394   4.309
  635SOL     OW 2278   1.707   1.447   4.786
  635SOL    HW1 2279   1.625   1.413   4.740
  635SOL    HW2 2280   1.740   1.378   4.851
  636SOL     OW 2281   0.352   0.582   5.050
  636SOL    HW1 2282   0.406   0.518   5.104
  636SOL    HW2 2283   0.339   0.545   4.958
  637SOL     OW 2284   0.815   1.571   4.381
  637SOL    HW1 2285   0.776   1.621   4.304
  637SOL    HW2 2286   0.752   1.499   4.410
  638SOL     OW 2287   1.395   0.196   4.818
  638SOL    HW1 2288   1.457   0.127   4.853
  638SOL    HW2 2289   1.350   0.243   4.894
  639SOL     OW 2290   1.008   0.054   4.836
  639SOL    HW1 2291   0.929   6.500   4.805
  639SOL    HW2 2292   1.092   0.003   4.818
  640SOL     OW 2293   0.790   1.331   4.068
  640SOL    HW1 2294   0.769   1.235   4.086
  640SOL    HW2 2295   0.869   1.358   4.122
  641SOL     OW 2296   0.627   1.603   4.995
  641SOL    HW1 2297   0.617   1.693   5.039
  641SOL    HW2 2298   0.715   1.599   4.948
  642SOL     OW 2299   1.339   0.021   3.905
  642SOL    HW1 2300   1.356   6.432   3.864
  642SOL    HW2 2301   1.240   0.035   3.916
  643SOL     OW 2302   1.309   0.485   4.397
  643SOL    HW1 2303   1.252   0.567   4.389
  643SOL    HW2 2304   1.302   0.449   4.490
  644SOL     OW 2305   1.604   0.225   4.625
  644SOL    HW1 2306   1.521   0.222   4.680
  644SOL    HW2 2307   1.602   0.306   4.566
  645SOL     OW 2308   0.037   1.021   4.029
  645SOL    HW1 2309   0.124   0.984   3.997
  645SOL    HW2 2310   0.007   0.970   4.110
  646SOL     OW 2311   0.912   1.689   4.059
  646SOL    HW1 2312   0.833   1.665   4.003
  646SOL    HW2 2313   0.888   1.766   4.118
  647SOL     OW 2314   0.169   0.673   5.748
  647SOL    HW1 2315   0.083   0.639   5.786
  647SOL    HW2 2316   0.177   0.645   5.653
  648SOL     OW 2317   6.474   0.486   6.201
  648SOL    HW1 2318   6.395   0.490   6.262
  648SOL    HW2 2319   6.452   0.430   6.121
  649SOL     OW 2320   1.428   1.471   6.279
  649SOL    HW1 2321   1.348   1.431   6.323
  649SOL    HW2 2322   1.402   1.509   6.191
  650SOL     OW 2323   1.013   0.703   6.199
  650SOL    HW1 2324   1.052   0.786   6.240
  650SOL    HW2 2325   0.947   0.663   6.262
  651SOL     OW 2326   1.602   0.567   5.719
  651SOL    HW1 2327   1.616   0.549   5.621
  651SOL    HW2 2328   1.586   0.480   5.766
  652SOL     OW 2329   0.632   1.197   0.083
  652SOL    HW1 2330   0.659   1.248   0.165
  652SOL    HW2 2331   0.615   1.260   0.008
  653SOL     OW 2332   0.656   0.947   6.223
  653SOL    HW1 2333   0.718   0.966   6.299
  653SOL    HW2 2334   0.570   0.996   6.237
  654SOL     OW 2335   1.583   0.329   6.374
  654SOL    HW1 2336   1.530   0.407   6.341
  654SOL    HW2 2337   1.616   0.348   6.466
  655SOL     OW 2338   0.306   1.734   6.103
  655SOL    HW1 2339   0.301   1.818   6.157
  655SOL    HW2 2340   0.373   1.745   6.030
  656SOL     OW 2341   0.271   1.469   6.053
  656SOL    HW1 2342   0.273   1.567   6.073
  656SOL    HW2 2343   0.238   1.420   6.133
  657SOL     OW 2344   0.194   1.119   6.477
  657SOL    HW1 2345   0.221   1.052   0.046
  657SOL    HW2 2346   0.159   1.201   0.021
  658SOL     OW 2347   0.529   0.973   5.756
  658SOL    HW1 2348   0.565   1.024   5.678
  658SOL    HW2 2349   0.583   0.994   5.838
  659SOL     OW 2350   0.108   0.732   6.164
  659SOL    HW1 2351   0.063   0.643   6.171
  659SOL    HW2 2352   0.090   0.786   6.246
  660SOL     OW 2353   1.680   1.897   5.785
  660SOL    HW1 2354   1.742   1.821   5.804
  660SOL    HW2 2355   1.734   1.979   5.762
  661SOL     OW 2356   6.469   1.525   5.785
  661SOL    HW1 2357   6.466   1.425   5.780
  661SOL    HW2 2358   6.376   1.562   5.779
  662SOL     OW 2359   1.525   0.769   6.155
  662SOL    HW1 2360   1.605   0.716   6.127
  662SOL    HW2 2361   1.517   0.850   6.097
  663SOL     OW 2362   1.537   1.004   5.998
  663SOL    HW1 2363   1.636   1.021   5.995
  663SOL    HW2 2364   1.491   1.078   6.047
  664SOL     OW 2365   0.603   1.314   6.324
  664SOL    HW1 2366   0.548   1.232   6.310
  664SOL    HW2 2367   0.592   1.375   6.246
  665SOL     OW 2368   0.968   0.001   6.203
  665SOL    HW1 2369   0.968   0.093   6.166
  665SOL    HW2 2370   0.878   6.480   6.241
  666SOL     OW 2371   1.481   1.005   5.723
  666SOL    HW1 2372   1.407   0.944   5.695
  666SOL    HW2 2373   1.495   0.997   5.822
  667SOL     OW 2374   1.592   1.859   6.104
  667SOL    HW1 2375   1.574   1.791   6.033
  667SOL    HW2 2376   1.586   1.815   6.194
  668SOL     OW 2377   0.537   0.703   5.849
  668SOL    HW1 2378   0.538   0.795   5.810
  668SOL    HW2 2379   0.475   0.701   5.928
  669SOL     OW 2380   1.171   0.281   0.026
  669SOL    HW1 2381   1.117   0.365   0.023
  669SOL    HW2 2382   1.230   0.283   0.107
  670SOL     OW 2383   1.512   1.705   5.870
  670SOL    HW1 2384   1.568   1.784   5.844
  670SOL    HW2 2385   1.474   1.663   5.787
  671SOL     OW 2386   1.010   0.663   5.937
  671SOL    HW1 2387   1.014   0.675   6.037
  671SOL    HW2 2388   0.923   0.623   5.911
  672SOL     OW 2389   0.047   0.878   6.394
  672SOL    HW1 2390   0.096   0.964   6.411
  672SOL    HW2 2391   6.449   0.898   6.382
  673SOL     OW 2392   0.756   0.329   5.706
  673SOL    HW1 2393   0.847   0.362   5.680
  673SOL    HW2 2394   0.765   0.257   5.774
  674SOL     OW 2395   1.184   1.053   6.028
  674SOL    HW1 2396   1.209   0.978   5.966
  674SOL    HW2 2397   1.187   1.140   5.978
  675SOL     OW 2398   0.966   1.451   6.069
  675SOL    HW1 2399   0.952   1.536   6.019
  675SOL    HW2 2400   0.935   1.463   6.163
  676SOL     OW 2401   0.351   1.816   6.467
  676SOL    HW1 2402   0.325   1.720   6.454
  676SOL    HW2 2403   0.450   1.821   6.484
  677SOL     OW 2404   1.362   0.993   6.425
  677SOL    HW1 2405   1.364   1.071   6.487
  677SOL    HW2 2406   1.439   0.999   6.361
  678SOL     OW 2407   0.267   0.919   5.851
  678SOL    HW1 2408   0.357   0.941   5.814
  678SOL    HW2 2409   0.240   0.827   5.823
  679SOL     OW 2410   1.430   0.553   6.297
  679SOL    HW1 2411   1.414   0.567   6.395
  679SOL    HW2 2412   1.460   0.638   6.256
  680SOL     OW 2413   1.125   1.759   5.782
  680SOL    HW1 2414   1.050   1.734   5.844
  680SOL    HW2 2415   1.138   1.686   5.715
  681SOL     OW 2416   1.604   1.427   5.624
  681SOL    HW1 2417   1.550   1.511   5.626
  681SOL    HW2 2418   1.544   1.350   5.603
  682SOL     OW 2419   0.502   1.791   5.920
  682SOL    HW1 2420   0.546   1.849   5.988
  682SOL    HW2 2421   0.572   1.744   5.866
  683SOL     OW 2422   1.412   0.064   5.960
  683SOL    HW1 2423   1.395   0.011   5.877
  683SOL    HW2 2424   1.509   0.088   5.965
  684SOL     OW 2425   0.359   0.675   6.058
  684SOL    HW1 2426   0.354   0.575   6.066
  684SOL    HW2 2427   0.272   0.715   6.087
  685SOL     OW 2428   0.539   0.033   5.750
  685SOL    HW1 2429   0.627   0.065   5.786
  685SOL    HW2 2430   0.538   0.043   5.651
  686SOL     OW 2431   0.556   0.087   6.071
  686SOL    HW1 2432   0.496   0.055   6.144
  686SOL    HW2 2433   0.509   0.155   6.016
  687SOL     OW 2434   1.418   1.231   5.585
  687SOL    HW1 2435   1.445   1.150   5.638
  687SOL    HW2 2436   1.334   1.269   5.624
  688SOL     OW 2437   0.261   6.482   5.741
  688SOL    HW1 2438   0.360   6.486   5.755
  688SOL    HW2 2439   0.229   6.388   5.748
  689SOL     OW 2440   0.939   0.258   6.099
  689SOL    HW1 2441   0.876   0.257   6.020
  689SOL    HW2 2442   1.033   0.268   6.066
  690SOL     OW 2443   0.431   1.099   6.273
  690SOL    HW1 2444   0.363   1.093   6.346
  690SOL    HW2 2445   0.385   1.110   6.185
  691SOL     OW 2446   1.204   1.764   6.185
  691SOL    HW1 2447   1.235   1.847   6.138
  691SOL    HW2 2448   1.114   1.780   6.224
  692SOL     OW 2449   0.985   0.454   5.620
  692SOL    HW1 2450   0.954   0.547   5.601
  692SOL    HW2 2451   1.051   0.455   5.696
  693SOL     OW 2452   0.859   0.448   6.308
  693SOL    HW1 2453   0.761   0.444   6.326
  693SOL    HW2 2454   0.882   0.384   6.235
  694SOL     OW 2455   1.022   0.058   6.472
  694SOL    HW1 2456   1.081   0.137   6.489
  694SOL    HW2 2457   1.027   0.032   6.375
  695SOL     OW 2458   1.831   0.679   5.818
  695SOL    HW1 2459   1.833   0.778   5.804
  695SOL    HW2 2460   1.746   0.641   5.782
  696SOL     OW 2461   0.504   1.458   5.790
  696SOL    HW1 2462   0.413   1.415   5.793
  696SOL    HW2 2463   0.569   1.395   5.746
  697SOL     OW 2464   1.431   1.220   6.131
  697SOL    HW1 2465   1.457   1.295   6.193
  697SOL    HW2 2466   1.341   1.238   6.092
  698SOL     OW 2467   1.329   0.599   5.676
  698SOL    HW1 2468   1.273   0.543   5.736
  698SOL    HW2 2469   1.425   0.595   5.704
  699SOL     OW 2470   0.426   0.249   5.885
  699SOL    HW1 2471   0.457   0.175   5.826
  699SOL    HW2 2472   0.420   0.333   5.832
  700SOL     OW 2473   0.712   1.017   5.960
  700SOL    HW1 2474   0.699   0.981   6.052
  700SOL    HW2 2475   0.781   0.962   5.912
  701SOL     OW 2476   0.288   1.133   6.036
  701SOL    HW1 2477   0.289   1.206   5.967
  701SOL    HW2 2478   0.277   1.045   5.992
  702SOL     OW 2479   0.580   0.457   6.390
  702SOL    HW1 2480   0.580   0.533   6.326
  702SOL    HW2 2481   0.518   0.477   6.466
  703SOL     OW 2482   1.208   1.347   5.991
  703SOL    HW1 2483   1.268   1.426   6.004
  703SOL    HW2 2484   1.116   1.369   6.025
  704SOL     OW 2485   1.410   0.523   6.012
  704SOL    HW1 2486   1.411   0.509   6.111
  704SOL    HW2 2487   1.418   0.620   5.992
  705SOL     OW 2488   1.156   0.455   5.833
  705SOL    HW1 2489   1.187   0.384   5.896
  705SOL    HW2 2490   1.111   0.528   5.885
  706SOL     OW 2491   0.344   0.077   6.275
  706SOL    HW1 2492   0.280   0.151   6.259
  706SOL    HW2 2493   0.301   0.006   6.331
  707SOL     OW 2494   1.525   0.339   5.846
  707SOL    HW1 2495   1.585   0.277   5.896
  707SOL    HW2 2496   1.476   0.398   5.911
  708SOL     OW 2497   1.487   0.171   5.628
  708SOL    HW1 2498   1.438   0.090   5.662
  708SOL    HW2 2499   1.496   0.237   5.702
  709SOL     OW 2500   1.279   0.855   5.602
  709SOL    HW1 2501   1.294   0.757   5.616
  709SOL    HW2 2502   1.296   0.877   5.506
  710SOL     OW 2503   1.190   1.369   6.372
  710SOL    HW1 2504   1.126   1.303   6.334
  710SOL    HW2 2505   1.184   1.368   6.472
  711SOL     OW 2506   6.463   1.245   5.764
  711SOL    HW1 2507   6.390   1.228   5.697
  711SOL    HW2 2508   6.479   1.163   5.818
  712SOL     OW 2509   0.001   1.847   0.063
  712SOL    HW1 2510   0.036   1.768   0.113
  712SOL    HW2 2511   0.063   1.870   6.488
  713SOL     OW 2512   0.774   0.564   5.856
  713SOL    HW1 2513   0.753   0.481   5.803
  713SOL    HW2 2514   0.692   0.620   5.863
  714SOL     OW 2515   0.397   0.485   5.743
  714SOL    HW1 2516   0.470   0.547   5.770
  714SOL    HW2 2517   0.308   0.529   5.756
  715SOL     OW 2518   1.229   0.828   5.880
  715SOL    HW1 2519   1.160   0.761   5.909
  715SOL    HW2 2520   1.241   0.824   5.781
  716SOL     OW 2521   1.691   0.140   5.954
  716SOL    HW1 2522   1.755   0.170   5.884
  716SOL    HW2 2523   1.712   0.045   5.980
  717SOL     OW 2524   1.345   1.578   6.046
  717SOL    HW1 2525   1.403   1.624   5.979
  717SOL    HW2 2526   1.287   1.645   6.092
  718SOL     OW 2527   1.143   0.941   6.267
  718SOL    HW1 2528   1.227   0.952   6.321
  718SOL    HW2 2529   1.158   0.976   6.174
  719SOL     OW 2530   0.688   1.660   5.765
  719SOL    HW1 2531   0.705   1.672   5.667
  719SOL    HW2 2532   0.622   1.585   5.778
  720SOL     OW 2533   1.836   0.038   0.110
  720SOL    HW1 2534   1.891   0.065   0.189
  720SOL    HW2 2535   1.745   0.078   0.116
  721SOL     OW 2536   0.167   0.296   6.275
  721SOL    HW1 2537   0.107   0.372   6.252
  721SOL    HW2 2538   0.134   0.252   6.359
  722SOL     OW 2539   1.171   1.553   5.603
  722SOL    HW1 2540   1.176   1.461   5.641
  722SOL    HW2 2541   1.106   1.555   5.527
  723SOL     OW 2542   0.903   0.883   5.807
  723SOL    HW1 2543   0.972   0.950   5.780
  723SOL    HW2 2544   0.946   0.809   5.858
  724SOL     OW 2545   1.432   1.647   5.610
  724SOL    HW1 2546   1.336   1.620   5.600
  724SOL    HW2 2547   1.473   1.658   5.520
  725SOL     OW 2548   1.005   1.169   6.333
  725SOL    HW1 2549   0.914   1.140   6.361
  725SOL    HW2 2550   1.055   1.090   6.295
  726SOL     OW 2551   0.603   1.472   6.093
  726SOL    HW1 2552   0.654   1.410   6.033
  726SOL    HW2 2553   0.516   1.497   6.049
  727SOL     OW 2554   0.233   1.328   5.825
  727SOL    HW1 2555   0.137   1.306   5.809
  727SOL    HW2 2556   0.240   1.392   5.901
  728SOL     OW 2557   0.053   0.391   5.648
  728SOL    HW1 2558   0.002   0.450   5.710
  728SOL    HW2 2559   0.108   0.447   5.586
  729SOL     OW 2560   0.070   0.172   5.815
  729SOL    HW1 2561   0.075   0.247   5.749
  729SOL    HW2 2562   0.152   0.114   5.805
  730SOL     OW 2563   1.191   1.306   5.721
  730SOL    HW1 2564   1.150   1.216   5.709
  730SOL    HW2 2565   1.199   1.326   5.818
  731SOL     OW 2566   1.206   0.247   6.015
  731SOL    HW1 2567   1.280   0.185   5.989
  731SOL    HW2 2568   1.223   0.283   6.106
  732SOL     OW 2569   0.573   0.680   6.233
  732SOL    HW1 2570   0.614   0.771   6.232
  732SOL    HW2 2571   0.495   0.677   6.171
  733SOL     OW 2572   0.734   1.333   5.695
  733SOL    HW1 2573   0.751   1.319   5.793
  733SOL    HW2 2574   0.816   1.370   5.652
  734SOL     OW 2575   0.622   1.873   0.024
  734SOL    HW1 2576   0.573   1.960   0.019
  734SOL    HW2 2577   0.720   1.889   0.017
  735SOL     OW 2578   0.795   1.025   6.445
  735SOL    HW1 2579   0.866   0.986   0.003
  735SOL    HW2 2580   0.734   1.082   0.001
  736SOL     OW 2581   1.099   1.052   5.689
  736SOL    HW1 2582   1.024   1.064   5.625
  736SOL    HW2 2583   1.163   0.984   5.653
  737SOL     OW 2584   1.581   1.697   6.337
  737SOL    HW1 2585   1.527   1.615   6.319
  737SOL    HW2 2586   1.675   1.671   6.361
  738SOL     OW 2587   0.190   1.291   6.250
  738SOL    HW1 2588   0.179   1.232   6.330
  738SOL    HW2 2589   0.209   1.234   6.169
  739SOL     OW 2590   0.335   0.410   6.088
  739SOL    HW1 2591   0.366   0.342   6.021
  739SOL    HW2 2592   0.282   0.364   6.159
  740SOL     OW 2593   0.799   1.523   6.293
  740SOL    HW1 2594   0.739   1.547   6.217
  740SOL    HW2 2595   0.764   1.442   6.339
  741SOL     OW 2596   0.764   1.290   5.958
  741SOL    HW1 2597   0.752   1.191   5.970
  741SOL    HW2 2598   0.848   1.318   6.005
  742SOL     OW 2599   1.357   6.439   5.719
  742SOL    HW1 2600   1.397   6.348   5.710
  742SOL    HW2 2601   1.261   6.436   5.691
  743SOL     OW 2602   1.253   0.341   6.264
  743SOL    HW1 2603   1.309   0.423   6.277
  743SOL    HW2 2604   1.226   0.304   6.353
  744SOL     OW 2605   0.012   1.011   5.897
  744SOL    HW1 2606   0.104   0.981   5.871
  744SOL    HW2 2607   6.482   0.963   5.979
  745SOL     OW 2608   0.900   1.692   5.941
  745SOL    HW1 2609   0.824   1.675   5.879
  745SOL    HW2 2610   0.884   1.777   5.991
  746SOL     OW 2611   0.208   2.517   0.202
  746SOL    HW1 2612   0.180   2.543   0.294
  746SOL    HW2 2613   0.141   2.453   0.163
  747SOL     OW 2614   0.213   2.135   0.966
  747SOL    HW1 2615   0.258   2.071   1.028
  747SOL    HW2 2616   0.135   2.177   1.012
  748SOL     OW 2617   6.465   2.242   0.633
  748SOL    HW1 2618   6.429   2.299   0.559
  748SOL    HW2 2619   6.430   2.149   0.623
  749SOL     OW 2620   0.583   3.198   1.247
  749SOL    HW1 2621   0.503   3.196   1.187
  749SOL    HW2 2622   0.608   3.293   1.267
  750SOL     OW 2623   1.590   3.382   0.723
  750SOL    HW1 2624   1.546   3.341   0.803
  750SOL    HW2 2625   1.522   3.398   0.652
  751SOL     OW 2626   1.094   2.585   0.671
  751SOL    HW1 2627   1.135   2.676   0.671
  751SOL    HW2 2628   1.022   2.580   0.740
  752SOL     OW 2629   1.738   2.486   0.188
  752SOL    HW1 2630   1.678   2.526   0.119
  752SOL    HW2 2631   1.693   2.406   0.229
  753SOL     OW 2632   0.701   2.991   1.082
  753SOL    HW1 2633   0.650   3.027   1.160
  753SOL    HW2 2634   0.742   3.067   1.032
  754SOL     OW 2635   0.883   2.589   1.847
  754SOL    HW1 2636   0.863   2.645   1.927
  754SOL    HW2 2637   0.896   2.647   1.767
  755SOL     OW 2638   0.668   2.813   0.708
  755SOL    HW1 2639   0.744   2.828   0.772
  755SOL    HW2 2640   0.595   2.879   0.726
  756SOL     OW 2641   0.707   3.039   1.825
  756SOL    HW1 2642   0.758   3.113   1.868
  756SOL    HW2 2643   0.634   3.077   1.768
  757SOL     OW 2644   0.368   3.260   1.084
  757SOL    HW1 2645   0.283   3.217   1.054
  757SOL    HW2 2646   0.402   3.319   1.011
  758SOL     OW 2647   1.438   3.371   1.384
  758SOL    HW1 2648   1.491   3.455   1.398
  758SOL    HW2 2649   1.356   3.374   1.441
  759SOL     OW 2650   0.463   2.226   1.405
  759SOL    HW1 2651   0.552   2.184   1.424
  759SOL    HW2 2652   0.390   2.166   1.438
  760SOL     OW 2653   1.517   2.327   0.756
  760SOL    HW1 2654   1.439   2.331   0.693
  760SOL    HW2 2655   1.501   2.390   0.832
  761SOL     OW 2656   0.186   3.545   0.442
  761SOL    HW1 2657   0.172   3.623   0.502
  761SOL    HW2 2658   0.277   3.551   0.400
  762SOL     OW 2659   1.118   3.203   1.718
  762SOL    HW1 2660   1.163   3.192   1.806
  762SOL    HW2 2661   1.061   3.123   1.699
  763SOL     OW 2662   0.303   3.304   0.517
  763SOL    HW1 2663   0.248   3.387   0.508
  763SOL    HW2 2664   0.252   3.236   0.570
  764SOL     OW 2665   0.234   2.963   0.876
  764SOL    HW1 2666   0.226   2.870   0.912
  764SOL    HW2 2667   0.191   3.027   0.940
  765SOL     OW 2668   0.576   3.712   1.401
  765SOL    HW1 2669   0.502   3.681   1.461
  765SOL    HW2 2670   0.621   3.792   1.441
  766SOL     OW 2671   0.548   2.867   0.225
  766SOL    HW1 2672   0.579   2.934   0.157
  766SOL    HW2 2673   0.599   2.879   0.310
  767SOL     OW 2674   1.510   2.019   1.435
  767SOL    HW1 2675   1.537   2.109   1.401
  767SOL    HW2 2676   1.478   2.029   1.530
  768SOL     OW 2677   0.121   2.586   0.452
  768SOL    HW1 2678   0.039   2.532   0.432
  768SOL    HW2 2679   0.127   2.602   0.551
  769SOL     OW 2680   1.868   3.569   0.302
  769SOL    HW1 2681   1.940   3.556   0.370
  769SOL    HW2 2682   1.859   3.667   0.281
  770SOL     OW 2683   0.113   3.460   0.179
  770SOL    HW1 2684   0.088   3.363   0.180
  770SOL    HW2 2685   0.128   3.492   0.272
  771SOL     OW 2686   1.623   2.781   0.650
  771SOL    HW1 2687   1.708   2.780   0.704
  771SOL    HW2 2688   1.634   2.841   0.571
  772SOL     OW 2689   1.652   2.982   0.456
  772SOL    HW1 2690   1.734   2.969   0.401
  772SOL    HW2 2691   1.672   3.045   0.531
  773SOL     OW 2692   0.095   2.717   1.655
  773SOL    HW1 2693   0.192   2.710   1.634
  773SOL    HW2 2694   0.047   2.759   1.579
  774SOL     OW 2695   0.602   3.232   0.774
  774SOL    HW1 2696   0.556   3.143   0.769
  774SOL    HW2 2697   0.601   3.275   0.684
  775SOL     OW 2698   1.233   3.062   1.432
  775SOL    HW1 2699   1.258   2.997   1.360
  775SOL    HW2 2700   1.304   3.063   1.502
  776SOL     OW 2701   0.810   1.913   0.514
  776SOL    HW1 2702   0.858   1.995   0.484
  776SOL    HW2 2703   0.711   1.929   0.509
  777SOL     OW 2704   0.118   2.755   1.269
  777SOL    HW1 2705   0.217   2.744   1.272
  777SOL    HW2 2706   0.081   2.705   1.191
  778SOL     OW 2707   1.516   2.881   0.237
  778SOL    HW1 2708   1.441   2.821   0.265
  778SOL    HW2 2709   1.563   2.916   0.318
  779SOL     OW 2710   1.229   3.794   1.678
  779SOL    HW1 2711   1.191   3.843   1.600
  779SOL    HW2 2712   1.220   3.696   1.664
  780SOL     OW 2713   0.353   2.119   1.905
  780SOL    HW1 2714   0.391   2.201   1.946
  780SOL    HW2 2715   0.265   2.139   1.864
  781SOL     OW 2716   1.474   3.252   0.932
  781SOL    HW1 2717   1.412   3.294   0.999
  781SOL    HW2 2718   1.440   3.161   0.908
  782SOL     OW 2719   1.665   3.625   0.578
  782SOL    HW1 2720   1.641   3.581   0.492
  782SOL    HW2 2721   1.661   3.558   0.652
  783SOL     OW 2722   0.606   2.596   0.291
  783SOL    HW1 2723   0.603   2.689   0.253
  783SOL    HW2 2724   0.541   2.590   0.367
  784SOL     OW 2725   1.238   2.266   0.938
  784SOL    HW1 2726   1.151   2.217   0.938
  784SOL    HW2 2727   1.303   2.220   0.998
  785SOL     OW 2728   1.602   3.503   0.335
  785SOL    HW1 2729   1.700   3.516   0.324
  785SOL    HW2 2730   1.558   3.496   0.245
  786SOL     OW 2731   0.737   2.464   1.401
  786SOL    HW1 2732   0.758   2.434   1.494
  786SOL    HW2 2733   0.724   2.385   1.342
  787SOL     OW 2734   1.381   2.328   1.660
  787SOL    HW1 2735   1.386   2.377   1.747
  787SOL    HW2 2736   1.411   2.234   1.672
  788SOL     OW 2737   0.918   2.732   1.609
  788SOL    HW1 2738   0.976   2.667   1.560
  788SOL    HW2 2739   0.855   2.776   1.546
  789SOL     OW 2740   0.989   2.258   1.189
  789SOL    HW1 2741   0.892   2.266   1.213
  789SOL    HW2 2742   0.998   2.210   1.102
  790SOL     OW 2743   1.086   2.576   0.398
  790SOL    HW1 2744   1.095   2.571   0.498
  790SOL    HW2 2745   1.000   2.532   0.370
  791SOL     OW 2746   0.142   2.600   0.720
  791SOL    HW1 2747   0.214   2.630   0.782
  791SOL    HW2 2748   0.088   2.528   0.763
  792SOL     OW 2749   0.143   3.743   1.659
  792SOL    HW1 2750   0.153   3.720   1.756
  792SOL    HW2 2751   0.071   3.687   1.619
  793SOL     OW 2752   0.820   2.138   0.188
  793SOL    HW1 2753   0.862   2.218   0.146
  793SOL    HW2 2754   0.835   2.058   0.130
  794SOL     OW 2755   1.663   2.420   1.827
  794SOL    HW1 2756   1.639   2.505   1.779
  794SOL    HW2 2757   1.677   2.347   1.760
  795SOL     OW 2758   1.384   3.034   0.576
  795SOL    HW1 2759   1.469   3.020   0.526
  795SOL    HW2 2760   1.327   3.100   0.528
  796SOL     OW 2761   0.539   2.022   0.905
  796SOL    HW1 2762   0.552   2.032   1.004
  796SOL    HW2 2763   0.548   2.111   0.861
  797SOL     OW 2764   0.966   3.315   0.480
  797SOL    HW1 2765   0.958   3.384   0.408
  797SOL    HW2 2766   0.924   3.349   0.563
  798SOL     OW 2767   0.352   3.677   0.857
  798SOL    HW1 2768   0.395   3.589   0.875
  798SOL    HW2 2769   0.418   3.751   0.877
  799SOL     OW 2770   1.758   3.004   0.899
  799SOL    HW1 2771   1.719   3.048   0.818
  799SOL    HW2 2772   1.687   2.990   0.968
  800SOL     OW 2773   1.198   3.371   1.512
  800SOL    HW1 2774   1.186   3.310   1.591
  800SOL    HW2 2775   1.131   3.348   1.442
  801SOL     OW 2776   0.285   2.782   0.140
  801SOL    HW1 2777   0.379   2.804   0.166
  801SOL    HW2 2778   0.267   2.685   0.158
  802SOL     OW 2779   1.415   2.626   0.709
  802SOL    HW1 2780   1.416   2.587   0.801
  802SOL    HW2 2781   1.496   2.684   0.697
  803SOL     OW 2782   0.484   3.151   1.668
  803SOL    HW1 2783   0.441   3.157   1.578
  803SOL    HW2 2784   0.413   3.153   1.739
  804SOL     OW 2785   1.133   3.610   0.172
  804SOL    HW1 2786   1.060   3.580   0.234
  804SOL    HW2 2787   1.171   3.531   0.125
  805SOL     OW 2788   0.218   2.095   1.455
  805SOL    HW1 2789   0.187   2.188   1.473
  805SOL    HW2 2790   0.195   2.037   1.533
  806SOL     OW 2791   1.641   3.232   0.086
  806SOL    HW1 2792   1.611   3.327   0.094
  806SOL    HW2 2793   1.561   3.172   0.085
  807SOL     OW 2794   0.426   3.565   0.323
  807SOL    HW1 2795   0.499   3.622   0.359
  807SOL    HW2 2796   0.465   3.491   0.268
  808SOL     OW 2797   1.348   1.984   0.474
  808SOL    HW1 2798   1.343   1.967   0.375
  808SOL    HW2 2799   1.436   1.953   0.508
  809SOL     OW 2800   0.159   3.659   1.178
  809SOL    HW1 2801   0.232   3.592   1.196
  809SOL    HW2 2802   0.126   3.648   1.084
  810SOL     OW 2803   0.920   3.594   0.841
  810SOL    HW1 2804   1.010   3.551   0.849
  810SOL    HW2 2805   0.867   3.547   0.771
  811SOL     OW 2806   0.400   2.562   0.471
  811SOL    HW1 2807   0.404   2.464   0.488
  811SOL    HW2 2808   0.305   2.592   0.467
  812SOL     OW 2809   1.456   2.064   1.711
  812SOL    HW1 2810   1.476   2.081   1.808
  812SOL    HW2 2811   1.390   1.990   1.703
  813SOL     OW 2812   0.779   2.126   1.740
  813SOL    HW1 2813   0.865   2.076   1.749
  813SOL    HW2 2814   0.718   2.101   1.815
  814SOL     OW 2815   0.863   3.381   1.185
  814SOL    HW1 2816   0.837   3.328   1.104
  814SOL    HW2 2817   0.927   3.329   1.241
  815SOL     OW 2818   1.304   2.466   1.433
  815SOL    HW1 2819   1.347   2.429   1.516
  815SOL    HW2 2820   1.348   2.552   1.408
  816SOL     OW 2821   0.803   3.219   0.964
  816SOL    HW1 2822   0.894   3.230   0.924
  816SOL    HW2 2823   0.734   3.231   0.892
  817SOL     OW 2824   0.910   2.397   0.860
  817SOL    HW1 2825   0.889   2.388   0.762
  817SOL    HW2 2826   0.933   2.307   0.897
  818SOL     OW 2827   0.544   1.956   0.474
  818SOL    HW1 2828   0.458   1.949   0.525
  818SOL    HW2 2829   0.543   2.038   0.417
  819SOL     OW 2830   1.413   3.087   0.090
  819SOL    HW1 2831   1.447   3.006   0.137
  819SOL    HW2 2832   1.316   3.099   0.112
  820SOL     OW 2833   0.297   1.937   0.216
  820SOL    HW1 2834   0.298   1.919   0.118
  820SOL    HW2 2835   0.354   1.870   0.264
  821SOL     OW 2836   0.943   2.134   0.434
  821SOL    HW1 2837   0.902   2.143   0.344
  821SOL    HW2 2838   1.039   2.163   0.430
  822SOL     OW 2839   1.045   2.550   1.450
  822SOL    HW1 2840   0.986   2.470   1.462
  822SOL    HW2 2841   1.140   2.520   1.444
  823SOL     OW 2842   1.179   3.495   0.824
  823SOL    HW1 2843   1.219   3.542   0.746
  823SOL    HW2 2844   1.216   3.533   0.909
  824SOL     OW 2845   0.466   2.996   0.729
  824SOL    HW1 2846   0.387   2.986   0.790
  824SOL    HW2 2847   0.435   2.988   0.634
  825SOL     OW 2848   1.268   3.669   0.622
  825SOL    HW1 2849   1.327   3.727   0.566
  825SOL    HW2 2850   1.191   3.723   0.656
  826SOL     OW 2851   0.960   2.349   0.082
  826SOL    HW1 2852   0.950   2.356   6.483
  826SOL    HW2 2853   1.055   2.362   0.107
  827SOL     OW 2854   0.144   2.358   1.472
  827SOL    HW1 2855   0.197   2.390   1.393
  827SOL    HW2 2856   0.050   2.389   1.464
  828SOL     OW 2857   0.564   2.031   1.177
  828SOL    HW1 2858   0.603   1.959   1.235
  828SOL    HW2 2859   0.464   2.032   1.188
  829SOL     OW 2860   0.870   2.354   0.591
  829SOL    HW1 2861   0.844   2.416   0.516
  829SOL    HW2 2862   0.893   2.265   0.554
  830SOL     OW 2863   0.963   1.937   0.742
  830SOL    HW1 2864   0.905   1.935   0.661
  830SOL    HW2 2865   0.939   1.860   0.802
  831SOL     OW 2866   1.389   2.992   0.872
  831SOL    HW1 2867   1.330   2.915   0.896
  831SOL    HW2 2868   1.391   3.004   0.773
  832SOL     OW 2869   1.399   2.498   0.955
  832SOL    HW1 2870   1.329   2.427   0.957
  832SOL    HW2 2871   1.464   2.482   1.030
  833SOL     OW 2872   1.757   2.672   0.385
  833SOL    HW1 2873   1.794   2.627   0.466
  833SOL    HW2 2874   1.751   2.607   0.309
  834SOL     OW 2875   0.490   3.352   0.155
  834SOL    HW1 2876   0.457   3.268   0.198
  834SOL    HW2 2877   0.435   3.372   0.074
  835SOL     OW 2878   1.715   3.142   0.663
  835SOL    HW1 2879   1.813   3.144   0.648
  835SOL    HW2 2880   1.680   3.235   0.672
  836SOL     OW 2881   1.409   2.476   0.024
  836SOL    HW1 2882   1.346   2.441   0.094
  836SOL    HW2 2883   1.461   2.401   6.485
  837SOL     OW 2884   0.567   2.180   0.315
  837SOL    HW1 2885   0.657   2.162   0.274
  837SOL    HW2 2886   0.525   2.258   0.269
  838SOL     OW 2887   1.721   3.101   1.535
  838SOL    HW1 2888   1.809   3.062   1.509
  838SOL    HW2 2889   1.734   3.193   1.571
  839SOL     OW 2890   1.018   3.210   1.351
  839SOL    HW1 2891   0.931   3.180   1.389
  839SOL    HW2 2892   1.093   3.156   1.390
  840SOL     OW 2893   1.613   3.518   1.675
  840SOL    HW1 2894   1.589   3.558   1.587
  840SOL    HW2 2895   1.686   3.452   1.663
  841SOL     OW 2896   1.150   3.143   1.118
  841SOL    HW1 2897   1.087   3.165   1.193
  841SOL    HW2 2898   1.110   3.172   1.031
  842SOL     OW 2899   1.570   2.971   1.092
  842SOL    HW1 2900   1.561   3.036   1.167
  842SOL    HW2 2901   1.490   2.977   1.032
  843SOL     OW 2902   0.927   1.933   1.384
  843SOL    HW1 2903   0.943   1.914   1.288
  843SOL    HW2 2904   1.007   1.979   1.423
  844SOL     OW 2905   0.958   2.978   1.721
  844SOL    HW1 2906   0.866   3.000   1.752
  844SOL    HW2 2907   0.956   2.890   1.673
  845SOL     OW 2908   0.706   2.890   0.447
  845SOL    HW1 2909   0.694   2.857   0.540
  845SOL    HW2 2910   0.793   2.858   0.411
  846SOL     OW 2911   0.386   2.668   1.263
  846SOL    HW1 2912   0.451   2.679   1.338
  846SOL    HW2 2913   0.356   2.572   1.259
  847SOL     OW 2914   1.235   2.241   1.298
  847SOL    HW1 2915   1.265   2.326   1.343
  847SOL    HW2 2916   1.144   2.254   1.259
  848SOL     OW 2917   0.092   3.462   1.373
  848SOL    HW1 2918   0.056   3.533   1.313
  848SOL    HW2 2919   0.191   3.456   1.361
  849SOL     OW 2920   0.369   2.954   0.470
  849SOL    HW1 2921   0.364   3.019   0.394
  849SOL    HW2 2922   0.404   2.866   0.435
  850SOL     OW 2923   0.569   2.302   0.833
  850SOL    HW1 2924   0.563   2.363   0.753
  850SOL    HW2 2925   0.622   2.347   0.905
  851SOL     OW 2926   1.228   3.229   0.444
  851SOL    HW1 2927   1.290   3.303   0.471
  851SOL    HW2 2928   1.135   3.252   0.470
  852SOL     OW 2929   1.324   3.352   1.138
  852SOL    HW1 2930   1.368   3.359   1.228
  852SOL    HW2 2931   1.261   3.274   1.138
  853SOL     OW 2932   1.527   2.510   0.481
  853SOL    HW1 2933   1.469   2.537   0.557
  853SOL    HW2 2934   1.570   2.591   0.440
  854SOL     OW 2935   0.349   3.453   1.271
  854SOL    HW1 2936   0.348   3.383   1.199
  854SOL    HW2 2937   0.444   3.478   1.291
  855SOL     OW 2938   0.372   2.657   1.645
  855SOL    HW1 2939   0.446   2.675   1.580
  855SOL    HW2 2940   0.372   2.560   1.669
  856SOL     OW 2941   1.588   2.648   1.697
  856SOL    HW1 2942   1.494   2.680   1.689
  856SOL    HW2 2943   1.644   2.692   1.627
  857SOL     OW 2944   1.012   1.992   1.778
  857SOL    HW1 2945   1.065   2.074   1.757
  857SOL    HW2 2946   1.072   1.912   1.779
  858SOL     OW 2947   0.507   1.921   1.795
  858SOL    HW1 2948   0.459   1.868   1.725
  858SOL    HW2 2949   0.448   1.996   1.825
  859SOL     OW 2950   0.563   2.726   1.052
  859SOL    HW1 2951   0.608   2.816   1.058
  859SOL    HW2 2952   0.502   2.715   1.131
  860SOL     OW 2953   1.257   2.742   0.982
  860SOL    HW1 2954   1.162   2.711   0.975
  860SOL    HW2 2955   1.318   2.663   0.976
  861SOL     OW 2956   1.211   2.397   0.219
  861SOL    HW1 2957   1.223   2.319   0.280
  861SOL    HW2 2958   1.179   2.476   0.271
  862SOL     OW 2959   0.293   2.004   1.204
  862SOL    HW1 2960   0.271   2.044   1.293
  862SOL    HW2 2961   0.250   1.915   1.196
  863SOL     OW 2962   0.067   3.196   1.311
  863SOL    HW1 2963   6.488   3.153   1.356
  863SOL    HW2 2964   0.068   3.294   1.332
  864SOL     OW 2965   0.686   2.467   1.019
  864SOL    HW1 2966   0.767   2.468   0.962
  864SOL    HW2 2967   0.647   2.559   1.024
  865SOL     OW 2968   1.714   2.839   1.859
  865SOL    HW1 2969   1.671   2.761   1.813
  865SOL    HW2 2970   1.658   2.865   1.938
  866SOL     OW 2971   0.305   1.913   0.607
  866SOL    HW1 2972   0.267   2.003   0.629
  866SOL    HW2 2973   0.318   1.861   0.692
  867SOL     OW 2974   1.603   2.293   0.338
  867SOL    HW1 2975   1.645   2.223   0.395
  867SOL    HW2 2976   1.567   2.366   0.395
  868SOL     OW 2977   0.998   2.630   0.983
  868SOL    HW1 2978   0.966   2.636   1.078
  868SOL    HW2 2979   0.978   2.540   0.946
  869SOL     OW 2980   1.006   3.452   1.764
  869SOL    HW1 2981   0.960   3.500   1.689
  869SOL    HW2 2982   1.030   3.360   1.734
  870SOL     OW 2983   1.823   3.353   1.598
  870SOL    HW1 2984   1.858   3.390   1.512
  870SOL    HW2 2985   1.896   3.354   1.667
  871SOL     OW 2986   0.366   2.782   1.897
  871SOL    HW1 2987   0.456   2.806   1.933
  871SOL    HW2 2988   0.377   2.740   1.807
  872SOL     OW 2989   1.485   2.165   0.129
  872SOL    HW1 2990   1.431   2.089   0.166
  872SOL    HW2 2991   1.525   2.217   0.205
  873SOL     OW 2992   1.258   2.713   0.025
  873SOL    HW1 2993   1.312   2.629   0.021
  873SOL    HW2 2994   1.264   2.761   6.438
  874SOL     OW 2995   1.060   3.245   0.879
  874SOL    HW1 2996   1.071   3.166   0.819
  874SOL    HW2 2997   1.111   3.323   0.843
  875SOL     OW 2998   0.315   2.647   0.936
  875SOL    HW1 2999   0.403   2.691   0.952
  875SOL    HW2 3000   0.325   2.548   0.946
  876SOL     OW 3001   0.348   2.374   0.978
  876SOL    HW1 3002   0.289   2.295   0.968
  876SOL    HW2 3003   0.431   2.361   0.924
  877SOL     OW 3004   1.127   2.228   1.699
  877SOL    HW1 3005   1.079   2.277   1.771
  877SOL    HW2 3006   1.213   2.274   1.678
  878SOL     OW 3007   1.147   2.060   1.484
  878SOL    HW1 3008   1.128   2.120   1.561
  878SOL    HW2 3009   1.188   2.113   1.410
  879SOL     OW 3010   0.076   3.186   0.138
  879SOL    HW1 3011   0.006   3.205   0.069
  879SOL    HW2 3012   0.056   3.100   0.184
  880SOL     OW 3013   0.083   3.625   0.917
  880SOL    HW1 3014   0.030   3.606   0.835
  880SOL    HW2 3015   0.176   3.650   0.892
  881SOL     OW 3016   0.489   3.440   0.914
  881SOL    HW1 3017   0.560   3.505   0.941
  881SOL    HW2 3018   0.530   3.367   0.860
  882SOL     OW 3019   0.896   2.645   1.237
  882SOL    HW1 3020   0.969   2.631   1.304
  882SOL    HW2 3021   0.815   2.592   1.263
  883SOL     OW 3022   0.045   2.287   1.115
  883SOL    HW1 3023   0.112   2.338   1.169
  883SOL    HW2 3024   6.460   2.278   1.167
  884SOL     OW 3025   0.161   2.446   1.728
  884SOL    HW1 3026   0.166   2.407   1.636
  884SOL    HW2 3027   0.125   2.539   1.723
  885SOL     OW 3028   1.358   2.779   1.626
  885SOL    HW1 3029   1.381   2.877   1.631
  885SOL    HW2 3030   1.357   2.751   1.530
  886SOL     OW 3031   0.850   2.468   0.318
  886SOL    HW1 3032   0.876   2.427   0.231
  886SOL    HW2 3033   0.764   2.517   0.308
  887SOL     OW 3034   1.584   2.436   1.144
  887SOL    HW1 3035   1.582   2.371   1.219
  887SOL    HW2 3036   1.670   2.487   1.145
  888SOL     OW 3037   0.323   3.436   1.770
  888SOL    HW1 3038   0.258   3.493   1.818
  888SOL    HW2 3039   0.292   3.340   1.771
  889SOL     OW 3040   0.715   2.268   1.209
  889SOL    HW1 3041   0.657   2.188   1.199
  889SOL    HW2 3042   0.691   2.335   1.139
  890SOL     OW 3043   0.867   3.579   1.548
  890SOL    HW1 3044   0.824   3.505   1.495
  890SOL    HW2 3045   0.891   3.654   1.486
  891SOL     OW 3046   0.457   2.397   0.179
  891SOL    HW1 3047   0.522   2.466   0.211
  891SOL    HW2 3048   0.364   2.432   0.190
  892SOL     OW 3049   1.265   2.907   1.199
  892SOL    HW1 3050   1.264   2.842   1.122
  892SOL    HW2 3051   1.226   2.994   1.169
  893SOL     OW 3052   1.302   2.727   0.297
  893SOL    HW1 3053   1.232   2.679   0.350
  893SOL    HW2 3054   1.282   2.719   0.200
  894SOL     OW 3055   1.736   3.592   1.139
  894SOL    HW1 3056   1.809   3.611   1.073
  894SOL    HW2 3057   1.712   3.495   1.135
  895SOL     OW 3058   1.267   3.608   1.061
  895SOL    HW1 3059   1.353   3.659   1.057
  895SOL    HW2 3060   1.285   3.517   1.098
  896SOL     OW 3061   0.119   3.154   1.037
  896SOL    HW1 3062   0.093   3.160   1.134
  896SOL    HW2 3063   0.056   3.208   0.982
  897SOL     OW 3064   0.699   3.586   1.765
  897SOL    HW1 3065   0.630   3.658   1.762
  897SOL    HW2 3066   0.763   3.597   1.689
  898SOL     OW 3067   0.894   1.915   0.028
  898SOL    HW1 3068   0.914   1.875   6.438
  898SOL    HW2 3069   0.963   1.886   0.094
  899SOL     OW 3070   1.726   2.091   0.485
  899SOL    HW1 3071   1.793   2.058   0.419
  899SOL    HW2 3072   1.669   2.014   0.516
  900SOL     OW 3073   1.401   3.438   0.522
  900SOL    HW1 3074   1.464   3.462   0.449
  900SOL    HW2 3075   1.352   3.519   0.552
  901SOL     OW 3076   0.148   3.600   1.910
  901SOL    HW1 3077   0.094   3.529   1.956
  901SOL    HW2 3078   0.201   3.651   1.978
  902SOL     OW 3079   1.235   2.818   0.651
  902SOL    HW1 3080   1.301   2.746   0.670
  902SOL    HW2 3081   1.281   2.896   0.608
  903SOL     OW 3082   0.769   3.141   1.441
  903SOL    HW1 3083   0.752   3.200   1.519
  903SOL    HW2 3084   0.698   3.155   1.372
  904SOL     OW 3085   0.738   3.462   0.111
  904SOL    HW1 3086   0.713   3.551   0.071
  904SOL    HW2 3087   0.655   3.408   0.126
  905SOL     OW 3088   1.592   3.600   1.401
  905SOL    HW1 3089   1.644   3.592   1.316
  905SOL    HW2 3090   1.578   3.697   1.422
  906SOL     OW 3091   1.804   2.014   0.953
  906SOL    HW1 3092   1.831   1.925   0.915
  906SOL    HW2 3093   1.716   2.042   0.914
  907SOL     OW 3094   0.223   2.160   0.689
  907SOL    HW1 3095   0.134   2.201   0.668
  907SOL    HW2 3096   0.231   2.147   0.787
  908SOL     OW 3097   1.244   3.383   0.062
  908SOL    HW1 3098   1.233   3.302   0.119
  908SOL    HW2 3099   1.208   3.365   6.471
  909SOL     OW 3100   0.774   2.863   1.416
  909SOL    HW1 3101   0.818   2.840   1.329
  909SOL    HW2 3102   0.775   2.963   1.429
  910SOL     OW 3103   0.939   2.809   0.344
  910SOL    HW1 3104   0.975   2.843   0.257
  910SOL    HW2 3105   0.995   2.731   0.375
  911SOL     OW 3106   1.496   3.483   0.073
  911SOL    HW1 3107   1.403   3.448   0.077
  911SOL    HW2 3108   1.532   3.475   6.480
  912SOL     OW 3109   0.326   3.206   1.445
  912SOL    HW1 3110   0.362   3.283   1.393
  912SOL    HW2 3111   0.242   3.173   1.402
  913SOL     OW 3112   1.574   3.148   1.304
  913SOL    HW1 3113   1.632   3.120   1.380
  913SOL    HW2 3114   1.515   3.224   1.332
  914SOL     OW 3115   1.055   3.003   0.756
  914SOL    HW1 3116   0.981   2.954   0.802
  914SOL    HW2 3117   1.116   2.937   0.713
  915SOL     OW 3118   1.008   2.109   0.955
  915SOL    HW1 3119   0.993   2.070   0.865
  915SOL    HW2 3120   1.006   2.036   1.024
  916SOL     OW 3121   0.582   3.342   0.526
  916SOL    HW1 3122   0.625   3.279   0.461
  916SOL    HW2 3123   0.482   3.337   0.514
  917SOL     OW 3124   1.664   2.251   1.365
  917SOL    HW1 3125   1.736   2.319   1.377
  917SOL    HW2 3126   1.697   2.177   1.306
  918SOL     OW 3127   0.326   3.164   0.286
  918SOL    HW1 3128   0.239   3.168   0.237
  918SOL    HW2 3129   0.320   3.219   0.369
  919SOL     OW 3130   0.139   2.930   1.832
  919SOL    HW1 3131   0.104   2.870   1.760
  919SOL    HW2 3132   0.219   2.888   1.875
  920SOL     OW 3133   0.699   2.066   1.483
  920SOL    HW1 3134   0.782   2.031   1.439
  920SOL    HW2 3135   0.721   2.096   1.575
  921SOL     OW 3136   0.008   2.324   0.132
  921SOL    HW1 3137   6.474   2.234   0.162
  921SOL    HW2 3138   0.003   2.329   0.033
  922SOL     OW 3139   1.393   2.719   1.359
  922SOL    HW1 3140   1.335   2.781   1.307
  922SOL    HW2 3141   1.487   2.723   1.325
  923SOL     OW 3142   0.109   2.043   0.389
  923SOL    HW1 3143   0.155   2.115   0.440
  923SOL    HW2 3144   0.174   2.000   0.326
  924SOL     OW 3145   1.153   3.143   0.183
  924SOL    HW1 3146   1.066   3.183   0.154
  924SOL    HW2 3147   1.168   3.162   0.279
  925SOL     OW 3148   0.576   2.677   1.459
  925SOL    HW1 3149   0.636   2.757   1.453
  925SOL    HW2 3150   0.628   2.594   1.442
  926SOL     OW 3151   1.513   3.732   1.044
  926SOL    HW1 3152   1.541   3.781   0.962
  926SOL    HW2 3153   1.591   3.680   1.080
  927SOL     OW 3154   0.803   2.391   1.653
  927SOL    HW1 3155   0.821   2.455   1.728
  927SOL    HW2 3156   0.796   2.298   1.689
  928SOL     OW 3157   1.446   3.041   1.624
  928SOL    HW1 3158   1.432   3.062   1.720
  928SOL    HW2 3159   1.538   3.071   1.596
  929SOL     OW 3160   0.385   3.634   1.585
  929SOL    HW1 3161   0.296   3.679   1.588
  929SOL    HW2 3162   0.380   3.548   1.634
  930SOL     OW 3163   1.644   2.760   1.253
  930SOL    HW1 3164   1.709   2.697   1.210
  930SOL    HW2 3165   1.622   2.834   1.189
  931SOL     OW 3166   1.208   2.216   0.436
  931SOL    HW1 3167   1.261   2.132   0.448
  931SOL    HW2 3168   1.219   2.274   0.517
  932SOL     OW 3169   0.558   2.556   0.701
  932SOL    HW1 3170   0.606   2.643   0.712
  932SOL    HW2 3171   0.497   2.561   0.622
  933SOL     OW 3172   1.690   2.204   1.643
  933SOL    HW1 3173   1.669   2.235   1.550
  933SOL    HW2 3174   1.615   2.146   1.676
  934SOL     OW 3175   1.715   2.807   1.515
  934SOL    HW1 3176   1.700   2.902   1.540
  934SOL    HW2 3177   1.692   2.794   1.418
  935SOL     OW 3178   0.933   3.271   0.056
  935SOL    HW1 3179   0.870   3.347   0.071
  935SOL    HW2 3180   0.986   3.287   6.472
  936SOL     OW 3181   0.670   3.638   0.953
  936SOL    HW1 3182   0.638   3.729   0.928
  936SOL    HW2 3183   0.764   3.625   0.921
  937SOL     OW 3184   0.864   2.855   0.896
  937SOL    HW1 3185   0.914   2.775   0.930
  937SOL    HW2 3186   0.812   2.896   0.972
  938SOL     OW 3187   1.060   2.884   0.110
  938SOL    HW1 3188   1.100   2.974   0.128
  938SOL    HW2 3189   1.132   2.820   0.082
  939SOL     OW 3190   1.851   3.401   0.854
  939SOL    HW1 3191   1.760   3.390   0.814
  939SOL    HW2 3192   1.874   3.321   0.909
  940SOL     OW 3193   0.265   3.173   1.832
  940SOL    HW1 3194   0.213   3.089   1.813
  940SOL    HW2 3195   0.277   3.182   1.931
  941SOL     OW 3196   0.180   3.084   0.627
  941SOL    HW1 3197   0.181   3.045   0.719
  941SOL    HW2 3198   0.230   3.023   0.565
  942SOL     OW 3199   0.695   3.322   1.639
  942SOL    HW1 3200   0.612   3.268   1.654
  942SOL    HW2 3201   0.691   3.406   1.694
  943SOL     OW 3202   1.740   2.033   1.217
  943SOL    HW1 3203   1.670   1.969   1.247
  943SOL    HW2 3204   1.755   2.024   1.119
  944SOL     OW 3205   0.404   2.300   0.522
  944SOL    HW1 3206   0.469   2.241   0.473
  944SOL    HW2 3207   0.354   2.245   0.589
  945SOL     OW 3208   1.669   3.332   1.111
  945SOL    HW1 3209   1.606   3.304   1.039
  945SOL    HW2 3210   1.666   3.265   1.185
  946SOL     OW 3211   0.312   2.397   1.251
  946SOL    HW1 3212   0.375   2.340   1.302
  946SOL    HW2 3213   0.332   2.391   1.153
  947SOL     OW 3214   0.791   3.489   0.627
  947SOL    HW1 3215   0.798   3.574   0.575
  947SOL    HW2 3216   0.710   3.438   0.598
  948SOL     OW 3217   1.397   2.129   1.114
  948SOL    HW1 3218   1.414   2.032   1.131
  948SOL    HW2 3219   1.345   2.168   1.190
  949SOL     OW 3220   0.999   1.878   1.116
  949SOL    HW1 3221   0.938   1.813   1.070
  949SOL    HW2 3222   1.091   1.838   1.122
  950SOL     OW 3223   0.741   3.159   0.393
  950SOL    HW1 3224   0.732   3.064   0.423
  950SOL    HW2 3225   0.830   3.194   0.422
  951SOL     OW 3226   0.629   3.467   1.295
  951SOL    HW1 3227   0.623   3.561   1.329
  951SOL    HW2 3228   0.716   3.454   1.248
  952SOL     OW 3229   1.319   1.954   0.202
  952SOL    HW1 3230   1.376   1.889   0.152
  952SOL    HW2 3231   1.226   1.919   0.208
  953SOL     OW 3232   1.245   2.351   0.673
  953SOL    HW1 3233   1.196   2.438   0.667
  953SOL    HW2 3234   1.238   2.315   0.766
  954SOL     OW 3235   1.552   2.088   0.892
  954SOL    HW1 3236   1.498   2.111   0.973
  954SOL    HW2 3237   1.543   2.160   0.824
  955SOL     OW 3238   0.073   2.938   0.246
  955SOL    HW1 3239   0.146   2.874   0.220
  955SOL    HW2 3240   0.006   2.890   0.302
  956SOL     OW 3241   0.914   3.524   0.310
  956SOL    HW1 3242   0.848   3.499   0.239
  956SOL    HW2 3243   0.875   3.595   0.369
  957SOL     OW 3244   0.179   2.450   2.011
  957SOL    HW1 3245   0.093   2.471   2.058
  957SOL    HW2 3246   0.165   2.457   1.913
  958SOL     OW 3247   0.217   2.141   2.849
  958SOL    HW1 3248   0.262   2.074   2.908
  958SOL    HW2 3249   0.142   2.185   2.899
  959SOL     OW 3250   6.426   2.217   2.554
  959SOL    HW1 3251   6.345   2.269   2.528
  959SOL    HW2 3252   6.416   2.122   2.526
  960SOL     OW 3253   0.558   3.186   3.076
  960SOL    HW1 3254   0.479   3.191   3.016
  960SOL    HW2 3255   0.581   3.279   3.108
  961SOL     OW 3256   1.568   3.418   2.571
  961SOL    HW1 3257   1.515   3.388   2.651
  961SOL    HW2 3258   1.508   3.424   2.492
  962SOL     OW 3259   1.127   2.580   2.530
  962SOL    HW1 3260   1.179   2.663   2.511
  962SOL    HW2 3261   1.073   2.592   2.614
  963SOL     OW 3262   1.788   2.422   2.068
  963SOL    HW1 3263   1.753   2.432   1.975
  963SOL    HW2 3264   1.730   2.358   2.119
  964SOL     OW 3265   0.712   2.990   2.936
  964SOL    HW1 3266   0.649   3.027   3.005
  964SOL    HW2 3267   0.757   3.065   2.888
  965SOL     OW 3268   0.920   2.593   3.658
  965SOL    HW1 3269   0.945   2.658   3.729
  965SOL    HW2 3270   0.918   2.640   3.569
  966SOL     OW 3271   0.700   2.827   2.523
  966SOL    HW1 3272   0.771   2.841   2.592
  966SOL    HW2 3273   0.623   2.889   2.541
  967SOL     OW 3274   0.707   3.028   3.708
  967SOL    HW1 3275   0.760   3.097   3.758
  967SOL    HW2 3276   0.633   3.073   3.658
  968SOL     OW 3277   0.348   3.269   2.916
  968SOL    HW1 3278   0.265   3.230   2.877
  968SOL    HW2 3279   0.390   3.331   2.849
  969SOL     OW 3280   1.422   3.376   3.263
  969SOL    HW1 3281   1.479   3.458   3.271
  969SOL    HW2 3282   1.343   3.385   3.324
  970SOL     OW 3283   0.472   2.215   3.274
  970SOL    HW1 3284   0.562   2.174   3.291
  970SOL    HW2 3285   0.401   2.158   3.314
  971SOL     OW 3286   1.568   2.310   2.606
  971SOL    HW1 3287   1.502   2.309   2.531
  971SOL    HW2 3288   1.540   2.379   2.673
  972SOL     OW 3289   0.268   3.575   2.353
  972SOL    HW1 3290   0.273   3.657   2.409
  972SOL    HW2 3291   0.331   3.583   2.276
  973SOL     OW 3292   1.081   3.259   3.597
  973SOL    HW1 3293   1.123   3.249   3.688
  973SOL    HW2 3294   1.040   3.172   3.570
  974SOL     OW 3295   0.334   3.313   2.346
  974SOL    HW1 3296   0.302   3.407   2.358
  974SOL    HW2 3297   0.282   3.252   2.405
  975SOL     OW 3298   0.259   2.968   2.713
  975SOL    HW1 3299   0.250   2.876   2.751
  975SOL    HW2 3300   0.205   3.033   2.766
  976SOL     OW 3301   0.562   3.698   3.271
  976SOL    HW1 3302   0.495   3.673   3.340
  976SOL    HW2 3303   0.615   3.777   3.303
  977SOL     OW 3304   0.610   2.847   2.010
  977SOL    HW1 3305   0.649   2.905   1.939
  977SOL    HW2 3306   0.646   2.875   2.099
  978SOL     OW 3307   1.587   1.991   3.342
  978SOL    HW1 3308   1.642   2.069   3.312
  978SOL    HW2 3309   1.535   2.017   3.423
  979SOL     OW 3310   0.135   2.610   2.315
  979SOL    HW1 3311   0.059   2.562   2.272
  979SOL    HW2 3312   0.125   2.607   2.415
  980SOL     OW 3313   1.882   3.607   2.231
  980SOL    HW1 3314   1.953   3.605   2.303
  980SOL    HW2 3315   1.882   3.697   2.188
  981SOL     OW 3316   6.488   3.411   2.019
  981SOL    HW1 3317   0.000   3.313   2.036
  981SOL    HW2 3318   6.391   3.435   2.028
  982SOL     OW 3319   1.700   2.811   2.527
  982SOL    HW1 3320   1.787   2.763   2.513
  982SOL    HW2 3321   1.677   2.863   2.444
  983SOL     OW 3322   1.655   2.982   2.306
  983SOL    HW1 3323   1.740   2.960   2.258
  983SOL    HW2 3324   1.669   3.065   2.360
  984SOL     OW 3325   0.145   2.687   3.444
  984SOL    HW1 3326   0.239   2.659   3.463
  984SOL    HW2 3327   0.133   2.701   3.346
  985SOL     OW 3328   0.621   3.242   2.598
  985SOL    HW1 3329   0.578   3.152   2.599
  985SOL    HW2 3330   0.612   3.282   2.507
  986SOL     OW 3331   1.219   3.058   3.289
  986SOL    HW1 3332   1.244   2.990   3.220
  986SOL    HW2 3333   1.289   3.060   3.361
  987SOL     OW 3334   0.838   1.894   2.364
  987SOL    HW1 3335   0.883   1.979   2.338
  987SOL    HW2 3336   0.740   1.910   2.375
  988SOL     OW 3337   0.159   2.751   3.170
  988SOL    HW1 3338   0.255   2.727   3.155
  988SOL    HW2 3339   0.104   2.714   3.095
  989SOL     OW 3340   1.535   2.900   2.068
  989SOL    HW1 3341   1.464   2.832   2.089
  989SOL    HW2 3342   1.577   2.932   2.153
  990SOL     OW 3343   1.260   3.714   3.499
  990SOL    HW1 3344   1.225   3.772   3.426
  990SOL    HW2 3345   1.255   3.618   3.471
  991SOL     OW 3346   0.361   2.121   3.772
  991SOL    HW1 3347   0.402   2.205   3.807
  991SOL    HW2 3348   0.264   2.138   3.752
  992SOL     OW 3349   1.425   3.325   2.785
  992SOL    HW1 3350   1.379   3.335   2.873
  992SOL    HW2 3351   1.420   3.229   2.756
  993SOL     OW 3352   1.633   3.682   2.426
  993SOL    HW1 3353   1.631   3.626   2.343
  993SOL    HW2 3354   1.630   3.622   2.506
  994SOL     OW 3355   0.582   2.575   2.123
  994SOL    HW1 3356   0.592   2.666   2.083
  994SOL    HW2 3357   0.519   2.579   2.200
  995SOL     OW 3358   1.276   2.258   2.798
  995SOL    HW1 3359   1.187   2.213   2.794
  995SOL    HW2 3360   1.336   2.208   2.859
  996SOL     OW 3361   1.611   3.536   2.193
  996SOL    HW1 3362   1.710   3.543   2.194
  996SOL    HW2 3363   1.580   3.523   2.098
  997SOL     OW 3364   0.801   2.435   3.278
  997SOL    HW1 3365   0.783   2.409   3.373
  997SOL    HW2 3366   0.775   2.361   3.217
  998SOL     OW 3367   1.384   2.334   3.518
  998SOL    HW1 3368   1.387   2.384   3.604
  998SOL    HW2 3369   1.424   2.243   3.530
  999SOL     OW 3370   0.943   2.760   3.431
  999SOL    HW1 3371   1.001   2.696   3.382
  999SOL    HW2 3372   0.877   2.801   3.368
 1000SOL     OW 3373   1.007   2.232   3.039
 1000SOL    HW1 3374   0.910   2.242   3.064
 1000SOL    HW2 3375   1.014   2.181   2.953
 1001SOL     OW 3376   1.047   2.554   2.265
 1001SOL    HW1 3377   1.071   2.558   2.362
 1001SOL    HW2 3378   0.957   2.510   2.255
 1002SOL     OW 3379   0.131   2.595   2.589
 1002SOL    HW1 3380   0.208   2.627   2.645
 1002SOL    HW2 3381   0.080   2.526   2.640
 1003SOL     OW 3382   0.145   3.776   3.522
 1003SOL    HW1 3383   0.138   3.790   3.621
 1003SOL    HW2 3384   0.085   3.700   3.495
 1004SOL     OW 3385   0.850   2.211   2.071
 1004SOL    HW1 3386   0.907   2.254   2.002
 1004SOL    HW2 3387   0.793   2.141   2.030
 1005SOL     OW 3388   1.666   2.443   3.697
 1005SOL    HW1 3389   1.658   2.523   3.637
 1005SOL    HW2 3390   1.682   2.361   3.642
 1006SOL     OW 3391   1.392   3.034   2.407
 1006SOL    HW1 3392   1.479   3.020   2.360
 1006SOL    HW2 3393   1.337   3.100   2.356
 1007SOL     OW 3394   0.565   2.027   2.769
 1007SOL    HW1 3395   0.574   2.038   2.868
 1007SOL    HW2 3396   0.567   2.118   2.725
 1008SOL     OW 3397   0.989   3.326   2.343
 1008SOL    HW1 3398   0.973   3.405   2.283
 1008SOL    HW2 3399   0.955   3.347   2.434
 1009SOL     OW 3400   0.359   3.689   2.747
 1009SOL    HW1 3401   0.399   3.597   2.750
 1009SOL    HW2 3402   0.430   3.757   2.763
 1010SOL     OW 3403   1.787   2.950   2.748
 1010SOL    HW1 3404   1.745   2.909   2.667
 1010SOL    HW2 3405   1.719   2.957   2.821
 1011SOL     OW 3406   1.198   3.443   3.412
 1011SOL    HW1 3407   1.168   3.370   3.474
 1011SOL    HW2 3408   1.122   3.470   3.353
 1012SOL     OW 3409   0.241   2.796   2.144
 1012SOL    HW1 3410   0.284   2.772   2.057
 1012SOL    HW2 3411   0.213   2.712   2.192
 1013SOL     OW 3412   1.486   2.640   2.560
 1013SOL    HW1 3413   1.475   2.592   2.647
 1013SOL    HW2 3414   1.566   2.699   2.564
 1014SOL     OW 3415   0.479   3.182   3.601
 1014SOL    HW1 3416   0.469   3.189   3.502
 1014SOL    HW2 3417   0.389   3.172   3.643
 1015SOL     OW 3418   1.164   3.625   2.110
 1015SOL    HW1 3419   1.073   3.606   2.148
 1015SOL    HW2 3420   1.186   3.557   2.040
 1016SOL     OW 3421   0.222   2.091   3.336
 1016SOL    HW1 3422   0.195   2.185   3.355
 1016SOL    HW2 3423   0.197   2.033   3.413
 1017SOL     OW 3424   1.620   3.250   1.966
 1017SOL    HW1 3425   1.590   3.344   1.952
 1017SOL    HW2 3426   1.548   3.187   1.935
 1018SOL     OW 3427   0.484   3.630   2.178
 1018SOL    HW1 3428   0.525   3.686   2.249
 1018SOL    HW2 3429   0.555   3.579   2.129
 1019SOL     OW 3430   1.399   1.969   2.317
 1019SOL    HW1 3431   1.400   1.943   2.220
 1019SOL    HW2 3432   1.487   1.947   2.358
 1020SOL     OW 3433   0.153   3.646   3.053
 1020SOL    HW1 3434   0.218   3.574   3.079
 1020SOL    HW2 3435   0.124   3.632   2.959
 1021SOL     OW 3436   0.952   3.569   2.741
 1021SOL    HW1 3437   1.044   3.529   2.748
 1021SOL    HW2 3438   0.899   3.517   2.674
 1022SOL     OW 3439   0.403   2.541   2.331
 1022SOL    HW1 3440   0.396   2.442   2.345
 1022SOL    HW2 3441   0.311   2.580   2.327
 1023SOL     OW 3442   1.462   2.070   3.583
 1023SOL    HW1 3443   1.479   2.094   3.678
 1023SOL    HW2 3444   1.391   2.000   3.578
 1024SOL     OW 3445   0.686   2.000   1.986
 1024SOL    HW1 3446   0.752   1.927   2.006
 1024SOL    HW2 3447   0.615   1.965   1.925
 1025SOL     OW 3448   0.783   2.118   3.606
 1025SOL    HW1 3449   0.869   2.067   3.608
 1025SOL    HW2 3450   0.724   2.087   3.680
 1026SOL     OW 3451   0.856   3.371   3.065
 1026SOL    HW1 3452   0.830   3.338   2.975
 1026SOL    HW2 3453   0.907   3.300   3.114
 1027SOL     OW 3454   1.303   2.456   3.285
 1027SOL    HW1 3455   1.340   2.422   3.372
 1027SOL    HW2 3456   1.343   2.546   3.265
 1028SOL     OW 3457   0.803   3.227   2.820
 1028SOL    HW1 3458   0.894   3.230   2.780
 1028SOL    HW2 3459   0.734   3.234   2.747
 1029SOL     OW 3460   0.909   2.368   2.734
 1029SOL    HW1 3461   0.886   2.360   2.637
 1029SOL    HW2 3462   0.943   2.281   2.768
 1030SOL     OW 3463   0.568   1.943   2.368
 1030SOL    HW1 3464   0.491   1.938   2.432
 1030SOL    HW2 3465   0.557   2.021   2.307
 1031SOL     OW 3466   1.413   3.077   1.897
 1031SOL    HW1 3467   1.455   3.006   1.953
 1031SOL    HW2 3468   1.325   3.103   1.937
 1032SOL     OW 3469   0.279   1.911   2.076
 1032SOL    HW1 3470   0.312   1.986   2.019
 1032SOL    HW2 3471   0.357   1.858   2.110
 1033SOL     OW 3472   0.967   2.125   2.302
 1033SOL    HW1 3473   0.928   2.157   2.216
 1033SOL    HW2 3474   1.066   2.142   2.303
 1034SOL     OW 3475   1.048   2.565   3.272
 1034SOL    HW1 3476   0.973   2.500   3.279
 1034SOL    HW2 3477   1.135   2.515   3.276
 1035SOL     OW 3478   1.201   3.454   2.667
 1035SOL    HW1 3479   1.220   3.522   2.596
 1035SOL    HW2 3480   1.287   3.425   2.709
 1036SOL     OW 3481   0.487   3.001   2.555
 1036SOL    HW1 3482   0.412   2.989   2.620
 1036SOL    HW2 3483   0.452   2.994   2.462
 1037SOL     OW 3484   1.243   3.658   2.479
 1037SOL    HW1 3485   1.301   3.721   2.428
 1037SOL    HW2 3486   1.161   3.706   2.511
 1038SOL     OW 3487   1.019   2.358   1.911
 1038SOL    HW1 3488   0.976   2.446   1.890
 1038SOL    HW2 3489   1.090   2.371   1.980
 1039SOL     OW 3490   0.159   2.358   3.359
 1039SOL    HW1 3491   0.213   2.388   3.281
 1039SOL    HW2 3492   0.064   2.389   3.347
 1040SOL     OW 3493   0.572   2.030   3.042
 1040SOL    HW1 3494   0.610   1.955   3.096
 1040SOL    HW2 3495   0.473   2.033   3.055
 1041SOL     OW 3496   0.866   2.323   2.471
 1041SOL    HW1 3497   0.822   2.382   2.403
 1041SOL    HW2 3498   0.904   2.243   2.426
 1042SOL     OW 3499   1.017   1.911   2.581
 1042SOL    HW1 3500   0.956   1.913   2.502
 1042SOL    HW2 3501   0.986   1.839   2.645
 1043SOL     OW 3502   1.399   3.063   2.704
 1043SOL    HW1 3503   1.307   3.026   2.717
 1043SOL    HW2 3504   1.425   3.055   2.608
 1044SOL     OW 3505   1.445   2.489   2.792
 1044SOL    HW1 3506   1.380   2.414   2.807
 1044SOL    HW2 3507   1.510   2.493   2.868
 1045SOL     OW 3508   1.797   2.641   2.232
 1045SOL    HW1 3509   1.854   2.611   2.308
 1045SOL    HW2 3510   1.795   2.570   2.161
 1046SOL     OW 3511   0.494   3.346   1.981
 1046SOL    HW1 3512   0.429   3.288   2.030
 1046SOL    HW2 3513   0.450   3.383   1.899
 1047SOL     OW 3514   1.695   3.190   2.467
 1047SOL    HW1 3515   1.787   3.177   2.503
 1047SOL    HW2 3516   1.657   3.275   2.503
 1048SOL     OW 3517   1.383   2.438   1.908
 1048SOL    HW1 3518   1.331   2.413   1.990
 1048SOL    HW2 3519   1.480   2.425   1.926
 1049SOL     OW 3520   0.529   2.137   2.181
 1049SOL    HW1 3521   0.589   2.091   2.116
 1049SOL    HW2 3522   0.492   2.220   2.139
 1050SOL     OW 3523   1.699   3.075   3.463
 1050SOL    HW1 3524   1.708   3.017   3.545
 1050SOL    HW2 3525   1.737   3.165   3.482
 1051SOL     OW 3526   0.990   3.172   3.195
 1051SOL    HW1 3527   0.905   3.144   3.240
 1051SOL    HW2 3528   1.068   3.136   3.245
 1052SOL     OW 3529   1.581   3.496   3.553
 1052SOL    HW1 3530   1.568   3.542   3.465
 1052SOL    HW2 3531   1.649   3.424   3.543
 1053SOL     OW 3532   1.138   3.122   2.972
 1053SOL    HW1 3533   1.073   3.137   3.046
 1053SOL    HW2 3534   1.099   3.155   2.886
 1054SOL     OW 3535   1.585   2.993   2.933
 1054SOL    HW1 3536   1.585   3.065   3.003
 1054SOL    HW2 3537   1.511   3.008   2.868
 1055SOL     OW 3538   0.939   1.926   3.236
 1055SOL    HW1 3539   0.959   1.903   3.140
 1055SOL    HW2 3540   1.019   1.971   3.276
 1056SOL     OW 3541   0.962   2.991   3.588
 1056SOL    HW1 3542   0.867   3.003   3.619
 1056SOL    HW2 3543   0.967   2.915   3.524
 1057SOL     OW 3544   0.741   2.912   2.253
 1057SOL    HW1 3545   0.724   2.878   2.345
 1057SOL    HW2 3546   0.810   2.854   2.208
 1058SOL     OW 3547   0.413   2.651   3.132
 1058SOL    HW1 3548   0.488   2.655   3.199
 1058SOL    HW2 3549   0.378   2.557   3.128
 1059SOL     OW 3550   1.252   2.226   3.150
 1059SOL    HW1 3551   1.274   2.312   3.196
 1059SOL    HW2 3552   1.161   2.233   3.109
 1060SOL     OW 3553   0.051   3.430   3.223
 1060SOL    HW1 3554   0.015   3.492   3.154
 1060SOL    HW2 3555   0.149   3.419   3.211
 1061SOL     OW 3556   0.365   2.984   2.299
 1061SOL    HW1 3557   0.385   3.056   2.233
 1061SOL    HW2 3558   0.326   2.905   2.252
 1062SOL     OW 3559   0.573   2.323   2.700
 1062SOL    HW1 3560   0.575   2.386   2.622
 1062SOL    HW2 3561   0.629   2.359   2.774
 1063SOL     OW 3562   1.242   3.234   2.274
 1063SOL    HW1 3563   1.304   3.308   2.299
 1063SOL    HW2 3564   1.149   3.257   2.305
 1064SOL     OW 3565   1.298   3.341   3.022
 1064SOL    HW1 3566   1.340   3.348   3.112
 1064SOL    HW2 3567   1.242   3.258   3.018
 1065SOL     OW 3568   1.569   2.497   2.333
 1065SOL    HW1 3569   1.522   2.542   2.409
 1065SOL    HW2 3570   1.633   2.562   2.291
 1066SOL     OW 3571   0.323   3.426   3.136
 1066SOL    HW1 3572   0.318   3.363   3.059
 1066SOL    HW2 3573   0.418   3.453   3.152
 1067SOL     OW 3574   0.418   2.617   3.489
 1067SOL    HW1 3575   0.492   2.633   3.424
 1067SOL    HW2 3576   0.432   2.529   3.534
 1068SOL     OW 3577   1.638   2.667   3.543
 1068SOL    HW1 3578   1.542   2.695   3.530
 1068SOL    HW2 3579   1.692   2.699   3.465
 1069SOL     OW 3580   1.014   1.978   3.621
 1069SOL    HW1 3581   1.069   2.060   3.608
 1069SOL    HW2 3582   1.067   1.898   3.595
 1070SOL     OW 3583   0.509   1.922   3.657
 1070SOL    HW1 3584   0.462   1.869   3.586
 1070SOL    HW2 3585   0.450   1.997   3.687
 1071SOL     OW 3586   0.577   2.725   2.912
 1071SOL    HW1 3587   0.620   2.815   2.917
 1071SOL    HW2 3588   0.519   2.712   2.993
 1072SOL     OW 3589   1.267   2.699   2.865
 1072SOL    HW1 3590   1.176   2.672   2.834
 1072SOL    HW2 3591   1.334   2.632   2.835
 1073SOL     OW 3592   1.204   2.386   2.114
 1073SOL    HW1 3593   1.225   2.308   2.174
 1073SOL    HW2 3594   1.155   2.455   2.167
 1074SOL     OW 3595   0.301   2.005   3.081
 1074SOL    HW1 3596   0.280   2.044   3.170
 1074SOL    HW2 3597   0.258   1.915   3.073
 1075SOL     OW 3598   0.070   3.168   3.110
 1075SOL    HW1 3599   0.117   3.109   3.175
 1075SOL    HW2 3600   0.030   3.246   3.159
 1076SOL     OW 3601   0.702   2.468   2.899
 1076SOL    HW1 3602   0.781   2.458   2.839
 1076SOL    HW2 3603   0.663   2.559   2.889
 1077SOL     OW 3604   1.713   2.899   3.681
 1077SOL    HW1 3605   1.688   2.808   3.645
 1077SOL    HW2 3606   1.664   2.915   3.766
 1078SOL     OW 3607   0.330   1.932   2.511
 1078SOL    HW1 3608   0.278   2.016   2.524
 1078SOL    HW2 3609   0.342   1.885   2.599
 1079SOL     OW 3610   1.601   2.263   2.194
 1079SOL    HW1 3611   1.649   2.200   2.255
 1079SOL    HW2 3612   1.573   2.344   2.246
 1080SOL     OW 3613   1.007   2.614   2.796
 1080SOL    HW1 3614   0.981   2.631   2.891
 1080SOL    HW2 3615   0.979   2.521   2.770
 1081SOL     OW 3616   0.908   3.475   3.541
 1081SOL    HW1 3617   0.926   3.502   3.446
 1081SOL    HW2 3618   0.973   3.404   3.569
 1082SOL     OW 3619   1.803   3.329   3.522
 1082SOL    HW1 3620   1.866   3.365   3.453
 1082SOL    HW2 3621   1.829   3.363   3.612
 1083SOL     OW 3622   0.408   2.835   3.661
 1083SOL    HW1 3623   0.484   2.839   3.726
 1083SOL    HW2 3624   0.420   2.757   3.601
 1084SOL     OW 3625   1.517   2.117   1.970
 1084SOL    HW1 3626   1.471   2.037   2.009
 1084SOL    HW2 3627   1.547   2.177   2.045
 1085SOL     OW 3628   1.264   2.680   1.862
 1085SOL    HW1 3629   1.302   2.589   1.872
 1085SOL    HW2 3630   1.289   2.718   1.773
 1086SOL     OW 3631   1.056   3.226   2.725
 1086SOL    HW1 3632   1.090   3.142   2.681
 1086SOL    HW2 3633   1.108   3.304   2.692
 1087SOL     OW 3634   0.318   2.653   2.801
 1087SOL    HW1 3635   0.408   2.695   2.811
 1087SOL    HW2 3636   0.325   2.554   2.816
 1088SOL     OW 3637   0.353   2.381   2.850
 1088SOL    HW1 3638   0.294   2.300   2.842
 1088SOL    HW2 3639   0.433   2.369   2.793
 1089SOL     OW 3640   1.141   2.213   3.556
 1089SOL    HW1 3641   1.090   2.262   3.626
 1089SOL    HW2 3642   1.224   2.263   3.534
 1090SOL     OW 3643   1.165   2.044   3.338
 1090SOL    HW1 3644   1.148   2.103   3.417
 1090SOL    HW2 3645   1.207   2.098   3.265
 1091SOL     OW 3646   0.027   3.131   2.045
 1091SOL    HW1 3647   0.030   3.088   1.955
 1091SOL    HW2 3648   0.002   3.064   2.114
 1092SOL     OW 3649   0.092   3.618   2.788
 1092SOL    HW1 3650   0.061   3.577   2.702
 1092SOL    HW2 3651   0.184   3.656   2.776
 1093SOL     OW 3652   0.490   3.439   2.751
 1093SOL    HW1 3653   0.563   3.504   2.774
 1093SOL    HW2 3654   0.528   3.367   2.692
 1094SOL     OW 3655   0.910   2.645   3.046
 1094SOL    HW1 3656   0.973   2.634   3.124
 1094SOL    HW2 3657   0.830   2.587   3.059
 1095SOL     OW 3658   0.057   2.296   3.002
 1095SOL    HW1 3659   0.124   2.338   3.063
 1095SOL    HW2 3660   6.468   2.291   3.049
 1096SOL     OW 3661   0.159   2.431   3.626
 1096SOL    HW1 3662   0.179   2.405   3.532
 1096SOL    HW2 3663   0.086   2.499   3.628
 1097SOL     OW 3664   1.391   2.773   3.487
 1097SOL    HW1 3665   1.394   2.873   3.490
 1097SOL    HW2 3666   1.380   2.742   3.392
 1098SOL     OW 3667   0.802   2.439   2.221
 1098SOL    HW1 3668   0.810   2.355   2.167
 1098SOL    HW2 3669   0.726   2.493   2.187
 1099SOL     OW 3670   1.631   2.499   2.993
 1099SOL    HW1 3671   1.604   2.440   3.069
 1099SOL    HW2 3672   1.729   2.487   2.975
 1100SOL     OW 3673   0.231   3.437   3.603
 1100SOL    HW1 3674   0.200   3.491   3.681
 1100SOL    HW2 3675   0.231   3.340   3.627
 1101SOL     OW 3676   0.735   2.258   3.077
 1101SOL    HW1 3677   0.672   2.181   3.068
 1101SOL    HW2 3678   0.708   2.330   3.013
 1102SOL     OW 3679   0.966   3.534   3.276
 1102SOL    HW1 3680   0.932   3.479   3.199
 1102SOL    HW2 3681   0.952   3.631   3.257
 1103SOL     OW 3682   0.434   2.352   2.037
 1103SOL    HW1 3683   0.498   2.427   2.055
 1103SOL    HW2 3684   0.340   2.389   2.036
 1104SOL     OW 3685   0.205   3.006   3.293
 1104SOL    HW1 3686   0.188   2.995   3.391
 1104SOL    HW2 3687   0.202   2.917   3.249
 1105SOL     OW 3688   1.259   2.890   3.060
 1105SOL    HW1 3689   1.264   2.821   2.988
 1105SOL    HW2 3690   1.218   2.974   3.024
 1106SOL     OW 3691   1.333   2.730   2.126
 1106SOL    HW1 3692   1.267   2.695   2.193
 1106SOL    HW2 3693   1.300   2.713   2.034
 1107SOL     OW 3694   1.789   3.577   3.120
 1107SOL    HW1 3695   1.875   3.601   3.075
 1107SOL    HW2 3696   1.735   3.519   3.059
 1108SOL     OW 3697   1.249   3.612   2.994
 1108SOL    HW1 3698   1.340   3.646   2.972
 1108SOL    HW2 3699   1.252   3.514   3.009
 1109SOL     OW 3700   0.108   3.159   2.838
 1109SOL    HW1 3701   0.081   3.160   2.934
 1109SOL    HW2 3702   0.041   3.209   2.784
 1110SOL     OW 3703   0.726   3.602   3.701
 1110SOL    HW1 3704   0.664   3.663   3.652
 1110SOL    HW2 3705   0.796   3.567   3.638
 1111SOL     OW 3706   1.761   2.090   2.338
 1111SOL    HW1 3707   1.819   2.068   2.259
 1111SOL    HW2 3708   1.718   2.007   2.372
 1112SOL     OW 3709   1.398   3.450   2.357
 1112SOL    HW1 3710   1.463   3.482   2.288
 1112SOL    HW2 3711   1.335   3.524   2.380
 1113SOL     OW 3712   0.124   3.595   3.799
 1113SOL    HW1 3713   0.081   3.519   3.849
 1113SOL    HW2 3714   0.186   3.643   3.861
 1114SOL     OW 3715   1.278   2.803   2.494
 1114SOL    HW1 3716   1.355   2.742   2.515
 1114SOL    HW2 3717   1.313   2.885   2.450
 1115SOL     OW 3718   0.734   3.118   3.283
 1115SOL    HW1 3719   0.728   3.175   3.365
 1115SOL    HW2 3720   0.660   3.140   3.221
 1116SOL     OW 3721   0.702   3.511   2.027
 1116SOL    HW1 3722   0.718   3.543   1.934
 1116SOL    HW2 3723   0.635   3.437   2.026
 1117SOL     OW 3724   1.578   3.601   3.296
 1117SOL    HW1 3725   1.655   3.591   3.232
 1117SOL    HW2 3726   1.552   3.697   3.301
 1118SOL     OW 3727   1.833   1.996   2.853
 1118SOL    HW1 3728   1.864   1.908   2.818
 1118SOL    HW2 3729   1.749   2.023   2.805
 1119SOL     OW 3730   0.200   2.162   2.574
 1119SOL    HW1 3731   0.106   2.192   2.558
 1119SOL    HW2 3732   0.216   2.152   2.672
 1120SOL     OW 3733   1.233   3.443   1.918
 1120SOL    HW1 3734   1.225   3.350   1.953
 1120SOL    HW2 3735   1.158   3.463   1.856
 1121SOL     OW 3736   0.778   2.857   3.235
 1121SOL    HW1 3737   0.816   2.850   3.143
 1121SOL    HW2 3738   0.760   2.953   3.257
 1122SOL     OW 3739   0.919   2.755   2.121
 1122SOL    HW1 3740   0.980   2.805   2.059
 1122SOL    HW2 3741   0.972   2.686   2.171
 1123SOL     OW 3742   1.503   3.512   1.929
 1123SOL    HW1 3743   1.407   3.487   1.919
 1123SOL    HW2 3744   1.545   3.523   1.839
 1124SOL     OW 3745   0.391   3.210   3.343
 1124SOL    HW1 3746   0.374   3.287   3.282
 1124SOL    HW2 3747   0.330   3.135   3.319
 1125SOL     OW 3748   1.596   3.193   3.147
 1125SOL    HW1 3749   1.650   3.146   3.216
 1125SOL    HW2 3750   1.525   3.248   3.192
 1126SOL     OW 3751   1.131   2.971   2.658
 1126SOL    HW1 3752   1.042   2.934   2.684
 1126SOL    HW2 3753   1.177   2.907   2.596
 1127SOL     OW 3754   1.040   2.089   2.803
 1127SOL    HW1 3755   1.035   2.053   2.710
 1127SOL    HW2 3756   1.039   2.014   2.869
 1128SOL     OW 3757   0.608   3.348   2.350
 1128SOL    HW1 3758   0.659   3.296   2.282
 1128SOL    HW2 3759   0.510   3.340   2.332
 1129SOL     OW 3760   1.779   2.194   3.288
 1129SOL    HW1 3761   1.825   2.278   3.262
 1129SOL    HW2 3762   1.807   2.120   3.226
 1130SOL     OW 3763   0.286   3.204   2.105
 1130SOL    HW1 3764   0.190   3.178   2.097
 1130SOL    HW2 3765   0.302   3.250   2.192
 1131SOL     OW 3766   0.175   2.935   3.567
 1131SOL    HW1 3767   0.134   2.852   3.528
 1131SOL    HW2 3768   0.262   2.912   3.610
 1132SOL     OW 3769   0.711   2.060   3.344
 1132SOL    HW1 3770   0.794   2.027   3.299
 1132SOL    HW2 3771   0.733   2.089   3.437
 1133SOL     OW 3772   0.111   2.184   1.798
 1133SOL    HW1 3773   0.012   2.168   1.798
 1133SOL    HW2 3774   0.129   2.280   1.780
 1134SOL     OW 3775   1.397   2.710   3.221
 1134SOL    HW1 3776   1.332   2.767   3.171
 1134SOL    HW2 3777   1.489   2.725   3.186
 1135SOL     OW 3778   0.079   2.024   2.225
 1135SOL    HW1 3779   0.116   2.108   2.264
 1135SOL    HW2 3780   0.153   1.971   2.183
 1136SOL     OW 3781   1.176   3.186   2.003
 1136SOL    HW1 3782   1.079   3.164   1.995
 1136SOL    HW2 3783   1.201   3.190   2.100
 1137SOL     OW 3784   0.622   2.646   3.305
 1137SOL    HW1 3785   0.674   2.730   3.288
 1137SOL    HW2 3786   0.684   2.568   3.301
 1138SOL     OW 3787   1.506   3.679   2.928
 1138SOL    HW1 3788   1.544   3.723   2.846
 1138SOL    HW2 3789   1.556   3.594   2.947
 1139SOL     OW 3790   0.758   2.388   3.539
 1139SOL    HW1 3791   0.807   2.451   3.598
 1139SOL    HW2 3792   0.771   2.294   3.572
 1140SOL     OW 3793   1.421   3.044   3.482
 1140SOL    HW1 3794   1.400   3.066   3.577
 1140SOL    HW2 3795   1.517   3.066   3.464
 1141SOL     OW 3796   0.381   3.640   3.475
 1141SOL    HW1 3797   0.299   3.697   3.476
 1141SOL    HW2 3798   0.358   3.548   3.506
 1142SOL     OW 3799   1.638   2.764   3.096
 1142SOL    HW1 3800   1.640   2.679   3.043
 1142SOL    HW2 3801   1.619   2.841   3.034
 1143SOL     OW 3802   1.235   2.190   2.309
 1143SOL    HW1 3803   1.296   2.111   2.309
 1143SOL    HW2 3804   1.253   2.247   2.389
 1144SOL     OW 3805   0.584   2.561   2.541
 1144SOL    HW1 3806   0.633   2.648   2.537
 1144SOL    HW2 3807   0.518   2.556   2.467
 1145SOL     OW 3808   1.708   2.207   3.555
 1145SOL    HW1 3809   1.735   2.204   3.459
 1145SOL    HW2 3810   1.629   2.148   3.570
 1146SOL     OW 3811   1.774   2.790   3.339
 1146SOL    HW1 3812   1.777   2.886   3.365
 1146SOL    HW2 3813   1.731   2.781   3.248
 1147SOL     OW 3814   0.880   3.222   1.954
 1147SOL    HW1 3815   0.837   3.219   2.044
 1147SOL    HW2 3816   0.885   3.316   1.922
 1148SOL     OW 3817   0.676   3.632   2.786
 1148SOL    HW1 3818   0.652   3.728   2.771
 1148SOL    HW2 3819   0.775   3.622   2.786
 1149SOL     OW 3820   0.884   2.859   2.737
 1149SOL    HW1 3821   0.923   2.770   2.759
 1149SOL    HW2 3822   0.830   2.891   2.815
 1150SOL     OW 3823   1.082   2.870   1.940
 1150SOL    HW1 3824   1.043   2.917   1.862
 1150SOL    HW2 3825   1.149   2.802   1.909
 1151SOL     OW 3826   1.812   3.420   2.705
 1151SOL    HW1 3827   1.726   3.417   2.655
 1151SOL    HW2 3828   1.817   3.342   2.768
 1152SOL     OW 3829   0.227   3.176   3.698
 1152SOL    HW1 3830   0.186   3.096   3.653
 1152SOL    HW2 3831   0.216   3.168   3.797
 1153SOL     OW 3832   0.203   3.116   2.478
 1153SOL    HW1 3833   0.203   3.071   2.568
 1153SOL    HW2 3834   0.246   3.055   2.411
 1154SOL     OW 3835   0.717   3.281   3.495
 1154SOL    HW1 3836   0.633   3.281   3.548
 1154SOL    HW2 3837   0.773   3.360   3.520
 1155SOL     OW 3838   1.861   1.996   3.126
 1155SOL    HW1 3839   1.926   1.920   3.137
 1155SOL    HW2 3840   1.837   2.006   3.030
 1156SOL     OW 3841   0.364   2.277   2.376
 1156SOL    HW1 3842   0.424   2.209   2.333
 1156SOL    HW2 3843   0.316   2.235   2.453
 1157SOL     OW 3844   1.619   3.419   2.974
 1157SOL    HW1 3845   1.570   3.392   2.891
 1157SOL    HW2 3846   1.627   3.341   3.035
 1158SOL     OW 3847   0.318   2.389   3.126
 1158SOL    HW1 3848   0.382   2.329   3.174
 1158SOL    HW2 3849   0.336   2.385   3.027
 1159SOL     OW 3850   0.820   3.437   2.545
 1159SOL    HW1 3851   0.776   3.487   2.470
 1159SOL    HW2 3852   0.760   3.363   2.576
 1160SOL     OW 3853   1.429   2.115   2.976
 1160SOL    HW1 3854   1.453   2.021   2.998
 1160SOL    HW2 3855   1.371   2.153   3.048
 1161SOL     OW 3856   1.034   1.859   2.967
 1161SOL    HW1 3857   0.971   1.791   2.929
 1161SOL    HW2 3858   1.127   1.824   2.966
 1162SOL     OW 3859   0.784   3.185   2.210
 1162SOL    HW1 3860   0.768   3.087   2.225
 1162SOL    HW2 3861   0.863   3.214   2.264
 1163SOL     OW 3862   0.604   3.453   3.151
 1163SOL    HW1 3863   0.598   3.544   3.194
 1163SOL    HW2 3864   0.697   3.436   3.121
 1164SOL     OW 3865   1.397   1.886   2.055
 1164SOL    HW1 3866   1.449   1.815   2.008
 1164SOL    HW2 3867   1.303   1.856   2.069
 1165SOL     OW 3868   1.278   2.342   2.531
 1165SOL    HW1 3869   1.226   2.427   2.524
 1165SOL    HW2 3870   1.277   2.310   2.626
 1166SOL     OW 3871   1.590   2.073   2.757
 1166SOL    HW1 3872   1.532   2.100   2.833
 1166SOL    HW2 3873   1.588   2.144   2.686
 1167SOL     OW 3874   6.496   2.910   2.204
 1167SOL    HW1 3875   0.085   2.871   2.180
 1167SOL    HW2 3876   6.464   2.870   2.290
 1168SOL     OW 3877   0.911   3.551   2.204
 1168SOL    HW1 3878   0.836   3.532   2.140
 1168SOL    HW2 3879   0.885   3.627   2.264
 1169SOL     OW 3880   0.215   2.531   3.882
 1169SOL    HW1 3881   0.129   2.531   3.932
 1169SOL    HW2 3882   0.199   2.501   3.788
 1170SOL     OW 3883   0.213   2.147   4.710
 1170SOL    HW1 3884   0.262   2.078   4.763
 1170SOL    HW2 3885   0.136   2.181   4.764
 1171SOL     OW 3886   6.425   2.219   4.419
 1171SOL    HW1 3887   6.347   2.275   4.390
 1171SOL    HW2 3888   6.412   2.125   4.387
 1172SOL     OW 3889   0.524   3.133   4.904
 1172SOL    HW1 3890   0.444   3.174   4.860
 1172SOL    HW2 3891   0.570   3.202   4.959
 1173SOL     OW 3892   1.603   3.374   4.419
 1173SOL    HW1 3893   1.555   3.339   4.500
 1173SOL    HW2 3894   1.537   3.389   4.346
 1174SOL     OW 3895   1.135   2.575   4.396
 1174SOL    HW1 3896   1.186   2.659   4.374
 1174SOL    HW2 3897   1.085   2.588   4.481
 1175SOL     OW 3898   1.805   2.450   3.927
 1175SOL    HW1 3899   1.756   2.457   3.840
 1175SOL    HW2 3900   1.760   2.383   3.986
 1176SOL     OW 3901   0.721   2.978   4.799
 1176SOL    HW1 3902   0.640   3.016   4.843
 1176SOL    HW2 3903   0.775   3.052   4.759
 1177SOL     OW 3904   0.894   2.587   5.505
 1177SOL    HW1 3905   0.918   2.652   5.577
 1177SOL    HW2 3906   0.898   2.633   5.416
 1178SOL     OW 3907   0.685   2.806   4.395
 1178SOL    HW1 3908   0.760   2.821   4.460
 1178SOL    HW2 3909   0.611   2.870   4.415
 1179SOL     OW 3910   0.698   3.010   5.566
 1179SOL    HW1 3911   0.758   3.077   5.610
 1179SOL    HW2 3912   0.626   3.058   5.517
 1180SOL     OW 3913   0.331   3.298   4.791
 1180SOL    HW1 3914   0.251   3.255   4.748
 1180SOL    HW2 3915   0.384   3.347   4.722
 1181SOL     OW 3916   1.458   3.366   5.101
 1181SOL    HW1 3917   1.509   3.450   5.116
 1181SOL    HW2 3918   1.375   3.367   5.157
 1182SOL     OW 3919   0.480   2.227   5.128
 1182SOL    HW1 3920   0.564   2.176   5.151
 1182SOL    HW2 3921   0.400   2.171   5.150
 1183SOL     OW 3922   1.568   2.308   4.464
 1183SOL    HW1 3923   1.494   2.307   4.397
 1183SOL    HW2 3924   1.549   2.377   4.534
 1184SOL     OW 3925   0.255   3.588   4.237
 1184SOL    HW1 3926   0.280   3.666   4.294
 1184SOL    HW2 3927   0.316   3.585   4.157
 1185SOL     OW 3928   1.090   3.210   5.421
 1185SOL    HW1 3929   1.135   3.203   5.510
 1185SOL    HW2 3930   1.036   3.128   5.405
 1186SOL     OW 3931   0.309   3.320   4.211
 1186SOL    HW1 3932   0.277   3.412   4.232
 1186SOL    HW2 3933   0.265   3.254   4.272
 1187SOL     OW 3934   0.254   2.973   4.587
 1187SOL    HW1 3935   0.242   2.882   4.625
 1187SOL    HW2 3936   0.200   3.039   4.639
 1188SOL     OW 3937   0.527   3.579   5.104
 1188SOL    HW1 3938   0.479   3.563   5.190
 1188SOL    HW2 3939   0.588   3.658   5.114
 1189SOL     OW 3940   0.599   2.846   3.890
 1189SOL    HW1 3941   0.645   2.902   3.822
 1189SOL    HW2 3942   0.633   2.869   3.981
 1190SOL     OW 3943   1.582   2.012   5.188
 1190SOL    HW1 3944   1.644   2.084   5.158
 1190SOL    HW2 3945   1.542   2.036   5.276
 1191SOL     OW 3946   0.112   2.650   4.197
 1191SOL    HW1 3947   0.049   2.590   4.147
 1191SOL    HW2 3948   0.108   2.630   4.294
 1192SOL     OW 3949   1.858   3.594   4.012
 1192SOL    HW1 3950   1.935   3.578   4.073
 1192SOL    HW2 3951   1.856   3.690   3.986
 1193SOL     OW 3952   6.485   3.392   3.913
 1193SOL    HW1 3953   6.487   3.293   3.919
 1193SOL    HW2 3954   6.390   3.424   3.915
 1194SOL     OW 3955   1.707   2.812   4.394
 1194SOL    HW1 3956   1.799   2.773   4.394
 1194SOL    HW2 3957   1.696   2.870   4.313
 1195SOL     OW 3958   1.675   2.986   4.168
 1195SOL    HW1 3959   1.750   2.957   4.108
 1195SOL    HW2 3960   1.706   3.060   4.228
 1196SOL     OW 3961   0.167   2.626   5.306
 1196SOL    HW1 3962   0.262   2.649   5.328
 1196SOL    HW2 3963   0.144   2.663   5.216
 1197SOL     OW 3964   0.624   3.227   4.470
 1197SOL    HW1 3965   0.581   3.136   4.473
 1197SOL    HW2 3966   0.605   3.270   4.382
 1198SOL     OW 3967   1.247   3.053   5.152
 1198SOL    HW1 3968   1.269   2.986   5.081
 1198SOL    HW2 3969   1.322   3.058   5.218
 1199SOL     OW 3970   0.838   1.902   4.218
 1199SOL    HW1 3971   0.883   1.987   4.191
 1199SOL    HW2 3972   0.740   1.919   4.231
 1200SOL     OW 3973   0.157   2.740   5.035
 1200SOL    HW1 3974   0.255   2.727   5.020
 1200SOL    HW2 3975   0.106   2.697   4.962
 1201SOL     OW 3976   1.545   2.922   3.918
 1201SOL    HW1 3977   1.478   2.853   3.942
 1201SOL    HW2 3978   1.589   2.957   4.001
 1202SOL     OW 3979   1.289   3.742   5.354
 1202SOL    HW1 3980   1.229   3.796   5.295
 1202SOL    HW2 3981   1.272   3.644   5.338
 1203SOL     OW 3982   0.354   2.105   5.624
 1203SOL    HW1 3983   0.391   2.191   5.659
 1203SOL    HW2 3984   0.266   2.121   5.581
 1204SOL     OW 3985   1.479   3.271   4.640
 1204SOL    HW1 3986   1.419   3.306   4.712
 1204SOL    HW2 3987   1.448   3.181   4.612
 1205SOL     OW 3988   1.626   3.700   4.258
 1205SOL    HW1 3989   1.618   3.635   4.182
 1205SOL    HW2 3990   1.632   3.649   4.344
 1206SOL     OW 3991   0.586   2.575   4.000
 1206SOL    HW1 3992   0.598   2.666   3.959
 1206SOL    HW2 3993   0.516   2.579   4.071
 1207SOL     OW 3994   1.275   2.256   4.653
 1207SOL    HW1 3995   1.184   2.214   4.652
 1207SOL    HW2 3996   1.334   2.204   4.715
 1208SOL     OW 3997   1.592   3.531   4.044
 1208SOL    HW1 3998   1.691   3.539   4.031
 1208SOL    HW2 3999   1.547   3.516   3.955
 1209SOL     OW 4000   0.786   2.431   5.158
 1209SOL    HW1 4001   0.750   2.405   5.248
 1209SOL    HW2 4002   0.761   2.362   5.091
 1210SOL     OW 4003   1.381   2.335   5.375
 1210SOL    HW1 4004   1.386   2.387   5.460
 1210SOL    HW2 4005   1.426   2.247   5.388
 1211SOL     OW 4006   0.923   2.751   5.272
 1211SOL    HW1 4007   0.979   2.684   5.223
 1211SOL    HW2 4008   0.872   2.806   5.206
 1212SOL     OW 4009   1.005   2.235   4.898
 1212SOL    HW1 4010   0.910   2.248   4.925
 1212SOL    HW2 4011   1.009   2.187   4.810
 1213SOL     OW 4012   1.055   2.555   4.131
 1213SOL    HW1 4013   1.077   2.553   4.228
 1213SOL    HW2 4014   0.965   2.513   4.117
 1214SOL     OW 4015   0.122   2.592   4.464
 1214SOL    HW1 4016   0.199   2.626   4.518
 1214SOL    HW2 4017   0.073   2.522   4.515
 1215SOL     OW 4018   0.121   3.624   5.350
 1215SOL    HW1 4019   0.129   3.646   5.447
 1215SOL    HW2 4020   0.085   3.703   5.301
 1216SOL     OW 4021   0.853   2.219   3.923
 1216SOL    HW1 4022   0.912   2.258   3.852
 1216SOL    HW2 4023   0.797   2.147   3.884
 1217SOL     OW 4024   1.667   2.460   5.557
 1217SOL    HW1 4025   1.663   2.545   5.504
 1217SOL    HW2 4026   1.689   2.384   5.496
 1218SOL     OW 4027   1.410   3.030   4.274
 1218SOL    HW1 4028   1.498   3.020   4.228
 1218SOL    HW2 4029   1.353   3.095   4.222
 1219SOL     OW 4030   0.564   2.029   4.628
 1219SOL    HW1 4031   0.578   2.039   4.727
 1219SOL    HW2 4032   0.565   2.119   4.585
 1220SOL     OW 4033   0.992   3.329   4.198
 1220SOL    HW1 4034   0.979   3.403   4.132
 1220SOL    HW2 4035   0.951   3.355   4.285
 1221SOL     OW 4036   0.377   3.688   4.628
 1221SOL    HW1 4037   0.416   3.596   4.627
 1221SOL    HW2 4038   0.449   3.754   4.653
 1222SOL     OW 4039   1.784   2.914   4.642
 1222SOL    HW1 4040   1.744   2.897   4.552
 1222SOL    HW2 4041   1.710   2.929   4.708
 1223SOL     OW 4042   1.221   3.383   5.231
 1223SOL    HW1 4043   1.188   3.311   5.292
 1223SOL    HW2 4044   1.142   3.430   5.190
 1224SOL     OW 4045   0.335   2.778   3.968
 1224SOL    HW1 4046   0.422   2.800   3.924
 1224SOL    HW2 4047   0.304   2.688   3.936
 1225SOL     OW 4048   1.494   2.639   4.424
 1225SOL    HW1 4049   1.482   2.593   4.512
 1225SOL    HW2 4050   1.573   2.701   4.428
 1226SOL     OW 4051   0.490   3.154   5.441
 1226SOL    HW1 4052   0.456   3.175   5.349
 1226SOL    HW2 4053   0.413   3.150   5.505
 1227SOL     OW 4054   1.107   3.664   3.879
 1227SOL    HW1 4055   1.036   3.619   3.933
 1227SOL    HW2 4056   1.064   3.718   3.806
 1228SOL     OW 4057   0.236   2.095   5.154
 1228SOL    HW1 4058   0.192   2.184   5.162
 1228SOL    HW2 4059   0.211   2.038   5.233
 1229SOL     OW 4060   1.596   3.245   3.806
 1229SOL    HW1 4061   1.562   3.339   3.804
 1229SOL    HW2 4062   1.522   3.183   3.781
 1230SOL     OW 4063   0.473   3.620   4.058
 1230SOL    HW1 4064   0.520   3.679   4.124
 1230SOL    HW2 4065   0.539   3.556   4.018
 1231SOL     OW 4066   1.403   1.972   4.171
 1231SOL    HW1 4067   1.403   1.945   4.075
 1231SOL    HW2 4068   1.489   1.946   4.213
 1232SOL     OW 4069   0.142   3.694   4.935
 1232SOL    HW1 4070   0.196   3.612   4.957
 1232SOL    HW2 4071   0.110   3.688   4.841
 1233SOL     OW 4072   0.942   3.559   4.592
 1233SOL    HW1 4073   1.034   3.520   4.594
 1233SOL    HW2 4074   0.886   3.510   4.525
 1234SOL     OW 4075   0.382   2.548   4.190
 1234SOL    HW1 4076   0.358   2.451   4.195
 1234SOL    HW2 4077   0.298   2.602   4.186
 1235SOL     OW 4078   1.482   2.083   5.443
 1235SOL    HW1 4079   1.490   2.112   5.538
 1235SOL    HW2 4080   1.418   2.007   5.436
 1236SOL     OW 4081   0.687   2.001   3.850
 1236SOL    HW1 4082   0.751   1.927   3.875
 1236SOL    HW2 4083   0.616   1.965   3.791
 1237SOL     OW 4084   0.765   2.130   5.466
 1237SOL    HW1 4085   0.852   2.081   5.462
 1237SOL    HW2 4086   0.713   2.098   5.545
 1238SOL     OW 4087   0.897   3.356   4.915
 1238SOL    HW1 4088   0.869   3.321   4.825
 1238SOL    HW2 4089   0.945   3.283   4.964
 1239SOL     OW 4090   1.294   2.456   5.148
 1239SOL    HW1 4091   1.332   2.419   5.233
 1239SOL    HW2 4092   1.331   2.547   5.131
 1240SOL     OW 4093   0.822   3.211   4.681
 1240SOL    HW1 4094   0.911   3.219   4.637
 1240SOL    HW2 4095   0.750   3.217   4.612
 1241SOL     OW 4096   0.907   2.363   4.592
 1241SOL    HW1 4097   0.887   2.356   4.494
 1241SOL    HW2 4098   0.940   2.274   4.625
 1242SOL     OW 4099   0.567   1.951   4.228
 1242SOL    HW1 4100   0.491   1.945   4.293
 1242SOL    HW2 4101   0.555   2.031   4.170
 1243SOL     OW 4102   1.383   3.078   3.753
 1243SOL    HW1 4103   1.429   3.014   3.814
 1243SOL    HW2 4104   1.296   3.106   3.793
 1244SOL     OW 4105   0.284   1.908   3.937
 1244SOL    HW1 4106   0.320   1.986   3.884
 1244SOL    HW2 4107   0.361   1.855   3.974
 1245SOL     OW 4108   0.971   2.129   4.153
 1245SOL    HW1 4109   0.933   2.164   4.068
 1245SOL    HW2 4110   1.069   2.146   4.156
 1246SOL     OW 4111   1.035   2.551   5.126
 1246SOL    HW1 4112   0.962   2.485   5.144
 1246SOL    HW2 4113   1.124   2.506   5.135
 1247SOL     OW 4114   1.201   3.476   4.545
 1247SOL    HW1 4115   1.230   3.525   4.463
 1247SOL    HW2 4116   1.243   3.517   4.625
 1248SOL     OW 4117   0.481   2.989   4.425
 1248SOL    HW1 4118   0.405   2.983   4.490
 1248SOL    HW2 4119   0.447   2.986   4.332
 1249SOL     OW 4120   1.251   3.655   4.332
 1249SOL    HW1 4121   1.302   3.721   4.277
 1249SOL    HW2 4122   1.167   3.698   4.367
 1250SOL     OW 4123   1.026   2.357   3.758
 1250SOL    HW1 4124   0.994   2.445   3.724
 1250SOL    HW2 4125   1.095   2.371   3.829
 1251SOL     OW 4126   0.123   2.337   5.136
 1251SOL    HW1 4127   0.189   2.404   5.103
 1251SOL    HW2 4128   0.039   2.384   5.164
 1252SOL     OW 4129   0.582   2.031   4.900
 1252SOL    HW1 4130   0.623   1.961   4.958
 1252SOL    HW2 4131   0.482   2.024   4.905
 1253SOL     OW 4132   0.871   2.323   4.328
 1253SOL    HW1 4133   0.829   2.383   4.260
 1253SOL    HW2 4134   0.909   2.243   4.282
 1254SOL     OW 4135   1.015   1.917   4.436
 1254SOL    HW1 4136   0.954   1.919   4.356
 1254SOL    HW2 4137   0.986   1.844   4.498
 1255SOL     OW 4138   1.395   3.025   4.565
 1255SOL    HW1 4139   1.301   2.995   4.576
 1255SOL    HW2 4140   1.420   3.023   4.468
 1256SOL     OW 4141   1.448   2.485   4.655
 1256SOL    HW1 4142   1.381   2.412   4.665
 1256SOL    HW2 4143   1.512   2.482   4.732
 1257SOL     OW 4144   1.931   2.653   4.070
 1257SOL    HW1 4145   1.941   2.615   4.162
 1257SOL    HW2 4146   1.882   2.587   4.013
 1258SOL     OW 4147   0.500   3.269   3.869
 1258SOL    HW1 4148   0.417   3.235   3.913
 1258SOL    HW2 4149   0.502   3.239   3.773
 1259SOL     OW 4150   1.783   3.166   4.333
 1259SOL    HW1 4151   1.878   3.169   4.361
 1259SOL    HW2 4152   1.735   3.247   4.368
 1260SOL     OW 4153   1.387   2.444   3.767
 1260SOL    HW1 4154   1.337   2.414   3.848
 1260SOL    HW2 4155   1.485   2.433   3.782
 1261SOL     OW 4156   0.529   2.147   4.042
 1261SOL    HW1 4157   0.589   2.098   3.979
 1261SOL    HW2 4158   0.494   2.229   3.998
 1262SOL     OW 4159   1.741   3.091   5.262
 1262SOL    HW1 4160   1.832   3.050   5.265
 1262SOL    HW2 4161   1.746   3.186   5.294
 1263SOL     OW 4162   1.012   3.157   5.059
 1263SOL    HW1 4163   0.933   3.147   5.120
 1263SOL    HW2 4164   1.094   3.125   5.107
 1264SOL     OW 4165   1.613   3.514   5.400
 1264SOL    HW1 4166   1.595   3.555   5.310
 1264SOL    HW2 4167   1.687   3.448   5.392
 1265SOL     OW 4168   1.161   3.125   4.832
 1265SOL    HW1 4169   1.097   3.133   4.908
 1265SOL    HW2 4170   1.118   3.157   4.747
 1266SOL     OW 4171   1.569   2.958   4.804
 1266SOL    HW1 4172   1.566   3.025   4.879
 1266SOL    HW2 4173   1.495   2.976   4.740
 1267SOL     OW 4174   0.936   1.951   5.084
 1267SOL    HW1 4175   0.957   1.924   4.990
 1267SOL    HW2 4176   1.016   1.994   5.125
 1268SOL     OW 4177   0.942   2.973   5.431
 1268SOL    HW1 4178   0.849   2.984   5.466
 1268SOL    HW2 4179   0.945   2.894   5.370
 1269SOL     OW 4180   0.726   2.899   4.133
 1269SOL    HW1 4181   0.705   2.861   4.223
 1269SOL    HW2 4182   0.814   2.863   4.101
 1270SOL     OW 4183   0.419   2.678   4.994
 1270SOL    HW1 4184   0.496   2.685   5.058
 1270SOL    HW2 4185   0.392   2.582   4.986
 1271SOL     OW 4186   1.255   2.233   5.000
 1271SOL    HW1 4187   1.274   2.317   5.050
 1271SOL    HW2 4188   1.163   2.238   4.961
 1272SOL     OW 4189   6.499   3.412   5.055
 1272SOL    HW1 4190   0.087   3.460   5.052
 1272SOL    HW2 4191   0.011   3.319   5.019
 1273SOL     OW 4192   0.358   2.973   4.168
 1273SOL    HW1 4193   0.344   3.047   4.102
 1273SOL    HW2 4194   0.351   2.885   4.121
 1274SOL     OW 4195   0.571   2.315   4.559
 1274SOL    HW1 4196   0.572   2.378   4.482
 1274SOL    HW2 4197   0.627   2.352   4.633
 1275SOL     OW 4198   1.247   3.229   4.141
 1275SOL    HW1 4199   1.310   3.302   4.170
 1275SOL    HW2 4200   1.154   3.253   4.169
 1276SOL     OW 4201   1.332   3.338   4.861
 1276SOL    HW1 4202   1.376   3.346   4.950
 1276SOL    HW2 4203   1.271   3.260   4.861
 1277SOL     OW 4204   1.579   2.506   4.192
 1277SOL    HW1 4205   1.540   2.542   4.277
 1277SOL    HW2 4206   1.598   2.581   4.130
 1278SOL     OW 4207   0.290   3.471   4.999
 1278SOL    HW1 4208   0.305   3.405   4.925
 1278SOL    HW2 4209   0.378   3.510   5.027
 1279SOL     OW 4210   0.491   2.567   5.373
 1279SOL    HW1 4211   0.529   2.613   5.293
 1279SOL    HW2 4212   0.557   2.498   5.405
 1280SOL     OW 4213   1.646   2.702   5.431
 1280SOL    HW1 4214   1.547   2.720   5.430
 1280SOL    HW2 4215   1.687   2.735   5.346
 1281SOL     OW 4216   0.996   1.988   5.463
 1281SOL    HW1 4217   1.054   2.069   5.456
 1281SOL    HW2 4218   1.047   1.907   5.435
 1282SOL     OW 4219   0.512   1.906   5.523
 1282SOL    HW1 4220   0.466   1.856   5.450
 1282SOL    HW2 4221   0.453   1.980   5.555
 1283SOL     OW 4222   0.576   2.727   4.767
 1283SOL    HW1 4223   0.626   2.814   4.770
 1283SOL    HW2 4224   0.519   2.719   4.849
 1284SOL     OW 4225   1.270   2.697   4.725
 1284SOL    HW1 4226   1.180   2.667   4.696
 1284SOL    HW2 4227   1.338   2.629   4.698
 1285SOL     OW 4228   1.204   2.388   3.970
 1285SOL    HW1 4229   1.225   2.310   4.028
 1285SOL    HW2 4230   1.157   2.458   4.024
 1286SOL     OW 4231   0.312   1.989   4.916
 1286SOL    HW1 4232   0.291   2.034   5.003
 1286SOL    HW2 4233   0.262   1.902   4.910
 1287SOL     OW 4234   0.039   3.150   4.980
 1287SOL    HW1 4235   0.117   3.105   5.026
 1287SOL    HW2 4236   6.456   3.132   5.032
 1288SOL     OW 4237   0.699   2.469   4.753
 1288SOL    HW1 4238   0.778   2.459   4.693
 1288SOL    HW2 4239   0.659   2.560   4.741
 1289SOL     OW 4240   1.752   2.879   5.624
 1289SOL    HW1 4241   1.729   2.811   5.554
 1289SOL    HW2 4242   1.675   2.889   5.687
 1290SOL     OW 4243   0.328   1.937   4.372
 1290SOL    HW1 4244   0.277   2.022   4.386
 1290SOL    HW2 4245   0.340   1.890   4.460
 1291SOL     OW 4246   1.625   2.274   4.054
 1291SOL    HW1 4247   1.668   2.205   4.112
 1291SOL    HW2 4248   1.597   2.352   4.111
 1292SOL     OW 4249   1.014   2.604   4.654
 1292SOL    HW1 4250   0.985   2.622   4.748
 1292SOL    HW2 4251   0.984   2.513   4.627
 1293SOL     OW 4252   0.993   3.474   5.414
 1293SOL    HW1 4253   0.985   3.501   5.318
 1293SOL    HW2 4254   1.001   3.375   5.420
 1294SOL     OW 4255   1.828   3.348   5.324
 1294SOL    HW1 4256   1.850   3.371   5.229
 1294SOL    HW2 4257   1.910   3.358   5.381
 1295SOL     OW 4258   0.392   2.777   5.522
 1295SOL    HW1 4259   0.447   2.806   5.600
 1295SOL    HW2 4260   0.435   2.699   5.477
 1296SOL     OW 4261   1.512   2.136   3.839
 1296SOL    HW1 4262   1.470   2.054   3.877
 1296SOL    HW2 4263   1.552   2.190   3.913
 1297SOL     OW 4264   1.279   2.690   3.724
 1297SOL    HW1 4265   1.313   2.597   3.737
 1297SOL    HW2 4266   1.313   2.726   3.637
 1298SOL     OW 4267   1.075   3.226   4.586
 1298SOL    HW1 4268   1.104   3.144   4.537
 1298SOL    HW2 4269   1.131   3.304   4.557
 1299SOL     OW 4270   0.314   2.655   4.667
 1299SOL    HW1 4271   0.404   2.698   4.676
 1299SOL    HW2 4272   0.322   2.556   4.679
 1300SOL     OW 4273   0.351   2.384   4.706
 1300SOL    HW1 4274   0.289   2.305   4.704
 1300SOL    HW2 4275   0.430   2.366   4.648
 1301SOL     OW 4276   1.134   2.221   5.412
 1301SOL    HW1 4277   1.082   2.268   5.483
 1301SOL    HW2 4278   1.220   2.269   5.396
 1302SOL     OW 4279   1.164   2.059   5.192
 1302SOL    HW1 4280   1.147   2.118   5.271
 1302SOL    HW2 4281   1.208   2.112   5.120
 1303SOL     OW 4282   6.487   3.105   3.917
 1303SOL    HW1 4283   6.407   3.088   3.859
 1303SOL    HW2 4284   0.015   3.019   3.960
 1304SOL     OW 4285   0.108   3.696   4.657
 1304SOL    HW1 4286   0.069   3.653   4.575
 1304SOL    HW2 4287   0.208   3.690   4.653
 1305SOL     OW 4288   0.498   3.433   4.619
 1305SOL    HW1 4289   0.571   3.497   4.640
 1305SOL    HW2 4290   0.535   3.357   4.565
 1306SOL     OW 4291   0.907   2.634   4.898
 1306SOL    HW1 4292   0.963   2.617   4.979
 1306SOL    HW2 4293   0.822   2.582   4.905
 1307SOL     OW 4294   0.034   2.268   4.876
 1307SOL    HW1 4295   0.090   2.286   4.957
 1307SOL    HW2 4296   6.437   2.270   4.901
 1308SOL     OW 4297   0.244   2.394   5.445
 1308SOL    HW1 4298   0.343   2.410   5.440
 1308SOL    HW2 4299   0.197   2.459   5.385
 1309SOL     OW 4300   1.390   2.783   5.360
 1309SOL    HW1 4301   1.408   2.881   5.357
 1309SOL    HW2 4302   1.379   2.748   5.267
 1310SOL     OW 4303   0.811   2.441   4.082
 1310SOL    HW1 4304   0.819   2.360   4.023
 1310SOL    HW2 4305   0.731   2.494   4.055
 1311SOL     OW 4306   1.631   2.471   4.858
 1311SOL    HW1 4307   1.607   2.406   4.930
 1311SOL    HW2 4308   1.730   2.468   4.842
 1312SOL     OW 4309   0.324   3.398   5.559
 1312SOL    HW1 4310   0.256   3.469   5.578
 1312SOL    HW2 4311   0.279   3.309   5.555
 1313SOL     OW 4312   0.734   2.267   4.939
 1313SOL    HW1 4313   0.674   2.188   4.931
 1313SOL    HW2 4314   0.707   2.337   4.873
 1314SOL     OW 4315   0.990   3.513   5.135
 1314SOL    HW1 4316   0.956   3.458   5.058
 1314SOL    HW2 4317   0.978   3.610   5.115
 1315SOL     OW 4318   0.440   2.363   3.895
 1315SOL    HW1 4319   0.513   2.427   3.919
 1315SOL    HW2 4320   0.352   2.411   3.898
 1316SOL     OW 4321   0.207   3.000   5.146
 1316SOL    HW1 4322   0.200   2.984   5.244
 1316SOL    HW2 4323   0.206   2.912   5.098
 1317SOL     OW 4324   1.268   2.887   4.921
 1317SOL    HW1 4325   1.270   2.818   4.849
 1317SOL    HW2 4326   1.232   2.973   4.884
 1318SOL     OW 4327   1.348   2.749   3.986
 1318SOL    HW1 4328   1.278   2.724   4.054
 1318SOL    HW2 4329   1.315   2.727   3.895
 1319SOL     OW 4330   1.754   3.549   4.883
 1319SOL    HW1 4331   1.825   3.581   4.821
 1319SOL    HW2 4332   1.725   3.457   4.857
 1320SOL     OW 4333   1.290   3.594   4.777
 1320SOL    HW1 4334   1.377   3.643   4.785
 1320SOL    HW2 4335   1.299   3.504   4.819
 1321SOL     OW 4336   0.102   3.170   4.705
 1321SOL    HW1 4337   0.064   3.165   4.798
 1321SOL    HW2 4338   0.042   3.225   4.647
 1322SOL     OW 4339   0.717   3.556   5.512
 1322SOL    HW1 4340   0.649   3.626   5.491
 1322SOL    HW2 4341   0.806   3.585   5.476
 1323SOL     OW 4342   1.768   2.083   4.191
 1323SOL    HW1 4343   1.823   2.063   4.111
 1323SOL    HW2 4344   1.724   1.998   4.223
 1324SOL     OW 4345   1.407   3.440   4.230
 1324SOL    HW1 4346   1.467   3.472   4.156
 1324SOL    HW2 4347   1.347   3.514   4.260
 1325SOL     OW 4348   0.146   3.607   5.630
 1325SOL    HW1 4349   0.094   3.536   5.678
 1325SOL    HW2 4350   0.207   3.653   5.693
 1326SOL     OW 4351   1.285   2.798   4.350
 1326SOL    HW1 4352   1.361   2.738   4.375
 1326SOL    HW2 4353   1.321   2.882   4.308
 1327SOL     OW 4354   0.770   3.157   5.195
 1327SOL    HW1 4355   0.771   3.192   5.289
 1327SOL    HW2 4356   0.714   3.217   5.138
 1328SOL     OW 4357   0.670   3.471   3.928
 1328SOL    HW1 4358   0.686   3.518   3.841
 1328SOL    HW2 4359   0.611   3.392   3.913
 1329SOL     OW 4360   1.604   3.601   5.126
 1329SOL    HW1 4361   1.662   3.593   5.045
 1329SOL    HW2 4362   1.578   3.697   5.138
 1330SOL     OW 4363   1.826   2.005   4.731
 1330SOL    HW1 4364   1.866   1.921   4.694
 1330SOL    HW2 4365   1.744   2.028   4.678
 1331SOL     OW 4366   0.198   2.169   4.435
 1331SOL    HW1 4367   0.102   2.195   4.420
 1331SOL    HW2 4368   0.215   2.160   4.533
 1332SOL     OW 4369   0.773   2.897   5.094
 1332SOL    HW1 4370   0.783   2.906   4.994
 1332SOL    HW2 4371   0.763   2.987   5.135
 1333SOL     OW 4372   0.960   2.801   4.046
 1333SOL    HW1 4373   0.988   2.813   3.951
 1333SOL    HW2 4374   0.998   2.715   4.081
 1334SOL     OW 4375   1.465   3.501   3.796
 1334SOL    HW1 4376   1.370   3.472   3.783
 1334SOL    HW2 4377   1.510   3.510   3.707
 1335SOL     OW 4378   0.369   3.221   5.205
 1335SOL    HW1 4379   0.348   3.302   5.151
 1335SOL    HW2 4380   0.318   3.143   5.169
 1336SOL     OW 4381   1.599   3.145   5.017
 1336SOL    HW1 4382   1.658   3.116   5.093
 1336SOL    HW2 4383   1.539   3.219   5.048
 1337SOL     OW 4384   1.123   2.965   4.508
 1337SOL    HW1 4385   1.034   2.928   4.535
 1337SOL    HW2 4386   1.167   2.901   4.445
 1338SOL     OW 4387   1.032   2.095   4.658
 1338SOL    HW1 4388   1.028   2.059   4.565
 1338SOL    HW2 4389   1.031   2.020   4.724
 1339SOL     OW 4390   0.586   3.342   4.228
 1339SOL    HW1 4391   0.637   3.287   4.162
 1339SOL    HW2 4392   0.488   3.338   4.207
 1340SOL     OW 4393   1.789   2.203   5.141
 1340SOL    HW1 4394   1.851   2.280   5.126
 1340SOL    HW2 4395   1.820   2.124   5.089
 1341SOL     OW 4396   0.255   3.178   3.986
 1341SOL    HW1 4397   0.158   3.154   3.980
 1341SOL    HW2 4398   0.270   3.240   4.062
 1342SOL     OW 4399   0.187   2.918   5.413
 1342SOL    HW1 4400   0.106   2.860   5.417
 1342SOL    HW2 4401   0.265   2.871   5.453
 1343SOL     OW 4402   0.704   2.067   5.203
 1343SOL    HW1 4403   0.790   2.042   5.158
 1343SOL    HW2 4404   0.723   2.094   5.297
 1344SOL     OW 4405   0.104   2.187   3.726
 1344SOL    HW1 4406   0.010   2.163   3.701
 1344SOL    HW2 4407   0.125   2.280   3.694
 1345SOL     OW 4408   1.387   2.709   5.096
 1345SOL    HW1 4409   1.326   2.767   5.042
 1345SOL    HW2 4410   1.479   2.712   5.057
 1346SOL     OW 4411   0.076   2.020   4.079
 1346SOL    HW1 4412   0.111   2.107   4.113
 1346SOL    HW2 4413   0.152   1.967   4.040
 1347SOL     OW 4414   1.153   3.187   3.868
 1347SOL    HW1 4415   1.053   3.176   3.869
 1347SOL    HW2 4416   1.186   3.197   3.962
 1348SOL     OW 4417   0.634   2.666   5.156
 1348SOL    HW1 4418   0.684   2.751   5.141
 1348SOL    HW2 4419   0.698   2.589   5.155
 1349SOL     OW 4420   1.535   3.712   4.792
 1349SOL    HW1 4421   1.566   3.771   4.717
 1349SOL    HW2 4422   1.613   3.662   4.830
 1350SOL     OW 4423   0.705   2.397   5.423
 1350SOL    HW1 4424   0.771   2.458   5.466
 1350SOL    HW2 4425   0.728   2.302   5.445
 1351SOL     OW 4426   1.462   3.046   5.339
 1351SOL    HW1 4427   1.439   3.071   5.433
 1351SOL    HW2 4428   1.557   3.071   5.320
 1352SOL     OW 4429   0.376   3.530   5.323
 1352SOL    HW1 4430   0.281   3.560   5.312
 1352SOL    HW2 4431   0.380   3.460   5.394
 1353SOL     OW 4432   1.624   2.734   4.961
 1353SOL    HW1 4433   1.632   2.648   4.911
 1353SOL    HW2 4434   1.606   2.809   4.896
 1354SOL     OW 4435   1.239   2.193   4.164
 1354SOL    HW1 4436   1.299   2.113   4.164
 1354SOL    HW2 4437   1.257   2.248   4.245
 1355SOL     OW 4438   0.572   2.543   4.395
 1355SOL    HW1 4439   0.620   2.630   4.398
 1355SOL    HW2 4440   0.502   2.545   4.323
 1356SOL     OW 4441   1.724   2.232   5.406
 1356SOL    HW1 4442   1.744   2.225   5.309
 1356SOL    HW2 4443   1.648   2.171   5.429
 1357SOL     OW 4444   1.736   2.808   5.199
 1357SOL    HW1 4445   1.720   2.905   5.213
 1357SOL    HW2 4446   1.700   2.780   5.110
 1358SOL     OW 4447   0.860   3.214   3.851
 1358SOL    HW1 4448   0.818   3.199   3.941
 1358SOL    HW2 4449   0.851   3.311   3.826
 1359SOL     OW 4450   0.679   3.629   4.658
 1359SOL    HW1 4451   0.659   3.727   4.656
 1359SOL    HW2 4452   0.778   3.615   4.651
 1360SOL     OW 4453   0.882   2.845   4.595
 1360SOL    HW1 4454   0.925   2.758   4.617
 1360SOL    HW2 4455   0.831   2.878   4.674
 1361SOL     OW 4456   1.042   2.810   3.787
 1361SOL    HW1 4457   1.021   2.886   3.725
 1361SOL    HW2 4458   1.131   2.770   3.763
 1362SOL     OW 4459   1.820   3.413   4.584
 1362SOL    HW1 4460   1.749   3.409   4.514
 1362SOL    HW2 4461   1.796   3.353   4.660
 1363SOL     OW 4462   0.229   3.143   5.565
 1363SOL    HW1 4463   0.214   3.068   5.500
 1363SOL    HW2 4464   0.161   3.138   5.639
 1364SOL     OW 4465   0.202   3.112   4.347
 1364SOL    HW1 4466   0.201   3.072   4.439
 1364SOL    HW2 4467   0.241   3.047   4.282
 1365SOL     OW 4468   0.727   3.291   5.442
 1365SOL    HW1 4469   0.635   3.252   5.441
 1365SOL    HW2 4470   0.722   3.389   5.457
 1366SOL     OW 4471   1.863   1.984   5.003
 1366SOL    HW1 4472   1.939   1.919   5.004
 1366SOL    HW2 4473   1.835   2.000   4.908
 1367SOL     OW 4474   0.325   2.279   4.211
 1367SOL    HW1 4475   0.400   2.221   4.179
 1367SOL    HW2 4476   0.290   2.243   4.298
 1368SOL     OW 4477   1.696   3.295   4.803
 1368SOL    HW1 4478   1.619   3.283   4.740
 1368SOL    HW2 4479   1.684   3.234   4.882
 1369SOL     OW 4480   0.349   2.420   4.982
 1369SOL    HW1 4481   0.404   2.353   5.032
 1369SOL    HW2 4482   0.353   2.401   4.884
 1370SOL     OW 4483   0.813   3.422   4.397
 1370SOL    HW1 4484   0.755   3.463   4.326
 1370SOL    HW2 4485   0.765   3.344   4.437
 1371SOL     OW 4486   1.427   2.112   4.830
 1371SOL    HW1 4487   1.447   2.016   4.852
 1371SOL    HW2 4488   1.372   2.152   4.903
 1372SOL     OW 4489   1.027   1.866   4.821
 1372SOL    HW1 4490   0.962   1.797   4.787
 1372SOL    HW2 4491   1.119   1.828   4.819
 1373SOL     OW 4492   0.769   3.172   4.104
 1373SOL    HW1 4493   0.751   3.075   4.119
 1373SOL    HW2 4494   0.854   3.198   4.150
 1374SOL     OW 4495   0.649   3.344   5.030
 1374SOL    HW1 4496   0.605   3.429   5.056
 1374SOL    HW2 4497   0.735   3.363   4.983
 1375SOL     OW 4498   1.399   1.894   3.908
 1375SOL    HW1 4499   1.449   1.823   3.858
 1375SOL    HW2 4500   1.306   1.861   3.927
 1376SOL     OW 4501   1.286   2.340   4.389
 1376SOL    HW1 4502   1.234   2.425   4.383
 1376SOL    HW2 4503   1.282   2.305   4.483
 1377SOL     OW 4504   1.590   2.070   4.613
 1377SOL    HW1 4505   1.531   2.096   4.689
 1377SOL    HW2 4506   1.589   2.141   4.543
 1378SOL     OW 4507   0.081   2.871   4.020
 1378SOL    HW1 4508   0.172   2.853   3.983
 1378SOL    HW2 4509   0.064   2.809   4.097
 1379SOL     OW 4510   0.906   3.549   4.044
 1379SOL    HW1 4511   0.819   3.516   4.008
 1379SOL    HW2 4512   0.889   3.623   4.109
 1380SOL     OW 4513   0.182   2.420   5.719
 1380SOL    HW1 4514   0.088   2.431   5.750
 1380SOL    HW2 4515   0.185   2.417   5.619
 1381SOL     OW 4516   6.463   2.259   6.357
 1381SOL    HW1 4517   6.379   2.309   6.378
 1381SOL    HW2 4518   6.441   2.169   6.320
 1382SOL     OW 4519   1.546   3.369   6.315
 1382SOL    HW1 4520   1.533   3.276   6.348
 1382SOL    HW2 4521   1.491   3.384   6.233
 1383SOL     OW 4522   1.117   2.535   6.238
 1383SOL    HW1 4523   1.118   2.626   6.279
 1383SOL    HW2 4524   1.036   2.486   6.268
 1384SOL     OW 4525   1.791   2.479   5.796
 1384SOL    HW1 4526   1.751   2.483   5.705
 1384SOL    HW2 4527   1.743   2.409   5.850
 1385SOL     OW 4528   0.721   3.086   0.125
 1385SOL    HW1 4529   0.717   3.113   0.221
 1385SOL    HW2 4530   0.778   3.151   0.075
 1386SOL     OW 4531   0.645   2.835   6.255
 1386SOL    HW1 4532   0.719   2.854   6.319
 1386SOL    HW2 4533   0.570   2.899   6.271
 1387SOL     OW 4534   1.573   2.350   6.285
 1387SOL    HW1 4535   1.478   2.320   6.276
 1387SOL    HW2 4536   1.593   2.417   6.214
 1388SOL     OW 4537   0.291   3.601   6.120
 1388SOL    HW1 4538   0.307   3.686   6.170
 1388SOL    HW2 4539   0.367   3.585   6.056
 1389SOL     OW 4540   0.161   3.364   6.131
 1389SOL    HW1 4541   0.206   3.453   6.129
 1389SOL    HW2 4542   0.065   3.376   6.157
 1390SOL     OW 4543   0.237   3.014   6.482
 1390SOL    HW1 4544   0.258   2.937   0.042
 1390SOL    HW2 4545   0.193   3.086   0.035
 1391SOL     OW 4546   0.577   2.846   5.753
 1391SOL    HW1 4547   0.622   2.896   5.678
 1391SOL    HW2 4548   0.617   2.875   5.840
 1392SOL     OW 4549   0.136   2.603   6.143
 1392SOL    HW1 4550   0.051   2.553   6.131
 1392SOL    HW2 4551   0.142   2.636   6.237
 1393SOL     OW 4552   1.841   3.607   5.888
 1393SOL    HW1 4553   1.923   3.600   5.946
 1393SOL    HW2 4554   1.838   3.698   5.848
 1394SOL     OW 4555   6.495   3.410   5.739
 1394SOL    HW1 4556   0.007   3.311   5.742
 1394SOL    HW2 4557   6.398   3.432   5.756
 1395SOL     OW 4558   1.678   2.830   6.277
 1395SOL    HW1 4559   1.777   2.841   6.269
 1395SOL    HW2 4560   1.633   2.877   6.200
 1396SOL     OW 4561   1.635   2.935   6.015
 1396SOL    HW1 4562   1.697   2.859   5.998
 1396SOL    HW2 4563   1.687   3.013   6.050
 1397SOL     OW 4564   0.623   3.225   6.320
 1397SOL    HW1 4565   0.559   3.148   6.321
 1397SOL    HW2 4566   0.611   3.276   6.235
 1398SOL     OW 4567   0.845   1.925   6.086
 1398SOL    HW1 4568   0.893   2.013   6.080
 1398SOL    HW2 4569   0.747   1.941   6.100
 1399SOL     OW 4570   1.509   2.896   5.777
 1399SOL    HW1 4571   1.436   2.831   5.796
 1399SOL    HW2 4572   1.556   2.920   5.862
 1400SOL     OW 4573   1.611   3.708   6.115
 1400SOL    HW1 4574   1.598   3.641   6.042
 1400SOL    HW2 4575   1.648   3.662   6.196
 1401SOL     OW 4576   0.587   2.572   5.836
 1401SOL    HW1 4577   0.595   2.664   5.796
 1401SOL    HW2 4578   0.521   2.574   5.911
 1402SOL     OW 4579   1.255   2.183   6.475
 1402SOL    HW1 4580   1.193   2.116   0.015
 1402SOL    HW2 4581   1.342   2.181   0.024
 1403SOL     OW 4582   1.578   3.529   5.907
 1403SOL    HW1 4583   1.677   3.543   5.899
 1403SOL    HW2 4584   1.538   3.522   5.815
 1404SOL     OW 4585   1.084   2.584   5.968
 1404SOL    HW1 4586   1.104   2.565   6.064
 1404SOL    HW2 4587   0.995   2.545   5.944
 1405SOL     OW 4588   0.138   2.710   6.392
 1405SOL    HW1 4589   0.188   2.732   6.476
 1405SOL    HW2 4590   0.103   2.795   6.352
 1406SOL     OW 4591   0.857   2.212   5.800
 1406SOL    HW1 4592   0.913   2.249   5.726
 1406SOL    HW2 4593   0.802   2.136   5.765
 1407SOL     OW 4594   1.363   3.002   6.097
 1407SOL    HW1 4595   1.454   2.985   6.058
 1407SOL    HW2 4596   1.316   3.071   6.043
 1408SOL     OW 4597   0.486   2.105   0.019
 1408SOL    HW1 4598   0.445   2.118   0.109
 1408SOL    HW2 4599   0.479   2.190   6.467
 1409SOL     OW 4600   0.992   3.332   6.063
 1409SOL    HW1 4601   0.977   3.412   6.006
 1409SOL    HW2 4602   0.947   3.344   6.151
 1410SOL     OW 4603   0.398   3.676   6.475
 1410SOL    HW1 4604   0.368   3.581   6.468
 1410SOL    HW2 4605   0.496   3.679   6.494
 1411SOL     OW 4606   1.687   2.772   0.045
 1411SOL    HW1 4607   1.669   2.813   6.456
 1411SOL    HW2 4608   1.629   2.814   0.115
 1412SOL     OW 4609   0.335   2.803   5.885
 1412SOL    HW1 4610   0.416   2.825   5.831
 1412SOL    HW2 4611   0.346   2.712   5.927
 1413SOL     OW 4612   1.468   2.648   6.296
 1413SOL    HW1 4613   1.467   2.585   6.374
 1413SOL    HW2 4614   1.549   2.706   6.303
 1414SOL     OW 4615   1.120   3.659   5.772
 1414SOL    HW1 4616   1.048   3.628   5.835
 1414SOL    HW2 4617   1.146   3.583   5.712
 1415SOL     OW 4618   1.594   3.262   5.678
 1415SOL    HW1 4619   1.561   3.355   5.665
 1415SOL    HW2 4620   1.523   3.197   5.649
 1416SOL     OW 4621   0.509   3.601   5.948
 1416SOL    HW1 4622   0.544   3.686   5.989
 1416SOL    HW2 4623   0.574   3.568   5.879
 1417SOL     OW 4624   1.342   1.957   6.024
 1417SOL    HW1 4625   1.342   1.939   5.926
 1417SOL    HW2 4626   1.433   1.939   6.062
 1418SOL     OW 4627   0.375   2.562   6.024
 1418SOL    HW1 4628   0.379   2.462   6.019
 1418SOL    HW2 4629   0.290   2.590   6.068
 1419SOL     OW 4630   0.698   1.989   5.710
 1419SOL    HW1 4631   0.769   1.920   5.727
 1419SOL    HW2 4632   0.627   1.951   5.651
 1420SOL     OW 4633   0.579   1.978   6.104
 1420SOL    HW1 4634   0.501   1.976   6.167
 1420SOL    HW2 4635   0.566   2.048   6.035
 1421SOL     OW 4636   1.398   3.082   5.606
 1421SOL    HW1 4637   1.435   3.010   5.665
 1421SOL    HW2 4638   1.308   3.109   5.640
 1422SOL     OW 4639   0.284   1.901   5.802
 1422SOL    HW1 4640   0.313   1.974   5.740
 1422SOL    HW2 4641   0.365   1.858   5.843
 1423SOL     OW 4642   0.953   2.182   6.061
 1423SOL    HW1 4643   0.910   2.199   5.973
 1423SOL    HW2 4644   1.052   2.189   6.051
 1424SOL     OW 4645   0.438   3.015   6.292
 1424SOL    HW1 4646   0.373   3.019   6.368
 1424SOL    HW2 4647   0.388   3.011   6.206
 1425SOL     OW 4648   1.222   3.607   6.164
 1425SOL    HW1 4649   1.259   3.691   6.125
 1425SOL    HW2 4650   1.136   3.626   6.212
 1426SOL     OW 4651   1.010   2.355   5.615
 1426SOL    HW1 4652   0.974   2.442   5.582
 1426SOL    HW2 4653   1.082   2.372   5.682
 1427SOL     OW 4654   0.904   2.365   6.294
 1427SOL    HW1 4655   0.810   2.397   6.286
 1427SOL    HW2 4656   0.922   2.297   6.223
 1428SOL     OW 4657   0.940   1.775   6.293
 1428SOL    HW1 4658   0.903   1.830   6.218
 1428SOL    HW2 4659   0.893   1.687   6.296
 1429SOL     OW 4660   1.783   2.696   5.977
 1429SOL    HW1 4661   1.848   2.666   6.047
 1429SOL    HW2 4662   1.794   2.640   5.895
 1430SOL     OW 4663   0.470   3.319   5.780
 1430SOL    HW1 4664   0.401   3.273   5.836
 1430SOL    HW2 4665   0.427   3.350   5.695
 1431SOL     OW 4666   1.774   3.123   6.154
 1431SOL    HW1 4667   1.839   3.055   6.188
 1431SOL    HW2 4668   1.793   3.212   6.197
 1432SOL     OW 4669   1.388   2.454   5.617
 1432SOL    HW1 4670   1.339   2.417   5.696
 1432SOL    HW2 4671   1.487   2.447   5.633
 1433SOL     OW 4672   0.539   2.138   5.888
 1433SOL    HW1 4673   0.596   2.082   5.829
 1433SOL    HW2 4674   0.507   2.218   5.838
 1434SOL     OW 4675   0.704   2.913   5.989
 1434SOL    HW1 4676   0.683   2.882   6.082
 1434SOL    HW2 4677   0.792   2.875   5.961
 1435SOL     OW 4678   0.276   2.996   6.071
 1435SOL    HW1 4679   0.266   3.081   6.019
 1435SOL    HW2 4680   0.299   2.921   6.009
 1436SOL     OW 4681   0.448   2.359   6.406
 1436SOL    HW1 4682   0.487   2.432   6.350
 1436SOL    HW2 4683   0.455   2.384   0.003
 1437SOL     OW 4684   1.231   3.222   5.968
 1437SOL    HW1 4685   1.300   3.285   6.004
 1437SOL    HW2 4686   1.141   3.248   6.003
 1438SOL     OW 4687   1.585   2.526   6.074
 1438SOL    HW1 4688   1.519   2.575   6.132
 1438SOL    HW2 4689   1.649   2.591   6.034
 1439SOL     OW 4690   1.202   2.387   5.813
 1439SOL    HW1 4691   1.217   2.310   5.876
 1439SOL    HW2 4692   1.170   2.466   5.865
 1440SOL     OW 4693   0.340   1.974   6.245
 1440SOL    HW1 4694   0.299   2.064   6.260
 1440SOL    HW2 4695   0.344   1.924   6.331
 1441SOL     OW 4696   1.608   2.298   5.915
 1441SOL    HW1 4697   1.655   2.226   5.968
 1441SOL    HW2 4698   1.584   2.373   5.976
 1442SOL     OW 4699   1.490   2.159   5.700
 1442SOL    HW1 4700   1.437   2.083   5.737
 1442SOL    HW2 4701   1.531   2.210   5.775
 1443SOL     OW 4702   1.250   2.682   5.570
 1443SOL    HW1 4703   1.294   2.593   5.585
 1443SOL    HW2 4704   1.293   2.727   5.492
 1444SOL     OW 4705   1.120   3.288   6.337
 1444SOL    HW1 4706   1.105   3.190   6.328
 1444SOL    HW2 4707   1.140   3.328   6.248
 1445SOL     OW 4708   0.011   3.122   5.746
 1445SOL    HW1 4709   6.420   3.115   5.704
 1445SOL    HW2 4710   0.036   3.034   5.787
 1446SOL     OW 4711   0.007   3.673   0.036
 1446SOL    HW1 4712   0.047   3.600   0.092
 1446SOL    HW2 4713   0.065   3.690   6.457
 1447SOL     OW 4714   0.845   2.474   5.895
 1447SOL    HW1 4715   0.843   2.379   5.865
 1447SOL    HW2 4716   0.756   2.516   5.878
 1448SOL     OW 4717   0.445   2.347   5.737
 1448SOL    HW1 4718   0.506   2.423   5.756
 1448SOL    HW2 4719   0.350   2.378   5.744
 1449SOL     OW 4720   1.300   2.730   5.836
 1449SOL    HW1 4721   1.230   2.691   5.896
 1449SOL    HW2 4722   1.275   2.714   5.741
 1450SOL     OW 4723   1.761   2.093   6.028
 1450SOL    HW1 4724   1.814   2.078   5.945
 1450SOL    HW2 4725   1.708   2.011   6.050
 1451SOL     OW 4726   1.397   3.414   6.086
 1451SOL    HW1 4727   1.460   3.451   6.018
 1451SOL    HW2 4728   1.332   3.484   6.113
 1452SOL     OW 4729   1.257   2.816   6.265
 1452SOL    HW1 4730   1.326   2.744   6.263
 1452SOL    HW2 4731   1.284   2.891   6.204
 1453SOL     OW 4732   0.688   3.484   5.775
 1453SOL    HW1 4733   0.702   3.513   5.681
 1453SOL    HW2 4734   0.620   3.411   5.777
 1454SOL     OW 4735   1.781   2.132   0.080
 1454SOL    HW1 4736   1.816   2.073   0.007
 1454SOL    HW2 4737   1.682   2.145   0.068
 1455SOL     OW 4738   0.239   2.226   6.285
 1455SOL    HW1 4739   0.147   2.253   6.313
 1455SOL    HW2 4740   0.307   2.281   6.334
 1456SOL     OW 4741   1.203   3.457   5.605
 1456SOL    HW1 4742   1.190   3.365   5.641
 1456SOL    HW2 4743   1.138   3.474   5.531
 1457SOL     OW 4744   0.937   2.814   5.899
 1457SOL    HW1 4745   0.960   2.821   5.802
 1457SOL    HW2 4746   0.994   2.743   5.941
 1458SOL     OW 4747   1.475   3.519   5.640
 1458SOL    HW1 4748   1.379   3.498   5.620
 1458SOL    HW2 4749   1.525   3.528   5.554
 1459SOL     OW 4750   1.061   3.024   6.316
 1459SOL    HW1 4751   0.974   2.987   6.347
 1459SOL    HW2 4752   1.124   2.949   6.296
 1460SOL     OW 4753   0.629   3.372   6.080
 1460SOL    HW1 4754   0.666   3.307   6.014
 1460SOL    HW2 4755   0.568   3.436   6.034
 1461SOL     OW 4756   0.233   3.218   5.913
 1461SOL    HW1 4757   0.150   3.196   5.861
 1461SOL    HW2 4758   0.209   3.276   5.991
 1462SOL     OW 4759   0.115   2.158   5.496
 1462SOL    HW1 4760   0.015   2.166   5.504
 1462SOL    HW2 4761   0.153   2.247   5.470
 1463SOL     OW 4762   0.070   1.996   5.941
 1463SOL    HW1 4763   0.098   2.080   5.988
 1463SOL    HW2 4764   0.151   1.953   5.901
 1464SOL     OW 4765   1.155   3.198   5.700
 1464SOL    HW1 4766   1.055   3.186   5.697
 1464SOL    HW2 4767   1.186   3.198   5.795
 1465SOL     OW 4768   1.224   2.203   6.021
 1465SOL    HW1 4769   1.265   2.112   6.017
 1465SOL    HW2 4770   1.260   2.253   6.101
 1466SOL     OW 4771   0.550   2.567   6.251
 1466SOL    HW1 4772   0.591   2.658   6.259
 1466SOL    HW2 4773   0.490   2.564   6.171
 1467SOL     OW 4774   0.875   3.201   5.684
 1467SOL    HW1 4775   0.831   3.207   5.773
 1467SOL    HW2 4776   0.832   3.266   5.621
 1468SOL     OW 4777   0.673   3.720   0.027
 1468SOL    HW1 4778   0.625   3.808   0.021
 1468SOL    HW2 4779   0.771   3.736   0.026
 1469SOL     OW 4780   0.837   2.907   6.449
 1469SOL    HW1 4781   0.914   2.878   0.005
 1469SOL    HW2 4782   0.779   2.969   0.001
 1470SOL     OW 4783   1.015   2.802   5.637
 1470SOL    HW1 4784   0.996   2.877   5.574
 1470SOL    HW2 4785   1.103   2.760   5.614
 1471SOL     OW 4786   1.822   3.362   6.301
 1471SOL    HW1 4787   1.722   3.371   6.301
 1471SOL    HW2 4788   1.858   3.385   6.391
 1472SOL     OW 4789   0.075   2.951   6.265
 1472SOL    HW1 4790   0.122   2.992   6.343
 1472SOL    HW2 4791   0.131   2.963   6.183
 1473SOL     OW 4792   0.366   2.294   6.046
 1473SOL    HW1 4793   0.423   2.222   6.008
 1473SOL    HW2 4794   0.321   2.260   6.129
 1474SOL     OW 4795   0.824   3.419   6.270
 1474SOL    HW1 4796   0.759   3.429   6.195
 1474SOL    HW2 4797   0.787   3.354   6.337
 1475SOL     OW 4798   0.776   3.181   5.940
 1475SOL    HW1 4799   0.748   3.087   5.961
 1475SOL    HW2 4800   0.859   3.203   5.992
 1476SOL     OW 4801   1.342   1.922   5.748
 1476SOL    HW1 4802   1.406   1.861   5.703
 1476SOL    HW2 4803   1.252   1.878   5.756
 1477SOL     OW 4804   1.299   2.326   6.251
 1477SOL    HW1 4805   1.243   2.409   6.248
 1477SOL    HW2 4806   1.275   2.273   6.332
 1478SOL     OW 4807   0.072   2.878   5.847
 1478SOL    HW1 4808   0.168   2.851   5.848
 1478SOL    HW2 4809   0.022   2.824   5.914
 1479SOL     OW 4810   0.908   3.563   5.930
 1479SOL    HW1 4811   0.830   3.535   5.876
 1479SOL    HW2 4812   0.886   3.646   5.981
 1480SOL     OW 4813   0.229   4.411   0.152
 1480SOL    HW1 4814   0.149   4.392   0.209
 1480SOL    HW2 4815   0.199   4.444   0.062
 1481SOL     OW 4816   0.216   4.009   0.987
 1481SOL    HW1 4817   0.269   3.950   1.048
 1481SOL    HW2 4818   0.140   4.049   1.039
 1482SOL     OW 4819   6.450   4.083   0.696
 1482SOL    HW1 4820   6.383   4.142   0.652
 1482SOL    HW2 4821   6.433   3.988   0.670
 1483SOL     OW 4822   0.591   5.059   1.224
 1483SOL    HW1 4823   0.505   5.056   1.173
 1483SOL    HW2 4824   0.613   5.154   1.247
 1484SOL     OW 4825   1.619   5.234   0.708
 1484SOL    HW1 4826   1.567   5.204   0.788
 1484SOL    HW2 4827   1.557   5.249   0.631
 1485SOL     OW 4828   1.127   4.454   0.671
 1485SOL    HW1 4829   1.180   4.536   0.653
 1485SOL    HW2 4830   1.081   4.462   0.760
 1486SOL     OW 4831   1.636   4.258   0.128
 1486SOL    HW1 4832   1.699   4.327   0.165
 1486SOL    HW2 4833   1.619   4.189   0.197
 1487SOL     OW 4834   0.726   4.848   1.092
 1487SOL    HW1 4835   0.662   4.895   1.153
 1487SOL    HW2 4836   0.771   4.916   1.034
 1488SOL     OW 4837   0.930   4.413   1.728
 1488SOL    HW1 4838   0.951   4.461   1.814
 1488SOL    HW2 4839   0.927   4.480   1.654
 1489SOL     OW 4840   0.671   4.668   0.712
 1489SOL    HW1 4841   0.748   4.684   0.774
 1489SOL    HW2 4842   0.599   4.736   0.730
 1490SOL     OW 4843   0.713   4.891   1.833
 1490SOL    HW1 4844   0.775   4.956   1.876
 1490SOL    HW2 4845   0.640   4.940   1.786
 1491SOL     OW 4846   0.364   5.115   1.076
 1491SOL    HW1 4847   0.275   5.083   1.044
 1491SOL    HW2 4848   0.407   5.172   1.005
 1492SOL     OW 4849   1.431   5.208   1.383
 1492SOL    HW1 4850   1.493   5.286   1.395
 1492SOL    HW2 4851   1.352   5.218   1.443
 1493SOL     OW 4852   0.477   4.080   1.415
 1493SOL    HW1 4853   0.560   4.032   1.443
 1493SOL    HW2 4854   0.397   4.036   1.455
 1494SOL     OW 4855   1.597   4.190   0.730
 1494SOL    HW1 4856   1.599   4.232   0.639
 1494SOL    HW2 4857   1.549   4.251   0.794
 1495SOL     OW 4858   0.192   5.420   0.434
 1495SOL    HW1 4859   0.180   5.501   0.491
 1495SOL    HW2 4860   0.288   5.413   0.406
 1496SOL     OW 4861   1.118   5.050   1.705
 1496SOL    HW1 4862   1.171   5.038   1.789
 1496SOL    HW2 4863   1.060   4.969   1.691
 1497SOL     OW 4864   0.252   5.154   0.496
 1497SOL    HW1 4865   0.208   5.244   0.499
 1497SOL    HW2 4866   0.205   5.092   0.560
 1498SOL     OW 4867   0.243   4.834   0.885
 1498SOL    HW1 4868   0.233   4.742   0.923
 1498SOL    HW2 4869   0.193   4.899   0.942
 1499SOL     OW 4870   0.579   5.565   1.414
 1499SOL    HW1 4871   0.503   5.538   1.473
 1499SOL    HW2 4872   0.626   5.643   1.454
 1500SOL     OW 4873   0.586   4.735   0.236
 1500SOL    HW1 4874   0.622   4.802   0.172
 1500SOL    HW2 4875   0.625   4.751   0.327
 1501SOL     OW 4876   1.570   3.860   1.472
 1501SOL    HW1 4877   1.629   3.934   1.441
 1501SOL    HW2 4878   1.525   3.887   1.557
 1502SOL     OW 4879   0.147   4.519   0.465
 1502SOL    HW1 4880   0.082   4.466   0.411
 1502SOL    HW2 4881   0.131   4.503   0.562
 1503SOL     OW 4882   1.861   5.453   0.300
 1503SOL    HW1 4883   1.932   5.443   0.370
 1503SOL    HW2 4884   1.852   5.549   0.276
 1504SOL     OW 4885   0.112   5.321   0.184
 1504SOL    HW1 4886   0.090   5.224   0.192
 1504SOL    HW2 4887   0.130   5.359   0.275
 1505SOL     OW 4888   1.706   4.655   0.659
 1505SOL    HW1 4889   1.796   4.611   0.660
 1505SOL    HW2 4890   1.695   4.707   0.574
 1506SOL     OW 4891   1.687   4.821   0.438
 1506SOL    HW1 4892   1.756   4.802   0.368
 1506SOL    HW2 4893   1.717   4.899   0.493
 1507SOL     OW 4894   0.236   4.441   1.530
 1507SOL    HW1 4895   0.334   4.450   1.551
 1507SOL    HW2 4896   0.210   4.511   1.464
 1508SOL     OW 4897   0.628   5.089   0.743
 1508SOL    HW1 4898   0.578   5.002   0.744
 1508SOL    HW2 4899   0.608   5.139   0.659
 1509SOL     OW 4900   1.243   4.925   1.420
 1509SOL    HW1 4901   1.263   4.856   1.351
 1509SOL    HW2 4902   1.313   4.922   1.491
 1510SOL     OW 4903   0.805   3.716   0.475
 1510SOL    HW1 4904   0.862   3.798   0.469
 1510SOL    HW2 4905   0.709   3.742   0.465
 1511SOL     OW 4906   0.173   4.624   1.311
 1511SOL    HW1 4907   0.270   4.607   1.290
 1511SOL    HW2 4908   0.116   4.577   1.244
 1512SOL     OW 4909   1.475   4.781   0.264
 1512SOL    HW1 4910   1.413   4.706   0.289
 1512SOL    HW2 4911   1.553   4.781   0.326
 1513SOL     OW 4912   1.176   5.515   1.627
 1513SOL    HW1 4913   1.190   5.586   1.558
 1513SOL    HW2 4914   1.187   5.425   1.585
 1514SOL     OW 4915   0.351   3.986   1.893
 1514SOL    HW1 4916   0.390   4.070   1.932
 1514SOL    HW2 4917   0.266   4.007   1.847
 1515SOL     OW 4918   1.452   5.147   0.908
 1515SOL    HW1 4919   1.400   5.171   0.990
 1515SOL    HW2 4920   1.435   5.051   0.886
 1516SOL     OW 4921   1.672   5.503   0.580
 1516SOL    HW1 4922   1.640   5.464   0.493
 1516SOL    HW2 4923   1.675   5.431   0.649
 1517SOL     OW 4924   0.612   4.462   0.302
 1517SOL    HW1 4925   0.616   4.556   0.269
 1517SOL    HW2 4926   0.544   4.455   0.374
 1518SOL     OW 4927   1.278   4.136   0.932
 1518SOL    HW1 4928   1.189   4.090   0.931
 1518SOL    HW2 4929   1.339   4.087   0.994
 1519SOL     OW 4930   1.596   5.396   0.332
 1519SOL    HW1 4931   1.694   5.404   0.318
 1519SOL    HW2 4932   1.550   5.390   0.243
 1520SOL     OW 4933   0.784   4.293   1.429
 1520SOL    HW1 4934   0.745   4.266   1.517
 1520SOL    HW2 4935   0.758   4.226   1.359
 1521SOL     OW 4936   1.355   4.197   1.663
 1521SOL    HW1 4937   1.366   4.240   1.753
 1521SOL    HW2 4938   1.397   4.106   1.666
 1522SOL     OW 4939   0.948   4.618   1.533
 1522SOL    HW1 4940   0.997   4.547   1.482
 1522SOL    HW2 4941   0.899   4.677   1.469
 1523SOL     OW 4942   1.003   4.111   1.177
 1523SOL    HW1 4943   0.907   4.119   1.201
 1523SOL    HW2 4944   1.012   4.068   1.087
 1524SOL     OW 4945   1.079   4.424   0.404
 1524SOL    HW1 4946   1.092   4.425   0.503
 1524SOL    HW2 4947   0.991   4.380   0.382
 1525SOL     OW 4948   0.129   4.463   0.735
 1525SOL    HW1 4949   0.205   4.495   0.791
 1525SOL    HW2 4950   0.079   4.392   0.784
 1526SOL     OW 4951   0.132   5.625   1.656
 1526SOL    HW1 4952   0.132   5.608   1.755
 1526SOL    HW2 4953   0.069   5.561   1.612
 1527SOL     OW 4954   0.843   3.981   0.208
 1527SOL    HW1 4955   0.875   4.065   0.165
 1527SOL    HW2 4956   0.866   3.903   0.150
 1528SOL     OW 4957   1.650   4.279   1.830
 1528SOL    HW1 4958   1.638   4.359   1.772
 1528SOL    HW2 4959   1.678   4.201   1.775
 1529SOL     OW 4960   1.420   4.904   0.565
 1529SOL    HW1 4961   1.502   4.886   0.510
 1529SOL    HW2 4962   1.359   4.965   0.514
 1530SOL     OW 4963   0.547   3.884   0.904
 1530SOL    HW1 4964   0.560   3.896   1.003
 1530SOL    HW2 4965   0.554   3.973   0.859
 1531SOL     OW 4966   0.990   5.178   0.480
 1531SOL    HW1 4967   0.980   5.256   0.419
 1531SOL    HW2 4968   0.953   5.200   0.570
 1532SOL     OW 4969   0.402   5.519   0.833
 1532SOL    HW1 4970   0.437   5.428   0.854
 1532SOL    HW2 4971   0.464   5.588   0.869
 1533SOL     OW 4972   1.790   4.784   0.890
 1533SOL    HW1 4973   1.746   4.755   0.805
 1533SOL    HW2 4974   1.721   4.788   0.963
 1534SOL     OW 4975   1.188   5.245   1.517
 1534SOL    HW1 4976   1.179   5.176   1.589
 1534SOL    HW2 4977   1.130   5.221   1.440
 1535SOL     OW 4978   0.323   4.673   0.188
 1535SOL    HW1 4979   0.420   4.691   0.205
 1535SOL    HW2 4980   0.307   4.574   0.188
 1536SOL     OW 4981   1.483   4.503   0.684
 1536SOL    HW1 4982   1.475   4.454   0.771
 1536SOL    HW2 4983   1.566   4.557   0.684
 1537SOL     OW 4984   0.498   5.049   1.720
 1537SOL    HW1 4985   0.482   5.057   1.622
 1537SOL    HW2 4986   0.411   5.041   1.768
 1538SOL     OW 4987   1.134   5.498   0.182
 1538SOL    HW1 4988   1.068   5.468   0.251
 1538SOL    HW2 4989   1.165   5.419   0.130
 1539SOL     OW 4990   0.219   3.965   1.475
 1539SOL    HW1 4991   0.179   4.057   1.469
 1539SOL    HW2 4992   0.197   3.925   1.564
 1540SOL     OW 4993   1.632   5.118   0.132
 1540SOL    HW1 4994   1.596   5.211   0.129
 1540SOL    HW2 4995   1.559   5.053   0.113
 1541SOL     OW 4996   0.447   5.419   0.340
 1541SOL    HW1 4997   0.522   5.482   0.358
 1541SOL    HW2 4998   0.474   5.354   0.269
 1542SOL     OW 4999   1.414   3.827   0.451
 1542SOL    HW1 5000   1.407   3.786   0.360
 1542SOL    HW2 5001   1.509   3.852   0.469
 1543SOL     OW 5002   0.168   5.494   1.206
 1543SOL    HW1 5003   0.240   5.429   1.230
 1543SOL    HW2 5004   0.159   5.498   1.106
 1544SOL     OW 5005   0.971   5.414   0.878
 1544SOL    HW1 5006   1.063   5.377   0.891
 1544SOL    HW2 5007   0.922   5.358   0.812
 1545SOL     OW 5008   0.402   4.415   0.473
 1545SOL    HW1 5009   0.390   4.316   0.481
 1545SOL    HW2 5010   0.312   4.459   0.467
 1546SOL     OW 5011   1.461   3.942   1.717
 1546SOL    HW1 5012   1.480   3.958   1.814
 1546SOL    HW2 5013   1.381   3.882   1.708
 1547SOL     OW 5014   0.767   3.997   1.767
 1547SOL    HW1 5015   0.865   3.981   1.779
 1547SOL    HW2 5016   0.718   3.962   1.846
 1548SOL     OW 5017   0.869   5.242   1.173
 1548SOL    HW1 5018   0.844   5.186   1.094
 1548SOL    HW2 5019   0.933   5.192   1.231
 1549SOL     OW 5020   1.296   4.315   1.424
 1549SOL    HW1 5021   1.331   4.282   1.512
 1549SOL    HW2 5022   1.333   4.406   1.405
 1550SOL     OW 5023   0.817   5.068   0.953
 1550SOL    HW1 5024   0.908   5.080   0.912
 1550SOL    HW2 5025   0.747   5.074   0.881
 1551SOL     OW 5026   0.910   4.228   0.848
 1551SOL    HW1 5027   0.890   4.223   0.750
 1551SOL    HW2 5028   0.946   4.140   0.880
 1552SOL     OW 5029   0.546   3.790   0.438
 1552SOL    HW1 5030   0.465   3.787   0.497
 1552SOL    HW2 5031   0.546   3.875   0.385
 1553SOL     OW 5032   1.412   4.968   0.080
 1553SOL    HW1 5033   1.440   4.892   0.139
 1553SOL    HW2 5034   1.315   4.988   0.094
 1554SOL     OW 5035   0.278   3.773   0.217
 1554SOL    HW1 5036   0.305   3.774   0.121
 1554SOL    HW2 5037   0.327   3.700   0.265
 1555SOL     OW 5038   0.960   3.944   0.456
 1555SOL    HW1 5039   0.915   3.962   0.368
 1555SOL    HW2 5040   1.055   3.973   0.450
 1556SOL     OW 5041   1.036   4.405   1.394
 1556SOL    HW1 5042   0.963   4.340   1.413
 1556SOL    HW2 5043   1.125   4.359   1.403
 1557SOL     OW 5044   1.231   5.306   0.795
 1557SOL    HW1 5045   1.247   5.381   0.732
 1557SOL    HW2 5046   1.319   5.267   0.824
 1558SOL     OW 5047   0.472   4.860   0.727
 1558SOL    HW1 5048   0.396   4.855   0.792
 1558SOL    HW2 5049   0.438   4.847   0.634
 1559SOL     OW 5050   1.270   5.523   0.615
 1559SOL    HW1 5051   1.324   5.588   0.562
 1559SOL    HW2 5052   1.187   5.567   0.648
 1560SOL     OW 5053   0.954   4.202   0.089
 1560SOL    HW1 5054   0.949   4.211   6.490
 1560SOL    HW2 5055   1.049   4.215   0.119
 1561SOL     OW 5056   0.113   4.213   1.432
 1561SOL    HW1 5057   0.173   4.288   1.459
 1561SOL    HW2 5058   0.018   4.243   1.440
 1562SOL     OW 5059   0.576   3.902   1.175
 1562SOL    HW1 5060   0.613   3.825   1.227
 1562SOL    HW2 5061   0.478   3.911   1.195
 1563SOL     OW 5062   0.873   4.186   0.580
 1563SOL    HW1 5063   0.848   4.242   0.501
 1563SOL    HW2 5064   0.903   4.096   0.549
 1564SOL     OW 5065   1.041   3.815   0.709
 1564SOL    HW1 5066   1.000   3.853   0.626
 1564SOL    HW2 5067   0.983   3.743   0.746
 1565SOL     OW 5068   1.411   4.881   0.850
 1565SOL    HW1 5069   1.328   4.828   0.867
 1565SOL    HW2 5070   1.429   4.886   0.752
 1566SOL     OW 5071   1.451   4.354   0.917
 1566SOL    HW1 5072   1.382   4.283   0.928
 1566SOL    HW2 5073   1.518   4.347   0.991
 1567SOL     OW 5074   0.495   5.216   0.161
 1567SOL    HW1 5075   0.464   5.133   0.206
 1567SOL    HW2 5076   0.442   5.231   0.078
 1568SOL     OW 5077   1.771   5.019   0.598
 1568SOL    HW1 5078   1.866   5.016   0.627
 1568SOL    HW2 5079   1.727   5.100   0.636
 1569SOL     OW 5080   1.391   4.356   0.052
 1569SOL    HW1 5081   1.321   4.305   0.101
 1569SOL    HW2 5082   1.482   4.326   0.082
 1570SOL     OW 5083   0.570   4.033   0.300
 1570SOL    HW1 5084   0.666   4.024   0.274
 1570SOL    HW2 5085   0.533   4.119   0.266
 1571SOL     OW 5086   1.732   4.939   1.520
 1571SOL    HW1 5087   1.823   4.900   1.506
 1571SOL    HW2 5088   1.741   5.031   1.558
 1572SOL     OW 5089   1.026   5.075   1.342
 1572SOL    HW1 5090   0.940   5.052   1.385
 1572SOL    HW2 5091   1.100   5.019   1.381
 1573SOL     OW 5092   1.605   5.340   1.684
 1573SOL    HW1 5093   1.578   5.379   1.596
 1573SOL    HW2 5094   1.685   5.281   1.671
 1574SOL     OW 5095   1.144   4.986   1.107
 1574SOL    HW1 5096   1.084   5.014   1.182
 1574SOL    HW2 5097   1.107   5.019   1.020
 1575SOL     OW 5098   1.584   4.810   1.072
 1575SOL    HW1 5099   1.575   4.873   1.148
 1575SOL    HW2 5100   1.515   4.831   1.003
 1576SOL     OW 5101   0.931   3.797   1.379
 1576SOL    HW1 5102   0.952   3.778   1.283
 1576SOL    HW2 5103   1.002   3.854   1.419
 1577SOL     OW 5104   0.958   4.821   1.716
 1577SOL    HW1 5105   0.865   4.840   1.745
 1577SOL    HW2 5106   0.958   4.749   1.647
 1578SOL     OW 5107   0.729   4.775   0.465
 1578SOL    HW1 5108   0.708   4.730   0.552
 1578SOL    HW2 5109   0.812   4.735   0.426
 1579SOL     OW 5110   0.433   4.549   1.270
 1579SOL    HW1 5111   0.511   4.559   1.332
 1579SOL    HW2 5112   0.411   4.452   1.260
 1580SOL     OW 5113   1.250   4.090   1.282
 1580SOL    HW1 5114   1.275   4.174   1.329
 1580SOL    HW2 5115   1.160   4.101   1.240
 1581SOL     OW 5116   6.480   5.315   1.310
 1581SOL    HW1 5117   0.045   5.378   1.268
 1581SOL    HW2 5118   0.013   5.222   1.300
 1582SOL     OW 5119   0.353   4.813   0.479
 1582SOL    HW1 5120   0.364   4.876   0.402
 1582SOL    HW2 5121   0.330   4.722   0.444
 1583SOL     OW 5122   0.574   4.164   0.834
 1583SOL    HW1 5123   0.569   4.231   0.760
 1583SOL    HW2 5124   0.632   4.199   0.908
 1584SOL     OW 5125   1.249   5.092   0.441
 1584SOL    HW1 5126   1.311   5.166   0.467
 1584SOL    HW2 5127   1.156   5.116   0.467
 1585SOL     OW 5128   1.318   5.196   1.136
 1585SOL    HW1 5129   1.361   5.201   1.226
 1585SOL    HW2 5130   1.256   5.118   1.133
 1586SOL     OW 5131   1.602   4.326   0.491
 1586SOL    HW1 5132   1.544   4.398   0.529
 1586SOL    HW2 5133   1.673   4.367   0.434
 1587SOL     OW 5134   0.357   5.303   1.271
 1587SOL    HW1 5135   0.348   5.232   1.201
 1587SOL    HW2 5136   0.454   5.325   1.284
 1588SOL     OW 5137   0.502   4.450   1.631
 1588SOL    HW1 5138   0.552   4.495   1.557
 1588SOL    HW2 5139   0.555   4.371   1.664
 1589SOL     OW 5140   1.615   4.501   1.677
 1589SOL    HW1 5141   1.521   4.537   1.676
 1589SOL    HW2 5142   1.665   4.538   1.599
 1590SOL     OW 5143   1.035   3.962   1.811
 1590SOL    HW1 5144   1.057   4.042   1.756
 1590SOL    HW2 5145   1.102   3.889   1.791
 1591SOL     OW 5146   0.502   3.783   1.783
 1591SOL    HW1 5147   0.457   3.736   1.708
 1591SOL    HW2 5148   0.446   3.861   1.812
 1592SOL     OW 5149   0.581   4.593   1.041
 1592SOL    HW1 5150   0.629   4.681   1.047
 1592SOL    HW2 5151   0.526   4.579   1.123
 1593SOL     OW 5152   1.275   4.571   0.988
 1593SOL    HW1 5153   1.185   4.535   0.965
 1593SOL    HW2 5154   1.345   4.505   0.961
 1594SOL     OW 5155   1.196   4.240   0.228
 1594SOL    HW1 5156   1.224   4.157   0.277
 1594SOL    HW2 5157   1.167   4.309   0.294
 1595SOL     OW 5158   0.307   3.886   1.220
 1595SOL    HW1 5159   0.285   3.922   1.311
 1595SOL    HW2 5160   0.256   3.801   1.205
 1596SOL     OW 5161   0.054   5.048   1.297
 1596SOL    HW1 5162   0.126   4.995   1.343
 1596SOL    HW2 5163   6.466   5.027   1.340
 1597SOL     OW 5164   0.707   4.330   1.019
 1597SOL    HW1 5165   0.779   4.319   0.952
 1597SOL    HW2 5166   0.662   4.418   1.006
 1598SOL     OW 5167   1.752   4.669   1.852
 1598SOL    HW1 5168   1.706   4.601   1.796
 1598SOL    HW2 5169   1.693   4.695   1.928
 1599SOL     OW 5170   0.320   3.779   0.601
 1599SOL    HW1 5171   0.278   3.867   0.625
 1599SOL    HW2 5172   0.335   3.726   0.685
 1600SOL     OW 5173   1.578   4.095   0.345
 1600SOL    HW1 5174   1.626   4.022   0.394
 1600SOL    HW2 5175   1.579   4.178   0.400
 1601SOL     OW 5176   1.019   4.464   0.930
 1601SOL    HW1 5177   0.989   4.478   1.024
 1601SOL    HW2 5178   0.988   4.374   0.898
 1602SOL     OW 5179   0.988   5.285   1.781
 1602SOL    HW1 5180   0.962   5.352   1.711
 1602SOL    HW2 5181   1.017   5.200   1.736
 1603SOL     OW 5182   1.822   5.192   1.591
 1603SOL    HW1 5183   1.841   5.224   1.498
 1603SOL    HW2 5184   1.904   5.206   1.647
 1604SOL     OW 5185   0.408   4.654   1.796
 1604SOL    HW1 5186   0.476   4.674   1.865
 1604SOL    HW2 5187   0.441   4.580   1.737
 1605SOL     OW 5188   1.395   3.996   0.163
 1605SOL    HW1 5189   1.398   3.896   0.172
 1605SOL    HW2 5190   1.458   4.036   0.229
 1606SOL     OW 5191   1.255   4.591   0.031
 1606SOL    HW1 5192   1.307   4.506   0.034
 1606SOL    HW2 5193   1.269   4.636   6.443
 1607SOL     OW 5194   1.070   5.091   0.862
 1607SOL    HW1 5195   1.090   5.005   0.814
 1607SOL    HW2 5196   1.127   5.164   0.825
 1608SOL     OW 5197   0.320   4.517   0.943
 1608SOL    HW1 5198   0.411   4.558   0.950
 1608SOL    HW2 5199   0.328   4.418   0.952
 1609SOL     OW 5200   0.355   4.245   0.976
 1609SOL    HW1 5201   0.290   4.169   0.975
 1609SOL    HW2 5202   0.433   4.223   0.918
 1610SOL     OW 5203   1.080   4.181   1.656
 1610SOL    HW1 5204   1.027   4.263   1.680
 1610SOL    HW2 5205   1.177   4.202   1.658
 1611SOL     OW 5206   1.122   3.961   1.488
 1611SOL    HW1 5207   1.093   4.040   1.542
 1611SOL    HW2 5208   1.178   3.992   1.411
 1612SOL     OW 5209   0.104   5.032   0.124
 1612SOL    HW1 5210   0.029   5.060   0.063
 1612SOL    HW2 5211   0.074   4.954   0.180
 1613SOL     OW 5212   0.147   5.523   0.931
 1613SOL    HW1 5213   0.079   5.480   0.871
 1613SOL    HW2 5214   0.237   5.514   0.889
 1614SOL     OW 5215   0.511   5.277   0.908
 1614SOL    HW1 5216   0.584   5.337   0.938
 1614SOL    HW2 5217   0.549   5.207   0.847
 1615SOL     OW 5218   0.905   4.494   1.170
 1615SOL    HW1 5219   0.959   4.471   1.251
 1615SOL    HW2 5220   0.824   4.436   1.167
 1616SOL     OW 5221   0.048   4.145   1.156
 1616SOL    HW1 5222   0.101   4.175   1.235
 1616SOL    HW2 5223   6.452   4.135   1.182
 1617SOL     OW 5224   0.217   4.323   1.780
 1617SOL    HW1 5225   0.314   4.331   1.800
 1617SOL    HW2 5226   0.197   4.369   1.692
 1618SOL     OW 5227   1.379   4.633   1.630
 1618SOL    HW1 5228   1.400   4.731   1.633
 1618SOL    HW2 5229   1.367   4.604   1.535
 1619SOL     OW 5230   0.842   4.311   0.327
 1619SOL    HW1 5231   0.870   4.278   0.237
 1619SOL    HW2 5232   0.761   4.369   0.318
 1620SOL     OW 5233   1.640   4.324   1.117
 1620SOL    HW1 5234   1.615   4.242   1.167
 1620SOL    HW2 5235   1.740   4.331   1.112
 1621SOL     OW 5236   0.210   5.298   1.709
 1621SOL    HW1 5237   0.183   5.355   1.787
 1621SOL    HW2 5238   0.224   5.204   1.739
 1622SOL     OW 5239   0.732   4.133   1.212
 1622SOL    HW1 5240   0.671   4.053   1.204
 1622SOL    HW2 5241   0.706   4.201   1.143
 1623SOL     OW 5242   0.871   5.449   1.566
 1623SOL    HW1 5243   0.825   5.380   1.510
 1623SOL    HW2 5244   0.902   5.524   1.508
 1624SOL     OW 5245   0.466   4.265   0.183
 1624SOL    HW1 5246   0.529   4.334   0.220
 1624SOL    HW2 5247   0.373   4.302   0.179
 1625SOL     OW 5248   0.218   4.874   1.440
 1625SOL    HW1 5249   0.207   4.856   1.538
 1625SOL    HW2 5250   0.211   4.788   1.390
 1626SOL     OW 5251   1.262   4.752   1.193
 1626SOL    HW1 5252   1.269   4.685   1.119
 1626SOL    HW2 5253   1.219   4.836   1.159
 1627SOL     OW 5254   1.289   4.586   0.308
 1627SOL    HW1 5255   1.220   4.528   0.351
 1627SOL    HW2 5256   1.275   4.585   0.209
 1628SOL     OW 5257   1.745   5.418   1.156
 1628SOL    HW1 5258   1.817   5.448   1.094
 1628SOL    HW2 5259   1.714   5.326   1.130
 1629SOL     OW 5260   1.266   5.472   1.128
 1629SOL    HW1 5261   1.356   5.514   1.117
 1629SOL    HW2 5262   1.275   5.372   1.128
 1630SOL     OW 5263   0.108   5.033   1.023
 1630SOL    HW1 5264   0.078   5.036   1.118
 1630SOL    HW2 5265   0.045   5.087   0.967
 1631SOL     OW 5266   0.710   5.456   1.788
 1631SOL    HW1 5267   0.637   5.524   1.781
 1631SOL    HW2 5268   0.777   5.473   1.715
 1632SOL     OW 5269   0.947   3.768   0.035
 1632SOL    HW1 5270   0.957   3.741   6.440
 1632SOL    HW2 5271   1.017   3.724   0.090
 1633SOL     OW 5272   1.697   3.875   0.474
 1633SOL    HW1 5273   1.763   3.866   0.400
 1633SOL    HW2 5274   1.691   3.788   0.525
 1634SOL     OW 5275   1.418   5.303   0.519
 1634SOL    HW1 5276   1.477   5.332   0.443
 1634SOL    HW2 5277   1.363   5.380   0.550
 1635SOL     OW 5278   0.122   5.464   1.914
 1635SOL    HW1 5279   0.078   5.387   1.959
 1635SOL    HW2 5280   0.184   5.509   1.978
 1636SOL     OW 5281   1.281   4.676   0.639
 1636SOL    HW1 5282   1.353   4.609   0.651
 1636SOL    HW2 5283   1.317   4.757   0.592
 1637SOL     OW 5284   0.771   5.028   1.438
 1637SOL    HW1 5285   0.755   5.090   1.515
 1637SOL    HW2 5286   0.696   5.038   1.372
 1638SOL     OW 5287   0.741   5.336   0.149
 1638SOL    HW1 5288   0.717   5.422   0.105
 1638SOL    HW2 5289   0.660   5.277   0.154
 1639SOL     OW 5290   1.602   5.422   1.404
 1639SOL    HW1 5291   1.649   5.414   1.316
 1639SOL    HW2 5292   1.621   5.512   1.444
 1640SOL     OW 5293   1.828   3.890   0.961
 1640SOL    HW1 5294   1.861   3.801   0.929
 1640SOL    HW2 5295   1.745   3.914   0.912
 1641SOL     OW 5296   0.221   4.017   0.705
 1641SOL    HW1 5297   0.129   4.052   0.691
 1641SOL    HW2 5298   0.238   4.005   0.803
 1642SOL     OW 5299   1.225   5.271   0.058
 1642SOL    HW1 5300   1.213   5.187   0.111
 1642SOL    HW2 5301   1.197   5.255   6.463
 1643SOL     OW 5302   0.802   4.766   1.358
 1643SOL    HW1 5303   0.800   4.773   1.258
 1643SOL    HW2 5304   0.792   4.858   1.398
 1644SOL     OW 5305   0.946   4.667   0.350
 1644SOL    HW1 5306   0.984   4.708   0.267
 1644SOL    HW2 5307   0.997   4.585   0.374
 1645SOL     OW 5308   1.481   5.364   0.079
 1645SOL    HW1 5309   1.386   5.335   0.085
 1645SOL    HW2 5310   1.518   5.340   6.489
 1646SOL     OW 5311   0.399   5.088   1.471
 1646SOL    HW1 5312   0.375   5.165   1.412
 1646SOL    HW2 5313   0.338   5.011   1.451
 1647SOL     OW 5314   1.578   4.991   1.287
 1647SOL    HW1 5315   1.641   4.965   1.360
 1647SOL    HW2 5316   1.514   5.059   1.322
 1648SOL     OW 5317   1.102   4.837   0.775
 1648SOL    HW1 5318   1.019   4.791   0.807
 1648SOL    HW2 5319   1.155   4.775   0.718
 1649SOL     OW 5320   1.045   3.971   0.940
 1649SOL    HW1 5321   1.051   3.931   0.848
 1649SOL    HW2 5322   1.038   3.897   1.008
 1650SOL     OW 5323   0.597   5.233   0.515
 1650SOL    HW1 5324   0.642   5.168   0.454
 1650SOL    HW2 5325   0.520   5.276   0.467
 1651SOL     OW 5326   1.772   4.050   1.416
 1651SOL    HW1 5327   1.838   4.125   1.405
 1651SOL    HW2 5328   1.789   3.980   1.347
 1652SOL     OW 5329   0.339   5.020   0.283
 1652SOL    HW1 5330   0.262   5.019   0.220
 1652SOL    HW2 5331   0.315   5.071   0.365
 1653SOL     OW 5332   0.192   4.802   1.711
 1653SOL    HW1 5333   0.107   4.760   1.742
 1653SOL    HW2 5334   0.270   4.747   1.741
 1654SOL     OW 5335   0.706   3.929   1.501
 1654SOL    HW1 5336   0.789   3.897   1.458
 1654SOL    HW2 5337   0.725   3.954   1.596
 1655SOL     OW 5338   6.482   4.141   0.137
 1655SOL    HW1 5339   6.448   4.050   0.162
 1655SOL    HW2 5340   6.495   4.146   0.038
 1656SOL     OW 5341   1.382   4.570   1.364
 1656SOL    HW1 5342   1.322   4.630   1.311
 1656SOL    HW2 5343   1.473   4.569   1.323
 1657SOL     OW 5344   0.096   3.894   0.383
 1657SOL    HW1 5345   0.135   3.982   0.407
 1657SOL    HW2 5346   0.161   3.843   0.326
 1658SOL     OW 5347   1.155   5.027   0.176
 1658SOL    HW1 5348   1.064   5.063   0.156
 1658SOL    HW2 5349   1.175   5.039   0.273
 1659SOL     OW 5350   0.655   4.541   1.424
 1659SOL    HW1 5351   0.711   4.622   1.405
 1659SOL    HW2 5352   0.712   4.460   1.421
 1660SOL     OW 5353   1.516   5.582   1.096
 1660SOL    HW1 5354   1.540   5.641   1.019
 1660SOL    HW2 5355   1.596   5.528   1.122
 1661SOL     OW 5356   0.701   4.259   1.693
 1661SOL    HW1 5357   0.780   4.314   1.719
 1661SOL    HW2 5358   0.714   4.164   1.724
 1662SOL     OW 5359   1.460   4.896   1.617
 1662SOL    HW1 5360   1.452   4.920   1.713
 1662SOL    HW2 5361   1.553   4.916   1.585
 1663SOL     OW 5362   0.375   5.504   1.597
 1663SOL    HW1 5363   0.292   5.560   1.599
 1663SOL    HW2 5364   0.351   5.409   1.617
 1664SOL     OW 5365   1.622   4.582   1.229
 1664SOL    HW1 5366   1.630   4.496   1.180
 1664SOL    HW2 5367   1.611   4.657   1.164
 1665SOL     OW 5368   1.217   4.031   0.443
 1665SOL    HW1 5369   1.292   3.965   0.444
 1665SOL    HW2 5370   1.227   4.093   0.521
 1666SOL     OW 5371   0.563   4.410   0.700
 1666SOL    HW1 5372   0.609   4.498   0.709
 1666SOL    HW2 5373   0.501   4.412   0.621
 1667SOL     OW 5374   1.726   4.057   1.687
 1667SOL    HW1 5375   1.743   4.056   1.588
 1667SOL    HW2 5376   1.644   4.003   1.707
 1668SOL     OW 5377   1.732   4.636   1.474
 1668SOL    HW1 5378   1.718   4.733   1.494
 1668SOL    HW2 5379   1.698   4.616   1.382
 1669SOL     OW 5380   0.927   5.150   0.060
 1669SOL    HW1 5381   0.868   5.225   0.088
 1669SOL    HW2 5382   0.966   5.170   6.470
 1670SOL     OW 5383   0.703   5.462   0.951
 1670SOL    HW1 5384   0.675   5.557   0.939
 1670SOL    HW2 5385   0.801   5.453   0.935
 1671SOL     OW 5386   0.881   4.704   0.889
 1671SOL    HW1 5387   0.928   4.618   0.904
 1671SOL    HW2 5388   0.841   4.736   0.975
 1672SOL     OW 5389   1.065   4.763   0.123
 1672SOL    HW1 5390   1.107   4.853   0.136
 1672SOL    HW2 5391   1.135   4.699   0.091
 1673SOL     OW 5392   1.871   5.242   0.854
 1673SOL    HW1 5393   1.785   5.236   0.804
 1673SOL    HW2 5394   1.891   5.153   0.896
 1674SOL     OW 5395   0.251   5.048   1.824
 1674SOL    HW1 5396   0.215   4.964   1.783
 1674SOL    HW2 5397   0.241   5.044   1.923
 1675SOL     OW 5398   0.162   4.936   0.639
 1675SOL    HW1 5399   0.177   4.902   0.732
 1675SOL    HW2 5400   0.222   4.886   0.575
 1676SOL     OW 5401   0.712   5.202   1.646
 1676SOL    HW1 5402   0.632   5.152   1.677
 1676SOL    HW2 5403   0.722   5.286   1.700
 1677SOL     OW 5404   1.803   3.857   1.231
 1677SOL    HW1 5405   1.783   3.759   1.233
 1677SOL    HW2 5406   1.816   3.886   1.136
 1678SOL     OW 5407   0.376   4.146   0.506
 1678SOL    HW1 5408   0.445   4.086   0.464
 1678SOL    HW2 5409   0.334   4.100   0.583
 1679SOL     OW 5410   1.660   5.173   1.093
 1679SOL    HW1 5411   1.593   5.160   1.020
 1679SOL    HW2 5412   1.647   5.102   1.163
 1680SOL     OW 5413   0.392   4.287   1.250
 1680SOL    HW1 5414   0.425   4.210   1.305
 1680SOL    HW2 5415   0.380   4.257   1.155
 1681SOL     OW 5416   0.833   5.278   0.687
 1681SOL    HW1 5417   0.782   5.336   0.624
 1681SOL    HW2 5418   0.775   5.202   0.718
 1682SOL     OW 5419   1.436   3.996   1.107
 1682SOL    HW1 5420   1.457   3.899   1.117
 1682SOL    HW2 5421   1.375   4.025   1.181
 1683SOL     OW 5422   1.025   3.742   1.103
 1683SOL    HW1 5423   0.958   3.682   1.058
 1683SOL    HW2 5424   1.115   3.699   1.101
 1684SOL     OW 5425   0.755   5.039   0.397
 1684SOL    HW1 5426   0.744   4.945   0.431
 1684SOL    HW2 5427   0.846   5.073   0.420
 1685SOL     OW 5428   0.634   5.327   1.287
 1685SOL    HW1 5429   0.627   5.418   1.329
 1685SOL    HW2 5430   0.722   5.319   1.240
 1686SOL     OW 5431   1.384   3.721   0.199
 1686SOL    HW1 5432   1.440   3.656   0.148
 1686SOL    HW2 5433   1.288   3.693   0.194
 1687SOL     OW 5434   1.230   4.194   0.661
 1687SOL    HW1 5435   1.194   4.287   0.658
 1687SOL    HW2 5436   1.259   4.172   0.754
 1688SOL     OW 5437   1.577   3.952   0.873
 1688SOL    HW1 5438   1.526   3.982   0.953
 1688SOL    HW2 5439   1.579   4.025   0.805
 1689SOL     OW 5440   0.089   4.798   0.265
 1689SOL    HW1 5441   0.173   4.749   0.245
 1689SOL    HW2 5442   0.043   4.756   0.343
 1690SOL     OW 5443   0.929   5.403   0.340
 1690SOL    HW1 5444   0.857   5.380   0.274
 1690SOL    HW2 5445   0.896   5.476   0.401
 1691SOL     OW 5446   0.231   4.407   2.054
 1691SOL    HW1 5447   0.167   4.418   2.129
 1691SOL    HW2 5448   0.181   4.391   1.969
 1692SOL     OW 5449   0.202   4.013   2.832
 1692SOL    HW1 5450   0.247   3.949   2.894
 1692SOL    HW2 5451   0.128   4.060   2.881
 1693SOL     OW 5452   6.436   4.142   2.512
 1693SOL    HW1 5453   6.426   4.192   2.425
 1693SOL    HW2 5454   6.353   4.088   2.528
 1694SOL     OW 5455   0.593   5.056   3.077
 1694SOL    HW1 5456   0.511   5.054   3.020
 1694SOL    HW2 5457   0.614   5.151   3.102
 1695SOL     OW 5458   1.578   5.166   2.539
 1695SOL    HW1 5459   1.535   5.168   2.629
 1695SOL    HW2 5460   1.514   5.200   2.471
 1696SOL     OW 5461   1.134   4.433   2.541
 1696SOL    HW1 5462   1.185   4.517   2.522
 1696SOL    HW2 5463   1.079   4.445   2.624
 1697SOL     OW 5464   1.796   4.273   2.056
 1697SOL    HW1 5465   1.749   4.283   1.968
 1697SOL    HW2 5466   1.746   4.207   2.112
 1698SOL     OW 5467   0.727   4.849   2.934
 1698SOL    HW1 5468   0.667   4.891   3.002
 1698SOL    HW2 5469   0.774   4.921   2.883
 1699SOL     OW 5470   0.906   4.444   3.657
 1699SOL    HW1 5471   0.929   4.511   3.728
 1699SOL    HW2 5472   0.903   4.489   3.568
 1700SOL     OW 5473   0.688   4.679   2.528
 1700SOL    HW1 5474   0.763   4.692   2.593
 1700SOL    HW2 5475   0.612   4.740   2.551
 1701SOL     OW 5476   0.703   4.894   3.702
 1701SOL    HW1 5477   0.762   4.962   3.746
 1701SOL    HW2 5478   0.628   4.940   3.654
 1702SOL     OW 5479   0.374   5.112   2.915
 1702SOL    HW1 5480   0.282   5.087   2.883
 1702SOL    HW2 5481   0.418   5.171   2.848
 1703SOL     OW 5482   1.412   5.189   3.271
 1703SOL    HW1 5483   1.462   5.274   3.288
 1703SOL    HW2 5484   1.326   5.189   3.323
 1704SOL     OW 5485   0.473   4.083   3.272
 1704SOL    HW1 5486   0.562   4.041   3.289
 1704SOL    HW2 5487   0.401   4.025   3.310
 1705SOL     OW 5488   1.567   4.157   2.612
 1705SOL    HW1 5489   1.494   4.164   2.544
 1705SOL    HW2 5490   1.552   4.224   2.684
 1706SOL     OW 5491   0.263   5.447   2.362
 1706SOL    HW1 5492   0.294   5.520   2.423
 1706SOL    HW2 5493   0.317   5.450   2.278
 1707SOL     OW 5494   1.102   5.046   3.583
 1707SOL    HW1 5495   1.150   5.036   3.670
 1707SOL    HW2 5496   1.045   4.965   3.567
 1708SOL     OW 5497   0.324   5.183   2.341
 1708SOL    HW1 5498   0.294   5.277   2.358
 1708SOL    HW2 5499   0.276   5.122   2.404
 1709SOL     OW 5500   0.247   4.847   2.724
 1709SOL    HW1 5501   0.234   4.755   2.760
 1709SOL    HW2 5502   0.196   4.912   2.780
 1710SOL     OW 5503   0.572   5.557   3.280
 1710SOL    HW1 5504   0.493   5.532   3.336
 1710SOL    HW2 5505   0.620   5.634   3.322
 1711SOL     OW 5506   0.601   4.710   2.018
 1711SOL    HW1 5507   0.644   4.766   1.947
 1711SOL    HW2 5508   0.639   4.734   2.107
 1712SOL     OW 5509   1.542   3.869   3.319
 1712SOL    HW1 5510   1.593   3.948   3.284
 1712SOL    HW2 5511   1.500   3.892   3.406
 1713SOL     OW 5512   0.088   4.455   2.292
 1713SOL    HW1 5513   0.016   4.386   2.285
 1713SOL    HW2 5514   0.113   4.467   2.387
 1714SOL     OW 5515   1.837   5.471   2.162
 1714SOL    HW1 5516   1.919   5.441   2.212
 1714SOL    HW2 5517   1.848   5.567   2.134
 1715SOL     OW 5518   6.493   5.254   2.029
 1715SOL    HW1 5519   0.000   5.156   2.044
 1715SOL    HW2 5520   6.397   5.282   2.033
 1716SOL     OW 5521   1.701   4.611   2.515
 1716SOL    HW1 5522   1.794   4.574   2.522
 1716SOL    HW2 5523   1.690   4.659   2.428
 1717SOL     OW 5524   1.667   4.798   2.294
 1717SOL    HW1 5525   1.753   4.782   2.246
 1717SOL    HW2 5526   1.684   4.853   2.376
 1718SOL     OW 5527   0.144   4.557   3.441
 1718SOL    HW1 5528   0.237   4.527   3.460
 1718SOL    HW2 5529   0.134   4.572   3.342
 1719SOL     OW 5530   0.634   5.086   2.594
 1719SOL    HW1 5531   0.586   4.998   2.600
 1719SOL    HW2 5532   0.617   5.126   2.504
 1720SOL     OW 5533   1.223   4.922   3.285
 1720SOL    HW1 5534   1.242   4.852   3.217
 1720SOL    HW2 5535   1.288   4.915   3.360
 1721SOL     OW 5536   0.834   3.763   2.363
 1721SOL    HW1 5537   0.881   3.845   2.331
 1721SOL    HW2 5538   0.736   3.782   2.372
 1722SOL     OW 5539   0.158   4.630   3.166
 1722SOL    HW1 5540   0.253   4.602   3.154
 1722SOL    HW2 5541   0.104   4.595   3.089
 1723SOL     OW 5542   1.544   4.731   2.054
 1723SOL    HW1 5543   1.464   4.674   2.075
 1723SOL    HW2 5544   1.590   4.757   2.139
 1724SOL     OW 5545   1.170   5.503   3.490
 1724SOL    HW1 5546   1.188   5.557   3.408
 1724SOL    HW2 5547   1.171   5.406   3.467
 1725SOL     OW 5548   0.362   3.984   3.774
 1725SOL    HW1 5549   0.403   4.069   3.809
 1725SOL    HW2 5550   0.267   4.000   3.750
 1726SOL     OW 5551   1.489   5.124   2.796
 1726SOL    HW1 5552   1.428   5.159   2.867
 1726SOL    HW2 5553   1.458   5.034   2.766
 1727SOL     OW 5554   1.634   5.531   2.452
 1727SOL    HW1 5555   1.605   5.475   2.374
 1727SOL    HW2 5556   1.659   5.471   2.528
 1728SOL     OW 5557   0.612   4.422   2.124
 1728SOL    HW1 5558   0.621   4.514   2.087
 1728SOL    HW2 5559   0.549   4.423   2.201
 1729SOL     OW 5560   1.277   4.112   2.803
 1729SOL    HW1 5561   1.186   4.072   2.796
 1729SOL    HW2 5562   1.334   4.055   2.863
 1730SOL     OW 5563   1.582   5.395   2.196
 1730SOL    HW1 5564   1.678   5.422   2.188
 1730SOL    HW2 5565   1.542   5.384   2.105
 1731SOL     OW 5566   0.785   4.297   3.276
 1731SOL    HW1 5567   0.774   4.265   3.370
 1731SOL    HW2 5568   0.762   4.223   3.213
 1732SOL     OW 5569   1.374   4.180   3.524
 1732SOL    HW1 5570   1.379   4.231   3.610
 1732SOL    HW2 5571   1.412   4.089   3.536
 1733SOL     OW 5572   0.922   4.600   3.425
 1733SOL    HW1 5573   0.981   4.536   3.375
 1733SOL    HW2 5574   0.866   4.651   3.359
 1734SOL     OW 5575   1.004   4.098   3.037
 1734SOL    HW1 5576   0.908   4.104   3.064
 1734SOL    HW2 5577   1.010   4.061   2.944
 1735SOL     OW 5578   1.089   4.426   2.268
 1735SOL    HW1 5579   1.102   4.423   2.367
 1735SOL    HW2 5580   1.001   4.383   2.244
 1736SOL     OW 5581   0.157   4.470   2.558
 1736SOL    HW1 5582   0.233   4.502   2.615
 1736SOL    HW2 5583   0.097   4.411   2.613
 1737SOL     OW 5584   0.128   5.651   3.512
 1737SOL    HW1 5585   0.109   5.687   3.603
 1737SOL    HW2 5586   0.068   5.573   3.494
 1738SOL     OW 5587   0.983   4.105   2.042
 1738SOL    HW1 5588   1.070   4.150   2.060
 1738SOL    HW2 5589   0.992   4.046   1.962
 1739SOL     OW 5590   1.650   4.264   3.691
 1739SOL    HW1 5591   1.623   4.343   3.636
 1739SOL    HW2 5592   1.675   4.188   3.630
 1740SOL     OW 5593   1.405   4.872   2.394
 1740SOL    HW1 5594   1.489   4.852   2.344
 1740SOL    HW2 5595   1.349   4.936   2.341
 1741SOL     OW 5596   0.561   3.888   2.768
 1741SOL    HW1 5597   0.570   3.898   2.867
 1741SOL    HW2 5598   0.563   3.979   2.725
 1742SOL     OW 5599   0.999   5.162   2.325
 1742SOL    HW1 5600   0.981   5.244   2.271
 1742SOL    HW2 5601   0.970   5.177   2.419
 1743SOL     OW 5602   0.402   5.528   2.758
 1743SOL    HW1 5603   0.442   5.437   2.760
 1743SOL    HW2 5604   0.470   5.595   2.787
 1744SOL     OW 5605   1.758   4.712   2.769
 1744SOL    HW1 5606   1.722   4.700   2.676
 1744SOL    HW2 5607   1.684   4.737   2.831
 1745SOL     OW 5608   1.163   5.231   3.392
 1745SOL    HW1 5609   1.152   5.162   3.463
 1745SOL    HW2 5610   1.106   5.207   3.313
 1746SOL     OW 5611   0.351   4.647   2.124
 1746SOL    HW1 5612   0.436   4.672   2.078
 1746SOL    HW2 5613   0.319   4.559   2.089
 1747SOL     OW 5614   1.473   4.478   2.569
 1747SOL    HW1 5615   1.467   4.433   2.658
 1747SOL    HW2 5616   1.560   4.526   2.561
 1748SOL     OW 5617   0.485   5.051   3.582
 1748SOL    HW1 5618   0.469   5.063   3.484
 1748SOL    HW2 5619   0.398   5.039   3.629
 1749SOL     OW 5620   1.151   5.473   2.099
 1749SOL    HW1 5621   1.064   5.451   2.143
 1749SOL    HW2 5622   1.175   5.400   2.036
 1750SOL     OW 5623   0.225   3.957   3.332
 1750SOL    HW1 5624   0.197   4.051   3.351
 1750SOL    HW2 5625   0.201   3.899   3.409
 1751SOL     OW 5626   1.643   5.111   1.967
 1751SOL    HW1 5627   1.593   5.198   1.967
 1751SOL    HW2 5628   1.583   5.038   1.935
 1752SOL     OW 5629   0.485   5.489   2.180
 1752SOL    HW1 5630   0.532   5.540   2.252
 1752SOL    HW2 5631   0.551   5.433   2.131
 1753SOL     OW 5632   1.411   3.819   2.333
 1753SOL    HW1 5633   1.413   3.797   2.235
 1753SOL    HW2 5634   1.496   3.787   2.375
 1754SOL     OW 5635   0.188   5.489   3.060
 1754SOL    HW1 5636   0.257   5.419   3.079
 1754SOL    HW2 5637   0.165   5.488   2.963
 1755SOL     OW 5638   0.969   5.407   2.721
 1755SOL    HW1 5639   1.058   5.365   2.741
 1755SOL    HW2 5640   0.921   5.352   2.652
 1756SOL     OW 5641   0.417   4.403   2.323
 1756SOL    HW1 5642   0.388   4.307   2.334
 1756SOL    HW2 5643   0.336   4.460   2.312
 1757SOL     OW 5644   1.454   3.918   3.577
 1757SOL    HW1 5645   1.467   3.935   3.675
 1757SOL    HW2 5646   1.390   3.842   3.566
 1758SOL     OW 5647   0.664   3.853   1.991
 1758SOL    HW1 5648   0.729   3.782   2.019
 1758SOL    HW2 5649   0.603   3.817   1.921
 1759SOL     OW 5650   0.804   3.956   3.600
 1759SOL    HW1 5651   0.889   3.905   3.614
 1759SOL    HW2 5652   0.735   3.924   3.666
 1760SOL     OW 5653   0.882   5.266   3.025
 1760SOL    HW1 5654   0.854   5.212   2.945
 1760SOL    HW2 5655   0.936   5.209   3.087
 1761SOL     OW 5656   1.295   4.302   3.290
 1761SOL    HW1 5657   1.333   4.269   3.377
 1761SOL    HW2 5658   1.330   4.394   3.271
 1762SOL     OW 5659   0.825   5.079   2.808
 1762SOL    HW1 5660   0.916   5.086   2.768
 1762SOL    HW2 5661   0.756   5.082   2.736
 1763SOL     OW 5662   0.909   4.230   2.720
 1763SOL    HW1 5663   0.890   4.225   2.622
 1763SOL    HW2 5664   0.946   4.142   2.751
 1764SOL     OW 5665   0.564   3.816   2.363
 1764SOL    HW1 5666   0.486   3.810   2.425
 1764SOL    HW2 5667   0.553   3.895   2.303
 1765SOL     OW 5668   1.440   4.931   1.894
 1765SOL    HW1 5669   1.476   4.853   1.946
 1765SOL    HW2 5670   1.349   4.955   1.928
 1766SOL     OW 5671   0.284   3.778   2.068
 1766SOL    HW1 5672   0.315   3.854   2.012
 1766SOL    HW2 5673   0.363   3.728   2.104
 1767SOL     OW 5674   0.977   3.982   2.289
 1767SOL    HW1 5675   0.961   4.019   2.197
 1767SOL    HW2 5676   1.074   3.990   2.312
 1768SOL     OW 5677   1.041   4.412   3.269
 1768SOL    HW1 5678   0.965   4.347   3.276
 1768SOL    HW2 5679   1.127   4.362   3.275
 1769SOL     OW 5680   1.231   5.308   2.654
 1769SOL    HW1 5681   1.231   5.358   2.567
 1769SOL    HW2 5682   1.307   5.341   2.711
 1770SOL     OW 5683   0.480   4.856   2.567
 1770SOL    HW1 5684   0.403   4.854   2.631
 1770SOL    HW2 5685   0.446   4.856   2.473
 1771SOL     OW 5686   1.255   5.500   2.445
 1771SOL    HW1 5687   1.306   5.562   2.386
 1771SOL    HW2 5688   1.180   5.550   2.488
 1772SOL     OW 5689   0.158   4.224   3.352
 1772SOL    HW1 5690   0.213   4.252   3.272
 1772SOL    HW2 5691   0.064   4.254   3.339
 1773SOL     OW 5692   0.566   3.892   3.040
 1773SOL    HW1 5693   0.600   3.818   3.098
 1773SOL    HW2 5694   0.467   3.900   3.049
 1774SOL     OW 5695   0.878   4.187   2.453
 1774SOL    HW1 5696   0.849   4.250   2.381
 1774SOL    HW2 5697   0.911   4.102   2.412
 1775SOL     OW 5698   1.011   3.781   2.577
 1775SOL    HW1 5699   0.947   3.778   2.500
 1775SOL    HW2 5700   0.988   3.708   2.642
 1776SOL     OW 5701   1.403   4.881   2.707
 1776SOL    HW1 5702   1.307   4.855   2.709
 1776SOL    HW2 5703   1.437   4.876   2.613
 1777SOL     OW 5704   1.446   4.336   2.808
 1777SOL    HW1 5705   1.379   4.262   2.815
 1777SOL    HW2 5706   1.511   4.329   2.883
 1778SOL     OW 5707   1.786   4.480   2.231
 1778SOL    HW1 5708   1.848   4.448   2.303
 1778SOL    HW2 5709   1.786   4.415   2.156
 1779SOL     OW 5710   0.520   5.151   1.991
 1779SOL    HW1 5711   0.438   5.115   2.035
 1779SOL    HW2 5712   0.522   5.121   1.896
 1780SOL     OW 5713   1.722   4.937   2.514
 1780SOL    HW1 5714   1.822   4.944   2.518
 1780SOL    HW2 5715   1.682   5.028   2.514
 1781SOL     OW 5716   1.377   4.294   1.914
 1781SOL    HW1 5717   1.330   4.260   1.995
 1781SOL    HW2 5718   1.475   4.278   1.923
 1782SOL     OW 5719   0.523   4.008   2.173
 1782SOL    HW1 5720   0.580   3.955   2.109
 1782SOL    HW2 5721   0.490   4.090   2.127
 1783SOL     OW 5722   1.705   4.894   3.413
 1783SOL    HW1 5723   1.798   4.860   3.403
 1783SOL    HW2 5724   1.706   4.980   3.464
 1784SOL     OW 5725   1.013   5.076   3.198
 1784SOL    HW1 5726   0.925   5.047   3.236
 1784SOL    HW2 5727   1.086   5.020   3.236
 1785SOL     OW 5728   1.612   5.371   3.560
 1785SOL    HW1 5729   1.576   5.394   3.470
 1785SOL    HW2 5730   1.657   5.282   3.556
 1786SOL     OW 5731   1.138   4.981   2.968
 1786SOL    HW1 5732   1.076   5.014   3.038
 1786SOL    HW2 5733   1.109   5.015   2.879
 1787SOL     OW 5734   1.561   4.797   2.939
 1787SOL    HW1 5735   1.554   4.859   3.017
 1787SOL    HW2 5736   1.492   4.821   2.871
 1788SOL     OW 5737   0.932   3.804   3.211
 1788SOL    HW1 5738   0.953   3.796   3.113
 1788SOL    HW2 5739   1.010   3.844   3.258
 1789SOL     OW 5740   0.945   4.821   3.585
 1789SOL    HW1 5741   0.853   4.842   3.616
 1789SOL    HW2 5742   0.943   4.743   3.522
 1790SOL     OW 5743   0.727   4.766   2.260
 1790SOL    HW1 5744   0.708   4.733   2.352
 1790SOL    HW2 5745   0.812   4.723   2.227
 1791SOL     OW 5746   0.410   4.522   3.129
 1791SOL    HW1 5747   0.484   4.526   3.196
 1791SOL    HW2 5748   0.376   4.428   3.122
 1792SOL     OW 5749   1.251   4.077   3.146
 1792SOL    HW1 5750   1.275   4.161   3.194
 1792SOL    HW2 5751   1.161   4.087   3.103
 1793SOL     OW 5752   0.009   5.337   3.202
 1793SOL    HW1 5753   0.073   5.395   3.152
 1793SOL    HW2 5754   0.021   5.242   3.174
 1794SOL     OW 5755   0.367   4.852   2.309
 1794SOL    HW1 5756   0.363   4.927   2.243
 1794SOL    HW2 5757   0.363   4.764   2.260
 1795SOL     OW 5758   0.573   4.174   2.701
 1795SOL    HW1 5759   0.575   4.236   2.622
 1795SOL    HW2 5760   0.631   4.210   2.774
 1796SOL     OW 5761   1.250   5.067   2.258
 1796SOL    HW1 5762   1.311   5.140   2.289
 1796SOL    HW2 5763   1.157   5.087   2.287
 1797SOL     OW 5764   1.326   5.176   3.012
 1797SOL    HW1 5765   1.361   5.179   3.106
 1797SOL    HW2 5766   1.264   5.098   3.002
 1798SOL     OW 5767   1.563   4.340   2.339
 1798SOL    HW1 5768   1.513   4.383   2.414
 1798SOL    HW2 5769   1.628   4.406   2.301
 1799SOL     OW 5770   0.366   5.290   3.119
 1799SOL    HW1 5771   0.358   5.220   3.048
 1799SOL    HW2 5772   0.462   5.314   3.132
 1800SOL     OW 5773   0.415   4.482   3.487
 1800SOL    HW1 5774   0.488   4.499   3.422
 1800SOL    HW2 5775   0.427   4.393   3.530
 1801SOL     OW 5776   1.572   4.486   3.557
 1801SOL    HW1 5777   1.478   4.521   3.550
 1801SOL    HW2 5778   1.626   4.524   3.482
 1802SOL     OW 5779   1.049   3.827   3.652
 1802SOL    HW1 5780   1.080   3.921   3.633
 1802SOL    HW2 5781   1.111   3.762   3.608
 1803SOL     OW 5782   0.523   3.799   3.651
 1803SOL    HW1 5783   0.475   3.740   3.586
 1803SOL    HW2 5784   0.460   3.870   3.683
 1804SOL     OW 5785   0.584   4.585   2.911
 1804SOL    HW1 5786   0.629   4.674   2.915
 1804SOL    HW2 5787   0.523   4.575   2.990
 1805SOL     OW 5788   1.270   4.552   2.872
 1805SOL    HW1 5789   1.180   4.524   2.839
 1805SOL    HW2 5790   1.337   4.482   2.848
 1806SOL     OW 5791   1.218   4.222   2.129
 1806SOL    HW1 5792   1.240   4.151   2.196
 1806SOL    HW2 5793   1.185   4.304   2.176
 1807SOL     OW 5794   0.294   3.883   3.067
 1807SOL    HW1 5795   0.276   3.919   3.159
 1807SOL    HW2 5796   0.248   3.794   3.057
 1808SOL     OW 5797   0.044   5.061   3.137
 1808SOL    HW1 5798   0.117   5.010   3.182
 1808SOL    HW2 5799   6.458   5.045   3.184
 1809SOL     OW 5800   0.705   4.325   2.892
 1809SOL    HW1 5801   0.782   4.315   2.828
 1809SOL    HW2 5802   0.667   4.417   2.883
 1810SOL     OW 5803   1.714   4.618   3.757
 1810SOL    HW1 5804   1.660   4.565   3.691
 1810SOL    HW2 5805   1.654   4.658   3.826
 1811SOL     OW 5806   0.322   3.800   2.500
 1811SOL    HW1 5807   0.268   3.882   2.512
 1811SOL    HW2 5808   0.334   3.754   2.589
 1812SOL     OW 5809   1.618   4.114   2.197
 1812SOL    HW1 5810   1.654   4.044   2.259
 1812SOL    HW2 5811   1.586   4.192   2.251
 1813SOL     OW 5812   1.009   4.470   2.799
 1813SOL    HW1 5813   0.980   4.487   2.893
 1813SOL    HW2 5814   0.979   4.378   2.771
 1814SOL     OW 5815   0.979   5.287   3.653
 1814SOL    HW1 5816   0.951   5.351   3.581
 1814SOL    HW2 5817   1.004   5.199   3.612
 1815SOL     OW 5818   1.755   5.139   3.528
 1815SOL    HW1 5819   1.767   5.167   3.433
 1815SOL    HW2 5820   1.843   5.142   3.575
 1816SOL     OW 5821   0.413   4.705   3.655
 1816SOL    HW1 5822   0.484   4.705   3.725
 1816SOL    HW2 5823   0.423   4.623   3.598
 1817SOL     OW 5824   1.511   3.982   1.979
 1817SOL    HW1 5825   1.468   3.900   2.017
 1817SOL    HW2 5826   1.548   4.038   2.053
 1818SOL     OW 5827   1.265   4.534   1.858
 1818SOL    HW1 5828   1.305   4.444   1.874
 1818SOL    HW2 5829   1.303   4.574   1.774
 1819SOL     OW 5830   1.081   5.087   2.718
 1819SOL    HW1 5831   1.107   5.001   2.674
 1819SOL    HW2 5832   1.142   5.160   2.688
 1820SOL     OW 5833   0.327   4.517   2.795
 1820SOL    HW1 5834   0.419   4.555   2.806
 1820SOL    HW2 5835   0.330   4.418   2.807
 1821SOL     OW 5836   0.352   4.243   2.846
 1821SOL    HW1 5837   0.288   4.167   2.834
 1821SOL    HW2 5838   0.434   4.227   2.791
 1822SOL     OW 5839   1.124   4.075   3.561
 1822SOL    HW1 5840   1.076   4.127   3.631
 1822SOL    HW2 5841   1.211   4.120   3.540
 1823SOL     OW 5842   1.149   3.912   3.339
 1823SOL    HW1 5843   1.129   3.973   3.416
 1823SOL    HW2 5844   1.196   3.963   3.267
 1824SOL     OW 5845   0.027   4.962   2.051
 1824SOL    HW1 5846   6.458   4.950   1.980
 1824SOL    HW2 5847   0.039   4.877   2.101
 1825SOL     OW 5848   0.134   5.521   2.788
 1825SOL    HW1 5849   0.092   5.481   2.707
 1825SOL    HW2 5850   0.234   5.521   2.777
 1826SOL     OW 5851   0.526   5.281   2.759
 1826SOL    HW1 5852   0.600   5.343   2.785
 1826SOL    HW2 5853   0.561   5.212   2.695
 1827SOL     OW 5854   0.906   4.503   3.047
 1827SOL    HW1 5855   0.968   4.487   3.124
 1827SOL    HW2 5856   0.826   4.444   3.056
 1828SOL     OW 5857   0.044   4.178   2.978
 1828SOL    HW1 5858   0.108   4.229   3.035
 1828SOL    HW2 5859   6.458   4.165   3.027
 1829SOL     OW 5860   0.163   4.292   3.619
 1829SOL    HW1 5861   0.181   4.268   3.524
 1829SOL    HW2 5862   0.089   4.359   3.623
 1830SOL     OW 5863   1.339   4.621   3.493
 1830SOL    HW1 5864   1.361   4.718   3.497
 1830SOL    HW2 5865   1.336   4.591   3.397
 1831SOL     OW 5866   0.854   4.304   2.196
 1831SOL    HW1 5867   0.880   4.233   2.130
 1831SOL    HW2 5868   0.768   4.346   2.167
 1832SOL     OW 5869   1.630   4.309   3.008
 1832SOL    HW1 5870   1.608   4.239   3.076
 1832SOL    HW2 5871   1.727   4.306   2.987
 1833SOL     OW 5872   0.209   5.304   3.585
 1833SOL    HW1 5873   0.183   5.359   3.665
 1833SOL    HW2 5874   0.220   5.208   3.613
 1834SOL     OW 5875   0.732   4.118   3.073
 1834SOL    HW1 5876   0.669   4.041   3.065
 1834SOL    HW2 5877   0.708   4.189   3.007
 1835SOL     OW 5878   0.862   5.438   3.436
 1835SOL    HW1 5879   0.816   5.372   3.376
 1835SOL    HW2 5880   0.894   5.516   3.381
 1836SOL     OW 5881   0.439   4.226   2.022
 1836SOL    HW1 5882   0.520   4.282   2.040
 1836SOL    HW2 5883   0.357   4.279   2.040
 1837SOL     OW 5884   0.211   4.889   3.282
 1837SOL    HW1 5885   0.201   4.874   3.380
 1837SOL    HW2 5886   0.207   4.801   3.235
 1838SOL     OW 5887   1.247   4.747   3.062
 1838SOL    HW1 5888   1.259   4.677   2.991
 1838SOL    HW2 5889   1.208   4.829   3.022
 1839SOL     OW 5890   1.317   4.592   2.123
 1839SOL    HW1 5891   1.253   4.549   2.187
 1839SOL    HW2 5892   1.289   4.573   2.029
 1840SOL     OW 5893   1.639   5.454   3.064
 1840SOL    HW1 5894   1.735   5.472   3.085
 1840SOL    HW2 5895   1.628   5.359   3.036
 1841SOL     OW 5896   1.243   5.435   2.963
 1841SOL    HW1 5897   1.314   5.465   2.900
 1841SOL    HW2 5898   1.261   5.341   2.992
 1842SOL     OW 5899   0.109   5.048   2.860
 1842SOL    HW1 5900   0.076   5.055   2.954
 1842SOL    HW2 5901   0.048   5.098   2.799
 1843SOL     OW 5902   0.698   5.452   3.655
 1843SOL    HW1 5903   0.625   5.519   3.647
 1843SOL    HW2 5904   0.764   5.465   3.581
 1844SOL     OW 5905   1.752   3.918   2.339
 1844SOL    HW1 5906   1.808   3.895   2.259
 1844SOL    HW2 5907   1.716   3.834   2.380
 1845SOL     OW 5908   1.398   5.278   2.356
 1845SOL    HW1 5909   1.466   5.314   2.292
 1845SOL    HW2 5910   1.338   5.352   2.386
 1846SOL     OW 5911   0.119   5.455   3.794
 1846SOL    HW1 5912   0.076   5.381   3.845
 1846SOL    HW2 5913   0.181   5.505   3.854
 1847SOL     OW 5914   1.281   4.655   2.497
 1847SOL    HW1 5915   1.354   4.591   2.522
 1847SOL    HW2 5916   1.320   4.732   2.447
 1848SOL     OW 5917   0.764   5.008   3.292
 1848SOL    HW1 5918   0.749   5.067   3.371
 1848SOL    HW2 5919   0.691   5.023   3.225
 1849SOL     OW 5920   0.691   5.357   2.042
 1849SOL    HW1 5921   0.709   5.393   1.950
 1849SOL    HW2 5922   0.635   5.274   2.035
 1850SOL     OW 5923   1.517   5.441   3.310
 1850SOL    HW1 5924   1.562   5.448   3.221
 1850SOL    HW2 5925   1.473   5.528   3.332
 1851SOL     OW 5926   1.823   3.848   2.824
 1851SOL    HW1 5927   1.866   3.769   2.780
 1851SOL    HW2 5928   1.734   3.864   2.782
 1852SOL     OW 5929   0.186   4.029   2.556
 1852SOL    HW1 5930   0.097   4.070   2.537
 1852SOL    HW2 5931   0.198   4.020   2.655
 1853SOL     OW 5932   1.229   5.283   1.918
 1853SOL    HW1 5933   1.221   5.188   1.947
 1853SOL    HW2 5934   1.153   5.306   1.858
 1854SOL     OW 5935   0.776   4.735   3.238
 1854SOL    HW1 5936   0.810   4.728   3.144
 1854SOL    HW2 5937   0.772   4.832   3.263
 1855SOL     OW 5938   0.947   4.646   2.165
 1855SOL    HW1 5939   0.966   4.643   2.067
 1855SOL    HW2 5940   1.004   4.578   2.212
 1856SOL     OW 5941   1.493   5.354   1.933
 1856SOL    HW1 5942   1.397   5.327   1.922
 1856SOL    HW2 5943   1.537   5.358   1.843
 1857SOL     OW 5944   0.397   5.093   3.329
 1857SOL    HW1 5945   0.381   5.172   3.270
 1857SOL    HW2 5946   0.335   5.019   3.303
 1858SOL     OW 5947   1.563   4.974   3.170
 1858SOL    HW1 5948   1.625   4.940   3.241
 1858SOL    HW2 5949   1.499   5.039   3.212
 1859SOL     OW 5950   1.127   4.826   2.647
 1859SOL    HW1 5951   1.037   4.790   2.673
 1859SOL    HW2 5952   1.172   4.762   2.586
 1860SOL     OW 5953   1.032   3.972   2.788
 1860SOL    HW1 5954   1.028   3.934   2.696
 1860SOL    HW2 5955   1.030   3.898   2.855
 1861SOL     OW 5956   0.602   5.195   2.349
 1861SOL    HW1 5957   0.651   5.146   2.276
 1861SOL    HW2 5958   0.504   5.195   2.330
 1862SOL     OW 5959   1.745   4.065   3.262
 1862SOL    HW1 5960   1.820   4.131   3.255
 1862SOL    HW2 5961   1.761   3.990   3.198
 1863SOL     OW 5962   0.281   5.051   2.109
 1863SOL    HW1 5963   0.185   5.022   2.100
 1863SOL    HW2 5964   0.290   5.111   2.188
 1864SOL     OW 5965   0.186   4.809   3.551
 1864SOL    HW1 5966   0.141   4.726   3.517
 1864SOL    HW2 5967   0.272   4.784   3.596
 1865SOL     OW 5968   0.710   3.919   3.339
 1865SOL    HW1 5969   0.788   3.887   3.286
 1865SOL    HW2 5970   0.739   3.942   3.432
 1866SOL     OW 5971   0.122   4.066   1.770
 1866SOL    HW1 5972   0.024   4.055   1.751
 1866SOL    HW2 5973   0.145   4.163   1.771
 1867SOL     OW 5974   1.368   4.560   3.228
 1867SOL    HW1 5975   1.309   4.621   3.176
 1867SOL    HW2 5976   1.460   4.561   3.189
 1868SOL     OW 5977   0.074   3.868   2.220
 1868SOL    HW1 5978   0.102   3.943   2.280
 1868SOL    HW2 5979   0.154   3.829   2.175
 1869SOL     OW 5980   1.185   5.021   1.989
 1869SOL    HW1 5981   1.086   5.009   1.981
 1869SOL    HW2 5982   1.211   5.023   2.086
 1870SOL     OW 5983   0.618   4.517   3.302
 1870SOL    HW1 5984   0.671   4.601   3.287
 1870SOL    HW2 5985   0.679   4.438   3.297
 1871SOL     OW 5986   1.436   5.462   2.766
 1871SOL    HW1 5987   1.408   5.550   2.730
 1871SOL    HW2 5988   1.531   5.444   2.739
 1872SOL     OW 5989   0.766   4.227   3.535
 1872SOL    HW1 5990   0.809   4.294   3.596
 1872SOL    HW2 5991   0.785   4.135   3.568
 1873SOL     OW 5992   1.425   4.880   3.490
 1873SOL    HW1 5993   1.417   4.903   3.587
 1873SOL    HW2 5994   1.520   4.889   3.461
 1874SOL     OW 5995   0.362   5.508   3.462
 1874SOL    HW1 5996   0.283   5.569   3.462
 1874SOL    HW2 5997   0.334   5.416   3.489
 1875SOL     OW 5998   1.611   4.574   3.102
 1875SOL    HW1 5999   1.622   4.486   3.056
 1875SOL    HW2 6000   1.598   4.646   3.034
 1876SOL     OW 6001   1.243   4.035   2.330
 1876SOL    HW1 6002   1.307   3.958   2.331
 1876SOL    HW2 6003   1.261   4.094   2.408
 1877SOL     OW 6004   0.583   4.411   2.544
 1877SOL    HW1 6005   0.630   4.499   2.544
 1877SOL    HW2 6006   0.522   4.405   2.465
 1878SOL     OW 6007   1.715   4.043   3.536
 1878SOL    HW1 6008   1.723   4.053   3.436
 1878SOL    HW2 6009   1.636   3.985   3.557
 1879SOL     OW 6010   1.698   4.615   3.357
 1879SOL    HW1 6011   1.689   4.712   3.379
 1879SOL    HW2 6012   1.672   4.600   3.261
 1880SOL     OW 6013   0.895   5.067   1.952
 1880SOL    HW1 6014   0.847   5.073   2.040
 1880SOL    HW2 6015   0.906   5.159   1.914
 1881SOL     OW 6016   0.711   5.473   2.806
 1881SOL    HW1 6017   0.688   5.570   2.803
 1881SOL    HW2 6018   0.809   5.462   2.787
 1882SOL     OW 6019   0.883   4.711   2.731
 1882SOL    HW1 6020   0.925   4.623   2.754
 1882SOL    HW2 6021   0.832   4.745   2.810
 1883SOL     OW 6022   1.014   4.622   1.902
 1883SOL    HW1 6023   0.997   4.703   1.845
 1883SOL    HW2 6024   1.108   4.591   1.888
 1884SOL     OW 6025   1.806   5.134   2.749
 1884SOL    HW1 6026   1.725   5.102   2.700
 1884SOL    HW2 6027   1.859   5.055   2.780
 1885SOL     OW 6028   0.237   5.046   3.688
 1885SOL    HW1 6029   0.196   4.966   3.645
 1885SOL    HW2 6030   0.230   5.038   3.788
 1886SOL     OW 6031   0.205   4.988   2.485
 1886SOL    HW1 6032   0.201   4.945   2.576
 1886SOL    HW2 6033   0.243   4.923   2.420
 1887SOL     OW 6034   0.712   5.183   3.504
 1887SOL    HW1 6035   0.627   5.139   3.534
 1887SOL    HW2 6036   0.728   5.265   3.560
 1888SOL     OW 6037   1.787   3.860   3.096
 1888SOL    HW1 6038   1.775   3.764   3.121
 1888SOL    HW2 6039   1.803   3.867   2.997
 1889SOL     OW 6040   0.344   4.144   2.355
 1889SOL    HW1 6041   0.407   4.078   2.313
 1889SOL    HW2 6042   0.298   4.102   2.432
 1890SOL     OW 6043   1.659   5.180   3.014
 1890SOL    HW1 6044   1.627   5.170   2.920
 1890SOL    HW2 6045   1.628   5.102   3.069
 1891SOL     OW 6046   0.321   4.258   3.122
 1891SOL    HW1 6047   0.384   4.198   3.171
 1891SOL    HW2 6048   0.338   4.250   3.023
 1892SOL     OW 6049   0.838   5.267   2.530
 1892SOL    HW1 6050   0.797   5.321   2.456
 1892SOL    HW2 6051   0.773   5.196   2.560
 1893SOL     OW 6052   1.420   3.949   2.972
 1893SOL    HW1 6053   1.444   3.855   2.995
 1893SOL    HW2 6054   1.367   3.989   3.047
 1894SOL     OW 6055   1.020   3.749   2.949
 1894SOL    HW1 6056   0.973   3.685   2.888
 1894SOL    HW2 6057   1.108   3.710   2.977
 1895SOL     OW 6058   0.781   5.036   2.203
 1895SOL    HW1 6059   0.759   4.940   2.223
 1895SOL    HW2 6060   0.863   5.062   2.254
 1896SOL     OW 6061   0.637   5.326   3.142
 1896SOL    HW1 6062   0.624   5.414   3.188
 1896SOL    HW2 6063   0.725   5.326   3.094
 1897SOL     OW 6064   1.402   3.746   2.068
 1897SOL    HW1 6065   1.451   3.677   2.015
 1897SOL    HW2 6066   1.308   3.717   2.083
 1898SOL     OW 6067   1.287   4.198   2.542
 1898SOL    HW1 6068   1.236   4.284   2.534
 1898SOL    HW2 6069   1.283   4.165   2.636
 1899SOL     OW 6070   1.571   3.906   2.744
 1899SOL    HW1 6071   1.515   3.929   2.823
 1899SOL    HW2 6072   1.573   3.984   2.681
 1900SOL     OW 6073   0.083   4.715   2.163
 1900SOL    HW1 6074   0.180   4.707   2.140
 1900SOL    HW2 6075   0.055   4.635   2.217
 1901SOL     OW 6076   0.907   5.398   2.214
 1901SOL    HW1 6077   0.828   5.384   2.156
 1901SOL    HW2 6078   0.892   5.477   2.274
 1902SOL     OW 6079   0.219   4.389   3.876
 1902SOL    HW1 6080   0.132   4.390   3.925
 1902SOL    HW2 6081   0.204   4.359   3.782
 1903SOL     OW 6082   0.219   3.970   4.691
 1903SOL    HW1 6083   0.253   3.970   4.785
 1903SOL    HW2 6084   0.158   3.892   4.678
 1904SOL     OW 6085   6.430   4.067   4.417
 1904SOL    HW1 6086   6.346   4.119   4.399
 1904SOL    HW2 6087   6.418   3.973   4.387
 1905SOL     OW 6088   0.581   5.057   4.941
 1905SOL    HW1 6089   0.500   5.053   4.883
 1905SOL    HW2 6090   0.598   5.152   4.967
 1906SOL     OW 6091   1.592   5.252   4.420
 1906SOL    HW1 6092   1.540   5.227   4.501
 1906SOL    HW2 6093   1.529   5.262   4.342
 1907SOL     OW 6094   1.121   4.451   4.408
 1907SOL    HW1 6095   1.173   4.535   4.391
 1907SOL    HW2 6096   1.070   4.460   4.493
 1908SOL     OW 6097   1.788   4.258   3.919
 1908SOL    HW1 6098   1.744   4.270   3.830
 1908SOL    HW2 6099   1.733   4.197   3.976
 1909SOL     OW 6100   0.710   4.844   4.788
 1909SOL    HW1 6101   0.655   4.878   4.865
 1909SOL    HW2 6102   0.751   4.922   4.740
 1910SOL     OW 6103   0.944   4.477   5.563
 1910SOL    HW1 6104   0.874   4.511   5.626
 1910SOL    HW2 6105   0.934   4.523   5.474
 1911SOL     OW 6106   0.670   4.667   4.394
 1911SOL    HW1 6107   0.745   4.679   4.458
 1911SOL    HW2 6108   0.597   4.733   4.414
 1912SOL     OW 6109   0.676   4.894   5.552
 1912SOL    HW1 6110   0.720   4.974   5.592
 1912SOL    HW2 6111   0.605   4.923   5.488
 1913SOL     OW 6112   0.363   5.110   4.777
 1913SOL    HW1 6113   0.274   5.081   4.743
 1913SOL    HW2 6114   0.407   5.169   4.709
 1914SOL     OW 6115   1.419   5.213   5.117
 1914SOL    HW1 6116   1.475   5.294   5.131
 1914SOL    HW2 6117   1.339   5.217   5.176
 1915SOL     OW 6118   0.463   4.167   5.117
 1915SOL    HW1 6119   0.497   4.190   5.209
 1915SOL    HW2 6120   0.447   4.069   5.111
 1916SOL     OW 6121   1.595   4.176   4.468
 1916SOL    HW1 6122   1.574   4.212   4.377
 1916SOL    HW2 6123   1.550   4.233   4.537
 1917SOL     OW 6124   0.263   5.442   4.232
 1917SOL    HW1 6125   0.291   5.517   4.293
 1917SOL    HW2 6126   0.318   5.444   4.149
 1918SOL     OW 6127   1.106   5.053   5.450
 1918SOL    HW1 6128   1.163   5.036   5.531
 1918SOL    HW2 6129   1.044   4.976   5.436
 1919SOL     OW 6130   0.314   5.176   4.202
 1919SOL    HW1 6131   0.285   5.270   4.223
 1919SOL    HW2 6132   0.266   5.113   4.263
 1920SOL     OW 6133   0.244   4.837   4.581
 1920SOL    HW1 6134   0.236   4.744   4.618
 1920SOL    HW2 6135   0.192   4.901   4.638
 1921SOL     OW 6136   0.576   5.565   5.137
 1921SOL    HW1 6137   0.499   5.540   5.196
 1921SOL    HW2 6138   0.630   5.637   5.181
 1922SOL     OW 6139   0.595   4.714   3.886
 1922SOL    HW1 6140   0.642   4.770   3.819
 1922SOL    HW2 6141   0.626   4.738   3.978
 1923SOL     OW 6142   1.554   3.867   5.167
 1923SOL    HW1 6143   1.621   3.938   5.147
 1923SOL    HW2 6144   1.509   3.886   5.254
 1924SOL     OW 6145   0.111   4.510   4.186
 1924SOL    HW1 6146   0.049   4.449   4.136
 1924SOL    HW2 6147   0.106   4.489   4.284
 1925SOL     OW 6148   1.840   5.439   4.073
 1925SOL    HW1 6149   1.902   5.429   4.151
 1925SOL    HW2 6150   1.843   5.534   4.040
 1926SOL     OW 6151   6.484   5.256   3.916
 1926SOL    HW1 6152   6.489   5.156   3.924
 1926SOL    HW2 6153   6.388   5.284   3.915
 1927SOL     OW 6154   1.692   4.642   4.399
 1927SOL    HW1 6155   1.780   4.594   4.391
 1927SOL    HW2 6156   1.676   4.695   4.315
 1928SOL     OW 6157   1.657   4.819   4.179
 1928SOL    HW1 6158   1.742   4.797   4.130
 1928SOL    HW2 6159   1.676   4.888   4.249
 1929SOL     OW 6160   0.161   4.559   5.313
 1929SOL    HW1 6161   0.256   4.532   5.329
 1929SOL    HW2 6162   0.146   4.570   5.215
 1930SOL     OW 6163   0.623   5.088   4.454
 1930SOL    HW1 6164   0.577   4.999   4.457
 1930SOL    HW2 6165   0.608   5.131   4.365
 1931SOL     OW 6166   1.230   4.928   5.147
 1931SOL    HW1 6167   1.246   4.855   5.080
 1931SOL    HW2 6168   1.301   4.926   5.217
 1932SOL     OW 6169   0.842   3.759   4.213
 1932SOL    HW1 6170   0.887   3.845   4.191
 1932SOL    HW2 6171   0.745   3.774   4.227
 1933SOL     OW 6172   0.154   4.627   5.031
 1933SOL    HW1 6173   0.251   4.610   5.012
 1933SOL    HW2 6174   0.098   4.577   4.965
 1934SOL     OW 6175   1.523   4.728   3.944
 1934SOL    HW1 6176   1.446   4.670   3.969
 1934SOL    HW2 6177   1.569   4.760   4.026
 1935SOL     OW 6178   1.171   5.512   5.357
 1935SOL    HW1 6179   1.190   5.581   5.288
 1935SOL    HW2 6180   1.178   5.421   5.316
 1936SOL     OW 6181   0.347   3.956   5.458
 1936SOL    HW1 6182   0.419   4.026   5.456
 1936SOL    HW2 6183   0.276   3.983   5.522
 1937SOL     OW 6184   1.442   5.164   4.631
 1937SOL    HW1 6185   1.390   5.176   4.716
 1937SOL    HW2 6186   1.439   5.068   4.604
 1938SOL     OW 6187   1.616   5.545   4.291
 1938SOL    HW1 6188   1.611   5.491   4.207
 1938SOL    HW2 6189   1.628   5.485   4.369
 1939SOL     OW 6190   0.592   4.439   4.002
 1939SOL    HW1 6191   0.602   4.531   3.962
 1939SOL    HW2 6192   0.521   4.441   4.072
 1940SOL     OW 6193   1.277   4.115   4.659
 1940SOL    HW1 6194   1.187   4.073   4.652
 1940SOL    HW2 6195   1.333   4.063   4.724
 1941SOL     OW 6196   1.576   5.392   4.060
 1941SOL    HW1 6197   1.676   5.397   4.058
 1941SOL    HW2 6198   1.541   5.380   3.967
 1942SOL     OW 6199   0.772   4.291   5.194
 1942SOL    HW1 6200   0.721   4.259   5.273
 1942SOL    HW2 6201   0.756   4.229   5.116
 1943SOL     OW 6202   1.375   4.190   5.384
 1943SOL    HW1 6203   1.384   4.240   5.471
 1943SOL    HW2 6204   1.418   4.100   5.393
 1944SOL     OW 6205   0.930   4.610   5.310
 1944SOL    HW1 6206   0.979   4.535   5.266
 1944SOL    HW2 6207   0.878   4.661   5.242
 1945SOL     OW 6208   1.004   4.095   4.896
 1945SOL    HW1 6209   0.911   4.116   4.927
 1945SOL    HW2 6210   1.000   4.050   4.807
 1946SOL     OW 6211   1.067   4.432   4.137
 1946SOL    HW1 6212   1.084   4.431   4.235
 1946SOL    HW2 6213   0.979   4.389   4.118
 1947SOL     OW 6214   0.117   4.450   4.452
 1947SOL    HW1 6215   0.192   4.488   4.507
 1947SOL    HW2 6216   0.072   4.376   4.503
 1948SOL     OW 6217   0.126   5.628   5.389
 1948SOL    HW1 6218   0.142   5.604   5.484
 1948SOL    HW2 6219   0.061   5.563   5.349
 1949SOL     OW 6220   0.850   4.078   3.932
 1949SOL    HW1 6221   0.907   4.117   3.860
 1949SOL    HW2 6222   0.793   4.005   3.894
 1950SOL     OW 6223   1.676   4.285   5.558
 1950SOL    HW1 6224   1.651   4.362   5.499
 1950SOL    HW2 6225   1.692   4.204   5.501
 1951SOL     OW 6226   1.387   4.881   4.248
 1951SOL    HW1 6227   1.477   4.869   4.206
 1951SOL    HW2 6228   1.335   4.949   4.198
 1952SOL     OW 6229   0.576   3.891   4.664
 1952SOL    HW1 6230   0.583   3.909   4.762
 1952SOL    HW2 6231   0.569   3.977   4.615
 1953SOL     OW 6232   0.989   5.173   4.197
 1953SOL    HW1 6233   0.970   5.252   4.139
 1953SOL    HW2 6234   0.958   5.192   4.290
 1954SOL     OW 6235   0.387   5.529   4.630
 1954SOL    HW1 6236   0.425   5.437   4.628
 1954SOL    HW2 6237   0.458   5.594   4.657
 1955SOL     OW 6238   1.767   4.726   4.652
 1955SOL    HW1 6239   1.731   4.713   4.559
 1955SOL    HW2 6240   1.693   4.753   4.713
 1956SOL     OW 6241   1.175   5.239   5.252
 1956SOL    HW1 6242   1.166   5.172   5.325
 1956SOL    HW2 6243   1.115   5.214   5.175
 1957SOL     OW 6244   0.334   4.639   3.963
 1957SOL    HW1 6245   0.422   4.663   3.922
 1957SOL    HW2 6246   0.306   4.549   3.932
 1958SOL     OW 6247   1.465   4.495   4.432
 1958SOL    HW1 6248   1.460   4.442   4.517
 1958SOL    HW2 6249   1.551   4.547   4.431
 1959SOL     OW 6250   0.491   5.046   5.402
 1959SOL    HW1 6251   0.457   5.064   5.310
 1959SOL    HW2 6252   0.415   5.051   5.467
 1960SOL     OW 6253   1.158   5.473   3.975
 1960SOL    HW1 6254   1.067   5.455   4.013
 1960SOL    HW2 6255   1.181   5.403   3.908
 1961SOL     OW 6256   0.232   3.999   5.211
 1961SOL    HW1 6257   0.204   4.095   5.217
 1961SOL    HW2 6258   0.279   3.974   5.296
 1962SOL     OW 6259   1.599   5.097   3.853
 1962SOL    HW1 6260   1.569   5.191   3.835
 1962SOL    HW2 6261   1.533   5.033   3.813
 1963SOL     OW 6262   0.475   5.482   4.045
 1963SOL    HW1 6263   0.523   5.536   4.115
 1963SOL    HW2 6264   0.541   5.424   3.997
 1964SOL     OW 6265   1.395   3.827   4.173
 1964SOL    HW1 6266   1.384   3.795   4.078
 1964SOL    HW2 6267   1.485   3.800   4.207
 1965SOL     OW 6268   0.154   5.496   4.926
 1965SOL    HW1 6269   0.226   5.429   4.943
 1965SOL    HW2 6270   0.134   5.499   4.828
 1966SOL     OW 6271   0.958   5.410   4.601
 1966SOL    HW1 6272   1.050   5.373   4.614
 1966SOL    HW2 6273   0.910   5.356   4.531
 1967SOL     OW 6274   0.381   4.407   4.184
 1967SOL    HW1 6275   0.357   4.310   4.186
 1967SOL    HW2 6276   0.298   4.462   4.180
 1968SOL     OW 6277   1.468   3.932   5.430
 1968SOL    HW1 6278   1.475   3.949   5.529
 1968SOL    HW2 6279   1.403   3.858   5.414
 1969SOL     OW 6280   0.688   3.859   3.860
 1969SOL    HW1 6281   0.744   3.780   3.884
 1969SOL    HW2 6282   0.618   3.832   3.794
 1970SOL     OW 6283   0.736   3.931   5.380
 1970SOL    HW1 6284   0.822   3.928   5.431
 1970SOL    HW2 6285   0.691   4.019   5.395
 1971SOL     OW 6286   0.858   5.250   4.893
 1971SOL    HW1 6287   0.833   5.192   4.815
 1971SOL    HW2 6288   0.924   5.201   4.950
 1972SOL     OW 6289   1.278   4.313   5.160
 1972SOL    HW1 6290   1.321   4.278   5.244
 1972SOL    HW2 6291   1.314   4.404   5.140
 1973SOL     OW 6292   0.803   5.076   4.673
 1973SOL    HW1 6293   0.895   5.082   4.636
 1973SOL    HW2 6294   0.736   5.082   4.598
 1974SOL     OW 6295   0.907   4.238   4.594
 1974SOL    HW1 6296   0.887   4.232   4.496
 1974SOL    HW2 6297   0.944   4.151   4.626
 1975SOL     OW 6298   0.573   3.811   4.228
 1975SOL    HW1 6299   0.500   3.805   4.295
 1975SOL    HW2 6300   0.561   3.892   4.171
 1976SOL     OW 6301   1.408   4.913   3.767
 1976SOL    HW1 6302   1.448   4.841   3.824
 1976SOL    HW2 6303   1.319   4.940   3.805
 1977SOL     OW 6304   0.283   3.771   3.940
 1977SOL    HW1 6305   0.322   3.847   3.887
 1977SOL    HW2 6306   0.357   3.717   3.979
 1978SOL     OW 6307   0.969   3.992   4.163
 1978SOL    HW1 6308   0.931   4.026   4.077
 1978SOL    HW2 6309   1.067   4.009   4.164
 1979SOL     OW 6310   1.018   4.408   5.150
 1979SOL    HW1 6311   0.944   4.347   5.175
 1979SOL    HW2 6312   1.105   4.359   5.156
 1980SOL     OW 6313   1.212   5.299   4.525
 1980SOL    HW1 6314   1.223   5.373   4.459
 1980SOL    HW2 6315   1.302   5.267   4.555
 1981SOL     OW 6316   0.472   4.856   4.421
 1981SOL    HW1 6317   0.396   4.851   4.485
 1981SOL    HW2 6318   0.438   4.851   4.328
 1982SOL     OW 6319   1.233   5.510   4.347
 1982SOL    HW1 6320   1.285   5.572   4.289
 1982SOL    HW2 6321   1.155   5.559   4.387
 1983SOL     OW 6322   1.018   4.217   3.766
 1983SOL    HW1 6323   0.985   4.304   3.732
 1983SOL    HW2 6324   1.087   4.233   3.837
 1984SOL     OW 6325   0.151   4.261   5.222
 1984SOL    HW1 6326   0.198   4.298   5.142
 1984SOL    HW2 6327   0.054   4.284   5.218
 1985SOL     OW 6328   0.575   3.933   4.935
 1985SOL    HW1 6329   0.619   3.880   5.008
 1985SOL    HW2 6330   0.476   3.922   4.941
 1986SOL     OW 6331   0.871   4.194   4.330
 1986SOL    HW1 6332   0.836   4.255   4.259
 1986SOL    HW2 6333   0.907   4.111   4.288
 1987SOL     OW 6334   1.016   3.769   4.431
 1987SOL    HW1 6335   0.954   3.769   4.352
 1987SOL    HW2 6336   0.985   3.699   4.497
 1988SOL     OW 6337   1.473   4.904   4.550
 1988SOL    HW1 6338   1.402   4.862   4.494
 1988SOL    HW2 6339   1.554   4.920   4.494
 1989SOL     OW 6340   1.446   4.335   4.657
 1989SOL    HW1 6341   1.379   4.262   4.665
 1989SOL    HW2 6342   1.510   4.330   4.734
 1990SOL     OW 6343   1.770   4.462   4.106
 1990SOL    HW1 6344   1.838   4.437   4.174
 1990SOL    HW2 6345   1.778   4.401   4.027
 1991SOL     OW 6346   0.506   5.144   3.855
 1991SOL    HW1 6347   0.424   5.108   3.899
 1991SOL    HW2 6348   0.506   5.119   3.758
 1992SOL     OW 6349   1.695   4.985   4.394
 1992SOL    HW1 6350   1.791   4.970   4.416
 1992SOL    HW2 6351   1.675   5.083   4.391
 1993SOL     OW 6352   1.377   4.292   3.772
 1993SOL    HW1 6353   1.326   4.265   3.854
 1993SOL    HW2 6354   1.474   4.273   3.786
 1994SOL     OW 6355   0.531   4.009   4.043
 1994SOL    HW1 6356   0.591   3.957   3.982
 1994SOL    HW2 6357   0.499   4.092   3.997
 1995SOL     OW 6358   1.709   4.949   5.262
 1995SOL    HW1 6359   1.796   4.900   5.266
 1995SOL    HW2 6360   1.720   5.041   5.298
 1996SOL     OW 6361   1.021   5.081   5.062
 1996SOL    HW1 6362   0.932   5.050   5.096
 1996SOL    HW2 6363   1.094   5.025   5.101
 1997SOL     OW 6364   1.596   5.360   5.416
 1997SOL    HW1 6365   1.571   5.398   5.327
 1997SOL    HW2 6366   1.672   5.295   5.404
 1998SOL     OW 6367   1.135   4.983   4.830
 1998SOL    HW1 6368   1.075   5.016   4.903
 1998SOL    HW2 6369   1.099   5.013   4.741
 1999SOL     OW 6370   1.561   4.809   4.808
 1999SOL    HW1 6371   1.554   4.877   4.881
 1999SOL    HW2 6372   1.506   4.838   4.730
 2000SOL     OW 6373   0.959   3.773   5.057
 2000SOL    HW1 6374   0.991   3.771   4.962
 2000SOL    HW2 6375   1.019   3.831   5.111
 2001SOL     OW 6376   0.934   4.835   5.461
 2001SOL    HW1 6377   0.839   4.852   5.488
 2001SOL    HW2 6378   0.937   4.753   5.403
 2002SOL     OW 6379   0.711   4.769   4.132
 2002SOL    HW1 6380   0.688   4.732   4.222
 2002SOL    HW2 6381   0.800   4.733   4.103
 2003SOL     OW 6382   0.415   4.548   4.983
 2003SOL    HW1 6383   0.493   4.545   5.046
 2003SOL    HW2 6384   0.373   4.457   4.979
 2004SOL     OW 6385   1.246   4.090   5.011
 2004SOL    HW1 6386   1.263   4.174   5.063
 2004SOL    HW2 6387   1.157   4.095   4.966
 2005SOL     OW 6388   6.470   5.324   5.045
 2005SOL    HW1 6389   0.033   5.390   5.002
 2005SOL    HW2 6390   0.000   5.231   5.024
 2006SOL     OW 6391   0.355   4.836   4.164
 2006SOL    HW1 6392   0.348   4.910   4.097
 2006SOL    HW2 6393   0.347   4.748   4.117
 2007SOL     OW 6394   0.558   4.183   4.581
 2007SOL    HW1 6395   0.558   4.244   4.502
 2007SOL    HW2 6396   0.615   4.222   4.653
 2008SOL     OW 6397   1.241   5.086   4.126
 2008SOL    HW1 6398   1.301   5.158   4.160
 2008SOL    HW2 6399   1.147   5.103   4.158
 2009SOL     OW 6400   1.315   5.187   4.866
 2009SOL    HW1 6401   1.352   5.194   4.959
 2009SOL    HW2 6402   1.252   5.109   4.862
 2010SOL     OW 6403   1.559   4.322   4.230
 2010SOL    HW1 6404   1.497   4.380   4.284
 2010SOL    HW2 6405   1.626   4.380   4.183
 2011SOL     OW 6406   0.345   5.304   4.967
 2011SOL    HW1 6407   0.340   5.231   4.898
 2011SOL    HW2 6408   0.441   5.327   4.984
 2012SOL     OW 6409   0.439   4.493   5.342
 2012SOL    HW1 6410   0.503   4.521   5.271
 2012SOL    HW2 6411   0.467   4.405   5.381
 2013SOL     OW 6412   1.605   4.503   5.414
 2013SOL    HW1 6413   1.513   4.540   5.410
 2013SOL    HW2 6414   1.657   4.533   5.334
 2014SOL     OW 6415   0.957   3.901   5.543
 2014SOL    HW1 6416   1.022   3.964   5.500
 2014SOL    HW2 6417   1.006   3.834   5.598
 2015SOL     OW 6418   0.492   3.721   5.480
 2015SOL    HW1 6419   0.451   3.650   5.424
 2015SOL    HW2 6420   0.441   3.807   5.470
 2016SOL     OW 6421   0.564   4.598   4.754
 2016SOL    HW1 6422   0.613   4.685   4.756
 2016SOL    HW2 6423   0.511   4.587   4.838
 2017SOL     OW 6424   1.275   4.553   4.736
 2017SOL    HW1 6425   1.183   4.529   4.706
 2017SOL    HW2 6426   1.340   4.482   4.707
 2018SOL     OW 6427   1.197   4.245   3.977
 2018SOL    HW1 6428   1.218   4.168   4.037
 2018SOL    HW2 6429   1.159   4.321   4.031
 2019SOL     OW 6430   0.303   3.914   4.960
 2019SOL    HW1 6431   0.275   3.955   5.047
 2019SOL    HW2 6432   0.252   3.829   4.945
 2020SOL     OW 6433   0.039   5.057   4.994
 2020SOL    HW1 6434   0.111   5.003   5.038
 2020SOL    HW2 6435   6.452   5.041   5.040
 2021SOL     OW 6436   0.703   4.347   4.758
 2021SOL    HW1 6437   0.776   4.331   4.691
 2021SOL    HW2 6438   0.659   4.435   4.738
 2022SOL     OW 6439   1.749   4.654   5.598
 2022SOL    HW1 6440   1.697   4.593   5.539
 2022SOL    HW2 6441   1.691   4.685   5.673
 2023SOL     OW 6442   0.345   3.800   4.382
 2023SOL    HW1 6443   0.293   3.884   4.390
 2023SOL    HW2 6444   0.357   3.758   4.472
 2024SOL     OW 6445   1.604   4.107   4.060
 2024SOL    HW1 6446   1.654   4.041   4.115
 2024SOL    HW2 6447   1.568   4.179   4.119
 2025SOL     OW 6448   1.011   4.477   4.672
 2025SOL    HW1 6449   0.984   4.495   4.767
 2025SOL    HW2 6450   0.981   4.385   4.645
 2026SOL     OW 6451   0.968   5.278   5.523
 2026SOL    HW1 6452   0.953   5.347   5.453
 2026SOL    HW2 6453   1.011   5.198   5.481
 2027SOL     OW 6454   1.806   5.199   5.330
 2027SOL    HW1 6455   1.823   5.227   5.235
 2027SOL    HW2 6456   1.891   5.203   5.382
 2028SOL     OW 6457   0.413   4.699   5.525
 2028SOL    HW1 6458   0.476   4.694   5.602
 2028SOL    HW2 6459   0.429   4.621   5.464
 2029SOL     OW 6460   1.491   3.969   3.841
 2029SOL    HW1 6461   1.442   3.891   3.878
 2029SOL    HW2 6462   1.528   4.024   3.916
 2030SOL     OW 6463   1.254   4.531   3.734
 2030SOL    HW1 6464   1.297   4.441   3.745
 2030SOL    HW2 6465   1.277   4.568   3.645
 2031SOL     OW 6466   1.057   5.083   4.586
 2031SOL    HW1 6467   1.070   5.002   4.529
 2031SOL    HW2 6468   1.113   5.158   4.552
 2032SOL     OW 6469   0.305   4.520   4.657
 2032SOL    HW1 6470   0.396   4.559   4.665
 2032SOL    HW2 6471   0.310   4.421   4.669
 2033SOL     OW 6472   0.323   4.246   4.707
 2033SOL    HW1 6473   0.256   4.173   4.699
 2033SOL    HW2 6474   0.407   4.221   4.659
 2034SOL     OW 6475   1.120   4.091   5.421
 2034SOL    HW1 6476   1.080   4.145   5.494
 2034SOL    HW2 6477   1.211   4.126   5.399
 2035SOL     OW 6478   1.139   3.922   5.203
 2035SOL    HW1 6479   1.117   3.981   5.281
 2035SOL    HW2 6480   1.187   3.975   5.133
 2036SOL     OW 6481   6.492   4.970   3.915
 2036SOL    HW1 6482   6.411   4.957   3.859
 2036SOL    HW2 6483   0.018   4.883   3.957
 2037SOL     OW 6484   0.118   5.528   4.651
 2037SOL    HW1 6485   0.080   5.484   4.570
 2037SOL    HW2 6486   0.218   5.526   4.646
 2038SOL     OW 6487   0.509   5.280   4.617
 2038SOL    HW1 6488   0.583   5.342   4.642
 2038SOL    HW2 6489   0.543   5.210   4.554
 2039SOL     OW 6490   0.906   4.508   4.919
 2039SOL    HW1 6491   0.956   4.481   5.002
 2039SOL    HW2 6492   0.822   4.454   4.912
 2040SOL     OW 6493   0.059   4.165   4.874
 2040SOL    HW1 6494   0.122   4.217   4.930
 2040SOL    HW2 6495   6.473   4.151   4.923
 2041SOL     OW 6496   0.250   4.280   5.490
 2041SOL    HW1 6497   0.348   4.259   5.487
 2041SOL    HW2 6498   0.215   4.288   5.397
 2042SOL     OW 6499   1.375   4.641   5.354
 2042SOL    HW1 6500   1.393   4.739   5.352
 2042SOL    HW2 6501   1.361   4.608   5.260
 2043SOL     OW 6502   0.825   4.313   4.079
 2043SOL    HW1 6503   0.828   4.228   4.026
 2043SOL    HW2 6504   0.744   4.365   4.054
 2044SOL     OW 6505   1.625   4.317   4.863
 2044SOL    HW1 6506   1.595   4.250   4.931
 2044SOL    HW2 6507   1.724   4.310   4.850
 2045SOL     OW 6508   0.202   5.308   5.435
 2045SOL    HW1 6509   0.194   5.367   5.515
 2045SOL    HW2 6510   0.223   5.214   5.464
 2046SOL     OW 6511   0.742   4.155   4.953
 2046SOL    HW1 6512   0.675   4.080   4.950
 2046SOL    HW2 6513   0.716   4.225   4.886
 2047SOL     OW 6514   0.865   5.437   5.305
 2047SOL    HW1 6515   0.815   5.367   5.253
 2047SOL    HW2 6516   0.899   5.507   5.243
 2048SOL     OW 6517   0.446   4.226   3.895
 2048SOL    HW1 6518   0.520   4.290   3.918
 2048SOL    HW2 6519   0.358   4.274   3.897
 2049SOL     OW 6520   0.198   4.885   5.144
 2049SOL    HW1 6521   0.198   4.873   5.243
 2049SOL    HW2 6522   0.197   4.795   5.100
 2050SOL     OW 6523   1.246   4.749   4.925
 2050SOL    HW1 6524   1.261   4.680   4.854
 2050SOL    HW2 6525   1.206   4.831   4.884
 2051SOL     OW 6526   1.302   4.577   4.003
 2051SOL    HW1 6527   1.229   4.542   4.062
 2051SOL    HW2 6528   1.278   4.562   3.908
 2052SOL     OW 6529   1.727   5.412   4.889
 2052SOL    HW1 6530   1.799   5.451   4.831
 2052SOL    HW2 6531   1.701   5.322   4.853
 2053SOL     OW 6532   1.250   5.459   4.851
 2053SOL    HW1 6533   1.340   5.503   4.839
 2053SOL    HW2 6534   1.262   5.359   4.854
 2054SOL     OW 6535   0.105   5.035   4.718
 2054SOL    HW1 6536   0.070   5.044   4.811
 2054SOL    HW2 6537   0.046   5.087   4.655
 2055SOL     OW 6538   0.709   5.482   5.527
 2055SOL    HW1 6539   0.633   5.542   5.502
 2055SOL    HW2 6540   0.771   5.473   5.449
 2056SOL     OW 6541   1.767   3.926   4.188
 2056SOL    HW1 6542   1.818   3.903   4.105
 2056SOL    HW2 6543   1.721   3.845   4.222
 2057SOL     OW 6544   1.389   5.296   4.233
 2057SOL    HW1 6545   1.449   5.332   4.161
 2057SOL    HW2 6546   1.324   5.367   4.260
 2058SOL     OW 6547   0.148   5.494   5.638
 2058SOL    HW1 6548   0.097   5.420   5.682
 2058SOL    HW2 6549   0.208   5.538   5.705
 2059SOL     OW 6550   1.272   4.675   4.375
 2059SOL    HW1 6551   1.345   4.609   4.395
 2059SOL    HW2 6552   1.308   4.747   4.316
 2060SOL     OW 6553   0.770   5.006   5.135
 2060SOL    HW1 6554   0.755   5.064   5.215
 2060SOL    HW2 6555   0.696   5.020   5.069
 2061SOL     OW 6556   0.680   5.347   3.906
 2061SOL    HW1 6557   0.695   5.385   3.815
 2061SOL    HW2 6558   0.623   5.265   3.899
 2062SOL     OW 6559   1.579   5.437   5.135
 2062SOL    HW1 6560   1.630   5.424   5.050
 2062SOL    HW2 6561   1.565   5.535   5.150
 2063SOL     OW 6562   1.826   3.856   4.729
 2063SOL    HW1 6563   1.860   3.770   4.690
 2063SOL    HW2 6564   1.745   3.886   4.679
 2064SOL     OW 6565   0.205   4.030   4.425
 2064SOL    HW1 6566   0.109   4.053   4.412
 2064SOL    HW2 6567   0.225   4.020   4.522
 2065SOL     OW 6568   1.222   5.286   3.786
 2065SOL    HW1 6569   1.214   5.192   3.818
 2065SOL    HW2 6570   1.143   5.309   3.729
 2066SOL     OW 6571   0.804   4.735   5.104
 2066SOL    HW1 6572   0.847   4.717   5.015
 2066SOL    HW2 6573   0.794   4.833   5.116
 2067SOL     OW 6574   0.944   4.668   4.051
 2067SOL    HW1 6575   0.970   4.674   3.955
 2067SOL    HW2 6576   0.991   4.591   4.094
 2068SOL     OW 6577   1.484   5.368   3.803
 2068SOL    HW1 6578   1.390   5.339   3.788
 2068SOL    HW2 6579   1.531   5.378   3.714
 2069SOL     OW 6580   0.365   5.106   5.172
 2069SOL    HW1 6581   0.348   5.180   5.107
 2069SOL    HW2 6582   0.307   5.028   5.150
 2070SOL     OW 6583   1.574   5.007   5.009
 2070SOL    HW1 6584   1.638   4.976   5.079
 2070SOL    HW2 6585   1.509   5.071   5.050
 2071SOL     OW 6586   1.072   4.845   4.465
 2071SOL    HW1 6587   0.994   4.794   4.500
 2071SOL    HW2 6588   1.140   4.781   4.429
 2072SOL     OW 6589   1.035   3.967   4.647
 2072SOL    HW1 6590   1.026   3.934   4.553
 2072SOL    HW2 6591   1.044   3.889   4.709
 2073SOL     OW 6592   0.592   5.203   4.213
 2073SOL    HW1 6593   0.643   5.152   4.144
 2073SOL    HW2 6594   0.494   5.197   4.193
 2074SOL     OW 6595   1.771   4.042   5.142
 2074SOL    HW1 6596   1.835   4.118   5.132
 2074SOL    HW2 6597   1.804   3.963   5.091
 2075SOL     OW 6598   0.260   5.044   3.971
 2075SOL    HW1 6599   0.163   5.020   3.967
 2075SOL    HW2 6600   0.276   5.103   4.051
 2076SOL     OW 6601   0.193   4.815   5.419
 2076SOL    HW1 6602   0.144   4.733   5.389
 2076SOL    HW2 6603   0.279   4.788   5.464
 2077SOL     OW 6604   0.697   3.799   5.143
 2077SOL    HW1 6605   0.790   3.786   5.109
 2077SOL    HW2 6606   0.700   3.844   5.232
 2078SOL     OW 6607   0.107   4.044   3.710
 2078SOL    HW1 6608   0.012   4.023   3.688
 2078SOL    HW2 6609   0.128   4.138   3.681
 2079SOL     OW 6610   1.366   4.565   5.093
 2079SOL    HW1 6611   1.306   4.625   5.040
 2079SOL    HW2 6612   1.457   4.565   5.051
 2080SOL     OW 6613   0.075   3.888   4.076
 2080SOL    HW1 6614   0.110   3.973   4.116
 2080SOL    HW2 6615   0.151   3.835   4.038
 2081SOL     OW 6616   1.166   5.025   3.864
 2081SOL    HW1 6617   1.066   5.017   3.859
 2081SOL    HW2 6618   1.194   5.034   3.959
 2082SOL     OW 6619   0.631   4.527   5.147
 2082SOL    HW1 6620   0.692   4.606   5.136
 2082SOL    HW2 6621   0.685   4.446   5.168
 2083SOL     OW 6622   1.499   5.567   4.816
 2083SOL    HW1 6623   1.520   5.622   4.735
 2083SOL    HW2 6624   1.581   5.518   4.845
 2084SOL     OW 6625   1.445   4.905   5.337
 2084SOL    HW1 6626   1.446   4.923   5.436
 2084SOL    HW2 6627   1.536   4.922   5.300
 2085SOL     OW 6628   0.368   5.508   5.312
 2085SOL    HW1 6629   0.284   5.562   5.318
 2085SOL    HW2 6630   0.347   5.412   5.332
 2086SOL     OW 6631   1.606   4.579   4.961
 2086SOL    HW1 6632   1.616   4.494   4.910
 2086SOL    HW2 6633   1.590   4.654   4.897
 2087SOL     OW 6634   1.236   4.053   4.170
 2087SOL    HW1 6635   1.298   3.975   4.173
 2087SOL    HW2 6636   1.249   4.109   4.251
 2088SOL     OW 6637   0.556   4.404   4.405
 2088SOL    HW1 6638   0.605   4.491   4.405
 2088SOL    HW2 6639   0.491   4.403   4.328
 2089SOL     OW 6640   1.720   4.054   5.410
 2089SOL    HW1 6641   1.738   4.053   5.312
 2089SOL    HW2 6642   1.637   4.001   5.429
 2090SOL     OW 6643   1.729   4.616   5.201
 2090SOL    HW1 6644   1.722   4.714   5.221
 2090SOL    HW2 6645   1.690   4.598   5.111
 2091SOL     OW 6646   0.882   5.071   3.828
 2091SOL    HW1 6647   0.834   5.073   3.916
 2091SOL    HW2 6648   0.891   5.165   3.793
 2092SOL     OW 6649   0.693   5.472   4.660
 2092SOL    HW1 6650   0.672   5.569   4.661
 2092SOL    HW2 6651   0.792   5.459   4.650
 2093SOL     OW 6652   0.865   4.704   4.591
 2093SOL    HW1 6653   0.917   4.624   4.622
 2093SOL    HW2 6654   0.818   4.744   4.669
 2094SOL     OW 6655   1.021   4.658   3.793
 2094SOL    HW1 6656   1.002   4.729   3.725
 2094SOL    HW2 6657   1.110   4.616   3.773
 2095SOL     OW 6658   1.820   5.270   4.585
 2095SOL    HW1 6659   1.755   5.272   4.509
 2095SOL    HW2 6660   1.783   5.215   4.659
 2096SOL     OW 6661   0.257   5.058   5.543
 2096SOL    HW1 6662   0.218   4.975   5.504
 2096SOL    HW2 6663   0.255   5.053   5.643
 2097SOL     OW 6664   0.194   4.975   4.340
 2097SOL    HW1 6665   0.192   4.934   4.431
 2097SOL    HW2 6666   0.233   4.910   4.275
 2098SOL     OW 6667   0.723   5.177   5.345
 2098SOL    HW1 6668   0.635   5.135   5.368
 2098SOL    HW2 6669   0.762   5.219   5.427
 2099SOL     OW 6670   1.858   3.832   5.001
 2099SOL    HW1 6671   1.929   3.761   5.007
 2099SOL    HW2 6672   1.836   3.848   4.905
 2100SOL     OW 6673   0.322   4.138   4.198
 2100SOL    HW1 6674   0.398   4.081   4.166
 2100SOL    HW2 6675   0.289   4.103   4.286
 2101SOL     OW 6676   1.666   5.165   4.795
 2101SOL    HW1 6677   1.586   5.163   4.736
 2101SOL    HW2 6678   1.654   5.100   4.871
 2102SOL     OW 6679   0.289   4.304   4.974
 2102SOL    HW1 6680   0.358   4.253   5.025
 2102SOL    HW2 6681   0.300   4.287   4.876
 2103SOL     OW 6682   0.826   5.279   4.402
 2103SOL    HW1 6683   0.782   5.337   4.334
 2103SOL    HW2 6684   0.764   5.205   4.427
 2104SOL     OW 6685   1.428   3.976   4.843
 2104SOL    HW1 6686   1.456   3.884   4.870
 2104SOL    HW2 6687   1.369   4.015   4.914
 2105SOL     OW 6688   1.053   3.733   4.794
 2105SOL    HW1 6689   0.992   3.670   4.746
 2105SOL    HW2 6690   1.144   3.693   4.800
 2106SOL     OW 6691   0.772   5.038   4.078
 2106SOL    HW1 6692   0.748   4.944   4.099
 2106SOL    HW2 6693   0.854   5.064   4.130
 2107SOL     OW 6694   0.617   5.330   4.998
 2107SOL    HW1 6695   0.614   5.417   5.046
 2107SOL    HW2 6696   0.707   5.319   4.956
 2108SOL     OW 6697   1.365   3.736   3.917
 2108SOL    HW1 6698   1.417   3.663   3.873
 2108SOL    HW2 6699   1.267   3.718   3.908
 2109SOL     OW 6700   1.256   4.206   4.393
 2109SOL    HW1 6701   1.208   4.293   4.396
 2109SOL    HW2 6702   1.270   4.173   4.487
 2110SOL     OW 6703   1.591   3.938   4.622
 2110SOL    HW1 6704   1.530   3.965   4.697
 2110SOL    HW2 6705   1.592   4.010   4.552
 2111SOL     OW 6706   0.080   4.732   4.012
 2111SOL    HW1 6707   0.172   4.714   3.976
 2111SOL    HW2 6708   0.062   4.670   4.089
 2112SOL     OW 6709   0.903   5.399   4.066
 2112SOL    HW1 6710   0.822   5.378   4.010
 2112SOL    HW2 6711   0.883   5.475   4.127
 2113SOL     OW 6712   0.200   4.422   5.724
 2113SOL    HW1 6713   0.111   4.393   5.760
 2113SOL    HW2 6714   0.216   4.379   5.635
 2114SOL     OW 6715   6.474   4.118   6.358
 2114SOL    HW1 6716   6.382   4.151   6.379
 2114SOL    HW2 6717   6.469   4.047   6.288
 2115SOL     OW 6718   1.526   5.227   6.340
 2115SOL    HW1 6719   1.517   5.131   6.369
 2115SOL    HW2 6720   1.478   5.240   6.253
 2116SOL     OW 6721   1.147   4.385   6.239
 2116SOL    HW1 6722   1.149   4.471   6.291
 2116SOL    HW2 6723   1.072   4.328   6.270
 2117SOL     OW 6724   1.783   4.304   5.803
 2117SOL    HW1 6725   1.753   4.309   5.708
 2117SOL    HW2 6726   1.727   4.236   5.852
 2118SOL     OW 6727   0.733   4.959   0.132
 2118SOL    HW1 6728   0.725   4.987   0.228
 2118SOL    HW2 6729   0.792   5.024   0.084
 2119SOL     OW 6730   0.681   4.699   6.249
 2119SOL    HW1 6731   0.750   4.725   6.317
 2119SOL    HW2 6732   0.599   4.754   6.262
 2120SOL     OW 6733   1.628   4.139   6.378
 2120SOL    HW1 6734   1.537   4.152   6.338
 2120SOL    HW2 6735   1.631   4.183   6.468
 2121SOL     OW 6736   0.279   5.419   6.136
 2121SOL    HW1 6737   0.285   5.506   6.184
 2121SOL    HW2 6738   0.352   5.413   6.068
 2122SOL     OW 6739   0.198   5.163   6.067
 2122SOL    HW1 6740   0.213   5.256   6.101
 2122SOL    HW2 6741   0.161   5.106   6.140
 2123SOL     OW 6742   0.238   4.829   6.476
 2123SOL    HW1 6743   0.281   4.773   0.047
 2123SOL    HW2 6744   0.198   4.911   0.018
 2124SOL     OW 6745   0.588   4.717   5.752
 2124SOL    HW1 6746   0.625   4.775   5.679
 2124SOL    HW2 6747   0.631   4.740   5.839
 2125SOL     OW 6748   0.179   4.441   6.196
 2125SOL    HW1 6749   0.092   4.406   6.160
 2125SOL    HW2 6750   0.163   4.483   6.285
 2126SOL     OW 6751   1.850   5.472   5.895
 2126SOL    HW1 6752   1.928   5.465   5.957
 2126SOL    HW2 6753   1.847   5.563   5.854
 2127SOL     OW 6754   6.491   5.297   5.734
 2127SOL    HW1 6755   0.006   5.198   5.734
 2127SOL    HW2 6756   6.394   5.316   5.748
 2128SOL     OW 6757   1.694   4.634   6.232
 2128SOL    HW1 6758   1.730   4.579   6.156
 2128SOL    HW2 6759   1.661   4.721   6.196
 2129SOL     OW 6760   1.654   4.848   6.022
 2129SOL    HW1 6761   1.739   4.809   5.987
 2129SOL    HW2 6762   1.675   4.932   6.073
 2130SOL     OW 6763   0.612   5.088   6.323
 2130SOL    HW1 6764   0.559   5.004   6.319
 2130SOL    HW2 6765   0.610   5.133   6.233
 2131SOL     OW 6766   0.846   3.797   6.079
 2131SOL    HW1 6767   0.896   3.883   6.078
 2131SOL    HW2 6768   0.748   3.814   6.075
 2132SOL     OW 6769   1.550   4.739   5.789
 2132SOL    HW1 6770   1.472   4.681   5.812
 2132SOL    HW2 6771   1.586   4.781   5.872
 2133SOL     OW 6772   1.634   5.574   6.127
 2133SOL    HW1 6773   1.614   5.504   6.058
 2133SOL    HW2 6774   1.685   5.532   6.202
 2134SOL     OW 6775   0.601   4.446   5.864
 2134SOL    HW1 6776   0.596   4.537   5.823
 2134SOL    HW2 6777   0.539   4.441   5.942
 2135SOL     OW 6778   1.219   4.053   6.465
 2135SOL    HW1 6779   1.138   3.997   6.482
 2135SOL    HW2 6780   1.285   4.038   0.039
 2136SOL     OW 6781   1.588   5.386   5.930
 2136SOL    HW1 6782   1.687   5.400   5.918
 2136SOL    HW2 6783   1.545   5.376   5.840
 2137SOL     OW 6784   1.099   4.453   5.975
 2137SOL    HW1 6785   1.121   4.432   6.071
 2137SOL    HW2 6786   1.010   4.414   5.952
 2138SOL     OW 6787   0.117   4.566   6.439
 2138SOL    HW1 6788   0.161   4.656   6.440
 2138SOL    HW2 6789   0.026   4.572   6.479
 2139SOL     OW 6790   0.890   4.082   5.811
 2139SOL    HW1 6791   0.944   4.128   5.741
 2139SOL    HW2 6792   0.840   4.006   5.770
 2140SOL     OW 6793   1.383   4.867   6.104
 2140SOL    HW1 6794   1.476   4.862   6.068
 2140SOL    HW2 6795   1.331   4.935   6.052
 2141SOL     OW 6796   0.541   3.957   0.024
 2141SOL    HW1 6797   0.522   3.977   0.120
 2141SOL    HW2 6798   0.523   4.038   6.468
 2142SOL     OW 6799   1.003   5.184   6.056
 2142SOL    HW1 6800   0.976   5.272   6.018
 2142SOL    HW2 6801   1.002   5.190   6.156
 2143SOL     OW 6802   0.400   5.525   6.480
 2143SOL    HW1 6803   0.369   5.431   6.473
 2143SOL    HW2 6804   0.499   5.527   6.494
 2144SOL     OW 6805   1.871   4.681   6.442
 2144SOL    HW1 6806   1.801   4.660   6.374
 2144SOL    HW2 6807   1.829   4.692   0.032
 2145SOL     OW 6808   0.321   4.652   5.852
 2145SOL    HW1 6809   0.407   4.672   5.806
 2145SOL    HW2 6810   0.277   4.573   5.810
 2146SOL     OW 6811   1.465   4.479   6.302
 2146SOL    HW1 6812   1.455   4.427   6.386
 2146SOL    HW2 6813   1.552   4.528   6.303
 2147SOL     OW 6814   1.163   5.483   5.842
 2147SOL    HW1 6815   1.075   5.470   5.887
 2147SOL    HW2 6816   1.181   5.407   5.780
 2148SOL     OW 6817   1.652   5.127   5.691
 2148SOL    HW1 6818   1.596   5.210   5.692
 2148SOL    HW2 6819   1.599   5.051   5.654
 2149SOL     OW 6820   0.489   5.454   5.958
 2149SOL    HW1 6821   0.527   5.530   6.012
 2149SOL    HW2 6822   0.554   5.429   5.887
 2150SOL     OW 6823   1.366   3.815   6.041
 2150SOL    HW1 6824   1.369   3.794   5.943
 2150SOL    HW2 6825   1.454   3.791   6.083
 2151SOL     OW 6826   0.425   4.397   6.073
 2151SOL    HW1 6827   0.423   4.298   6.064
 2151SOL    HW2 6828   0.337   4.429   6.109
 2152SOL     OW 6829   0.642   3.866   5.661
 2152SOL    HW1 6830   0.707   3.908   5.598
 2152SOL    HW2 6831   0.584   3.801   5.612
 2153SOL     OW 6832   0.572   3.843   6.058
 2153SOL    HW1 6833   0.509   3.847   6.136
 2153SOL    HW2 6834   0.547   3.913   5.992
 2154SOL     OW 6835   1.469   4.932   5.611
 2154SOL    HW1 6836   1.502   4.855   5.666
 2154SOL    HW2 6837   1.381   4.963   5.647
 2155SOL     OW 6838   0.313   3.745   5.806
 2155SOL    HW1 6839   0.364   3.831   5.802
 2155SOL    HW2 6840   0.367   3.676   5.853
 2156SOL     OW 6841   0.979   4.045   6.071
 2156SOL    HW1 6842   0.943   4.064   5.980
 2156SOL    HW2 6843   1.079   4.050   6.069
 2157SOL     OW 6844   0.452   4.856   6.280
 2157SOL    HW1 6845   0.384   4.845   6.352
 2157SOL    HW2 6846   0.408   4.853   6.190
 2158SOL     OW 6847   1.227   5.470   6.185
 2158SOL    HW1 6848   1.261   5.553   6.141
 2158SOL    HW2 6849   1.138   5.489   6.228
 2159SOL     OW 6850   1.043   4.233   5.637
 2159SOL    HW1 6851   1.008   4.323   5.611
 2159SOL    HW2 6852   1.116   4.244   5.705
 2160SOL     OW 6853   0.926   4.223   6.298
 2160SOL    HW1 6854   0.836   4.265   6.285
 2160SOL    HW2 6855   0.942   4.154   6.228
 2161SOL     OW 6856   0.967   3.655   6.282
 2161SOL    HW1 6857   0.924   3.710   6.210
 2161SOL    HW2 6858   0.921   3.567   6.287
 2162SOL     OW 6859   1.786   4.488   6.005
 2162SOL    HW1 6860   1.858   4.451   6.065
 2162SOL    HW2 6861   1.780   4.433   5.922
 2163SOL     OW 6862   0.515   5.171   5.787
 2163SOL    HW1 6863   0.422   5.134   5.795
 2163SOL    HW2 6864   0.572   5.106   5.737
 2164SOL     OW 6865   1.745   5.051   6.170
 2164SOL    HW1 6866   1.819   4.990   6.199
 2164SOL    HW2 6867   1.762   5.144   6.205
 2165SOL     OW 6868   1.398   4.308   5.629
 2165SOL    HW1 6869   1.350   4.278   5.711
 2165SOL    HW2 6870   1.497   4.293   5.641
 2166SOL     OW 6871   0.459   3.980   5.826
 2166SOL    HW1 6872   0.532   3.945   5.768
 2166SOL    HW2 6873   0.441   4.076   5.803
 2167SOL     OW 6874   0.735   4.776   5.980
 2167SOL    HW1 6875   0.716   4.742   6.073
 2167SOL    HW2 6876   0.822   4.739   5.949
 2168SOL     OW 6877   0.306   4.853   6.039
 2168SOL    HW1 6878   0.307   4.932   5.978
 2168SOL    HW2 6879   0.307   4.769   5.984
 2169SOL     OW 6880   0.476   4.209   6.415
 2169SOL    HW1 6881   0.524   4.279   6.362
 2169SOL    HW2 6882   0.475   4.236   0.011
 2170SOL     OW 6883   1.247   5.079   5.975
 2170SOL    HW1 6884   1.310   5.147   6.013
 2170SOL    HW2 6885   1.153   5.103   5.999
 2171SOL     OW 6886   1.541   4.348   6.062
 2171SOL    HW1 6887   1.494   4.378   6.145
 2171SOL    HW2 6888   1.611   4.415   6.037
 2172SOL     OW 6889   1.231   4.250   5.840
 2172SOL    HW1 6890   1.248   4.176   5.906
 2172SOL    HW2 6891   1.194   4.329   5.888
 2173SOL     OW 6892   0.367   3.832   6.252
 2173SOL    HW1 6893   0.325   3.920   6.272
 2173SOL    HW2 6894   0.385   3.783   6.337
 2174SOL     OW 6895   1.592   4.131   5.907
 2174SOL    HW1 6896   1.636   4.060   5.962
 2174SOL    HW2 6897   1.557   4.203   5.967
 2175SOL     OW 6898   1.495   3.987   5.692
 2175SOL    HW1 6899   1.448   3.907   5.731
 2175SOL    HW2 6900   1.528   4.046   5.765
 2176SOL     OW 6901   1.278   4.552   5.590
 2176SOL    HW1 6902   1.313   4.459   5.601
 2176SOL    HW2 6903   1.305   4.587   5.501
 2177SOL     OW 6904   1.137   5.159   6.320
 2177SOL    HW1 6905   1.120   5.060   6.320
 2177SOL    HW2 6906   1.205   5.180   6.250
 2178SOL     OW 6907   6.473   5.009   5.755
 2178SOL    HW1 6908   6.417   4.965   5.685
 2178SOL    HW2 6909   6.433   4.992   5.845
 2179SOL     OW 6910   0.008   5.535   0.035
 2179SOL    HW1 6911   0.047   5.461   0.091
 2179SOL    HW2 6912   0.044   5.527   6.442
 2180SOL     OW 6913   0.859   4.345   5.907
 2180SOL    HW1 6914   0.859   4.250   5.875
 2180SOL    HW2 6915   0.767   4.384   5.895
 2181SOL     OW 6916   0.415   4.244   5.779
 2181SOL    HW1 6917   0.499   4.297   5.790
 2181SOL    HW2 6918   0.337   4.307   5.774
 2182SOL     OW 6919   1.327   4.594   5.855
 2182SOL    HW1 6920   1.257   4.554   5.915
 2182SOL    HW2 6921   1.302   4.578   5.760
 2183SOL     OW 6922   1.742   3.935   6.028
 2183SOL    HW1 6923   1.796   3.910   5.947
 2183SOL    HW2 6924   1.696   3.854   6.064
 2184SOL     OW 6925   1.394   5.275   6.101
 2184SOL    HW1 6926   1.464   5.311   6.040
 2184SOL    HW2 6927   1.332   5.348   6.128
 2185SOL     OW 6928   1.278   4.679   6.269
 2185SOL    HW1 6929   1.340   4.600   6.264
 2185SOL    HW2 6930   1.311   4.751   6.208
 2186SOL     OW 6931   0.686   5.386   5.779
 2186SOL    HW1 6932   0.703   5.416   5.685
 2186SOL    HW2 6933   0.634   5.301   5.778
 2187SOL     OW 6934   1.837   3.939   0.010
 2187SOL    HW1 6935   1.855   3.848   6.473
 2187SOL    HW2 6936   1.763   3.982   6.458
 2188SOL     OW 6937   0.258   4.078   6.304
 2188SOL    HW1 6938   0.169   4.112   6.334
 2188SOL    HW2 6939   0.331   4.132   6.346
 2189SOL     OW 6940   1.216   5.280   5.664
 2189SOL    HW1 6941   1.219   5.182   5.685
 2189SOL    HW2 6942   1.135   5.300   5.610
 2190SOL     OW 6943   0.970   4.687   5.883
 2190SOL    HW1 6944   1.022   4.721   5.804
 2190SOL    HW2 6945   1.017   4.608   5.921
 2191SOL     OW 6946   1.485   5.359   5.668
 2191SOL    HW1 6947   1.389   5.333   5.660
 2191SOL    HW2 6948   1.524   5.368   5.576
 2192SOL     OW 6949   1.084   4.892   6.315
 2192SOL    HW1 6950   0.997   4.856   6.347
 2192SOL    HW2 6951   1.147   4.816   6.296
 2193SOL     OW 6952   0.638   5.219   6.076
 2193SOL    HW1 6953   0.683   5.157   6.012
 2193SOL    HW2 6954   0.567   5.270   6.029
 2194SOL     OW 6955   0.240   5.060   5.822
 2194SOL    HW1 6956   0.149   5.027   5.795
 2194SOL    HW2 6957   0.232   5.111   5.908
 2195SOL     OW 6958   0.120   4.067   5.596
 2195SOL    HW1 6959   0.027   4.064   5.560
 2195SOL    HW2 6960   0.165   4.151   5.567
 2196SOL     OW 6961   0.102   3.926   5.835
 2196SOL    HW1 6962   0.123   3.991   5.762
 2196SOL    HW2 6963   0.177   3.861   5.845
 2197SOL     OW 6964   1.223   5.004   5.712
 2197SOL    HW1 6965   1.180   4.914   5.702
 2197SOL    HW2 6966   1.233   5.025   5.810
 2198SOL     OW 6967   1.256   4.066   6.050
 2198SOL    HW1 6968   1.293   3.973   6.043
 2198SOL    HW2 6969   1.299   4.114   6.126
 2199SOL     OW 6970   0.606   4.420   6.276
 2199SOL    HW1 6971   0.644   4.512   6.277
 2199SOL    HW2 6972   0.543   4.410   6.199
 2200SOL     OW 6973   0.785   5.113   5.664
 2200SOL    HW1 6974   0.799   5.094   5.761
 2200SOL    HW2 6975   0.852   5.181   5.633
 2201SOL     OW 6976   0.671   5.578   0.042
 2201SOL    HW1 6977   0.618   5.663   0.041
 2201SOL    HW2 6978   0.768   5.599   0.035
 2202SOL     OW 6979   0.854   4.788   6.449
 2202SOL    HW1 6980   0.928   4.760   0.010
 2202SOL    HW2 6981   0.791   4.848   6.499
 2203SOL     OW 6982   1.111   4.763   5.656
 2203SOL    HW1 6983   1.044   4.784   5.584
 2203SOL    HW2 6984   1.162   4.681   5.631
 2204SOL     OW 6985   1.789   5.291   6.312
 2204SOL    HW1 6986   1.691   5.273   6.322
 2204SOL    HW2 6987   1.832   5.294   6.402
 2205SOL     OW 6988   0.136   4.942   6.235
 2205SOL    HW1 6989   0.162   4.897   6.321
 2205SOL    HW2 6990   0.188   4.902   6.160
 2206SOL     OW 6991   0.403   4.128   6.071
 2206SOL    HW1 6992   0.391   4.070   5.991
 2206SOL    HW2 6993   0.342   4.097   6.144
 2207SOL     OW 6994   0.817   5.281   6.287
 2207SOL    HW1 6995   0.772   5.285   6.197
 2207SOL    HW2 6996   0.767   5.217   6.346
 2208SOL     OW 6997   0.798   5.044   5.928
 2208SOL    HW1 6998   0.777   4.949   5.951
 2208SOL    HW2 6999   0.879   5.074   5.979
 2209SOL     OW 7000   1.375   3.753   5.773
 2209SOL    HW1 7001   1.424   3.682   5.723
 2209SOL    HW2 7002   1.277   3.732   5.773
 2210SOL     OW 7003   1.356   4.188   6.276
 2210SOL    HW1 7004   1.308   4.274   6.261
 2210SOL    HW2 7005   1.309   4.135   6.347
 2211SOL     OW 7006   0.907   5.424   5.950
 2211SOL    HW1 7007   0.832   5.405   5.887
 2211SOL    HW2 7008   0.886   5.507   6.003
 2212SOL     OW 7009   0.200   6.214   0.166
 2212SOL    HW1 7010   0.186   6.242   0.261
 2212SOL    HW2 7011   0.132   6.146   0.139
 2213SOL     OW 7012   0.231   5.792   0.955
 2213SOL    HW1 7013   0.259   5.794   1.051
 2213SOL    HW2 7014   0.182   5.707   0.935
 2214SOL     OW 7015   6.485   5.902   0.657
 2214SOL    HW1 7016   6.422   5.965   0.612
 2214SOL    HW2 7017   6.454   5.808   0.643
 2215SOL     OW 7018   1.183   6.298   0.637
 2215SOL    HW1 7019   1.254   6.367   0.648
 2215SOL    HW2 7020   1.120   6.302   0.714
 2216SOL     OW 7021   1.759   6.192   0.210
 2216SOL    HW1 7022   1.700   6.226   0.138
 2216SOL    HW2 7023   1.716   6.114   0.255
 2217SOL     OW 7024   0.916   6.302   1.828
 2217SOL    HW1 7025   0.930   6.371   1.899
 2217SOL    HW2 7026   0.946   6.338   1.740
 2218SOL     OW 7027   0.690   0.073   0.682
 2218SOL    HW1 7028   0.751   0.070   0.761
 2218SOL    HW2 7029   0.618   0.140   0.697
 2219SOL     OW 7030   0.468   5.943   1.428
 2219SOL    HW1 7031   0.558   5.903   1.446
 2219SOL    HW2 7032   0.397   5.885   1.466
 2220SOL     OW 7033   1.560   6.011   0.751
 2220SOL    HW1 7034   1.473   6.004   0.703
 2220SOL    HW2 7035   1.579   6.107   0.772
 2221SOL     OW 7036   1.668   5.667   1.501
 2221SOL    HW1 7037   1.698   5.724   1.424
 2221SOL    HW2 7038   1.599   5.716   1.553
 2222SOL     OW 7039   0.141   6.249   0.436
 2222SOL    HW1 7040   0.054   6.212   0.403
 2222SOL    HW2 7041   0.128   6.289   0.527
 2223SOL     OW 7042   0.117   6.421   1.651
 2223SOL    HW1 7043   0.216   6.417   1.632
 2223SOL    HW2 7044   0.071   6.463   1.573
 2224SOL     OW 7045   0.843   5.606   0.505
 2224SOL    HW1 7046   0.890   5.690   0.477
 2224SOL    HW2 7047   0.745   5.616   0.489
 2225SOL     OW 7048   0.346   5.835   1.907
 2225SOL    HW1 7049   0.387   5.918   1.945
 2225SOL    HW2 7050   0.256   5.857   1.868
 2226SOL     OW 7051   0.593   6.306   0.283
 2226SOL    HW1 7052   0.566   6.381   0.223
 2226SOL    HW2 7053   0.534   6.303   0.363
 2227SOL     OW 7054   1.256   5.978   0.938
 2227SOL    HW1 7055   1.169   5.929   0.931
 2227SOL    HW2 7056   1.314   5.933   1.006
 2228SOL     OW 7057   0.775   6.213   1.428
 2228SOL    HW1 7058   0.763   6.173   1.519
 2228SOL    HW2 7059   0.763   6.142   1.358
 2229SOL     OW 7060   1.367   6.099   1.713
 2229SOL    HW1 7061   1.371   6.154   1.797
 2229SOL    HW2 7062   1.440   6.030   1.716
 2230SOL     OW 7063   1.002   5.966   1.178
 2230SOL    HW1 7064   0.909   5.985   1.208
 2230SOL    HW2 7065   1.000   5.917   1.091
 2231SOL     OW 7066   1.084   6.323   0.373
 2231SOL    HW1 7067   1.114   6.323   0.468
 2231SOL    HW2 7068   0.990   6.290   0.368
 2232SOL     OW 7069   0.102   6.346   0.690
 2232SOL    HW1 7070   0.174   6.330   0.758
 2232SOL    HW2 7071   0.013   6.320   0.728
 2233SOL     OW 7072   0.844   5.858   0.188
 2233SOL    HW1 7073   0.872   5.943   0.142
 2233SOL    HW2 7074   0.868   5.780   0.130
 2234SOL     OW 7075   1.685   6.171   1.835
 2234SOL    HW1 7076   1.652   6.248   1.780
 2234SOL    HW2 7077   1.697   6.091   1.776
 2235SOL     OW 7078   0.583   5.712   0.929
 2235SOL    HW1 7079   0.586   5.727   1.027
 2235SOL    HW2 7080   0.571   5.800   0.882
 2236SOL     OW 7081   1.577   6.290   0.790
 2236SOL    HW1 7082   1.516   6.275   0.868
 2236SOL    HW2 7083   1.663   6.329   0.823
 2237SOL     OW 7084   0.215   5.820   1.477
 2237SOL    HW1 7085   0.180   5.913   1.489
 2237SOL    HW2 7086   0.186   5.763   1.555
 2238SOL     OW 7087   1.415   5.696   0.446
 2238SOL    HW1 7088   1.409   5.660   0.353
 2238SOL    HW2 7089   1.510   5.718   0.467
 2239SOL     OW 7090   0.414   6.253   0.483
 2239SOL    HW1 7091   0.439   6.162   0.517
 2239SOL    HW2 7092   0.316   6.254   0.463
 2240SOL     OW 7093   1.477   5.803   1.658
 2240SOL    HW1 7094   1.474   5.808   1.758
 2240SOL    HW2 7095   1.388   5.774   1.623
 2241SOL     OW 7096   0.786   5.852   1.751
 2241SOL    HW1 7097   0.869   5.797   1.751
 2241SOL    HW2 7098   0.727   5.824   1.827
 2242SOL     OW 7099   1.248   6.206   1.488
 2242SOL    HW1 7100   1.287   6.163   1.569
 2242SOL    HW2 7101   1.291   6.295   1.473
 2243SOL     OW 7102   0.919   6.067   0.836
 2243SOL    HW1 7103   0.899   6.065   0.738
 2243SOL    HW2 7104   0.943   5.975   0.867
 2244SOL     OW 7105   0.581   5.645   0.434
 2244SOL    HW1 7106   0.500   5.639   0.492
 2244SOL    HW2 7107   0.582   5.734   0.388
 2245SOL     OW 7108   0.313   5.642   0.219
 2245SOL    HW1 7109   0.327   5.618   0.123
 2245SOL    HW2 7110   0.355   5.572   0.277
 2246SOL     OW 7111   0.972   5.831   0.428
 2246SOL    HW1 7112   0.930   5.846   0.338
 2246SOL    HW2 7113   1.068   5.858   0.425
 2247SOL     OW 7114   1.002   6.343   1.558
 2247SOL    HW1 7115   0.925   6.312   1.502
 2247SOL    HW2 7116   1.085   6.295   1.531
 2248SOL     OW 7117   0.470   0.237   0.711
 2248SOL    HW1 7118   0.382   0.261   0.752
 2248SOL    HW2 7119   0.455   0.186   0.626
 2249SOL     OW 7120   0.947   6.086   0.078
 2249SOL    HW1 7121   0.936   6.097   6.479
 2249SOL    HW2 7122   1.041   6.108   0.104
 2250SOL     OW 7123   0.132   6.082   1.472
 2250SOL    HW1 7124   0.193   6.114   1.400
 2250SOL    HW2 7125   0.042   6.125   1.462
 2251SOL     OW 7126   0.574   5.757   1.198
 2251SOL    HW1 7127   0.602   5.686   1.263
 2251SOL    HW2 7128   0.475   5.769   1.202
 2252SOL     OW 7129   0.877   6.052   0.567
 2252SOL    HW1 7130   0.854   6.114   0.493
 2252SOL    HW2 7131   0.907   5.964   0.529
 2253SOL     OW 7132   1.025   5.628   0.718
 2253SOL    HW1 7133   0.960   5.626   0.643
 2253SOL    HW2 7134   1.005   5.554   0.782
 2254SOL     OW 7135   1.398   6.217   0.988
 2254SOL    HW1 7136   1.343   6.135   0.970
 2254SOL    HW2 7137   1.462   6.198   1.063
 2255SOL     OW 7138   1.769   6.366   0.432
 2255SOL    HW1 7139   1.833   6.317   0.490
 2255SOL    HW2 7140   1.772   6.328   0.339
 2256SOL     OW 7141   1.433   6.162   0.114
 2256SOL    HW1 7142   1.342   6.165   0.155
 2256SOL    HW2 7143   1.465   6.068   0.109
 2257SOL     OW 7144   0.591   5.899   0.323
 2257SOL    HW1 7145   0.679   5.885   0.278
 2257SOL    HW2 7146   0.538   5.966   0.272
 2258SOL     OW 7147   0.946   5.662   1.392
 2258SOL    HW1 7148   0.962   5.643   1.295
 2258SOL    HW2 7149   1.027   5.705   1.431
 2259SOL     OW 7150   0.668   0.153   0.317
 2259SOL    HW1 7151   0.650   0.117   0.409
 2259SOL    HW2 7152   0.761   0.131   0.291
 2260SOL     OW 7153   0.393   6.376   1.259
 2260SOL    HW1 7154   0.472   6.390   1.318
 2260SOL    HW2 7155   0.369   6.279   1.259
 2261SOL     OW 7156   1.234   5.982   1.318
 2261SOL    HW1 7157   1.239   6.066   1.372
 2261SOL    HW2 7158   1.148   5.981   1.266
 2262SOL     OW 7159   0.545   5.972   0.838
 2262SOL    HW1 7160   0.538   5.998   0.742
 2262SOL    HW2 7161   0.606   6.035   0.886
 2263SOL     OW 7162   1.560   6.211   0.517
 2263SOL    HW1 7163   1.547   6.236   0.613
 2263SOL    HW2 7164   1.624   6.275   0.475
 2264SOL     OW 7165   0.391   6.391   1.613
 2264SOL    HW1 7166   0.461   6.403   1.543
 2264SOL    HW2 7167   0.405   6.304   1.661
 2265SOL     OW 7168   1.581   6.376   1.688
 2265SOL    HW1 7169   1.485   6.354   1.675
 2265SOL    HW2 7170   1.612   6.434   1.612
 2266SOL     OW 7171   1.007   5.695   1.764
 2266SOL    HW1 7172   1.071   5.772   1.766
 2266SOL    HW2 7173   1.054   5.613   1.731
 2267SOL     OW 7174   0.506   5.644   1.795
 2267SOL    HW1 7175   0.461   5.592   1.722
 2267SOL    HW2 7176   0.445   5.717   1.826
 2268SOL     OW 7177   0.605   6.393   1.044
 2268SOL    HW1 7178   0.614   6.483   1.003
 2268SOL    HW2 7179   0.522   6.390   1.101
 2269SOL     OW 7180   1.292   6.471   0.970
 2269SOL    HW1 7181   1.311   6.495   0.875
 2269SOL    HW2 7182   1.335   6.383   0.991
 2270SOL     OW 7183   1.186   6.113   0.235
 2270SOL    HW1 7184   1.210   6.041   0.300
 2270SOL    HW2 7185   1.155   6.194   0.285
 2271SOL     OW 7186   0.299   5.742   1.223
 2271SOL    HW1 7187   0.277   5.784   1.311
 2271SOL    HW2 7188   0.258   5.651   1.217
 2272SOL     OW 7189   0.697   6.141   0.989
 2272SOL    HW1 7190   0.781   6.138   0.935
 2272SOL    HW2 7191   0.670   6.236   1.003
 2273SOL     OW 7192   1.767   0.007   1.850
 2273SOL    HW1 7193   1.695   6.462   1.797
 2273SOL    HW2 7194   1.756   6.486   1.947
 2274SOL     OW 7195   0.355   5.634   0.588
 2274SOL    HW1 7196   0.316   5.721   0.617
 2274SOL    HW2 7197   0.374   5.577   0.669
 2275SOL     OW 7198   1.612   5.993   0.356
 2275SOL    HW1 7199   1.644   5.917   0.412
 2275SOL    HW2 7200   1.580   6.067   0.415
 2276SOL     OW 7201   1.043   6.305   0.877
 2276SOL    HW1 7202   1.111   6.293   0.948
 2276SOL    HW2 7203   0.991   6.220   0.865
 2277SOL     OW 7204   1.460   5.886   0.150
 2277SOL    HW1 7205   1.443   5.788   0.160
 2277SOL    HW2 7206   1.516   5.917   0.226
 2278SOL     OW 7207   0.289   6.308   0.889
 2278SOL    HW1 7208   0.368   6.342   0.837
 2278SOL    HW2 7209   0.313   6.220   0.931
 2279SOL     OW 7210   0.337   6.055   0.999
 2279SOL    HW1 7211   0.263   5.989   0.987
 2279SOL    HW2 7212   0.417   6.026   0.947
 2280SOL     OW 7213   1.149   5.930   1.724
 2280SOL    HW1 7214   1.084   5.972   1.788
 2280SOL    HW2 7215   1.230   5.989   1.716
 2281SOL     OW 7216   1.181   5.778   1.498
 2281SOL    HW1 7217   1.157   5.829   1.580
 2281SOL    HW2 7218   1.206   5.843   1.425
 2282SOL     OW 7219   0.059   5.976   1.155
 2282SOL    HW1 7220   0.128   6.020   1.213
 2282SOL    HW2 7221   6.469   5.986   1.197
 2283SOL     OW 7222   0.169   6.162   1.729
 2283SOL    HW1 7223   0.170   6.121   1.637
 2283SOL    HW2 7224   0.142   6.258   1.722
 2284SOL     OW 7225   0.842   6.194   0.323
 2284SOL    HW1 7226   0.871   6.155   0.235
 2284SOL    HW2 7227   0.753   6.238   0.312
 2285SOL     OW 7228   1.592   6.174   1.174
 2285SOL    HW1 7229   1.574   6.115   1.253
 2285SOL    HW2 7230   1.691   6.174   1.155
 2286SOL     OW 7231   0.732   6.009   1.228
 2286SOL    HW1 7232   0.676   5.926   1.232
 2286SOL    HW2 7233   0.711   6.059   1.144
 2287SOL     OW 7234   0.452   6.098   0.182
 2287SOL    HW1 7235   0.513   6.169   0.216
 2287SOL    HW2 7236   0.358   6.133   0.177
 2288SOL     OW 7237   0.940   5.637   0.038
 2288SOL    HW1 7238   0.953   5.606   6.444
 2288SOL    HW2 7239   1.013   5.599   0.096
 2289SOL     OW 7240   1.703   5.754   0.478
 2289SOL    HW1 7241   1.761   5.744   0.398
 2289SOL    HW2 7242   1.699   5.667   0.528
 2290SOL     OW 7243   1.382   6.478   0.697
 2290SOL    HW1 7244   1.463   6.424   0.721
 2290SOL    HW2 7245   1.402   0.034   0.617
 2291SOL     OW 7246   1.821   5.719   1.004
 2291SOL    HW1 7247   1.850   5.632   0.966
 2291SOL    HW2 7248   1.734   5.746   0.962
 2292SOL     OW 7249   0.256   5.868   0.685
 2292SOL    HW1 7250   0.160   5.895   0.670
 2292SOL    HW2 7251   0.270   5.850   0.782
 2293SOL     OW 7252   1.028   5.810   0.936
 2293SOL    HW1 7253   1.029   5.764   0.847
 2293SOL    HW2 7254   1.026   5.742   1.009
 2294SOL     OW 7255   1.826   5.986   1.435
 2294SOL    HW1 7256   1.872   6.070   1.408
 2294SOL    HW2 7257   1.824   5.923   1.357
 2295SOL     OW 7258   0.101   0.180   1.760
 2295SOL    HW1 7259   0.111   0.080   1.766
 2295SOL    HW2 7260   0.101   0.219   1.852
 2296SOL     OW 7261   0.711   5.788   1.494
 2296SOL    HW1 7262   0.795   5.758   1.449
 2296SOL    HW2 7263   0.732   5.821   1.586
 2297SOL     OW 7264   0.008   6.027   0.096
 2297SOL    HW1 7265   6.487   5.934   0.126
 2297SOL    HW2 7266   6.500   6.032   6.496
 2298SOL     OW 7267   1.367   6.451   1.483
 2298SOL    HW1 7268   1.303   0.027   1.476
 2298SOL    HW2 7269   1.460   6.484   1.463
 2299SOL     OW 7270   0.113   5.735   0.385
 2299SOL    HW1 7271   0.154   5.804   0.444
 2299SOL    HW2 7272   0.183   5.697   0.324
 2300SOL     OW 7273   0.596   6.421   1.432
 2300SOL    HW1 7274   0.643   0.009   1.429
 2300SOL    HW2 7275   0.663   6.347   1.428
 2301SOL     OW 7276   0.756   6.121   1.682
 2301SOL    HW1 7277   0.803   6.183   1.745
 2301SOL    HW2 7278   0.770   6.027   1.711
 2302SOL     OW 7279   1.620   6.454   1.164
 2302SOL    HW1 7280   1.600   6.357   1.177
 2302SOL    HW2 7281   1.705   6.463   1.111
 2303SOL     OW 7282   1.236   5.912   0.432
 2303SOL    HW1 7283   1.298   5.834   0.428
 2303SOL    HW2 7284   1.254   5.964   0.515
 2304SOL     OW 7285   0.485   6.381   0.716
 2304SOL    HW1 7286   0.564   6.441   0.706
 2304SOL    HW2 7287   0.461   6.343   0.627
 2305SOL     OW 7288   1.707   5.952   1.676
 2305SOL    HW1 7289   1.748   5.968   1.586
 2305SOL    HW2 7290   1.626   5.894   1.665
 2306SOL     OW 7291   1.822   5.758   1.276
 2306SOL    HW1 7292   1.886   5.687   1.305
 2306SOL    HW2 7293   1.811   5.754   1.177
 2307SOL     OW 7294   0.474   6.000   0.567
 2307SOL    HW1 7295   0.519   5.952   0.491
 2307SOL    HW2 7296   0.397   5.945   0.599
 2308SOL     OW 7297   0.320   6.109   1.267
 2308SOL    HW1 7298   0.383   6.054   1.320
 2308SOL    HW2 7299   0.332   6.090   1.170
 2309SOL     OW 7300   1.398   5.852   1.139
 2309SOL    HW1 7301   1.411   5.755   1.163
 2309SOL    HW2 7302   1.345   5.897   1.210
 2310SOL     OW 7303   1.024   5.596   1.120
 2310SOL    HW1 7304   0.965   5.527   1.078
 2310SOL    HW2 7305   1.116   5.560   1.131
 2311SOL     OW 7306   1.386   5.616   0.185
 2311SOL    HW1 7307   1.438   5.547   0.134
 2311SOL    HW2 7308   1.289   5.591   0.185
 2312SOL     OW 7309   1.292   6.043   0.669
 2312SOL    HW1 7310   1.255   6.133   0.648
 2312SOL    HW2 7311   1.271   6.019   0.764
 2313SOL     OW 7312   1.573   5.803   0.931
 2313SOL    HW1 7313   1.514   5.834   1.005
 2313SOL    HW2 7314   1.571   5.869   0.856
 2314SOL     OW 7315   0.199   6.204   2.006
 2314SOL    HW1 7316   0.123   6.190   2.069
 2314SOL    HW2 7317   0.170   6.181   1.913
 2315SOL     OW 7318   0.209   5.795   2.823
 2315SOL    HW1 7319   0.240   5.792   2.918
 2315SOL    HW2 7320   0.161   5.710   2.801
 2316SOL     OW 7321   6.475   5.904   2.505
 2316SOL    HW1 7322   6.423   5.961   2.442
 2316SOL    HW2 7323   6.447   5.808   2.495
 2317SOL     OW 7324   1.150   6.288   2.474
 2317SOL    HW1 7325   1.222   6.355   2.457
 2317SOL    HW2 7326   1.107   6.306   2.562
 2318SOL     OW 7327   1.754   6.136   2.088
 2318SOL    HW1 7328   1.739   6.153   1.991
 2318SOL    HW2 7329   1.687   6.069   2.121
 2319SOL     OW 7330   0.937   6.314   3.724
 2319SOL    HW1 7331   0.946   6.377   3.801
 2319SOL    HW2 7332   0.949   6.364   3.638
 2320SOL     OW 7333   0.720   0.017   2.573
 2320SOL    HW1 7334   0.801   0.029   2.629
 2320SOL    HW2 7335   0.654   0.090   2.593
 2321SOL     OW 7336   0.457   5.962   3.299
 2321SOL    HW1 7337   0.544   5.915   3.314
 2321SOL    HW2 7338   0.381   5.901   3.322
 2322SOL     OW 7339   1.572   6.012   2.494
 2322SOL    HW1 7340   1.476   6.040   2.498
 2322SOL    HW2 7341   1.581   5.920   2.533
 2323SOL     OW 7342   1.406   5.684   3.372
 2323SOL    HW1 7343   1.315   5.720   3.350
 2323SOL    HW2 7344   1.426   5.701   3.468
 2324SOL     OW 7345   0.086   6.203   2.310
 2324SOL    HW1 7346   0.014   6.133   2.309
 2324SOL    HW2 7347   0.095   6.239   2.403
 2325SOL     OW 7348   0.111   6.419   3.512
 2325SOL    HW1 7349   0.209   6.414   3.494
 2325SOL    HW2 7350   0.064   6.457   3.432
 2326SOL     OW 7351   0.866   5.618   2.380
 2326SOL    HW1 7352   0.907   5.703   2.347
 2326SOL    HW2 7353   0.767   5.629   2.386
 2327SOL     OW 7354   0.344   5.841   3.773
 2327SOL    HW1 7355   0.386   5.924   3.809
 2327SOL    HW2 7356   0.252   5.863   3.738
 2328SOL     OW 7357   0.563   6.293   2.136
 2328SOL    HW1 7358   0.553   6.380   2.088
 2328SOL    HW2 7359   0.497   6.288   2.211
 2329SOL     OW 7360   1.238   6.047   2.784
 2329SOL    HW1 7361   1.138   6.050   2.776
 2329SOL    HW2 7362   1.265   5.972   2.844
 2330SOL     OW 7363   0.764   6.232   3.307
 2330SOL    HW1 7364   0.764   6.188   3.397
 2330SOL    HW2 7365   0.748   6.163   3.236
 2331SOL     OW 7366   1.326   6.143   3.538
 2331SOL    HW1 7367   1.325   6.195   3.624
 2331SOL    HW2 7368   1.412   6.093   3.531
 2332SOL     OW 7369   0.970   5.962   3.054
 2332SOL    HW1 7370   0.876   5.986   3.079
 2332SOL    HW2 7371   0.968   5.890   2.985
 2333SOL     OW 7372   1.020   6.265   2.235
 2333SOL    HW1 7373   1.061   6.280   2.325
 2333SOL    HW2 7374   0.927   6.229   2.247
 2334SOL     OW 7375   0.105   6.350   2.541
 2334SOL    HW1 7376   0.176   6.324   2.607
 2334SOL    HW2 7377   0.022   6.377   2.590
 2335SOL     OW 7378   0.837   5.936   2.084
 2335SOL    HW1 7379   0.895   5.978   2.015
 2335SOL    HW2 7380   0.785   5.861   2.042
 2336SOL     OW 7381   1.603   6.189   3.688
 2336SOL    HW1 7382   1.598   6.272   3.631
 2336SOL    HW2 7383   1.604   6.108   3.629
 2337SOL     OW 7384   0.591   5.727   2.807
 2337SOL    HW1 7385   0.591   5.747   2.905
 2337SOL    HW2 7386   0.580   5.812   2.756
 2338SOL     OW 7387   1.530   6.378   2.625
 2338SOL    HW1 7388   1.482   6.332   2.699
 2338SOL    HW2 7389   1.629   6.372   2.640
 2339SOL     OW 7390   0.210   5.831   3.324
 2339SOL    HW1 7391   0.169   5.922   3.336
 2339SOL    HW2 7392   0.175   5.769   3.395
 2340SOL     OW 7393   1.398   5.683   2.283
 2340SOL    HW1 7394   1.385   5.650   2.190
 2340SOL    HW2 7395   1.494   5.707   2.297
 2341SOL     OW 7396   0.378   6.245   2.331
 2341SOL    HW1 7397   0.406   6.158   2.371
 2341SOL    HW2 7398   0.280   6.241   2.308
 2342SOL     OW 7399   1.424   5.763   3.635
 2342SOL    HW1 7400   1.448   5.812   3.718
 2342SOL    HW2 7401   1.358   5.691   3.656
 2343SOL     OW 7402   0.687   5.720   1.988
 2343SOL    HW1 7403   0.756   5.649   2.000
 2343SOL    HW2 7404   0.615   5.687   1.927
 2344SOL     OW 7405   0.791   5.856   3.615
 2344SOL    HW1 7406   0.873   5.800   3.612
 2344SOL    HW2 7407   0.732   5.825   3.689
 2345SOL     OW 7408   1.289   6.247   3.288
 2345SOL    HW1 7409   1.297   6.200   3.375
 2345SOL    HW2 7410   1.305   6.345   3.300
 2346SOL     OW 7411   0.960   6.053   2.745
 2346SOL    HW1 7412   0.930   6.049   2.649
 2346SOL    HW2 7413   0.950   5.963   2.787
 2347SOL     OW 7414   0.595   5.660   2.365
 2347SOL    HW1 7415   0.522   5.650   2.432
 2347SOL    HW2 7416   0.578   5.741   2.309
 2348SOL     OW 7417   0.279   5.625   2.073
 2348SOL    HW1 7418   0.309   5.702   2.016
 2348SOL    HW2 7419   0.359   5.577   2.108
 2349SOL     OW 7420   0.977   5.852   2.304
 2349SOL    HW1 7421   0.930   5.884   2.222
 2349SOL    HW2 7422   1.075   5.871   2.296
 2350SOL     OW 7423   0.981   6.377   3.433
 2350SOL    HW1 7424   0.903   6.337   3.385
 2350SOL    HW2 7425   1.066   6.341   3.393
 2351SOL     OW 7426   0.532   0.226   2.572
 2351SOL    HW1 7427   0.436   0.240   2.595
 2351SOL    HW2 7428   0.539   0.182   2.483
 2352SOL     OW 7429   1.008   6.063   1.915
 2352SOL    HW1 7430   0.973   6.152   1.883
 2352SOL    HW2 7431   1.083   6.078   1.979
 2353SOL     OW 7432   0.128   6.093   3.328
 2353SOL    HW1 7433   0.189   6.127   3.257
 2353SOL    HW2 7434   0.040   6.140   3.321
 2354SOL     OW 7435   0.566   5.777   3.074
 2354SOL    HW1 7436   0.600   5.708   3.138
 2354SOL    HW2 7437   0.466   5.775   3.072
 2355SOL     OW 7438   0.876   6.033   2.489
 2355SOL    HW1 7439   0.824   6.093   2.428
 2355SOL    HW2 7440   0.917   5.959   2.435
 2356SOL     OW 7441   1.049   5.634   2.600
 2356SOL    HW1 7442   0.986   5.646   2.522
 2356SOL    HW2 7443   1.022   5.553   2.652
 2357SOL     OW 7444   1.399   6.264   2.836
 2357SOL    HW1 7445   1.345   6.183   2.811
 2357SOL    HW2 7446   1.435   6.253   2.928
 2358SOL     OW 7447   1.723   6.415   2.112
 2358SOL    HW1 7448   1.744   6.447   2.204
 2358SOL    HW2 7449   1.736   6.316   2.106
 2359SOL     OW 7450   1.395   6.233   1.954
 2359SOL    HW1 7451   1.323   6.194   2.011
 2359SOL    HW2 7452   1.484   6.199   1.983
 2360SOL     OW 7453   0.534   5.860   2.188
 2360SOL    HW1 7454   0.591   5.809   2.123
 2360SOL    HW2 7455   0.492   5.938   2.141
 2361SOL     OW 7456   0.938   5.648   3.265
 2361SOL    HW1 7457   0.953   5.613   3.173
 2361SOL    HW2 7458   1.016   5.705   3.292
 2362SOL     OW 7459   0.752   0.099   2.114
 2362SOL    HW1 7460   0.739   0.082   2.211
 2362SOL    HW2 7461   0.833   0.048   2.082
 2363SOL     OW 7462   0.392   6.390   3.114
 2363SOL    HW1 7463   0.467   6.408   3.178
 2363SOL    HW2 7464   0.370   6.292   3.115
 2364SOL     OW 7465   1.212   6.001   3.161
 2364SOL    HW1 7466   1.233   6.092   3.198
 2364SOL    HW2 7467   1.119   6.001   3.124
 2365SOL     OW 7468   0.549   5.983   2.701
 2365SOL    HW1 7469   0.537   6.007   2.604
 2365SOL    HW2 7470   0.612   6.049   2.743
 2366SOL     OW 7471   1.465   6.222   2.274
 2366SOL    HW1 7472   1.404   6.293   2.311
 2366SOL    HW2 7473   1.553   6.227   2.320
 2367SOL     OW 7474   0.382   6.390   3.473
 2367SOL    HW1 7475   0.452   6.407   3.404
 2367SOL    HW2 7476   0.397   6.301   3.516
 2368SOL     OW 7477   1.550   6.412   3.527
 2368SOL    HW1 7478   1.459   6.430   3.490
 2368SOL    HW2 7479   1.619   6.427   3.456
 2369SOL     OW 7480   1.013   5.699   3.618
 2369SOL    HW1 7481   1.075   5.778   3.609
 2369SOL    HW2 7482   1.060   5.617   3.586
 2370SOL     OW 7483   0.498   5.647   3.658
 2370SOL    HW1 7484   0.452   5.596   3.585
 2370SOL    HW2 7485   0.439   5.721   3.689
 2371SOL     OW 7486   0.659   6.412   2.916
 2371SOL    HW1 7487   0.660   0.002   2.872
 2371SOL    HW2 7488   0.573   6.400   2.965
 2372SOL     OW 7489   1.215   6.459   2.906
 2372SOL    HW1 7490   1.256   0.047   2.930
 2372SOL    HW2 7491   1.287   6.395   2.880
 2373SOL     OW 7492   1.199   6.110   2.103
 2373SOL    HW1 7493   1.226   6.035   2.163
 2373SOL    HW2 7494   1.139   6.173   2.153
 2374SOL     OW 7495   0.294   5.741   3.081
 2374SOL    HW1 7496   0.264   5.782   3.168
 2374SOL    HW2 7497   0.260   5.647   3.076
 2375SOL     OW 7498   0.712   6.150   2.848
 2375SOL    HW1 7499   0.805   6.136   2.813
 2375SOL    HW2 7500   0.697   6.248   2.863
 2376SOL     OW 7501   1.716   0.095   3.661
 2376SOL    HW1 7502   1.650   0.036   3.614
 2376SOL    HW2 7503   1.672   0.136   3.741
 2377SOL     OW 7504   0.368   5.644   2.516
 2377SOL    HW1 7505   0.320   5.731   2.528
 2377SOL    HW2 7506   0.381   5.601   2.605
 2378SOL     OW 7507   1.550   5.976   2.163
 2378SOL    HW1 7508   1.579   5.903   2.224
 2378SOL    HW2 7509   1.496   6.044   2.213
 2379SOL     OW 7510   1.048   6.324   2.728
 2379SOL    HW1 7511   1.108   6.355   2.802
 2379SOL    HW2 7512   1.016   6.231   2.747
 2380SOL     OW 7513   1.469   5.840   1.927
 2380SOL    HW1 7514   1.429   5.755   1.961
 2380SOL    HW2 7515   1.498   5.897   2.004
 2381SOL     OW 7516   0.293   6.292   2.732
 2381SOL    HW1 7517   0.375   6.318   2.681
 2381SOL    HW2 7518   0.311   6.206   2.781
 2382SOL     OW 7519   0.336   6.048   2.861
 2382SOL    HW1 7520   0.267   5.977   2.851
 2382SOL    HW2 7521   0.417   6.023   2.808
 2383SOL     OW 7522   1.138   5.943   3.570
 2383SOL    HW1 7523   1.082   5.977   3.645
 2383SOL    HW2 7524   1.210   6.010   3.549
 2384SOL     OW 7525   1.160   5.798   3.338
 2384SOL    HW1 7526   1.142   5.846   3.424
 2384SOL    HW2 7527   1.180   5.865   3.266
 2385SOL     OW 7528   0.052   5.969   3.030
 2385SOL    HW1 7529   0.121   6.031   3.068
 2385SOL    HW2 7530   6.462   5.992   3.068
 2386SOL     OW 7531   0.163   6.158   3.590
 2386SOL    HW1 7532   0.164   6.120   3.497
 2386SOL    HW2 7533   0.135   6.254   3.586
 2387SOL     OW 7534   0.772   6.149   2.250
 2387SOL    HW1 7535   0.785   6.069   2.191
 2387SOL    HW2 7536   0.700   6.207   2.212
 2388SOL     OW 7537   1.487   6.270   3.091
 2388SOL    HW1 7538   1.409   6.260   3.153
 2388SOL    HW2 7539   1.567   6.225   3.132
 2389SOL     OW 7540   0.707   6.030   3.098
 2389SOL    HW1 7541   0.652   5.947   3.101
 2389SOL    HW2 7542   0.695   6.075   3.010
 2390SOL     OW 7543   0.434   6.067   2.037
 2390SOL    HW1 7544   0.503   6.136   2.058
 2390SOL    HW2 7545   0.345   6.112   2.028
 2391SOL     OW 7546   1.670   5.751   2.281
 2391SOL    HW1 7547   1.746   5.750   2.216
 2391SOL    HW2 7548   1.682   5.677   2.347
 2392SOL     OW 7549   1.363   6.443   2.423
 2392SOL    HW1 7550   1.426   6.426   2.499
 2392SOL    HW2 7551   1.388   0.029   2.378
 2393SOL     OW 7552   1.555   5.754   2.601
 2393SOL    HW1 7553   1.581   5.676   2.545
 2393SOL    HW2 7554   1.460   5.743   2.632
 2394SOL     OW 7555   0.241   5.879   2.563
 2394SOL    HW1 7556   0.147   5.899   2.533
 2394SOL    HW2 7557   0.241   5.861   2.661
 2395SOL     OW 7558   0.982   6.464   2.049
 2395SOL    HW1 7559   1.060   0.027   2.051
 2395SOL    HW2 7560   0.992   6.395   2.121
 2396SOL     OW 7561   0.976   5.772   2.848
 2396SOL    HW1 7562   0.995   5.739   2.755
 2396SOL    HW2 7563   0.976   5.695   2.911
 2397SOL     OW 7564   1.530   5.889   3.241
 2397SOL    HW1 7565   1.554   5.869   3.146
 2397SOL    HW2 7566   1.487   5.808   3.282
 2398SOL     OW 7567   0.101   0.181   3.609
 2398SOL    HW1 7568   0.109   0.082   3.617
 2398SOL    HW2 7569   0.102   0.222   3.701
 2399SOL     OW 7570   0.708   5.779   3.362
 2399SOL    HW1 7571   0.791   5.744   3.320
 2399SOL    HW2 7572   0.729   5.818   3.451
 2400SOL     OW 7573   0.104   5.913   1.811
 2400SOL    HW1 7574   0.010   5.889   1.789
 2400SOL    HW2 7575   0.122   6.007   1.783
 2401SOL     OW 7576   1.347   0.006   3.345
 2401SOL    HW1 7577   1.264   0.061   3.344
 2401SOL    HW2 7578   1.425   0.063   3.318
 2402SOL     OW 7579   0.064   5.727   2.211
 2402SOL    HW1 7580   0.090   5.817   2.246
 2402SOL    HW2 7581   0.145   5.681   2.174
 2403SOL     OW 7582   0.586   6.442   3.297
 2403SOL    HW1 7583   0.628   0.032   3.307
 2403SOL    HW2 7584   0.657   6.372   3.297
 2404SOL     OW 7585   0.782   6.131   3.558
 2404SOL    HW1 7586   0.827   6.186   3.629
 2404SOL    HW2 7587   0.788   6.034   3.582
 2405SOL     OW 7588   1.574   0.025   2.994
 2405SOL    HW1 7589   1.543   6.434   3.022
 2405SOL    HW2 7590   1.567   0.034   2.895
 2406SOL     OW 7591   1.244   5.912   2.293
 2406SOL    HW1 7592   1.298   5.828   2.289
 2406SOL    HW2 7593   1.269   5.963   2.376
 2407SOL     OW 7594   0.502   6.342   2.567
 2407SOL    HW1 7595   0.587   6.394   2.564
 2407SOL    HW2 7596   0.471   6.323   2.474
 2408SOL     OW 7597   1.549   5.974   3.504
 2408SOL    HW1 7598   1.548   5.959   3.405
 2408SOL    HW2 7599   1.502   5.898   3.549
 2409SOL     OW 7600   1.536   5.708   2.997
 2409SOL    HW1 7601   1.556   5.615   3.027
 2409SOL    HW2 7602   1.578   5.724   2.908
 2410SOL     OW 7603   0.449   6.000   2.429
 2410SOL    HW1 7604   0.484   5.943   2.354
 2410SOL    HW2 7605   0.374   5.953   2.475
 2411SOL     OW 7606   0.319   6.124   3.124
 2411SOL    HW1 7607   0.379   6.069   3.183
 2411SOL    HW2 7608   0.331   6.096   3.029
 2412SOL     OW 7609   1.306   5.845   2.953
 2412SOL    HW1 7610   1.385   5.790   2.979
 2412SOL    HW2 7611   1.273   5.895   3.033
 2413SOL     OW 7612   0.993   5.537   3.015
 2413SOL    HW1 7613   0.936   5.455   3.007
 2413SOL    HW2 7614   1.089   5.513   2.999
 2414SOL     OW 7615   1.376   5.600   2.022
 2414SOL    HW1 7616   1.429   5.527   1.979
 2414SOL    HW2 7617   1.284   5.568   2.044
 2415SOL     OW 7618   1.299   6.061   2.516
 2415SOL    HW1 7619   1.247   6.142   2.488
 2415SOL    HW2 7620   1.285   6.045   2.614
 2416SOL     OW 7621   1.305   5.704   2.708
 2416SOL    HW1 7622   1.293   5.752   2.795
 2416SOL    HW2 7623   1.216   5.689   2.665
 2417SOL     OW 7624   0.193   6.210   3.875
 2417SOL    HW1 7625   0.124   6.199   3.947
 2417SOL    HW2 7626   0.154   6.184   3.787
 2418SOL     OW 7627   0.205   5.797   4.691
 2418SOL    HW1 7628   0.241   5.790   4.784
 2418SOL    HW2 7629   0.153   5.715   4.669
 2419SOL     OW 7630   6.467   5.899   4.368
 2419SOL    HW1 7631   6.416   5.955   4.302
 2419SOL    HW2 7632   6.442   5.803   4.356
 2420SOL     OW 7633   1.150   6.274   4.357
 2420SOL    HW1 7634   1.209   6.353   4.342
 2420SOL    HW2 7635   1.096   6.287   4.440
 2421SOL     OW 7636   1.714   6.185   3.940
 2421SOL    HW1 7637   1.673   6.192   3.849
 2421SOL    HW2 7638   1.661   6.120   3.995
 2422SOL     OW 7639   0.943   6.340   5.609
 2422SOL    HW1 7640   0.949   6.386   5.698
 2422SOL    HW2 7641   0.940   6.409   5.537
 2423SOL     OW 7642   0.733   0.016   4.426
 2423SOL    HW1 7643   0.818   0.027   4.477
 2423SOL    HW2 7644   0.668   0.087   4.454
 2424SOL     OW 7645   0.455   5.965   5.166
 2424SOL    HW1 7646   0.549   5.931   5.177
 2424SOL    HW2 7647   0.391   5.897   5.203
 2425SOL     OW 7648   1.555   6.025   4.503
 2425SOL    HW1 7649   1.478   6.028   4.439
 2425SOL    HW2 7650   1.540   6.093   4.575
 2426SOL     OW 7651   1.575   5.707   5.158
 2426SOL    HW1 7652   1.640   5.751   5.096
 2426SOL    HW2 7653   1.553   5.769   5.233
 2427SOL     OW 7654   0.080   6.205   4.167
 2427SOL    HW1 7655   0.010   6.133   4.168
 2427SOL    HW2 7656   0.093   6.239   4.260
 2428SOL     OW 7657   0.111   6.419   5.370
 2428SOL    HW1 7658   0.207   6.402   5.349
 2428SOL    HW2 7659   0.064   6.453   5.288
 2429SOL     OW 7660   0.848   5.611   4.233
 2429SOL    HW1 7661   0.895   5.695   4.204
 2429SOL    HW2 7662   0.750   5.628   4.238
 2430SOL     OW 7663   0.342   5.874   5.566
 2430SOL    HW1 7664   0.377   5.953   5.616
 2430SOL    HW2 7665   0.242   5.876   5.566
 2431SOL     OW 7666   0.563   6.297   4.000
 2431SOL    HW1 7667   0.550   6.384   3.952
 2431SOL    HW2 7668   0.499   6.293   4.077
 2432SOL     OW 7669   1.253   5.977   4.677
 2432SOL    HW1 7670   1.161   5.936   4.672
 2432SOL    HW2 7671   1.308   5.926   4.744
 2433SOL     OW 7672   0.773   6.226   5.165
 2433SOL    HW1 7673   0.772   6.188   5.257
 2433SOL    HW2 7674   0.758   6.152   5.099
 2434SOL     OW 7675   1.392   6.104   5.427
 2434SOL    HW1 7676   1.405   6.133   5.521
 2434SOL    HW2 7677   1.442   6.019   5.411
 2435SOL     OW 7678   0.991   5.957   4.927
 2435SOL    HW1 7679   0.898   5.981   4.954
 2435SOL    HW2 7680   0.989   5.907   4.841
 2436SOL     OW 7681   1.039   6.218   4.113
 2436SOL    HW1 7682   1.075   6.235   4.205
 2436SOL    HW2 7683   0.942   6.194   4.119
 2437SOL     OW 7684   0.107   6.347   4.401
 2437SOL    HW1 7685   0.178   6.323   4.467
 2437SOL    HW2 7686   0.023   6.373   4.450
 2438SOL     OW 7687   0.841   5.934   3.942
 2438SOL    HW1 7688   0.903   5.975   3.875
 2438SOL    HW2 7689   0.789   5.861   3.898
 2439SOL     OW 7690   1.752   6.165   5.520
 2439SOL    HW1 7691   1.697   6.232   5.470
 2439SOL    HW2 7692   1.758   6.080   5.466
 2440SOL     OW 7693   0.581   5.727   4.674
 2440SOL    HW1 7694   0.585   5.746   4.772
 2440SOL    HW2 7695   0.565   5.812   4.624
 2441SOL     OW 7696   1.507   6.364   4.498
 2441SOL    HW1 7697   1.470   6.310   4.574
 2441SOL    HW2 7698   1.591   6.409   4.527
 2442SOL     OW 7699   0.205   5.817   5.204
 2442SOL    HW1 7700   0.173   5.911   5.215
 2442SOL    HW2 7701   0.181   5.763   5.285
 2443SOL     OW 7702   1.392   5.669   4.191
 2443SOL    HW1 7703   1.396   5.647   4.093
 2443SOL    HW2 7704   1.476   5.639   4.235
 2444SOL     OW 7705   0.378   6.252   4.196
 2444SOL    HW1 7706   0.403   6.164   4.236
 2444SOL    HW2 7707   0.281   6.250   4.171
 2445SOL     OW 7708   1.489   5.838   5.404
 2445SOL    HW1 7709   1.501   5.833   5.503
 2445SOL    HW2 7710   1.408   5.786   5.378
 2446SOL     OW 7711   0.683   5.723   3.846
 2446SOL    HW1 7712   0.745   5.647   3.866
 2446SOL    HW2 7713   0.611   5.692   3.785
 2447SOL     OW 7714   0.797   5.862   5.477
 2447SOL    HW1 7715   0.880   5.805   5.479
 2447SOL    HW2 7716   0.734   5.830   5.549
 2448SOL     OW 7717   1.249   6.200   5.209
 2448SOL    HW1 7718   1.296   6.167   5.290
 2448SOL    HW2 7719   1.288   6.288   5.182
 2449SOL     OW 7720   0.926   6.065   4.598
 2449SOL    HW1 7721   0.900   6.058   4.502
 2449SOL    HW2 7722   0.947   5.975   4.635
 2450SOL     OW 7723   0.580   5.661   4.224
 2450SOL    HW1 7724   0.509   5.653   4.293
 2450SOL    HW2 7725   0.564   5.743   4.169
 2451SOL     OW 7726   0.275   5.631   3.940
 2451SOL    HW1 7727   0.308   5.706   3.883
 2451SOL    HW2 7728   0.353   5.578   3.974
 2452SOL     OW 7729   0.974   5.842   4.165
 2452SOL    HW1 7730   0.933   5.878   4.081
 2452SOL    HW2 7731   1.072   5.860   4.164
 2453SOL     OW 7732   1.011   6.364   5.248
 2453SOL    HW1 7733   0.928   6.322   5.211
 2453SOL    HW2 7734   1.089   6.301   5.235
 2454SOL     OW 7735   0.536   0.222   4.431
 2454SOL    HW1 7736   0.441   0.235   4.456
 2454SOL    HW2 7737   0.542   0.176   4.342
 2455SOL     OW 7738   1.023   6.063   3.785
 2455SOL    HW1 7739   0.993   6.156   3.763
 2455SOL    HW2 7740   1.102   6.067   3.847
 2456SOL     OW 7741   0.119   6.076   5.195
 2456SOL    HW1 7742   0.181   6.112   5.125
 2456SOL    HW2 7743   0.030   6.122   5.188
 2457SOL     OW 7744   0.564   5.773   4.941
 2457SOL    HW1 7745   0.593   5.700   5.003
 2457SOL    HW2 7746   0.464   5.778   4.939
 2458SOL     OW 7747   0.859   6.026   4.340
 2458SOL    HW1 7748   0.811   6.083   4.274
 2458SOL    HW2 7749   0.904   5.950   4.291
 2459SOL     OW 7750   1.008   5.637   4.461
 2459SOL    HW1 7751   0.949   5.634   4.381
 2459SOL    HW2 7752   0.988   5.558   4.521
 2460SOL     OW 7753   1.417   6.204   4.704
 2460SOL    HW1 7754   1.352   6.128   4.702
 2460SOL    HW2 7755   1.469   6.200   4.789
 2461SOL     OW 7756   1.760   6.376   4.140
 2461SOL    HW1 7757   1.834   6.337   4.194
 2461SOL    HW2 7758   1.744   6.320   4.060
 2462SOL     OW 7759   1.360   6.263   3.798
 2462SOL    HW1 7760   1.316   6.199   3.862
 2462SOL    HW2 7761   1.453   6.232   3.778
 2463SOL     OW 7762   0.531   5.867   4.051
 2463SOL    HW1 7763   0.589   5.818   3.985
 2463SOL    HW2 7764   0.489   5.945   4.005
 2464SOL     OW 7765   0.953   5.643   5.128
 2464SOL    HW1 7766   0.966   5.625   5.030
 2464SOL    HW2 7767   1.033   5.690   5.165
 2465SOL     OW 7768   0.747   0.103   3.966
 2465SOL    HW1 7769   0.729   0.097   4.064
 2465SOL    HW2 7770   0.827   0.048   3.943
 2466SOL     OW 7771   0.393   6.392   4.980
 2466SOL    HW1 7772   0.469   6.408   5.042
 2466SOL    HW2 7773   0.365   6.297   4.985
 2467SOL     OW 7774   1.234   5.976   5.044
 2467SOL    HW1 7775   1.242   6.059   5.098
 2467SOL    HW2 7776   1.145   5.973   4.999
 2468SOL     OW 7777   0.529   5.983   4.572
 2468SOL    HW1 7778   0.522   6.010   4.476
 2468SOL    HW2 7779   0.593   6.043   4.620
 2469SOL     OW 7780   1.557   6.227   4.258
 2469SOL    HW1 7781   1.523   6.266   4.343
 2469SOL    HW2 7782   1.623   6.290   4.216
 2470SOL     OW 7783   0.383   6.374   5.333
 2470SOL    HW1 7784   0.453   6.396   5.265
 2470SOL    HW2 7785   0.404   6.285   5.375
 2471SOL     OW 7786   1.587   6.329   5.382
 2471SOL    HW1 7787   1.502   6.278   5.371
 2471SOL    HW2 7788   1.599   6.390   5.303
 2472SOL     OW 7789   1.016   5.703   5.493
 2472SOL    HW1 7790   1.085   5.776   5.495
 2472SOL    HW2 7791   1.058   5.619   5.459
 2473SOL     OW 7792   0.499   5.663   5.500
 2473SOL    HW1 7793   0.454   5.604   5.432
 2473SOL    HW2 7794   0.440   5.741   5.519
 2474SOL     OW 7795   0.620   6.397   4.782
 2474SOL    HW1 7796   0.635   6.485   4.736
 2474SOL    HW2 7797   0.535   6.400   4.833
 2475SOL     OW 7798   1.246   6.427   4.758
 2475SOL    HW1 7799   1.296   0.014   4.759
 2475SOL    HW2 7800   1.311   6.352   4.749
 2476SOL     OW 7801   1.226   6.093   3.967
 2476SOL    HW1 7802   1.260   6.014   4.017
 2476SOL    HW2 7803   1.162   6.144   4.024
 2477SOL     OW 7804   0.287   5.741   4.951
 2477SOL    HW1 7805   0.268   5.778   5.042
 2477SOL    HW2 7806   0.249   5.649   4.944
 2478SOL     OW 7807   0.691   6.140   4.726
 2478SOL    HW1 7808   0.780   6.132   4.681
 2478SOL    HW2 7809   0.670   6.237   4.741
 2479SOL     OW 7810   1.706   0.046   5.509
 2479SOL    HW1 7811   1.663   6.462   5.476
 2479SOL    HW2 7812   1.641   0.097   5.565
 2480SOL     OW 7813   0.360   5.644   4.385
 2480SOL    HW1 7814   0.312   5.732   4.395
 2480SOL    HW2 7815   0.372   5.602   4.474
 2481SOL     OW 7816   1.582   6.003   4.098
 2481SOL    HW1 7817   1.629   5.928   4.145
 2481SOL    HW2 7818   1.559   6.074   4.164
 2482SOL     OW 7819   1.038   6.320   4.603
 2482SOL    HW1 7820   1.110   6.336   4.671
 2482SOL    HW2 7821   0.999   6.229   4.617
 2483SOL     OW 7822   1.465   5.874   3.878
 2483SOL    HW1 7823   1.435   5.785   3.909
 2483SOL    HW2 7824   1.508   5.924   3.953
 2484SOL     OW 7825   0.293   6.296   4.596
 2484SOL    HW1 7826   0.376   6.322   4.547
 2484SOL    HW2 7827   0.310   6.213   4.648
 2485SOL     OW 7828   0.318   6.054   4.734
 2485SOL    HW1 7829   0.246   5.987   4.721
 2485SOL    HW2 7830   0.400   6.026   4.683
 2486SOL     OW 7831   1.163   5.937   5.449
 2486SOL    HW1 7832   1.096   5.980   5.509
 2486SOL    HW2 7833   1.241   5.999   5.437
 2487SOL     OW 7834   1.181   5.773   5.225
 2487SOL    HW1 7835   1.161   5.827   5.307
 2487SOL    HW2 7836   1.207   5.835   5.150
 2488SOL     OW 7837   6.486   5.950   4.875
 2488SOL    HW1 7838   0.028   6.028   4.922
 2488SOL    HW2 7839   6.468   5.877   4.941
 2489SOL     OW 7840   0.131   6.156   5.457
 2489SOL    HW1 7841   0.142   6.110   5.369
 2489SOL    HW2 7842   0.105   6.251   5.443
 2490SOL     OW 7843   0.774   6.148   4.103
 2490SOL    HW1 7844   0.784   6.069   4.043
 2490SOL    HW2 7845   0.702   6.208   4.068
 2491SOL     OW 7846   1.582   6.219   4.921
 2491SOL    HW1 7847   1.576   6.175   5.011
 2491SOL    HW2 7848   1.671   6.199   4.880
 2492SOL     OW 7849   0.722   6.015   4.970
 2492SOL    HW1 7850   0.668   5.931   4.973
 2492SOL    HW2 7851   0.703   6.065   4.885
 2493SOL     OW 7852   0.431   6.075   3.900
 2493SOL    HW1 7853   0.500   6.144   3.922
 2493SOL    HW2 7854   0.341   6.119   3.891
 2494SOL     OW 7855   1.729   5.791   4.219
 2494SOL    HW1 7856   1.789   5.763   4.144
 2494SOL    HW2 7857   1.687   5.710   4.260
 2495SOL     OW 7858   1.312   6.490   4.347
 2495SOL    HW1 7859   1.384   6.453   4.405
 2495SOL    HW2 7860   1.354   0.046   4.274
 2496SOL     OW 7861   1.799   5.742   4.712
 2496SOL    HW1 7862   1.835   5.651   4.694
 2496SOL    HW2 7863   1.708   5.751   4.671
 2497SOL     OW 7864   0.233   5.880   4.428
 2497SOL    HW1 7865   0.139   5.898   4.400
 2497SOL    HW2 7866   0.236   5.865   4.527
 2498SOL     OW 7867   0.987   6.452   3.980
 2498SOL    HW1 7868   0.963   0.005   4.061
 2498SOL    HW2 7869   1.016   6.360   4.007
 2499SOL     OW 7870   1.019   5.807   4.685
 2499SOL    HW1 7871   1.018   5.765   4.595
 2499SOL    HW2 7872   1.017   5.735   4.755
 2500SOL     OW 7873   1.727   6.041   5.123
 2500SOL    HW1 7874   1.805   6.101   5.106
 2500SOL    HW2 7875   1.730   5.963   5.060
 2501SOL     OW 7876   0.203   0.130   5.515
 2501SOL    HW1 7877   0.155   0.063   5.458
 2501SOL    HW2 7878   0.228   0.087   5.602
 2502SOL     OW 7879   0.724   5.774   5.225
 2502SOL    HW1 7880   0.808   5.738   5.185
 2502SOL    HW2 7881   0.744   5.815   5.313
 2503SOL     OW 7882   0.096   5.914   3.686
 2503SOL    HW1 7883   6.496   5.905   3.684
 2503SOL    HW2 7884   0.121   6.005   3.651
 2504SOL     OW 7885   1.360   6.442   5.163
 2504SOL    HW1 7886   1.304   0.023   5.183
 2504SOL    HW2 7887   1.456   6.468   5.157
 2505SOL     OW 7888   0.054   5.730   4.067
 2505SOL    HW1 7889   0.077   5.819   4.107
 2505SOL    HW2 7890   0.138   5.686   4.034
 2506SOL     OW 7891   0.591   6.434   5.162
 2506SOL    HW1 7892   0.635   0.023   5.173
 2506SOL    HW2 7893   0.660   6.362   5.159
 2507SOL     OW 7894   0.784   6.136   5.421
 2507SOL    HW1 7895   0.827   6.191   5.492
 2507SOL    HW2 7896   0.792   6.039   5.443
 2508SOL     OW 7897   1.584   6.498   4.871
 2508SOL    HW1 7898   1.572   6.404   4.901
 2508SOL    HW2 7899   1.665   0.004   4.812
 2509SOL     OW 7900   1.244   5.898   4.175
 2509SOL    HW1 7901   1.298   5.814   4.179
 2509SOL    HW2 7902   1.264   5.954   4.256
 2510SOL     OW 7903   0.504   6.349   4.432
 2510SOL    HW1 7904   0.592   6.396   4.427
 2510SOL    HW2 7905   0.472   6.329   4.339
 2511SOL     OW 7906   1.753   5.928   5.368
 2511SOL    HW1 7907   1.743   5.975   5.280
 2511SOL    HW2 7908   1.667   5.884   5.392
 2512SOL     OW 7909   1.768   5.810   4.981
 2512SOL    HW1 7910   1.866   5.812   4.999
 2512SOL    HW2 7911   1.753   5.787   4.885
 2513SOL     OW 7912   0.439   6.005   4.294
 2513SOL    HW1 7913   0.476   5.948   4.221
 2513SOL    HW2 7914   0.365   5.957   4.341
 2514SOL     OW 7915   0.313   6.131   5.000
 2514SOL    HW1 7916   0.375   6.074   5.055
 2514SOL    HW2 7917   0.317   6.102   4.904
 2515SOL     OW 7918   1.394   5.838   4.866
 2515SOL    HW1 7919   1.413   5.744   4.896
 2515SOL    HW2 7920   1.345   5.887   4.938
 2516SOL     OW 7921   1.009   5.583   4.857
 2516SOL    HW1 7922   0.946   5.513   4.824
 2516SOL    HW2 7923   1.102   5.545   4.860
 2517SOL     OW 7924   1.384   5.612   3.923
 2517SOL    HW1 7925   1.439   5.543   3.877
 2517SOL    HW2 7926   1.293   5.576   3.942
 2518SOL     OW 7927   1.292   6.043   4.406
 2518SOL    HW1 7928   1.242   6.126   4.382
 2518SOL    HW2 7929   1.269   6.016   4.499
 2519SOL     OW 7930   1.543   5.783   4.640
 2519SOL    HW1 7931   1.485   5.810   4.716
 2519SOL    HW2 7932   1.546   5.856   4.572
 2520SOL     OW 7933   0.165   6.217   5.728
 2520SOL    HW1 7934   0.085   6.187   5.780
 2520SOL    HW2 7935   0.152   6.197   5.631
 2521SOL     OW 7936   6.488   6.019   6.315
 2521SOL    HW1 7937   6.393   6.031   6.343
 2521SOL    HW2 7938   6.492   5.961   6.234
 2522SOL     OW 7939   1.103   6.260   6.232
 2522SOL    HW1 7940   1.073   6.355   6.228
 2522SOL    HW2 7941   1.028   6.202   6.263
 2523SOL     OW 7942   1.799   6.195   5.784
 2523SOL    HW1 7943   1.784   6.195   5.685
 2523SOL    HW2 7944   1.748   6.119   5.825
 2524SOL     OW 7945   0.751   6.477   6.372
 2524SOL    HW1 7946   0.824   6.494   6.437
 2524SOL    HW2 7947   0.684   0.051   6.375
 2525SOL     OW 7948   1.561   6.101   6.277
 2525SOL    HW1 7949   1.466   6.069   6.271
 2525SOL    HW2 7950   1.565   6.185   6.331
 2526SOL     OW 7951   0.138   6.252   6.233
 2526SOL    HW1 7952   0.086   6.171   6.260
 2526SOL    HW2 7953   0.162   6.306   6.314
 2527SOL     OW 7954   0.836   5.653   6.094
 2527SOL    HW1 7955   0.878   5.744   6.090
 2527SOL    HW2 7956   0.737   5.663   6.097
 2528SOL     OW 7957   0.543   6.284   5.876
 2528SOL    HW1 7958   0.545   6.375   5.835
 2528SOL    HW2 7959   0.498   6.289   5.965
 2529SOL     OW 7960   1.239   5.924   6.486
 2529SOL    HW1 7961   1.159   5.912   0.045
 2529SOL    HW2 7962   1.322   5.912   0.040
 2530SOL     OW 7963   1.047   6.248   5.964
 2530SOL    HW1 7964   1.073   6.248   6.061
 2530SOL    HW2 7965   0.952   6.219   5.955
 2531SOL     OW 7966   0.197   6.402   6.453
 2531SOL    HW1 7967   0.208   6.341   0.031
 2531SOL    HW2 7968   0.136   6.478   6.478
 2532SOL     OW 7969   0.840   5.931   5.808
 2532SOL    HW1 7970   0.900   5.969   5.737
 2532SOL    HW2 7971   0.787   5.856   5.769
 2533SOL     OW 7972   0.521   5.802   0.038
 2533SOL    HW1 7973   0.458   5.807   0.115
 2533SOL    HW2 7974   0.513   5.885   6.483
 2534SOL     OW 7975   1.536   6.327   6.426
 2534SOL    HW1 7976   1.491   6.276   0.000
 2534SOL    HW2 7977   1.508   6.423   6.430
 2535SOL     OW 7978   1.380   5.671   6.052
 2535SOL    HW1 7979   1.388   5.650   5.954
 2535SOL    HW2 7980   1.467   5.650   6.097
 2536SOL     OW 7981   0.410   6.261   6.118
 2536SOL    HW1 7982   0.407   6.163   6.096
 2536SOL    HW2 7983   0.321   6.291   6.151
 2537SOL     OW 7984   0.676   5.725   5.699
 2537SOL    HW1 7985   0.739   5.648   5.713
 2537SOL    HW2 7986   0.607   5.700   5.631
 2538SOL     OW 7987   0.563   5.686   6.082
 2538SOL    HW1 7988   0.493   5.683   6.154
 2538SOL    HW2 7989   0.538   5.754   6.013
 2539SOL     OW 7990   0.303   5.623   5.829
 2539SOL    HW1 7991   0.363   5.704   5.829
 2539SOL    HW2 7992   0.350   5.547   5.874
 2540SOL     OW 7993   0.945   5.908   6.069
 2540SOL    HW1 7994   0.907   5.923   5.977
 2540SOL    HW2 7995   1.045   5.901   6.062
 2541SOL     OW 7996   0.564   0.176   6.404
 2541SOL    HW1 7997   0.576   0.275   6.396
 2541SOL    HW2 7998   0.485   0.148   6.349
 2542SOL     OW 7999   1.017   6.074   5.641
 2542SOL    HW1 8000   0.991   6.169   5.627
 2542SOL    HW2 8001   1.091   6.069   5.707
 2543SOL     OW 8002   0.889   6.099   6.290
 2543SOL    HW1 8003   0.798   6.140   6.284
 2543SOL    HW2 8004   0.898   6.027   6.221
 2544SOL     OW 8005   0.965   5.514   6.292
 2544SOL    HW1 8006   0.921   5.569   6.221
 2544SOL    HW2 8007   0.919   5.425   6.299
 2545SOL     OW 8008   1.430   0.092   6.434
 2545SOL    HW1 8009   1.382   0.063   6.352
 2545SOL    HW2 8010   1.489   0.171   6.412
 2546SOL     OW 8011   1.757   6.377   5.992
 2546SOL    HW1 8012   1.803   6.337   6.071
 2546SOL    HW2 8013   1.782   6.326   5.909
 2547SOL     OW 8014   1.425   6.167   5.694
 2547SOL    HW1 8015   1.346   6.132   5.744
 2547SOL    HW2 8016   1.509   6.132   5.734
 2548SOL     OW 8017   0.481   5.838   5.859
 2548SOL    HW1 8018   0.558   5.801   5.808
 2548SOL    HW2 8019   0.453   5.925   5.819
 2549SOL     OW 8020   0.766   0.125   5.889
 2549SOL    HW1 8021   0.709   0.100   5.968
 2549SOL    HW2 8022   0.844   0.063   5.884
 2550SOL     OW 8023   0.478   6.047   6.415
 2550SOL    HW1 8024   0.539   6.108   6.364
 2550SOL    HW2 8025   0.474   6.076   0.011
 2551SOL     OW 8026   1.539   6.208   6.025
 2551SOL    HW1 8027   1.543   6.174   6.118
 2551SOL    HW2 8028   1.603   6.285   6.015
 2552SOL     OW 8029   1.209   6.075   5.834
 2552SOL    HW1 8030   1.224   5.998   5.896
 2552SOL    HW2 8031   1.158   6.147   5.882
 2553SOL     OW 8032   0.348   5.667   6.254
 2553SOL    HW1 8033   0.309   5.757   6.273
 2553SOL    HW2 8034   0.369   5.621   6.341
 2554SOL     OW 8035   1.615   6.001   5.872
 2554SOL    HW1 8036   1.657   5.931   5.929
 2554SOL    HW2 8037   1.575   6.072   5.930
 2555SOL     OW 8038   1.517   5.833   5.671
 2555SOL    HW1 8039   1.470   5.757   5.714
 2555SOL    HW2 8040   1.553   5.894   5.741
 2556SOL     OW 8041   0.792   6.176   5.923
 2556SOL    HW1 8042   0.795   6.084   5.883
 2556SOL    HW2 8043   0.701   6.215   5.909
 2557SOL     OW 8044   0.407   6.079   5.747
 2557SOL    HW1 8045   0.473   6.143   5.786
 2557SOL    HW2 8046   0.316   6.121   5.747
 2558SOL     OW 8047   1.745   5.806   6.021
 2558SOL    HW1 8048   1.807   5.780   5.947
 2558SOL    HW2 8049   1.703   5.724   6.059
 2559SOL     OW 8050   1.324   6.485   6.210
 2559SOL    HW1 8051   1.306   6.387   6.211
 2559SOL    HW2 8052   1.354   0.013   6.119
 2560SOL     OW 8053   1.843   5.804   6.490
 2560SOL    HW1 8054   1.872   5.711   6.467
 2560SOL    HW2 8055   1.806   5.848   6.408
 2561SOL     OW 8056   0.262   5.922   6.304
 2561SOL    HW1 8057   0.175   5.962   6.333
 2561SOL    HW2 8058   0.338   5.971   6.347
 2562SOL     OW 8059   1.006   6.490   5.853
 2562SOL    HW1 8060   1.072   0.057   5.885
 2562SOL    HW2 8061   1.022   6.402   5.897
 2563SOL     OW 8062   0.069   5.923   5.586
 2563SOL    HW1 8063   6.475   5.897   5.564
 2563SOL    HW2 8064   0.089   6.013   5.547
 2564SOL     OW 8065   0.073   5.784   5.830
 2564SOL    HW1 8066   0.087   5.847   5.754
 2564SOL    HW2 8067   0.155   5.728   5.842
 2565SOL     OW 8068   1.221   5.896   6.044
 2565SOL    HW1 8069   1.273   5.810   6.045
 2565SOL    HW2 8070   1.252   5.953   6.120
 2566SOL     OW 8071   0.639   6.235   6.285
 2566SOL    HW1 8072   0.676   6.322   6.318
 2566SOL    HW2 8073   0.566   6.254   6.218
 2567SOL     OW 8074   0.385   6.000   6.068
 2567SOL    HW1 8075   0.411   5.930   6.002
 2567SOL    HW2 8076   0.336   5.957   6.144
 2568SOL     OW 8077   1.396   5.609   5.780
 2568SOL    HW1 8078   1.444   5.536   5.733
 2568SOL    HW2 8079   1.302   5.581   5.799
 2569SOL     OW 8080   1.289   6.054   6.256
 2569SOL    HW1 8081   1.230   6.134   6.250
 2569SOL    HW2 8082   1.269   6.004   6.340
 2570SOL     OW 8083   2.044   0.403   0.412
 2570SOL    HW1 8084   2.000   0.470   0.472
 2570SOL    HW2 8085   2.143   0.413   0.418
 2571SOL     OW 8086   2.046   0.220   1.066
 2571SOL    HW1 8087   2.092   0.192   1.150
 2571SOL    HW2 8088   1.971   0.157   1.046
 2572SOL     OW 8089   1.845   0.330   0.687
 2572SOL    HW1 8090   1.762   0.357   0.736
 2572SOL    HW2 8091   1.823   0.257   0.622
 2573SOL     OW 8092   2.409   1.273   1.201
 2573SOL    HW1 8093   2.319   1.268   1.158
 2573SOL    HW2 8094   2.442   1.368   1.198
 2574SOL     OW 8095   3.498   1.463   0.747
 2574SOL    HW1 8096   3.441   1.401   0.800
 2574SOL    HW2 8097   3.457   1.478   0.657
 2575SOL     OW 8098   3.007   0.668   0.624
 2575SOL    HW1 8099   3.057   0.753   0.640
 2575SOL    HW2 8100   2.909   0.684   0.636
 2576SOL     OW 8101   3.645   0.624   0.213
 2576SOL    HW1 8102   3.571   0.643   0.149
 2576SOL    HW2 8103   3.623   0.543   0.267
 2577SOL     OW 8104   2.587   1.080   1.118
 2577SOL    HW1 8105   2.511   1.133   1.155
 2577SOL    HW2 8106   2.647   1.140   1.065
 2578SOL     OW 8107   2.778   0.714   1.807
 2578SOL    HW1 8108   2.807   0.785   1.871
 2578SOL    HW2 8109   2.773   0.753   1.715
 2579SOL     OW 8110   2.572   0.896   0.771
 2579SOL    HW1 8111   2.646   0.917   0.835
 2579SOL    HW2 8112   2.499   0.963   0.780
 2580SOL     OW 8113   2.573   1.141   1.859
 2580SOL    HW1 8114   2.632   1.207   1.906
 2580SOL    HW2 8115   2.492   1.188   1.824
 2581SOL     OW 8116   2.153   1.329   1.083
 2581SOL    HW1 8117   2.095   1.248   1.096
 2581SOL    HW2 8118   2.124   1.378   1.001
 2582SOL     OW 8119   3.365   1.498   1.451
 2582SOL    HW1 8120   3.343   1.529   1.358
 2582SOL    HW2 8121   3.281   1.495   1.505
 2583SOL     OW 8122   2.268   0.357   1.533
 2583SOL    HW1 8123   2.290   0.373   1.629
 2583SOL    HW2 8124   2.185   0.301   1.526
 2584SOL     OW 8125   3.458   0.434   0.751
 2584SOL    HW1 8126   3.378   0.443   0.692
 2584SOL    HW2 8127   3.452   0.501   0.826
 2585SOL     OW 8128   2.120   1.750   0.570
 2585SOL    HW1 8129   2.139   1.847   0.582
 2585SOL    HW2 8130   2.133   1.702   0.657
 2586SOL     OW 8131   3.036   1.289   1.720
 2586SOL    HW1 8132   3.115   1.251   1.768
 2586SOL    HW2 8133   2.962   1.222   1.719
 2587SOL     OW 8134   2.005   1.444   0.858
 2587SOL    HW1 8135   2.065   1.522   0.839
 2587SOL    HW2 8136   1.910   1.472   0.852
 2588SOL     OW 8137   2.196   1.007   0.992
 2588SOL    HW1 8138   2.190   0.907   0.992
 2588SOL    HW2 8139   2.111   1.046   1.028
 2589SOL     OW 8140   2.313   1.693   1.413
 2589SOL    HW1 8141   2.226   1.686   1.462
 2589SOL    HW2 8142   2.386   1.714   1.478
 2590SOL     OW 8143   2.363   0.912   0.155
 2590SOL    HW1 8144   2.440   0.948   0.102
 2590SOL    HW2 8145   2.317   0.988   0.202
 2591SOL     OW 8146   3.567   0.091   1.502
 2591SOL    HW1 8147   3.583   0.123   1.409
 2591SOL    HW2 8148   3.520   0.162   1.554
 2592SOL     OW 8149   1.947   0.578   0.620
 2592SOL    HW1 8150   1.912   0.491   0.655
 2592SOL    HW2 8151   1.951   0.644   0.695
 2593SOL     OW 8152   3.765   1.710   0.302
 2593SOL    HW1 8153   3.837   1.684   0.367
 2593SOL    HW2 8154   3.768   1.809   0.287
 2594SOL     OW 8155   1.689   1.538   0.403
 2594SOL    HW1 8156   1.721   1.459   0.454
 2594SOL    HW2 8157   1.759   1.610   0.405
 2595SOL     OW 8158   3.588   0.862   0.651
 2595SOL    HW1 8159   3.668   0.856   0.711
 2595SOL    HW2 8160   3.617   0.860   0.555
 2596SOL     OW 8161   3.588   1.111   0.450
 2596SOL    HW1 8162   3.675   1.100   0.403
 2596SOL    HW2 8163   3.604   1.147   0.542
 2597SOL     OW 8164   1.948   0.778   1.521
 2597SOL    HW1 8165   2.002   0.827   1.453
 2597SOL    HW2 8166   1.861   0.826   1.535
 2598SOL     OW 8167   2.497   1.311   0.835
 2598SOL    HW1 8168   2.444   1.227   0.822
 2598SOL    HW2 8169   2.437   1.383   0.869
 2599SOL     OW 8170   3.175   1.190   1.411
 2599SOL    HW1 8171   3.180   1.099   1.372
 2599SOL    HW2 8172   3.238   1.197   1.489
 2600SOL     OW 8173   2.682   0.016   0.493
 2600SOL    HW1 8174   2.764   0.069   0.513
 2600SOL    HW2 8175   2.636   6.492   0.578
 2601SOL     OW 8176   2.066   0.935   1.324
 2601SOL    HW1 8177   2.153   0.888   1.309
 2601SOL    HW2 8178   2.032   0.971   1.237
 2602SOL     OW 8179   3.489   0.991   0.220
 2602SOL    HW1 8180   3.429   0.914   0.244
 2602SOL    HW2 8181   3.522   1.035   0.304
 2603SOL     OW 8182   3.077   1.749   1.717
 2603SOL    HW1 8183   3.100   1.828   1.659
 2603SOL    HW2 8184   3.089   1.665   1.664
 2604SOL     OW 8185   2.239   0.342   1.816
 2604SOL    HW1 8186   2.275   0.408   1.881
 2604SOL    HW2 8187   2.139   0.347   1.815
 2605SOL     OW 8188   3.370   1.304   0.926
 2605SOL    HW1 8189   3.304   1.312   1.002
 2605SOL    HW2 8190   3.363   1.212   0.887
 2606SOL     OW 8191   3.552   1.793   0.515
 2606SOL    HW1 8192   3.593   1.716   0.465
 2606SOL    HW2 8193   3.454   1.776   0.527
 2607SOL     OW 8194   2.744   0.642   0.396
 2607SOL    HW1 8195   2.659   0.663   0.347
 2607SOL    HW2 8196   2.756   0.707   0.471
 2608SOL     OW 8197   3.149   0.452   0.954
 2608SOL    HW1 8198   3.049   0.463   0.954
 2608SOL    HW2 8199   3.173   0.367   1.000
 2609SOL     OW 8200   3.527   1.575   0.277
 2609SOL    HW1 8201   3.614   1.624   0.275
 2609SOL    HW2 8202   3.473   1.599   0.197
 2610SOL     OW 8203   2.670   0.590   1.507
 2610SOL    HW1 8204   2.627   0.560   1.592
 2610SOL    HW2 8205   2.641   0.531   1.432
 2611SOL     OW 8206   3.254   0.476   1.665
 2611SOL    HW1 8207   3.263   0.527   1.750
 2611SOL    HW2 8208   3.318   0.399   1.665
 2612SOL     OW 8209   2.802   0.892   1.569
 2612SOL    HW1 8210   2.859   0.824   1.522
 2612SOL    HW2 8211   2.744   0.938   1.503
 2613SOL     OW 8212   2.866   0.369   1.255
 2613SOL    HW1 8213   2.774   0.400   1.281
 2613SOL    HW2 8214   2.860   0.317   1.169
 2614SOL     OW 8215   3.010   0.669   0.349
 2614SOL    HW1 8216   3.035   0.663   0.446
 2614SOL    HW2 8217   2.911   0.653   0.339
 2615SOL     OW 8218   1.967   0.764   0.817
 2615SOL    HW1 8219   2.053   0.758   0.867
 2615SOL    HW2 8220   1.909   0.834   0.859
 2616SOL     OW 8221   1.882   1.832   1.678
 2616SOL    HW1 8222   1.932   1.824   1.764
 2616SOL    HW2 8223   1.794   1.785   1.685
 2617SOL     OW 8224   2.836   0.342   0.106
 2617SOL    HW1 8225   2.900   0.401   0.056
 2617SOL    HW2 8226   2.876   0.250   0.113
 2618SOL     OW 8227   3.543   0.593   1.845
 2618SOL    HW1 8228   3.525   0.682   1.802
 2618SOL    HW2 8229   3.570   0.527   1.775
 2619SOL     OW 8230   3.335   1.081   0.586
 2619SOL    HW1 8231   3.421   1.077   0.535
 2619SOL    HW2 8232   3.285   1.164   0.561
 2620SOL     OW 8233   2.481   0.173   1.018
 2620SOL    HW1 8234   2.467   0.196   1.114
 2620SOL    HW2 8235   2.462   0.252   0.961
 2621SOL     OW 8236   2.947   1.408   0.547
 2621SOL    HW1 8237   2.921   1.478   0.481
 2621SOL    HW2 8238   2.865   1.371   0.591
 2622SOL     OW 8239   2.161   1.675   0.835
 2622SOL    HW1 8240   2.239   1.623   0.869
 2622SOL    HW2 8241   2.162   1.767   0.875
 2623SOL     OW 8242   3.687   1.059   0.917
 2623SOL    HW1 8243   3.657   1.106   0.834
 2623SOL    HW2 8244   3.610   1.053   0.982
 2624SOL     OW 8245   3.116   1.511   1.571
 2624SOL    HW1 8246   3.089   1.428   1.619
 2624SOL    HW2 8247   3.071   1.515   1.482
 2625SOL     OW 8248   2.120   0.849   0.040
 2625SOL    HW1 8249   2.213   0.854   0.078
 2625SOL    HW2 8250   2.124   0.866   6.442
 2626SOL     OW 8251   3.365   0.730   0.714
 2626SOL    HW1 8252   3.374   0.690   0.805
 2626SOL    HW2 8253   3.447   0.784   0.693
 2627SOL     OW 8254   2.320   1.266   1.786
 2627SOL    HW1 8255   2.300   1.264   1.688
 2627SOL    HW2 8256   2.236   1.246   1.837
 2628SOL     OW 8257   2.979   1.785   0.125
 2628SOL    HW1 8258   2.989   1.748   0.217
 2628SOL    HW2 8259   3.036   1.732   0.062
 2629SOL     OW 8260   2.033   0.212   1.537
 2629SOL    HW1 8261   1.954   0.274   1.537
 2629SOL    HW2 8262   2.031   0.158   1.621
 2630SOL     OW 8263   3.601   1.363   0.113
 2630SOL    HW1 8264   3.572   1.430   0.182
 2630SOL    HW2 8265   3.522   1.307   0.087
 2631SOL     OW 8266   2.397   1.758   0.489
 2631SOL    HW1 8267   2.386   1.850   0.451
 2631SOL    HW2 8268   2.307   1.720   0.512
 2632SOL     OW 8269   3.352   0.120   0.447
 2632SOL    HW1 8270   3.340   0.085   0.354
 2632SOL    HW2 8271   3.448   0.145   0.461
 2633SOL     OW 8272   1.936   1.735   1.150
 2633SOL    HW1 8273   2.025   1.774   1.178
 2633SOL    HW2 8274   1.924   1.747   1.051
 2634SOL     OW 8275   2.847   1.563   0.816
 2634SOL    HW1 8276   2.924   1.527   0.869
 2634SOL    HW2 8277   2.805   1.489   0.764
 2635SOL     OW 8278   2.231   0.606   0.640
 2635SOL    HW1 8279   2.268   0.522   0.602
 2635SOL    HW2 8280   2.132   0.608   0.628
 2636SOL     OW 8281   3.391   0.237   1.684
 2636SOL    HW1 8282   3.405   0.225   1.782
 2636SOL    HW2 8283   3.315   0.180   1.653
 2637SOL     OW 8284   2.437   6.496   0.120
 2637SOL    HW1 8285   2.490   0.066   0.168
 2637SOL    HW2 8286   2.466   6.492   0.024
 2638SOL     OW 8287   2.603   0.269   1.750
 2638SOL    HW1 8288   2.690   0.220   1.761
 2638SOL    HW2 8289   2.527   0.210   1.776
 2639SOL     OW 8290   2.762   1.427   1.211
 2639SOL    HW1 8291   2.745   1.380   1.124
 2639SOL    HW2 8292   2.790   1.360   1.280
 2640SOL     OW 8293   3.177   0.583   1.431
 2640SOL    HW1 8294   3.209   0.546   1.518
 2640SOL    HW2 8295   3.216   0.674   1.416
 2641SOL     OW 8296   2.724   1.280   0.983
 2641SOL    HW1 8297   2.806   1.296   0.929
 2641SOL    HW2 8298   2.643   1.295   0.927
 2642SOL     OW 8299   2.870   0.475   0.930
 2642SOL    HW1 8300   2.828   0.475   0.839
 2642SOL    HW2 8301   2.855   0.387   0.974
 2643SOL     OW 8302   2.261   6.490   0.498
 2643SOL    HW1 8303   2.230   6.396   0.485
 2643SOL    HW2 8304   2.254   0.040   0.412
 2644SOL     OW 8305   3.384   1.201   0.078
 2644SOL    HW1 8306   3.417   1.118   0.125
 2644SOL    HW2 8307   3.327   1.254   0.140
 2645SOL     OW 8308   2.170   6.462   0.215
 2645SOL    HW1 8309   2.257   6.474   0.166
 2645SOL    HW2 8310   2.130   6.374   0.192
 2646SOL     OW 8311   2.876   0.221   0.537
 2646SOL    HW1 8312   2.822   0.269   0.468
 2646SOL    HW2 8313   2.973   0.236   0.519
 2647SOL     OW 8314   2.919   0.688   1.433
 2647SOL    HW1 8315   2.847   0.628   1.466
 2647SOL    HW2 8316   3.006   0.638   1.432
 2648SOL     OW 8317   3.142   1.524   0.847
 2648SOL    HW1 8318   3.124   1.572   0.761
 2648SOL    HW2 8319   3.221   1.565   0.892
 2649SOL     OW 8320   2.362   1.076   0.796
 2649SOL    HW1 8321   2.306   1.055   0.876
 2649SOL    HW2 8322   2.309   1.060   0.713
 2650SOL     OW 8323   3.280   1.758   0.529
 2650SOL    HW1 8324   3.275   1.842   0.475
 2650SOL    HW2 8325   3.193   1.744   0.576
 2651SOL     OW 8326   1.963   0.542   1.385
 2651SOL    HW1 8327   2.061   0.529   1.370
 2651SOL    HW2 8328   1.949   0.622   1.444
 2652SOL     OW 8329   2.426   0.243   1.278
 2652SOL    HW1 8330   2.479   0.216   1.358
 2652SOL    HW2 8331   2.330   0.218   1.292
 2653SOL     OW 8332   2.741   0.456   0.694
 2653SOL    HW1 8333   2.648   0.485   0.671
 2653SOL    HW2 8334   2.768   0.380   0.636
 2654SOL     OW 8335   2.816   0.089   0.788
 2654SOL    HW1 8336   2.852   0.130   0.705
 2654SOL    HW2 8337   2.859   0.000   0.804
 2655SOL     OW 8338   3.339   1.043   0.866
 2655SOL    HW1 8339   3.282   0.966   0.896
 2655SOL    HW2 8340   3.344   1.042   0.766
 2656SOL     OW 8341   3.372   0.608   0.960
 2656SOL    HW1 8342   3.292   0.549   0.970
 2656SOL    HW2 8343   3.427   0.604   1.043
 2657SOL     OW 8344   3.716   0.799   0.411
 2657SOL    HW1 8345   3.766   0.742   0.476
 2657SOL    HW2 8346   3.681   0.742   0.337
 2658SOL     OW 8347   2.465   1.335   0.065
 2658SOL    HW1 8348   2.367   1.347   0.078
 2658SOL    HW2 8349   2.510   1.326   0.154
 2659SOL     OW 8350   3.650   1.223   0.694
 2659SOL    HW1 8351   3.749   1.226   0.683
 2659SOL    HW2 8352   3.615   1.316   0.710
 2660SOL     OW 8353   3.386   0.538   0.071
 2660SOL    HW1 8354   3.316   0.531   0.141
 2660SOL    HW2 8355   3.429   0.448   0.057
 2661SOL     OW 8356   2.310   0.222   0.326
 2661SOL    HW1 8357   2.406   0.198   0.317
 2661SOL    HW2 8358   2.271   0.238   0.235
 2662SOL     OW 8359   3.636   1.230   1.586
 2662SOL    HW1 8360   3.726   1.188   1.576
 2662SOL    HW2 8361   3.646   1.326   1.615
 2663SOL     OW 8362   2.896   1.242   1.381
 2663SOL    HW1 8363   2.841   1.226   1.463
 2663SOL    HW2 8364   2.993   1.237   1.404
 2664SOL     OW 8365   3.482   1.609   1.688
 2664SOL    HW1 8366   3.434   1.585   1.603
 2664SOL    HW2 8367   3.575   1.572   1.684
 2665SOL     OW 8368   2.959   1.151   1.131
 2665SOL    HW1 8369   2.919   1.182   1.217
 2665SOL    HW2 8370   2.915   1.198   1.055
 2666SOL     OW 8371   3.484   1.068   1.106
 2666SOL    HW1 8372   3.466   1.145   1.166
 2666SOL    HW2 8373   3.416   1.066   1.033
 2667SOL     OW 8374   2.866   0.100   1.462
 2667SOL    HW1 8375   2.851   0.067   1.369
 2667SOL    HW2 8376   2.963   0.121   1.474
 2668SOL     OW 8377   2.826   1.111   1.723
 2668SOL    HW1 8378   2.736   1.129   1.762
 2668SOL    HW2 8379   2.822   1.029   1.666
 2669SOL     OW 8380   2.768   0.837   0.587
 2669SOL    HW1 8381   2.691   0.847   0.650
 2669SOL    HW2 8382   2.796   0.928   0.554
 2670SOL     OW 8383   2.296   0.786   1.299
 2670SOL    HW1 8384   2.366   0.800   1.370
 2670SOL    HW2 8385   2.265   0.691   1.302
 2671SOL     OW 8386   3.127   0.343   1.309
 2671SOL    HW1 8387   3.161   0.432   1.341
 2671SOL    HW2 8388   3.030   0.351   1.288
 2672SOL     OW 8389   1.919   1.531   1.341
 2672SOL    HW1 8390   1.911   1.605   1.275
 2672SOL    HW2 8391   2.016   1.509   1.355
 2673SOL     OW 8392   2.205   1.121   0.247
 2673SOL    HW1 8393   2.215   1.214   0.212
 2673SOL    HW2 8394   2.114   1.086   0.223
 2674SOL     OW 8395   2.424   0.439   0.940
 2674SOL    HW1 8396   2.429   0.494   0.856
 2674SOL    HW2 8397   2.488   0.475   1.007
 2675SOL     OW 8398   3.203   1.307   0.525
 2675SOL    HW1 8399   3.264   1.387   0.526
 2675SOL    HW2 8400   3.108   1.338   0.536
 2676SOL     OW 8401   3.205   1.282   1.147
 2676SOL    HW1 8402   3.219   1.259   1.243
 2676SOL    HW2 8403   3.122   1.238   1.114
 2677SOL     OW 8404   3.391   0.608   0.464
 2677SOL    HW1 8405   3.376   0.647   0.555
 2677SOL    HW2 8406   3.362   0.674   0.395
 2678SOL     OW 8407   2.181   1.456   1.330
 2678SOL    HW1 8408   2.182   1.419   1.238
 2678SOL    HW2 8409   2.245   1.532   1.336
 2679SOL     OW 8410   2.346   0.702   1.690
 2679SOL    HW1 8411   2.385   0.748   1.611
 2679SOL    HW2 8412   2.411   0.635   1.726
 2680SOL     OW 8413   3.489   0.828   1.725
 2680SOL    HW1 8414   3.393   0.856   1.716
 2680SOL    HW2 8415   3.542   0.865   1.649
 2681SOL     OW 8416   2.846   0.132   1.738
 2681SOL    HW1 8417   2.915   0.204   1.748
 2681SOL    HW2 8418   2.842   0.103   1.642
 2682SOL     OW 8419   2.386   0.108   1.796
 2682SOL    HW1 8420   2.350   0.031   1.743
 2682SOL    HW2 8421   2.319   0.182   1.797
 2683SOL     OW 8422   2.453   0.830   1.077
 2683SOL    HW1 8423   2.496   0.920   1.077
 2683SOL    HW2 8424   2.391   0.823   1.155
 2684SOL     OW 8425   3.204   0.830   0.985
 2684SOL    HW1 8426   3.110   0.795   0.979
 2684SOL    HW2 8427   3.268   0.754   0.978
 2685SOL     OW 8428   3.173   0.473   0.244
 2685SOL    HW1 8429   3.171   0.405   0.317
 2685SOL    HW2 8430   3.119   0.553   0.271
 2686SOL     OW 8431   2.163   0.147   1.299
 2686SOL    HW1 8432   2.112   0.159   1.385
 2686SOL    HW2 8433   2.199   0.054   1.294
 2687SOL     OW 8434   1.896   1.260   1.296
 2687SOL    HW1 8435   1.930   1.219   1.380
 2687SOL    HW2 8436   1.893   1.359   1.305
 2688SOL     OW 8437   2.608   0.607   1.068
 2688SOL    HW1 8438   2.669   0.601   0.989
 2688SOL    HW2 8439   2.551   0.689   1.059
 2689SOL     OW 8440   3.669   0.960   1.885
 2689SOL    HW1 8441   3.599   0.910   1.835
 2689SOL    HW2 8442   3.639   0.976   1.979
 2690SOL     OW 8443   2.022   0.030   0.641
 2690SOL    HW1 8444   2.043   0.113   0.693
 2690SOL    HW2 8445   2.096   0.012   0.576
 2691SOL     OW 8446   3.542   0.413   0.356
 2691SOL    HW1 8447   3.575   0.343   0.420
 2691SOL    HW2 8448   3.484   0.478   0.404
 2692SOL     OW 8449   2.949   0.730   0.995
 2692SOL    HW1 8450   2.906   0.747   1.084
 2692SOL    HW2 8451   2.927   0.637   0.965
 2693SOL     OW 8452   2.856   1.495   1.764
 2693SOL    HW1 8453   2.830   1.515   1.670
 2693SOL    HW2 8454   2.923   1.421   1.765
 2694SOL     OW 8455   3.728   1.493   1.633
 2694SOL    HW1 8456   3.748   1.516   1.537
 2694SOL    HW2 8457   3.810   1.509   1.688
 2695SOL     OW 8458   2.240   0.904   1.844
 2695SOL    HW1 8459   2.311   0.939   1.905
 2695SOL    HW2 8460   2.277   0.832   1.787
 2696SOL     OW 8461   3.484   0.281   0.127
 2696SOL    HW1 8462   3.428   0.201   0.149
 2696SOL    HW2 8463   3.505   0.330   0.212
 2697SOL     OW 8464   3.251   0.767   6.492
 2697SOL    HW1 8465   3.293   0.677   0.002
 2697SOL    HW2 8466   3.256   0.797   6.397
 2698SOL     OW 8467   2.975   1.307   0.882
 2698SOL    HW1 8468   2.991   1.222   0.832
 2698SOL    HW2 8469   3.051   1.370   0.865
 2699SOL     OW 8470   2.201   0.734   0.972
 2699SOL    HW1 8471   2.299   0.753   0.978
 2699SOL    HW2 8472   2.184   0.639   0.997
 2700SOL     OW 8473   2.171   0.462   1.042
 2700SOL    HW1 8474   2.121   0.376   1.048
 2700SOL    HW2 8475   2.259   0.446   0.997
 2701SOL     OW 8476   3.023   0.342   1.723
 2701SOL    HW1 8477   2.966   0.390   1.790
 2701SOL    HW2 8478   3.103   0.399   1.701
 2702SOL     OW 8479   3.130   0.180   1.526
 2702SOL    HW1 8480   3.090   0.233   1.600
 2702SOL    HW2 8481   3.140   0.239   1.445
 2703SOL     OW 8482   2.006   1.297   6.466
 2703SOL    HW1 8483   2.010   1.276   6.368
 2703SOL    HW2 8484   1.981   1.214   0.016
 2704SOL     OW 8485   1.883   1.764   0.878
 2704SOL    HW1 8486   1.824   1.685   0.863
 2704SOL    HW2 8487   1.972   1.748   0.836
 2705SOL     OW 8488   2.381   1.549   0.945
 2705SOL    HW1 8489   2.453   1.593   0.892
 2705SOL    HW2 8490   2.408   1.544   1.041
 2706SOL     OW 8491   2.793   0.780   1.210
 2706SOL    HW1 8492   2.841   0.756   1.294
 2706SOL    HW2 8493   2.716   0.718   1.197
 2707SOL     OW 8494   1.907   0.569   1.116
 2707SOL    HW1 8495   1.987   0.544   1.062
 2707SOL    HW2 8496   1.929   0.565   1.214
 2708SOL     OW 8497   2.075   0.649   1.735
 2708SOL    HW1 8498   2.173   0.658   1.716
 2708SOL    HW2 8499   2.024   0.698   1.665
 2709SOL     OW 8500   3.247   0.938   1.653
 2709SOL    HW1 8501   3.282   1.031   1.646
 2709SOL    HW2 8502   3.246   0.895   1.563
 2710SOL     OW 8503   2.740   0.373   0.354
 2710SOL    HW1 8504   2.777   0.365   0.261
 2710SOL    HW2 8505   2.740   0.469   0.381
 2711SOL     OW 8506   3.533   0.605   1.181
 2711SOL    HW1 8507   3.527   0.537   1.254
 2711SOL    HW2 8508   3.628   0.615   1.153
 2712SOL     OW 8509   2.019   1.487   1.756
 2712SOL    HW1 8510   1.988   1.527   1.843
 2712SOL    HW2 8511   2.055   1.395   1.772
 2713SOL     OW 8512   2.604   0.451   1.287
 2713SOL    HW1 8513   2.534   0.380   1.282
 2713SOL    HW2 8514   2.600   0.508   1.205
 2714SOL     OW 8515   2.785   1.525   1.505
 2714SOL    HW1 8516   2.716   1.461   1.471
 2714SOL    HW2 8517   2.854   1.539   1.434
 2715SOL     OW 8518   2.233   0.278   0.075
 2715SOL    HW1 8519   2.267   0.226   6.497
 2715SOL    HW2 8520   2.247   0.376   0.058
 2716SOL     OW 8521   1.989   1.112   1.519
 2716SOL    HW1 8522   1.990   1.069   1.609
 2716SOL    HW2 8523   2.018   1.046   1.449
 2717SOL     OW 8524   3.144   0.972   1.212
 2717SOL    HW1 8525   3.176   0.921   1.132
 2717SOL    HW2 8526   3.068   1.030   1.187
 2718SOL     OW 8527   3.306   0.795   0.273
 2718SOL    HW1 8528   3.233   0.849   0.315
 2718SOL    HW2 8529   3.284   0.777   0.177
 2719SOL     OW 8530   3.612   1.684   1.111
 2719SOL    HW1 8531   3.696   1.710   1.063
 2719SOL    HW2 8532   3.600   1.585   1.109
 2720SOL     OW 8533   3.268   1.539   1.194
 2720SOL    HW1 8534   3.305   1.586   1.114
 2720SOL    HW2 8535   3.249   1.444   1.172
 2721SOL     OW 8536   1.966   1.102   1.092
 2721SOL    HW1 8537   1.924   1.161   1.161
 2721SOL    HW2 8538   1.895   1.067   1.031
 2722SOL     OW 8539   2.618   1.631   1.813
 2722SOL    HW1 8540   2.580   1.686   1.739
 2722SOL    HW2 8541   2.714   1.610   1.792
 2723SOL     OW 8542   2.972   0.105   0.107
 2723SOL    HW1 8543   2.966   0.058   0.019
 2723SOL    HW2 8544   2.973   0.037   0.180
 2724SOL     OW 8545   3.645   0.173   0.470
 2724SOL    HW1 8546   3.719   0.190   0.406
 2724SOL    HW2 8547   3.627   0.074   0.475
 2725SOL     OW 8548   3.383   1.512   0.505
 2725SOL    HW1 8549   3.434   1.510   0.420
 2725SOL    HW2 8550   3.337   1.600   0.515
 2726SOL     OW 8551   2.036   1.796   1.900
 2726SOL    HW1 8552   2.002   1.708   1.935
 2726SOL    HW2 8553   2.076   1.848   1.975
 2727SOL     OW 8554   3.156   0.889   0.661
 2727SOL    HW1 8555   3.226   0.823   0.689
 2727SOL    HW2 8556   3.199   0.965   0.612
 2728SOL     OW 8557   2.588   1.294   1.437
 2728SOL    HW1 8558   2.560   1.333   1.524
 2728SOL    HW2 8559   2.510   1.288   1.375
 2729SOL     OW 8560   2.783   1.835   6.434
 2729SOL    HW1 8561   2.696   1.874   6.463
 2729SOL    HW2 8562   2.840   1.817   0.014
 2730SOL     OW 8563   3.675   1.804   1.357
 2730SOL    HW1 8564   3.631   1.768   1.274
 2730SOL    HW2 8565   3.609   1.860   1.408
 2731SOL     OW 8566   3.688   0.117   0.991
 2731SOL    HW1 8567   3.702   0.026   0.951
 2731SOL    HW2 8568   3.602   0.155   0.956
 2732SOL     OW 8569   2.085   0.245   0.795
 2732SOL    HW1 8570   2.005   0.292   0.759
 2732SOL    HW2 8571   2.077   0.238   0.895
 2733SOL     OW 8572   3.138   1.667   6.443
 2733SOL    HW1 8573   3.108   1.571   6.437
 2733SOL    HW2 8574   3.146   1.705   6.351
 2734SOL     OW 8575   2.639   1.026   1.395
 2734SOL    HW1 8576   2.643   1.019   1.295
 2734SOL    HW2 8577   2.624   1.121   1.421
 2735SOL     OW 8578   3.072   0.938   0.319
 2735SOL    HW1 8579   3.080   0.960   0.222
 2735SOL    HW2 8580   3.034   0.846   0.329
 2736SOL     OW 8581   3.388   1.623   0.043
 2736SOL    HW1 8582   3.291   1.634   0.023
 2736SOL    HW2 8583   3.430   1.562   6.475
 2737SOL     OW 8584   2.217   1.275   1.535
 2737SOL    HW1 8585   2.211   1.344   1.463
 2737SOL    HW2 8586   2.138   1.214   1.530
 2738SOL     OW 8587   3.496   1.283   1.305
 2738SOL    HW1 8588   3.591   1.270   1.332
 2738SOL    HW2 8589   3.451   1.345   1.369
 2739SOL     OW 8590   2.967   1.059   0.769
 2739SOL    HW1 8591   2.903   1.013   0.831
 2739SOL    HW2 8592   3.035   0.993   0.737
 2740SOL     OW 8593   2.849   0.216   1.030
 2740SOL    HW1 8594   2.831   0.180   0.938
 2740SOL    HW2 8595   2.845   0.141   1.096
 2741SOL     OW 8596   2.619   1.605   0.537
 2741SOL    HW1 8597   2.696   1.626   0.477
 2741SOL    HW2 8598   2.539   1.658   0.508
 2742SOL     OW 8599   3.605   0.409   1.372
 2742SOL    HW1 8600   3.701   0.438   1.374
 2742SOL    HW2 8601   3.597   0.324   1.320
 2743SOL     OW 8602   2.204   1.368   0.130
 2743SOL    HW1 8603   2.135   1.345   0.062
 2743SOL    HW2 8604   2.175   1.449   0.181
 2744SOL     OW 8605   1.990   0.998   1.766
 2744SOL    HW1 8606   1.909   0.967   1.815
 2744SOL    HW2 8607   2.071   0.949   1.799
 2745SOL     OW 8608   2.602   0.180   1.483
 2745SOL    HW1 8609   2.700   0.169   1.469
 2745SOL    HW2 8610   2.586   0.230   1.569
 2746SOL     OW 8611   3.276   0.837   1.403
 2746SOL    HW1 8612   3.215   0.880   1.335
 2746SOL    HW2 8613   3.370   0.841   1.370
 2747SOL     OW 8614   1.989   0.154   0.307
 2747SOL    HW1 8615   2.020   0.245   0.336
 2747SOL    HW2 8616   2.067   0.098   0.281
 2748SOL     OW 8617   3.235   1.343   0.250
 2748SOL    HW1 8618   3.152   1.395   0.229
 2748SOL    HW2 8619   3.230   1.307   0.343
 2749SOL     OW 8620   2.497   0.806   1.480
 2749SOL    HW1 8621   2.542   0.893   1.458
 2749SOL    HW2 8622   2.566   0.735   1.489
 2750SOL     OW 8623   3.382   1.633   0.950
 2750SOL    HW1 8624   3.428   1.588   0.874
 2750SOL    HW2 8625   3.450   1.683   1.004
 2751SOL     OW 8626   2.560   0.540   1.754
 2751SOL    HW1 8627   2.634   0.591   1.797
 2751SOL    HW2 8628   2.577   0.442   1.765
 2752SOL     OW 8629   3.356   1.188   1.637
 2752SOL    HW1 8630   3.336   1.210   1.733
 2752SOL    HW2 8631   3.452   1.208   1.617
 2753SOL     OW 8632   2.092   1.682   1.570
 2753SOL    HW1 8633   2.017   1.746   1.587
 2753SOL    HW2 8634   2.085   1.604   1.632
 2754SOL     OW 8635   3.519   0.863   1.282
 2754SOL    HW1 8636   3.528   0.773   1.239
 2754SOL    HW2 8637   3.512   0.933   1.210
 2755SOL     OW 8638   3.142   0.297   0.466
 2755SOL    HW1 8639   3.215   0.229   0.460
 2755SOL    HW2 8640   3.158   0.357   0.544
 2756SOL     OW 8641   2.472   0.639   0.760
 2756SOL    HW1 8642   2.509   0.732   0.763
 2756SOL    HW2 8643   2.384   0.639   0.713
 2757SOL     OW 8644   3.604   0.409   1.650
 2757SOL    HW1 8645   3.604   0.423   1.551
 2757SOL    HW2 8646   3.536   0.340   1.674
 2758SOL     OW 8647   3.614   0.950   1.521
 2758SOL    HW1 8648   3.605   1.048   1.533
 2758SOL    HW2 8649   3.582   0.924   1.429
 2759SOL     OW 8650   2.971   1.443   0.214
 2759SOL    HW1 8651   2.960   1.353   0.256
 2759SOL    HW2 8652   2.989   1.432   0.116
 2760SOL     OW 8653   2.583   1.652   0.806
 2760SOL    HW1 8654   2.580   1.647   0.706
 2760SOL    HW2 8655   2.678   1.641   0.836
 2761SOL     OW 8656   2.783   0.940   0.939
 2761SOL    HW1 8657   2.846   0.863   0.952
 2761SOL    HW2 8658   2.746   0.967   1.028
 2762SOL     OW 8659   3.117   0.992   0.062
 2762SOL    HW1 8660   3.133   1.068   6.499
 2762SOL    HW2 8661   3.167   0.912   0.031
 2763SOL     OW 8662   3.742   1.509   0.872
 2763SOL    HW1 8663   3.666   1.510   0.806
 2763SOL    HW2 8664   3.715   1.456   0.952
 2764SOL     OW 8665   2.062   1.237   1.868
 2764SOL    HW1 8666   2.037   1.150   1.827
 2764SOL    HW2 8667   1.997   1.259   1.942
 2765SOL     OW 8668   1.844   1.232   0.766
 2765SOL    HW1 8669   1.852   1.144   0.813
 2765SOL    HW2 8670   1.921   1.291   0.792
 2766SOL     OW 8671   2.521   1.411   1.670
 2766SOL    HW1 8672   2.442   1.372   1.716
 2766SOL    HW2 8673   2.557   1.488   1.723
 2767SOL     OW 8674   3.576   0.166   1.239
 2767SOL    HW1 8675   3.502   0.099   1.235
 2767SOL    HW2 8676   3.633   0.158   1.157
 2768SOL     OW 8677   2.329   0.374   0.546
 2768SOL    HW1 8678   2.326   0.323   0.460
 2768SOL    HW2 8679   2.347   0.311   0.622
 2769SOL     OW 8680   3.577   1.411   1.075
 2769SOL    HW1 8681   3.508   1.378   1.011
 2769SOL    HW2 8682   3.563   1.368   1.164
 2770SOL     OW 8683   2.228   0.523   1.318
 2770SOL    HW1 8684   2.260   0.460   1.389
 2770SOL    HW2 8685   2.227   0.477   1.230
 2771SOL     OW 8686   2.692   1.371   0.656
 2771SOL    HW1 8687   2.661   1.451   0.604
 2771SOL    HW2 8688   2.619   1.342   0.718
 2772SOL     OW 8689   3.230   0.227   1.077
 2772SOL    HW1 8690   3.210   0.130   1.062
 2772SOL    HW2 8691   3.201   0.253   1.169
 2773SOL     OW 8692   2.814   0.001   1.202
 2773SOL    HW1 8693   2.723   6.478   1.167
 2773SOL    HW2 8694   2.854   6.420   1.244
 2774SOL     OW 8695   2.807   1.128   0.561
 2774SOL    HW1 8696   2.746   1.202   0.589
 2774SOL    HW2 8697   2.872   1.109   0.634
 2775SOL     OW 8698   2.496   1.533   1.205
 2775SOL    HW1 8699   2.469   1.602   1.272
 2775SOL    HW2 8700   2.594   1.515   1.212
 2776SOL     OW 8701   3.339   0.038   0.174
 2776SOL    HW1 8702   3.334   0.062   0.077
 2776SOL    HW2 8703   3.324   6.440   0.184
 2777SOL     OW 8704   3.176   0.459   0.682
 2777SOL    HW1 8705   3.117   0.535   0.653
 2777SOL    HW2 8706   3.170   0.448   0.781
 2778SOL     OW 8707   3.451   0.208   0.908
 2778SOL    HW1 8708   3.372   0.218   0.969
 2778SOL    HW2 8709   3.452   0.284   0.842
 2779SOL     OW 8710   1.956   1.056   0.087
 2779SOL    HW1 8711   2.015   0.977   0.070
 2779SOL    HW2 8712   1.860   1.029   0.082
 2780SOL     OW 8713   2.863   1.630   0.387
 2780SOL    HW1 8714   2.889   1.571   0.311
 2780SOL    HW2 8715   2.820   1.713   0.351
 2781SOL     OW 8716   2.062   0.679   2.013
 2781SOL    HW1 8717   1.972   0.642   2.039
 2781SOL    HW2 8718   2.067   0.685   1.913
 2782SOL     OW 8719   2.010   0.404   2.825
 2782SOL    HW1 8720   2.091   0.345   2.833
 2782SOL    HW2 8721   1.928   0.348   2.821
 2783SOL     OW 8722   1.776   0.442   2.464
 2783SOL    HW1 8723   1.691   0.453   2.514
 2783SOL    HW2 8724   1.766   0.367   2.398
 2784SOL     OW 8725   2.417   1.337   3.088
 2784SOL    HW1 8726   2.332   1.332   3.037
 2784SOL    HW2 8727   2.439   1.433   3.108
 2785SOL     OW 8728   3.470   1.492   2.576
 2785SOL    HW1 8729   3.410   1.466   2.651
 2785SOL    HW2 8730   3.415   1.520   2.497
 2786SOL     OW 8731   3.006   0.660   2.500
 2786SOL    HW1 8732   3.022   0.755   2.527
 2786SOL    HW2 8733   2.911   0.636   2.517
 2787SOL     OW 8734   3.684   0.589   2.076
 2787SOL    HW1 8735   3.641   0.597   1.986
 2787SOL    HW2 8736   3.646   0.510   2.125
 2788SOL     OW 8737   2.573   1.167   2.932
 2788SOL    HW1 8738   2.513   1.205   3.002
 2788SOL    HW2 8739   2.618   1.241   2.883
 2789SOL     OW 8740   2.745   0.756   3.715
 2789SOL    HW1 8741   2.735   0.812   3.797
 2789SOL    HW2 8742   2.761   0.815   3.636
 2790SOL     OW 8743   2.548   0.973   2.531
 2790SOL    HW1 8744   2.617   0.985   2.603
 2790SOL    HW2 8745   2.471   1.033   2.549
 2791SOL     OW 8746   2.541   1.172   3.701
 2791SOL    HW1 8747   2.591   1.246   3.745
 2791SOL    HW2 8748   2.463   1.208   3.651
 2792SOL     OW 8749   2.184   1.406   2.936
 2792SOL    HW1 8750   2.103   1.369   2.892
 2792SOL    HW2 8751   2.238   1.458   2.869
 2793SOL     OW 8752   3.298   1.514   3.252
 2793SOL    HW1 8753   3.357   1.594   3.262
 2793SOL    HW2 8754   3.216   1.526   3.308
 2794SOL     OW 8755   2.331   0.452   3.369
 2794SOL    HW1 8756   2.419   0.405   3.375
 2794SOL    HW2 8757   2.258   0.389   3.398
 2795SOL     OW 8758   3.469   0.434   2.559
 2795SOL    HW1 8759   3.372   0.441   2.537
 2795SOL    HW2 8760   3.512   0.524   2.549
 2796SOL     OW 8761   2.077   1.735   2.364
 2796SOL    HW1 8762   2.100   1.812   2.424
 2796SOL    HW2 8763   2.157   1.711   2.309
 2797SOL     OW 8764   2.992   1.352   3.568
 2797SOL    HW1 8765   3.078   1.322   3.607
 2797SOL    HW2 8766   2.924   1.279   3.575
 2798SOL     OW 8767   2.144   1.468   2.412
 2798SOL    HW1 8768   2.103   1.559   2.422
 2798SOL    HW2 8769   2.100   1.405   2.475
 2799SOL     OW 8770   2.142   1.117   2.756
 2799SOL    HW1 8771   2.153   1.023   2.788
 2799SOL    HW2 8772   2.078   1.166   2.816
 2800SOL     OW 8773   2.397   1.827   3.290
 2800SOL    HW1 8774   2.324   1.800   3.353
 2800SOL    HW2 8775   2.453   1.898   3.331
 2801SOL     OW 8776   2.429   0.988   2.046
 2801SOL    HW1 8777   2.482   1.029   1.972
 2801SOL    HW2 8778   2.467   1.018   2.134
 2802SOL     OW 8779   3.532   0.114   3.364
 2802SOL    HW1 8780   3.580   0.154   3.286
 2802SOL    HW2 8781   3.485   0.185   3.416
 2803SOL     OW 8782   1.933   0.691   2.439
 2803SOL    HW1 8783   1.883   0.606   2.456
 2803SOL    HW2 8784   1.949   0.738   2.526
 2804SOL     OW 8785   3.738   1.759   2.170
 2804SOL    HW1 8786   3.814   1.747   2.234
 2804SOL    HW2 8787   3.738   1.852   2.133
 2805SOL     OW 8788   1.931   1.567   2.006
 2805SOL    HW1 8789   1.904   1.473   2.030
 2805SOL    HW2 8790   1.899   1.629   2.078
 2806SOL     OW 8791   3.572   0.866   2.474
 2806SOL    HW1 8792   3.653   0.869   2.532
 2806SOL    HW2 8793   3.559   0.956   2.430
 2807SOL     OW 8794   3.539   1.109   2.329
 2807SOL    HW1 8795   3.619   1.101   2.270
 2807SOL    HW2 8796   3.561   1.168   2.407
 2808SOL     OW 8797   1.938   0.789   3.382
 2808SOL    HW1 8798   2.005   0.835   3.324
 2808SOL    HW2 8799   1.855   0.845   3.388
 2809SOL     OW 8800   2.477   1.367   2.621
 2809SOL    HW1 8801   2.431   1.279   2.607
 2809SOL    HW2 8802   2.483   1.415   2.533
 2810SOL     OW 8803   3.103   1.235   3.283
 2810SOL    HW1 8804   3.122   1.167   3.212
 2810SOL    HW2 8805   3.177   1.234   3.350
 2811SOL     OW 8806   2.875   0.022   2.217
 2811SOL    HW1 8807   2.902   0.112   2.250
 2811SOL    HW2 8808   2.799   6.488   2.274
 2812SOL     OW 8809   2.072   0.939   3.185
 2812SOL    HW1 8810   2.170   0.920   3.176
 2812SOL    HW2 8811   2.026   0.918   3.099
 2813SOL     OW 8812   3.383   1.046   2.096
 2813SOL    HW1 8813   3.326   0.967   2.117
 2813SOL    HW2 8814   3.439   1.069   2.176
 2814SOL     OW 8815   3.070   1.808   3.494
 2814SOL    HW1 8816   3.059   1.878   3.423
 2814SOL    HW2 8817   3.066   1.717   3.451
 2815SOL     OW 8818   2.228   0.330   3.701
 2815SOL    HW1 8819   2.269   0.403   3.755
 2815SOL    HW2 8820   2.128   0.341   3.699
 2816SOL     OW 8821   3.296   1.416   2.773
 2816SOL    HW1 8822   3.249   1.442   2.858
 2816SOL    HW2 8823   3.280   1.319   2.754
 2817SOL     OW 8824   3.507   1.849   2.403
 2817SOL    HW1 8825   3.496   1.783   2.329
 2817SOL    HW2 8826   3.517   1.800   2.490
 2818SOL     OW 8827   2.443   0.724   2.151
 2818SOL    HW1 8828   2.442   0.815   2.108
 2818SOL    HW2 8829   2.374   0.721   2.223
 2819SOL     OW 8830   3.146   0.440   2.794
 2819SOL    HW1 8831   3.049   0.413   2.794
 2819SOL    HW2 8832   3.197   0.378   2.853
 2820SOL     OW 8833   3.478   1.672   2.194
 2820SOL    HW1 8834   3.576   1.690   2.184
 2820SOL    HW2 8835   3.437   1.658   2.104
 2821SOL     OW 8836   2.676   0.618   3.341
 2821SOL    HW1 8837   2.660   0.579   3.431
 2821SOL    HW2 8838   2.637   0.558   3.271
 2822SOL     OW 8839   3.254   0.514   3.522
 2822SOL    HW1 8840   3.261   0.563   3.609
 2822SOL    HW2 8841   3.312   0.433   3.524
 2823SOL     OW 8842   2.805   0.909   3.483
 2823SOL    HW1 8843   2.865   0.848   3.432
 2823SOL    HW2 8844   2.750   0.962   3.419
 2824SOL     OW 8845   2.841   0.412   3.071
 2824SOL    HW1 8846   2.749   0.446   3.092
 2824SOL    HW2 8847   2.846   0.391   2.973
 2825SOL     OW 8848   2.966   0.723   2.240
 2825SOL    HW1 8849   2.992   0.699   2.334
 2825SOL    HW2 8850   2.868   0.707   2.227
 2826SOL     OW 8851   1.957   0.855   2.663
 2826SOL    HW1 8852   2.047   0.847   2.706
 2826SOL    HW2 8853   1.903   0.923   2.712
 2827SOL     OW 8854   1.955   1.915   3.453
 2827SOL    HW1 8855   1.953   1.890   3.550
 2827SOL    HW2 8856   1.865   1.895   3.413
 2828SOL     OW 8857   2.758   0.404   2.153
 2828SOL    HW1 8858   2.783   0.407   2.057
 2828SOL    HW2 8859   2.683   0.338   2.166
 2829SOL     OW 8860   3.529   0.611   3.694
 2829SOL    HW1 8861   3.514   0.695   3.641
 2829SOL    HW2 8862   3.563   0.539   3.634
 2830SOL     OW 8863   3.263   1.152   2.439
 2830SOL    HW1 8864   3.350   1.140   2.391
 2830SOL    HW2 8865   3.208   1.220   2.392
 2831SOL     OW 8866   2.562   0.309   2.843
 2831SOL    HW1 8867   2.516   0.289   2.930
 2831SOL    HW2 8868   2.514   0.385   2.798
 2832SOL     OW 8869   2.865   1.464   2.347
 2832SOL    HW1 8870   2.846   1.537   2.282
 2832SOL    HW2 8871   2.832   1.491   2.438
 2833SOL     OW 8872   2.224   1.801   2.752
 2833SOL    HW1 8873   2.263   1.709   2.755
 2833SOL    HW2 8874   2.293   1.868   2.779
 2834SOL     OW 8875   3.659   1.106   2.765
 2834SOL    HW1 8876   3.625   1.150   2.682
 2834SOL    HW2 8877   3.585   1.100   2.832
 2835SOL     OW 8878   3.050   1.547   3.376
 2835SOL    HW1 8879   3.037   1.478   3.448
 2835SOL    HW2 8880   2.988   1.528   3.300
 2836SOL     OW 8881   2.147   0.922   2.136
 2836SOL    HW1 8882   2.232   0.951   2.093
 2836SOL    HW2 8883   2.117   0.836   2.096
 2837SOL     OW 8884   3.338   0.742   2.526
 2837SOL    HW1 8885   3.328   0.717   2.623
 2837SOL    HW2 8886   3.425   0.789   2.513
 2838SOL     OW 8887   2.324   1.314   3.605
 2838SOL    HW1 8888   2.296   1.326   3.510
 2838SOL    HW2 8889   2.245   1.291   3.661
 2839SOL     OW 8890   3.040   1.714   2.159
 2839SOL    HW1 8891   2.941   1.715   2.170
 2839SOL    HW2 8892   3.065   1.652   2.084
 2840SOL     OW 8893   2.085   0.309   3.411
 2840SOL    HW1 8894   2.023   0.387   3.418
 2840SOL    HW2 8895   2.063   0.242   3.482
 2841SOL     OW 8896   3.503   1.384   1.965
 2841SOL    HW1 8897   3.470   1.478   1.955
 2841SOL    HW2 8898   3.428   1.320   1.945
 2842SOL     OW 8899   2.315   1.721   2.226
 2842SOL    HW1 8900   2.367   1.783   2.285
 2842SOL    HW2 8901   2.378   1.669   2.168
 2843SOL     OW 8902   3.368   0.125   2.263
 2843SOL    HW1 8903   3.344   0.070   2.183
 2843SOL    HW2 8904   3.468   0.131   2.271
 2844SOL     OW 8905   2.065   1.804   3.082
 2844SOL    HW1 8906   2.120   1.729   3.118
 2844SOL    HW2 8907   2.037   1.783   2.988
 2845SOL     OW 8908   2.817   1.685   2.741
 2845SOL    HW1 8909   2.906   1.639   2.743
 2845SOL    HW2 8910   2.764   1.651   2.663
 2846SOL     OW 8911   2.246   0.687   2.345
 2846SOL    HW1 8912   2.247   0.589   2.359
 2846SOL    HW2 8913   2.151   0.720   2.348
 2847SOL     OW 8914   3.371   0.263   3.549
 2847SOL    HW1 8915   3.388   0.249   3.646
 2847SOL    HW2 8916   3.294   0.207   3.520
 2848SOL     OW 8917   2.477   0.006   2.034
 2848SOL    HW1 8918   2.576   0.014   2.023
 2848SOL    HW2 8919   2.432   0.046   1.954
 2849SOL     OW 8920   2.577   0.278   3.711
 2849SOL    HW1 8921   2.662   0.238   3.676
 2849SOL    HW2 8922   2.499   0.228   3.675
 2850SOL     OW 8923   2.713   1.549   3.040
 2850SOL    HW1 8924   2.696   1.500   2.955
 2850SOL    HW2 8925   2.777   1.496   3.097
 2851SOL     OW 8926   3.164   0.620   3.287
 2851SOL    HW1 8927   3.203   0.589   3.373
 2851SOL    HW2 8928   3.199   0.711   3.265
 2852SOL     OW 8929   2.676   1.388   2.812
 2852SOL    HW1 8930   2.766   1.380   2.769
 2852SOL    HW2 8931   2.606   1.390   2.740
 2853SOL     OW 8932   2.791   0.595   2.769
 2853SOL    HW1 8933   2.764   0.600   2.673
 2853SOL    HW2 8934   2.823   0.503   2.791
 2854SOL     OW 8935   2.287   0.074   2.328
 2854SOL    HW1 8936   2.277   6.487   2.280
 2854SOL    HW2 8937   2.308   0.146   2.262
 2855SOL     OW 8938   3.275   1.217   1.908
 2855SOL    HW1 8939   3.319   1.147   1.965
 2855SOL    HW2 8940   3.196   1.254   1.956
 2856SOL     OW 8941   2.141   0.104   2.018
 2856SOL    HW1 8942   2.213   0.166   2.049
 2856SOL    HW2 8943   2.146   0.018   2.070
 2857SOL     OW 8944   2.924   0.267   2.329
 2857SOL    HW1 8945   2.866   0.328   2.275
 2857SOL    HW2 8946   3.020   0.291   2.314
 2858SOL     OW 8947   2.915   0.739   3.298
 2858SOL    HW1 8948   2.838   0.677   3.317
 2858SOL    HW2 8949   3.000   0.686   3.294
 2859SOL     OW 8950   3.078   1.574   2.658
 2859SOL    HW1 8951   3.097   1.652   2.598
 2859SOL    HW2 8952   3.164   1.535   2.691
 2860SOL     OW 8953   2.334   1.139   2.564
 2860SOL    HW1 8954   2.270   1.131   2.640
 2860SOL    HW2 8955   2.286   1.128   2.478
 2861SOL     OW 8956   3.123   1.798   2.499
 2861SOL    HW1 8957   3.171   1.861   2.437
 2861SOL    HW2 8958   3.045   1.845   2.541
 2862SOL     OW 8959   2.883   0.479   1.912
 2862SOL    HW1 8960   2.850   0.566   1.876
 2862SOL    HW2 8961   2.957   0.496   1.976
 2863SOL     OW 8962   1.954   0.548   3.255
 2863SOL    HW1 8963   2.049   0.554   3.223
 2863SOL    HW2 8964   1.933   0.630   3.309
 2864SOL     OW 8965   2.403   0.273   3.074
 2864SOL    HW1 8966   2.432   0.203   3.140
 2864SOL    HW2 8967   2.310   0.302   3.096
 2865SOL     OW 8968   2.739   0.578   2.503
 2865SOL    HW1 8969   2.715   0.624   2.418
 2865SOL    HW2 8970   2.689   0.492   2.511
 2866SOL     OW 8971   2.837   0.172   2.573
 2866SOL    HW1 8972   2.881   0.206   2.490
 2866SOL    HW2 8973   2.900   0.111   2.621
 2867SOL     OW 8974   3.268   1.146   2.725
 2867SOL    HW1 8975   3.220   1.064   2.757
 2867SOL    HW2 8976   3.267   1.148   2.625
 2868SOL     OW 8977   3.298   0.675   2.790
 2868SOL    HW1 8978   3.240   0.594   2.795
 2868SOL    HW2 8979   3.378   0.662   2.850
 2869SOL     OW 8980   3.638   0.828   2.201
 2869SOL    HW1 8981   3.607   0.813   2.295
 2869SOL    HW2 8982   3.652   0.740   2.156
 2870SOL     OW 8983   2.354   1.402   2.034
 2870SOL    HW1 8984   2.276   1.374   2.089
 2870SOL    HW2 8985   2.351   1.357   1.945
 2871SOL     OW 8986   3.616   1.259   2.539
 2871SOL    HW1 8987   3.715   1.270   2.538
 2871SOL    HW2 8988   3.572   1.348   2.546
 2872SOL     OW 8989   3.267   0.590   1.908
 2872SOL    HW1 8990   3.216   0.554   1.986
 2872SOL    HW2 8991   3.365   0.582   1.926
 2873SOL     OW 8992   2.322   0.280   2.148
 2873SOL    HW1 8993   2.418   0.267   2.171
 2873SOL    HW2 8994   2.311   0.366   2.098
 2874SOL     OW 8995   3.608   1.231   3.382
 2874SOL    HW1 8996   3.698   1.190   3.364
 2874SOL    HW2 8997   3.619   1.319   3.427
 2875SOL     OW 8998   2.876   1.379   3.205
 2875SOL    HW1 8999   2.789   1.350   3.245
 2875SOL    HW2 9000   2.950   1.325   3.244
 2876SOL     OW 9001   3.478   1.643   3.538
 2876SOL    HW1 9002   3.460   1.684   3.449
 2876SOL    HW2 9003   3.553   1.577   3.531
 2877SOL     OW 9004   2.992   1.281   2.971
 2877SOL    HW1 9005   2.926   1.315   3.039
 2877SOL    HW2 9006   2.959   1.303   2.879
 2878SOL     OW 9007   3.447   1.112   2.941
 2878SOL    HW1 9008   3.436   1.176   3.017
 2878SOL    HW2 9009   3.376   1.129   2.873
 2879SOL     OW 9010   2.807   0.224   3.268
 2879SOL    HW1 9011   2.823   0.291   3.196
 2879SOL    HW2 9012   2.889   0.215   3.325
 2880SOL     OW 9013   2.817   1.144   3.617
 2880SOL    HW1 9014   2.722   1.163   3.642
 2880SOL    HW2 9015   2.821   1.058   3.566
 2881SOL     OW 9016   2.583   1.059   2.268
 2881SOL    HW1 9017   2.567   1.026   2.361
 2881SOL    HW2 9018   2.672   1.027   2.236
 2882SOL     OW 9019   2.329   0.853   3.152
 2882SOL    HW1 9020   2.394   0.858   3.228
 2882SOL    HW2 9021   2.284   0.763   3.153
 2883SOL     OW 9022   3.105   0.395   3.149
 2883SOL    HW1 9023   3.136   0.482   3.188
 2883SOL    HW2 9024   3.011   0.406   3.114
 2884SOL     OW 9025   1.913   1.556   3.216
 2884SOL    HW1 9026   1.863   1.620   3.157
 2884SOL    HW2 9027   2.011   1.570   3.206
 2885SOL     OW 9028   2.175   1.112   2.339
 2885SOL    HW1 9029   2.173   1.190   2.276
 2885SOL    HW2 9030   2.166   1.027   2.288
 2886SOL     OW 9031   2.434   0.539   2.750
 2886SOL    HW1 9032   2.431   0.591   2.665
 2886SOL    HW2 9033   2.487   0.589   2.818
 2887SOL     OW 9034   3.121   1.360   2.309
 2887SOL    HW1 9035   3.185   1.434   2.330
 2887SOL    HW2 9036   3.028   1.388   2.331
 2888SOL     OW 9037   3.180   1.478   3.008
 2888SOL    HW1 9038   3.222   1.486   3.098
 2888SOL    HW2 9039   3.113   1.403   3.009
 2889SOL     OW 9040   3.351   0.626   2.272
 2889SOL    HW1 9041   3.343   0.655   2.367
 2889SOL    HW2 9042   3.315   0.697   2.212
 2890SOL     OW 9043   2.186   1.560   3.157
 2890SOL    HW1 9044   2.177   1.500   3.078
 2890SOL    HW2 9045   2.282   1.583   3.171
 2891SOL     OW 9046   2.313   0.701   3.497
 2891SOL    HW1 9047   2.380   0.760   3.452
 2891SOL    HW2 9048   2.320   0.608   3.460
 2892SOL     OW 9049   3.477   0.839   3.555
 2892SOL    HW1 9050   3.381   0.867   3.551
 2892SOL    HW2 9051   3.523   0.865   3.470
 2893SOL     OW 9052   2.820   0.196   3.623
 2893SOL    HW1 9053   2.897   0.258   3.612
 2893SOL    HW2 9054   2.853   0.104   3.643
 2894SOL     OW 9055   2.318   0.098   3.590
 2894SOL    HW1 9056   2.248   0.027   3.593
 2894SOL    HW2 9057   2.279   0.185   3.622
 2895SOL     OW 9058   2.447   0.920   2.915
 2895SOL    HW1 9059   2.490   1.011   2.914
 2895SOL    HW2 9060   2.404   0.904   3.003
 2896SOL     OW 9061   3.163   0.912   2.835
 2896SOL    HW1 9062   3.066   0.888   2.833
 2896SOL    HW2 9063   3.218   0.830   2.818
 2897SOL     OW 9064   3.084   0.514   2.099
 2897SOL    HW1 9065   3.125   0.448   2.162
 2897SOL    HW2 9066   3.048   0.591   2.151
 2898SOL     OW 9067   2.146   0.315   3.143
 2898SOL    HW1 9068   2.124   0.306   3.240
 2898SOL    HW2 9069   2.089   0.252   3.090
 2899SOL     OW 9070   1.919   1.295   3.128
 2899SOL    HW1 9071   1.947   1.238   3.205
 2899SOL    HW2 9072   1.905   1.389   3.160
 2900SOL     OW 9073   2.584   0.684   2.929
 2900SOL    HW1 9074   2.662   0.669   2.868
 2900SOL    HW2 9075   2.543   0.773   2.909
 2901SOL     OW 9076   3.648   0.979   3.721
 2901SOL    HW1 9077   3.587   0.923   3.664
 2901SOL    HW2 9078   3.599   1.008   3.804
 2902SOL     OW 9079   2.057   0.117   2.465
 2902SOL    HW1 9080   2.052   0.214   2.490
 2902SOL    HW2 9081   2.142   0.100   2.415
 2903SOL     OW 9082   3.485   0.403   2.167
 2903SOL    HW1 9083   3.514   0.343   2.241
 2903SOL    HW2 9084   3.433   0.480   2.205
 2904SOL     OW 9085   2.900   0.834   2.854
 2904SOL    HW1 9086   2.866   0.847   2.946
 2904SOL    HW2 9087   2.874   0.743   2.821
 2905SOL     OW 9088   2.855   1.567   3.667
 2905SOL    HW1 9089   2.819   1.629   3.597
 2905SOL    HW2 9090   2.895   1.486   3.623
 2906SOL     OW 9091   3.695   1.481   3.472
 2906SOL    HW1 9092   3.716   1.516   3.380
 2906SOL    HW2 9093   3.774   1.493   3.531
 2907SOL     OW 9094   2.236   0.908   3.672
 2907SOL    HW1 9095   2.308   0.932   3.736
 2907SOL    HW2 9096   2.267   0.834   3.612
 2908SOL     OW 9097   3.437   0.216   1.950
 2908SOL    HW1 9098   3.382   0.142   1.989
 2908SOL    HW2 9099   3.456   0.284   2.021
 2909SOL     OW 9100   3.143   0.830   1.877
 2909SOL    HW1 9101   3.183   0.738   1.880
 2909SOL    HW2 9102   3.175   0.876   1.794
 2910SOL     OW 9103   2.924   1.354   2.713
 2910SOL    HW1 9104   2.940   1.271   2.660
 2910SOL    HW2 9105   2.982   1.427   2.679
 2911SOL     OW 9106   2.192   0.853   2.823
 2911SOL    HW1 9107   2.287   0.882   2.834
 2911SOL    HW2 9108   2.182   0.758   2.852
 2912SOL     OW 9109   2.203   0.586   2.892
 2912SOL    HW1 9110   2.125   0.529   2.866
 2912SOL    HW2 9111   2.282   0.561   2.836
 2913SOL     OW 9112   3.018   0.392   3.591
 2913SOL    HW1 9113   2.966   0.442   3.660
 2913SOL    HW2 9114   3.100   0.444   3.567
 2914SOL     OW 9115   3.074   0.243   3.373
 2914SOL    HW1 9116   3.051   0.294   3.455
 2914SOL    HW2 9117   3.098   0.306   3.299
 2915SOL     OW 9118   1.876   1.294   2.064
 2915SOL    HW1 9119   1.786   1.323   2.032
 2915SOL    HW2 9120   1.870   1.201   2.102
 2916SOL     OW 9121   1.963   1.750   2.827
 2916SOL    HW1 9122   1.929   1.667   2.782
 2916SOL    HW2 9123   2.054   1.772   2.791
 2917SOL     OW 9124   2.350   1.555   2.776
 2917SOL    HW1 9125   2.424   1.616   2.806
 2917SOL    HW2 9126   2.388   1.484   2.717
 2918SOL     OW 9127   2.773   0.854   3.094
 2918SOL    HW1 9128   2.831   0.821   3.168
 2918SOL    HW2 9129   2.696   0.791   3.082
 2919SOL     OW 9130   1.836   0.548   3.004
 2919SOL    HW1 9131   1.895   0.504   2.936
 2919SOL    HW2 9132   1.883   0.550   3.092
 2920SOL     OW 9133   2.055   0.657   3.595
 2920SOL    HW1 9134   2.152   0.665   3.571
 2920SOL    HW2 9135   2.000   0.707   3.528
 2921SOL     OW 9136   3.230   0.947   3.495
 2921SOL    HW1 9137   3.256   1.044   3.492
 2921SOL    HW2 9138   3.221   0.913   3.402
 2922SOL     OW 9139   2.699   0.655   2.240
 2922SOL    HW1 9140   2.715   0.562   2.206
 2922SOL    HW2 9141   2.610   0.687   2.207
 2923SOL     OW 9142   3.512   0.632   2.960
 2923SOL    HW1 9143   3.496   0.540   2.997
 2923SOL    HW2 9144   3.610   0.649   2.953
 2924SOL     OW 9145   2.073   1.544   3.602
 2924SOL    HW1 9146   2.032   1.570   3.690
 2924SOL    HW2 9147   2.103   1.448   3.607
 2925SOL     OW 9148   2.583   0.488   3.118
 2925SOL    HW1 9149   2.513   0.417   3.109
 2925SOL    HW2 9150   2.568   0.558   3.049
 2926SOL     OW 9151   2.732   1.705   3.439
 2926SOL    HW1 9152   2.689   1.631   3.387
 2926SOL    HW2 9153   2.758   1.779   3.376
 2927SOL     OW 9154   2.293   0.523   2.026
 2927SOL    HW1 9155   2.365   0.585   2.057
 2927SOL    HW2 9156   2.205   0.571   2.025
 2928SOL     OW 9157   1.999   1.143   3.350
 2928SOL    HW1 9158   2.002   1.108   3.444
 2928SOL    HW2 9159   2.028   1.071   3.287
 2929SOL     OW 9160   3.128   1.064   3.061
 2929SOL    HW1 9161   3.151   1.004   2.984
 2929SOL    HW2 9162   3.075   1.142   3.028
 2930SOL     OW 9163   3.207   0.833   2.142
 2930SOL    HW1 9164   3.123   0.811   2.191
 2930SOL    HW2 9165   3.188   0.840   2.044
 2931SOL     OW 9166   3.623   1.694   3.026
 2931SOL    HW1 9167   3.693   1.720   2.960
 2931SOL    HW2 9168   3.582   1.607   2.998
 2932SOL     OW 9169   3.136   1.751   2.982
 2932SOL    HW1 9170   3.227   1.790   2.968
 2932SOL    HW2 9171   3.143   1.651   2.987
 2933SOL     OW 9172   1.939   1.278   2.859
 2933SOL    HW1 9173   1.922   1.287   2.957
 2933SOL    HW2 9174   1.879   1.207   2.821
 2934SOL     OW 9175   2.553   1.727   3.644
 2934SOL    HW1 9176   2.482   1.795   3.630
 2934SOL    HW2 9177   2.624   1.737   3.575
 2935SOL     OW 9178   3.641   0.141   2.268
 2935SOL    HW1 9179   3.697   0.180   2.195
 2935SOL    HW2 9180   3.660   0.044   2.276
 2936SOL     OW 9181   3.289   1.578   2.379
 2936SOL    HW1 9182   3.348   1.609   2.304
 2936SOL    HW2 9183   3.221   1.649   2.399
 2937SOL     OW 9184   1.967   1.829   3.708
 2937SOL    HW1 9185   1.930   1.740   3.736
 2937SOL    HW2 9186   2.033   1.861   3.776
 2938SOL     OW 9187   3.127   0.919   2.499
 2938SOL    HW1 9188   3.198   0.849   2.506
 2938SOL    HW2 9189   3.167   1.005   2.467
 2939SOL     OW 9190   2.619   1.316   3.289
 2939SOL    HW1 9191   2.593   1.369   3.370
 2939SOL    HW2 9192   2.543   1.318   3.223
 2940SOL     OW 9193   2.516   1.616   2.059
 2940SOL    HW1 9194   2.561   1.624   1.970
 2940SOL    HW2 9195   2.463   1.532   2.062
 2941SOL     OW 9196   3.467   1.736   3.269
 2941SOL    HW1 9197   3.524   1.724   3.187
 2941SOL    HW2 9198   3.449   1.833   3.283
 2942SOL     OW 9199   3.708   0.131   2.840
 2942SOL    HW1 9200   3.715   0.049   2.782
 2942SOL    HW2 9201   3.628   0.185   2.813
 2943SOL     OW 9202   2.023   0.376   2.547
 2943SOL    HW1 9203   1.931   0.400   2.514
 2943SOL    HW2 9204   2.030   0.398   2.644
 2944SOL     OW 9205   3.115   1.564   1.942
 2944SOL    HW1 9206   3.083   1.471   1.959
 2944SOL    HW2 9207   3.065   1.603   1.865
 2945SOL     OW 9208   2.671   1.045   3.290
 2945SOL    HW1 9209   2.708   1.018   3.201
 2945SOL    HW2 9210   2.654   1.144   3.290
 2946SOL     OW 9211   2.825   0.974   2.186
 2946SOL    HW1 9212   2.843   0.968   2.088
 2946SOL    HW2 9213   2.884   0.910   2.235
 2947SOL     OW 9214   3.374   1.644   1.937
 2947SOL    HW1 9215   3.280   1.612   1.936
 2947SOL    HW2 9216   3.412   1.642   1.845
 2948SOL     OW 9217   2.202   1.346   3.366
 2948SOL    HW1 9218   2.193   1.418   3.297
 2948SOL    HW2 9219   2.131   1.277   3.352
 2949SOL     OW 9220   3.443   1.296   3.158
 2949SOL    HW1 9221   3.510   1.268   3.227
 2949SOL    HW2 9222   3.383   1.366   3.196
 2950SOL     OW 9223   2.945   1.111   2.597
 2950SOL    HW1 9224   2.860   1.073   2.635
 2950SOL    HW2 9225   3.001   1.036   2.562
 2951SOL     OW 9226   2.890   0.327   2.810
 2951SOL    HW1 9227   2.851   0.294   2.724
 2951SOL    HW2 9228   2.907   0.249   2.871
 2952SOL     OW 9229   2.479   1.495   2.380
 2952SOL    HW1 9230   2.526   1.440   2.311
 2952SOL    HW2 9231   2.382   1.503   2.356
 2953SOL     OW 9232   3.716   0.361   3.287
 2953SOL    HW1 9233   3.755   0.449   3.259
 2953SOL    HW2 9234   3.684   0.313   3.206
 2954SOL     OW 9235   2.133   1.332   2.180
 2954SOL    HW1 9236   2.039   1.328   2.145
 2954SOL    HW2 9237   2.135   1.391   2.261
 2955SOL     OW 9238   1.999   1.034   3.601
 2955SOL    HW1 9239   1.917   1.003   3.650
 2955SOL    HW2 9240   2.077   0.979   3.630
 2956SOL     OW 9241   2.586   0.327   3.395
 2956SOL    HW1 9242   2.667   0.284   3.354
 2956SOL    HW2 9243   2.614   0.383   3.473
 2957SOL     OW 9244   1.969   0.407   1.816
 2957SOL    HW1 9245   1.888   0.384   1.762
 2957SOL    HW2 9246   2.002   0.497   1.790
 2958SOL     OW 9247   3.243   0.877   3.229
 2958SOL    HW1 9248   3.184   0.940   3.178
 2958SOL    HW2 9249   3.333   0.872   3.185
 2959SOL     OW 9250   1.924   0.269   2.073
 2959SOL    HW1 9251   1.921   0.332   1.996
 2959SOL    HW2 9252   1.997   0.202   2.059
 2960SOL     OW 9253   3.048   1.311   2.037
 2960SOL    HW1 9254   2.952   1.285   2.028
 2960SOL    HW2 9255   3.072   1.316   2.134
 2961SOL     OW 9256   2.509   0.835   3.354
 2961SOL    HW1 9257   2.559   0.921   3.343
 2961SOL    HW2 9258   2.573   0.759   3.354
 2962SOL     OW 9259   3.394   1.843   2.943
 2962SOL    HW1 9260   3.419   1.893   2.860
 2962SOL    HW2 9261   3.474   1.792   2.976
 2963SOL     OW 9262   2.636   0.522   3.592
 2963SOL    HW1 9263   2.664   0.603   3.644
 2963SOL    HW2 9264   2.607   0.450   3.654
 2964SOL     OW 9265   3.326   1.205   3.477
 2964SOL    HW1 9266   3.327   1.222   3.576
 2964SOL    HW2 9267   3.419   1.216   3.440
 2965SOL     OW 9268   2.192   1.767   3.473
 2965SOL    HW1 9269   2.110   1.820   3.453
 2965SOL    HW2 9270   2.166   1.680   3.515
 2966SOL     OW 9271   3.477   0.880   3.087
 2966SOL    HW1 9272   3.491   0.795   3.036
 2966SOL    HW2 9273   3.472   0.957   3.024
 2967SOL     OW 9274   3.183   0.333   2.285
 2967SOL    HW1 9275   3.252   0.262   2.272
 2967SOL    HW2 9276   3.199   0.380   2.372
 2968SOL     OW 9277   2.434   0.718   2.545
 2968SOL    HW1 9278   2.482   0.805   2.538
 2968SOL    HW2 9279   2.366   0.712   2.472
 2969SOL     OW 9280   3.611   0.402   3.536
 2969SOL    HW1 9281   3.653   0.389   3.446
 2969SOL    HW2 9282   3.531   0.343   3.545
 2970SOL     OW 9283   3.589   0.939   3.329
 2970SOL    HW1 9284   3.582   1.038   3.342
 2970SOL    HW2 9285   3.554   0.915   3.238
 2971SOL     OW 9286   2.752   1.320   1.972
 2971SOL    HW1 9287   2.709   1.345   2.059
 2971SOL    HW2 9288   2.769   1.403   1.918
 2972SOL     OW 9289   2.543   1.739   2.823
 2972SOL    HW1 9290   2.520   1.835   2.808
 2972SOL    HW2 9291   2.642   1.725   2.808
 2973SOL     OW 9292   2.725   1.013   2.741
 2973SOL    HW1 9293   2.791   0.950   2.782
 2973SOL    HW2 9294   2.676   1.061   2.813
 2974SOL     OW 9295   2.898   0.935   1.927
 2974SOL    HW1 9296   2.879   1.008   1.862
 2974SOL    HW2 9297   2.990   0.898   1.911
 2975SOL     OW 9298   3.716   1.539   2.706
 2975SOL    HW1 9299   3.629   1.524   2.660
 2975SOL    HW2 9300   3.742   1.457   2.757
 2976SOL     OW 9301   2.071   1.275   3.700
 2976SOL    HW1 9302   2.048   1.188   3.657
 2976SOL    HW2 9303   2.010   1.292   3.777
 2977SOL     OW 9304   2.027   1.245   2.535
 2977SOL    HW1 9305   2.057   1.207   2.622
 2977SOL    HW2 9306   2.065   1.191   2.460
 2978SOL     OW 9307   2.536   1.470   3.505
 2978SOL    HW1 9308   2.463   1.414   3.543
 2978SOL    HW2 9309   2.549   1.551   3.562
 2979SOL     OW 9310   3.620   0.185   3.100
 2979SOL    HW1 9311   3.553   0.111   3.105
 2979SOL    HW2 9312   3.668   0.181   3.013
 2980SOL     OW 9313   2.238   0.418   2.386
 2980SOL    HW1 9314   2.236   0.368   2.300
 2980SOL    HW2 9315   2.150   0.406   2.433
 2981SOL     OW 9316   3.511   1.465   2.951
 2981SOL    HW1 9317   3.443   1.449   2.880
 2981SOL    HW2 9318   3.499   1.398   3.024
 2982SOL     OW 9319   2.212   0.610   3.169
 2982SOL    HW1 9320   2.260   0.543   3.225
 2982SOL    HW2 9321   2.214   0.581   3.073
 2983SOL     OW 9322   2.686   1.631   2.508
 2983SOL    HW1 9323   2.695   1.721   2.466
 2983SOL    HW2 9324   2.608   1.583   2.469
 2984SOL     OW 9325   3.265   0.263   2.958
 2984SOL    HW1 9326   3.259   0.163   2.952
 2984SOL    HW2 9327   3.218   0.294   3.040
 2985SOL     OW 9328   2.914   0.108   2.979
 2985SOL    HW1 9329   2.824   0.103   3.021
 2985SOL    HW2 9330   2.984   0.088   3.048
 2986SOL     OW 9331   2.645   1.332   2.229
 2986SOL    HW1 9332   2.620   1.235   2.242
 2986SOL    HW2 9333   2.729   1.352   2.280
 2987SOL     OW 9334   2.463   1.601   3.149
 2987SOL    HW1 9335   2.451   1.687   3.198
 2987SOL    HW2 9336   2.552   1.600   3.105
 2988SOL     OW 9337   3.299   6.488   2.027
 2988SOL    HW1 9338   3.319   6.421   1.956
 2988SOL    HW2 9339   3.222   6.456   2.082
 2989SOL     OW 9340   3.195   0.461   2.526
 2989SOL    HW1 9341   3.137   0.539   2.502
 2989SOL    HW2 9342   3.182   0.439   2.623
 2990SOL     OW 9343   3.489   0.278   2.791
 2990SOL    HW1 9344   3.407   0.277   2.847
 2990SOL    HW2 9345   3.474   0.334   2.710
 2991SOL     OW 9346   1.890   1.033   2.166
 2991SOL    HW1 9347   1.987   1.015   2.151
 2991SOL    HW2 9348   1.841   0.947   2.176
 2992SOL     OW 9349   2.763   1.680   2.199
 2992SOL    HW1 9350   2.679   1.653   2.153
 2992SOL    HW2 9351   2.745   1.760   2.257
 2993SOL     OW 9352   2.048   0.698   3.872
 2993SOL    HW1 9353   1.963   0.654   3.900
 2993SOL    HW2 9354   2.049   0.704   3.772
 2994SOL     OW 9355   2.021   0.260   4.759
 2994SOL    HW1 9356   2.068   0.235   4.844
 2994SOL    HW2 9357   1.943   0.199   4.744
 2995SOL     OW 9358   1.860   0.433   4.372
 2995SOL    HW1 9359   1.770   0.447   4.415
 2995SOL    HW2 9360   1.849   0.376   4.291
 2996SOL     OW 9361   2.422   1.323   4.929
 2996SOL    HW1 9362   2.329   1.319   4.890
 2996SOL    HW2 9363   2.442   1.416   4.959
 2997SOL     OW 9364   3.462   1.517   4.425
 2997SOL    HW1 9365   3.406   1.478   4.498
 2997SOL    HW2 9366   3.404   1.538   4.346
 2998SOL     OW 9367   2.990   0.724   4.380
 2998SOL    HW1 9368   3.043   0.806   4.359
 2998SOL    HW2 9369   2.945   0.735   4.469
 2999SOL     OW 9370   3.671   0.589   3.922
 2999SOL    HW1 9371   3.625   0.607   3.836
 2999SOL    HW2 9372   3.632   0.507   3.964
 3000SOL     OW 9373   2.581   1.148   4.778
 3000SOL    HW1 9374   2.510   1.183   4.839
 3000SOL    HW2 9375   2.632   1.225   4.739
 3001SOL     OW 9376   2.782   0.681   5.511
 3001SOL    HW1 9377   2.715   0.741   5.556
 3001SOL    HW2 9378   2.835   0.734   5.445
 3002SOL     OW 9379   2.562   0.982   4.364
 3002SOL    HW1 9380   2.631   0.989   4.435
 3002SOL    HW2 9381   2.489   1.048   4.382
 3003SOL     OW 9382   2.558   1.103   5.472
 3003SOL    HW1 9383   2.593   1.190   5.506
 3003SOL    HW2 9384   2.476   1.119   5.419
 3004SOL     OW 9385   2.182   1.405   4.795
 3004SOL    HW1 9386   2.112   1.347   4.752
 3004SOL    HW2 9387   2.236   1.450   4.724
 3005SOL     OW 9388   3.303   1.527   5.104
 3005SOL    HW1 9389   3.367   1.602   5.115
 3005SOL    HW2 9390   3.221   1.544   5.159
 3006SOL     OW 9391   2.202   0.405   5.244
 3006SOL    HW1 9392   2.260   0.377   5.320
 3006SOL    HW2 9393   2.125   0.342   5.236
 3007SOL     OW 9394   3.462   0.438   4.463
 3007SOL    HW1 9395   3.396   0.452   4.389
 3007SOL    HW2 9396   3.457   0.515   4.527
 3008SOL     OW 9397   2.092   1.743   4.189
 3008SOL    HW1 9398   2.111   1.812   4.258
 3008SOL    HW2 9399   2.169   1.738   4.125
 3009SOL     OW 9400   3.000   1.320   5.368
 3009SOL    HW1 9401   2.984   1.258   5.445
 3009SOL    HW2 9402   3.048   1.271   5.295
 3010SOL     OW 9403   2.164   1.481   4.248
 3010SOL    HW1 9404   2.124   1.573   4.247
 3010SOL    HW2 9405   2.117   1.425   4.317
 3011SOL     OW 9406   2.182   1.097   4.607
 3011SOL    HW1 9407   2.189   0.999   4.625
 3011SOL    HW2 9408   2.113   1.137   4.667
 3012SOL     OW 9409   2.435   1.859   5.086
 3012SOL    HW1 9410   2.357   1.839   5.145
 3012SOL    HW2 9411   2.495   1.926   5.130
 3013SOL     OW 9412   2.420   1.000   3.885
 3013SOL    HW1 9413   2.461   1.051   3.810
 3013SOL    HW2 9414   2.464   1.025   3.971
 3014SOL     OW 9415   3.517   0.138   5.227
 3014SOL    HW1 9416   3.573   0.208   5.181
 3014SOL    HW2 9417   3.448   0.182   5.284
 3015SOL     OW 9418   1.965   0.686   4.301
 3015SOL    HW1 9419   1.936   0.594   4.328
 3015SOL    HW2 9420   1.963   0.746   4.380
 3016SOL     OW 9421   3.735   1.754   4.038
 3016SOL    HW1 9422   3.811   1.743   4.102
 3016SOL    HW2 9423   3.736   1.848   4.002
 3017SOL     OW 9424   1.924   1.582   3.832
 3017SOL    HW1 9425   1.896   1.488   3.853
 3017SOL    HW2 9426   1.903   1.641   3.910
 3018SOL     OW 9427   3.561   0.939   4.393
 3018SOL    HW1 9428   3.652   0.899   4.400
 3018SOL    HW2 9429   3.555   0.996   4.311
 3019SOL     OW 9430   3.550   1.118   4.177
 3019SOL    HW1 9431   3.631   1.088   4.126
 3019SOL    HW2 9432   3.576   1.192   4.239
 3020SOL     OW 9433   1.957   0.791   5.284
 3020SOL    HW1 9434   2.041   0.843   5.302
 3020SOL    HW2 9435   1.884   0.853   5.255
 3021SOL     OW 9436   2.498   1.384   4.451
 3021SOL    HW1 9437   2.456   1.294   4.449
 3021SOL    HW2 9438   2.483   1.430   4.363
 3022SOL     OW 9439   3.123   1.193   5.164
 3022SOL    HW1 9440   3.128   1.136   5.082
 3022SOL    HW2 9441   3.210   1.187   5.214
 3023SOL     OW 9442   2.773   0.039   4.196
 3023SOL    HW1 9443   2.801   0.133   4.174
 3023SOL    HW2 9444   2.700   0.042   4.264
 3024SOL     OW 9445   2.066   0.934   4.995
 3024SOL    HW1 9446   2.163   0.908   4.999
 3024SOL    HW2 9447   2.019   0.875   4.929
 3025SOL     OW 9448   3.448   1.054   3.923
 3025SOL    HW1 9449   3.373   0.989   3.939
 3025SOL    HW2 9450   3.484   1.087   4.010
 3026SOL     OW 9451   3.118   1.849   5.360
 3026SOL    HW1 9452   3.090   1.911   5.287
 3026SOL    HW2 9453   3.116   1.755   5.327
 3027SOL     OW 9454   2.201   0.276   5.503
 3027SOL    HW1 9455   2.241   0.335   5.573
 3027SOL    HW2 9456   2.101   0.277   5.513
 3028SOL     OW 9457   3.303   1.416   4.626
 3028SOL    HW1 9458   3.258   1.444   4.711
 3028SOL    HW2 9459   3.287   1.318   4.610
 3029SOL     OW 9460   3.500   1.860   4.261
 3029SOL    HW1 9461   3.494   1.795   4.185
 3029SOL    HW2 9462   3.509   1.810   4.347
 3030SOL     OW 9463   2.423   0.737   4.005
 3030SOL    HW1 9464   2.427   0.826   3.960
 3030SOL    HW2 9465   2.353   0.740   4.077
 3031SOL     OW 9466   3.139   0.434   4.647
 3031SOL    HW1 9467   3.044   0.407   4.658
 3031SOL    HW2 9468   3.198   0.369   4.697
 3032SOL     OW 9469   3.469   1.688   4.047
 3032SOL    HW1 9470   3.568   1.698   4.039
 3032SOL    HW2 9471   3.429   1.673   3.956
 3033SOL     OW 9472   2.686   0.579   5.171
 3033SOL    HW1 9473   2.650   0.541   5.257
 3033SOL    HW2 9474   2.647   0.528   5.094
 3034SOL     OW 9475   3.228   0.468   5.370
 3034SOL    HW1 9476   3.234   0.511   5.460
 3034SOL    HW2 9477   3.279   0.382   5.370
 3035SOL     OW 9478   2.889   0.863   5.327
 3035SOL    HW1 9479   2.918   0.805   5.250
 3035SOL    HW2 9480   2.830   0.936   5.293
 3036SOL     OW 9481   2.868   0.431   4.922
 3036SOL    HW1 9482   2.773   0.442   4.950
 3036SOL    HW2 9483   2.872   0.397   4.828
 3037SOL     OW 9484   2.888   0.707   4.124
 3037SOL    HW1 9485   2.917   0.710   4.219
 3037SOL    HW2 9486   2.798   0.665   4.118
 3038SOL     OW 9487   1.948   0.858   4.513
 3038SOL    HW1 9488   2.038   0.842   4.554
 3038SOL    HW2 9489   1.896   0.922   4.570
 3039SOL     OW 9490   1.981   1.923   5.284
 3039SOL    HW1 9491   1.976   1.872   5.370
 3039SOL    HW2 9492   1.892   1.918   5.238
 3040SOL     OW 9493   2.722   0.388   3.926
 3040SOL    HW1 9494   2.789   0.436   3.869
 3040SOL    HW2 9495   2.660   0.335   3.868
 3041SOL     OW 9496   3.528   0.563   5.573
 3041SOL    HW1 9497   3.517   0.647   5.522
 3041SOL    HW2 9498   3.558   0.490   5.512
 3042SOL     OW 9499   3.282   1.171   4.298
 3042SOL    HW1 9500   3.369   1.159   4.250
 3042SOL    HW2 9501   3.227   1.239   4.251
 3043SOL     OW 9502   2.472   0.211   4.710
 3043SOL    HW1 9503   2.446   0.251   4.798
 3043SOL    HW2 9504   2.435   0.266   4.635
 3044SOL     OW 9505   2.873   1.469   4.196
 3044SOL    HW1 9506   2.853   1.548   4.138
 3044SOL    HW2 9507   2.837   1.485   4.288
 3045SOL     OW 9508   2.222   1.788   4.609
 3045SOL    HW1 9509   2.258   1.695   4.611
 3045SOL    HW2 9510   2.296   1.853   4.627
 3046SOL     OW 9511   3.643   1.044   4.639
 3046SOL    HW1 9512   3.597   1.029   4.552
 3046SOL    HW2 9513   3.575   1.064   4.710
 3047SOL     OW 9514   3.068   1.579   5.242
 3047SOL    HW1 9515   3.059   1.495   5.294
 3047SOL    HW2 9516   2.979   1.606   5.205
 3048SOL     OW 9517   2.148   0.944   3.981
 3048SOL    HW1 9518   2.233   0.969   3.935
 3048SOL    HW2 9519   2.117   0.855   3.948
 3049SOL     OW 9520   3.347   0.773   4.411
 3049SOL    HW1 9521   3.333   0.734   4.502
 3049SOL    HW2 9522   3.426   0.834   4.412
 3050SOL     OW 9523   2.310   1.157   5.357
 3050SOL    HW1 9524   2.283   1.197   5.270
 3050SOL    HW2 9525   2.301   1.226   5.429
 3051SOL     OW 9526   3.030   1.760   3.976
 3051SOL    HW1 9527   2.937   1.748   4.012
 3051SOL    HW2 9528   3.053   1.682   3.918
 3052SOL     OW 9529   1.994   0.220   5.239
 3052SOL    HW1 9530   1.905   0.264   5.244
 3052SOL    HW2 9531   2.003   0.154   5.314
 3053SOL     OW 9532   3.529   1.408   3.822
 3053SOL    HW1 9533   3.489   1.500   3.814
 3053SOL    HW2 9534   3.462   1.341   3.791
 3054SOL     OW 9535   2.329   1.764   4.043
 3054SOL    HW1 9536   2.372   1.815   4.117
 3054SOL    HW2 9537   2.398   1.712   3.993
 3055SOL     OW 9538   3.315   0.147   4.136
 3055SOL    HW1 9539   3.290   0.094   4.055
 3055SOL    HW2 9540   3.414   0.155   4.142
 3056SOL     OW 9541   2.073   1.810   4.944
 3056SOL    HW1 9542   2.125   1.732   4.978
 3056SOL    HW2 9543   2.042   1.791   4.850
 3057SOL     OW 9544   2.829   1.692   4.603
 3057SOL    HW1 9545   2.921   1.653   4.609
 3057SOL    HW2 9546   2.778   1.645   4.532
 3058SOL     OW 9547   2.233   0.705   4.207
 3058SOL    HW1 9548   2.267   0.614   4.229
 3058SOL    HW2 9549   2.134   0.709   4.222
 3059SOL     OW 9550   3.322   0.216   5.405
 3059SOL    HW1 9551   3.346   0.215   5.502
 3059SOL    HW2 9552   3.259   0.141   5.385
 3060SOL     OW 9553   2.332   0.020   3.860
 3060SOL    HW1 9554   2.402   0.074   3.908
 3060SOL    HW2 9555   2.343   0.032   3.761
 3061SOL     OW 9556   2.597   0.224   5.458
 3061SOL    HW1 9557   2.682   0.172   5.462
 3061SOL    HW2 9558   2.520   0.162   5.475
 3062SOL     OW 9559   2.719   1.514   4.931
 3062SOL    HW1 9560   2.698   1.487   4.838
 3062SOL    HW2 9561   2.775   1.444   4.975
 3063SOL     OW 9562   3.181   0.591   5.132
 3063SOL    HW1 9563   3.202   0.554   5.223
 3063SOL    HW2 9564   3.204   0.689   5.130
 3064SOL     OW 9565   2.678   1.386   4.678
 3064SOL    HW1 9566   2.770   1.379   4.638
 3064SOL    HW2 9567   2.611   1.390   4.604
 3065SOL     OW 9568   2.790   0.544   4.584
 3065SOL    HW1 9569   2.768   0.529   4.487
 3065SOL    HW2 9570   2.815   0.457   4.626
 3066SOL     OW 9571   2.310   0.099   4.198
 3066SOL    HW1 9572   2.223   0.066   4.235
 3066SOL    HW2 9573   2.293   0.175   4.135
 3067SOL     OW 9574   3.326   1.230   3.752
 3067SOL    HW1 9575   3.374   1.158   3.803
 3067SOL    HW2 9576   3.245   1.258   3.802
 3068SOL     OW 9577   2.057   0.028   3.866
 3068SOL    HW1 9578   2.157   0.029   3.871
 3068SOL    HW2 9579   2.024   6.435   3.885
 3069SOL     OW 9580   2.858   0.292   4.149
 3069SOL    HW1 9581   2.809   0.325   4.068
 3069SOL    HW2 9582   2.954   0.316   4.141
 3070SOL     OW 9583   2.920   0.702   5.105
 3070SOL    HW1 9584   2.842   0.643   5.129
 3070SOL    HW2 9585   3.003   0.647   5.101
 3071SOL     OW 9586   3.080   1.576   4.521
 3071SOL    HW1 9587   3.096   1.648   4.454
 3071SOL    HW2 9588   3.168   1.536   4.549
 3072SOL     OW 9589   2.356   1.154   4.409
 3072SOL    HW1 9590   2.298   1.133   4.487
 3072SOL    HW2 9591   2.302   1.148   4.325
 3073SOL     OW 9592   3.112   1.790   4.340
 3073SOL    HW1 9593   3.160   1.853   4.278
 3073SOL    HW2 9594   3.031   1.835   4.378
 3074SOL     OW 9595   2.901   0.540   3.786
 3074SOL    HW1 9596   2.853   0.624   3.760
 3074SOL    HW2 9597   2.973   0.562   3.852
 3075SOL     OW 9598   1.961   0.592   5.098
 3075SOL    HW1 9599   2.059   0.579   5.080
 3075SOL    HW2 9600   1.950   0.662   5.168
 3076SOL     OW 9601   2.392   0.280   4.973
 3076SOL    HW1 9602   2.445   0.249   5.052
 3076SOL    HW2 9603   2.296   0.255   4.985
 3077SOL     OW 9604   2.736   0.475   4.327
 3077SOL    HW1 9605   2.681   0.526   4.262
 3077SOL    HW2 9606   2.782   0.399   4.280
 3078SOL     OW 9607   2.857   0.149   4.464
 3078SOL    HW1 9608   2.890   0.153   4.369
 3078SOL    HW2 9609   2.880   0.060   4.503
 3079SOL     OW 9610   3.271   1.143   4.588
 3079SOL    HW1 9611   3.217   1.063   4.614
 3079SOL    HW2 9612   3.276   1.149   4.488
 3080SOL     OW 9613   3.303   0.661   4.658
 3080SOL    HW1 9614   3.238   0.585   4.660
 3080SOL    HW2 9615   3.368   0.652   4.733
 3081SOL     OW 9616   3.674   0.777   4.115
 3081SOL    HW1 9617   3.740   0.744   4.182
 3081SOL    HW2 9618   3.673   0.716   4.036
 3082SOL     OW 9619   2.370   1.441   3.883
 3082SOL    HW1 9620   2.290   1.405   3.930
 3082SOL    HW2 9621   2.377   1.402   3.791
 3083SOL     OW 9622   3.630   1.301   4.350
 3083SOL    HW1 9623   3.726   1.300   4.380
 3083SOL    HW2 9624   3.586   1.385   4.382
 3084SOL     OW 9625   3.257   0.620   3.772
 3084SOL    HW1 9626   3.213   0.598   3.859
 3084SOL    HW2 9627   3.357   0.614   3.782
 3085SOL     OW 9628   2.333   0.326   4.042
 3085SOL    HW1 9629   2.413   0.278   4.008
 3085SOL    HW2 9630   2.306   0.396   3.975
 3086SOL     OW 9631   3.609   1.233   5.239
 3086SOL    HW1 9632   3.698   1.194   5.216
 3086SOL    HW2 9633   3.622   1.321   5.283
 3087SOL     OW 9634   2.863   1.317   5.059
 3087SOL    HW1 9635   2.774   1.291   5.096
 3087SOL    HW2 9636   2.936   1.280   5.117
 3088SOL     OW 9637   3.483   1.644   5.399
 3088SOL    HW1 9638   3.466   1.688   5.311
 3088SOL    HW2 9639   3.559   1.580   5.390
 3089SOL     OW 9640   3.014   1.277   4.836
 3089SOL    HW1 9641   2.945   1.292   4.907
 3089SOL    HW2 9642   2.975   1.298   4.746
 3090SOL     OW 9643   3.439   1.105   4.813
 3090SOL    HW1 9644   3.433   1.175   4.885
 3090SOL    HW2 9645   3.372   1.124   4.742
 3091SOL     OW 9646   2.804   0.143   5.091
 3091SOL    HW1 9647   2.813   0.129   4.992
 3091SOL    HW2 9648   2.894   0.141   5.133
 3092SOL     OW 9649   2.594   1.056   4.096
 3092SOL    HW1 9650   2.585   1.023   4.190
 3092SOL    HW2 9651   2.662   1.000   4.048
 3093SOL     OW 9652   2.329   0.824   5.002
 3093SOL    HW1 9653   2.402   0.833   5.069
 3093SOL    HW2 9654   2.289   0.732   5.010
 3094SOL     OW 9655   3.120   0.366   4.994
 3094SOL    HW1 9656   3.158   0.446   5.041
 3094SOL    HW2 9657   3.025   0.386   4.968
 3095SOL     OW 9658   1.910   1.559   5.081
 3095SOL    HW1 9659   1.862   1.628   5.027
 3095SOL    HW2 9660   2.008   1.573   5.075
 3096SOL     OW 9661   2.184   1.134   4.190
 3096SOL    HW1 9662   2.183   1.210   4.124
 3096SOL    HW2 9663   2.171   1.048   4.142
 3097SOL     OW 9664   2.350   0.535   4.588
 3097SOL    HW1 9665   2.351   0.588   4.503
 3097SOL    HW2 9666   2.430   0.558   4.642
 3098SOL     OW 9667   3.131   1.367   4.165
 3098SOL    HW1 9668   3.190   1.445   4.185
 3098SOL    HW2 9669   3.036   1.391   4.181
 3099SOL     OW 9670   3.189   1.484   4.860
 3099SOL    HW1 9671   3.231   1.496   4.950
 3099SOL    HW2 9672   3.125   1.407   4.863
 3100SOL     OW 9673   3.447   0.625   4.197
 3100SOL    HW1 9674   3.393   0.670   4.267
 3100SOL    HW2 9675   3.519   0.687   4.165
 3101SOL     OW 9676   2.186   1.562   5.013
 3101SOL    HW1 9677   2.176   1.504   4.932
 3101SOL    HW2 9678   2.283   1.579   5.030
 3102SOL     OW 9679   2.399   0.710   5.363
 3102SOL    HW1 9680   2.453   0.756   5.292
 3102SOL    HW2 9681   2.448   0.629   5.395
 3103SOL     OW 9682   3.491   0.797   5.431
 3103SOL    HW1 9683   3.396   0.830   5.434
 3103SOL    HW2 9684   3.535   0.832   5.348
 3104SOL     OW 9685   2.837   0.079   5.447
 3104SOL    HW1 9686   2.901   0.156   5.439
 3104SOL    HW2 9687   2.860   0.009   5.380
 3105SOL     OW 9688   2.356   0.052   5.459
 3105SOL    HW1 9689   2.311   6.477   5.411
 3105SOL    HW2 9690   2.291   0.128   5.470
 3106SOL     OW 9691   2.540   0.877   4.828
 3106SOL    HW1 9692   2.548   0.974   4.806
 3106SOL    HW2 9693   2.457   0.862   4.881
 3107SOL     OW 9694   3.153   0.898   4.687
 3107SOL    HW1 9695   3.059   0.868   4.669
 3107SOL    HW2 9696   3.215   0.820   4.679
 3108SOL     OW 9697   3.087   0.577   3.987
 3108SOL    HW1 9698   3.111   0.495   4.039
 3108SOL    HW2 9699   3.020   0.631   4.039
 3109SOL     OW 9700   2.126   0.184   4.998
 3109SOL    HW1 9701   2.078   0.194   5.085
 3109SOL    HW2 9702   2.168   0.093   4.994
 3110SOL     OW 9703   1.882   1.310   4.966
 3110SOL    HW1 9704   1.913   1.239   5.029
 3110SOL    HW2 9705   1.890   1.400   5.010
 3111SOL     OW 9706   2.567   0.621   4.728
 3111SOL    HW1 9707   2.647   0.605   4.670
 3111SOL    HW2 9708   2.561   0.717   4.753
 3112SOL     OW 9709   3.654   0.977   5.572
 3112SOL    HW1 9710   3.601   0.904   5.528
 3112SOL    HW2 9711   3.605   1.010   5.652
 3113SOL     OW 9712   2.099   0.054   4.369
 3113SOL    HW1 9713   2.090   0.145   4.409
 3113SOL    HW2 9714   2.142   6.492   4.435
 3114SOL     OW 9715   3.479   0.406   4.030
 3114SOL    HW1 9716   3.515   0.332   4.085
 3114SOL    HW2 9717   3.455   0.483   4.089
 3115SOL     OW 9718   2.895   0.785   4.653
 3115SOL    HW1 9719   2.875   0.810   4.748
 3115SOL    HW2 9720   2.860   0.693   4.635
 3116SOL     OW 9721   2.834   1.520   5.433
 3116SOL    HW1 9722   2.805   1.573   5.354
 3116SOL    HW2 9723   2.887   1.441   5.403
 3117SOL     OW 9724   3.700   1.485   5.319
 3117SOL    HW1 9725   3.719   1.513   5.226
 3117SOL    HW2 9726   3.781   1.500   5.376
 3118SOL     OW 9727   2.203   0.901   5.366
 3118SOL    HW1 9728   2.247   0.991   5.358
 3118SOL    HW2 9729   2.272   0.829   5.365
 3119SOL     OW 9730   3.423   0.230   3.813
 3119SOL    HW1 9731   3.362   0.160   3.851
 3119SOL    HW2 9732   3.443   0.298   3.883
 3120SOL     OW 9733   3.126   0.857   3.731
 3120SOL    HW1 9734   3.165   0.766   3.742
 3120SOL    HW2 9735   3.154   0.895   3.643
 3121SOL     OW 9736   2.929   1.354   4.584
 3121SOL    HW1 9737   2.946   1.274   4.527
 3121SOL    HW2 9738   2.983   1.431   4.550
 3122SOL     OW 9739   2.197   0.821   4.627
 3122SOL    HW1 9740   2.267   0.807   4.557
 3122SOL    HW2 9741   2.205   0.749   4.697
 3123SOL     OW 9742   2.140   0.512   4.758
 3123SOL    HW1 9743   2.093   0.424   4.753
 3123SOL    HW2 9744   2.213   0.514   4.690
 3124SOL     OW 9745   3.005   0.306   5.416
 3124SOL    HW1 9746   2.949   0.349   5.487
 3124SOL    HW2 9747   3.083   0.365   5.394
 3125SOL     OW 9748   3.070   0.175   5.184
 3125SOL    HW1 9749   3.041   0.221   5.268
 3125SOL    HW2 9750   3.092   0.243   5.114
 3126SOL     OW 9751   1.887   1.299   3.908
 3126SOL    HW1 9752   1.795   1.328   3.880
 3126SOL    HW2 9753   1.882   1.207   3.946
 3127SOL     OW 9754   1.962   1.766   4.691
 3127SOL    HW1 9755   1.912   1.698   4.637
 3127SOL    HW2 9756   2.054   1.776   4.654
 3128SOL     OW 9757   2.350   1.544   4.625
 3128SOL    HW1 9758   2.423   1.602   4.660
 3128SOL    HW2 9759   2.388   1.480   4.558
 3129SOL     OW 9760   2.813   0.855   4.901
 3129SOL    HW1 9761   2.848   0.801   4.977
 3129SOL    HW2 9762   2.713   0.849   4.900
 3130SOL     OW 9763   1.943   0.691   4.845
 3130SOL    HW1 9764   2.011   0.637   4.795
 3130SOL    HW2 9765   1.942   0.663   4.941
 3131SOL     OW 9766   2.042   0.571   5.425
 3131SOL    HW1 9767   2.112   0.532   5.365
 3131SOL    HW2 9768   2.004   0.653   5.383
 3132SOL     OW 9769   3.246   0.923   5.388
 3132SOL    HW1 9770   3.280   1.016   5.379
 3132SOL    HW2 9771   3.220   0.887   5.298
 3133SOL     OW 9772   2.642   0.593   4.093
 3133SOL    HW1 9773   2.656   0.516   4.031
 3133SOL    HW2 9774   2.562   0.646   4.064
 3134SOL     OW 9775   3.486   0.628   4.859
 3134SOL    HW1 9776   3.461   0.559   4.927
 3134SOL    HW2 9777   3.584   0.627   4.844
 3135SOL     OW 9778   2.134   1.577   5.368
 3135SOL    HW1 9779   2.087   1.646   5.424
 3135SOL    HW2 9780   2.078   1.494   5.364
 3136SOL     OW 9781   2.594   0.462   4.947
 3136SOL    HW1 9782   2.518   0.398   4.956
 3136SOL    HW2 9783   2.578   0.521   4.867
 3137SOL     OW 9784   2.795   1.662   5.167
 3137SOL    HW1 9785   2.766   1.610   5.087
 3137SOL    HW2 9786   2.807   1.758   5.142
 3138SOL     OW 9787   2.279   0.540   3.877
 3138SOL    HW1 9788   2.348   0.603   3.912
 3138SOL    HW2 9789   2.189   0.584   3.878
 3139SOL     OW 9790   1.969   1.133   5.157
 3139SOL    HW1 9791   1.973   1.104   5.253
 3139SOL    HW2 9792   2.004   1.059   5.100
 3140SOL     OW 9793   3.126   1.045   4.925
 3140SOL    HW1 9794   3.142   0.982   4.848
 3140SOL    HW2 9795   3.086   1.130   4.891
 3141SOL     OW 9796   3.234   0.900   3.985
 3141SOL    HW1 9797   3.185   0.854   4.059
 3141SOL    HW2 9798   3.186   0.884   3.899
 3142SOL     OW 9799   3.618   1.691   4.880
 3142SOL    HW1 9800   3.690   1.721   4.817
 3142SOL    HW2 9801   3.583   1.602   4.851
 3143SOL     OW 9802   3.141   1.756   4.840
 3143SOL    HW1 9803   3.232   1.796   4.828
 3143SOL    HW2 9804   3.148   1.657   4.845
 3144SOL     OW 9805   1.975   1.229   4.723
 3144SOL    HW1 9806   1.941   1.260   4.812
 3144SOL    HW2 9807   1.905   1.171   4.680
 3145SOL     OW 9808   2.569   1.707   5.333
 3145SOL    HW1 9809   2.542   1.803   5.343
 3145SOL    HW2 9810   2.647   1.701   5.270
 3146SOL     OW 9811   3.599   0.175   4.134
 3146SOL    HW1 9812   3.663   0.213   4.067
 3146SOL    HW2 9813   3.625   0.080   4.153
 3147SOL     OW 9814   3.281   1.590   4.229
 3147SOL    HW1 9815   3.340   1.625   4.156
 3147SOL    HW2 9816   3.215   1.660   4.255
 3148SOL     OW 9817   1.999   1.773   5.511
 3148SOL    HW1 9818   1.927   1.712   5.542
 3148SOL    HW2 9819   2.038   1.822   5.589
 3149SOL     OW 9820   3.146   0.940   4.339
 3149SOL    HW1 9821   3.219   0.875   4.362
 3149SOL    HW2 9822   3.187   1.027   4.311
 3150SOL     OW 9823   2.605   1.258   5.130
 3150SOL    HW1 9824   2.575   1.313   5.208
 3150SOL    HW2 9825   2.537   1.264   5.057
 3151SOL     OW 9826   2.546   1.651   3.906
 3151SOL    HW1 9827   2.562   1.677   3.811
 3151SOL    HW2 9828   2.495   1.565   3.910
 3152SOL     OW 9829   3.477   1.740   5.127
 3152SOL    HW1 9830   3.533   1.730   5.044
 3152SOL    HW2 9831   3.460   1.837   5.144
 3153SOL     OW 9832   3.700   0.111   4.702
 3153SOL    HW1 9833   3.729   0.030   4.651
 3153SOL    HW2 9834   3.615   0.146   4.662
 3154SOL     OW 9835   2.081   0.295   4.493
 3154SOL    HW1 9836   2.014   0.357   4.452
 3154SOL    HW2 9837   2.062   0.286   4.590
 3155SOL     OW 9838   3.100   1.555   3.806
 3155SOL    HW1 9839   3.099   1.461   3.838
 3155SOL    HW2 9840   3.017   1.572   3.752
 3156SOL     OW 9841   2.738   1.019   5.146
 3156SOL    HW1 9842   2.782   1.011   5.057
 3156SOL    HW2 9843   2.685   1.104   5.149
 3157SOL     OW 9844   2.782   0.906   3.958
 3157SOL    HW1 9845   2.851   0.969   3.922
 3157SOL    HW2 9846   2.826   0.839   4.019
 3158SOL     OW 9847   3.364   1.650   3.789
 3158SOL    HW1 9848   3.271   1.615   3.786
 3158SOL    HW2 9849   3.401   1.655   3.697
 3159SOL     OW 9850   2.195   1.303   5.158
 3159SOL    HW1 9851   2.186   1.396   5.121
 3159SOL    HW2 9852   2.107   1.256   5.151
 3160SOL     OW 9853   3.447   1.303   5.014
 3160SOL    HW1 9854   3.513   1.273   5.084
 3160SOL    HW2 9855   3.389   1.374   5.052
 3161SOL     OW 9856   2.956   1.120   4.450
 3161SOL    HW1 9857   2.873   1.077   4.486
 3161SOL    HW2 9858   3.014   1.052   4.407
 3162SOL     OW 9859   2.884   0.298   4.685
 3162SOL    HW1 9860   2.874   0.258   4.595
 3162SOL    HW2 9861   2.867   0.229   4.755
 3163SOL     OW 9862   2.468   1.499   4.209
 3163SOL    HW1 9863   2.519   1.445   4.141
 3163SOL    HW2 9864   2.371   1.499   4.186
 3164SOL     OW 9865   3.705   0.346   5.150
 3164SOL    HW1 9866   3.745   0.436   5.130
 3164SOL    HW2 9867   3.683   0.300   5.065
 3165SOL     OW 9868   2.146   1.347   4.016
 3165SOL    HW1 9869   2.052   1.340   3.982
 3165SOL    HW2 9870   2.148   1.405   4.098
 3166SOL     OW 9871   1.928   1.077   5.430
 3166SOL    HW1 9872   1.834   1.059   5.459
 3166SOL    HW2 9873   1.991   1.024   5.487
 3167SOL     OW 9874   2.557   0.203   5.182
 3167SOL    HW1 9875   2.649   0.188   5.145
 3167SOL    HW2 9876   2.563   0.231   5.278
 3168SOL     OW 9877   1.965   0.424   3.712
 3168SOL    HW1 9878   1.883   0.397   3.661
 3168SOL    HW2 9879   1.998   0.512   3.678
 3169SOL     OW 9880   3.231   0.861   5.114
 3169SOL    HW1 9881   3.167   0.917   5.061
 3169SOL    HW2 9882   3.323   0.868   5.074
 3170SOL     OW 9883   1.898   0.243   3.932
 3170SOL    HW1 9884   1.922   0.319   3.871
 3170SOL    HW2 9885   1.960   0.166   3.914
 3171SOL     OW 9886   3.104   1.294   3.897
 3171SOL    HW1 9887   3.049   1.212   3.884
 3171SOL    HW2 9888   3.115   1.312   3.995
 3172SOL     OW 9889   2.553   0.817   5.164
 3172SOL    HW1 9890   2.614   0.896   5.169
 3172SOL    HW2 9891   2.607   0.733   5.163
 3173SOL     OW 9892   3.397   1.849   4.801
 3173SOL    HW1 9893   3.423   1.897   4.717
 3173SOL    HW2 9894   3.475   1.797   4.836
 3174SOL     OW 9895   2.588   0.501   5.415
 3174SOL    HW1 9896   2.658   0.554   5.463
 3174SOL    HW2 9897   2.592   0.406   5.444
 3175SOL     OW 9898   3.350   1.175   5.328
 3175SOL    HW1 9899   3.347   1.202   5.424
 3175SOL    HW2 9900   3.440   1.196   5.290
 3176SOL     OW 9901   2.236   1.813   5.266
 3176SOL    HW1 9902   2.149   1.862   5.260
 3176SOL    HW2 9903   2.219   1.718   5.292
 3177SOL     OW 9904   3.467   0.882   4.975
 3177SOL    HW1 9905   3.477   0.797   4.923
 3177SOL    HW2 9906   3.460   0.959   4.911
 3178SOL     OW 9907   3.127   0.356   4.148
 3178SOL    HW1 9908   3.197   0.285   4.138
 3178SOL    HW2 9909   3.142   0.405   4.234
 3179SOL     OW 9910   2.377   0.781   4.426
 3179SOL    HW1 9911   2.453   0.841   4.405
 3179SOL    HW2 9912   2.326   0.760   4.343
 3180SOL     OW 9913   3.628   0.360   5.415
 3180SOL    HW1 9914   3.648   0.359   5.318
 3180SOL    HW2 9915   3.611   0.266   5.447
 3181SOL     OW 9916   3.592   0.931   5.213
 3181SOL    HW1 9917   3.585   1.029   5.233
 3181SOL    HW2 9918   3.551   0.912   5.124
 3182SOL     OW 9919   2.680   1.378   3.801
 3182SOL    HW1 9920   2.671   1.377   3.900
 3182SOL    HW2 9921   2.738   1.455   3.773
 3183SOL     OW 9922   2.549   1.721   4.675
 3183SOL    HW1 9923   2.520   1.815   4.656
 3183SOL    HW2 9924   2.649   1.715   4.667
 3184SOL     OW 9925   2.737   1.004   4.577
 3184SOL    HW1 9926   2.788   0.925   4.609
 3184SOL    HW2 9927   2.685   1.044   4.652
 3185SOL     OW 9928   2.969   1.061   3.827
 3185SOL    HW1 9929   2.912   1.098   3.754
 3185SOL    HW2 9930   3.026   0.987   3.791
 3186SOL     OW 9931   3.681   1.552   4.585
 3186SOL    HW1 9932   3.611   1.551   4.514
 3186SOL    HW2 9933   3.652   1.494   4.661
 3187SOL     OW 9934   1.980   1.352   5.427
 3187SOL    HW1 9935   1.963   1.253   5.425
 3187SOL    HW2 9936   2.010   1.379   5.518
 3188SOL     OW 9937   2.044   1.271   4.395
 3188SOL    HW1 9938   2.067   1.229   4.483
 3188SOL    HW2 9939   2.080   1.213   4.321
 3189SOL     OW 9940   2.507   1.430   5.315
 3189SOL    HW1 9941   2.434   1.406   5.379
 3189SOL    HW2 9942   2.516   1.529   5.310
 3190SOL     OW 9943   3.618   0.180   4.954
 3190SOL    HW1 9944   3.555   0.110   4.985
 3190SOL    HW2 9945   3.655   0.155   4.865
 3191SOL     OW 9946   2.334   0.467   4.275
 3191SOL    HW1 9947   2.335   0.416   4.189
 3191SOL    HW2 9948   2.359   0.406   4.350
 3192SOL     OW 9949   3.531   1.448   4.793
 3192SOL    HW1 9950   3.453   1.435   4.732
 3192SOL    HW2 9951   3.521   1.388   4.872
 3193SOL     OW 9952   2.224   0.573   5.022
 3193SOL    HW1 9953   2.242   0.504   5.092
 3193SOL    HW2 9954   2.214   0.528   4.933
 3194SOL     OW 9955   2.700   1.571   4.397
 3194SOL    HW1 9956   2.658   1.619   4.320
 3194SOL    HW2 9957   2.638   1.498   4.428
 3195SOL     OW 9958   3.263   0.238   4.792
 3195SOL    HW1 9959   3.214   0.156   4.763
 3195SOL    HW2 9960   3.221   0.274   4.876
 3196SOL     OW 9961   2.840   0.054   4.831
 3196SOL    HW1 9962   2.853   0.027   4.735
 3196SOL    HW2 9963   2.826   6.472   4.887
 3197SOL     OW 9964   2.651   1.333   4.073
 3197SOL    HW1 9965   2.631   1.236   4.082
 3197SOL    HW2 9966   2.737   1.354   4.121
 3198SOL     OW 9967   2.464   1.596   5.002
 3198SOL    HW1 9968   2.459   1.693   5.027
 3198SOL    HW2 9969   2.557   1.574   4.973
 3199SOL     OW 9970   3.253   0.025   3.894
 3199SOL    HW1 9971   3.291   6.435   3.871
 3199SOL    HW2 9972   3.156   0.027   3.868
 3200SOL     OW 9973   3.156   0.495   4.379
 3200SOL    HW1 9974   3.100   0.577   4.369
 3200SOL    HW2 9975   3.155   0.465   4.475
 3201SOL     OW 9976   3.461   0.195   4.602
 3201SOL    HW1 9977   3.398   0.212   4.677
 3201SOL    HW2 9978   3.466   0.276   4.543
 3202SOL     OW 9979   1.891   1.035   4.024
 3202SOL    HW1 9980   1.987   1.020   4.003
 3202SOL    HW2 9981   1.846   0.948   4.043
 3203SOL     OW 9982   2.770   1.701   4.074
 3203SOL    HW1 9983   2.693   1.679   4.015
 3203SOL    HW2 9984   2.746   1.779   4.132
 3204SOL     OW 9985   2.075   0.610   5.696
 3204SOL    HW1 9986   1.989   0.620   5.746
 3204SOL    HW2 9987   2.056   0.594   5.599
 3205SOL     OW 9988   1.998   0.191   6.453
 3205SOL    HW1 9989   2.073   0.220   0.013
 3205SOL    HW2 9990   1.933   0.137   0.005
 3206SOL     OW 9991   1.747   0.336   6.146
 3206SOL    HW1 9992   1.693   0.325   6.230
 3206SOL    HW2 9993   1.725   0.262   6.083
 3207SOL     OW 9994   3.445   1.470   6.320
 3207SOL    HW1 9995   3.478   1.377   6.302
 3207SOL    HW2 9996   3.392   1.502   6.242
 3208SOL     OW 9997   3.056   0.676   6.238
 3208SOL    HW1 9998   3.128   0.742   6.220
 3208SOL    HW2 9999   3.004   0.704   6.319
 3209SOL     OW10000   3.709   0.551   5.778
 3209SOL    HW110001   3.638   0.558   5.708
 3209SOL    HW210002   3.731   0.455   5.794
 3210SOL     OW10003   2.961   1.193   0.333
 3210SOL    HW110004   2.902   1.183   0.413
 3210SOL    HW210005   3.017   1.110   0.322
 3211SOL     OW10006   2.476   1.004   6.242
 3211SOL    HW110007   2.491   0.958   6.330
 3211SOL    HW210008   2.511   1.098   6.248
 3212SOL     OW10009   3.416   0.364   6.284
 3212SOL    HW110010   3.318   0.360   6.265
 3212SOL    HW210011   3.445   0.459   6.292
 3213SOL     OW10012   2.012   1.843   5.977
 3213SOL    HW110013   2.057   1.886   6.055
 3213SOL    HW210014   2.058   1.868   5.893
 3214SOL     OW10015   1.825   1.683   5.871
 3214SOL    HW110016   1.895   1.736   5.918
 3214SOL    HW210017   1.784   1.617   5.935
 3215SOL     OW10018   2.611   0.868   5.614
 3215SOL    HW110019   2.571   0.930   5.548
 3215SOL    HW210020   2.678   0.917   5.670
 3216SOL     OW10021   1.728   0.607   6.072
 3216SOL    HW110022   1.741   0.511   6.098
 3216SOL    HW210023   1.778   0.626   5.988
 3217SOL     OW10024   3.728   1.777   5.881
 3217SOL    HW110025   3.807   1.765   5.941
 3217SOL    HW210026   3.729   1.869   5.842
 3218SOL     OW10027   1.821   1.602   5.612
 3218SOL    HW110028   1.750   1.535   5.596
 3218SOL    HW210029   1.821   1.630   5.708
 3219SOL     OW10030   3.522   0.889   6.236
 3219SOL    HW110031   3.566   0.924   6.319
 3219SOL    HW210032   3.553   0.942   6.157
 3220SOL     OW10033   3.544   1.114   6.035
 3220SOL    HW110034   3.628   1.081   5.992
 3220SOL    HW210035   3.567   1.179   6.108
 3221SOL     OW10036   2.564   1.249   6.330
 3221SOL    HW110037   2.524   1.287   6.414
 3221SOL    HW210038   2.567   1.320   6.260
 3222SOL     OW10039   2.761   0.021   6.187
 3222SOL    HW110040   2.772   0.094   6.119
 3222SOL    HW210041   2.668   0.024   6.224
 3223SOL     OW10042   3.458   1.058   5.776
 3223SOL    HW110043   3.408   0.972   5.789
 3223SOL    HW210044   3.489   1.093   5.864
 3224SOL     OW10045   3.541   1.863   6.126
 3224SOL    HW110046   3.529   1.788   6.062
 3224SOL    HW210047   3.594   1.832   6.205
 3225SOL     OW10048   2.500   0.627   5.733
 3225SOL    HW110049   2.513   0.710   5.679
 3225SOL    HW210050   2.573   0.619   5.801
 3226SOL     OW10051   3.109   0.334   0.014
 3226SOL    HW110052   3.077   0.244   0.043
 3226SOL    HW210053   3.142   0.386   0.094
 3227SOL     OW10054   3.473   1.682   5.910
 3227SOL    HW110055   3.568   1.708   5.893
 3227SOL    HW210056   3.426   1.672   5.822
 3228SOL     OW10057   2.927   0.628   5.994
 3228SOL    HW110058   2.966   0.642   6.085
 3228SOL    HW210059   2.829   0.607   6.003
 3229SOL     OW10060   2.083   0.909   6.274
 3229SOL    HW110061   2.169   0.869   6.244
 3229SOL    HW210062   2.007   0.856   6.237
 3230SOL     OW10063   2.726   0.352   5.822
 3230SOL    HW110064   2.759   0.362   5.729
 3230SOL    HW210065   2.667   0.272   5.829
 3231SOL     OW10066   3.263   1.144   6.122
 3231SOL    HW110067   3.353   1.127   6.082
 3231SOL    HW210068   3.215   1.213   6.068
 3232SOL     OW10069   2.948   1.567   5.983
 3232SOL    HW110070   2.980   1.638   5.920
 3232SOL    HW210071   2.910   1.610   6.065
 3233SOL     OW10072   2.206   1.958   6.458
 3233SOL    HW110073   2.198   1.894   6.382
 3233SOL    HW210074   2.276   2.026   6.437
 3234SOL     OW10075   3.626   0.976   6.479
 3234SOL    HW110076   3.655   1.070   6.459
 3234SOL    HW210077   3.580   0.975   0.068
 3235SOL     OW10078   2.076   0.884   5.605
 3235SOL    HW110079   2.132   0.889   5.523
 3235SOL    HW210080   2.094   0.798   5.652
 3236SOL     OW10081   3.470   0.628   6.303
 3236SOL    HW110082   3.468   0.618   6.403
 3236SOL    HW210083   3.507   0.718   6.280
 3237SOL     OW10084   3.004   1.762   5.793
 3237SOL    HW110085   2.912   1.800   5.787
 3237SOL    HW210086   3.019   1.699   5.717
 3238SOL     OW10087   3.531   1.421   5.677
 3238SOL    HW110088   3.473   1.502   5.677
 3238SOL    HW210089   3.482   1.344   5.636
 3239SOL     OW10090   2.293   1.695   5.733
 3239SOL    HW110091   2.335   1.671   5.820
 3239SOL    HW210092   2.351   1.665   5.658
 3240SOL     OW10093   3.343   0.099   5.995
 3240SOL    HW110094   3.319   0.045   5.915
 3240SOL    HW210095   3.439   0.126   5.989
 3241SOL     OW10096   2.386   0.560   6.037
 3241SOL    HW110097   2.344   0.479   6.078
 3241SOL    HW210098   2.347   0.576   5.947
 3242SOL     OW10099   2.490   6.463   5.676
 3242SOL    HW110100   2.582   6.432   5.652
 3242SOL    HW210101   2.439   6.484   5.592
 3243SOL     OW10102   2.353   0.084   6.034
 3243SOL    HW110103   2.323   6.494   6.064
 3243SOL    HW210104   2.317   0.102   5.942
 3244SOL     OW10105   3.354   1.229   5.593
 3244SOL    HW110106   3.390   1.159   5.655
 3244SOL    HW210107   3.269   1.265   5.630
 3245SOL     OW10108   2.074   0.023   5.707
 3245SOL    HW110109   2.158   0.068   5.737
 3245SOL    HW210110   2.080   6.425   5.725
 3246SOL     OW10111   2.879   0.215   6.004
 3246SOL    HW110112   2.833   0.273   5.936
 3246SOL    HW210113   2.976   0.237   6.006
 3247SOL     OW10114   3.145   1.778   6.190
 3247SOL    HW110115   3.194   1.851   6.142
 3247SOL    HW210116   3.047   1.795   6.185
 3248SOL     OW10117   2.885   0.447   5.613
 3248SOL    HW110118   2.854   0.537   5.581
 3248SOL    HW210119   2.954   0.460   5.685
 3249SOL     OW10120   2.749   0.368   6.195
 3249SOL    HW110121   2.710   0.441   6.139
 3249SOL    HW210122   2.806   0.309   6.139
 3250SOL     OW10123   2.968   6.498   6.357
 3250SOL    HW110124   3.050   0.017   6.303
 3250SOL    HW210125   2.887   0.010   6.301
 3251SOL     OW10126   3.677   0.749   5.962
 3251SOL    HW110127   3.731   0.718   6.040
 3251SOL    HW210128   3.687   0.683   5.887
 3252SOL     OW10129   2.292   1.391   5.502
 3252SOL    HW110130   2.239   1.381   5.586
 3252SOL    HW210131   2.252   1.463   5.445
 3253SOL     OW10132   3.630   1.266   6.246
 3253SOL    HW110133   3.698   1.193   6.245
 3253SOL    HW210134   3.674   1.353   6.267
 3254SOL     OW10135   3.251   0.548   5.628
 3254SOL    HW110136   3.201   0.510   5.706
 3254SOL    HW210137   3.349   0.538   5.643
 3255SOL     OW10138   2.302   0.158   5.780
 3255SOL    HW110139   2.385   0.117   5.743
 3255SOL    HW210140   2.302   0.257   5.761
 3256SOL     OW10141   2.787   1.027   5.760
 3256SOL    HW110142   2.727   1.041   5.838
 3256SOL    HW210143   2.854   0.956   5.781
 3257SOL     OW10144   2.283   1.146   6.101
 3257SOL    HW110145   2.283   1.115   6.006
 3257SOL    HW210146   2.342   1.087   6.155
 3258SOL     OW10147   2.657   0.247   6.420
 3258SOL    HW110148   2.684   0.295   6.336
 3258SOL    HW210149   2.708   0.284   6.497
 3259SOL     OW10150   3.147   1.371   5.989
 3259SOL    HW110151   3.224   1.424   6.024
 3259SOL    HW210152   3.064   1.427   5.989
 3260SOL     OW10153   3.429   0.631   6.012
 3260SOL    HW110154   3.420   0.621   6.112
 3260SOL    HW210155   3.511   0.682   5.991
 3261SOL     OW10156   3.070   0.471   5.823
 3261SOL    HW110157   3.108   0.398   5.880
 3261SOL    HW210158   3.019   0.535   5.881
 3262SOL     OW10159   2.104   6.486   6.232
 3262SOL    HW110160   2.054   0.065   6.196
 3262SOL    HW210161   2.049   6.442   6.303
 3263SOL     OW10162   3.424   0.386   5.872
 3263SOL    HW110163   3.493   0.329   5.918
 3263SOL    HW210164   3.419   0.475   5.917
 3264SOL     OW10165   3.385   0.198   5.671
 3264SOL    HW110166   3.333   0.122   5.711
 3264SOL    HW210167   3.394   0.271   5.739
 3265SOL     OW10168   3.151   0.799   5.621
 3265SOL    HW110169   3.181   0.704   5.612
 3265SOL    HW210170   3.174   0.850   5.538
 3266SOL     OW10171   3.044   1.413   6.448
 3266SOL    HW110172   3.106   1.335   6.433
 3266SOL    HW210173   2.965   1.405   6.388
 3267SOL     OW10174   1.834   1.291   5.697
 3267SOL    HW110175   1.748   1.336   5.674
 3267SOL    HW210176   1.815   1.198   5.729
 3268SOL     OW10177   1.918   1.974   6.406
 3268SOL    HW110178   1.911   1.962   6.307
 3268SOL    HW210179   2.014   1.971   6.433
 3269SOL     OW10180   2.661   0.544   5.995
 3269SOL    HW110181   2.677   0.471   5.928
 3269SOL    HW210182   2.563   0.550   6.015
 3270SOL     OW10183   2.295   0.439   5.708
 3270SOL    HW110184   2.376   0.497   5.707
 3270SOL    HW210185   2.213   0.496   5.714
 3271SOL     OW10186   3.323   0.834   5.838
 3271SOL    HW110187   3.337   0.754   5.896
 3271SOL    HW210188   3.254   0.815   5.769
 3272SOL     OW10189   3.615   0.182   5.957
 3272SOL    HW110190   3.674   0.216   5.884
 3272SOL    HW210191   3.635   0.086   5.974
 3273SOL     OW10192   3.310   1.569   6.101
 3273SOL    HW110193   3.371   1.606   6.031
 3273SOL    HW210194   3.246   1.640   6.131
 3274SOL     OW10195   3.249   0.876   6.234
 3274SOL    HW110196   3.349   0.870   6.229
 3274SOL    HW210197   3.219   0.961   6.191
 3275SOL     OW10198   2.494   1.598   5.571
 3275SOL    HW110199   2.524   1.646   5.488
 3275SOL    HW210200   2.508   1.500   5.561
 3276SOL     OW10201   3.724   0.195   0.027
 3276SOL    HW110202   3.723   0.109   6.475
 3276SOL    HW210203   3.630   0.224   0.044
 3277SOL     OW10204   2.010   0.258   6.194
 3277SOL    HW110205   1.923   0.296   6.163
 3277SOL    HW210206   2.005   0.240   6.292
 3278SOL     OW10207   3.066   1.567   5.608
 3278SOL    HW110208   3.087   1.475   5.641
 3278SOL    HW210209   2.987   1.563   5.546
 3279SOL     OW10210   2.956   0.833   5.812
 3279SOL    HW110211   3.026   0.816   5.742
 3279SOL    HW210212   2.954   0.756   5.876
 3280SOL     OW10213   3.350   1.645   5.641
 3280SOL    HW110214   3.256   1.618   5.624
 3280SOL    HW210215   3.399   1.654   5.554
 3281SOL     OW10216   3.194   1.195   6.385
 3281SOL    HW110217   3.221   1.175   6.291
 3281SOL    HW210218   3.276   1.198   6.443
 3282SOL     OW10219   2.603   1.597   5.816
 3282SOL    HW110220   2.561   1.598   5.725
 3282SOL    HW210221   2.665   1.518   5.822
 3283SOL     OW10222   2.076   1.417   5.679
 3283SOL    HW110223   1.990   1.372   5.702
 3283SOL    HW210224   2.081   1.505   5.726
 3284SOL     OW10225   1.920   0.349   5.525
 3284SOL    HW110226   1.850   0.319   5.460
 3284SOL    HW210227   1.959   0.436   5.495
 3285SOL     OW10228   1.870   0.205   5.762
 3285SOL    HW110229   1.879   0.269   5.685
 3285SOL    HW210230   1.939   0.133   5.753
 3286SOL     OW10231   3.120   1.315   5.707
 3286SOL    HW110232   3.063   1.240   5.676
 3286SOL    HW210233   3.127   1.312   5.807
 3287SOL     OW10234   3.140   0.285   6.013
 3287SOL    HW110235   3.221   0.227   6.002
 3287SOL    HW210236   3.143   0.331   6.102
 3288SOL     OW10237   2.313   0.788   6.201
 3288SOL    HW110238   2.384   0.858   6.201
 3288SOL    HW210239   2.346   0.708   6.151
 3289SOL     OW10240   2.658   1.357   5.580
 3289SOL    HW110241   2.703   1.364   5.669
 3289SOL    HW210242   2.707   1.412   5.513
 3290SOL     OW10243   2.609   2.037   0.066
 3290SOL    HW110244   2.683   2.092   0.028
 3290SOL    HW210245   2.642   1.986   0.145
 3291SOL     OW10246   2.573   1.012   0.004
 3291SOL    HW110247   2.662   0.996   0.046
 3291SOL    HW210248   2.574   1.100   6.457
 3292SOL     OW10249   2.964   1.125   5.571
 3292SOL    HW110250   2.887   1.100   5.629
 3292SOL    HW210251   2.991   1.046   5.515
 3293SOL     OW10252   3.717   1.519   6.323
 3293SOL    HW110253   3.617   1.523   6.332
 3293SOL    HW210254   3.760   1.545   6.409
 3294SOL     OW10255   2.032   1.178   6.218
 3294SOL    HW110256   2.033   1.083   6.249
 3294SOL    HW210257   2.115   1.198   6.167
 3295SOL     OW10258   2.266   0.330   6.123
 3295SOL    HW110259   2.304   0.247   6.082
 3295SOL    HW210260   2.168   0.318   6.138
 3296SOL     OW10261   2.846   1.722   6.189
 3296SOL    HW110262   2.787   1.781   6.135
 3296SOL    HW210263   2.827   1.736   6.286
 3297SOL     OW10264   2.802   1.403   5.818
 3297SOL    HW110265   2.839   1.310   5.826
 3297SOL    HW210266   2.854   1.465   5.876
 3298SOL     OW10267   3.246   6.477   5.768
 3298SOL    HW110268   3.272   6.383   5.746
 3298SOL    HW210269   3.146   6.483   5.771
 3299SOL     OW10270   3.145   0.410   6.255
 3299SOL    HW110271   3.112   0.504   6.244
 3299SOL    HW210272   3.126   0.378   6.348
 3300SOL     OW10273   1.846   0.946   5.740
 3300SOL    HW110274   1.939   0.934   5.704
 3300SOL    HW210275   1.782   0.960   5.665
 3301SOL     OW10276   2.731   1.831   5.825
 3301SOL    HW110277   2.686   1.741   5.820
 3301SOL    HW210278   2.723   1.867   5.917
 3302SOL     OW10279   2.007   2.528   0.143
 3302SOL    HW110280   1.911   2.524   0.171
 3302SOL    HW210281   2.038   2.437   0.118
 3303SOL     OW10282   2.016   2.163   1.025
 3303SOL    HW110283   2.032   2.144   1.122
 3303SOL    HW210284   1.932   2.117   0.996
 3304SOL     OW10285   1.770   2.300   0.654
 3304SOL    HW110286   1.681   2.319   0.696
 3304SOL    HW210287   1.761   2.224   0.589
 3305SOL     OW10288   2.491   3.224   1.193
 3305SOL    HW110289   2.441   3.181   1.118
 3305SOL    HW210290   2.452   3.314   1.212
 3306SOL     OW10291   3.449   3.417   0.707
 3306SOL    HW110292   3.406   3.380   0.788
 3306SOL    HW210293   3.383   3.422   0.632
 3307SOL     OW10294   2.852   2.497   0.844
 3307SOL    HW110295   2.811   2.545   0.767
 3307SOL    HW210296   2.855   2.557   0.924
 3308SOL     OW10297   3.696   2.521   0.177
 3308SOL    HW110298   3.646   2.573   0.108
 3308SOL    HW210299   3.631   2.474   0.236
 3309SOL     OW10300   2.744   3.258   1.090
 3309SOL    HW110301   2.663   3.226   1.139
 3309SOL    HW210302   2.724   3.265   0.993
 3310SOL     OW10303   2.705   2.637   1.962
 3310SOL    HW110304   2.708   2.662   2.058
 3310SOL    HW210305   2.721   2.718   1.906
 3311SOL     OW10306   2.501   2.918   0.551
 3311SOL    HW110307   2.580   2.957   0.600
 3311SOL    HW210308   2.417   2.961   0.584
 3312SOL     OW10309   2.502   3.060   1.858
 3312SOL    HW110310   2.568   3.129   1.889
 3312SOL    HW210311   2.416   3.104   1.835
 3313SOL     OW10312   2.157   3.367   1.094
 3313SOL    HW110313   2.093   3.303   1.050
 3313SOL    HW210314   2.231   3.389   1.030
 3314SOL     OW10315   3.303   3.457   1.388
 3314SOL    HW110316   3.360   3.538   1.404
 3314SOL    HW210317   3.225   3.459   1.451
 3315SOL     OW10318   2.133   2.231   1.621
 3315SOL    HW110319   2.181   2.201   1.703
 3315SOL    HW210320   2.058   2.168   1.601
 3316SOL     OW10321   3.608   2.441   0.686
 3316SOL    HW110322   3.509   2.437   0.697
 3316SOL    HW210323   3.651   2.454   0.776
 3317SOL     OW10324   2.086   3.576   0.480
 3317SOL    HW110325   2.094   3.657   0.539
 3317SOL    HW210326   2.169   3.568   0.425
 3318SOL     OW10327   2.957   3.243   1.705
 3318SOL    HW110328   2.964   3.270   1.801
 3318SOL    HW210329   2.959   3.143   1.698
 3319SOL     OW10330   2.084   3.305   0.467
 3319SOL    HW110331   2.076   3.403   0.489
 3319SOL    HW210332   2.041   3.251   0.539
 3320SOL     OW10333   2.121   3.007   0.857
 3320SOL    HW110334   2.110   2.910   0.879
 3320SOL    HW210335   2.064   3.062   0.919
 3321SOL     OW10336   2.408   3.723   1.424
 3321SOL    HW110337   2.336   3.693   1.486
 3321SOL    HW210338   2.462   3.794   1.467
 3322SOL     OW10339   2.376   2.874   0.130
 3322SOL    HW110340   2.379   2.923   0.044
 3322SOL    HW210341   2.445   2.911   0.193
 3323SOL     OW10342   3.548   1.993   1.506
 3323SOL    HW110343   3.586   2.083   1.489
 3323SOL    HW210344   3.515   1.987   1.600
 3324SOL     OW10345   1.872   2.558   0.615
 3324SOL    HW110346   1.827   2.469   0.627
 3324SOL    HW210347   1.839   2.621   0.684
 3325SOL     OW10348   3.732   3.568   0.311
 3325SOL    HW110349   3.800   3.544   0.380
 3325SOL    HW210350   3.730   3.668   0.299
 3326SOL     OW10351   1.896   3.425   0.067
 3326SOL    HW110352   1.904   3.328   0.089
 3326SOL    HW210353   1.887   3.477   0.152
 3327SOL     OW10354   3.706   2.797   0.635
 3327SOL    HW110355   3.765   2.740   0.694
 3327SOL    HW210356   3.723   2.772   0.539
 3328SOL     OW10357   3.540   3.020   0.415
 3328SOL    HW110358   3.629   2.989   0.379
 3328SOL    HW210359   3.555   3.087   0.487
 3329SOL     OW10360   1.902   2.619   1.591
 3329SOL    HW110361   1.993   2.642   1.555
 3329SOL    HW210362   1.840   2.695   1.576
 3330SOL     OW10363   2.415   3.276   0.720
 3330SOL    HW110364   2.370   3.190   0.694
 3330SOL    HW210365   2.430   3.331   0.638
 3331SOL     OW10366   3.143   3.062   1.538
 3331SOL    HW110367   3.168   3.075   1.442
 3331SOL    HW210368   3.225   3.066   1.595
 3332SOL     OW10369   2.730   1.876   0.335
 3332SOL    HW110370   2.783   1.956   0.305
 3332SOL    HW210371   2.665   1.905   0.405
 3333SOL     OW10372   1.982   2.784   1.302
 3333SOL    HW110373   2.051   2.732   1.352
 3333SOL    HW210374   1.928   2.721   1.246
 3334SOL     OW10375   3.449   2.874   0.194
 3334SOL    HW110376   3.377   2.812   0.228
 3334SOL    HW210377   3.482   2.930   0.269
 3335SOL     OW10378   3.034   3.687   1.637
 3335SOL    HW110379   3.044   3.767   1.577
 3335SOL    HW210380   3.042   3.603   1.583
 3336SOL     OW10381   2.199   2.148   1.874
 3336SOL    HW110382   2.246   2.217   1.928
 3336SOL    HW210383   2.101   2.152   1.892
 3337SOL     OW10384   3.329   3.326   0.932
 3337SOL    HW110385   3.266   3.359   1.003
 3337SOL    HW210386   3.285   3.254   0.879
 3338SOL     OW10387   3.529   3.656   0.574
 3338SOL    HW110388   3.499   3.632   0.481
 3338SOL    HW210389   3.524   3.575   0.632
 3339SOL     OW10390   2.385   2.606   0.201
 3339SOL    HW110391   2.379   2.693   0.152
 3339SOL    HW210392   2.388   2.623   0.299
 3340SOL     OW10393   3.099   2.164   0.964
 3340SOL    HW110394   3.017   2.107   0.958
 3340SOL    HW210395   3.130   2.168   1.059
 3341SOL     OW10396   3.461   3.538   0.325
 3341SOL    HW110397   3.561   3.537   0.321
 3341SOL    HW210398   3.424   3.525   0.233
 3342SOL     OW10399   2.808   2.387   1.404
 3342SOL    HW110400   2.772   2.394   1.497
 3342SOL    HW210401   2.734   2.358   1.342
 3343SOL     OW10402   3.308   2.329   1.851
 3343SOL    HW110403   3.288   2.394   1.924
 3343SOL    HW210404   3.339   2.243   1.891
 3344SOL     OW10405   2.923   2.972   1.666
 3344SOL    HW110406   3.005   2.984   1.610
 3344SOL    HW210407   2.842   2.974   1.607
 3345SOL     OW10408   2.926   2.532   0.212
 3345SOL    HW110409   2.857   2.464   0.235
 3345SOL    HW210410   2.901   2.620   0.253
 3346SOL     OW10411   1.847   2.767   0.803
 3346SOL    HW110412   1.939   2.748   0.839
 3346SOL    HW210413   1.813   2.852   0.843
 3347SOL     OW10414   1.968   3.762   1.619
 3347SOL    HW110415   1.970   3.725   1.712
 3347SOL    HW210416   1.878   3.748   1.580
 3348SOL     OW10417   2.820   2.189   6.474
 3348SOL    HW110418   2.774   2.226   6.394
 3348SOL    HW210419   2.915   2.167   6.451
 3349SOL     OW10420   3.655   2.466   1.912
 3349SOL    HW110421   3.653   2.544   1.849
 3349SOL    HW210422   3.641   2.381   1.861
 3350SOL     OW10423   3.270   3.056   0.474
 3350SOL    HW110424   3.363   3.056   0.438
 3350SOL    HW210425   3.218   3.131   0.432
 3351SOL     OW10426   2.147   1.923   0.948
 3351SOL    HW110427   2.176   1.894   1.039
 3351SOL    HW210428   2.105   2.013   0.954
 3352SOL     OW10429   2.862   3.330   0.443
 3352SOL    HW110430   2.831   3.415   0.401
 3352SOL    HW210431   2.868   3.343   0.542
 3353SOL     OW10432   2.213   3.682   0.877
 3353SOL    HW110433   2.254   3.592   0.892
 3353SOL    HW210434   2.278   3.753   0.904
 3354SOL     OW10435   3.673   2.965   0.858
 3354SOL    HW110436   3.690   2.914   0.773
 3354SOL    HW210437   3.575   2.965   0.878
 3355SOL     OW10438   3.072   3.439   1.531
 3355SOL    HW110439   3.074   3.370   1.604
 3355SOL    HW210440   2.999   3.416   1.466
 3356SOL     OW10441   2.111   2.803   0.197
 3356SOL    HW110442   2.208   2.818   0.179
 3356SOL    HW210443   2.092   2.705   0.194
 3357SOL     OW10444   3.437   2.845   0.645
 3357SOL    HW110445   3.415   2.902   0.565
 3357SOL    HW210446   3.533   2.819   0.641
 3358SOL     OW10447   2.265   3.165   1.772
 3358SOL    HW110448   2.262   3.143   1.675
 3358SOL    HW210449   2.172   3.163   1.809
 3359SOL     OW10450   2.978   3.659   0.182
 3359SOL    HW110451   2.909   3.612   0.237
 3359SOL    HW210452   3.012   3.596   0.111
 3360SOL     OW10453   1.922   2.075   1.564
 3360SOL    HW110454   1.841   2.128   1.589
 3360SOL    HW210455   1.912   1.982   1.598
 3361SOL     OW10456   3.517   3.233   0.107
 3361SOL    HW110457   3.480   3.324   0.125
 3361SOL    HW210458   3.443   3.170   0.085
 3362SOL     OW10459   2.327   3.598   0.345
 3362SOL    HW110460   2.363   3.678   0.394
 3362SOL    HW210461   2.393   3.568   0.276
 3363SOL     OW10462   3.313   1.976   0.359
 3363SOL    HW110463   3.330   1.932   0.271
 3363SOL    HW210464   3.380   2.049   0.373
 3364SOL     OW10465   2.068   3.619   1.183
 3364SOL    HW110466   2.120   3.535   1.168
 3364SOL    HW210467   2.018   3.643   1.100
 3365SOL     OW10468   2.816   3.604   0.836
 3365SOL    HW110469   2.907   3.564   0.847
 3365SOL    HW210470   2.767   3.556   0.763
 3366SOL     OW10471   2.111   2.637   0.482
 3366SOL    HW110472   2.144   2.543   0.481
 3366SOL    HW210473   2.016   2.639   0.511
 3367SOL     OW10474   3.497   1.998   1.776
 3367SOL    HW110475   3.446   2.033   1.855
 3367SOL    HW210476   3.530   1.906   1.797
 3368SOL     OW10477   2.700   2.029   2.019
 3368SOL    HW110478   2.786   1.990   1.983
 3368SOL    HW210479   2.625   1.967   1.998
 3369SOL     OW10480   2.715   3.519   1.177
 3369SOL    HW110481   2.658   3.558   1.105
 3369SOL    HW210482   2.742   3.426   1.152
 3370SOL     OW10483   3.378   2.536   1.677
 3370SOL    HW110484   3.358   2.462   1.740
 3370SOL    HW210485   3.343   2.513   1.586
 3371SOL     OW10486   2.675   3.287   0.834
 3371SOL    HW110487   2.754   3.320   0.782
 3371SOL    HW210488   2.591   3.309   0.784
 3372SOL     OW10489   2.336   2.012   0.414
 3372SOL    HW110490   2.296   2.029   0.503
 3372SOL    HW210491   2.399   2.087   0.391
 3373SOL     OW10492   3.307   3.067   0.055
 3373SOL    HW110493   3.356   2.989   0.091
 3373SOL    HW210494   3.208   3.049   0.057
 3374SOL     OW10495   2.146   2.026   0.215
 3374SOL    HW110496   2.174   1.985   0.127
 3374SOL    HW210497   2.218   2.011   0.283
 3375SOL     OW10498   2.853   2.093   0.229
 3375SOL    HW110499   2.834   2.144   0.145
 3375SOL    HW210500   2.946   2.115   0.260
 3376SOL     OW10501   2.960   2.581   1.288
 3376SOL    HW110502   2.906   2.506   1.327
 3376SOL    HW210503   2.992   2.641   1.361
 3377SOL     OW10504   3.084   3.520   0.809
 3377SOL    HW110505   3.096   3.577   0.727
 3377SOL    HW210506   3.160   3.537   0.872
 3378SOL     OW10507   2.287   3.047   0.648
 3378SOL    HW110508   2.227   3.026   0.725
 3378SOL    HW210509   2.236   3.034   0.562
 3379SOL     OW10510   3.109   3.691   0.599
 3379SOL    HW110511   3.168   3.747   0.541
 3379SOL    HW210512   3.039   3.748   0.640
 3380SOL     OW10513   2.822   2.611   6.461
 3380SOL    HW110514   2.734   2.568   6.482
 3380SOL    HW210515   2.888   2.589   0.033
 3381SOL     OW10516   1.867   2.426   1.401
 3381SOL    HW110517   1.962   2.397   1.391
 3381SOL    HW210518   1.860   2.491   1.477
 3382SOL     OW10519   2.176   1.856   1.217
 3382SOL    HW110520   2.234   1.809   1.283
 3382SOL    HW210521   2.130   1.933   1.261
 3383SOL     OW10522   2.707   2.377   0.296
 3383SOL    HW110523   2.703   2.412   0.390
 3383SOL    HW210524   2.647   2.297   0.288
 3384SOL     OW10525   3.034   1.673   0.636
 3384SOL    HW110526   2.993   1.657   0.546
 3384SOL    HW210527   2.966   1.658   0.707
 3385SOL     OW10528   3.252   3.127   0.762
 3385SOL    HW110529   3.303   3.057   0.813
 3385SOL    HW210530   3.254   3.105   0.665
 3386SOL     OW10531   3.709   2.465   0.943
 3386SOL    HW110532   3.661   2.519   1.013
 3386SOL    HW210533   3.760   2.392   0.987
 3387SOL     OW10534   3.768   2.688   0.381
 3387SOL    HW110535   3.826   2.629   0.437
 3387SOL    HW210536   3.740   2.638   0.299
 3388SOL     OW10537   2.351   3.347   0.085
 3388SOL    HW110538   2.282   3.293   0.132
 3388SOL    HW210539   2.360   3.317   6.491
 3389SOL     OW10540   3.604   3.193   0.608
 3389SOL    HW110541   3.696   3.185   0.646
 3389SOL    HW210542   3.560   3.274   0.646
 3390SOL     OW10543   3.352   2.502   0.010
 3390SOL    HW110544   3.295   2.460   0.080
 3390SOL    HW210545   3.408   2.433   6.465
 3391SOL     OW10546   2.499   2.195   0.275
 3391SOL    HW110547   2.518   2.143   0.191
 3391SOL    HW210548   2.420   2.254   0.260
 3392SOL     OW10549   3.620   3.162   1.554
 3392SOL    HW110550   3.693   3.096   1.536
 3392SOL    HW210551   3.661   3.249   1.583
 3393SOL     OW10552   2.887   3.253   1.430
 3393SOL    HW110553   2.787   3.251   1.429
 3393SOL    HW210554   2.920   3.224   1.520
 3394SOL     OW10555   3.539   3.575   1.663
 3394SOL    HW110556   3.512   3.605   1.572
 3394SOL    HW210557   3.609   3.505   1.657
 3395SOL     OW10558   3.001   3.232   1.189
 3395SOL    HW110559   2.970   3.232   1.284
 3395SOL    HW210560   2.921   3.230   1.128
 3396SOL     OW10561   3.549   2.988   1.180
 3396SOL    HW110562   3.614   3.059   1.210
 3396SOL    HW210563   3.496   3.022   1.103
 3397SOL     OW10564   2.740   2.068   1.152
 3397SOL    HW110565   2.736   1.970   1.134
 3397SOL    HW210566   2.812   2.087   1.219
 3398SOL     OW10567   2.748   2.889   1.857
 3398SOL    HW110568   2.663   2.941   1.846
 3398SOL    HW210569   2.812   2.915   1.785
 3399SOL     OW10570   2.604   2.972   0.302
 3399SOL    HW110571   2.561   2.947   0.389
 3399SOL    HW210572   2.701   2.945   0.305
 3400SOL     OW10573   2.145   2.639   1.465
 3400SOL    HW110574   2.214   2.659   1.534
 3400SOL    HW210575   2.153   2.544   1.435
 3401SOL     OW10576   3.170   2.462   1.148
 3401SOL    HW110577   3.096   2.513   1.191
 3401SOL    HW210578   3.159   2.463   1.049
 3402SOL     OW10579   1.971   3.439   1.381
 3402SOL    HW110580   1.976   3.518   1.321
 3402SOL    HW210581   2.063   3.407   1.403
 3403SOL     OW10582   2.150   2.994   0.419
 3403SOL    HW110583   2.163   3.065   0.350
 3403SOL    HW210584   2.136   2.906   0.375
 3404SOL     OW10585   2.108   2.504   0.756
 3404SOL    HW110586   2.027   2.522   0.701
 3404SOL    HW210587   2.177   2.459   0.700
 3405SOL     OW10588   3.120   3.267   0.375
 3405SOL    HW110589   3.179   3.336   0.415
 3405SOL    HW210590   3.024   3.291   0.392
 3406SOL     OW10591   3.185   3.420   1.146
 3406SOL    HW110592   3.234   3.432   1.232
 3406SOL    HW210593   3.111   3.355   1.158
 3407SOL     OW10594   3.534   2.445   0.397
 3407SOL    HW110595   3.579   2.468   0.483
 3407SOL    HW210596   3.455   2.505   0.384
 3408SOL     OW10597   2.231   3.337   1.356
 3408SOL    HW110598   2.199   3.332   1.261
 3408SOL    HW210599   2.314   3.392   1.361
 3409SOL     OW10600   2.321   2.686   1.666
 3409SOL    HW110601   2.370   2.769   1.642
 3409SOL    HW210602   2.378   2.629   1.725
 3410SOL     OW10603   3.617   2.653   1.714
 3410SOL    HW110604   3.528   2.609   1.702
 3410SOL    HW210605   3.651   2.685   1.626
 3411SOL     OW10606   2.943   1.945   1.921
 3411SOL    HW110607   2.990   2.033   1.922
 3411SOL    HW210608   2.994   1.880   1.864
 3412SOL     OW10609   2.275   1.893   1.796
 3412SOL    HW110610   2.192   1.838   1.809
 3412SOL    HW210611   2.254   1.989   1.815
 3413SOL     OW10612   2.365   3.134   0.967
 3413SOL    HW110613   2.403   3.179   0.885
 3413SOL    HW210614   2.287   3.078   0.940
 3414SOL     OW10615   3.400   2.932   0.897
 3414SOL    HW110616   3.407   2.889   0.807
 3414SOL    HW210617   3.361   2.867   0.962
 3415SOL     OW10618   3.174   2.408   0.193
 3415SOL    HW110619   3.160   2.312   0.216
 3415SOL    HW210620   3.088   2.457   0.200
 3416SOL     OW10621   2.001   2.062   1.296
 3416SOL    HW110622   1.998   2.075   1.395
 3416SOL    HW210623   1.908   2.043   1.262
 3417SOL     OW10624   1.925   3.188   1.270
 3417SOL    HW110625   1.947   3.121   1.341
 3417SOL    HW210626   1.930   3.280   1.308
 3418SOL     OW10627   2.627   2.475   1.029
 3418SOL    HW110628   2.674   2.431   0.952
 3418SOL    HW210629   2.677   2.557   1.057
 3419SOL     OW10630   3.659   2.883   1.854
 3419SOL    HW110631   3.641   2.798   1.806
 3419SOL    HW210632   3.589   2.898   1.924
 3420SOL     OW10633   2.195   2.005   0.657
 3420SOL    HW110634   2.127   2.078   0.669
 3420SOL    HW210635   2.225   1.972   0.747
 3421SOL     OW10636   3.500   2.176   0.364
 3421SOL    HW110637   3.570   2.129   0.418
 3421SOL    HW210638   3.509   2.275   0.375
 3422SOL     OW10639   2.767   3.443   1.687
 3422SOL    HW110640   2.768   3.491   1.600
 3422SOL    HW210641   2.836   3.370   1.687
 3423SOL     OW10642   3.746   3.402   1.594
 3423SOL    HW110643   3.764   3.408   1.496
 3423SOL    HW210644   3.832   3.407   1.645
 3424SOL     OW10645   2.167   2.821   1.847
 3424SOL    HW110646   2.233   2.840   1.920
 3424SOL    HW210647   2.210   2.762   1.779
 3425SOL     OW10648   3.476   2.123   0.096
 3425SOL    HW110649   3.437   2.031   0.095
 3425SOL    HW210650   3.487   2.153   0.190
 3426SOL     OW10651   3.168   2.712   0.006
 3426SOL    HW110652   3.233   2.636   0.009
 3426SOL    HW210653   3.159   2.744   6.412
 3427SOL     OW10654   2.921   3.324   0.713
 3427SOL    HW110655   2.960   3.232   0.703
 3427SOL    HW210656   2.990   3.385   0.753
 3428SOL     OW10657   2.096   2.734   0.903
 3428SOL    HW110658   2.122   2.658   0.844
 3428SOL    HW210659   2.113   2.709   0.998
 3429SOL     OW10660   2.011   2.442   1.008
 3429SOL    HW110661   2.016   2.343   1.022
 3429SOL    HW210662   2.050   2.465   0.918
 3430SOL     OW10663   3.049   2.204   1.920
 3430SOL    HW110664   2.984   2.278   1.938
 3430SOL    HW210665   3.132   2.242   1.879
 3431SOL     OW10666   2.930   2.138   1.333
 3431SOL    HW110667   2.895   2.224   1.372
 3431SOL    HW210668   3.023   2.152   1.299
 3432SOL     OW10669   1.888   3.136   0.140
 3432SOL    HW110670   1.797   3.169   0.114
 3432SOL    HW210671   1.878   3.058   0.203
 3433SOL     OW10672   1.944   3.640   0.936
 3433SOL    HW110673   1.912   3.554   0.896
 3433SOL    HW210674   2.036   3.660   0.903
 3434SOL     OW10675   2.356   3.455   0.923
 3434SOL    HW110676   2.439   3.503   0.948
 3434SOL    HW210677   2.375   3.391   0.848
 3435SOL     OW10678   2.843   2.664   1.058
 3435SOL    HW110679   2.888   2.630   1.141
 3435SOL    HW210680   2.834   2.763   1.063
 3436SOL     OW10681   1.835   2.570   1.173
 3436SOL    HW110682   1.895   2.532   1.103
 3436SOL    HW210683   1.845   2.517   1.258
 3437SOL     OW10684   1.994   2.424   1.765
 3437SOL    HW110685   2.050   2.370   1.701
 3437SOL    HW210686   1.951   2.499   1.716
 3438SOL     OW10687   3.311   2.803   1.761
 3438SOL    HW110688   3.348   2.881   1.711
 3438SOL    HW210689   3.339   2.718   1.716
 3439SOL     OW10690   2.598   2.496   0.075
 3439SOL    HW110691   2.646   2.447   0.148
 3439SOL    HW210692   2.518   2.541   0.113
 3440SOL     OW10693   3.687   2.547   1.217
 3440SOL    HW110694   3.652   2.546   1.311
 3440SOL    HW210695   3.739   2.463   1.201
 3441SOL     OW10696   2.084   3.419   1.719
 3441SOL    HW110697   2.054   3.496   1.775
 3441SOL    HW210698   2.065   3.333   1.767
 3442SOL     OW10699   2.615   2.300   1.237
 3442SOL    HW110700   2.646   2.212   1.201
 3442SOL    HW210701   2.603   2.364   1.162
 3443SOL     OW10702   2.778   3.572   1.447
 3443SOL    HW110703   2.758   3.537   1.355
 3443SOL    HW210704   2.781   3.672   1.444
 3444SOL     OW10705   2.279   2.352   0.238
 3444SOL    HW110706   2.309   2.445   0.218
 3444SOL    HW210707   2.203   2.327   0.177
 3445SOL     OW10708   1.974   2.998   1.471
 3445SOL    HW110709   1.968   2.962   1.564
 3445SOL    HW210710   1.974   2.921   1.406
 3446SOL     OW10711   3.236   3.114   1.292
 3446SOL    HW110712   3.320   3.168   1.285
 3446SOL    HW210713   3.166   3.155   1.234
 3447SOL     OW10714   3.240   2.726   0.281
 3447SOL    HW110715   3.169   2.764   0.340
 3447SOL    HW210716   3.201   2.701   0.193
 3448SOL     OW10717   3.667   3.596   1.186
 3448SOL    HW110718   3.724   3.630   1.110
 3448SOL    HW210719   3.614   3.517   1.155
 3449SOL     OW10720   3.148   3.685   1.086
 3449SOL    HW110721   3.209   3.693   1.007
 3449SOL    HW210722   3.152   3.592   1.123
 3450SOL     OW10723   1.948   3.169   1.002
 3450SOL    HW110724   1.938   3.177   1.101
 3450SOL    HW210725   1.877   3.109   0.967
 3451SOL     OW10726   2.539   3.553   1.794
 3451SOL    HW110727   2.505   3.643   1.765
 3451SOL    HW210728   2.629   3.538   1.753
 3452SOL     OW10729   3.092   2.000   6.496
 3452SOL    HW110730   3.053   2.002   6.404
 3452SOL    HW210731   3.044   1.932   0.051
 3453SOL     OW10732   3.684   2.025   0.501
 3453SOL    HW110733   3.750   2.018   0.426
 3453SOL    HW210734   3.635   1.938   0.509
 3454SOL     OW10735   3.263   3.467   0.502
 3454SOL    HW110736   3.330   3.498   0.434
 3454SOL    HW210737   3.207   3.545   0.531
 3455SOL     OW10738   1.994   3.636   1.863
 3455SOL    HW110739   1.944   3.567   1.915
 3455SOL    HW210740   2.051   3.690   1.925
 3456SOL     OW10741   3.083   2.859   0.474
 3456SOL    HW110742   3.101   2.794   0.548
 3456SOL    HW210743   3.157   2.927   0.472
 3457SOL     OW10744   2.616   3.233   1.439
 3457SOL    HW110745   2.557   3.278   1.507
 3457SOL    HW210746   2.565   3.223   1.353
 3458SOL     OW10747   2.531   3.524   0.175
 3458SOL    HW110748   2.524   3.605   0.118
 3458SOL    HW210749   2.472   3.452   0.140
 3459SOL     OW10750   3.488   3.657   1.406
 3459SOL    HW110751   3.546   3.644   1.325
 3459SOL    HW210752   3.461   3.753   1.412
 3460SOL     OW10753   3.739   1.983   0.976
 3460SOL    HW110754   3.779   1.891   0.972
 3460SOL    HW210755   3.673   1.993   0.902
 3461SOL     OW10756   2.023   2.205   0.722
 3461SOL    HW110757   1.933   2.240   0.695
 3461SOL    HW210758   2.034   2.214   0.821
 3462SOL     OW10759   3.105   3.510   6.491
 3462SOL    HW110760   3.068   3.419   0.011
 3462SOL    HW210761   3.097   3.528   6.393
 3463SOL     OW10762   2.681   2.996   1.552
 3463SOL    HW110763   2.595   2.947   1.565
 3463SOL    HW210764   2.664   3.084   1.507
 3464SOL     OW10765   2.878   2.920   0.293
 3464SOL    HW110766   2.925   2.940   0.207
 3464SOL    HW210767   2.945   2.894   0.362
 3465SOL     OW10768   3.363   3.492   0.068
 3465SOL    HW110769   3.264   3.492   0.054
 3465SOL    HW210770   3.409   3.458   6.486
 3466SOL     OW10771   2.233   3.106   1.509
 3466SOL    HW110772   2.243   3.188   1.453
 3466SOL    HW210773   2.145   3.063   1.489
 3467SOL     OW10774   3.473   3.256   1.333
 3467SOL    HW110775   3.526   3.219   1.410
 3467SOL    HW210776   3.415   3.330   1.365
 3468SOL     OW10777   2.937   3.075   0.576
 3468SOL    HW110778   2.921   3.138   0.500
 3468SOL    HW210779   2.987   2.995   0.543
 3469SOL     OW10780   2.465   3.402   0.489
 3469SOL    HW110781   2.513   3.344   0.423
 3469SOL    HW210782   2.399   3.460   0.440
 3470SOL     OW10783   3.679   2.232   1.453
 3470SOL    HW110784   3.748   2.305   1.455
 3470SOL    HW210785   3.689   2.180   1.368
 3471SOL     OW10786   2.149   3.204   0.227
 3471SOL    HW110787   2.062   3.184   0.184
 3471SOL    HW210788   2.133   3.253   0.313
 3472SOL     OW10789   1.943   2.923   1.733
 3472SOL    HW110790   1.858   2.893   1.778
 3472SOL    HW210791   2.021   2.880   1.778
 3473SOL     OW10792   2.465   1.780   1.632
 3473SOL    HW110793   2.521   1.858   1.605
 3473SOL    HW210794   2.389   1.811   1.689
 3474SOL     OW10795   3.460   2.898   1.443
 3474SOL    HW110796   3.415   2.963   1.504
 3474SOL    HW210797   3.462   2.935   1.350
 3475SOL     OW10798   1.887   1.988   0.291
 3475SOL    HW110799   1.836   2.034   0.218
 3475SOL    HW210800   1.985   1.994   0.272
 3476SOL     OW10801   3.007   3.277   0.086
 3476SOL    HW110802   2.907   3.275   0.096
 3476SOL    HW210803   3.049   3.245   0.170
 3477SOL     OW10804   2.423   2.932   1.620
 3477SOL    HW110805   2.359   2.989   1.569
 3477SOL    HW210806   2.452   2.981   1.703
 3478SOL     OW10807   3.328   3.668   0.881
 3478SOL    HW110808   3.362   3.762   0.875
 3478SOL    HW210809   3.390   3.607   0.831
 3479SOL     OW10810   2.467   2.542   1.847
 3479SOL    HW110811   2.555   2.568   1.886
 3479SOL    HW210812   2.434   2.459   1.892
 3480SOL     OW10813   3.387   3.065   1.664
 3480SOL    HW110814   3.369   3.097   1.757
 3480SOL    HW210815   3.475   3.102   1.633
 3481SOL     OW10816   2.217   3.640   1.605
 3481SOL    HW110817   2.132   3.693   1.595
 3481SOL    HW210818   2.195   3.546   1.629
 3482SOL     OW10819   3.757   2.807   1.202
 3482SOL    HW110820   3.731   2.711   1.187
 3482SOL    HW210821   3.680   2.866   1.180
 3483SOL     OW10822   3.125   2.140   0.236
 3483SOL    HW110823   3.123   2.097   0.146
 3483SOL    HW210824   3.185   2.088   0.297
 3484SOL     OW10825   2.379   2.686   0.458
 3484SOL    HW110826   2.422   2.765   0.502
 3484SOL    HW210827   2.282   2.685   0.480
 3485SOL     OW10828   3.625   2.240   1.731
 3485SOL    HW110829   3.636   2.251   1.632
 3485SOL    HW210830   3.573   2.157   1.750
 3486SOL     OW10831   3.688   2.757   1.467
 3486SOL    HW110832   3.601   2.806   1.470
 3486SOL    HW210833   3.734   2.776   1.380
 3487SOL     OW10834   2.736   3.291   0.076
 3487SOL    HW110835   2.674   3.309   0.152
 3487SOL    HW210836   2.706   3.343   6.495
 3488SOL     OW10837   2.574   3.624   0.968
 3488SOL    HW110838   2.524   3.709   0.950
 3488SOL    HW210839   2.659   3.624   0.916
 3489SOL     OW10840   2.688   3.061   0.681
 3489SOL    HW110841   2.783   3.061   0.649
 3489SOL    HW210842   2.677   3.130   0.752
 3490SOL     OW10843   3.042   2.947   0.072
 3490SOL    HW110844   3.003   2.976   6.485
 3490SOL    HW210845   3.088   2.859   0.061
 3491SOL     OW10846   3.683   3.423   0.862
 3491SOL    HW110847   3.609   3.421   0.795
 3491SOL    HW210848   3.650   3.388   0.949
 3492SOL     OW10849   2.001   3.175   1.828
 3492SOL    HW110850   1.976   3.091   1.781
 3492SOL    HW210851   1.950   3.181   1.914
 3493SOL     OW10852   1.981   3.099   0.624
 3493SOL    HW110853   2.022   3.066   0.709
 3493SOL    HW210854   2.022   3.051   0.546
 3494SOL     OW10855   2.454   3.337   1.637
 3494SOL    HW110856   2.371   3.301   1.680
 3494SOL    HW210857   2.483   3.419   1.687
 3495SOL     OW10858   3.728   2.066   1.235
 3495SOL    HW110859   3.733   1.982   1.289
 3495SOL    HW210860   3.722   2.043   1.138
 3496SOL     OW10861   2.188   2.372   0.507
 3496SOL    HW110862   2.223   2.353   0.416
 3496SOL    HW210863   2.137   2.293   0.540
 3497SOL     OW10864   3.546   3.364   1.094
 3497SOL    HW110865   3.467   3.351   1.036
 3497SOL    HW210866   3.532   3.318   1.182
 3498SOL     OW10867   2.133   2.375   1.396
 3498SOL    HW110868   2.144   2.321   1.479
 3498SOL    HW210869   2.196   2.341   1.326
 3499SOL     OW10870   2.667   3.519   0.628
 3499SOL    HW110871   2.676   3.610   0.587
 3499SOL    HW210872   2.594   3.469   0.582
 3500SOL     OW10873   3.175   2.205   1.225
 3500SOL    HW110874   3.263   2.177   1.262
 3500SOL    HW210875   3.178   2.302   1.202
 3501SOL     OW10876   3.010   1.525   1.317
 3501SOL    HW110877   2.939   1.500   1.251
 3501SOL    HW210878   3.095   1.545   1.268
 3502SOL     OW10879   2.621   3.246   0.332
 3502SOL    HW110880   2.606   3.148   0.321
 3502SOL    HW210881   2.711   3.261   0.374
 3503SOL     OW10882   2.458   3.487   1.295
 3503SOL    HW110883   2.433   3.573   1.341
 3503SOL    HW210884   2.554   3.492   1.266
 3504SOL     OW10885   3.338   1.888   0.100
 3504SOL    HW110886   3.372   1.796   0.080
 3504SOL    HW210887   3.258   1.907   0.043
 3505SOL     OW10888   3.115   2.424   0.880
 3505SOL    HW110889   3.021   2.447   0.856
 3505SOL    HW210890   3.122   2.325   0.897
 3506SOL     OW10891   3.579   1.988   0.761
 3506SOL    HW110892   3.494   1.939   0.743
 3506SOL    HW210893   3.625   2.007   0.674
 3507SOL     OW10894   1.871   2.903   0.297
 3507SOL    HW110895   1.960   2.875   0.260
 3507SOL    HW210896   1.819   2.822   0.323
 3508SOL     OW10897   2.762   3.557   0.323
 3508SOL    HW110898   2.683   3.536   0.265
 3508SOL    HW210899   2.739   3.630   0.386
 3509SOL     OW10900   2.064   2.437   2.027
 3509SOL    HW110901   1.975   2.428   2.072
 3509SOL    HW210902   2.050   2.451   1.929
 3510SOL     OW10903   2.062   2.139   2.862
 3510SOL    HW110904   2.109   2.109   2.944
 3510SOL    HW210905   1.972   2.094   2.855
 3511SOL     OW10906   1.831   2.295   2.508
 3511SOL    HW110907   1.745   2.314   2.555
 3511SOL    HW210908   1.817   2.225   2.439
 3512SOL     OW10909   2.416   3.183   3.092
 3512SOL    HW110910   2.354   3.160   3.167
 3512SOL    HW210911   2.415   3.282   3.078
 3513SOL     OW10912   2.945   2.565   2.624
 3513SOL    HW110913   3.007   2.637   2.594
 3513SOL    HW210914   2.935   2.568   2.724
 3514SOL     OW10915   3.525   2.482   2.151
 3514SOL    HW110916   3.574   2.488   2.063
 3514SOL    HW210917   3.513   2.386   2.175
 3515SOL     OW10918   2.765   2.583   3.710
 3515SOL    HW110919   2.760   2.639   3.793
 3515SOL    HW210920   2.780   2.642   3.631
 3516SOL     OW10921   2.347   2.209   3.314
 3516SOL    HW110922   2.426   2.151   3.333
 3516SOL    HW210923   2.266   2.171   3.359
 3517SOL     OW10924   3.477   2.300   2.624
 3517SOL    HW110925   3.440   2.335   2.539
 3517SOL    HW210926   3.435   2.348   2.701
 3518SOL     OW10927   2.111   3.615   2.406
 3518SOL    HW110928   2.151   3.684   2.466
 3518SOL    HW210929   2.171   3.600   2.328
 3519SOL     OW10930   2.070   3.335   2.416
 3519SOL    HW110931   2.072   3.433   2.437
 3519SOL    HW210932   2.022   3.286   2.489
 3520SOL     OW10933   2.388   3.707   3.225
 3520SOL    HW110934   2.310   3.686   3.283
 3520SOL    HW210935   2.445   3.776   3.270
 3521SOL     OW10936   2.375   2.877   2.036
 3521SOL    HW110937   2.413   2.930   1.960
 3521SOL    HW210938   2.431   2.890   2.117
 3522SOL     OW10939   3.439   2.003   3.317
 3522SOL    HW110940   3.493   2.079   3.282
 3522SOL    HW210941   3.398   2.029   3.404
 3523SOL     OW10942   1.940   2.552   2.448
 3523SOL    HW110943   1.905   2.462   2.473
 3523SOL    HW210944   1.948   2.608   2.531
 3524SOL     OW10945   3.707   3.663   2.197
 3524SOL    HW110946   3.792   3.649   2.249
 3524SOL    HW210947   3.715   3.746   2.142
 3525SOL     OW10948   1.896   3.438   2.018
 3525SOL    HW110949   1.872   3.343   2.037
 3525SOL    HW210950   1.898   3.489   2.104
 3526SOL     OW10951   3.606   2.707   2.590
 3526SOL    HW110952   3.693   2.674   2.627
 3526SOL    HW210953   3.613   2.714   2.491
 3527SOL     OW10954   3.572   3.055   2.245
 3527SOL    HW110955   3.656   3.007   2.221
 3527SOL    HW210956   3.564   3.138   2.189
 3528SOL     OW10957   1.986   2.608   3.412
 3528SOL    HW110958   2.075   2.649   3.429
 3528SOL    HW210959   1.918   2.679   3.395
 3529SOL     OW10960   2.702   1.885   2.388
 3529SOL    HW110961   2.752   1.967   2.359
 3529SOL    HW210962   2.604   1.903   2.386
 3530SOL     OW10963   2.080   2.797   3.149
 3530SOL    HW110964   2.165   2.744   3.144
 3530SOL    HW210965   2.018   2.768   3.076
 3531SOL     OW10966   3.447   2.909   2.041
 3531SOL    HW110967   3.370   2.846   2.048
 3531SOL    HW210968   3.476   2.936   2.133
 3532SOL     OW10969   2.208   2.130   3.747
 3532SOL    HW110970   2.244   2.212   3.792
 3532SOL    HW210971   2.110   2.139   3.733
 3533SOL     OW10972   2.412   2.576   2.176
 3533SOL    HW110973   2.406   2.655   2.114
 3533SOL    HW210974   2.331   2.575   2.235
 3534SOL     OW10975   3.139   2.226   2.827
 3534SOL    HW110976   3.051   2.179   2.830
 3534SOL    HW210977   3.203   2.180   2.889
 3535SOL     OW10978   3.477   3.527   2.119
 3535SOL    HW110979   3.551   3.582   2.157
 3535SOL    HW210980   3.451   3.562   2.029
 3536SOL     OW10981   2.644   2.441   3.308
 3536SOL    HW110982   2.629   2.410   3.401
 3536SOL    HW210983   2.623   2.366   3.244
 3537SOL     OW10984   3.249   2.324   3.555
 3537SOL    HW110985   3.250   2.361   3.647
 3537SOL    HW210986   3.297   2.236   3.554
 3538SOL     OW10987   2.810   2.737   3.482
 3538SOL    HW110988   2.862   2.666   3.436
 3538SOL    HW210989   2.749   2.782   3.417
 3539SOL     OW10990   2.872   2.224   3.074
 3539SOL    HW110991   2.776   2.237   3.099
 3539SOL    HW210992   2.878   2.165   2.994
 3540SOL     OW10993   2.842   2.542   2.372
 3540SOL    HW110994   2.870   2.545   2.468
 3540SOL    HW210995   2.753   2.497   2.364
 3541SOL     OW10996   1.955   2.726   2.661
 3541SOL    HW110997   2.041   2.704   2.707
 3541SOL    HW210998   1.907   2.798   2.711
 3542SOL     OW10999   1.935   3.767   3.437
 3542SOL    HW111000   1.950   3.722   3.526
 3542SOL    HW211001   1.837   3.772   3.419
 3543SOL     OW11002   2.723   2.265   2.136
 3543SOL    HW111003   2.783   2.322   2.079
 3543SOL    HW211004   2.706   2.178   2.090
 3544SOL     OW11005   3.626   2.431   3.662
 3544SOL    HW111006   3.561   2.496   3.621
 3544SOL    HW211007   3.618   2.343   3.615
 3545SOL     OW11008   2.423   1.993   2.800
 3545SOL    HW111009   2.433   2.011   2.898
 3545SOL    HW211010   2.426   2.079   2.750
 3546SOL     OW11011   2.143   2.813   2.185
 3546SOL    HW111012   2.219   2.842   2.126
 3546SOL    HW211013   2.127   2.715   2.171
 3547SOL     OW11014   3.349   2.610   2.622
 3547SOL    HW111015   3.340   2.551   2.702
 3547SOL    HW211016   3.443   2.644   2.617
 3548SOL     OW11017   3.007   3.654   2.085
 3548SOL    HW111018   2.907   3.661   2.093
 3548SOL    HW211019   3.030   3.617   1.995
 3549SOL     OW11020   2.076   2.145   3.367
 3549SOL    HW111021   2.001   2.200   3.329
 3549SOL    HW211022   2.039   2.060   3.405
 3550SOL     OW11023   3.548   3.265   2.064
 3550SOL    HW111024   3.521   3.358   2.089
 3550SOL    HW211025   3.480   3.225   2.003
 3551SOL     OW11026   2.314   3.628   2.208
 3551SOL    HW111027   2.366   3.690   2.267
 3551SOL    HW211028   2.377   3.572   2.155
 3552SOL     OW11029   3.267   1.969   2.332
 3552SOL    HW111030   3.257   1.940   2.237
 3552SOL    HW211031   3.357   1.942   2.366
 3553SOL     OW11032   2.026   3.634   3.001
 3553SOL    HW111033   2.081   3.555   3.029
 3553SOL    HW211034   2.017   3.633   2.901
 3554SOL     OW11035   2.200   2.531   2.345
 3554SOL    HW111036   2.209   2.432   2.342
 3554SOL    HW211037   2.109   2.556   2.378
 3555SOL     OW11038   3.351   2.064   3.582
 3555SOL    HW111039   3.364   2.086   3.679
 3555SOL    HW211040   3.286   1.988   3.574
 3556SOL     OW11041   2.467   1.887   1.992
 3556SOL    HW111042   2.484   1.794   2.022
 3556SOL    HW211043   2.400   1.887   1.917
 3557SOL     OW11044   2.645   2.105   3.624
 3557SOL    HW111045   2.732   2.056   3.622
 3557SOL    HW211046   2.588   2.070   3.698
 3558SOL     OW11047   2.687   3.385   3.114
 3558SOL    HW111048   2.726   3.374   3.022
 3558SOL    HW211049   2.684   3.296   3.159
 3559SOL     OW11050   3.159   2.437   3.326
 3559SOL    HW111051   3.196   2.400   3.411
 3559SOL    HW211052   3.206   2.522   3.303
 3560SOL     OW11053   2.794   2.345   2.790
 3560SOL    HW111054   2.770   2.340   2.693
 3560SOL    HW211055   2.823   2.255   2.822
 3561SOL     OW11056   2.429   1.932   2.367
 3561SOL    HW111057   2.353   1.935   2.432
 3561SOL    HW211058   2.416   2.002   2.297
 3562SOL     OW11059   3.345   3.134   1.929
 3562SOL    HW111060   3.380   3.045   1.960
 3562SOL    HW211061   3.263   3.157   1.981
 3563SOL     OW11062   2.162   1.921   2.112
 3563SOL    HW111063   2.225   1.998   2.117
 3563SOL    HW211064   2.206   1.839   2.149
 3564SOL     OW11065   2.840   2.119   2.341
 3564SOL    HW111066   2.799   2.165   2.262
 3564SOL    HW211067   2.938   2.134   2.341
 3565SOL     OW11068   2.904   2.545   3.311
 3565SOL    HW111069   2.828   2.481   3.319
 3565SOL    HW211070   2.991   2.494   3.315
 3566SOL     OW11071   3.190   3.752   2.565
 3566SOL    HW111072   3.233   3.781   2.480
 3566SOL    HW211073   3.095   3.785   2.568
 3567SOL     OW11074   2.891   2.425   1.992
 3567SOL    HW111075   2.833   2.502   1.965
 3567SOL    HW211076   2.954   2.454   2.064
 3568SOL     OW11077   1.965   2.396   3.242
 3568SOL    HW111078   2.060   2.388   3.211
 3568SOL    HW211079   1.956   2.476   3.301
 3569SOL     OW11080   2.436   2.037   3.068
 3569SOL    HW111081   2.465   1.962   3.128
 3569SOL    HW211082   2.339   2.056   3.083
 3570SOL     OW11083   2.724   2.289   2.531
 3570SOL    HW111084   2.656   2.332   2.471
 3570SOL    HW211085   2.774   2.220   2.480
 3571SOL     OW11086   2.891   1.916   2.611
 3571SOL    HW111087   2.829   1.922   2.532
 3571SOL    HW211088   2.864   1.838   2.667
 3572SOL     OW11089   3.332   2.430   2.833
 3572SOL    HW111090   3.255   2.366   2.832
 3572SOL    HW211091   3.392   2.407   2.909
 3573SOL     OW11092   3.661   2.678   2.300
 3573SOL    HW111093   3.735   2.624   2.338
 3573SOL    HW211094   3.606   2.621   2.239
 3574SOL     OW11095   2.318   3.280   2.025
 3574SOL    HW111096   2.246   3.252   2.088
 3574SOL    HW211097   2.296   3.246   1.933
 3575SOL     OW11098   3.262   2.495   2.060
 3575SOL    HW111099   3.194   2.464   2.126
 3575SOL    HW211100   3.352   2.496   2.103
 3576SOL     OW11101   2.369   2.101   2.154
 3576SOL    HW111102   2.424   2.042   2.094
 3576SOL    HW211103   2.364   2.193   2.116
 3577SOL     OW11104   3.546   3.608   3.619
 3577SOL    HW111105   3.536   3.656   3.532
 3577SOL    HW211106   3.643   3.602   3.642
 3578SOL     OW11107   3.548   2.858   2.825
 3578SOL    HW111108   3.549   2.795   2.902
 3578SOL    HW211109   3.562   2.808   2.740
 3579SOL     OW11110   2.791   1.911   3.256
 3579SOL    HW111111   2.810   1.884   3.161
 3579SOL    HW211112   2.870   1.960   3.292
 3580SOL     OW11113   2.855   3.008   3.517
 3580SOL    HW111114   2.772   3.038   3.470
 3580SOL    HW211115   2.859   2.908   3.518
 3581SOL     OW11116   2.545   2.908   2.246
 3581SOL    HW111117   2.501   2.882   2.332
 3581SOL    HW211118   2.626   2.851   2.231
 3582SOL     OW11119   2.306   2.641   3.137
 3582SOL    HW111120   2.369   2.656   3.213
 3582SOL    HW211121   2.270   2.548   3.142
 3583SOL     OW11122   3.126   2.220   3.164
 3583SOL    HW111123   3.145   2.301   3.220
 3583SOL    HW211124   3.034   2.226   3.127
 3584SOL     OW11125   1.949   3.425   3.297
 3584SOL    HW111126   1.879   3.486   3.261
 3584SOL    HW211127   2.030   3.429   3.238
 3585SOL     OW11128   2.126   3.006   2.383
 3585SOL    HW111129   2.134   3.084   2.321
 3585SOL    HW211130   2.134   2.921   2.332
 3586SOL     OW11131   2.401   2.348   2.754
 3586SOL    HW111132   2.408   2.394   2.665
 3586SOL    HW211133   2.473   2.382   2.815
 3587SOL     OW11134   3.143   3.200   2.110
 3587SOL    HW111135   3.172   3.293   2.134
 3587SOL    HW211136   3.116   3.151   2.193
 3588SOL     OW11137   3.385   2.437   2.403
 3588SOL    HW111138   3.343   2.501   2.468
 3588SOL    HW211139   3.433   2.488   2.332
 3589SOL     OW11140   2.152   3.410   3.110
 3589SOL    HW111141   2.132   3.323   3.067
 3589SOL    HW211142   2.251   3.427   3.107
 3590SOL     OW11143   2.273   2.620   3.500
 3590SOL    HW111144   2.349   2.651   3.444
 3590SOL    HW211145   2.288   2.525   3.528
 3591SOL     OW11146   3.457   2.614   3.554
 3591SOL    HW111147   3.359   2.629   3.560
 3591SOL    HW211148   3.489   2.637   3.462
 3592SOL     OW11149   2.879   1.970   3.626
 3592SOL    HW111150   2.932   2.053   3.612
 3592SOL    HW211151   2.933   1.890   3.600
 3593SOL     OW11152   2.349   1.919   3.643
 3593SOL    HW111153   2.292   1.860   3.586
 3593SOL    HW211154   2.299   2.002   3.666
 3594SOL     OW11155   2.440   2.716   2.912
 3594SOL    HW111156   2.470   2.810   2.929
 3594SOL    HW211157   2.388   2.683   2.992
 3595SOL     OW11158   3.203   2.625   2.997
 3595SOL    HW111159   3.106   2.616   2.975
 3595SOL    HW211160   3.256   2.566   2.937
 3596SOL     OW11161   3.050   2.442   2.229
 3596SOL    HW111162   3.074   2.350   2.260
 3596SOL    HW211163   2.972   2.475   2.282
 3597SOL     OW11164   2.166   2.057   3.105
 3597SOL    HW111165   2.141   2.095   3.194
 3597SOL    HW211166   2.136   1.962   3.100
 3598SOL     OW11167   1.946   3.184   3.140
 3598SOL    HW111168   1.980   3.108   3.196
 3598SOL    HW211169   1.923   3.261   3.198
 3599SOL     OW11170   2.585   2.470   2.923
 3599SOL    HW111171   2.664   2.445   2.867
 3599SOL    HW211172   2.553   2.560   2.896
 3600SOL     OW11173   3.553   2.829   3.702
 3600SOL    HW111174   3.517   2.738   3.681
 3600SOL    HW211175   3.607   2.824   3.786
 3601SOL     OW11176   2.193   1.936   2.516
 3601SOL    HW111177   2.146   2.023   2.535
 3601SOL    HW211178   2.203   1.885   2.601
 3602SOL     OW11179   3.455   2.229   2.225
 3602SOL    HW111180   3.525   2.170   2.265
 3602SOL    HW211181   3.400   2.270   2.298
 3603SOL     OW11182   2.937   2.564   2.904
 3603SOL    HW111183   2.878   2.607   2.972
 3603SOL    HW211184   2.903   2.473   2.883
 3604SOL     OW11185   2.852   3.574   3.549
 3604SOL    HW111186   2.803   3.580   3.463
 3604SOL    HW211187   2.904   3.489   3.552
 3605SOL     OW11188   2.143   2.725   3.718
 3605SOL    HW111189   2.103   2.641   3.756
 3605SOL    HW211190   2.200   2.702   3.639
 3606SOL     OW11191   3.372   2.103   1.995
 3606SOL    HW111192   3.312   2.027   2.020
 3606SOL    HW211193   3.402   2.150   2.078
 3607SOL     OW11194   3.208   2.756   2.003
 3607SOL    HW111195   3.223   2.658   2.015
 3607SOL    HW211196   3.237   2.783   1.911
 3608SOL     OW11197   2.180   2.658   2.800
 3608SOL    HW111198   2.276   2.683   2.817
 3608SOL    HW211199   2.167   2.561   2.824
 3609SOL     OW11200   2.161   2.387   2.868
 3609SOL    HW111201   2.111   2.301   2.863
 3609SOL    HW211202   2.249   2.378   2.822
 3610SOL     OW11203   3.000   2.207   3.562
 3610SOL    HW111204   2.944   2.254   3.629
 3610SOL    HW211205   3.088   2.254   3.552
 3611SOL     OW11206   3.020   2.038   3.343
 3611SOL    HW111207   3.003   2.099   3.421
 3611SOL    HW211208   3.067   2.088   3.271
 3612SOL     OW11209   1.856   3.159   2.062
 3612SOL    HW111210   1.764   3.184   2.032
 3612SOL    HW211211   1.856   3.064   2.094
 3613SOL     OW11212   1.974   3.632   2.728
 3613SOL    HW111213   1.914   3.553   2.717
 3613SOL    HW211214   2.024   3.649   2.643
 3614SOL     OW11215   2.764   2.654   3.102
 3614SOL    HW111216   2.822   2.621   3.177
 3614SOL    HW211217   2.690   2.588   3.086
 3615SOL     OW11218   1.901   2.462   2.981
 3615SOL    HW111219   1.983   2.452   2.925
 3615SOL    HW211220   1.921   2.438   3.076
 3616SOL     OW11221   2.049   2.378   3.556
 3616SOL    HW111222   2.084   2.310   3.491
 3616SOL    HW211223   2.019   2.459   3.506
 3617SOL     OW11224   3.202   2.720   3.544
 3617SOL    HW111225   3.239   2.813   3.557
 3617SOL    HW211226   3.189   2.703   3.447
 3618SOL     OW11227   2.595   2.426   2.313
 3618SOL    HW111228   2.637   2.361   2.251
 3618SOL    HW211229   2.535   2.487   2.262
 3619SOL     OW11230   3.505   2.387   3.036
 3619SOL    HW111231   3.500   2.315   3.105
 3619SOL    HW211232   3.601   2.414   3.022
 3620SOL     OW11233   2.601   2.261   3.105
 3620SOL    HW111234   2.540   2.183   3.094
 3620SOL    HW211235   2.580   2.330   3.036
 3621SOL     OW11236   2.721   3.578   3.308
 3621SOL    HW111237   2.711   3.516   3.231
 3621SOL    HW211238   2.740   3.670   3.274
 3622SOL     OW11239   2.319   2.351   2.038
 3622SOL    HW111240   2.374   2.416   2.090
 3622SOL    HW211241   2.223   2.380   2.038
 3623SOL     OW11242   2.053   3.000   3.327
 3623SOL    HW111243   2.024   2.968   3.417
 3623SOL    HW211244   2.062   2.922   3.265
 3624SOL     OW11245   3.142   2.704   2.274
 3624SOL    HW111246   3.111   2.610   2.261
 3624SOL    HW211247   3.152   2.749   2.185
 3625SOL     OW11248   3.659   3.598   3.020
 3625SOL    HW111249   3.728   3.642   2.962
 3625SOL    HW211250   3.660   3.499   3.004
 3626SOL     OW11251   3.100   3.711   2.939
 3626SOL    HW111252   3.157   3.787   2.969
 3626SOL    HW211253   3.148   3.660   2.867
 3627SOL     OW11254   1.840   3.204   2.877
 3627SOL    HW111255   1.874   3.193   2.971
 3627SOL    HW211256   1.826   3.114   2.836
 3628SOL     OW11257   2.498   3.531   3.460
 3628SOL    HW111258   2.461   3.614   3.502
 3628SOL    HW211259   2.577   3.555   3.403
 3629SOL     OW11260   3.653   2.072   2.327
 3629SOL    HW111261   3.709   2.053   2.247
 3629SOL    HW211262   3.609   1.987   2.358
 3630SOL     OW11263   3.206   3.458   2.153
 3630SOL    HW111264   3.300   3.492   2.144
 3630SOL    HW211265   3.142   3.533   2.136
 3631SOL     OW11266   1.992   3.632   3.665
 3631SOL    HW111267   1.941   3.556   3.705
 3631SOL    HW211268   2.041   3.681   3.737
 3632SOL     OW11269   3.126   2.742   2.541
 3632SOL    HW111270   3.209   2.698   2.576
 3632SOL    HW211271   3.126   2.739   2.441
 3633SOL     OW11272   2.644   3.132   3.228
 3633SOL    HW111273   2.614   3.172   3.315
 3633SOL    HW211274   2.568   3.131   3.163
 3634SOL     OW11275   2.493   3.480   2.048
 3634SOL    HW111276   2.501   3.515   1.955
 3634SOL    HW211277   2.426   3.406   2.050
 3635SOL     OW11278   3.708   1.996   2.857
 3635SOL    HW111279   3.738   1.906   2.826
 3635SOL    HW211280   3.620   2.018   2.815
 3636SOL     OW11281   2.073   2.174   2.581
 3636SOL    HW111282   1.989   2.221   2.556
 3636SOL    HW211283   2.080   2.167   2.681
 3637SOL     OW11284   3.103   3.540   1.857
 3637SOL    HW111285   3.047   3.460   1.877
 3637SOL    HW211286   3.068   3.587   1.776
 3638SOL     OW11287   2.677   2.860   3.275
 3638SOL    HW111288   2.714   2.807   3.198
 3638SOL    HW211289   2.671   2.956   3.249
 3639SOL     OW11290   2.760   2.748   2.213
 3639SOL    HW111291   2.835   2.793   2.164
 3639SOL    HW211292   2.797   2.680   2.277
 3640SOL     OW11293   3.370   3.614   1.882
 3640SOL    HW111294   3.281   3.574   1.861
 3640SOL    HW211295   3.431   3.601   1.804
 3641SOL     OW11296   2.257   3.185   3.320
 3641SOL    HW111297   2.207   3.271   3.323
 3641SOL    HW211298   2.192   3.109   3.331
 3642SOL     OW11299   2.900   2.074   2.842
 3642SOL    HW111300   2.900   2.041   2.747
 3642SOL    HW211301   2.892   1.996   2.904
 3643SOL     OW11302   2.589   3.366   2.407
 3643SOL    HW111303   2.616   3.298   2.339
 3643SOL    HW211304   2.490   3.382   2.400
 3644SOL     OW11305   3.639   2.210   3.259
 3644SOL    HW111306   3.708   2.282   3.254
 3644SOL    HW211307   3.672   2.129   3.211
 3645SOL     OW11308   2.106   3.207   2.184
 3645SOL    HW111309   2.017   3.192   2.141
 3645SOL    HW211310   2.095   3.264   2.265
 3646SOL     OW11311   1.976   2.895   3.573
 3646SOL    HW111312   1.887   2.903   3.617
 3646SOL    HW211313   2.037   2.840   3.630
 3647SOL     OW11314   2.562   2.030   3.370
 3647SOL    HW111315   2.644   1.997   3.323
 3647SOL    HW211316   2.587   2.064   3.461
 3648SOL     OW11317   1.915   2.179   1.884
 3648SOL    HW111318   1.833   2.147   1.838
 3648SOL    HW211319   1.930   2.276   1.863
 3649SOL     OW11320   3.275   2.677   3.263
 3649SOL    HW111321   3.250   2.669   3.167
 3649SOL    HW211322   3.373   2.694   3.271
 3650SOL     OW11323   1.910   2.022   2.119
 3650SOL    HW111324   1.899   2.084   2.041
 3650SOL    HW211325   2.005   1.992   2.124
 3651SOL     OW11326   2.953   3.325   1.958
 3651SOL    HW111327   2.859   3.307   1.987
 3651SOL    HW211328   3.016   3.275   2.016
 3652SOL     OW11329   2.490   2.667   3.335
 3652SOL    HW111330   2.549   2.747   3.324
 3652SOL    HW211331   2.545   2.584   3.331
 3653SOL     OW11332   2.616   2.378   3.566
 3653SOL    HW111333   2.661   2.439   3.631
 3653SOL    HW211334   2.630   2.283   3.594
 3654SOL     OW11335   3.338   2.954   3.587
 3654SOL    HW111336   3.316   3.037   3.638
 3654SOL    HW211337   3.420   2.912   3.625
 3655SOL     OW11338   2.184   3.647   3.402
 3655SOL    HW111339   2.100   3.701   3.398
 3655SOL    HW211340   2.162   3.554   3.432
 3656SOL     OW11341   3.568   2.676   3.034
 3656SOL    HW111342   3.490   2.613   3.033
 3656SOL    HW211343   3.653   2.625   3.021
 3657SOL     OW11344   3.106   2.197   2.343
 3657SOL    HW111345   3.167   2.117   2.341
 3657SOL    HW211346   3.112   2.241   2.432
 3658SOL     OW11347   2.421   2.492   2.523
 3658SOL    HW111348   2.489   2.467   2.453
 3658SOL    HW211349   2.336   2.519   2.478
 3659SOL     OW11350   3.602   2.187   3.534
 3659SOL    HW111351   3.614   2.195   3.435
 3659SOL    HW211352   3.520   2.133   3.554
 3660SOL     OW11353   3.555   2.711   3.312
 3660SOL    HW111354   3.636   2.734   3.365
 3660SOL    HW211355   3.578   2.706   3.215
 3661SOL     OW11356   2.665   3.283   1.942
 3661SOL    HW111357   2.607   3.349   1.989
 3661SOL    HW211358   2.690   3.319   1.852
 3662SOL     OW11359   2.668   3.726   2.752
 3662SOL    HW111360   2.590   3.788   2.741
 3662SOL    HW211361   2.677   3.669   2.670
 3663SOL     OW11362   2.948   2.853   2.051
 3663SOL    HW111363   2.888   2.874   1.975
 3663SOL    HW211364   3.039   2.830   2.017
 3664SOL     OW11365   1.940   3.114   2.555
 3664SOL    HW111366   1.908   3.051   2.626
 3664SOL    HW211367   2.010   3.069   2.499
 3665SOL     OW11368   2.509   3.254   3.429
 3665SOL    HW111369   2.418   3.222   3.404
 3665SOL    HW211370   2.506   3.351   3.450
 3666SOL     OW11371   3.729   1.993   3.130
 3666SOL    HW111372   3.796   1.920   3.145
 3666SOL    HW211373   3.710   2.001   3.033
 3667SOL     OW11374   2.225   2.264   2.360
 3667SOL    HW111375   2.268   2.189   2.308
 3667SOL    HW211376   2.179   2.226   2.440
 3668SOL     OW11377   3.709   3.326   2.994
 3668SOL    HW111378   3.719   3.327   3.093
 3668SOL    HW211379   3.798   3.310   2.951
 3669SOL     OW11380   2.219   2.384   3.149
 3669SOL    HW111381   2.277   2.320   3.200
 3669SOL    HW211382   2.220   2.360   3.052
 3670SOL     OW11383   2.714   3.583   2.522
 3670SOL    HW111384   2.707   3.652   2.450
 3670SOL    HW211385   2.674   3.497   2.490
 3671SOL     OW11386   3.312   2.107   3.000
 3671SOL    HW111387   3.331   2.011   3.019
 3671SOL    HW211388   3.253   2.145   3.072
 3672SOL     OW11389   2.880   1.844   2.996
 3672SOL    HW111390   2.825   1.770   2.957
 3672SOL    HW211391   2.977   1.817   2.998
 3673SOL     OW11392   2.639   3.175   2.215
 3673SOL    HW111393   2.604   3.082   2.224
 3673SOL    HW211394   2.655   3.195   2.118
 3674SOL     OW11395   2.422   3.463   3.110
 3674SOL    HW111396   2.406   3.553   3.150
 3674SOL    HW211397   2.521   3.444   3.111
 3675SOL     OW11398   3.248   1.871   2.073
 3675SOL    HW111399   3.298   1.804   2.019
 3675SOL    HW211400   3.160   1.831   2.102
 3676SOL     OW11401   3.095   2.331   2.577
 3676SOL    HW111402   3.036   2.411   2.590
 3676SOL    HW211403   3.115   2.291   2.667
 3677SOL     OW11404   3.460   2.060   2.769
 3677SOL    HW111405   3.406   2.091   2.847
 3677SOL    HW211406   3.464   2.133   2.700
 3678SOL     OW11407   1.876   2.900   2.170
 3678SOL    HW111408   1.976   2.890   2.171
 3678SOL    HW211409   1.834   2.810   2.173
 3679SOL     OW11410   2.714   3.652   2.102
 3679SOL    HW111411   2.647   3.578   2.095
 3679SOL    HW211412   2.710   3.691   2.194
 3680SOL     OW11413   2.052   2.482   3.808
 3680SOL    HW111414   1.966   2.466   3.856
 3680SOL    HW211415   2.045   2.443   3.716
 3681SOL     OW11416   2.048   2.162   4.721
 3681SOL    HW111417   2.099   2.132   4.801
 3681SOL    HW211418   1.957   2.119   4.722
 3682SOL     OW11419   1.829   2.287   4.363
 3682SOL    HW111420   1.742   2.308   4.408
 3682SOL    HW211421   1.816   2.215   4.295
 3683SOL     OW11422   2.429   3.167   4.948
 3683SOL    HW111423   2.341   3.165   4.899
 3683SOL    HW211424   2.451   3.262   4.972
 3684SOL     OW11425   2.994   2.555   4.425
 3684SOL    HW111426   3.032   2.641   4.389
 3684SOL    HW211427   2.949   2.572   4.512
 3685SOL     OW11428   3.655   2.451   3.927
 3685SOL    HW111429   3.643   2.447   3.828
 3685SOL    HW211430   3.601   2.378   3.970
 3686SOL     OW11431   2.582   2.993   4.786
 3686SOL    HW111432   2.522   3.031   4.857
 3686SOL    HW211433   2.627   3.068   4.737
 3687SOL     OW11434   2.765   2.580   5.529
 3687SOL    HW111435   2.791   2.645   5.601
 3687SOL    HW211436   2.772   2.625   5.440
 3688SOL     OW11437   2.583   2.808   4.379
 3688SOL    HW111438   2.648   2.822   4.454
 3688SOL    HW211439   2.506   2.870   4.390
 3689SOL     OW11440   2.586   3.034   5.553
 3689SOL    HW111441   2.646   3.103   5.593
 3689SOL    HW211442   2.508   3.079   5.509
 3690SOL     OW11443   2.199   3.244   4.802
 3690SOL    HW111444   2.125   3.191   4.763
 3690SOL    HW211445   2.244   3.297   4.730
 3691SOL     OW11446   3.295   3.373   5.106
 3691SOL    HW111447   3.354   3.454   5.114
 3691SOL    HW211448   3.215   3.384   5.165
 3692SOL     OW11449   2.371   2.228   5.142
 3692SOL    HW111450   2.449   2.169   5.165
 3692SOL    HW211451   2.289   2.193   5.187
 3693SOL     OW11452   3.439   2.301   4.466
 3693SOL    HW111453   3.370   2.297   4.394
 3693SOL    HW211454   3.413   2.371   4.532
 3694SOL     OW11455   2.092   3.585   4.168
 3694SOL    HW111456   2.103   3.650   4.243
 3694SOL    HW211457   2.169   3.594   4.105
 3695SOL     OW11458   2.990   3.198   5.427
 3695SOL    HW111459   3.047   3.183   5.508
 3695SOL    HW211460   2.934   3.118   5.410
 3696SOL     OW11461   2.192   3.329   4.223
 3696SOL    HW111462   2.146   3.418   4.218
 3696SOL    HW211463   2.149   3.274   4.294
 3697SOL     OW11464   2.175   2.958   4.590
 3697SOL    HW111465   2.185   2.861   4.611
 3697SOL    HW211466   2.111   3.000   4.655
 3698SOL     OW11467   2.421   3.671   5.142
 3698SOL    HW111468   2.344   3.648   5.201
 3698SOL    HW211469   2.475   3.744   5.184
 3699SOL     OW11470   3.447   2.004   5.182
 3699SOL    HW111471   3.507   2.080   5.157
 3699SOL    HW211472   3.398   2.027   5.267
 3700SOL     OW11473   1.959   2.538   4.318
 3700SOL    HW111474   1.913   2.451   4.333
 3700SOL    HW211475   1.952   2.595   4.400
 3701SOL     OW11476   3.690   3.572   4.034
 3701SOL    HW111477   3.743   3.555   4.117
 3701SOL    HW211478   3.700   3.668   4.008
 3702SOL     OW11479   1.860   3.427   3.791
 3702SOL    HW111480   1.858   3.332   3.821
 3702SOL    HW211481   1.853   3.487   3.870
 3703SOL     OW11482   3.580   2.749   4.379
 3703SOL    HW111483   3.660   2.724   4.433
 3703SOL    HW211484   3.597   2.728   4.283
 3704SOL     OW11485   1.959   2.644   5.241
 3704SOL    HW111486   2.024   2.697   5.187
 3704SOL    HW211487   1.871   2.691   5.244
 3705SOL     OW11488   2.490   3.225   4.474
 3705SOL    HW111489   2.454   3.134   4.453
 3705SOL    HW211490   2.494   3.279   4.390
 3706SOL     OW11491   3.108   3.072   5.147
 3706SOL    HW111492   3.125   3.000   5.080
 3706SOL    HW211493   3.182   3.073   5.214
 3707SOL     OW11494   2.694   1.916   4.237
 3707SOL    HW111495   2.727   2.008   4.216
 3707SOL    HW211496   2.594   1.918   4.245
 3708SOL     OW11497   2.094   2.810   5.067
 3708SOL    HW111498   2.182   2.768   5.042
 3708SOL    HW211499   2.047   2.840   4.984
 3709SOL     OW11500   3.145   3.691   5.348
 3709SOL    HW111501   3.092   3.751   5.288
 3709SOL    HW211502   3.130   3.596   5.320
 3710SOL     OW11503   2.217   2.126   5.596
 3710SOL    HW111504   2.261   2.202   5.645
 3710SOL    HW211505   2.130   2.157   5.558
 3711SOL     OW11506   3.324   3.216   4.643
 3711SOL    HW111507   3.266   3.263   4.709
 3711SOL    HW211508   3.291   3.123   4.630
 3712SOL     OW11509   2.386   2.566   4.042
 3712SOL    HW111510   2.345   2.648   4.001
 3712SOL    HW211511   2.339   2.544   4.127
 3713SOL     OW11512   3.153   2.253   4.664
 3713SOL    HW111513   3.063   2.211   4.662
 3713SOL    HW211514   3.212   2.204   4.728
 3714SOL     OW11515   3.453   3.606   3.880
 3714SOL    HW111516   3.532   3.587   3.939
 3714SOL    HW211517   3.482   3.605   3.785
 3715SOL     OW11518   2.655   2.425   5.170
 3715SOL    HW111519   2.620   2.396   5.260
 3715SOL    HW211520   2.627   2.358   5.101
 3716SOL     OW11521   3.247   2.323   5.380
 3716SOL    HW111522   3.255   2.372   5.467
 3716SOL    HW211523   3.287   2.232   5.389
 3717SOL     OW11524   2.805   2.736   5.300
 3717SOL    HW111525   2.858   2.670   5.247
 3717SOL    HW211526   2.747   2.790   5.239
 3718SOL     OW11527   2.873   2.229   4.909
 3718SOL    HW111528   2.778   2.245   4.934
 3718SOL    HW211529   2.877   2.184   4.819
 3719SOL     OW11530   2.900   2.506   4.163
 3719SOL    HW111531   2.913   2.505   4.262
 3719SOL    HW211532   2.803   2.489   4.142
 3720SOL     OW11533   1.950   2.716   4.527
 3720SOL    HW111534   2.043   2.707   4.564
 3720SOL    HW211535   1.897   2.779   4.584
 3721SOL     OW11536   1.964   3.742   5.320
 3721SOL    HW111537   1.968   3.706   5.413
 3721SOL    HW211538   1.871   3.733   5.284
 3722SOL     OW11539   2.684   2.221   3.930
 3722SOL    HW111540   2.748   2.249   3.858
 3722SOL    HW211541   2.628   2.146   3.897
 3723SOL     OW11542   3.534   2.425   5.559
 3723SOL    HW111543   3.516   2.504   5.500
 3723SOL    HW211544   3.555   2.345   5.502
 3724SOL     OW11545   2.432   1.970   4.631
 3724SOL    HW111546   2.437   2.008   4.723
 3724SOL    HW211547   2.440   2.045   4.564
 3725SOL     OW11548   2.220   3.651   4.608
 3725SOL    HW111549   2.264   3.562   4.614
 3725SOL    HW211550   2.286   3.722   4.634
 3726SOL     OW11551   3.630   2.910   4.634
 3726SOL    HW111552   3.579   2.881   4.554
 3726SOL    HW211553   3.566   2.932   4.708
 3727SOL     OW11554   3.070   3.421   5.261
 3727SOL    HW111555   3.058   3.335   5.312
 3727SOL    HW211556   2.981   3.454   5.231
 3728SOL     OW11557   2.178   2.758   3.990
 3728SOL    HW111558   2.172   2.764   3.890
 3728SOL    HW211559   2.097   2.710   4.025
 3729SOL     OW11560   3.328   2.644   4.414
 3729SOL    HW111561   3.318   2.590   4.497
 3729SOL    HW211562   3.418   2.686   4.412
 3730SOL     OW11563   2.363   3.167   5.451
 3730SOL    HW111564   2.325   3.168   5.358
 3730SOL    HW211565   2.288   3.169   5.517
 3731SOL     OW11566   3.007   3.648   3.975
 3731SOL    HW111567   2.909   3.663   3.986
 3731SOL    HW211568   3.032   3.559   4.012
 3732SOL     OW11569   2.114   2.150   5.209
 3732SOL    HW111570   2.062   2.233   5.229
 3732SOL    HW211571   2.066   2.070   5.246
 3733SOL     OW11572   2.323   3.652   4.027
 3733SOL    HW111573   2.359   3.679   4.116
 3733SOL    HW211574   2.385   3.683   3.955
 3734SOL     OW11575   3.255   1.956   4.174
 3734SOL    HW111576   3.256   1.933   4.076
 3734SOL    HW211577   3.346   1.941   4.213
 3735SOL     OW11578   2.067   3.649   4.945
 3735SOL    HW111579   2.123   3.572   4.977
 3735SOL    HW211580   2.038   3.632   4.850
 3736SOL     OW11581   2.796   3.567   4.598
 3736SOL    HW111582   2.886   3.524   4.593
 3736SOL    HW211583   2.742   3.539   4.519
 3737SOL     OW11584   2.235   2.519   4.265
 3737SOL    HW111585   2.245   2.420   4.268
 3737SOL    HW211586   2.139   2.544   4.282
 3738SOL     OW11587   3.330   2.060   5.431
 3738SOL    HW111588   3.342   2.080   5.528
 3738SOL    HW211589   3.263   1.986   5.420
 3739SOL     OW11590   2.520   1.989   3.848
 3739SOL    HW111591   2.574   1.911   3.881
 3739SOL    HW211592   2.454   1.957   3.781
 3740SOL     OW11593   2.643   2.118   5.469
 3740SOL    HW111594   2.730   2.068   5.472
 3740SOL    HW211595   2.581   2.081   5.538
 3741SOL     OW11596   2.712   3.363   4.912
 3741SOL    HW111597   2.697   3.322   4.823
 3741SOL    HW211598   2.777   3.308   4.964
 3742SOL     OW11599   3.160   2.452   5.155
 3742SOL    HW111600   3.200   2.415   5.239
 3742SOL    HW211601   3.197   2.544   5.140
 3743SOL     OW11602   2.685   3.221   4.670
 3743SOL    HW111603   2.777   3.231   4.632
 3743SOL    HW211604   2.618   3.231   4.597
 3744SOL     OW11605   2.793   2.374   4.619
 3744SOL    HW111606   2.763   2.375   4.524
 3744SOL    HW211607   2.828   2.284   4.642
 3745SOL     OW11608   2.419   1.943   4.233
 3745SOL    HW111609   2.340   1.934   4.294
 3745SOL    HW211610   2.403   2.017   4.168
 3746SOL     OW11611   2.145   1.910   3.903
 3746SOL    HW111612   2.190   1.987   3.858
 3746SOL    HW211613   2.213   1.854   3.949
 3747SOL     OW11614   2.786   2.168   4.181
 3747SOL    HW111615   2.757   2.189   4.088
 3747SOL    HW211616   2.886   2.164   4.183
 3748SOL     OW11617   2.902   2.546   5.133
 3748SOL    HW111618   2.828   2.480   5.151
 3748SOL    HW211619   2.990   2.499   5.141
 3749SOL     OW11620   3.057   3.486   4.547
 3749SOL    HW111621   3.089   3.546   4.474
 3749SOL    HW211622   3.095   3.515   4.634
 3750SOL     OW11623   2.372   2.984   4.402
 3750SOL    HW111624   2.307   2.975   4.478
 3750SOL    HW211625   2.324   2.975   4.315
 3751SOL     OW11626   3.124   3.693   4.373
 3751SOL    HW111627   3.188   3.751   4.322
 3751SOL    HW211628   3.047   3.749   4.404
 3752SOL     OW11629   2.874   2.338   3.765
 3752SOL    HW111630   2.843   2.431   3.745
 3752SOL    HW211631   2.936   2.340   3.843
 3753SOL     OW11632   1.980   2.403   5.112
 3753SOL    HW111633   2.074   2.403   5.077
 3753SOL    HW211634   1.965   2.485   5.166
 3754SOL     OW11635   2.432   2.056   4.887
 3754SOL    HW111636   2.456   1.977   4.944
 3754SOL    HW211637   2.337   2.083   4.906
 3755SOL     OW11638   2.707   2.366   4.367
 3755SOL    HW111639   2.624   2.419   4.347
 3755SOL    HW211640   2.719   2.296   4.297
 3756SOL     OW11641   2.882   1.912   4.445
 3756SOL    HW111642   2.816   1.915   4.370
 3756SOL    HW211643   2.858   1.838   4.508
 3757SOL     OW11644   3.225   2.956   4.629
 3757SOL    HW111645   3.217   2.862   4.661
 3757SOL    HW211646   3.141   2.982   4.582
 3758SOL     OW11647   3.315   2.485   4.650
 3758SOL    HW111648   3.252   2.409   4.664
 3758SOL    HW211649   3.384   2.484   4.723
 3759SOL     OW11650   3.658   2.641   4.122
 3759SOL    HW111651   3.726   2.608   4.187
 3759SOL    HW211652   3.653   2.578   4.044
 3760SOL     OW11653   3.241   2.377   3.824
 3760SOL    HW111654   3.163   2.369   3.886
 3760SOL    HW211655   3.301   2.298   3.834
 3761SOL     OW11656   2.362   2.126   4.036
 3761SOL    HW111657   2.420   2.079   3.970
 3761SOL    HW211658   2.326   2.210   3.995
 3762SOL     OW11659   3.608   3.092   5.247
 3762SOL    HW111660   3.698   3.051   5.229
 3762SOL    HW211661   3.621   3.183   5.288
 3763SOL     OW11662   2.869   3.187   5.060
 3763SOL    HW111663   2.787   3.161   5.111
 3763SOL    HW211664   2.950   3.154   5.109
 3764SOL     OW11665   3.477   3.507   5.405
 3764SOL    HW111666   3.452   3.548   5.317
 3764SOL    HW211667   3.553   3.443   5.391
 3765SOL     OW11668   2.998   3.111   4.832
 3765SOL    HW111669   2.937   3.138   4.906
 3765SOL    HW211670   2.966   3.152   4.746
 3766SOL     OW11671   3.440   2.964   4.824
 3766SOL    HW111672   3.443   3.034   4.895
 3766SOL    HW211673   3.355   2.974   4.771
 3767SOL     OW11674   2.817   1.924   5.083
 3767SOL    HW111675   2.834   1.914   4.985
 3767SOL    HW211676   2.894   1.971   5.125
 3768SOL     OW11677   2.833   2.968   5.444
 3768SOL    HW111678   2.740   2.988   5.472
 3768SOL    HW211679   2.834   2.885   5.388
 3769SOL     OW11680   2.655   2.909   4.127
 3769SOL    HW111681   2.630   2.867   4.215
 3769SOL    HW211682   2.688   2.838   4.065
 3770SOL     OW11683   2.317   2.667   4.995
 3770SOL    HW111684   2.382   2.671   5.071
 3770SOL    HW211685   2.278   2.576   4.989
 3771SOL     OW11686   3.124   2.230   5.006
 3771SOL    HW111687   3.142   2.314   5.057
 3771SOL    HW211688   3.031   2.234   4.969
 3772SOL     OW11689   1.915   3.397   5.069
 3772SOL    HW111690   1.865   3.465   5.014
 3772SOL    HW211691   2.013   3.414   5.061
 3773SOL     OW11692   2.211   2.959   4.179
 3773SOL    HW111693   2.175   3.034   4.123
 3773SOL    HW211694   2.214   2.875   4.126
 3774SOL     OW11695   2.390   2.391   4.585
 3774SOL    HW111696   2.419   2.430   4.498
 3774SOL    HW211697   2.458   2.410   4.655
 3775SOL     OW11698   3.185   3.314   4.862
 3775SOL    HW111699   3.223   3.330   4.953
 3775SOL    HW211700   3.119   3.238   4.865
 3776SOL     OW11701   3.424   2.487   4.198
 3776SOL    HW111702   3.368   2.531   4.268
 3776SOL    HW211703   3.495   2.550   4.168
 3777SOL     OW11704   2.192   3.407   5.016
 3777SOL    HW111705   2.184   3.344   4.938
 3777SOL    HW211706   2.288   3.427   5.033
 3778SOL     OW11707   2.347   2.552   5.402
 3778SOL    HW111708   2.386   2.602   5.325
 3778SOL    HW211709   2.411   2.481   5.432
 3779SOL     OW11710   3.484   2.647   5.410
 3779SOL    HW111711   3.392   2.685   5.409
 3779SOL    HW211712   3.536   2.683   5.333
 3780SOL     OW11713   2.879   1.981   5.469
 3780SOL    HW111714   2.926   2.069   5.454
 3780SOL    HW211715   2.944   1.906   5.457
 3781SOL     OW11716   2.377   1.931   5.481
 3781SOL    HW111717   2.329   1.885   5.407
 3781SOL    HW211718   2.321   2.007   5.514
 3782SOL     OW11719   2.458   2.735   4.767
 3782SOL    HW111720   2.499   2.827   4.767
 3782SOL    HW211721   2.408   2.720   4.852
 3783SOL     OW11722   3.154   2.705   4.720
 3783SOL    HW111723   3.059   2.675   4.708
 3783SOL    HW211724   3.215   2.628   4.699
 3784SOL     OW11725   3.029   2.342   3.991
 3784SOL    HW111726   3.053   2.262   4.046
 3784SOL    HW211727   2.983   2.409   4.049
 3785SOL     OW11728   2.165   2.071   4.948
 3785SOL    HW111729   2.149   2.109   5.039
 3785SOL    HW211730   2.141   1.974   4.948
 3786SOL     OW11731   1.934   3.129   5.007
 3786SOL    HW111732   1.957   3.083   5.093
 3786SOL    HW211733   1.916   3.226   5.025
 3787SOL     OW11734   2.576   2.481   4.765
 3787SOL    HW111735   2.656   2.462   4.708
 3787SOL    HW211736   2.546   2.575   4.749
 3788SOL     OW11737   3.630   2.825   5.569
 3788SOL    HW111738   3.582   2.751   5.521
 3788SOL    HW211739   3.572   2.859   5.643
 3789SOL     OW11740   2.182   1.924   4.375
 3789SOL    HW111741   2.133   2.008   4.396
 3789SOL    HW211742   2.192   1.870   4.459
 3790SOL     OW11743   3.492   2.265   4.053
 3790SOL    HW111744   3.544   2.202   4.111
 3790SOL    HW211745   3.453   2.338   4.109
 3791SOL     OW11746   2.891   2.616   4.690
 3791SOL    HW111747   2.856   2.641   4.780
 3791SOL    HW211748   2.864   2.522   4.668
 3792SOL     OW11749   2.855   3.430   5.481
 3792SOL    HW111750   2.827   3.473   5.396
 3792SOL    HW211751   2.890   3.339   5.463
 3793SOL     OW11752   3.693   3.348   5.316
 3793SOL    HW111753   3.714   3.372   5.221
 3793SOL    HW211754   3.775   3.361   5.372
 3794SOL     OW11755   2.243   2.770   5.552
 3794SOL    HW111756   2.318   2.802   5.611
 3794SOL    HW211757   2.273   2.690   5.500
 3795SOL     OW11758   3.372   2.133   3.845
 3795SOL    HW111759   3.329   2.049   3.876
 3795SOL    HW211760   3.424   2.174   3.921
 3796SOL     OW11761   3.187   2.648   3.821
 3796SOL    HW111762   3.219   2.554   3.825
 3796SOL    HW211763   3.178   2.676   3.725
 3797SOL     OW11764   2.945   3.230   4.586
 3797SOL    HW111765   2.970   3.155   4.526
 3797SOL    HW211766   2.993   3.313   4.558
 3798SOL     OW11767   2.201   2.687   4.653
 3798SOL    HW111768   2.297   2.703   4.677
 3798SOL    HW211769   2.176   2.593   4.677
 3799SOL     OW11770   2.156   2.410   4.715
 3799SOL    HW111771   2.107   2.323   4.711
 3799SOL    HW211772   2.239   2.404   4.660
 3800SOL     OW11773   2.994   2.221   5.409
 3800SOL    HW111774   2.945   2.267   5.483
 3800SOL    HW211775   3.083   2.265   5.396
 3801SOL     OW11776   3.031   2.052   5.194
 3801SOL    HW111777   3.009   2.114   5.269
 3801SOL    HW211778   3.077   2.104   5.121
 3802SOL     OW11779   1.842   3.167   3.885
 3802SOL    HW111780   1.748   3.189   3.858
 3802SOL    HW211781   1.847   3.072   3.914
 3803SOL     OW11782   1.961   3.614   4.690
 3803SOL    HW111783   1.917   3.538   4.641
 3803SOL    HW211784   2.052   3.630   4.652
 3804SOL     OW11785   2.352   3.405   4.633
 3804SOL    HW111786   2.421   3.469   4.667
 3804SOL    HW211787   2.396   3.336   4.575
 3805SOL     OW11788   2.767   2.660   4.925
 3805SOL    HW111789   2.825   2.630   5.001
 3805SOL    HW211790   2.683   2.607   4.924
 3806SOL     OW11791   1.902   2.458   4.849
 3806SOL    HW111792   1.984   2.458   4.791
 3806SOL    HW211793   1.928   2.438   4.943
 3807SOL     OW11794   2.078   2.480   5.438
 3807SOL    HW111795   2.176   2.497   5.428
 3807SOL    HW211796   2.028   2.542   5.379
 3808SOL     OW11797   3.251   2.785   5.362
 3808SOL    HW111798   3.272   2.883   5.359
 3808SOL    HW211799   3.237   2.751   5.269
 3809SOL     OW11800   2.649   2.475   4.046
 3809SOL    HW111801   2.651   2.384   4.006
 3809SOL    HW211802   2.554   2.508   4.050
 3810SOL     OW11803   3.508   2.482   4.848
 3810SOL    HW111804   3.487   2.410   4.913
 3810SOL    HW211805   3.607   2.494   4.842
 3811SOL     OW11806   2.085   3.394   5.436
 3811SOL    HW111807   2.059   3.472   5.493
 3811SOL    HW211808   2.105   3.315   5.493
 3812SOL     OW11809   2.605   2.272   4.942
 3812SOL    HW111810   2.540   2.197   4.929
 3812SOL    HW211811   2.583   2.346   4.878
 3813SOL     OW11812   2.805   3.518   5.222
 3813SOL    HW111813   2.741   3.455   5.178
 3813SOL    HW211814   2.799   3.608   5.179
 3814SOL     OW11815   2.275   2.354   3.902
 3814SOL    HW111816   2.334   2.420   3.947
 3814SOL    HW211817   2.189   2.398   3.874
 3815SOL     OW11818   2.008   3.002   5.246
 3815SOL    HW111819   2.017   2.980   5.343
 3815SOL    HW211820   2.046   2.928   5.191
 3816SOL     OW11821   3.123   2.887   4.929
 3816SOL    HW111822   3.133   2.818   4.857
 3816SOL    HW211823   3.076   2.967   4.892
 3817SOL     OW11824   3.056   2.706   4.060
 3817SOL    HW111825   3.014   2.622   4.093
 3817SOL    HW211826   3.107   2.686   3.976
 3818SOL     OW11827   3.633   3.554   4.882
 3818SOL    HW111828   3.698   3.581   4.810
 3818SOL    HW211829   3.588   3.469   4.855
 3819SOL     OW11830   3.141   3.576   4.794
 3819SOL    HW111831   3.230   3.622   4.791
 3819SOL    HW211832   3.153   3.482   4.826
 3820SOL     OW11833   1.986   3.070   4.747
 3820SOL    HW111834   1.963   3.092   4.842
 3820SOL    HW211835   1.909   3.022   4.705
 3821SOL     OW11836   2.566   3.571   5.514
 3821SOL    HW111837   2.496   3.639   5.494
 3821SOL    HW211838   2.656   3.609   5.491
 3822SOL     OW11839   3.646   2.086   4.190
 3822SOL    HW111840   3.703   2.063   4.111
 3822SOL    HW211841   3.598   2.004   4.222
 3823SOL     OW11842   2.001   3.627   5.564
 3823SOL    HW111843   1.950   3.556   5.612
 3823SOL    HW211844   2.049   3.685   5.630
 3824SOL     OW11845   3.109   2.783   4.320
 3824SOL    HW111846   3.195   2.739   4.349
 3824SOL    HW211847   3.094   2.766   4.222
 3825SOL     OW11848   2.615   3.139   5.162
 3825SOL    HW111849   2.601   3.204   5.236
 3825SOL    HW211850   2.540   3.145   5.097
 3826SOL     OW11851   3.463   3.594   5.121
 3826SOL    HW111852   3.526   3.580   5.045
 3826SOL    HW211853   3.438   3.691   5.125
 3827SOL     OW11854   3.698   1.996   4.722
 3827SOL    HW111855   3.734   1.909   4.688
 3827SOL    HW211856   3.613   2.019   4.674
 3828SOL     OW11857   2.063   2.159   4.445
 3828SOL    HW111858   1.981   2.208   4.414
 3828SOL    HW211859   2.068   2.162   4.544
 3829SOL     OW11860   2.655   2.871   5.119
 3829SOL    HW111861   2.690   2.861   5.026
 3829SOL    HW211862   2.640   2.967   5.139
 3830SOL     OW11863   2.769   2.710   3.965
 3830SOL    HW111864   2.863   2.715   4.000
 3830SOL    HW211865   2.726   2.625   3.996
 3831SOL     OW11866   2.227   3.185   5.216
 3831SOL    HW111867   2.209   3.262   5.154
 3831SOL    HW211868   2.146   3.128   5.222
 3832SOL     OW11869   3.455   3.163   5.022
 3832SOL    HW111870   3.514   3.132   5.097
 3832SOL    HW211871   3.389   3.229   5.057
 3833SOL     OW11872   2.985   2.966   4.489
 3833SOL    HW111873   2.898   2.933   4.525
 3833SOL    HW211874   3.021   2.899   4.424
 3834SOL     OW11875   2.909   2.103   4.660
 3834SOL    HW111876   2.903   2.067   4.567
 3834SOL    HW211877   2.909   2.026   4.725
 3835SOL     OW11878   2.476   3.362   4.234
 3835SOL    HW111879   2.524   3.294   4.179
 3835SOL    HW211880   2.377   3.353   4.219
 3836SOL     OW11881   3.651   2.199   5.146
 3836SOL    HW111882   3.711   2.278   5.134
 3836SOL    HW211883   3.685   2.123   5.090
 3837SOL     OW11884   2.077   3.148   4.042
 3837SOL    HW111885   2.004   3.180   3.983
 3837SOL    HW211886   2.119   3.226   4.089
 3838SOL     OW11887   2.021   2.930   5.512
 3838SOL    HW111888   1.938   2.899   5.558
 3838SOL    HW211889   2.096   2.866   5.530
 3839SOL     OW11890   2.589   2.045   5.206
 3839SOL    HW111891   2.675   2.017   5.163
 3839SOL    HW211892   2.607   2.077   5.299
 3840SOL     OW11893   1.936   2.185   3.715
 3840SOL    HW111894   1.845   2.165   3.679
 3840SOL    HW211895   1.976   2.261   3.665
 3841SOL     OW11896   3.246   2.708   5.101
 3841SOL    HW111897   3.186   2.769   5.049
 3841SOL    HW211898   3.338   2.713   5.062
 3842SOL     OW11899   1.908   2.028   3.963
 3842SOL    HW111900   1.892   2.090   3.886
 3842SOL    HW211901   1.999   1.987   3.955
 3843SOL     OW11902   2.500   2.655   5.191
 3843SOL    HW111903   2.553   2.739   5.177
 3843SOL    HW211904   2.562   2.576   5.187
 3844SOL     OW11905   3.393   3.680   4.784
 3844SOL    HW111906   3.411   3.768   4.740
 3844SOL    HW211907   3.478   3.646   4.825
 3845SOL     OW11908   2.578   2.387   5.434
 3845SOL    HW111909   2.641   2.449   5.482
 3845SOL    HW211910   2.603   2.293   5.455
 3846SOL     OW11911   3.330   3.048   5.333
 3846SOL    HW111912   3.316   3.073   5.428
 3846SOL    HW211913   3.425   3.068   5.307
 3847SOL     OW11914   2.213   3.617   5.314
 3847SOL    HW111915   2.129   3.669   5.301
 3847SOL    HW211916   2.191   3.524   5.343
 3848SOL     OW11917   3.487   2.735   4.972
 3848SOL    HW111918   3.497   2.652   4.916
 3848SOL    HW211919   3.474   2.814   4.912
 3849SOL     OW11920   3.067   2.159   4.191
 3849SOL    HW111921   3.130   2.081   4.183
 3849SOL    HW211922   3.097   2.218   4.266
 3850SOL     OW11923   2.488   2.543   4.368
 3850SOL    HW111924   2.526   2.635   4.370
 3850SOL    HW211925   2.395   2.545   4.332
 3851SOL     OW11926   3.595   2.196   5.414
 3851SOL    HW111927   3.614   2.198   5.316
 3851SOL    HW211928   3.519   2.135   5.432
 3852SOL     OW11929   3.611   2.781   5.211
 3852SOL    HW111930   3.598   2.878   5.235
 3852SOL    HW211931   3.572   2.764   5.121
 3853SOL     OW11932   2.529   3.602   4.687
 3853SOL    HW111933   2.505   3.698   4.671
 3853SOL    HW211934   2.627   3.590   4.671
 3854SOL     OW11935   2.755   2.849   4.598
 3854SOL    HW111936   2.799   2.766   4.634
 3854SOL    HW211937   2.700   2.891   4.670
 3855SOL     OW11938   3.757   3.320   4.662
 3855SOL    HW111939   3.669   3.322   4.709
 3855SOL    HW211940   3.800   3.230   4.674
 3856SOL     OW11941   2.132   3.170   5.601
 3856SOL    HW111942   2.088   3.086   5.567
 3856SOL    HW211943   2.102   3.187   5.695
 3857SOL     OW11944   2.070   3.121   4.376
 3857SOL    HW111945   2.095   3.081   4.465
 3857SOL    HW211946   2.099   3.060   4.303
 3858SOL     OW11947   2.567   3.326   5.362
 3858SOL    HW111948   2.489   3.273   5.397
 3858SOL    HW211949   2.572   3.413   5.411
 3859SOL     OW11950   3.729   1.988   4.996
 3859SOL    HW111951   3.802   1.919   5.003
 3859SOL    HW211952   3.704   1.999   4.900
 3860SOL     OW11953   2.256   2.255   4.267
 3860SOL    HW111954   2.282   2.192   4.194
 3860SOL    HW211955   2.191   2.210   4.328
 3861SOL     OW11956   3.526   3.315   4.803
 3861SOL    HW111957   3.457   3.291   4.734
 3861SOL    HW211958   3.511   3.261   4.885
 3862SOL     OW11959   2.226   2.410   4.994
 3862SOL    HW111960   2.288   2.346   5.039
 3862SOL    HW211961   2.221   2.388   4.897
 3863SOL     OW11962   2.661   3.522   4.368
 3863SOL    HW111963   2.664   3.614   4.327
 3863SOL    HW211964   2.590   3.468   4.323
 3864SOL     OW11965   3.307   2.116   4.844
 3864SOL    HW111966   3.330   2.022   4.869
 3864SOL    HW211967   3.247   2.155   4.914
 3865SOL     OW11968   2.899   1.874   4.816
 3865SOL    HW111969   2.851   1.809   4.756
 3865SOL    HW211970   2.991   1.839   4.835
 3866SOL     OW11971   2.622   3.178   4.095
 3866SOL    HW111972   2.624   3.081   4.120
 3866SOL    HW211973   2.681   3.194   4.016
 3867SOL     OW11974   2.470   3.433   5.017
 3867SOL    HW111975   2.463   3.523   5.062
 3867SOL    HW211976   2.559   3.423   4.974
 3868SOL     OW11977   3.257   1.891   3.904
 3868SOL    HW111978   3.307   1.819   3.856
 3868SOL    HW211979   3.164   1.859   3.924
 3869SOL     OW11980   3.147   2.324   4.396
 3869SOL    HW111981   3.093   2.408   4.396
 3869SOL    HW211982   3.153   2.289   4.490
 3870SOL     OW11983   3.457   2.064   4.619
 3870SOL    HW111984   3.402   2.093   4.697
 3870SOL    HW211985   3.455   2.135   4.549
 3871SOL     OW11986   1.890   2.922   4.016
 3871SOL    HW111987   1.976   2.970   4.034
 3871SOL    HW211988   1.904   2.824   4.027
 3872SOL     OW11989   2.736   3.605   4.043
 3872SOL    HW111990   2.666   3.534   4.051
 3872SOL    HW211991   2.726   3.670   4.119
 3873SOL     OW11992   2.060   2.460   5.720
 3873SOL    HW111993   1.968   2.469   5.759
 3873SOL    HW211994   2.058   2.486   5.623
 3874SOL     OW11995   2.045   2.252   0.094
 3874SOL    HW111996   2.085   2.172   0.138
 3874SOL    HW211997   1.946   2.239   0.083
 3875SOL     OW11998   1.836   2.292   6.208
 3875SOL    HW111999   1.752   2.309   6.259
 3875SOL    HW212000   1.819   2.221   6.139
 3876SOL     OW12001   3.405   3.352   6.326
 3876SOL    HW112002   3.392   3.257   6.353
 3876SOL    HW212003   3.352   3.372   6.244
 3877SOL     OW12004   2.992   2.568   6.246
 3877SOL    HW112005   3.043   2.652   6.232
 3877SOL    HW212006   2.924   2.581   6.318
 3878SOL     OW12007   3.676   2.422   5.788
 3878SOL    HW112008   3.633   2.435   5.698
 3878SOL    HW212009   3.622   2.356   5.841
 3879SOL     OW12010   2.662   3.026   0.040
 3879SOL    HW112011   2.637   3.004   0.135
 3879SOL    HW212012   2.694   3.121   0.036
 3880SOL     OW12013   2.490   2.868   6.205
 3880SOL    HW112014   2.575   2.862   6.258
 3880SOL    HW212015   2.424   2.926   6.253
 3881SOL     OW12016   3.484   2.343   6.308
 3881SOL    HW112017   3.408   2.280   6.323
 3881SOL    HW212018   3.473   2.389   6.220
 3882SOL     OW12019   2.082   3.609   6.025
 3882SOL    HW112020   2.099   3.678   6.096
 3882SOL    HW212021   2.161   3.604   5.964
 3883SOL     OW12022   2.007   3.358   6.093
 3883SOL    HW112023   2.037   3.452   6.075
 3883SOL    HW212024   1.943   3.357   6.170
 3884SOL     OW12025   2.060   2.977   6.484
 3884SOL    HW112026   2.073   2.903   0.050
 3884SOL    HW212027   1.996   3.044   0.021
 3885SOL     OW12028   2.453   2.851   5.722
 3885SOL    HW112029   2.501   2.901   5.649
 3885SOL    HW212030   2.492   2.876   5.810
 3886SOL     OW12031   1.938   2.566   6.168
 3886SOL    HW112032   1.907   2.472   6.176
 3886SOL    HW212033   1.933   2.610   6.258
 3887SOL     OW12034   3.712   3.619   5.901
 3887SOL    HW112035   3.793   3.616   5.960
 3887SOL    HW212036   3.712   3.705   5.849
 3888SOL     OW12037   1.895   3.417   5.693
 3888SOL    HW112038   1.869   3.321   5.700
 3888SOL    HW212039   1.866   3.466   5.775
 3889SOL     OW12040   3.577   2.836   6.249
 3889SOL    HW112041   3.671   2.872   6.254
 3889SOL    HW212042   3.531   2.877   6.170
 3890SOL     OW12043   3.527   2.988   6.002
 3890SOL    HW112044   3.609   2.949   5.962
 3890SOL    HW212045   3.552   3.064   6.062
 3891SOL     OW12046   2.403   3.269   6.325
 3891SOL    HW112047   2.361   3.178   6.329
 3891SOL    HW212048   2.420   3.293   6.229
 3892SOL     OW12049   2.689   1.919   6.080
 3892SOL    HW112050   2.742   2.003   6.069
 3892SOL    HW212051   2.595   1.942   6.106
 3893SOL     OW12052   3.423   2.901   5.760
 3893SOL    HW112053   3.354   2.832   5.782
 3893SOL    HW212054   3.460   2.940   5.844
 3894SOL     OW12055   3.483   3.709   6.125
 3894SOL    HW112056   3.469   3.641   6.053
 3894SOL    HW212057   3.535   3.669   6.200
 3895SOL     OW12058   2.446   2.547   5.874
 3895SOL    HW112059   2.472   2.632   5.828
 3895SOL    HW212060   2.373   2.567   5.940
 3896SOL     OW12061   3.277   2.199   6.425
 3896SOL    HW112062   3.208   2.128   6.438
 3896SOL    HW212063   3.353   2.183   6.487
 3897SOL     OW12064   3.452   3.527   5.921
 3897SOL    HW112065   3.549   3.547   5.913
 3897SOL    HW212066   3.413   3.515   5.829
 3898SOL     OW12067   2.900   2.519   5.990
 3898SOL    HW112068   2.933   2.529   6.085
 3898SOL    HW212069   2.812   2.472   5.990
 3899SOL     OW12070   1.913   2.667   6.425
 3899SOL    HW112071   1.965   2.619   6.495
 3899SOL    HW212072   1.832   2.709   6.466
 3900SOL     OW12073   2.718   2.193   5.794
 3900SOL    HW112074   2.771   2.237   5.721
 3900SOL    HW212075   2.656   2.126   5.754
 3901SOL     OW12076   3.248   2.989   6.069
 3901SOL    HW112077   3.343   2.993   6.037
 3901SOL    HW212078   3.198   3.067   6.031
 3902SOL     OW12079   2.411   2.128   6.390
 3902SOL    HW112080   2.483   2.092   6.450
 3902SOL    HW212081   2.425   2.226   6.376
 3903SOL     OW12082   2.862   3.299   6.065
 3903SOL    HW112083   2.837   3.393   6.042
 3903SOL    HW212084   2.897   3.295   6.158
 3904SOL     OW12085   2.213   3.729   6.469
 3904SOL    HW112086   2.281   3.657   6.484
 3904SOL    HW212087   2.260   3.818   6.467
 3905SOL     OW12088   3.603   2.738   0.009
 3905SOL    HW112089   3.586   2.778   6.419
 3905SOL    HW212090   3.550   2.786   0.078
 3906SOL     OW12091   2.236   2.813   5.914
 3906SOL    HW112092   2.286   2.809   5.827
 3906SOL    HW212093   2.209   2.720   5.942
 3907SOL     OW12094   3.379   2.650   6.278
 3907SOL    HW112095   3.384   2.599   6.364
 3907SOL    HW212096   3.458   2.712   6.272
 3908SOL     OW12097   2.997   3.609   5.842
 3908SOL    HW112098   2.911   3.586   5.886
 3908SOL    HW212099   3.020   3.539   5.774
 3909SOL     OW12100   3.500   3.250   5.687
 3909SOL    HW112101   3.469   3.344   5.678
 3909SOL    HW212102   3.430   3.188   5.652
 3910SOL     OW12103   2.320   3.644   5.889
 3910SOL    HW112104   2.361   3.697   5.964
 3910SOL    HW212105   2.389   3.582   5.851
 3911SOL     OW12106   3.292   1.957   6.037
 3911SOL    HW112107   3.287   1.927   5.941
 3911SOL    HW212108   3.384   1.939   6.072
 3912SOL     OW12109   2.189   2.567   6.037
 3912SOL    HW112110   2.208   2.468   6.039
 3912SOL    HW212111   2.098   2.583   6.076
 3913SOL     OW12112   2.540   1.989   5.703
 3913SOL    HW112113   2.609   1.925   5.736
 3913SOL    HW212114   2.481   1.944   5.636
 3914SOL     OW12115   2.431   2.007   6.140
 3914SOL    HW112116   2.431   2.066   6.221
 3914SOL    HW212117   2.421   2.064   6.058
 3915SOL     OW12118   3.293   3.084   5.604
 3915SOL    HW112119   3.337   3.010   5.655
 3915SOL    HW212120   3.205   3.106   5.646
 3916SOL     OW12121   2.121   1.905   5.729
 3916SOL    HW112122   2.165   1.985   5.688
 3916SOL    HW212123   2.185   1.829   5.731
 3917SOL     OW12124   2.862   2.122   6.020
 3917SOL    HW112125   2.812   2.150   5.938
 3917SOL    HW212126   2.959   2.145   6.010
 3918SOL     OW12127   2.279   3.021   6.319
 3918SOL    HW112128   2.205   3.008   6.384
 3918SOL    HW212129   2.242   3.022   6.226
 3919SOL     OW12130   3.078   3.597   6.221
 3919SOL    HW112131   3.115   3.675   6.171
 3919SOL    HW212132   2.983   3.614   6.244
 3920SOL     OW12133   2.878   2.345   5.622
 3920SOL    HW112134   2.842   2.433   5.592
 3920SOL    HW212135   2.950   2.360   5.690
 3921SOL     OW12136   2.698   2.269   6.247
 3921SOL    HW112137   2.615   2.317   6.276
 3921SOL    HW212138   2.717   2.288   6.151
 3922SOL     OW12139   2.946   2.007   6.270
 3922SOL    HW112140   2.917   2.056   6.188
 3922SOL    HW212141   2.870   1.951   6.303
 3923SOL     OW12142   3.681   2.632   5.964
 3923SOL    HW112143   3.744   2.608   6.038
 3923SOL    HW212144   3.686   2.562   5.892
 3924SOL     OW12145   2.330   3.292   5.826
 3924SOL    HW112146   2.232   3.283   5.842
 3924SOL    HW212147   2.366   3.205   5.791
 3925SOL     OW12148   3.635   3.155   6.182
 3925SOL    HW112149   3.705   3.091   6.213
 3925SOL    HW212150   3.654   3.245   6.219
 3926SOL     OW12151   3.253   2.438   5.626
 3926SOL    HW112152   3.199   2.409   5.705
 3926SOL    HW212153   3.350   2.425   5.646
 3927SOL     OW12154   2.387   2.132   5.899
 3927SOL    HW112155   2.439   2.072   5.838
 3927SOL    HW212156   2.355   2.212   5.848
 3928SOL     OW12157   2.586   2.918   5.954
 3928SOL    HW112158   2.543   2.899   6.042
 3928SOL    HW212159   2.666   2.861   5.942
 3929SOL     OW12160   2.154   3.013   6.072
 3929SOL    HW112161   2.121   3.086   6.012
 3929SOL    HW212162   2.189   2.938   6.017
 3930SOL     OW12163   2.479   2.390   6.354
 3930SOL    HW112164   2.442   2.464   6.297
 3930SOL    HW212165   2.523   2.430   6.434
 3931SOL     OW12166   3.111   3.214   5.975
 3931SOL    HW112167   3.174   3.281   6.015
 3931SOL    HW212168   3.018   3.233   6.007
 3932SOL     OW12169   3.463   2.489   6.071
 3932SOL    HW112170   3.408   2.547   6.132
 3932SOL    HW212171   3.533   2.545   6.026
 3933SOL     OW12172   3.067   2.378   5.823
 3933SOL    HW112173   3.099   2.300   5.877
 3933SOL    HW212174   3.013   2.439   5.880
 3934SOL     OW12175   2.153   1.973   6.174
 3934SOL    HW112176   2.129   2.061   6.215
 3934SOL    HW212177   2.251   1.970   6.154
 3935SOL     OW12178   3.476   2.265   5.908
 3935SOL    HW112179   3.531   2.202   5.963
 3935SOL    HW212180   3.449   2.343   5.965
 3936SOL     OW12181   3.367   2.119   5.693
 3936SOL    HW112182   3.323   2.039   5.733
 3936SOL    HW212183   3.404   2.177   5.765
 3937SOL     OW12184   3.127   2.674   5.577
 3937SOL    HW112185   3.169   2.583   5.587
 3937SOL    HW212186   3.166   2.719   5.497
 3938SOL     OW12187   2.955   3.244   6.314
 3938SOL    HW112188   2.958   3.145   6.298
 3938SOL    HW212189   2.977   3.264   6.409
 3939SOL     OW12190   1.829   3.139   5.730
 3939SOL    HW112191   1.740   3.185   5.719
 3939SOL    HW212192   1.822   3.046   5.695
 3940SOL     OW12193   1.934   3.683   6.452
 3940SOL    HW112194   1.913   3.590   6.484
 3940SOL    HW212195   2.032   3.698   6.454
 3941SOL     OW12196   2.660   2.389   5.977
 3941SOL    HW112197   2.671   2.316   5.909
 3941SOL    HW212198   2.581   2.446   5.952
 3942SOL     OW12199   2.302   2.343   5.750
 3942SOL    HW112200   2.367   2.412   5.782
 3942SOL    HW212201   2.211   2.383   5.745
 3943SOL     OW12202   3.221   2.735   5.829
 3943SOL    HW112203   3.155   2.718   5.902
 3943SOL    HW212204   3.180   2.711   5.741
 3944SOL     OW12205   3.654   2.100   6.035
 3944SOL    HW112206   3.705   2.080   5.951
 3944SOL    HW212207   3.617   2.015   6.072
 3945SOL     OW12208   3.260   3.415   6.098
 3945SOL    HW112209   3.322   3.459   6.033
 3945SOL    HW212210   3.194   3.482   6.133
 3946SOL     OW12211   3.158   2.790   6.225
 3946SOL    HW112212   3.237   2.730   6.237
 3946SOL    HW212213   3.182   2.866   6.165
 3947SOL     OW12214   2.526   3.494   5.779
 3947SOL    HW112215   2.543   3.509   5.682
 3947SOL    HW212216   2.467   3.414   5.791
 3948SOL     OW12217   3.744   2.073   0.035
 3948SOL    HW112218   3.749   1.993   6.475
 3948SOL    HW212219   3.650   2.108   0.037
 3949SOL     OW12220   2.086   2.214   6.291
 3949SOL    HW112221   1.996   2.246   6.260
 3949SOL    HW212222   2.096   2.232   6.388
 3950SOL     OW12223   3.082   3.437   5.643
 3950SOL    HW112224   3.081   3.341   5.671
 3950SOL    HW212225   3.010   3.454   5.577
 3951SOL     OW12226   2.801   2.764   5.906
 3951SOL    HW112227   2.837   2.782   5.814
 3951SOL    HW212228   2.838   2.677   5.939
 3952SOL     OW12229   3.353   3.507   5.656
 3952SOL    HW112230   3.258   3.480   5.642
 3952SOL    HW212231   3.398   3.517   5.567
 3953SOL     OW12232   2.959   2.971   6.308
 3953SOL    HW112233   2.869   2.929   6.304
 3953SOL    HW212234   3.026   2.910   6.265
 3954SOL     OW12235   2.473   3.317   6.066
 3954SOL    HW112236   2.548   3.270   6.021
 3954SOL    HW212237   2.397   3.329   6.001
 3955SOL     OW12238   2.056   3.203   5.878
 3955SOL    HW112239   1.970   3.172   5.838
 3955SOL    HW212240   2.036   3.261   5.957
 3956SOL     OW12241   1.976   2.231   5.516
 3956SOL    HW112242   1.883   2.224   5.482
 3956SOL    HW212243   2.013   2.322   5.495
 3957SOL     OW12244   1.894   2.077   5.768
 3957SOL    HW112245   1.909   2.152   5.703
 3957SOL    HW212246   1.972   2.013   5.762
 3958SOL     OW12247   3.049   3.171   5.709
 3958SOL    HW112248   2.950   3.161   5.700
 3958SOL    HW212249   3.073   3.175   5.806
 3959SOL     OW12250   3.129   2.181   6.006
 3959SOL    HW112251   3.191   2.103   6.015
 3959SOL    HW212252   3.141   2.243   6.083
 3960SOL     OW12253   2.395   2.609   6.218
 3960SOL    HW112254   2.432   2.702   6.209
 3960SOL    HW212255   2.314   2.600   6.160
 3961SOL     OW12256   2.765   3.217   5.670
 3961SOL    HW112257   2.723   3.216   5.761
 3961SOL    HW212258   2.763   3.309   5.633
 3962SOL     OW12259   2.501   3.756   0.040
 3962SOL    HW112260   2.454   3.841   0.018
 3962SOL    HW212261   2.600   3.771   0.034
 3963SOL     OW12262   2.719   2.845   6.352
 3963SOL    HW112263   2.753   2.759   6.391
 3963SOL    HW212264   2.698   2.909   6.426
 3964SOL     OW12265   2.899   2.796   5.654
 3964SOL    HW112266   2.879   2.871   5.592
 3964SOL    HW212267   2.984   2.752   5.628
 3965SOL     OW12268   3.674   3.397   6.311
 3965SOL    HW112269   3.574   3.388   6.315
 3965SOL    HW212270   3.710   3.413   6.403
 3966SOL     OW12271   1.945   2.929   6.236
 3966SOL    HW112272   1.984   2.926   6.328
 3966SOL    HW212273   2.018   2.946   6.170
 3967SOL     OW12274   2.238   2.305   6.075
 3967SOL    HW112275   2.279   2.230   6.023
 3967SOL    HW212276   2.190   2.269   6.155
 3968SOL     OW12277   2.650   3.402   6.337
 3968SOL    HW112278   2.692   3.357   6.259
 3968SOL    HW212279   2.555   3.373   6.345
 3969SOL     OW12280   2.661   3.181   5.920
 3969SOL    HW112281   2.638   3.084   5.933
 3969SOL    HW212282   2.741   3.204   5.977
 3970SOL     OW12283   3.254   1.878   5.775
 3970SOL    HW112284   3.300   1.809   5.719
 3970SOL    HW212285   3.158   1.853   5.787
 3971SOL     OW12286   3.151   2.341   6.220
 3971SOL    HW112287   3.095   2.422   6.238
 3971SOL    HW212288   3.189   2.307   6.306
 3972SOL     OW12289   2.753   3.540   5.962
 3972SOL    HW112290   2.673   3.514   5.907
 3972SOL    HW212291   2.732   3.623   6.014
 3973SOL     OW12292   2.073   4.312   0.130
 3973SOL    HW112293   2.002   4.341   0.195
 3973SOL    HW212294   2.065   4.367   0.047
 3974SOL     OW12295   2.061   4.020   0.997
 3974SOL    HW112296   2.099   3.974   1.078
 3974SOL    HW212297   1.970   3.984   0.978
 3975SOL     OW12298   1.821   4.041   0.661
 3975SOL    HW112299   1.752   4.105   0.694
 3975SOL    HW212300   1.780   3.980   0.593
 3976SOL     OW12301   2.411   5.025   1.213
 3976SOL    HW112302   2.327   5.027   1.159
 3976SOL    HW212303   2.434   5.118   1.242
 3977SOL     OW12304   3.415   5.248   0.709
 3977SOL    HW112305   3.381   5.209   0.795
 3977SOL    HW212306   3.340   5.255   0.644
 3978SOL     OW12307   2.940   4.437   0.690
 3978SOL    HW112308   2.983   4.518   0.728
 3978SOL    HW212309   2.860   4.413   0.744
 3979SOL     OW12310   3.469   4.313   0.307
 3979SOL    HW112311   3.406   4.334   0.233
 3979SOL    HW212312   3.483   4.214   0.312
 3980SOL     OW12313   2.568   4.848   1.069
 3980SOL    HW112314   2.505   4.886   1.135
 3980SOL    HW212315   2.613   4.922   1.019
 3981SOL     OW12316   2.766   4.447   1.817
 3981SOL    HW112317   2.795   4.514   1.885
 3981SOL    HW212318   2.768   4.488   1.726
 3982SOL     OW12319   2.551   4.665   0.715
 3982SOL    HW112320   2.626   4.686   0.778
 3982SOL    HW212321   2.480   4.736   0.723
 3983SOL     OW12322   2.564   4.875   1.841
 3983SOL    HW112323   2.625   4.945   1.878
 3983SOL    HW212324   2.490   4.918   1.790
 3984SOL     OW12325   2.187   5.116   1.061
 3984SOL    HW112326   2.104   5.082   1.016
 3984SOL    HW212327   2.234   5.180   0.999
 3985SOL     OW12328   3.313   5.223   1.399
 3985SOL    HW112329   3.367   5.307   1.412
 3985SOL    HW212330   3.232   5.228   1.457
 3986SOL     OW12331   2.339   4.084   1.437
 3986SOL    HW112332   2.421   4.033   1.463
 3986SOL    HW212333   2.258   4.035   1.468
 3987SOL     OW12334   3.470   4.179   0.797
 3987SOL    HW112335   3.428   4.199   0.709
 3987SOL    HW212336   3.437   4.244   0.865
 3988SOL     OW12337   2.075   5.468   0.473
 3988SOL    HW112338   2.094   5.539   0.541
 3988SOL    HW212339   2.151   5.463   0.408
 3989SOL     OW12340   2.987   5.057   1.711
 3989SOL    HW112341   3.033   5.047   1.799
 3989SOL    HW212342   2.929   4.976   1.694
 3990SOL     OW12343   2.133   5.203   0.510
 3990SOL    HW112344   2.097   5.296   0.515
 3990SOL    HW212345   2.089   5.147   0.580
 3991SOL     OW12346   2.149   4.829   0.878
 3991SOL    HW112347   2.156   4.732   0.903
 3991SOL    HW212348   2.087   4.875   0.940
 3992SOL     OW12349   2.390   5.510   1.400
 3992SOL    HW112350   2.308   5.503   1.456
 3992SOL    HW212351   2.442   5.592   1.426
 3993SOL     OW12352   2.431   4.716   0.245
 3993SOL    HW112353   2.461   4.780   0.174
 3993SOL    HW212354   2.482   4.733   0.329
 3994SOL     OW12355   3.418   3.916   1.450
 3994SOL    HW112356   3.473   3.989   1.411
 3994SOL    HW212357   3.383   3.944   1.539
 3995SOL     OW12358   2.057   4.545   0.493
 3995SOL    HW112359   1.982   4.507   0.440
 3995SOL    HW212360   2.024   4.567   0.585
 3996SOL     OW12361   3.574   5.580   0.294
 3996SOL    HW112362   3.557   5.539   0.384
 3996SOL    HW212363   3.633   5.660   0.304
 3997SOL     OW12364   1.890   5.304   0.070
 3997SOL    HW112365   1.903   5.207   0.089
 3997SOL    HW212366   1.880   5.354   0.156
 3998SOL     OW12367   3.477   4.602   0.676
 3998SOL    HW112368   3.535   4.554   0.610
 3998SOL    HW212369   3.426   4.675   0.628
 3999SOL     OW12370   3.346   4.800   0.531
 3999SOL    HW112371   3.401   4.772   0.452
 3999SOL    HW212372   3.396   4.868   0.585
 4000SOL     OW12373   1.957   4.482   1.534
 4000SOL    HW112374   2.025   4.533   1.481
 4000SOL    HW212375   1.870   4.530   1.532
 4001SOL     OW12376   2.471   5.115   0.745
 4001SOL    HW112377   2.442   5.019   0.747
 4001SOL    HW212378   2.445   5.156   0.658
 4002SOL     OW12379   3.110   4.943   1.436
 4002SOL    HW112380   3.131   4.878   1.363
 4002SOL    HW212381   3.183   4.940   1.504
 4003SOL     OW12382   2.675   3.757   0.496
 4003SOL    HW112383   2.725   3.842   0.478
 4003SOL    HW212384   2.577   3.776   0.493
 4004SOL     OW12385   2.057   4.637   1.317
 4004SOL    HW112386   2.151   4.609   1.296
 4004SOL    HW212387   1.997   4.607   1.244
 4005SOL     OW12388   3.307   4.723   0.186
 4005SOL    HW112389   3.237   4.665   0.229
 4005SOL    HW212390   3.390   4.721   0.242
 4006SOL     OW12391   3.020   5.528   1.620
 4006SOL    HW112392   3.039   5.593   1.546
 4006SOL    HW212393   3.040   5.435   1.588
 4007SOL     OW12394   2.227   3.990   1.887
 4007SOL    HW112395   2.260   4.073   1.933
 4007SOL    HW212396   2.138   4.009   1.845
 4008SOL     OW12397   3.332   5.130   0.941
 4008SOL    HW112398   3.272   5.168   1.012
 4008SOL    HW212399   3.307   5.035   0.924
 4009SOL     OW12400   3.473   5.488   0.538
 4009SOL    HW112401   3.422   5.445   0.464
 4009SOL    HW212402   3.474   5.427   0.618
 4010SOL     OW12403   2.466   4.444   0.290
 4010SOL    HW112404   2.465   4.539   0.258
 4010SOL    HW212405   2.407   4.436   0.371
 4011SOL     OW12406   3.127   4.117   0.950
 4011SOL    HW112407   3.033   4.084   0.949
 4011SOL    HW212408   3.183   4.054   1.004
 4012SOL     OW12409   3.355   5.361   0.326
 4012SOL    HW112410   3.384   5.408   0.242
 4012SOL    HW212411   3.337   5.265   0.306
 4013SOL     OW12412   2.649   4.279   1.464
 4013SOL    HW112413   2.615   4.256   1.555
 4013SOL    HW212414   2.618   4.210   1.399
 4014SOL     OW12415   3.243   4.207   1.673
 4014SOL    HW112416   3.248   4.258   1.759
 4014SOL    HW212417   3.292   4.121   1.683
 4015SOL     OW12418   2.795   4.593   1.583
 4015SOL    HW112419   2.848   4.528   1.530
 4015SOL    HW212420   2.734   4.645   1.522
 4016SOL     OW12421   2.861   4.108   1.205
 4016SOL    HW112422   2.765   4.115   1.232
 4016SOL    HW212423   2.867   4.061   1.116
 4017SOL     OW12424   2.907   4.426   0.419
 4017SOL    HW112425   2.916   4.428   0.519
 4017SOL    HW212426   2.824   4.375   0.394
 4018SOL     OW12427   1.971   4.605   0.753
 4018SOL    HW112428   2.050   4.573   0.804
 4018SOL    HW212429   1.919   4.670   0.809
 4019SOL     OW12430   1.928   5.601   1.587
 4019SOL    HW112431   1.939   5.566   1.680
 4019SOL    HW212432   1.831   5.611   1.567
 4020SOL     OW12433   2.715   4.011   0.192
 4020SOL    HW112434   2.783   4.068   0.146
 4020SOL    HW212435   2.711   3.921   0.150
 4021SOL     OW12436   3.532   4.292   1.835
 4021SOL    HW112437   3.515   4.377   1.786
 4021SOL    HW212438   3.559   4.221   1.771
 4022SOL     OW12439   3.079   4.834   0.551
 4022SOL    HW112440   3.175   4.814   0.532
 4022SOL    HW212441   3.054   4.920   0.506
 4023SOL     OW12442   2.423   3.858   0.933
 4023SOL    HW112443   2.426   3.878   1.031
 4023SOL    HW212444   2.426   3.943   0.881
 4024SOL     OW12445   2.783   5.193   0.485
 4024SOL    HW112446   2.791   5.272   0.424
 4024SOL    HW212447   2.748   5.223   0.574
 4025SOL     OW12448   2.212   5.545   0.890
 4025SOL    HW112449   2.255   5.455   0.895
 4025SOL    HW212450   2.275   5.614   0.925
 4026SOL     OW12451   3.553   4.593   0.938
 4026SOL    HW112452   3.521   4.600   0.844
 4026SOL    HW212453   3.519   4.672   0.990
 4027SOL     OW12454   3.061   5.251   1.521
 4027SOL    HW112455   3.052   5.182   1.593
 4027SOL    HW212456   3.001   5.227   1.445
 4028SOL     OW12457   2.162   4.694   0.283
 4028SOL    HW112458   2.260   4.688   0.269
 4028SOL    HW212459   2.133   4.625   0.349
 4029SOL     OW12460   3.263   4.465   0.760
 4029SOL    HW112461   3.282   4.415   0.845
 4029SOL    HW212462   3.348   4.508   0.728
 4030SOL     OW12463   2.309   4.999   1.729
 4030SOL    HW112464   2.286   5.010   1.633
 4030SOL    HW212465   2.226   4.980   1.781
 4031SOL     OW12466   3.000   5.486   0.182
 4031SOL    HW112467   2.931   5.461   0.249
 4031SOL    HW212468   3.025   5.407   0.126
 4032SOL     OW12469   2.089   3.972   1.483
 4032SOL    HW112470   2.035   4.057   1.492
 4032SOL    HW212471   2.047   3.901   1.540
 4033SOL     OW12472   3.406   5.024   0.051
 4033SOL    HW112473   3.396   5.120   0.027
 4033SOL    HW212474   3.322   4.975   0.027
 4034SOL     OW12475   2.294   5.484   0.313
 4034SOL    HW112476   2.355   5.540   0.368
 4034SOL    HW212477   2.346   5.408   0.273
 4035SOL     OW12478   3.252   3.845   0.428
 4035SOL    HW112479   3.247   3.798   0.341
 4035SOL    HW212480   3.331   3.907   0.429
 4036SOL     OW12481   2.069   5.511   1.218
 4036SOL    HW112482   2.124   5.433   1.249
 4036SOL    HW212483   2.036   5.494   1.126
 4037SOL     OW12484   2.789   5.437   0.893
 4037SOL    HW112485   2.881   5.396   0.888
 4037SOL    HW212486   2.729   5.392   0.826
 4038SOL     OW12487   2.294   4.411   0.497
 4038SOL    HW112488   2.278   4.314   0.510
 4038SOL    HW212489   2.207   4.461   0.499
 4039SOL     OW12490   3.360   3.959   1.725
 4039SOL    HW112491   3.367   3.984   1.821
 4039SOL    HW212492   3.315   3.869   1.717
 4040SOL     OW12493   2.630   3.996   1.773
 4040SOL    HW112494   2.718   3.948   1.770
 4040SOL    HW212495   2.573   3.955   1.844
 4041SOL     OW12496   2.717   5.233   1.192
 4041SOL    HW112497   2.695   5.185   1.107
 4041SOL    HW212498   2.784   5.181   1.244
 4042SOL     OW12499   3.155   4.321   1.440
 4042SOL    HW112500   3.194   4.289   1.526
 4042SOL    HW212501   3.189   4.413   1.420
 4043SOL     OW12502   2.663   5.083   0.957
 4043SOL    HW112503   2.757   5.095   0.925
 4043SOL    HW212504   2.600   5.097   0.880
 4044SOL     OW12505   2.784   4.248   0.900
 4044SOL    HW112506   2.755   4.233   0.806
 4044SOL    HW212507   2.815   4.161   0.939
 4045SOL     OW12508   2.412   3.820   0.472
 4045SOL    HW112509   2.331   3.823   0.530
 4045SOL    HW212510   2.414   3.900   0.413
 4046SOL     OW12511   3.165   4.899   0.037
 4046SOL    HW112512   3.207   4.830   0.096
 4046SOL    HW212513   3.098   4.951   0.090
 4047SOL     OW12514   2.132   3.772   0.234
 4047SOL    HW112515   2.150   3.771   0.136
 4047SOL    HW212516   2.196   3.711   0.280
 4048SOL     OW12517   2.802   3.992   0.455
 4048SOL    HW112518   2.769   4.005   0.361
 4048SOL    HW212519   2.899   4.013   0.460
 4049SOL     OW12520   2.893   4.403   1.417
 4049SOL    HW112521   2.823   4.335   1.437
 4049SOL    HW212522   2.983   4.361   1.422
 4050SOL     OW12523   3.047   5.361   0.841
 4050SOL    HW112524   3.068   5.414   0.759
 4050SOL    HW212525   3.098   5.398   0.918
 4051SOL     OW12526   2.357   4.867   0.705
 4051SOL    HW112527   2.284   4.853   0.772
 4051SOL    HW212528   2.318   4.873   0.613
 4052SOL     OW12529   3.076   5.532   0.624
 4052SOL    HW112530   3.129   5.592   0.564
 4052SOL    HW212531   2.994   5.580   0.656
 4053SOL     OW12532   2.913   4.137   0.051
 4053SOL    HW112533   2.867   4.172   6.469
 4053SOL    HW212534   2.953   4.214   0.102
 4054SOL     OW12535   1.972   4.241   1.403
 4054SOL    HW112536   2.065   4.244   1.366
 4054SOL    HW212537   1.957   4.321   1.460
 4055SOL     OW12538   2.415   3.902   1.200
 4055SOL    HW112539   2.444   3.835   1.267
 4055SOL    HW212540   2.315   3.913   1.204
 4056SOL     OW12541   2.712   4.197   0.647
 4056SOL    HW112542   2.635   4.256   0.624
 4056SOL    HW212543   2.732   4.137   0.569
 4057SOL     OW12544   2.898   3.839   0.720
 4057SOL    HW112545   2.836   3.872   0.649
 4057SOL    HW212546   2.858   3.757   0.763
 4058SOL     OW12547   3.289   4.860   0.888
 4058SOL    HW112548   3.212   4.801   0.863
 4058SOL    HW212549   3.347   4.875   0.808
 4059SOL     OW12550   3.313   4.327   0.991
 4059SOL    HW112551   3.246   4.253   0.997
 4059SOL    HW212552   3.380   4.317   1.064
 4060SOL     OW12553   3.610   4.474   0.477
 4060SOL    HW112554   3.697   4.435   0.509
 4060SOL    HW212555   3.565   4.410   0.414
 4061SOL     OW12556   2.350   5.209   0.110
 4061SOL    HW112557   2.276   5.163   0.159
 4061SOL    HW212558   2.366   5.164   0.022
 4062SOL     OW12559   3.486   4.950   0.703
 4062SOL    HW112560   3.572   4.904   0.728
 4062SOL    HW212561   3.501   5.048   0.700
 4063SOL     OW12562   3.267   4.321   0.116
 4063SOL    HW112563   3.196   4.300   0.183
 4063SOL    HW212564   3.268   4.250   0.045
 4064SOL     OW12565   2.442   4.031   0.300
 4064SOL    HW112566   2.533   4.016   0.260
 4064SOL    HW212567   2.393   4.100   0.247
 4065SOL     OW12568   3.615   4.939   1.532
 4065SOL    HW112569   3.705   4.899   1.515
 4065SOL    HW212570   3.626   5.028   1.576
 4066SOL     OW12571   2.883   5.073   1.352
 4066SOL    HW112572   2.796   5.035   1.383
 4066SOL    HW212573   2.958   5.024   1.396
 4067SOL     OW12574   3.492   5.361   1.677
 4067SOL    HW112575   3.472   5.400   1.587
 4067SOL    HW212576   3.564   5.292   1.669
 4068SOL     OW12577   3.020   5.008   1.119
 4068SOL    HW112578   2.957   5.026   1.195
 4068SOL    HW212579   2.980   5.039   1.033
 4069SOL     OW12580   3.464   4.817   1.096
 4069SOL    HW112581   3.455   4.883   1.171
 4069SOL    HW212582   3.390   4.831   1.030
 4070SOL     OW12583   2.797   3.844   1.393
 4070SOL    HW112584   2.816   3.832   1.296
 4070SOL    HW212585   2.879   3.878   1.439
 4071SOL     OW12586   2.823   4.828   1.722
 4071SOL    HW112587   2.730   4.848   1.752
 4071SOL    HW212588   2.823   4.744   1.666
 4072SOL     OW12589   2.588   4.765   0.461
 4072SOL    HW112590   2.578   4.723   0.552
 4072SOL    HW212591   2.671   4.731   0.417
 4073SOL     OW12592   2.300   4.521   1.272
 4073SOL    HW112593   2.367   4.528   1.346
 4073SOL    HW212594   2.263   4.428   1.269
 4074SOL     OW12595   3.114   4.095   1.298
 4074SOL    HW112596   3.140   4.180   1.344
 4074SOL    HW212597   3.021   4.103   1.262
 4075SOL     OW12598   1.910   5.266   1.343
 4075SOL    HW112599   1.864   5.337   1.289
 4075SOL    HW212600   2.009   5.278   1.337
 4076SOL     OW12601   2.211   4.899   0.463
 4076SOL    HW112602   2.214   4.976   0.399
 4076SOL    HW212603   2.192   4.815   0.413
 4077SOL     OW12604   2.400   4.231   0.884
 4077SOL    HW112605   2.427   4.273   0.796
 4077SOL    HW212606   2.465   4.260   0.955
 4078SOL     OW12607   3.030   5.085   0.447
 4078SOL    HW112608   3.095   5.151   0.483
 4078SOL    HW212609   2.937   5.113   0.470
 4079SOL     OW12610   3.191   5.217   1.157
 4079SOL    HW112611   3.236   5.217   1.246
 4079SOL    HW212612   3.128   5.139   1.151
 4080SOL     OW12613   3.342   4.231   0.560
 4080SOL    HW112614   3.252   4.236   0.604
 4080SOL    HW212615   3.354   4.308   0.498
 4081SOL     OW12616   2.184   5.259   1.289
 4081SOL    HW112617   2.178   5.203   1.207
 4081SOL    HW212618   2.280   5.281   1.308
 4082SOL     OW12619   2.341   4.408   1.680
 4082SOL    HW112620   2.376   4.454   1.598
 4082SOL    HW212621   2.409   4.345   1.715
 4083SOL     OW12622   3.487   4.525   1.702
 4083SOL    HW112623   3.394   4.561   1.698
 4083SOL    HW212624   3.538   4.555   1.622
 4084SOL     OW12625   2.862   3.859   1.770
 4084SOL    HW112626   2.918   3.941   1.758
 4084SOL    HW212627   2.910   3.780   1.733
 4085SOL     OW12628   2.373   3.782   1.786
 4085SOL    HW112629   2.318   3.727   1.723
 4085SOL    HW212630   2.321   3.864   1.812
 4086SOL     OW12631   2.443   4.590   1.047
 4086SOL    HW112632   2.487   4.680   1.049
 4086SOL    HW212633   2.392   4.576   1.131
 4087SOL     OW12634   3.160   4.559   1.059
 4087SOL    HW112635   3.070   4.543   1.018
 4087SOL    HW212636   3.220   4.482   1.038
 4088SOL     OW12637   3.060   4.250   0.276
 4088SOL    HW112638   3.066   4.167   0.332
 4088SOL    HW212639   3.007   4.320   0.324
 4089SOL     OW12640   2.142   3.887   1.225
 4089SOL    HW112641   2.119   3.920   1.316
 4089SOL    HW212642   2.119   3.790   1.217
 4090SOL     OW12643   1.918   5.006   1.253
 4090SOL    HW112644   1.944   4.948   1.331
 4090SOL    HW212645   1.904   5.100   1.284
 4091SOL     OW12646   2.577   4.344   1.063
 4091SOL    HW112647   2.653   4.326   1.000
 4091SOL    HW212648   2.537   4.434   1.042
 4092SOL     OW12649   3.644   4.685   1.867
 4092SOL    HW112650   3.588   4.621   1.814
 4092SOL    HW212651   3.591   4.720   1.944
 4093SOL     OW12652   2.184   3.793   0.628
 4093SOL    HW112653   2.142   3.881   0.648
 4093SOL    HW212654   2.197   3.742   0.714
 4094SOL     OW12655   3.447   4.040   0.398
 4094SOL    HW112656   3.524   3.994   0.443
 4094SOL    HW212657   3.407   4.107   0.460
 4095SOL     OW12658   2.894   4.491   0.988
 4095SOL    HW112659   2.853   4.509   1.078
 4095SOL    HW212660   2.872   4.398   0.960
 4096SOL     OW12661   2.850   5.288   1.766
 4096SOL    HW112662   2.819   5.340   1.686
 4096SOL    HW212663   2.888   5.201   1.737
 4097SOL     OW12664   3.702   5.191   1.615
 4097SOL    HW112665   3.728   5.224   1.524
 4097SOL    HW212666   3.779   5.203   1.678
 4098SOL     OW12667   2.234   4.628   1.816
 4098SOL    HW112668   2.307   4.664   1.874
 4098SOL    HW212669   2.267   4.548   1.766
 4099SOL     OW12670   3.375   3.967   0.134
 4099SOL    HW112671   3.327   3.880   0.147
 4099SOL    HW212672   3.406   4.000   0.223
 4100SOL     OW12673   3.095   4.518   0.022
 4100SOL    HW112674   3.167   4.450   0.036
 4100SOL    HW212675   3.112   4.567   6.436
 4101SOL     OW12676   2.924   5.116   0.887
 4101SOL    HW112677   2.917   5.046   0.815
 4101SOL    HW212678   2.977   5.193   0.854
 4102SOL     OW12679   2.187   4.551   0.929
 4102SOL    HW112680   2.283   4.567   0.951
 4102SOL    HW212681   2.162   4.456   0.951
 4103SOL     OW12682   2.157   4.272   0.996
 4103SOL    HW112683   2.109   4.184   0.991
 4103SOL    HW212684   2.244   4.264   0.948
 4104SOL     OW12685   2.998   4.091   1.714
 4104SOL    HW112686   2.946   4.136   1.786
 4104SOL    HW212687   3.082   4.141   1.696
 4105SOL     OW12688   3.037   3.925   1.500
 4105SOL    HW112689   3.020   3.988   1.576
 4105SOL    HW212690   3.079   3.975   1.424
 4106SOL     OW12691   1.887   5.033   0.174
 4106SOL    HW112692   1.793   5.064   0.162
 4106SOL    HW212693   1.887   4.935   0.194
 4107SOL     OW12694   1.954   5.474   0.964
 4107SOL    HW112695   1.927   5.389   0.918
 4107SOL    HW212696   2.041   5.506   0.926
 4108SOL     OW12697   2.337   5.294   0.912
 4108SOL    HW112698   2.407   5.357   0.945
 4108SOL    HW212699   2.379   5.226   0.851
 4109SOL     OW12700   2.751   4.519   1.217
 4109SOL    HW112701   2.809   4.484   1.290
 4109SOL    HW212702   2.679   4.452   1.197
 4110SOL     OW12703   1.913   4.336   1.142
 4110SOL    HW112704   1.994   4.325   1.085
 4110SOL    HW212705   1.931   4.299   1.233
 4111SOL     OW12706   2.079   4.331   1.734
 4111SOL    HW112707   2.176   4.346   1.716
 4111SOL    HW212708   2.025   4.388   1.672
 4112SOL     OW12709   3.251   4.653   1.646
 4112SOL    HW112710   3.272   4.750   1.642
 4112SOL    HW212711   3.234   4.618   1.554
 4113SOL     OW12712   2.690   4.287   0.331
 4113SOL    HW112713   2.674   4.200   0.283
 4113SOL    HW212714   2.612   4.348   0.316
 4114SOL     OW12715   3.518   4.310   1.178
 4114SOL    HW112716   3.525   4.241   1.249
 4114SOL    HW212717   3.609   4.347   1.159
 4115SOL     OW12718   2.065   5.248   1.714
 4115SOL    HW112719   2.042   5.318   1.781
 4115SOL    HW212720   2.073   5.159   1.760
 4116SOL     OW12721   2.588   4.126   1.240
 4116SOL    HW112722   2.522   4.052   1.229
 4116SOL    HW212723   2.566   4.200   1.176
 4117SOL     OW12724   2.731   5.401   1.508
 4117SOL    HW112725   2.712   5.331   1.440
 4117SOL    HW212726   2.768   5.483   1.464
 4118SOL     OW12727   2.342   4.245   0.152
 4118SOL    HW112728   2.390   4.320   0.198
 4118SOL    HW212729   2.244   4.266   0.147
 4119SOL     OW12730   1.991   4.847   1.477
 4119SOL    HW112731   1.996   4.816   1.572
 4119SOL    HW212732   2.017   4.772   1.416
 4120SOL     OW12733   3.142   4.779   1.216
 4120SOL    HW112734   3.151   4.702   1.152
 4120SOL    HW212735   3.102   4.857   1.169
 4121SOL     OW12736   3.122   4.561   0.296
 4121SOL    HW112737   3.053   4.525   0.359
 4121SOL    HW212738   3.102   4.530   0.203
 4122SOL     OW12739   3.646   5.430   1.205
 4122SOL    HW112740   3.698   5.478   1.134
 4122SOL    HW212741   3.602   5.350   1.166
 4123SOL     OW12742   3.168   5.473   1.063
 4123SOL    HW112743   3.257   5.497   1.024
 4123SOL    HW212744   3.175   5.385   1.109
 4124SOL     OW12745   1.944   4.991   0.983
 4124SOL    HW112746   1.927   4.998   1.082
 4124SOL    HW212747   1.884   4.922   0.944
 4125SOL     OW12748   2.537   5.388   1.703
 4125SOL    HW112749   2.463   5.454   1.694
 4125SOL    HW212750   2.605   5.404   1.631
 4126SOL     OW12751   2.773   3.779   0.040
 4126SOL    HW112752   2.787   3.740   6.449
 4126SOL    HW212753   2.850   3.754   0.100
 4127SOL     OW12754   3.641   3.902   0.528
 4127SOL    HW112755   3.695   3.882   0.447
 4127SOL    HW212756   3.603   3.817   0.564
 4128SOL     OW12757   3.194   5.295   0.539
 4128SOL    HW112758   3.244   5.318   0.455
 4128SOL    HW212759   3.143   5.375   0.570
 4129SOL     OW12760   1.980   5.499   1.834
 4129SOL    HW112761   1.920   5.430   1.874
 4129SOL    HW212762   2.031   5.545   1.907
 4130SOL     OW12763   3.089   4.670   0.768
 4130SOL    HW112764   3.156   4.596   0.760
 4130SOL    HW212765   3.086   4.721   0.682
 4131SOL     OW12766   2.622   4.990   1.405
 4131SOL    HW112767   2.597   5.034   1.491
 4131SOL    HW212768   2.546   5.000   1.340
 4132SOL     OW12769   2.580   5.336   0.170
 4132SOL    HW112770   2.567   5.423   0.122
 4132SOL    HW212771   2.499   5.279   0.159
 4133SOL     OW12772   3.467   5.454   1.417
 4133SOL    HW112773   3.530   5.448   1.339
 4133SOL    HW212774   3.437   5.549   1.428
 4134SOL     OW12775   3.677   3.888   0.983
 4134SOL    HW112776   3.717   3.801   0.954
 4134SOL    HW212777   3.586   3.898   0.943
 4135SOL     OW12778   2.085   4.030   0.713
 4135SOL    HW112779   1.989   4.041   0.687
 4135SOL    HW212780   2.093   4.034   0.813
 4136SOL     OW12781   3.066   5.261   0.036
 4136SOL    HW112782   3.048   5.186   0.100
 4136SOL    HW212783   3.033   5.236   6.445
 4137SOL     OW12784   2.645   4.717   1.395
 4137SOL    HW112785   2.684   4.686   1.308
 4137SOL    HW212786   2.640   4.817   1.396
 4138SOL     OW12787   2.801   4.669   0.333
 4138SOL    HW112788   2.845   4.696   0.247
 4138SOL    HW212789   2.842   4.583   0.365
 4139SOL     OW12790   3.333   5.281   6.480
 4139SOL    HW112791   3.236   5.282   0.003
 4139SOL    HW212792   3.374   5.369   0.004
 4140SOL     OW12793   2.206   5.036   1.483
 4140SOL    HW112794   2.195   5.114   1.421
 4140SOL    HW212795   2.129   4.973   1.472
 4141SOL     OW12796   3.471   5.015   1.299
 4141SOL    HW112797   3.529   4.982   1.374
 4141SOL    HW212798   3.404   5.080   1.335
 4142SOL     OW12799   2.871   4.908   0.724
 4142SOL    HW112800   2.831   4.835   0.779
 4142SOL    HW212801   2.937   4.869   0.660
 4143SOL     OW12802   2.883   3.977   0.962
 4143SOL    HW112803   2.891   3.944   0.868
 4143SOL    HW212804   2.875   3.900   1.025
 4144SOL     OW12805   2.410   5.223   0.507
 4144SOL    HW112806   2.455   5.158   0.446
 4144SOL    HW212807   2.311   5.218   0.495
 4145SOL     OW12808   3.626   4.107   1.391
 4145SOL    HW112809   3.704   4.169   1.396
 4145SOL    HW212810   3.652   4.025   1.341
 4146SOL     OW12811   2.146   5.095   0.261
 4146SOL    HW112812   2.057   5.072   0.221
 4146SOL    HW212813   2.132   5.146   0.346
 4147SOL     OW12814   1.995   4.749   1.735
 4147SOL    HW112815   1.912   4.716   1.780
 4147SOL    HW212816   2.074   4.697   1.766
 4148SOL     OW12817   2.562   3.931   1.513
 4148SOL    HW112818   2.647   3.907   1.466
 4148SOL    HW212819   2.582   3.958   1.607
 4149SOL     OW12820   3.239   4.577   1.386
 4149SOL    HW112821   3.182   4.641   1.334
 4149SOL    HW212822   3.329   4.572   1.344
 4150SOL     OW12823   1.871   3.843   0.268
 4150SOL    HW112824   1.845   3.890   0.183
 4150SOL    HW212825   1.970   3.829   0.269
 4151SOL     OW12826   2.979   5.038   0.177
 4151SOL    HW112827   2.889   5.064   0.142
 4151SOL    HW212828   2.980   5.046   0.276
 4152SOL     OW12829   2.488   4.507   1.465
 4152SOL    HW112830   2.540   4.591   1.450
 4152SOL    HW212831   2.550   4.429   1.465
 4153SOL     OW12832   3.409   5.529   0.949
 4153SOL    HW112833   3.421   5.622   0.914
 4153SOL    HW212834   3.485   5.472   0.919
 4154SOL     OW12835   2.573   4.261   1.731
 4154SOL    HW112836   2.637   4.323   1.775
 4154SOL    HW212837   2.596   4.166   1.754
 4155SOL     OW12838   3.335   4.913   1.619
 4155SOL    HW112839   3.326   4.934   1.716
 4155SOL    HW212840   3.430   4.927   1.590
 4156SOL     OW12841   2.165   5.457   1.557
 4156SOL    HW112842   2.081   5.510   1.548
 4156SOL    HW212843   2.144   5.368   1.598
 4157SOL     OW12844   3.479   4.586   1.257
 4157SOL    HW112845   3.495   4.501   1.207
 4157SOL    HW212846   3.473   4.662   1.192
 4158SOL     OW12847   3.066   4.047   0.463
 4158SOL    HW112848   3.132   3.973   0.456
 4158SOL    HW212849   3.081   4.097   0.548
 4159SOL     OW12850   2.500   4.395   0.676
 4159SOL    HW112851   2.527   4.489   0.698
 4159SOL    HW212852   2.425   4.396   0.610
 4160SOL     OW12853   3.607   4.081   1.669
 4160SOL    HW112854   3.614   4.091   1.570
 4160SOL    HW212855   3.529   4.023   1.691
 4161SOL     OW12856   3.608   4.642   1.488
 4161SOL    HW112857   3.594   4.739   1.507
 4161SOL    HW212858   3.565   4.618   1.401
 4162SOL     OW12859   2.750   5.147   0.061
 4162SOL    HW112860   2.698   5.217   0.110
 4162SOL    HW212861   2.761   5.173   6.466
 4163SOL     OW12862   2.518   5.486   0.968
 4163SOL    HW112863   2.493   5.583   0.967
 4163SOL    HW212864   2.618   5.478   0.967
 4164SOL     OW12865   2.754   4.716   0.893
 4164SOL    HW112866   2.819   4.646   0.921
 4164SOL    HW212867   2.703   4.750   0.972
 4165SOL     OW12868   2.924   4.718   0.089
 4165SOL    HW112869   2.970   4.801   0.059
 4165SOL    HW212870   2.981   4.638   0.070
 4166SOL     OW12871   3.618   5.350   0.872
 4166SOL    HW112872   3.563   5.314   0.797
 4166SOL    HW212873   3.612   5.289   0.951
 4167SOL     OW12874   2.055   4.995   1.836
 4167SOL    HW112875   2.030   4.909   1.791
 4167SOL    HW212876   1.999   5.007   1.918
 4168SOL     OW12877   2.039   4.985   0.661
 4168SOL    HW112878   2.063   4.936   0.746
 4168SOL    HW212879   2.093   4.948   0.586
 4169SOL     OW12880   2.539   5.119   1.632
 4169SOL    HW112881   2.453   5.081   1.664
 4169SOL    HW212882   2.546   5.215   1.658
 4170SOL     OW12883   3.684   3.882   1.255
 4170SOL    HW112884   3.702   3.785   1.271
 4170SOL    HW212885   3.674   3.898   1.157
 4171SOL     OW12886   2.266   4.150   0.537
 4171SOL    HW112887   2.295   4.085   0.467
 4171SOL    HW212888   2.200   4.105   0.598
 4172SOL     OW12889   3.547   5.198   1.095
 4172SOL    HW112890   3.470   5.176   1.036
 4172SOL    HW212891   3.550   5.133   1.171
 4173SOL     OW12892   2.213   4.263   1.278
 4173SOL    HW112893   2.271   4.199   1.329
 4173SOL    HW212894   2.215   4.240   1.180
 4174SOL     OW12895   2.646   5.325   0.692
 4174SOL    HW112896   2.598   5.386   0.628
 4174SOL    HW212897   2.584   5.250   0.718
 4175SOL     OW12898   3.252   3.943   1.117
 4175SOL    HW112899   3.219   3.849   1.125
 4175SOL    HW212900   3.219   3.997   1.195
 4176SOL     OW12901   2.883   3.758   1.136
 4176SOL    HW112902   2.829   3.675   1.143
 4176SOL    HW212903   2.979   3.735   1.120
 4177SOL     OW12904   2.573   5.029   0.395
 4177SOL    HW112905   2.577   4.935   0.429
 4177SOL    HW212906   2.655   5.078   0.424
 4178SOL     OW12907   2.466   5.281   1.286
 4178SOL    HW112908   2.449   5.371   1.325
 4178SOL    HW212909   2.558   5.278   1.247
 4179SOL     OW12910   3.242   3.734   0.180
 4179SOL    HW112911   3.289   3.661   0.131
 4179SOL    HW212912   3.144   3.718   0.178
 4180SOL     OW12913   3.100   4.205   0.685
 4180SOL    HW112914   3.047   4.291   0.686
 4180SOL    HW212915   3.115   4.175   0.780
 4181SOL     OW12916   3.420   3.927   0.900
 4181SOL    HW112917   3.366   3.940   0.983
 4181SOL    HW212918   3.435   4.015   0.855
 4182SOL     OW12919   1.889   4.757   0.247
 4182SOL    HW112920   1.989   4.755   0.260
 4182SOL    HW212921   1.853   4.665   0.257
 4183SOL     OW12922   2.778   5.424   0.339
 4183SOL    HW112923   2.704   5.395   0.278
 4183SOL    HW212924   2.745   5.497   0.399
 4184SOL     OW12925   2.054   4.365   2.009
 4184SOL    HW112926   1.964   4.329   2.036
 4184SOL    HW212927   2.061   4.363   1.909
 4185SOL     OW12928   2.035   4.012   2.845
 4185SOL    HW112929   2.080   3.974   2.926
 4185SOL    HW212930   1.946   3.968   2.832
 4186SOL     OW12931   1.821   4.133   2.491
 4186SOL    HW112932   1.738   4.156   2.542
 4186SOL    HW212933   1.802   4.056   2.430
 4187SOL     OW12934   2.363   4.919   3.015
 4187SOL    HW112935   2.287   4.965   2.969
 4187SOL    HW212936   2.393   4.974   3.093
 4188SOL     OW12937   3.480   5.200   2.560
 4188SOL    HW112938   3.421   5.168   2.634
 4188SOL    HW212939   3.425   5.214   2.478
 4189SOL     OW12940   2.980   4.431   2.540
 4189SOL    HW112941   3.029   4.512   2.506
 4189SOL    HW212942   2.940   4.452   2.629
 4190SOL     OW12943   3.672   4.283   2.065
 4190SOL    HW112944   3.629   4.295   1.975
 4190SOL    HW212945   3.619   4.219   2.119
 4191SOL     OW12946   2.583   4.806   2.906
 4191SOL    HW112947   2.501   4.839   2.951
 4191SOL    HW212948   2.631   4.883   2.863
 4192SOL     OW12949   2.730   4.422   3.656
 4192SOL    HW112950   2.710   4.484   3.732
 4192SOL    HW212951   2.752   4.475   3.574
 4193SOL     OW12952   2.546   4.641   2.514
 4193SOL    HW112953   2.619   4.654   2.582
 4193SOL    HW212954   2.470   4.702   2.535
 4194SOL     OW12955   2.544   4.751   3.690
 4194SOL    HW112956   2.570   4.802   3.773
 4194SOL    HW212957   2.467   4.798   3.645
 4195SOL     OW12958   2.161   5.053   2.879
 4195SOL    HW112959   2.086   4.989   2.860
 4195SOL    HW212960   2.202   5.082   2.793
 4196SOL     OW12961   3.337   5.194   3.214
 4196SOL    HW112962   3.380   5.284   3.211
 4196SOL    HW212963   3.273   5.190   3.291
 4197SOL     OW12964   2.332   4.067   3.262
 4197SOL    HW112965   2.412   4.013   3.288
 4197SOL    HW212966   2.250   4.025   3.299
 4198SOL     OW12967   3.480   4.195   2.590
 4198SOL    HW112968   3.466   4.246   2.505
 4198SOL    HW212969   3.433   4.240   2.665
 4199SOL     OW12970   2.061   5.392   2.291
 4199SOL    HW112971   2.095   5.457   2.360
 4199SOL    HW212972   2.138   5.354   2.240
 4200SOL     OW12973   2.952   5.012   3.510
 4200SOL    HW112974   2.997   5.005   3.599
 4200SOL    HW212975   2.895   4.931   3.495
 4201SOL     OW12976   2.106   5.139   2.411
 4201SOL    HW112977   2.051   5.220   2.388
 4201SOL    HW212978   2.046   5.069   2.451
 4202SOL     OW12979   2.132   4.775   2.721
 4202SOL    HW112980   2.155   4.680   2.743
 4202SOL    HW212981   2.065   4.810   2.787
 4203SOL     OW12982   2.566   5.255   3.398
 4203SOL    HW112983   2.532   5.308   3.476
 4203SOL    HW212984   2.654   5.292   3.368
 4204SOL     OW12985   2.427   4.701   2.016
 4204SOL    HW112986   2.478   4.753   1.948
 4204SOL    HW212987   2.465   4.719   2.107
 4205SOL     OW12988   3.557   3.781   3.383
 4205SOL    HW112989   3.552   3.810   3.287
 4205SOL    HW212990   3.500   3.841   3.439
 4206SOL     OW12991   1.943   4.380   2.428
 4206SOL    HW112992   1.908   4.287   2.444
 4206SOL    HW212993   1.951   4.428   2.515
 4207SOL     OW12994   3.760   5.478   2.151
 4207SOL    HW112995   3.829   5.470   2.222
 4207SOL    HW212996   3.755   5.573   2.119
 4208SOL     OW12997   1.852   5.295   1.950
 4208SOL    HW112998   1.788   5.218   1.947
 4208SOL    HW212999   1.841   5.345   2.036
 4209SOL     OW13000   3.556   4.611   2.522
 4209SOL    HW113001   3.648   4.598   2.561
 4209SOL    HW213002   3.561   4.675   2.446
 4210SOL     OW13003   3.555   4.824   2.328
 4210SOL    HW113004   3.637   4.804   2.274
 4210SOL    HW213005   3.580   4.882   2.406
 4211SOL     OW13006   1.926   4.456   3.379
 4211SOL    HW113007   1.980   4.509   3.313
 4211SOL    HW213008   1.838   4.501   3.394
 4212SOL     OW13009   2.523   5.021   2.552
 4212SOL    HW113010   2.465   4.939   2.554
 4212SOL    HW213011   2.499   5.076   2.472
 4213SOL     OW13012   3.145   4.944   3.236
 4213SOL    HW113013   3.146   4.863   3.178
 4213SOL    HW213014   3.217   4.935   3.305
 4214SOL     OW13015   2.689   3.779   2.341
 4214SOL    HW113016   2.741   3.864   2.332
 4214SOL    HW213017   2.592   3.800   2.357
 4215SOL     OW13018   2.039   4.618   3.192
 4215SOL    HW113019   2.130   4.591   3.161
 4215SOL    HW213020   1.990   4.662   3.117
 4216SOL     OW13021   3.439   4.769   2.072
 4216SOL    HW113022   3.361   4.710   2.092
 4216SOL    HW213023   3.482   4.798   2.157
 4217SOL     OW13024   3.318   5.538   3.485
 4217SOL    HW113025   3.228   5.518   3.448
 4217SOL    HW213026   3.373   5.455   3.487
 4218SOL     OW13027   2.226   3.973   3.714
 4218SOL    HW113028   2.256   4.052   3.768
 4218SOL    HW213029   2.138   3.993   3.672
 4219SOL     OW13030   3.343   5.077   2.773
 4219SOL    HW113031   3.283   5.102   2.849
 4219SOL    HW213032   3.321   4.985   2.742
 4220SOL     OW13033   3.555   5.533   2.402
 4220SOL    HW113034   3.531   5.476   2.324
 4220SOL    HW213035   3.532   5.485   2.487
 4221SOL     OW13036   2.420   4.434   2.142
 4221SOL    HW113037   2.426   4.522   2.096
 4221SOL    HW213038   2.350   4.438   2.213
 4222SOL     OW13039   3.174   4.098   2.806
 4222SOL    HW113040   3.080   4.066   2.801
 4222SOL    HW213041   3.227   4.036   2.864
 4223SOL     OW13042   3.506   5.383   2.169
 4223SOL    HW113043   3.601   5.410   2.154
 4223SOL    HW213044   3.459   5.378   2.080
 4224SOL     OW13045   2.600   4.291   3.247
 4224SOL    HW113046   2.591   4.265   3.343
 4224SOL    HW213047   2.584   4.211   3.189
 4225SOL     OW13048   3.235   4.174   3.519
 4225SOL    HW113049   3.235   4.232   3.600
 4225SOL    HW213050   3.309   4.107   3.526
 4226SOL     OW13051   2.788   4.548   3.408
 4226SOL    HW113052   2.839   4.473   3.365
 4226SOL    HW213053   2.740   4.600   3.338
 4227SOL     OW13054   2.855   4.126   3.068
 4227SOL    HW113055   2.759   4.099   3.080
 4227SOL    HW213056   2.871   4.150   2.973
 4228SOL     OW13057   2.891   4.396   2.278
 4228SOL    HW113058   2.913   4.398   2.376
 4228SOL    HW213059   2.799   4.361   2.266
 4229SOL     OW13060   1.942   4.527   2.656
 4229SOL    HW113061   2.033   4.523   2.695
 4229SOL    HW213062   1.883   4.584   2.713
 4230SOL     OW13063   1.838   5.541   3.556
 4230SOL    HW113064   1.892   5.525   3.638
 4230SOL    HW213065   1.755   5.486   3.558
 4231SOL     OW13066   2.710   4.064   2.089
 4231SOL    HW113067   2.766   4.108   2.018
 4231SOL    HW213068   2.654   3.993   2.047
 4232SOL     OW13069   3.514   4.305   3.675
 4232SOL    HW113070   3.504   4.393   3.629
 4232SOL    HW213071   3.549   4.237   3.610
 4233SOL     OW13072   3.284   4.866   2.415
 4233SOL    HW113073   3.376   4.850   2.379
 4233SOL    HW213074   3.236   4.931   2.356
 4234SOL     OW13075   2.434   3.892   2.734
 4234SOL    HW113076   2.421   3.886   2.833
 4234SOL    HW213077   2.433   3.988   2.705
 4235SOL     OW13078   2.893   5.128   2.242
 4235SOL    HW113079   2.849   5.208   2.203
 4235SOL    HW213080   2.861   5.114   2.336
 4236SOL     OW13081   2.363   5.584   2.888
 4236SOL    HW113082   2.359   5.485   2.876
 4236SOL    HW213083   2.303   5.628   2.820
 4237SOL     OW13084   3.677   4.802   2.757
 4237SOL    HW113085   3.649   4.856   2.677
 4237SOL    HW213086   3.598   4.788   2.817
 4238SOL     OW13087   3.140   5.218   3.416
 4238SOL    HW113088   3.074   5.143   3.416
 4238SOL    HW213089   3.093   5.303   3.391
 4239SOL     OW13090   2.144   4.615   2.111
 4239SOL    HW113091   2.219   4.646   2.052
 4239SOL    HW213092   2.113   4.525   2.082
 4240SOL     OW13093   3.323   4.487   2.565
 4240SOL    HW113094   3.322   4.433   2.650
 4240SOL    HW213095   3.410   4.537   2.559
 4241SOL     OW13096   2.326   4.919   3.621
 4241SOL    HW113097   2.299   4.934   3.525
 4241SOL    HW213098   2.245   4.894   3.674
 4242SOL     OW13099   3.101   5.518   2.092
 4242SOL    HW113100   3.044   5.510   2.174
 4242SOL    HW213101   3.087   5.437   2.035
 4243SOL     OW13102   2.081   3.970   3.322
 4243SOL    HW113103   2.032   4.057   3.316
 4243SOL    HW213104   2.026   3.905   3.374
 4244SOL     OW13105   3.521   5.112   1.954
 4244SOL    HW113106   3.483   5.204   1.950
 4244SOL    HW213107   3.451   5.045   1.928
 4245SOL     OW13108   2.286   5.313   2.166
 4245SOL    HW113109   2.322   5.403   2.142
 4245SOL    HW213110   2.301   5.249   2.090
 4246SOL     OW13111   3.307   3.854   2.334
 4246SOL    HW113112   3.292   3.817   2.242
 4246SOL    HW213113   3.398   3.895   2.338
 4247SOL     OW13114   1.961   5.171   3.024
 4247SOL    HW113115   2.041   5.143   2.970
 4247SOL    HW213116   1.883   5.183   2.964
 4248SOL     OW13117   2.959   5.290   2.516
 4248SOL    HW113118   3.042   5.296   2.572
 4248SOL    HW213119   2.913   5.203   2.534
 4249SOL     OW13120   2.224   4.395   2.339
 4249SOL    HW113121   2.228   4.295   2.348
 4249SOL    HW213122   2.130   4.425   2.352
 4250SOL     OW13123   3.392   3.934   3.556
 4250SOL    HW113124   3.403   3.948   3.654
 4250SOL    HW213125   3.305   3.888   3.537
 4251SOL     OW13126   2.540   3.849   1.996
 4251SOL    HW113127   2.609   3.781   2.022
 4251SOL    HW213128   2.478   3.809   1.929
 4252SOL     OW13129   2.607   3.979   3.595
 4252SOL    HW113130   2.690   3.926   3.608
 4252SOL    HW213131   2.561   3.991   3.683
 4253SOL     OW13132   2.699   5.103   3.032
 4253SOL    HW113133   2.703   5.089   2.934
 4253SOL    HW213134   2.789   5.131   3.066
 4254SOL     OW13135   3.179   4.294   3.277
 4254SOL    HW113136   3.208   4.262   3.368
 4254SOL    HW213137   3.211   4.387   3.263
 4255SOL     OW13138   2.703   5.020   2.771
 4255SOL    HW113139   2.794   5.037   2.734
 4255SOL    HW213140   2.635   5.030   2.699
 4256SOL     OW13141   2.787   4.228   2.735
 4256SOL    HW113142   2.752   4.225   2.641
 4256SOL    HW213143   2.834   4.142   2.755
 4257SOL     OW13144   2.424   3.818   2.371
 4257SOL    HW113145   2.359   3.818   2.447
 4257SOL    HW213146   2.402   3.892   2.307
 4258SOL     OW13147   3.312   4.940   1.893
 4258SOL    HW113148   3.352   4.872   1.954
 4258SOL    HW213149   3.220   4.963   1.926
 4259SOL     OW13150   2.142   3.777   2.047
 4259SOL    HW113151   2.189   3.853   2.002
 4259SOL    HW213152   2.207   3.726   2.103
 4260SOL     OW13153   2.847   4.000   2.319
 4260SOL    HW113154   2.800   4.027   2.234
 4260SOL    HW213155   2.945   4.020   2.310
 4261SOL     OW13156   2.913   4.352   3.259
 4261SOL    HW113157   2.866   4.271   3.224
 4261SOL    HW213158   3.011   4.333   3.268
 4262SOL     OW13159   3.203   5.351   2.634
 4262SOL    HW113160   3.220   5.406   2.551
 4262SOL    HW213161   3.276   5.368   2.700
 4263SOL     OW13162   2.339   4.816   2.543
 4263SOL    HW113163   2.272   4.810   2.618
 4263SOL    HW213164   2.291   4.810   2.455
 4264SOL     OW13165   3.223   5.497   2.402
 4264SOL    HW113166   3.269   5.577   2.365
 4264SOL    HW213167   3.126   5.500   2.376
 4265SOL     OW13168   2.874   4.215   1.923
 4265SOL    HW113169   2.838   4.301   1.888
 4265SOL    HW213170   2.946   4.234   1.990
 4266SOL     OW13171   1.974   4.223   3.246
 4266SOL    HW113172   2.064   4.234   3.206
 4266SOL    HW213173   1.952   4.303   3.302
 4267SOL     OW13174   2.395   3.883   3.003
 4267SOL    HW113175   2.424   3.812   3.068
 4267SOL    HW213176   2.298   3.903   3.018
 4268SOL     OW13177   2.715   4.188   2.480
 4268SOL    HW113178   2.659   4.242   2.417
 4268SOL    HW213179   2.765   4.118   2.429
 4269SOL     OW13180   2.921   3.836   2.556
 4269SOL    HW113181   2.900   3.894   2.477
 4269SOL    HW213182   2.856   3.760   2.559
 4270SOL     OW13183   3.273   4.820   2.705
 4270SOL    HW113184   3.223   4.736   2.728
 4270SOL    HW213185   3.279   4.828   2.605
 4271SOL     OW13186   3.322   4.332   2.797
 4271SOL    HW113187   3.262   4.253   2.805
 4271SOL    HW213188   3.390   4.330   2.871
 4272SOL     OW13189   3.666   4.497   2.235
 4272SOL    HW113190   3.736   4.476   2.304
 4272SOL    HW213191   3.669   4.428   2.163
 4273SOL     OW13192   2.334   5.120   1.981
 4273SOL    HW113193   2.272   5.070   2.041
 4273SOL    HW213194   2.331   5.080   1.889
 4274SOL     OW13195   3.633   4.969   2.542
 4274SOL    HW113196   3.732   4.982   2.538
 4274SOL    HW213197   3.588   5.059   2.547
 4275SOL     OW13198   3.249   4.314   1.923
 4275SOL    HW113199   3.194   4.284   2.001
 4275SOL    HW213200   3.345   4.292   1.940
 4276SOL     OW13201   2.369   3.992   2.173
 4276SOL    HW113202   2.431   3.944   2.109
 4276SOL    HW213203   2.337   4.076   2.130
 4277SOL     OW13204   3.630   4.928   3.368
 4277SOL    HW113205   3.720   4.888   3.356
 4277SOL    HW213206   3.639   5.018   3.411
 4278SOL     OW13207   2.917   5.103   3.218
 4278SOL    HW113208   2.843   5.050   3.260
 4278SOL    HW213209   3.002   5.051   3.221
 4279SOL     OW13210   3.506   5.338   3.476
 4279SOL    HW113211   3.500   5.374   3.382
 4279SOL    HW213212   3.581   5.272   3.482
 4280SOL     OW13213   2.958   4.932   2.967
 4280SOL    HW113214   2.866   4.945   3.004
 4280SOL    HW213215   2.963   4.968   2.874
 4281SOL     OW13216   3.456   4.788   2.920
 4281SOL    HW113217   3.455   4.859   2.990
 4281SOL    HW213218   3.383   4.805   2.854
 4282SOL     OW13219   2.780   3.828   3.222
 4282SOL    HW113220   2.795   3.828   3.123
 4282SOL    HW213221   2.866   3.851   3.269
 4283SOL     OW13222   2.787   4.780   3.550
 4283SOL    HW113223   2.697   4.778   3.593
 4283SOL    HW213224   2.800   4.698   3.494
 4284SOL     OW13225   2.573   4.738   2.251
 4284SOL    HW113226   2.551   4.702   2.342
 4284SOL    HW213227   2.663   4.706   2.224
 4285SOL     OW13228   2.278   4.515   3.112
 4285SOL    HW113229   2.345   4.529   3.185
 4285SOL    HW213230   2.250   4.420   3.110
 4286SOL     OW13231   3.109   4.064   3.154
 4286SOL    HW113232   3.144   4.148   3.194
 4286SOL    HW213233   3.016   4.079   3.120
 4287SOL     OW13234   1.786   5.199   3.270
 4287SOL    HW113235   1.753   5.201   3.175
 4287SOL    HW213236   1.885   5.187   3.270
 4288SOL     OW13237   2.179   4.801   2.315
 4288SOL    HW113238   2.183   4.881   2.256
 4288SOL    HW213239   2.171   4.718   2.260
 4289SOL     OW13240   2.410   4.168   2.692
 4289SOL    HW113241   2.414   4.226   2.611
 4289SOL    HW213242   2.466   4.208   2.764
 4290SOL     OW13243   3.156   5.054   2.252
 4290SOL    HW113244   3.218   5.128   2.277
 4290SOL    HW213245   3.061   5.085   2.258
 4291SOL     OW13246   3.182   5.118   2.991
 4291SOL    HW113247   3.231   5.130   3.077
 4291SOL    HW213248   3.107   5.053   3.004
 4292SOL     OW13249   3.454   4.350   2.360
 4292SOL    HW113250   3.385   4.402   2.410
 4292SOL    HW213251   3.521   4.414   2.321
 4293SOL     OW13252   2.059   5.167   3.285
 4293SOL    HW113253   2.061   5.202   3.191
 4293SOL    HW213254   2.074   5.243   3.348
 4294SOL     OW13255   2.332   4.393   3.501
 4294SOL    HW113256   2.364   4.454   3.428
 4294SOL    HW213257   2.402   4.324   3.519
 4295SOL     OW13258   3.486   4.540   3.542
 4295SOL    HW113259   3.392   4.575   3.538
 4295SOL    HW213260   3.534   4.566   3.458
 4296SOL     OW13261   2.830   3.828   3.656
 4296SOL    HW113262   2.905   3.885   3.624
 4296SOL    HW213263   2.841   3.734   3.621
 4297SOL     OW13264   2.350   3.752   3.598
 4297SOL    HW113265   2.291   3.714   3.527
 4297SOL    HW213266   2.313   3.839   3.630
 4298SOL     OW13267   2.445   4.558   2.896
 4298SOL    HW113268   2.493   4.646   2.897
 4298SOL    HW213269   2.384   4.553   2.975
 4299SOL     OW13270   3.153   4.572   2.825
 4299SOL    HW113271   3.059   4.538   2.817
 4299SOL    HW213272   3.217   4.496   2.819
 4300SOL     OW13273   3.064   4.251   2.122
 4300SOL    HW113274   3.092   4.174   2.180
 4300SOL    HW213275   3.009   4.315   2.176
 4301SOL     OW13276   2.127   3.886   3.064
 4301SOL    HW113277   2.110   3.915   3.158
 4301SOL    HW213278   2.087   3.796   3.050
 4302SOL     OW13279   1.915   4.912   3.133
 4302SOL    HW113280   1.932   4.881   3.227
 4302SOL    HW213281   1.932   5.010   3.127
 4303SOL     OW13282   2.557   4.302   2.879
 4303SOL    HW113283   2.642   4.296   2.827
 4303SOL    HW213284   2.523   4.396   2.877
 4304SOL     OW13285   3.673   4.684   3.688
 4304SOL    HW113286   3.604   4.628   3.642
 4304SOL    HW213287   3.634   4.724   3.770
 4305SOL     OW13288   2.229   3.805   2.568
 4305SOL    HW113289   2.163   3.880   2.567
 4305SOL    HW213290   2.300   3.824   2.636
 4306SOL     OW13291   3.490   4.127   2.207
 4306SOL    HW113292   3.552   4.069   2.260
 4306SOL    HW213293   3.463   4.205   2.263
 4307SOL     OW13294   2.890   4.465   2.809
 4307SOL    HW113295   2.858   4.479   2.903
 4307SOL    HW213296   2.859   4.375   2.777
 4308SOL     OW13297   2.800   5.243   3.597
 4308SOL    HW113298   2.813   5.281   3.505
 4308SOL    HW213299   2.835   5.150   3.600
 4309SOL     OW13300   3.726   5.178   3.451
 4309SOL    HW113301   3.750   5.217   3.362
 4309SOL    HW213302   3.802   5.193   3.515
 4310SOL     OW13303   2.203   4.578   3.661
 4310SOL    HW113304   2.262   4.597   3.739
 4310SOL    HW213305   2.247   4.513   3.600
 4311SOL     OW13306   3.369   4.011   1.989
 4311SOL    HW113307   3.319   3.932   2.027
 4311SOL    HW213308   3.414   4.061   2.063
 4312SOL     OW13309   3.145   4.561   1.879
 4312SOL    HW113310   3.181   4.468   1.890
 4312SOL    HW213311   3.178   4.600   1.793
 4313SOL     OW13312   2.986   5.034   2.718
 4313SOL    HW113313   2.981   4.956   2.655
 4313SOL    HW213314   3.071   5.084   2.702
 4314SOL     OW13315   2.192   4.510   2.778
 4314SOL    HW113316   2.287   4.534   2.799
 4314SOL    HW213317   2.177   4.413   2.795
 4315SOL     OW13318   2.181   4.237   2.831
 4315SOL    HW113319   2.120   4.158   2.832
 4315SOL    HW213320   2.260   4.217   2.774
 4316SOL     OW13321   3.001   4.038   3.575
 4316SOL    HW113322   2.942   4.093   3.634
 4316SOL    HW213323   3.083   4.089   3.551
 4317SOL     OW13324   3.015   3.890   3.345
 4317SOL    HW113325   3.005   3.942   3.430
 4317SOL    HW213326   3.060   3.947   3.276
 4318SOL     OW13327   1.888   4.984   2.058
 4318SOL    HW113328   1.799   5.022   2.036
 4318SOL    HW213329   1.878   4.888   2.085
 4319SOL     OW13330   1.705   5.401   2.692
 4319SOL    HW113331   1.730   5.305   2.698
 4319SOL    HW213332   1.777   5.457   2.732
 4320SOL     OW13333   2.265   5.120   2.638
 4320SOL    HW113334   2.217   5.133   2.552
 4320SOL    HW213335   2.361   5.099   2.620
 4321SOL     OW13336   2.772   4.467   3.052
 4321SOL    HW113337   2.834   4.446   3.127
 4321SOL    HW213338   2.682   4.426   3.071
 4322SOL     OW13339   1.898   4.294   2.981
 4322SOL    HW113340   1.976   4.294   2.918
 4322SOL    HW213341   1.929   4.265   3.072
 4323SOL     OW13342   2.070   4.309   3.566
 4323SOL    HW113343   2.166   4.327   3.544
 4323SOL    HW213344   2.012   4.367   3.508
 4324SOL     OW13345   3.244   4.655   3.479
 4324SOL    HW113346   3.273   4.749   3.465
 4324SOL    HW213347   3.229   4.611   3.390
 4325SOL     OW13348   2.642   4.296   2.230
 4325SOL    HW113349   2.650   4.213   2.174
 4325SOL    HW213350   2.563   4.349   2.200
 4326SOL     OW13351   3.510   4.311   2.997
 4326SOL    HW113352   3.504   4.255   3.080
 4326SOL    HW213353   3.605   4.315   2.966
 4327SOL     OW13354   2.000   5.149   3.658
 4327SOL    HW113355   1.980   5.192   3.746
 4327SOL    HW213356   2.041   5.059   3.674
 4328SOL     OW13357   2.580   4.092   3.054
 4328SOL    HW113358   2.513   4.019   3.041
 4328SOL    HW213359   2.562   4.165   2.988
 4329SOL     OW13360   2.837   5.334   3.348
 4329SOL    HW113361   2.873   5.263   3.287
 4329SOL    HW213362   2.903   5.409   3.353
 4330SOL     OW13363   2.286   4.216   2.039
 4330SOL    HW113364   2.353   4.285   2.065
 4330SOL    HW213365   2.195   4.257   2.035
 4331SOL     OW13366   1.964   4.794   3.387
 4331SOL    HW113367   1.961   4.759   3.480
 4331SOL    HW213368   1.996   4.722   3.325
 4332SOL     OW13369   3.121   4.733   3.048
 4332SOL    HW113370   3.143   4.675   2.969
 4332SOL    HW213371   3.056   4.803   3.021
 4333SOL     OW13372   3.215   4.629   2.137
 4333SOL    HW113373   3.143   4.613   2.205
 4333SOL    HW213374   3.182   4.605   2.046
 4334SOL     OW13375   3.635   5.384   2.995
 4334SOL    HW113376   3.709   5.421   2.940
 4334SOL    HW213377   3.618   5.289   2.968
 4335SOL     OW13378   3.178   5.392   2.966
 4335SOL    HW113379   3.267   5.408   2.923
 4335SOL    HW213380   3.164   5.294   2.977
 4336SOL     OW13381   1.930   4.897   2.862
 4336SOL    HW113382   1.919   4.900   2.962
 4336SOL    HW213383   1.865   4.832   2.824
 4337SOL     OW13384   2.545   5.339   3.667
 4337SOL    HW113385   2.566   5.420   3.722
 4337SOL    HW213386   2.629   5.285   3.654
 4338SOL     OW13387   3.671   3.960   2.325
 4338SOL    HW113388   3.716   3.947   2.237
 4338SOL    HW213389   3.676   3.875   2.378
 4339SOL     OW13390   3.330   5.255   2.332
 4339SOL    HW113391   3.400   5.281   2.265
 4339SOL    HW213392   3.277   5.336   2.358
 4340SOL     OW13393   1.994   5.484   3.768
 4340SOL    HW113394   1.990   5.399   3.821
 4340SOL    HW213395   2.045   5.553   3.819
 4341SOL     OW13396   3.130   4.648   2.466
 4341SOL    HW113397   3.199   4.584   2.500
 4341SOL    HW213398   3.175   4.729   2.430
 4342SOL     OW13399   2.696   4.959   3.315
 4342SOL    HW113400   2.679   4.960   3.413
 4342SOL    HW213401   2.618   4.999   3.267
 4343SOL     OW13402   2.551   5.289   1.961
 4343SOL    HW113403   2.551   5.325   1.868
 4343SOL    HW213404   2.476   5.223   1.971
 4344SOL     OW13405   3.482   5.440   3.219
 4344SOL    HW113406   3.536   5.426   3.137
 4344SOL    HW213407   3.457   5.537   3.226
 4345SOL     OW13408   3.674   3.884   2.833
 4345SOL    HW113409   3.724   3.800   2.812
 4345SOL    HW213410   3.603   3.898   2.764
 4346SOL     OW13411   2.059   4.017   2.572
 4346SOL    HW113412   1.976   4.061   2.536
 4346SOL    HW213413   2.058   4.020   2.672
 4347SOL     OW13414   3.095   5.302   1.920
 4347SOL    HW113415   3.086   5.207   1.951
 4347SOL    HW213416   3.016   5.325   1.863
 4348SOL     OW13417   2.661   4.706   3.220
 4348SOL    HW113418   2.669   4.705   3.120
 4348SOL    HW213419   2.678   4.799   3.254
 4349SOL     OW13420   2.818   4.648   2.190
 4349SOL    HW113421   2.849   4.662   2.095
 4349SOL    HW213422   2.850   4.559   2.223
 4350SOL     OW13423   3.378   5.360   1.923
 4350SOL    HW113424   3.280   5.341   1.918
 4350SOL    HW213425   3.415   5.364   1.830
 4351SOL     OW13426   2.194   4.954   3.389
 4351SOL    HW113427   2.163   5.039   3.347
 4351SOL    HW213428   2.119   4.888   3.391
 4352SOL     OW13429   3.486   4.980   3.123
 4352SOL    HW113430   3.553   4.958   3.194
 4352SOL    HW213431   3.424   5.051   3.155
 4353SOL     OW13432   2.924   4.816   2.563
 4353SOL    HW113433   2.855   4.762   2.612
 4353SOL    HW213434   2.989   4.753   2.518
 4354SOL     OW13435   2.920   3.995   2.787
 4354SOL    HW113436   2.922   3.943   2.701
 4354SOL    HW213437   2.886   3.937   2.860
 4355SOL     OW13438   2.450   5.148   2.328
 4355SOL    HW113439   2.512   5.106   2.262
 4355SOL    HW213440   2.386   5.208   2.279
 4356SOL     OW13441   3.608   4.138   3.220
 4356SOL    HW113442   3.692   4.192   3.221
 4356SOL    HW213443   3.625   4.051   3.173
 4357SOL     OW13444   2.145   5.026   2.160
 4357SOL    HW113445   2.052   5.021   2.125
 4357SOL    HW213446   2.145   5.080   2.244
 4358SOL     OW13447   1.953   4.694   3.639
 4358SOL    HW113448   1.873   4.659   3.687
 4358SOL    HW213449   2.030   4.633   3.654
 4359SOL     OW13450   2.542   3.901   3.339
 4359SOL    HW113451   2.629   3.886   3.293
 4359SOL    HW213452   2.559   3.930   3.433
 4360SOL     OW13453   1.986   4.075   1.790
 4360SOL    HW113454   1.892   4.062   1.761
 4360SOL    HW213455   2.015   4.169   1.771
 4361SOL     OW13456   3.242   4.556   3.223
 4361SOL    HW113457   3.180   4.615   3.171
 4361SOL    HW213458   3.333   4.558   3.182
 4362SOL     OW13459   1.892   3.858   2.112
 4362SOL    HW113460   1.853   3.915   2.040
 4362SOL    HW213461   1.987   3.836   2.091
 4363SOL     OW13462   3.055   5.031   1.985
 4363SOL    HW113463   2.955   5.023   1.984
 4363SOL    HW213464   3.088   5.025   2.079
 4364SOL     OW13465   2.471   4.524   3.298
 4364SOL    HW113466   2.531   4.603   3.281
 4364SOL    HW213467   2.522   4.440   3.281
 4365SOL     OW13468   3.409   5.443   2.821
 4365SOL    HW113469   3.419   5.536   2.788
 4365SOL    HW213470   3.487   5.418   2.877
 4366SOL     OW13471   2.569   4.242   3.518
 4366SOL    HW113472   2.627   4.303   3.572
 4366SOL    HW213473   2.588   4.147   3.543
 4367SOL     OW13474   3.351   4.904   3.424
 4367SOL    HW113475   3.333   4.934   3.518
 4367SOL    HW213476   3.448   4.915   3.403
 4368SOL     OW13477   2.066   5.353   3.479
 4368SOL    HW113478   2.006   5.431   3.496
 4368SOL    HW213479   2.055   5.285   3.552
 4369SOL     OW13480   3.479   4.571   3.088
 4369SOL    HW113481   3.494   4.482   3.044
 4369SOL    HW213482   3.475   4.642   3.017
 4370SOL     OW13483   3.114   4.054   2.311
 4370SOL    HW113484   3.182   3.981   2.315
 4370SOL    HW213485   3.119   4.108   2.395
 4371SOL     OW13486   2.434   4.385   2.520
 4371SOL    HW113487   2.485   4.471   2.518
 4371SOL    HW213488   2.357   4.391   2.457
 4372SOL     OW13489   3.596   4.112   3.496
 4372SOL    HW113490   3.596   4.130   3.397
 4372SOL    HW213491   3.528   4.043   3.518
 4373SOL     OW13492   3.600   4.645   3.319
 4373SOL    HW113493   3.594   4.744   3.331
 4373SOL    HW213494   3.559   4.619   3.231
 4374SOL     OW13495   2.757   5.059   1.942
 4374SOL    HW113496   2.708   5.057   2.029
 4374SOL    HW213497   2.757   5.153   1.906
 4375SOL     OW13498   2.567   5.848   2.699
 4375SOL    HW113499   2.547   5.762   2.652
 4375SOL    HW213500   2.586   5.830   2.796
 4376SOL     OW13501   2.739   4.676   2.713
 4376SOL    HW113502   2.791   4.598   2.749
 4376SOL    HW213503   2.684   4.716   2.786
 4377SOL     OW13504   2.901   4.664   1.933
 4377SOL    HW113505   2.877   4.736   1.868
 4377SOL    HW213506   2.992   4.628   1.912
 4378SOL     OW13507   3.711   5.265   2.702
 4378SOL    HW113508   3.638   5.260   2.634
 4378SOL    HW213509   3.692   5.201   2.776
 4379SOL     OW13510   2.091   4.899   3.753
 4379SOL    HW113511   2.035   4.827   3.712
 4379SOL    HW213512   2.069   4.905   3.851
 4380SOL     OW13513   2.000   4.901   2.507
 4380SOL    HW113514   2.037   4.862   2.591
 4380SOL    HW213515   2.047   4.861   2.428
 4381SOL     OW13516   2.573   5.031   3.559
 4381SOL    HW113517   2.482   4.997   3.581
 4381SOL    HW213518   2.567   5.112   3.501
 4382SOL     OW13519   3.560   3.849   3.089
 4382SOL    HW113520   3.582   3.752   3.086
 4382SOL    HW213521   3.591   3.893   3.005
 4383SOL     OW13522   2.227   4.131   2.378
 4383SOL    HW113523   2.268   4.064   2.316
 4383SOL    HW213524   2.172   4.083   2.447
 4384SOL     OW13525   3.579   5.133   2.908
 4384SOL    HW113526   3.498   5.117   2.852
 4384SOL    HW213527   3.577   5.072   2.987
 4385SOL     OW13528   2.208   4.253   3.109
 4385SOL    HW113529   2.266   4.188   3.158
 4385SOL    HW213530   2.215   4.237   3.011
 4386SOL     OW13531   2.796   5.044   2.480
 4386SOL    HW113532   2.697   5.036   2.496
 4386SOL    HW213533   2.839   4.955   2.499
 4387SOL     OW13534   3.278   3.915   3.002
 4387SOL    HW113535   3.369   3.900   3.042
 4387SOL    HW213536   3.223   3.970   3.065
 4388SOL     OW13537   2.838   3.794   2.957
 4388SOL    HW113538   2.777   3.759   2.886
 4388SOL    HW213539   2.927   3.750   2.949
 4389SOL     OW13540   2.638   5.002   2.187
 4389SOL    HW113541   2.611   4.908   2.208
 4389SOL    HW213542   2.732   5.018   2.218
 4390SOL     OW13543   2.486   5.089   3.193
 4390SOL    HW113544   2.491   5.160   3.264
 4390SOL    HW213545   2.556   5.105   3.125
 4391SOL     OW13546   3.255   3.776   2.077
 4391SOL    HW113547   3.300   3.722   2.006
 4391SOL    HW213548   3.158   3.750   2.082
 4392SOL     OW13549   3.119   4.190   2.541
 4392SOL    HW113550   3.070   4.277   2.543
 4392SOL    HW213551   3.144   4.164   2.635
 4393SOL     OW13552   3.477   3.922   2.645
 4393SOL    HW113553   3.384   3.885   2.636
 4393SOL    HW213554   3.476   4.019   2.622
 4394SOL     OW13555   1.890   4.721   2.155
 4394SOL    HW113556   1.985   4.702   2.133
 4394SOL    HW213557   1.842   4.635   2.172
 4395SOL     OW13558   2.751   5.334   2.138
 4395SOL    HW113559   2.676   5.312   2.075
 4395SOL    HW213560   2.764   5.433   2.141
 4396SOL     OW13561   2.042   4.338   3.844
 4396SOL    HW113562   1.952   4.306   3.874
 4396SOL    HW213563   2.045   4.338   3.744
 4397SOL     OW13564   2.060   3.990   4.722
 4397SOL    HW113565   2.108   3.960   4.805
 4397SOL    HW213566   1.967   3.954   4.723
 4398SOL     OW13567   1.848   4.122   4.364
 4398SOL    HW113568   1.766   4.145   4.417
 4398SOL    HW213569   1.825   4.052   4.296
 4399SOL     OW13570   2.290   4.993   5.012
 4399SOL    HW113571   2.237   5.027   4.934
 4399SOL    HW213572   2.238   5.005   5.096
 4400SOL     OW13573   3.676   5.083   4.144
 4400SOL    HW113574   3.749   5.133   4.191
 4400SOL    HW213575   3.619   5.147   4.093
 4401SOL     OW13576   3.028   4.219   4.316
 4401SOL    HW113577   3.059   4.314   4.312
 4401SOL    HW213578   2.928   4.217   4.326
 4402SOL     OW13579   3.661   4.278   3.899
 4402SOL    HW113580   3.612   4.295   3.813
 4402SOL    HW213581   3.607   4.216   3.956
 4403SOL     OW13582   2.438   4.810   4.867
 4403SOL    HW113583   2.380   4.868   4.924
 4403SOL    HW213584   2.520   4.861   4.841
 4404SOL     OW13585   2.721   4.412   5.608
 4404SOL    HW113586   2.717   4.470   5.689
 4404SOL    HW213587   2.732   4.469   5.526
 4405SOL     OW13588   2.499   4.575   4.364
 4405SOL    HW113589   2.548   4.564   4.450
 4405SOL    HW213590   2.431   4.648   4.373
 4406SOL     OW13591   2.515   4.848   5.581
 4406SOL    HW113592   2.552   4.932   5.621
 4406SOL    HW213593   2.435   4.870   5.526
 4407SOL     OW13594   2.116   5.095   4.823
 4407SOL    HW113595   2.060   5.013   4.813
 4407SOL    HW213596   2.118   5.145   4.736
 4408SOL     OW13597   3.371   5.144   5.345
 4408SOL    HW113598   3.423   5.223   5.378
 4408SOL    HW213599   3.304   5.117   5.414
 4409SOL     OW13600   2.351   4.049   5.170
 4409SOL    HW113601   2.430   3.991   5.193
 4409SOL    HW213602   2.269   4.012   5.213
 4410SOL     OW13603   3.483   4.130   4.499
 4410SOL    HW113604   3.392   4.102   4.467
 4410SOL    HW213605   3.487   4.230   4.504
 4411SOL     OW13606   2.037   5.438   4.256
 4411SOL    HW113607   2.067   5.520   4.305
 4411SOL    HW213608   2.104   5.416   4.186
 4412SOL     OW13609   3.163   5.085   5.516
 4412SOL    HW113610   3.163   5.051   5.610
 4412SOL    HW213611   3.082   5.049   5.468
 4413SOL     OW13612   2.123   4.760   4.599
 4413SOL    HW113613   2.136   4.663   4.619
 4413SOL    HW213614   2.079   4.805   4.676
 4414SOL     OW13615   2.531   5.626   5.249
 4414SOL    HW113616   2.440   5.588   5.269
 4414SOL    HW213617   2.525   5.726   5.244
 4415SOL     OW13618   2.378   4.627   3.877
 4415SOL    HW113619   2.442   4.650   3.804
 4415SOL    HW213620   2.417   4.655   3.965
 4416SOL     OW13621   3.421   3.867   5.143
 4416SOL    HW113622   3.492   3.936   5.133
 4416SOL    HW213623   3.380   3.875   5.234
 4417SOL     OW13624   1.939   4.379   4.304
 4417SOL    HW113625   1.913   4.284   4.322
 4417SOL    HW213626   1.939   4.431   4.389
 4418SOL     OW13627   3.759   5.479   4.030
 4418SOL    HW113628   3.844   5.478   4.083
 4418SOL    HW213629   3.745   5.569   3.990
 4419SOL     OW13630   1.932   5.243   3.906
 4419SOL    HW113631   1.888   5.155   3.923
 4419SOL    HW213632   1.895   5.311   3.970
 4420SOL     OW13633   3.540   4.658   4.376
 4420SOL    HW113634   3.607   4.727   4.347
 4420SOL    HW213635   3.471   4.647   4.305
 4421SOL     OW13636   3.552   4.815   4.041
 4421SOL    HW113637   3.643   4.774   4.043
 4421SOL    HW213638   3.557   4.910   4.071
 4422SOL     OW13639   1.958   4.469   5.263
 4422SOL    HW113640   2.027   4.527   5.219
 4422SOL    HW213641   1.868   4.512   5.254
 4423SOL     OW13642   2.206   5.051   4.386
 4423SOL    HW113643   2.260   4.968   4.397
 4423SOL    HW213644   2.232   5.096   4.300
 4424SOL     OW13645   3.161   4.842   5.300
 4424SOL    HW113646   3.199   4.807   5.214
 4424SOL    HW213647   3.236   4.872   5.360
 4425SOL     OW13648   2.685   3.779   4.256
 4425SOL    HW113649   2.729   3.857   4.213
 4425SOL    HW213650   2.586   3.794   4.262
 4426SOL     OW13651   2.049   4.660   5.054
 4426SOL    HW113652   2.129   4.601   5.042
 4426SOL    HW213653   2.012   4.685   4.964
 4427SOL     OW13654   3.360   4.759   3.857
 4427SOL    HW113655   3.295   4.695   3.899
 4427SOL    HW213656   3.432   4.781   3.922
 4428SOL     OW13657   2.972   5.556   5.436
 4428SOL    HW113658   3.027   5.628   5.394
 4428SOL    HW213659   3.030   5.477   5.457
 4429SOL     OW13660   2.224   3.993   5.591
 4429SOL    HW113661   2.257   4.076   5.635
 4429SOL    HW213662   2.131   4.007   5.558
 4430SOL     OW13663   3.281   5.163   4.578
 4430SOL    HW113664   3.274   5.199   4.671
 4430SOL    HW213665   3.209   5.095   4.563
 4431SOL     OW13666   3.747   5.580   4.322
 4431SOL    HW113667   3.718   5.503   4.265
 4431SOL    HW213668   3.784   5.546   4.408
 4432SOL     OW13669   2.408   4.382   4.013
 4432SOL    HW113670   2.408   4.464   3.956
 4432SOL    HW213671   2.337   4.390   4.083
 4433SOL     OW13672   3.160   4.102   4.713
 4433SOL    HW113673   3.070   4.057   4.710
 4433SOL    HW213674   3.215   4.059   4.785
 4434SOL     OW13675   3.556   5.291   4.007
 4434SOL    HW113676   3.619   5.367   4.023
 4434SOL    HW213677   3.502   5.309   3.924
 4435SOL     OW13678   2.648   4.257   5.197
 4435SOL    HW113679   2.616   4.231   5.288
 4435SOL    HW213680   2.622   4.186   5.132
 4436SOL     OW13681   3.227   4.148   5.432
 4436SOL    HW113682   3.243   4.191   5.520
 4436SOL    HW213683   3.277   4.061   5.427
 4437SOL     OW13684   2.756   4.559   5.374
 4437SOL    HW113685   2.814   4.503   5.315
 4437SOL    HW213686   2.692   4.611   5.318
 4438SOL     OW13687   2.854   4.125   4.913
 4438SOL    HW113688   2.761   4.109   4.947
 4438SOL    HW213689   2.868   4.072   4.829
 4439SOL     OW13690   2.872   4.386   4.066
 4439SOL    HW113691   2.886   4.426   4.157
 4439SOL    HW213692   2.791   4.328   4.067
 4440SOL     OW13693   1.925   4.522   4.535
 4440SOL    HW113694   2.014   4.507   4.579
 4440SOL    HW213695   1.872   4.587   4.590
 4441SOL     OW13696   2.003   5.578   5.323
 4441SOL    HW113697   2.019   5.539   5.413
 4441SOL    HW213698   1.918   5.542   5.285
 4442SOL     OW13699   2.738   3.980   3.865
 4442SOL    HW113700   2.771   4.069   3.834
 4442SOL    HW213701   2.777   3.908   3.808
 4443SOL     OW13702   3.586   4.254   5.510
 4443SOL    HW113703   3.550   4.326   5.449
 4443SOL    HW213704   3.580   4.166   5.463
 4444SOL     OW13705   3.370   4.631   4.160
 4444SOL    HW113706   3.439   4.691   4.120
 4444SOL    HW213707   3.299   4.612   4.093
 4445SOL     OW13708   2.411   3.858   4.662
 4445SOL    HW113709   2.424   3.862   4.761
 4445SOL    HW213710   2.419   3.950   4.623
 4446SOL     OW13711   2.834   5.461   3.748
 4446SOL    HW113712   2.747   5.502   3.775
 4446SOL    HW213713   2.817   5.375   3.699
 4447SOL     OW13714   2.171   5.596   4.637
 4447SOL    HW113715   2.240   5.527   4.657
 4447SOL    HW213716   2.207   5.687   4.657
 4448SOL     OW13717   3.683   4.612   4.602
 4448SOL    HW113718   3.627   4.639   4.524
 4448SOL    HW213719   3.659   4.669   4.681
 4449SOL     OW13720   3.155   5.350   5.450
 4449SOL    HW113721   3.139   5.259   5.488
 4449SOL    HW213722   3.200   5.343   5.361
 4450SOL     OW13723   2.104   4.590   3.954
 4450SOL    HW113724   2.197   4.609   3.925
 4450SOL    HW213725   2.077   4.499   3.924
 4451SOL     OW13726   3.441   4.409   4.473
 4451SOL    HW113727   3.401   4.399   4.564
 4451SOL    HW213728   3.488   4.497   4.466
 4452SOL     OW13729   2.292   4.960   5.471
 4452SOL    HW113730   2.264   4.959   5.375
 4452SOL    HW213731   2.211   4.967   5.529
 4453SOL     OW13732   3.086   5.513   3.703
 4453SOL    HW113733   2.992   5.499   3.732
 4453SOL    HW213734   3.134   5.425   3.701
 4454SOL     OW13735   2.091   3.967   5.223
 4454SOL    HW113736   2.035   4.048   5.237
 4454SOL    HW213737   2.045   3.888   5.263
 4455SOL     OW13738   3.540   5.060   3.777
 4455SOL    HW113739   3.522   5.159   3.781
 4455SOL    HW213740   3.460   5.013   3.739
 4456SOL     OW13741   2.221   5.412   4.054
 4456SOL    HW113742   2.253   5.505   4.072
 4456SOL    HW213743   2.251   5.384   3.963
 4457SOL     OW13744   3.292   3.840   4.199
 4457SOL    HW113745   3.281   3.818   4.102
 4457SOL    HW213746   3.388   3.863   4.217
 4458SOL     OW13747   2.081   5.554   4.941
 4458SOL    HW113748   2.101   5.462   4.976
 4458SOL    HW213749   2.029   5.547   4.856
 4459SOL     OW13750   2.201   4.377   4.190
 4459SOL    HW113751   2.224   4.285   4.223
 4459SOL    HW213752   2.108   4.400   4.219
 4460SOL     OW13753   3.337   3.882   5.410
 4460SOL    HW113754   3.347   3.897   5.509
 4460SOL    HW213755   3.273   3.808   5.394
 4461SOL     OW13756   2.478   3.789   3.847
 4461SOL    HW113757   2.577   3.801   3.848
 4461SOL    HW213758   2.447   3.772   3.754
 4462SOL     OW13759   2.645   3.948   5.491
 4462SOL    HW113760   2.730   3.896   5.489
 4462SOL    HW213761   2.590   3.918   5.569
 4463SOL     OW13762   2.826   5.310   4.818
 4463SOL    HW113763   2.763   5.295   4.743
 4463SOL    HW213764   2.889   5.232   4.825
 4464SOL     OW13765   3.133   4.292   5.217
 4464SOL    HW113766   3.167   4.244   5.299
 4464SOL    HW213767   3.202   4.357   5.186
 4465SOL     OW13768   2.673   5.260   4.602
 4465SOL    HW113769   2.710   5.275   4.510
 4465SOL    HW213770   2.578   5.228   4.596
 4466SOL     OW13771   2.808   4.198   4.592
 4466SOL    HW113772   2.783   4.194   4.495
 4466SOL    HW213773   2.844   4.110   4.622
 4467SOL     OW13774   2.414   3.804   4.241
 4467SOL    HW113775   2.334   3.791   4.300
 4467SOL    HW213776   2.396   3.876   4.175
 4468SOL     OW13777   3.297   4.952   3.685
 4468SOL    HW113778   3.320   4.874   3.742
 4468SOL    HW213779   3.204   4.982   3.704
 4469SOL     OW13780   2.126   3.768   3.866
 4469SOL    HW113781   2.170   3.841   3.815
 4469SOL    HW213782   2.192   3.725   3.927
 4470SOL     OW13783   2.813   3.980   4.129
 4470SOL    HW113784   2.783   3.979   4.033
 4470SOL    HW213785   2.912   3.989   4.133
 4471SOL     OW13786   2.882   4.403   5.187
 4471SOL    HW113787   2.809   4.336   5.189
 4471SOL    HW213788   2.970   4.357   5.198
 4472SOL     OW13789   2.309   4.783   4.398
 4472SOL    HW113790   2.246   4.774   4.475
 4472SOL    HW213791   2.261   4.766   4.313
 4473SOL     OW13792   3.091   5.495   4.300
 4473SOL    HW113793   3.112   5.572   4.240
 4473SOL    HW213794   3.009   5.515   4.353
 4474SOL     OW13795   2.861   4.197   3.751
 4474SOL    HW113796   2.818   4.282   3.720
 4474SOL    HW213797   2.935   4.219   3.815
 4475SOL     OW13798   1.969   4.230   5.128
 4475SOL    HW113799   2.062   4.222   5.092
 4475SOL    HW213800   1.962   4.312   5.184
 4476SOL     OW13801   2.432   3.865   4.932
 4476SOL    HW113802   2.453   3.785   4.988
 4476SOL    HW213803   2.337   3.892   4.947
 4477SOL     OW13804   2.752   4.181   4.326
 4477SOL    HW113805   2.660   4.222   4.330
 4477SOL    HW213806   2.756   4.117   4.249
 4478SOL     OW13807   2.877   3.799   4.468
 4478SOL    HW113808   2.815   3.806   4.390
 4478SOL    HW213809   2.852   3.720   4.524
 4479SOL     OW13810   3.053   4.988   4.561
 4479SOL    HW113811   3.075   4.892   4.543
 4479SOL    HW213812   3.003   5.025   4.483
 4480SOL     OW13813   3.323   4.343   4.710
 4480SOL    HW113814   3.254   4.271   4.707
 4480SOL    HW213815   3.395   4.318   4.775
 4481SOL     OW13816   3.703   4.500   4.056
 4481SOL    HW113817   3.764   4.467   4.128
 4481SOL    HW213818   3.688   4.428   3.989
 4482SOL     OW13819   2.332   5.029   3.887
 4482SOL    HW113820   2.245   4.998   3.926
 4482SOL    HW213821   2.336   5.002   3.790
 4483SOL     OW13822   3.716   4.854   4.300
 4483SOL    HW113823   3.793   4.876   4.360
 4483SOL    HW213824   3.696   4.932   4.241
 4484SOL     OW13825   3.238   4.311   3.751
 4484SOL    HW113826   3.188   4.276   3.830
 4484SOL    HW213827   3.336   4.303   3.767
 4485SOL     OW13828   2.364   3.977   4.035
 4485SOL    HW113829   2.406   3.914   3.970
 4485SOL    HW213830   2.322   4.053   3.986
 4486SOL     OW13831   3.669   4.922   5.388
 4486SOL    HW113832   3.733   4.867   5.441
 4486SOL    HW213833   3.692   5.019   5.399
 4487SOL     OW13834   2.941   4.976   5.406
 4487SOL    HW113835   2.875   4.912   5.446
 4487SOL    HW213836   3.007   4.925   5.350
 4488SOL     OW13837   3.524   5.366   5.415
 4488SOL    HW113838   3.540   5.438   5.347
 4488SOL    HW213839   3.602   5.304   5.417
 4489SOL     OW13840   2.991   5.089   4.811
 4489SOL    HW113841   2.958   5.014   4.869
 4489SOL    HW213842   3.008   5.055   4.719
 4490SOL     OW13843   3.649   4.778   4.818
 4490SOL    HW113844   3.741   4.813   4.803
 4490SOL    HW213845   3.588   4.853   4.842
 4491SOL     OW13846   2.799   3.767   5.097
 4491SOL    HW113847   2.822   3.749   5.002
 4491SOL    HW213848   2.875   3.814   5.142
 4492SOL     OW13849   2.779   4.784   5.520
 4492SOL    HW113850   2.686   4.809   5.544
 4492SOL    HW213851   2.779   4.701   5.465
 4493SOL     OW13852   2.542   4.674   4.095
 4493SOL    HW113853   2.533   4.636   4.187
 4493SOL    HW213854   2.614   4.625   4.046
 4494SOL     OW13855   2.253   4.480   5.035
 4494SOL    HW113856   2.328   4.487   5.101
 4494SOL    HW213857   2.228   4.384   5.023
 4495SOL     OW13858   3.089   4.093   5.040
 4495SOL    HW113859   3.107   4.169   5.102
 4495SOL    HW213860   3.003   4.109   4.992
 4496SOL     OW13861   1.877   5.262   5.076
 4496SOL    HW113862   1.823   5.322   5.016
 4496SOL    HW213863   1.974   5.279   5.060
 4497SOL     OW13864   2.171   4.752   4.170
 4497SOL    HW113865   2.138   4.834   4.124
 4497SOL    HW213866   2.146   4.671   4.117
 4498SOL     OW13867   2.436   4.145   4.605
 4498SOL    HW113868   2.463   4.185   4.518
 4498SOL    HW213869   2.481   4.194   4.680
 4499SOL     OW13870   2.944   5.080   4.319
 4499SOL    HW113871   2.931   5.016   4.243
 4499SOL    HW213872   3.027   5.134   4.304
 4500SOL     OW13873   3.209   5.256   4.832
 4500SOL    HW113874   3.250   5.249   4.923
 4500SOL    HW213875   3.124   5.203   4.829
 4501SOL     OW13876   3.535   4.329   4.220
 4501SOL    HW113877   3.496   4.357   4.307
 4501SOL    HW213878   3.573   4.409   4.173
 4502SOL     OW13879   2.139   5.298   5.012
 4502SOL    HW113880   2.138   5.225   4.944
 4502SOL    HW213881   2.219   5.287   5.071
 4503SOL     OW13882   2.335   4.369   5.424
 4503SOL    HW113883   2.368   4.412   5.340
 4503SOL    HW213884   2.402   4.303   5.456
 4504SOL     OW13885   3.502   4.470   5.370
 4504SOL    HW113886   3.420   4.516   5.402
 4504SOL    HW213887   3.565   4.536   5.329
 4505SOL     OW13888   2.868   3.791   5.492
 4505SOL    HW113889   2.919   3.876   5.481
 4505SOL    HW213890   2.931   3.714   5.495
 4506SOL     OW13891   2.359   3.766   5.501
 4506SOL    HW113892   2.305   3.710   5.438
 4506SOL    HW213893   2.312   3.853   5.518
 4507SOL     OW13894   2.393   4.553   4.814
 4507SOL    HW113895   2.416   4.650   4.824
 4507SOL    HW213896   2.341   4.523   4.894
 4508SOL     OW13897   3.344   4.563   4.886
 4508SOL    HW113898   3.343   4.506   4.967
 4508SOL    HW213899   3.328   4.507   4.805
 4509SOL     OW13900   3.059   4.228   3.945
 4509SOL    HW113901   3.079   4.148   4.002
 4509SOL    HW213902   3.000   4.291   3.994
 4510SOL     OW13903   2.164   3.902   4.961
 4510SOL    HW113904   2.139   3.940   5.051
 4510SOL    HW213905   2.134   3.807   4.956
 4511SOL     OW13906   1.884   4.990   5.017
 4511SOL    HW113907   1.910   4.942   5.101
 4511SOL    HW213908   1.877   5.088   5.036
 4512SOL     OW13909   2.522   4.303   4.815
 4512SOL    HW113910   2.618   4.327   4.809
 4512SOL    HW213911   2.466   4.387   4.817
 4513SOL     OW13912   3.642   4.625   5.593
 4513SOL    HW113913   3.605   4.540   5.556
 4513SOL    HW213914   3.588   4.655   5.671
 4514SOL     OW13915   2.169   3.765   4.366
 4514SOL    HW113916   2.133   3.857   4.385
 4514SOL    HW213917   2.184   3.716   4.451
 4515SOL     OW13918   3.483   4.124   4.045
 4515SOL    HW113919   3.499   4.041   4.098
 4515SOL    HW213920   3.480   4.203   4.107
 4516SOL     OW13921   2.785   4.381   4.789
 4516SOL    HW113922   2.830   4.334   4.865
 4516SOL    HW213923   2.797   4.327   4.705
 4517SOL     OW13924   2.799   5.201   5.512
 4517SOL    HW113925   2.770   5.278   5.456
 4517SOL    HW213926   2.841   5.131   5.454
 4518SOL     OW13927   3.743   5.196   5.410
 4518SOL    HW113928   3.798   5.237   5.337
 4518SOL    HW213929   3.780   5.225   5.498
 4519SOL     OW13930   2.225   4.594   5.552
 4519SOL    HW113931   2.288   4.626   5.623
 4519SOL    HW213932   2.264   4.514   5.507
 4520SOL     OW13933   3.396   3.979   3.823
 4520SOL    HW113934   3.336   3.910   3.863
 4520SOL    HW213935   3.423   4.045   3.893
 4521SOL     OW13936   3.133   4.559   3.710
 4521SOL    HW113937   3.165   4.464   3.717
 4521SOL    HW213938   3.168   4.600   3.626
 4522SOL     OW13939   2.167   4.492   4.667
 4522SOL    HW113940   2.251   4.527   4.708
 4522SOL    HW213941   2.165   4.392   4.675
 4523SOL     OW13942   2.194   4.222   4.716
 4523SOL    HW113943   2.134   4.142   4.713
 4523SOL    HW213944   2.280   4.201   4.670
 4524SOL     OW13945   2.976   4.039   5.445
 4524SOL    HW113946   2.921   4.088   5.512
 4524SOL    HW213947   3.066   4.082   5.439
 4525SOL     OW13948   3.010   3.895   5.213
 4525SOL    HW113949   2.989   3.947   5.295
 4525SOL    HW213950   3.048   3.955   5.143
 4526SOL     OW13951   1.828   4.988   3.951
 4526SOL    HW113952   1.741   5.023   3.916
 4526SOL    HW213953   1.823   4.888   3.958
 4527SOL     OW13954   1.924   5.496   4.702
 4527SOL    HW113955   1.896   5.414   4.652
 4527SOL    HW213956   2.011   5.529   4.665
 4528SOL     OW13957   2.097   5.219   4.581
 4528SOL    HW113958   2.140   5.167   4.507
 4528SOL    HW213959   2.001   5.235   4.559
 4529SOL     OW13960   2.769   4.579   5.008
 4529SOL    HW113961   2.819   4.524   5.075
 4529SOL    HW213962   2.773   4.535   4.919
 4530SOL     OW13963   1.895   4.289   4.863
 4530SOL    HW113964   1.978   4.291   4.806
 4530SOL    HW213965   1.920   4.267   4.957
 4531SOL     OW13966   2.066   4.318   5.475
 4531SOL    HW113967   2.164   4.326   5.459
 4531SOL    HW213968   2.017   4.375   5.409
 4532SOL     OW13969   3.282   4.616   5.433
 4532SOL    HW113970   3.335   4.699   5.447
 4532SOL    HW213971   3.206   4.634   5.370
 4533SOL     OW13972   2.643   4.242   4.038
 4533SOL    HW113973   2.624   4.150   4.006
 4533SOL    HW213974   2.560   4.297   4.034
 4534SOL     OW13975   3.519   4.281   4.889
 4534SOL    HW113976   3.499   4.208   4.954
 4534SOL    HW213977   3.614   4.274   4.859
 4535SOL     OW13978   2.066   5.211   5.428
 4535SOL    HW113979   2.080   5.299   5.473
 4535SOL    HW213980   2.059   5.139   5.496
 4536SOL     OW13981   2.592   4.092   4.977
 4536SOL    HW113982   2.538   4.008   4.970
 4536SOL    HW213983   2.550   4.163   4.921
 4537SOL     OW13984   2.717   5.454   5.391
 4537SOL    HW113985   2.666   5.512   5.328
 4537SOL    HW213986   2.809   5.491   5.403
 4538SOL     OW13987   2.268   4.186   3.888
 4538SOL    HW113988   2.332   4.252   3.927
 4538SOL    HW213989   2.179   4.229   3.875
 4539SOL     OW13990   1.958   4.833   5.242
 4539SOL    HW113991   1.970   4.795   5.334
 4539SOL    HW213992   1.991   4.767   5.175
 4540SOL     OW13993   3.335   4.735   5.109
 4540SOL    HW113994   3.343   4.708   5.013
 4540SOL    HW213995   3.392   4.815   5.126
 4541SOL     OW13996   3.166   4.592   3.980
 4541SOL    HW113997   3.085   4.564   4.032
 4541SOL    HW213998   3.150   4.578   3.882
 4542SOL     OW13999   3.745   5.537   4.986
 4542SOL    HW114000   3.843   5.522   4.981
 4542SOL    HW214001   3.709   5.558   4.896
 4543SOL     OW14002   3.175   5.510   4.726
 4543SOL    HW114003   3.222   5.503   4.638
 4543SOL    HW214004   3.185   5.425   4.777
 4544SOL     OW14005   1.960   4.861   4.795
 4544SOL    HW114006   1.921   4.906   4.875
 4544SOL    HW214007   1.887   4.819   4.741
 4545SOL     OW14008   2.506   5.408   5.553
 4545SOL    HW114009   2.447   5.488   5.545
 4545SOL    HW214010   2.589   5.423   5.498
 4546SOL     OW14011   3.572   3.907   4.189
 4546SOL    HW114012   3.633   3.871   4.118
 4546SOL    HW214013   3.624   3.965   4.251
 4547SOL     OW14014   3.163   5.229   4.284
 4547SOL    HW114015   3.259   5.222   4.310
 4547SOL    HW214016   3.137   5.325   4.278
 4548SOL     OW14017   2.053   5.458   5.559
 4548SOL    HW114018   1.982   5.402   5.602
 4548SOL    HW214019   2.095   5.516   5.629
 4549SOL     OW14020   3.204   4.468   4.329
 4549SOL    HW114021   3.267   4.424   4.393
 4549SOL    HW214022   3.255   4.527   4.266
 4550SOL     OW14023   2.494   4.952   5.208
 4550SOL    HW114024   2.496   5.028   5.272
 4550SOL    HW214025   2.427   4.971   5.136
 4551SOL     OW14026   2.321   5.300   3.825
 4551SOL    HW114027   2.394   5.317   3.758
 4551SOL    HW214028   2.316   5.203   3.846
 4552SOL     OW14029   3.586   5.560   5.220
 4552SOL    HW114030   3.630   5.546   5.131
 4552SOL    HW214031   3.520   5.634   5.213
 4553SOL     OW14032   3.718   3.846   4.688
 4553SOL    HW114033   3.731   3.752   4.655
 4553SOL    HW214034   3.622   3.871   4.677
 4554SOL     OW14035   2.089   4.016   4.444
 4554SOL    HW114036   2.003   4.058   4.415
 4554SOL    HW214037   2.090   4.007   4.543
 4555SOL     OW14038   3.177   5.253   3.685
 4555SOL    HW114039   3.120   5.185   3.731
 4555SOL    HW214040   3.178   5.236   3.587
 4556SOL     OW14041   2.603   4.700   5.199
 4556SOL    HW114042   2.658   4.686   5.117
 4556SOL    HW214043   2.568   4.793   5.201
 4557SOL     OW14044   2.729   4.566   3.916
 4557SOL    HW114045   2.793   4.630   3.873
 4557SOL    HW214046   2.780   4.496   3.966
 4558SOL     OW14047   3.434   5.329   3.751
 4558SOL    HW114048   3.340   5.297   3.740
 4558SOL    HW214049   3.475   5.343   3.661
 4559SOL     OW14050   2.149   5.030   5.239
 4559SOL    HW114051   2.124   5.108   5.296
 4559SOL    HW214052   2.078   4.961   5.243
 4560SOL     OW14053   3.480   4.957   5.171
 4560SOL    HW114054   3.578   4.970   5.185
 4560SOL    HW214055   3.430   5.022   5.228
 4561SOL     OW14056   2.932   4.501   4.305
 4561SOL    HW114057   2.880   4.520   4.388
 4561SOL    HW214058   3.030   4.507   4.325
 4562SOL     OW14059   2.918   3.954   4.694
 4562SOL    HW114060   2.911   3.915   4.603
 4562SOL    HW214061   2.915   3.880   4.762
 4563SOL     OW14062   2.266   5.157   4.141
 4563SOL    HW114063   2.333   5.123   4.075
 4563SOL    HW214064   2.246   5.254   4.122
 4564SOL     OW14065   3.635   4.051   5.120
 4564SOL    HW114066   3.700   4.127   5.116
 4564SOL    HW214067   3.666   3.978   5.059
 4565SOL     OW14068   2.091   4.975   4.027
 4565SOL    HW114069   1.992   4.990   4.016
 4565SOL    HW214070   2.129   5.049   4.083
 4566SOL     OW14071   1.991   4.733   5.491
 4566SOL    HW114072   1.909   4.698   5.536
 4566SOL    HW214073   2.070   4.676   5.516
 4567SOL     OW14074   2.572   3.878   5.232
 4567SOL    HW114075   2.654   3.850   5.182
 4567SOL    HW214076   2.598   3.909   5.324
 4568SOL     OW14077   1.980   4.057   3.630
 4568SOL    HW114078   1.885   4.045   3.602
 4568SOL    HW214079   2.010   4.149   3.605
 4569SOL     OW14080   3.334   4.464   5.149
 4569SOL    HW114081   3.325   4.563   5.145
 4569SOL    HW214082   3.404   4.439   5.216
 4570SOL     OW14083   1.883   3.863   3.945
 4570SOL    HW114084   1.848   3.929   3.879
 4570SOL    HW214085   1.975   3.835   3.919
 4571SOL     OW14086   3.030   5.018   3.771
 4571SOL    HW114087   2.930   5.019   3.770
 4571SOL    HW214088   3.062   4.963   3.849
 4572SOL     OW14089   2.465   4.468   5.201
 4572SOL    HW114090   2.509   4.557   5.204
 4572SOL    HW214091   2.534   4.396   5.192
 4573SOL     OW14092   3.282   5.426   4.490
 4573SOL    HW114093   3.212   5.446   4.422
 4573SOL    HW214094   3.283   5.328   4.510
 4574SOL     OW14095   2.573   4.217   5.463
 4574SOL    HW114096   2.623   4.279   5.522
 4574SOL    HW214097   2.603   4.123   5.479
 4575SOL     OW14098   3.403   4.853   5.453
 4575SOL    HW114099   3.389   4.892   5.544
 4575SOL    HW214100   3.493   4.882   5.419
 4576SOL     OW14101   2.276   5.531   5.288
 4576SOL    HW114102   2.177   5.546   5.289
 4576SOL    HW214103   2.296   5.441   5.249
 4577SOL     OW14104   3.651   4.558   4.981
 4577SOL    HW114105   3.603   4.476   4.951
 4577SOL    HW214106   3.636   4.631   4.914
 4578SOL     OW14107   3.085   4.026   4.137
 4578SOL    HW114108   3.157   3.963   4.165
 4578SOL    HW214109   3.073   4.096   4.208
 4579SOL     OW14110   2.494   4.282   4.364
 4579SOL    HW114111   2.486   4.381   4.354
 4579SOL    HW214112   2.415   4.237   4.322
 4580SOL     OW14113   3.591   4.006   5.387
 4580SOL    HW114114   3.606   4.023   5.290
 4580SOL    HW214115   3.507   3.953   5.400
 4581SOL     OW14116   3.660   4.648   5.241
 4581SOL    HW114117   3.647   4.746   5.257
 4581SOL    HW214118   3.650   4.629   5.143
 4582SOL     OW14119   2.759   5.000   3.761
 4582SOL    HW114120   2.707   4.963   3.838
 4582SOL    HW214121   2.699   5.014   3.683
 4583SOL     OW14122   2.341   5.652   4.985
 4583SOL    HW114123   2.255   5.604   4.972
 4583SOL    HW214124   2.400   5.599   5.047
 4584SOL     OW14125   2.607   4.541   4.619
 4584SOL    HW114126   2.682   4.500   4.670
 4584SOL    HW214127   2.528   4.553   4.679
 4585SOL     OW14128   2.918   4.709   3.782
 4585SOL    HW114129   2.876   4.752   3.702
 4585SOL    HW214130   2.996   4.654   3.753
 4586SOL     OW14131   3.880   5.187   4.554
 4586SOL    HW114132   3.860   5.172   4.650
 4586SOL    HW214133   3.898   5.098   4.510
 4587SOL     OW14134   2.042   4.985   5.583
 4587SOL    HW114135   2.021   4.894   5.548
 4587SOL    HW214136   1.989   5.003   5.665
 4588SOL     OW14137   1.959   4.937   4.440
 4588SOL    HW114138   1.991   4.857   4.491
 4588SOL    HW214139   2.038   4.990   4.409
 4589SOL     OW14140   2.447   5.174   5.395
 4589SOL    HW114141   2.398   5.101   5.442
 4589SOL    HW214142   2.476   5.243   5.461
 4590SOL     OW14143   3.709   3.847   4.964
 4590SOL    HW114144   3.738   3.753   4.985
 4590SOL    HW214145   3.714   3.861   4.865
 4591SOL     OW14146   2.279   4.129   4.271
 4591SOL    HW114147   2.300   4.067   4.196
 4591SOL    HW214148   2.217   4.085   4.335
 4592SOL     OW14149   3.783   5.112   4.850
 4592SOL    HW114150   3.707   5.173   4.827
 4592SOL    HW214151   3.779   5.088   4.947
 4593SOL     OW14152   2.211   4.216   5.004
 4593SOL    HW114153   2.272   4.157   5.057
 4593SOL    HW214154   2.224   4.200   4.906
 4594SOL     OW14155   2.768   5.295   4.346
 4594SOL    HW114156   2.829   5.216   4.343
 4594SOL    HW214157   2.741   5.321   4.254
 4595SOL     OW14158   3.309   3.993   4.919
 4595SOL    HW114159   3.352   3.926   4.980
 4595SOL    HW214160   3.230   4.033   4.965
 4596SOL     OW14161   2.901   3.712   4.836
 4596SOL    HW114162   2.839   3.657   4.780
 4596SOL    HW214163   2.992   3.671   4.835
 4597SOL     OW14164   2.568   4.893   3.927
 4597SOL    HW114165   2.486   4.950   3.929
 4597SOL    HW214166   2.564   4.826   4.001
 4598SOL     OW14167   2.368   5.299   5.167
 4598SOL    HW114168   2.388   5.250   5.252
 4598SOL    HW214169   2.448   5.297   5.108
 4599SOL     OW14170   3.251   3.776   3.938
 4599SOL    HW114171   3.317   3.705   3.915
 4599SOL    HW214172   3.159   3.737   3.942
 4600SOL     OW14173   3.223   4.088   4.450
 4600SOL    HW114174   3.150   4.133   4.399
 4600SOL    HW214175   3.199   4.087   4.547
 4601SOL     OW14176   3.462   3.933   4.694
 4601SOL    HW114177   3.409   3.967   4.772
 4601SOL    HW214178   3.468   4.005   4.625
 4602SOL     OW14179   1.861   4.713   4.026
 4602SOL    HW114180   1.953   4.688   3.994
 4602SOL    HW214181   1.809   4.630   4.045
 4603SOL     OW14182   2.589   5.563   3.819
 4603SOL    HW114183   2.495   5.582   3.791
 4603SOL    HW214184   2.616   5.627   3.892
 4604SOL     OW14185   2.046   4.382   5.749
 4604SOL    HW114186   1.956   4.353   5.780
 4604SOL    HW214187   2.050   4.377   5.649
 4605SOL     OW14188   2.086   4.059   0.025
 4605SOL    HW114189   2.081   4.148   0.071
 4605SOL    HW214190   1.997   4.014   0.031
 4606SOL     OW14191   1.829   4.134   6.194
 4606SOL    HW114192   1.757   4.146   6.263
 4606SOL    HW214193   1.800   4.065   6.127
 4607SOL     OW14194   3.384   5.160   6.239
 4607SOL    HW114195   3.353   5.202   6.325
 4607SOL    HW214196   3.334   5.201   6.163
 4608SOL     OW14197   2.963   4.375   6.242
 4608SOL    HW114198   2.963   4.466   6.284
 4608SOL    HW214199   2.886   4.322   6.277
 4609SOL     OW14200   3.656   4.274   5.765
 4609SOL    HW114201   3.635   4.271   5.667
 4609SOL    HW214202   3.594   4.213   5.814
 4610SOL     OW14203   2.575   4.940   0.132
 4610SOL    HW114204   2.558   4.969   0.226
 4610SOL    HW214205   2.631   5.009   0.086
 4611SOL     OW14206   2.529   4.698   6.243
 4611SOL    HW114207   2.596   4.714   6.316
 4611SOL    HW214208   2.447   4.752   6.262
 4612SOL     OW14209   3.500   4.226   6.324
 4612SOL    HW114210   3.403   4.236   6.304
 4612SOL    HW214211   3.538   4.314   6.351
 4613SOL     OW14212   2.082   5.492   6.047
 4613SOL    HW114213   2.097   5.566   6.113
 4613SOL    HW214214   2.165   5.480   5.992
 4614SOL     OW14215   2.006   5.248   6.139
 4614SOL    HW114216   2.039   5.337   6.109
 4614SOL    HW214217   1.932   5.260   6.204
 4615SOL     OW14218   2.138   4.747   0.006
 4615SOL    HW114219   2.155   4.734   0.104
 4615SOL    HW214220   2.040   4.739   6.487
 4616SOL     OW14221   2.403   4.688   5.773
 4616SOL    HW114222   2.443   4.738   5.696
 4616SOL    HW214223   2.452   4.713   5.857
 4617SOL     OW14224   1.968   4.374   6.169
 4617SOL    HW114225   1.921   4.285   6.177
 4617SOL    HW214226   2.002   4.401   6.259
 4618SOL     OW14227   3.716   5.484   5.838
 4618SOL    HW114228   3.796   5.465   5.896
 4618SOL    HW214229   3.721   5.577   5.804
 4619SOL     OW14230   1.870   5.302   5.678
 4619SOL    HW114231   1.801   5.230   5.675
 4619SOL    HW214232   1.862   5.352   5.764
 4620SOL     OW14233   3.464   4.541   6.102
 4620SOL    HW114234   3.550   4.590   6.113
 4620SOL    HW214235   3.413   4.579   6.025
 4621SOL     OW14236   3.517   4.849   6.039
 4621SOL    HW114237   3.609   4.867   6.006
 4621SOL    HW214238   3.516   4.851   6.139
 4622SOL     OW14239   2.414   5.096   6.362
 4622SOL    HW114240   2.377   5.004   6.359
 4622SOL    HW214241   2.437   5.127   6.270
 4623SOL     OW14242   2.688   3.772   6.104
 4623SOL    HW114243   2.733   3.861   6.103
 4623SOL    HW214244   2.589   3.784   6.103
 4624SOL     OW14245   3.473   4.705   5.806
 4624SOL    HW114246   3.395   4.646   5.826
 4624SOL    HW214247   3.502   4.751   5.889
 4625SOL     OW14248   3.500   5.583   6.108
 4625SOL    HW114249   3.479   5.543   6.019
 4625SOL    HW214250   3.531   5.511   6.171
 4626SOL     OW14251   2.420   4.422   5.866
 4626SOL    HW114252   2.423   4.513   5.824
 4626SOL    HW214253   2.356   4.423   5.943
 4627SOL     OW14254   3.191   4.095   6.470
 4627SOL    HW114255   3.099   4.076   0.004
 4627SOL    HW214256   3.257   4.041   0.022
 4628SOL     OW14257   3.452   5.427   5.886
 4628SOL    HW114258   3.551   5.434   5.874
 4628SOL    HW214259   3.408   5.420   5.797
 4629SOL     OW14260   2.899   4.396   5.977
 4629SOL    HW114261   2.927   4.393   6.073
 4629SOL    HW214262   2.808   4.355   5.968
 4630SOL     OW14263   2.058   4.476   6.408
 4630SOL    HW114264   2.146   4.523   6.406
 4630SOL    HW214265   1.984   4.542   6.424
 4631SOL     OW14266   2.696   4.036   5.828
 4631SOL    HW114267   2.754   4.076   5.757
 4631SOL    HW214268   2.641   3.962   5.789
 4632SOL     OW14269   3.223   4.829   6.084
 4632SOL    HW114270   3.321   4.840   6.066
 4632SOL    HW214271   3.176   4.916   6.067
 4633SOL     OW14272   2.344   3.973   6.468
 4633SOL    HW114273   2.258   4.013   0.001
 4633SOL    HW214274   2.401   4.045   6.430
 4634SOL     OW14275   2.851   5.172   6.069
 4634SOL    HW114276   2.823   5.262   6.036
 4634SOL    HW214277   2.874   5.178   6.166
 4635SOL     OW14278   2.228   5.565   6.464
 4635SOL    HW114279   2.278   5.480   6.480
 4635SOL    HW214280   2.287   5.643   6.486
 4636SOL     OW14281   3.466   4.671   6.458
 4636SOL    HW114282   3.474   4.748   6.396
 4636SOL    HW214283   3.410   4.697   0.037
 4637SOL     OW14284   2.134   4.642   5.859
 4637SOL    HW114285   2.226   4.664   5.826
 4637SOL    HW214286   2.107   4.552   5.826
 4638SOL     OW14287   3.317   4.488   6.320
 4638SOL    HW114288   3.364   4.539   6.392
 4638SOL    HW214289   3.370   4.496   6.235
 4639SOL     OW14290   2.993   5.476   5.835
 4639SOL    HW114291   2.915   5.473   5.898
 4639SOL    HW214292   2.999   5.389   5.785
 4640SOL     OW14293   3.530   5.132   5.708
 4640SOL    HW114294   3.485   5.220   5.696
 4640SOL    HW214295   3.461   5.059   5.710
 4641SOL     OW14296   2.329   5.511   5.923
 4641SOL    HW114297   2.370   5.570   5.992
 4641SOL    HW214298   2.398   5.449   5.886
 4642SOL     OW14299   3.220   3.789   6.067
 4642SOL    HW114300   3.223   3.771   5.969
 4642SOL    HW214301   3.312   3.778   6.106
 4643SOL     OW14302   2.237   4.403   6.072
 4643SOL    HW114303   2.256   4.305   6.080
 4643SOL    HW214304   2.139   4.419   6.087
 4644SOL     OW14305   2.523   3.830   5.714
 4644SOL    HW114306   2.560   3.750   5.760
 4644SOL    HW214307   2.456   3.801   5.645
 4645SOL     OW14308   2.419   3.813   6.079
 4645SOL    HW114309   2.339   3.806   6.138
 4645SOL    HW214310   2.408   3.891   6.017
 4646SOL     OW14311   3.355   4.928   5.710
 4646SOL    HW114312   3.395   4.844   5.746
 4646SOL    HW214313   3.261   4.935   5.742
 4647SOL     OW14314   2.133   3.785   5.746
 4647SOL    HW114315   2.176   3.862   5.699
 4647SOL    HW214316   2.202   3.735   5.799
 4648SOL     OW14317   2.804   4.024   6.089
 4648SOL    HW114318   2.764   4.038   5.998
 4648SOL    HW214319   2.904   4.024   6.081
 4649SOL     OW14320   2.304   4.843   6.310
 4649SOL    HW114321   2.248   4.811   6.386
 4649SOL    HW214322   2.251   4.840   6.225
 4650SOL     OW14323   3.080   5.455   6.177
 4650SOL    HW114324   3.112   5.544   6.144
 4650SOL    HW214325   2.992   5.467   6.225
 4651SOL     OW14326   2.854   4.176   5.648
 4651SOL    HW114327   2.810   4.265   5.635
 4651SOL    HW214328   2.927   4.184   5.716
 4652SOL     OW14329   2.763   4.199   6.321
 4652SOL    HW114330   2.668   4.206   6.352
 4652SOL    HW214331   2.768   4.138   6.242
 4653SOL     OW14332   2.808   3.632   6.305
 4653SOL    HW114333   2.764   3.685   6.232
 4653SOL    HW214334   2.752   3.552   6.326
 4654SOL     OW14335   3.702   4.496   5.916
 4654SOL    HW114336   3.726   4.457   6.005
 4654SOL    HW214337   3.681   4.421   5.852
 4655SOL     OW14338   2.346   5.149   5.864
 4655SOL    HW114339   2.254   5.120   5.891
 4655SOL    HW214340   2.384   5.082   5.800
 4656SOL     OW14341   3.488   4.914   6.310
 4656SOL    HW114342   3.501   4.937   6.406
 4656SOL    HW214343   3.447   4.992   6.262
 4657SOL     OW14344   3.248   4.259   5.684
 4657SOL    HW114345   3.173   4.231   5.744
 4657SOL    HW214346   3.335   4.237   5.727
 4658SOL     OW14347   2.370   3.995   5.882
 4658SOL    HW114348   2.423   3.942   5.816
 4658SOL    HW214349   2.332   4.075   5.836
 4659SOL     OW14350   2.585   4.749   5.975
 4659SOL    HW114351   2.569   4.723   6.071
 4659SOL    HW214352   2.652   4.687   5.934
 4660SOL     OW14353   2.151   4.824   6.079
 4660SOL    HW114354   2.139   4.912   6.033
 4660SOL    HW214355   2.149   4.751   6.012
 4661SOL     OW14356   2.492   4.215   6.417
 4661SOL    HW114357   2.470   4.291   6.356
 4661SOL    HW214358   2.445   4.227   0.004
 4662SOL     OW14359   3.099   5.069   6.019
 4662SOL    HW114360   3.160   5.149   6.017
 4662SOL    HW214361   3.005   5.099   6.032
 4663SOL     OW14362   3.364   4.292   6.033
 4663SOL    HW114363   3.297   4.268   6.103
 4663SOL    HW214364   3.406   4.380   6.055
 4664SOL     OW14365   3.039   4.201   5.848
 4664SOL    HW114366   3.057   4.130   5.916
 4664SOL    HW214367   2.997   4.280   5.892
 4665SOL     OW14368   2.175   3.793   6.205
 4665SOL    HW114369   2.132   3.883   6.211
 4665SOL    HW214370   2.183   3.754   6.297
 4666SOL     OW14371   3.456   4.110   5.864
 4666SOL    HW114372   3.506   4.041   5.917
 4666SOL    HW214373   3.416   4.177   5.927
 4667SOL     OW14374   3.353   3.942   5.670
 4667SOL    HW114375   3.305   3.871   5.721
 4667SOL    HW214376   3.393   4.008   5.734
 4668SOL     OW14377   3.150   4.518   5.650
 4668SOL    HW114378   3.173   4.421   5.660
 4668SOL    HW214379   3.199   4.556   5.571
 4669SOL     OW14380   2.995   5.125   6.307
 4669SOL    HW114381   2.961   5.031   6.320
 4669SOL    HW214382   3.077   5.123   6.250
 4670SOL     OW14383   1.878   4.992   5.800
 4670SOL    HW114384   1.791   5.035   5.777
 4670SOL    HW214385   1.862   4.898   5.833
 4671SOL     OW14386   1.951   5.554   6.459
 4671SOL    HW114387   1.919   5.464   6.490
 4671SOL    HW214388   2.050   5.550   6.445
 4672SOL     OW14389   2.657   4.293   5.928
 4672SOL    HW114390   2.651   4.198   5.897
 4672SOL    HW214391   2.571   4.340   5.910
 4673SOL     OW14392   2.275   4.217   5.751
 4673SOL    HW114393   2.345   4.282   5.780
 4673SOL    HW214394   2.185   4.260   5.756
 4674SOL     OW14395   3.250   4.587   5.900
 4674SOL    HW114396   3.184   4.628   5.963
 4674SOL    HW214397   3.203   4.554   5.819
 4675SOL     OW14398   3.604   3.930   6.005
 4675SOL    HW114399   3.666   3.902   5.931
 4675SOL    HW214400   3.563   3.849   6.047
 4676SOL     OW14401   3.253   5.293   6.042
 4676SOL    HW114402   3.318   5.344   5.985
 4676SOL    HW214403   3.188   5.356   6.084
 4677SOL     OW14404   3.109   4.653   6.265
 4677SOL    HW114405   3.180   4.583   6.272
 4677SOL    HW214406   3.141   4.726   6.204
 4678SOL     OW14407   2.527   5.354   5.820
 4678SOL    HW114408   2.531   5.367   5.721
 4678SOL    HW214409   2.473   5.272   5.841
 4679SOL     OW14410   3.652   3.914   0.049
 4679SOL    HW114411   3.676   3.831   6.497
 4679SOL    HW214412   3.555   3.933   0.039
 4680SOL     OW14413   2.076   4.039   6.252
 4680SOL    HW114414   1.986   4.073   6.225
 4680SOL    HW214415   2.089   4.053   6.351
 4681SOL     OW14416   2.984   5.234   5.713
 4681SOL    HW114417   3.018   5.142   5.733
 4681SOL    HW214418   2.913   5.229   5.643
 4682SOL     OW14419   2.773   4.597   5.839
 4682SOL    HW114420   2.841   4.658   5.798
 4682SOL    HW214421   2.820   4.526   5.891
 4683SOL     OW14422   3.357   5.410   5.631
 4683SOL    HW114423   3.269   5.390   5.587
 4683SOL    HW214424   3.430   5.408   5.562
 4684SOL     OW14425   2.916   4.864   6.316
 4684SOL    HW114426   2.828   4.830   6.349
 4684SOL    HW214427   2.979   4.788   6.302
 4685SOL     OW14428   2.496   5.170   6.104
 4685SOL    HW114429   2.559   5.113   6.052
 4685SOL    HW214430   2.415   5.191   6.048
 4686SOL     OW14431   2.096   5.066   5.955
 4686SOL    HW114432   2.018   5.045   5.896
 4686SOL    HW214433   2.067   5.128   6.028
 4687SOL     OW14434   1.967   4.065   5.532
 4687SOL    HW114435   1.875   4.053   5.494
 4687SOL    HW214436   1.996   4.160   5.518
 4688SOL     OW14437   1.879   3.870   5.797
 4688SOL    HW114438   1.855   3.936   5.726
 4688SOL    HW214439   1.974   3.843   5.787
 4689SOL     OW14440   3.092   4.973   5.765
 4689SOL    HW114441   3.043   4.887   5.751
 4689SOL    HW214442   3.090   4.997   5.862
 4690SOL     OW14443   3.079   4.027   6.058
 4690SOL    HW114444   3.126   3.939   6.061
 4690SOL    HW214445   3.124   4.092   6.119
 4691SOL     OW14446   2.427   4.440   6.271
 4691SOL    HW114447   2.471   4.529   6.262
 4691SOL    HW214448   2.358   4.429   6.199
 4692SOL     OW14449   2.606   5.079   5.679
 4692SOL    HW114450   2.634   5.069   5.775
 4692SOL    HW214451   2.676   5.130   5.629
 4693SOL     OW14452   2.547   5.570   0.046
 4693SOL    HW114453   2.490   5.652   0.031
 4693SOL    HW214454   2.643   5.594   0.036
 4694SOL     OW14455   2.692   4.763   6.454
 4694SOL    HW114456   2.767   4.728   0.009
 4694SOL    HW214457   2.634   4.823   0.010
 4695SOL     OW14458   2.976   4.733   5.704
 4695SOL    HW114459   2.910   4.753   5.632
 4695SOL    HW214460   3.031   4.654   5.677
 4696SOL     OW14461   3.570   5.365   6.257
 4696SOL    HW114462   3.512   5.285   6.242
 4696SOL    HW214463   3.623   5.352   6.341
 4697SOL     OW14464   1.932   4.872   6.242
 4697SOL    HW114465   1.924   4.808   6.317
 4697SOL    HW214466   2.013   4.850   6.187
 4698SOL     OW14467   2.277   4.143   6.098
 4698SOL    HW114468   2.309   4.078   6.028
 4698SOL    HW214469   2.207   4.099   6.154
 4699SOL     OW14470   2.651   5.268   6.318
 4699SOL    HW114471   2.622   5.249   6.224
 4699SOL    HW214472   2.580   5.239   6.382
 4700SOL     OW14473   2.658   5.018   5.941
 4700SOL    HW114474   2.642   4.921   5.959
 4700SOL    HW214475   2.740   5.048   5.990
 4701SOL     OW14476   3.234   3.730   5.796
 4701SOL    HW114477   3.286   3.660   5.745
 4701SOL    HW214478   3.141   3.698   5.810
 4702SOL     OW14479   3.187   4.214   6.228
 4702SOL    HW114480   3.113   4.281   6.232
 4702SOL    HW214481   3.193   4.166   6.315
 4703SOL     OW14482   1.874   4.731   5.904
 4703SOL    HW114483   1.969   4.715   5.880
 4703SOL    HW214484   1.832   4.644   5.933
 4704SOL     OW14485   2.751   5.417   5.977
 4704SOL    HW114486   2.673   5.389   5.921
 4704SOL    HW214487   2.728   5.501   6.027
 4705SOL     OW14488   2.040   6.201   0.149
 4705SOL    HW114489   1.946   6.209   0.184
 4705SOL    HW214490   2.056   6.107   0.117
 4706SOL     OW14491   2.061   5.843   1.011
 4706SOL    HW114492   2.106   5.812   1.095
 4706SOL    HW214493   1.969   5.805   1.007
 4707SOL     OW14494   1.809   5.948   0.650
 4707SOL    HW114495   1.724   5.973   0.696
 4707SOL    HW214496   1.790   5.874   0.585
 4708SOL     OW14497   3.065   6.315   0.651
 4708SOL    HW114498   3.141   6.379   0.658
 4708SOL    HW214499   3.006   6.324   0.732
 4709SOL     OW14500   3.591   6.189   0.255
 4709SOL    HW114501   3.648   6.136   0.191
 4709SOL    HW214502   3.521   6.129   0.294
 4710SOL     OW14503   2.747   6.307   1.799
 4710SOL    HW114504   2.731   6.370   1.874
 4710SOL    HW214505   2.784   6.357   1.721
 4711SOL     OW14506   2.554   6.487   0.736
 4711SOL    HW114507   2.634   0.026   0.781
 4711SOL    HW214508   2.477   0.051   0.744
 4712SOL     OW14509   2.282   5.974   1.496
 4712SOL    HW114510   2.346   5.952   1.570
 4712SOL    HW214511   2.199   5.919   1.507
 4713SOL     OW14512   3.425   6.019   0.726
 4713SOL    HW114513   3.332   6.020   0.691
 4713SOL    HW214514   3.451   6.112   0.753
 4714SOL     OW14515   3.425   5.720   1.445
 4714SOL    HW114516   3.497   5.762   1.391
 4714SOL    HW214517   3.403   5.780   1.523
 4715SOL     OW14518   1.917   6.200   0.597
 4715SOL    HW114519   1.882   6.108   0.607
 4715SOL    HW214520   1.915   6.247   0.685
 4716SOL     OW14521   2.073   6.350   1.613
 4716SOL    HW114522   2.173   6.352   1.613
 4716SOL    HW214523   2.037   6.428   1.664
 4717SOL     OW14524   2.676   5.623   0.504
 4717SOL    HW114525   2.725   5.705   0.474
 4717SOL    HW214526   2.577   5.639   0.498
 4718SOL     OW14527   2.183   5.795   1.820
 4718SOL    HW114528   2.239   5.877   1.813
 4718SOL    HW214529   2.086   5.820   1.814
 4719SOL     OW14530   2.459   6.331   0.335
 4719SOL    HW114531   2.454   6.388   0.253
 4719SOL    HW214532   2.429   6.383   0.415
 4720SOL     OW14533   3.128   5.978   0.931
 4720SOL    HW114534   3.034   5.944   0.929
 4720SOL    HW214535   3.183   5.919   0.990
 4721SOL     OW14536   2.666   6.204   1.459
 4721SOL    HW114537   2.627   6.170   1.544
 4721SOL    HW214538   2.642   6.143   1.384
 4722SOL     OW14539   3.254   6.080   1.655
 4722SOL    HW114540   3.267   6.146   1.728
 4722SOL    HW214541   3.308   5.998   1.673
 4723SOL     OW14542   2.860   5.966   1.187
 4723SOL    HW114543   2.770   5.995   1.219
 4723SOL    HW214544   2.851   5.923   1.097
 4724SOL     OW14545   2.950   6.324   0.396
 4724SOL    HW114546   2.990   6.323   0.487
 4724SOL    HW214547   2.853   6.299   0.401
 4725SOL     OW14548   1.917   6.365   0.823
 4725SOL    HW114549   1.997   6.339   0.876
 4725SOL    HW214550   1.945   6.427   0.749
 4726SOL     OW14551   2.708   5.846   0.175
 4726SOL    HW114552   2.746   5.927   0.129
 4726SOL    HW214553   2.739   5.764   0.126
 4727SOL     OW14554   3.562   6.182   1.807
 4727SOL    HW114555   3.540   6.256   1.744
 4727SOL    HW214556   3.587   6.100   1.755
 4728SOL     OW14557   2.413   5.746   0.964
 4728SOL    HW114558   2.423   5.772   1.061
 4728SOL    HW214559   2.419   5.827   0.907
 4729SOL     OW14560   3.464   6.294   0.794
 4729SOL    HW114561   3.409   6.270   0.874
 4729SOL    HW214562   3.554   6.326   0.824
 4730SOL     OW14563   2.049   5.830   1.500
 4730SOL    HW114564   1.973   5.894   1.491
 4730SOL    HW214565   2.016   5.744   1.540
 4731SOL     OW14566   3.214   5.698   0.453
 4731SOL    HW114567   3.217   5.669   0.357
 4731SOL    HW214568   3.305   5.726   0.482
 4732SOL     OW14569   2.181   6.232   0.509
 4732SOL    HW114570   2.221   6.140   0.515
 4732SOL    HW214571   2.083   6.226   0.530
 4733SOL     OW14572   3.367   5.832   1.709
 4733SOL    HW114573   3.385   5.857   1.804
 4733SOL    HW214574   3.305   5.754   1.707
 4734SOL     OW14575   2.641   5.853   1.682
 4734SOL    HW114576   2.737   5.825   1.683
 4734SOL    HW214577   2.590   5.797   1.748
 4735SOL     OW14578   3.151   6.194   1.431
 4735SOL    HW114579   3.185   6.146   1.512
 4735SOL    HW214580   3.185   6.287   1.431
 4736SOL     OW14581   2.784   6.098   0.856
 4736SOL    HW114582   2.760   6.087   0.760
 4736SOL    HW214583   2.811   6.009   0.894
 4737SOL     OW14584   2.409   5.678   0.472
 4737SOL    HW114585   2.330   5.686   0.532
 4737SOL    HW214586   2.412   5.757   0.411
 4738SOL     OW14587   2.124   5.682   0.205
 4738SOL    HW114588   2.127   5.645   0.112
 4738SOL    HW214589   2.184   5.628   0.264
 4739SOL     OW14590   2.814   5.843   0.425
 4739SOL    HW114591   2.776   5.848   0.333
 4739SOL    HW214592   2.909   5.876   0.425
 4740SOL     OW14593   2.904   6.292   1.342
 4740SOL    HW114594   2.826   6.252   1.391
 4740SOL    HW214595   2.988   6.248   1.373
 4741SOL     OW14596   2.332   0.150   0.711
 4741SOL    HW114597   2.248   0.185   0.753
 4741SOL    HW214598   2.308   0.089   0.635
 4742SOL     OW14599   2.834   6.051   0.057
 4742SOL    HW114600   2.814   6.076   6.462
 4742SOL    HW214601   2.913   6.104   0.089
 4743SOL     OW14602   1.977   6.212   1.386
 4743SOL    HW114603   2.067   6.187   1.350
 4743SOL    HW214604   1.989   6.270   1.466
 4744SOL     OW14605   2.429   5.828   1.228
 4744SOL    HW114606   2.479   5.786   1.304
 4744SOL    HW214607   2.331   5.813   1.240
 4745SOL     OW14608   2.733   6.046   0.596
 4745SOL    HW114609   2.712   6.116   0.528
 4745SOL    HW214610   2.758   5.961   0.551
 4746SOL     OW14611   2.841   5.649   0.726
 4746SOL    HW114612   2.780   5.645   0.648
 4746SOL    HW214613   2.817   5.577   0.791
 4747SOL     OW14614   3.301   6.201   0.995
 4747SOL    HW114615   3.237   6.125   0.980
 4747SOL    HW214616   3.362   6.178   1.071
 4748SOL     OW14617   3.611   6.402   0.425
 4748SOL    HW114618   3.667   6.357   0.494
 4748SOL    HW214619   3.599   6.341   0.347
 4749SOL     OW14620   3.268   6.200   0.071
 4749SOL    HW114621   3.183   6.191   0.123
 4749SOL    HW214622   3.313   6.111   0.067
 4750SOL     OW14623   2.448   5.871   0.277
 4750SOL    HW114624   2.543   5.871   0.246
 4750SOL    HW214625   2.410   5.963   0.267
 4751SOL     OW14626   2.815   5.625   1.358
 4751SOL    HW114627   2.838   5.612   1.261
 4751SOL    HW214628   2.886   5.680   1.401
 4752SOL     OW14629   2.571   0.160   0.296
 4752SOL    HW114630   2.621   0.246   0.305
 4752SOL    HW214631   2.608   0.094   0.360
 4753SOL     OW14632   2.291   6.407   1.279
 4753SOL    HW114633   2.372   6.417   1.337
 4753SOL    HW214634   2.258   6.313   1.283
 4754SOL     OW14635   3.113   5.964   1.282
 4754SOL    HW114636   3.134   6.049   1.330
 4754SOL    HW214637   3.019   5.969   1.246
 4755SOL     OW14638   2.431   6.020   0.862
 4755SOL    HW114639   2.416   6.092   0.795
 4755SOL    HW214640   2.497   6.052   0.931
 4756SOL     OW14641   3.396   6.258   0.526
 4756SOL    HW114642   3.408   6.268   0.624
 4756SOL    HW214643   3.456   6.322   0.478
 4757SOL     OW14644   2.346   6.361   1.648
 4757SOL    HW114645   2.398   6.390   1.567
 4757SOL    HW214646   2.393   6.285   1.692
 4758SOL     OW14647   3.476   6.383   1.644
 4758SOL    HW114648   3.384   6.370   1.609
 4758SOL    HW214649   3.525   6.449   1.587
 4759SOL     OW14650   2.877   5.723   1.760
 4759SOL    HW114651   2.942   5.797   1.741
 4759SOL    HW214652   2.916   5.636   1.730
 4760SOL     OW14653   2.335   5.585   1.727
 4760SOL    HW114654   2.275   5.531   1.667
 4760SOL    HW214655   2.284   5.662   1.763
 4761SOL     OW14656   2.400   6.412   1.026
 4761SOL    HW114657   2.433   0.005   1.005
 4761SOL    HW214658   2.359   6.411   1.117
 4762SOL     OW14659   3.226   6.465   0.985
 4762SOL    HW114660   3.230   6.495   0.890
 4762SOL    HW214661   3.237   6.365   0.988
 4763SOL     OW14662   3.048   6.136   0.228
 4763SOL    HW114663   3.063   6.057   0.287
 4763SOL    HW214664   3.016   6.213   0.283
 4764SOL     OW14665   2.163   5.763   1.255
 4764SOL    HW114666   2.128   5.795   1.343
 4764SOL    HW214667   2.140   5.666   1.244
 4765SOL     OW14668   2.577   6.195   1.025
 4765SOL    HW114669   2.649   6.191   0.955
 4765SOL    HW214670   2.519   6.275   1.008
 4766SOL     OW14671   3.630   0.053   1.816
 4766SOL    HW114672   3.568   6.488   1.772
 4766SOL    HW214673   3.578   0.111   1.880
 4767SOL     OW14674   2.180   5.661   0.641
 4767SOL    HW114675   2.137   5.749   0.661
 4767SOL    HW214676   2.196   5.611   0.727
 4768SOL     OW14677   3.403   6.022   0.389
 4768SOL    HW114678   3.413   5.945   0.452
 4768SOL    HW214679   3.384   6.105   0.441
 4769SOL     OW14680   2.913   6.340   0.877
 4769SOL    HW114681   2.946   6.353   0.970
 4769SOL    HW214682   2.864   6.252   0.870
 4770SOL     OW14683   3.305   5.912   0.158
 4770SOL    HW114684   3.274   5.818   0.174
 4770SOL    HW214685   3.327   5.956   0.244
 4771SOL     OW14686   2.139   6.305   0.964
 4771SOL    HW114687   2.221   6.363   0.962
 4771SOL    HW214688   2.164   6.212   0.989
 4772SOL     OW14689   2.221   6.057   1.033
 4772SOL    HW114690   2.157   5.981   1.024
 4772SOL    HW214691   2.298   6.044   0.971
 4773SOL     OW14692   3.021   5.942   1.683
 4773SOL    HW114693   2.971   5.999   1.748
 4773SOL    HW214694   3.108   5.986   1.660
 4774SOL     OW14695   3.024   5.771   1.464
 4774SOL    HW114696   3.014   5.828   1.545
 4774SOL    HW214697   3.064   5.824   1.390
 4775SOL     OW14698   1.860   6.200   1.137
 4775SOL    HW114699   1.928   6.220   1.068
 4775SOL    HW214700   1.899   6.213   1.228
 4776SOL     OW14701   2.070   6.122   1.769
 4776SOL    HW114702   2.165   6.091   1.760
 4776SOL    HW214703   2.055   6.199   1.707
 4777SOL     OW14704   2.698   6.201   0.369
 4777SOL    HW114705   2.713   6.156   0.281
 4777SOL    HW214706   2.614   6.254   0.366
 4778SOL     OW14707   3.516   6.198   1.182
 4778SOL    HW114708   3.525   6.143   1.265
 4778SOL    HW214709   3.606   6.207   1.138
 4779SOL     OW14710   2.600   6.045   1.248
 4779SOL    HW114711   2.534   5.971   1.243
 4779SOL    HW214712   2.588   6.106   1.169
 4780SOL     OW14713   2.333   6.121   0.212
 4780SOL    HW114714   2.381   6.191   0.265
 4780SOL    HW214715   2.235   6.137   0.216
 4781SOL     OW14716   2.814   5.629   0.035
 4781SOL    HW114717   2.823   5.592   6.443
 4781SOL    HW214718   2.886   5.591   0.094
 4782SOL     OW14719   3.473   5.770   0.509
 4782SOL    HW114720   3.549   5.788   0.446
 4782SOL    HW214721   3.481   5.677   0.544
 4783SOL     OW14722   3.273   6.492   0.699
 4783SOL    HW114723   3.356   6.445   0.726
 4783SOL    HW214724   3.289   0.043   0.615
 4784SOL     OW14725   3.672   5.757   1.026
 4784SOL    HW114726   3.712   5.669   1.001
 4784SOL    HW214727   3.589   5.773   0.972
 4785SOL     OW14728   2.068   5.893   0.736
 4785SOL    HW114729   1.975   5.917   0.708
 4785SOL    HW214730   2.071   5.879   0.835
 4786SOL     OW14731   2.883   5.832   0.938
 4786SOL    HW114732   2.866   5.792   0.848
 4786SOL    HW214733   2.899   5.759   1.005
 4787SOL     OW14734   3.627   6.035   1.394
 4787SOL    HW114735   3.708   6.093   1.387
 4787SOL    HW214736   3.646   5.946   1.351
 4788SOL     OW14737   2.016   0.069   1.771
 4788SOL    HW114738   1.921   0.053   1.796
 4788SOL    HW214739   2.070   0.086   1.854
 4789SOL     OW14740   2.568   5.724   1.442
 4789SOL    HW114741   2.654   5.685   1.406
 4789SOL    HW214742   2.588   5.779   1.523
 4790SOL     OW14743   3.257   6.443   1.457
 4790SOL    HW114744   3.209   0.027   1.482
 4790SOL    HW214745   3.312   6.458   1.375
 4791SOL     OW14746   1.858   5.725   0.257
 4791SOL    HW114747   1.826   5.762   0.170
 4791SOL    HW214748   1.958   5.718   0.255
 4792SOL     OW14749   2.507   6.428   1.439
 4792SOL    HW114750   2.548   0.018   1.454
 4792SOL    HW214751   2.578   6.359   1.438
 4793SOL     OW14752   2.566   6.119   1.708
 4793SOL    HW114753   2.631   6.180   1.754
 4793SOL    HW214754   2.605   6.028   1.702
 4794SOL     OW14755   3.394   6.454   1.214
 4794SOL    HW114756   3.440   6.366   1.210
 4794SOL    HW214757   3.336   6.465   1.133
 4795SOL     OW14758   3.075   5.933   0.428
 4795SOL    HW114759   3.120   5.844   0.431
 4795SOL    HW214760   3.099   5.986   0.509
 4796SOL     OW14761   2.405   6.244   0.708
 4796SOL    HW114762   2.459   6.327   0.720
 4796SOL    HW214763   2.330   6.262   0.645
 4797SOL     OW14764   3.610   5.953   1.657
 4797SOL    HW114765   3.610   5.987   1.562
 4797SOL    HW214766   3.528   5.900   1.673
 4798SOL     OW14767   3.658   5.780   1.297
 4798SOL    HW114768   3.716   5.705   1.329
 4798SOL    HW214769   3.653   5.778   1.197
 4799SOL     OW14770   2.273   5.984   0.573
 4799SOL    HW114771   2.362   5.975   0.619
 4799SOL    HW214772   2.201   5.953   0.635
 4800SOL     OW14773   2.222   6.145   1.293
 4800SOL    HW114774   2.256   6.081   1.361
 4800SOL    HW214775   2.231   6.105   1.202
 4801SOL     OW14776   3.265   5.819   1.108
 4801SOL    HW114777   3.271   5.724   1.138
 4801SOL    HW214778   3.220   5.873   1.179
 4802SOL     OW14779   2.916   5.597   1.091
 4802SOL    HW114780   2.857   5.536   1.038
 4802SOL    HW214781   3.009   5.561   1.092
 4803SOL     OW14782   3.224   5.648   0.186
 4803SOL    HW114783   3.295   5.602   0.132
 4803SOL    HW214784   3.139   5.596   0.179
 4804SOL     OW14785   3.157   6.054   0.664
 4804SOL    HW114786   3.125   6.148   0.650
 4804SOL    HW214787   3.137   6.026   0.758
 4805SOL     OW14788   3.439   5.798   0.894
 4805SOL    HW114789   3.375   5.817   0.968
 4805SOL    HW214790   3.434   5.871   0.825
 4806SOL     OW14791   2.022   6.174   2.035
 4806SOL    HW114792   1.928   6.153   2.061
 4806SOL    HW214793   2.031   6.167   1.935
 4807SOL     OW14794   2.053   5.826   2.934
 4807SOL    HW114795   2.098   5.761   2.994
 4807SOL    HW214796   2.037   5.912   2.982
 4808SOL     OW14797   1.727   6.198   2.370
 4808SOL    HW114798   1.682   6.128   2.425
 4808SOL    HW214799   1.760   6.158   2.285
 4809SOL     OW14800   3.108   6.303   2.468
 4809SOL    HW114801   3.145   6.396   2.474
 4809SOL    HW214802   3.022   6.305   2.417
 4810SOL     OW14803   3.669   6.188   2.055
 4810SOL    HW114804   3.632   6.194   1.962
 4810SOL    HW214805   3.616   6.121   2.107
 4811SOL     OW14806   2.867   6.430   3.702
 4811SOL    HW114807   2.823   6.447   3.790
 4811SOL    HW214808   2.798   6.409   3.634
 4812SOL     OW14809   2.615   0.331   2.522
 4812SOL    HW114810   2.689   0.272   2.554
 4812SOL    HW214811   2.529   0.305   2.567
 4813SOL     OW14812   2.311   6.159   3.711
 4813SOL    HW114813   2.410   6.159   3.702
 4813SOL    HW214814   2.279   6.067   3.733
 4814SOL     OW14815   3.466   5.953   2.607
 4814SOL    HW114816   3.415   5.980   2.525
 4814SOL    HW214817   3.419   5.988   2.688
 4815SOL     OW14818   3.441   5.720   3.240
 4815SOL    HW114819   3.367   5.775   3.203
 4815SOL    HW214820   3.448   5.735   3.338
 4816SOL     OW14821   1.764   6.470   2.383
 4816SOL    HW114822   1.747   6.372   2.386
 4816SOL    HW214823   1.790   0.002   2.474
 4817SOL     OW14824   1.880   6.362   3.608
 4817SOL    HW114825   1.977   6.385   3.619
 4817SOL    HW214826   1.824   6.437   3.644
 4818SOL     OW14827   2.761   5.608   2.152
 4818SOL    HW114828   2.833   5.674   2.173
 4818SOL    HW214829   2.693   5.652   2.093
 4819SOL     OW14830   2.132   5.951   3.813
 4819SOL    HW114831   2.153   6.011   3.891
 4819SOL    HW214832   2.064   5.995   3.755
 4820SOL     OW14833   2.481   6.235   2.068
 4820SOL    HW114834   2.470   6.334   2.062
 4820SOL    HW214835   2.392   6.192   2.083
 4821SOL     OW14836   3.249   6.035   2.768
 4821SOL    HW114837   3.172   6.096   2.782
 4821SOL    HW214838   3.236   5.951   2.821
 4822SOL     OW14839   2.660   6.370   3.540
 4822SOL    HW114840   2.626   6.289   3.589
 4822SOL    HW214841   2.587   6.407   3.482
 4823SOL     OW14842   3.302   6.083   3.619
 4823SOL    HW114843   3.310   6.163   3.679
 4823SOL    HW214844   3.340   6.003   3.665
 4824SOL     OW14845   3.176   6.153   3.062
 4824SOL    HW114846   3.207   6.158   3.157
 4824SOL    HW214847   3.173   6.244   3.022
 4825SOL     OW14848   3.107   6.379   2.182
 4825SOL    HW114849   3.137   6.346   2.272
 4825SOL    HW214850   3.018   6.423   2.190
 4826SOL     OW14851   1.870   0.039   2.635
 4826SOL    HW114852   1.910   6.480   2.705
 4826SOL    HW214853   1.941   0.067   2.571
 4827SOL     OW14854   2.782   5.890   1.972
 4827SOL    HW114855   2.827   5.971   1.934
 4827SOL    HW214856   2.798   5.812   1.911
 4828SOL     OW14857   3.635   6.204   3.640
 4828SOL    HW114858   3.581   6.273   3.592
 4828SOL    HW214859   3.634   6.119   3.588
 4829SOL     OW14860   3.484   6.371   2.609
 4829SOL    HW114861   3.446   6.330   2.691
 4829SOL    HW214862   3.582   6.390   2.623
 4830SOL     OW14863   1.803   5.881   3.585
 4830SOL    HW114864   1.716   5.907   3.543
 4830SOL    HW214865   1.825   5.788   3.559
 4831SOL     OW14866   3.338   5.720   2.267
 4831SOL    HW114867   3.336   5.679   2.176
 4831SOL    HW214868   3.433   5.738   2.293
 4832SOL     OW14869   2.134   6.379   2.180
 4832SOL    HW114870   2.099   6.305   2.122
 4832SOL    HW214871   2.073   6.392   2.258
 4833SOL     OW14872   3.441   5.774   3.513
 4833SOL    HW114873   3.429   5.814   3.603
 4833SOL    HW214874   3.393   5.687   3.508
 4834SOL     OW14875   2.565   5.656   1.863
 4834SOL    HW114876   2.640   5.592   1.853
 4834SOL    HW214877   2.482   5.617   1.821
 4835SOL     OW14878   2.684   5.900   3.656
 4835SOL    HW114879   2.759   5.837   3.675
 4835SOL    HW214880   2.602   5.871   3.706
 4836SOL     OW14881   3.279   6.122   3.343
 4836SOL    HW114882   3.292   6.103   3.440
 4836SOL    HW214883   3.289   6.221   3.327
 4837SOL     OW14884   3.059   6.236   2.723
 4837SOL    HW114885   3.083   6.257   2.629
 4837SOL    HW214886   2.969   6.191   2.726
 4838SOL     OW14887   2.377   5.567   2.140
 4838SOL    HW114888   2.457   5.534   2.190
 4838SOL    HW214889   2.393   5.661   2.109
 4839SOL     OW14890   2.127   5.633   2.032
 4839SOL    HW114891   2.158   5.694   1.959
 4839SOL    HW214892   2.207   5.596   2.079
 4840SOL     OW14893   2.934   5.811   2.190
 4840SOL    HW114894   2.890   5.857   2.113
 4840SOL    HW214895   3.021   5.857   2.210
 4841SOL     OW14896   3.070   0.039   3.198
 4841SOL    HW114897   3.081   0.114   3.263
 4841SOL    HW214898   2.999   6.476   3.231
 4842SOL     OW14899   2.350   0.235   2.564
 4842SOL    HW114900   2.321   0.317   2.514
 4842SOL    HW214901   2.343   0.155   2.504
 4843SOL     OW14902   2.915   6.101   1.872
 4843SOL    HW114903   2.859   6.182   1.858
 4843SOL    HW214904   2.988   6.121   1.938
 4844SOL     OW14905   1.736   6.477   3.348
 4844SOL    HW114906   1.757   0.033   3.268
 4844SOL    HW214907   1.821   6.451   3.394
 4845SOL     OW14908   2.905   6.194   2.316
 4845SOL    HW114909   2.833   6.185   2.247
 4845SOL    HW214910   2.937   6.103   2.342
 4846SOL     OW14911   2.960   5.488   2.331
 4846SOL    HW114912   2.872   5.523   2.299
 4846SOL    HW214913   2.945   5.413   2.396
 4847SOL     OW14914   3.389   6.258   2.837
 4847SOL    HW114915   3.340   6.173   2.818
 4847SOL    HW214916   3.460   6.242   2.906
 4848SOL     OW14917   3.691   6.371   2.263
 4848SOL    HW114918   3.753   6.327   2.328
 4848SOL    HW214919   3.692   6.321   2.176
 4849SOL     OW14920   3.299   6.240   1.876
 4849SOL    HW114921   3.243   6.192   1.944
 4849SOL    HW214922   3.393   6.208   1.881
 4850SOL     OW14923   2.437   5.813   2.046
 4850SOL    HW114924   2.494   5.769   1.977
 4850SOL    HW214925   2.435   5.912   2.031
 4851SOL     OW14926   3.043   5.509   3.425
 4851SOL    HW114927   3.044   5.511   3.525
 4851SOL    HW214928   3.044   5.602   3.389
 4852SOL     OW14929   2.568   0.237   2.264
 4852SOL    HW114930   2.579   0.288   2.349
 4852SOL    HW214931   2.589   0.140   2.280
 4853SOL     OW14932   3.236   5.903   3.178
 4853SOL    HW114933   3.267   5.962   3.253
 4853SOL    HW214934   3.200   5.961   3.104
 4854SOL     OW14935   2.505   6.118   2.766
 4854SOL    HW114936   2.518   6.035   2.712
 4854SOL    HW214937   2.555   6.111   2.852
 4855SOL     OW14938   3.472   6.239   2.363
 4855SOL    HW114939   3.458   6.274   2.455
 4855SOL    HW214940   3.542   6.293   2.317
 4856SOL     OW14941   2.163   6.366   3.613
 4856SOL    HW114942   2.161   6.337   3.517
 4856SOL    HW214943   2.214   6.299   3.667
 4857SOL     OW14944   3.484   6.396   3.513
 4857SOL    HW114945   3.398   6.362   3.475
 4857SOL    HW214946   3.518   6.470   3.455
 4858SOL     OW14947   2.937   5.768   3.717
 4858SOL    HW114948   2.981   5.837   3.659
 4858SOL    HW214949   2.989   5.683   3.712
 4859SOL     OW14950   2.336   5.614   3.729
 4859SOL    HW114951   2.314   5.549   3.656
 4859SOL    HW214952   2.254   5.634   3.782
 4860SOL     OW14953   2.238   0.251   2.824
 4860SOL    HW114954   2.279   0.242   2.733
 4860SOL    HW214955   2.311   0.254   2.892
 4861SOL     OW14956   3.256   6.493   2.875
 4861SOL    HW114957   3.195   0.021   2.801
 4861SOL    HW214958   3.299   6.406   2.851
 4862SOL     OW14959   3.119   6.133   2.055
 4862SOL    HW114960   3.141   6.061   2.120
 4862SOL    HW214961   3.106   6.219   2.105
 4863SOL     OW14962   2.214   5.684   3.096
 4863SOL    HW114963   2.274   5.742   3.152
 4863SOL    HW214964   2.270   5.633   3.030
 4864SOL     OW14965   2.613   6.063   3.010
 4864SOL    HW114966   2.673   6.007   3.068
 4864SOL    HW214967   2.533   6.092   3.064
 4865SOL     OW14968   3.628   0.077   3.681
 4865SOL    HW114969   3.574   0.003   3.641
 4865SOL    HW214970   3.570   0.131   3.742
 4866SOL     OW14971   2.187   5.704   2.721
 4866SOL    HW114972   2.209   5.782   2.662
 4866SOL    HW214973   2.124   5.733   2.792
 4867SOL     OW14974   3.505   6.018   2.199
 4867SOL    HW114975   3.540   5.940   2.250
 4867SOL    HW214976   3.478   6.090   2.263
 4868SOL     OW14977   2.991   0.008   2.735
 4868SOL    HW114978   2.960   0.038   2.826
 4868SOL    HW214979   3.016   6.411   2.739
 4869SOL     OW14980   3.410   5.893   1.966
 4869SOL    HW114981   3.379   5.801   1.993
 4869SOL    HW214982   3.438   5.944   2.047
 4870SOL     OW14983   2.040   0.127   2.973
 4870SOL    HW114984   2.106   0.164   2.907
 4870SOL    HW214985   2.068   0.036   3.001
 4871SOL     OW14986   2.252   6.171   2.872
 4871SOL    HW114987   2.196   6.115   2.811
 4871SOL    HW214988   2.344   6.180   2.834
 4872SOL     OW14989   3.048   5.977   3.577
 4872SOL    HW114990   2.987   6.040   3.625
 4872SOL    HW214991   3.142   6.011   3.582
 4873SOL     OW14992   3.068   5.778   3.372
 4873SOL    HW114993   3.051   5.850   3.440
 4873SOL    HW214994   3.121   5.816   3.296
 4874SOL     OW14995   2.072   6.062   3.064
 4874SOL    HW114996   2.125   6.120   3.001
 4874SOL    HW214997   2.108   6.072   3.157
 4875SOL     OW14998   1.943   6.104   3.676
 4875SOL    HW114999   1.897   6.027   3.631
 4875SOL    HW215000   1.909   6.190   3.638
 4876SOL     OW15001   2.720   6.123   2.130
 4876SOL    HW115002   2.722   6.033   2.087
 4876SOL    HW215003   2.633   6.169   2.109
 4877SOL     OW15004   3.582   6.228   3.023
 4877SOL    HW115005   3.590   6.171   3.105
 4877SOL    HW215006   3.671   6.237   2.979
 4878SOL     OW15007   2.329   6.028   1.809
 4878SOL    HW115008   2.416   6.065   1.776
 4878SOL    HW215009   2.317   6.051   1.905
 4879SOL     OW15010   3.618   5.780   2.304
 4879SOL    HW115011   3.677   5.771   2.224
 4879SOL    HW215012   3.609   5.691   2.348
 4880SOL     OW15013   3.271   0.018   2.498
 4880SOL    HW115014   3.350   6.476   2.543
 4880SOL    HW215015   3.302   0.067   2.417
 4881SOL     OW15016   3.697   5.704   2.869
 4881SOL    HW115017   3.744   5.619   2.846
 4881SOL    HW215018   3.607   5.705   2.825
 4882SOL     OW15019   2.106   5.997   2.724
 4882SOL    HW115020   2.028   6.006   2.662
 4882SOL    HW215021   2.082   5.934   2.798
 4883SOL     OW15022   2.746   0.021   1.974
 4883SOL    HW115023   2.794   0.068   1.900
 4883SOL    HW215024   2.801   0.021   2.056
 4884SOL     OW15025   3.110   5.585   2.790
 4884SOL    HW115026   3.098   5.540   2.702
 4884SOL    HW215027   3.118   5.515   2.862
 4885SOL     OW15028   3.671   6.066   3.234
 4885SOL    HW115029   3.753   6.121   3.222
 4885SOL    HW215030   3.682   5.979   3.184
 4886SOL     OW15031   1.993   0.137   3.613
 4886SOL    HW115032   1.893   0.136   3.620
 4886SOL    HW215033   2.034   0.103   3.698
 4887SOL     OW15034   2.428   5.838   3.192
 4887SOL    HW115035   2.490   5.799   3.124
 4887SOL    HW215036   2.472   5.837   3.282
 4888SOL     OW15037   1.924   5.902   1.841
 4888SOL    HW115038   1.838   5.899   1.789
 4888SOL    HW215039   1.973   5.986   1.820
 4889SOL     OW15040   3.290   6.388   3.284
 4889SOL    HW115041   3.210   6.442   3.258
 4889SOL    HW215042   3.370   6.419   3.232
 4890SOL     OW15043   1.883   5.739   2.092
 4890SOL    HW115044   1.864   5.801   2.016
 4890SOL    HW215045   1.977   5.704   2.084
 4891SOL     OW15046   2.418   0.128   3.327
 4891SOL    HW115047   2.487   0.197   3.349
 4891SOL    HW215048   2.370   0.102   3.411
 4892SOL     OW15049   2.587   6.156   3.694
 4892SOL    HW115050   2.602   6.175   3.792
 4892SOL    HW215051   2.630   6.069   3.671
 4893SOL     OW15052   3.455   6.468   3.076
 4893SOL    HW115053   3.508   6.385   3.058
 4893SOL    HW215054   3.389   6.482   3.003
 4894SOL     OW15055   3.172   5.942   2.251
 4894SOL    HW115056   3.226   5.858   2.246
 4894SOL    HW215057   3.192   5.990   2.336
 4895SOL     OW15058   2.674   0.009   2.407
 4895SOL    HW115059   2.722   0.060   2.478
 4895SOL    HW215060   2.621   6.435   2.448
 4896SOL     OW15061   3.638   5.965   3.486
 4896SOL    HW115062   3.636   6.011   3.397
 4896SOL    HW215063   3.566   5.896   3.489
 4897SOL     OW15064   3.670   5.820   3.119
 4897SOL    HW115065   3.590   5.778   3.162
 4897SOL    HW215066   3.685   5.778   3.030
 4898SOL     OW15067   2.264   6.059   2.074
 4898SOL    HW115068   2.264   5.987   2.143
 4898SOL    HW215069   2.173   6.099   2.067
 4899SOL     OW15070   2.367   6.104   3.120
 4899SOL    HW115071   2.367   6.006   3.139
 4899SOL    HW215072   2.324   6.121   3.031
 4900SOL     OW15073   3.228   5.798   2.901
 4900SOL    HW115074   3.174   5.725   2.860
 4900SOL    HW215075   3.222   5.792   3.001
 4901SOL     OW15076   2.578   5.712   2.997
 4901SOL    HW115077   2.501   5.664   2.956
 4901SOL    HW215078   2.658   5.652   3.000
 4902SOL     OW15079   3.327   5.632   2.008
 4902SOL    HW115080   3.374   5.555   1.966
 4902SOL    HW215081   3.234   5.604   2.034
 4903SOL     OW15082   3.233   6.063   2.488
 4903SOL    HW115083   3.202   6.156   2.471
 4903SOL    HW215084   3.230   6.044   2.586
 4904SOL     OW15085   3.447   5.710   2.754
 4904SOL    HW115086   3.369   5.741   2.809
 4904SOL    HW215087   3.463   5.776   2.680
 4905SOL     OW15088   1.975   6.261   3.902
 4905SOL    HW115089   1.881   6.243   3.932
 4905SOL    HW215090   1.991   6.216   3.815
 4906SOL     OW15091   1.982   5.938   4.747
 4906SOL    HW115092   2.019   5.907   4.834
 4906SOL    HW215093   1.911   5.875   4.717
 4907SOL     OW15094   1.806   5.998   4.379
 4907SOL    HW115095   1.723   6.021   4.430
 4907SOL    HW215096   1.787   5.923   4.316
 4908SOL     OW15097   3.081   6.328   4.391
 4908SOL    HW115098   3.138   6.409   4.378
 4908SOL    HW215099   3.011   6.347   4.458
 4909SOL     OW15100   3.699   6.263   3.897
 4909SOL    HW115101   3.679   6.250   3.800
 4909SOL    HW215102   3.630   6.215   3.951
 4910SOL     OW15103   2.756   6.380   5.624
 4910SOL    HW115104   2.783   6.412   5.715
 4910SOL    HW215105   2.788   6.445   5.555
 4911SOL     OW15106   2.589   0.088   4.402
 4911SOL    HW115107   2.671   0.122   4.449
 4911SOL    HW215108   2.510   0.144   4.427
 4912SOL     OW15109   2.248   6.024   5.289
 4912SOL    HW115110   2.335   5.976   5.274
 4912SOL    HW215111   2.172   5.960   5.276
 4913SOL     OW15112   3.523   6.094   4.507
 4913SOL    HW115113   3.428   6.093   4.478
 4913SOL    HW215114   3.555   6.188   4.515
 4914SOL     OW15115   3.414   5.771   5.200
 4914SOL    HW115116   3.415   5.848   5.136
 4914SOL    HW215117   3.389   5.804   5.291
 4915SOL     OW15118   1.931   6.243   4.316
 4915SOL    HW115119   1.892   6.151   4.327
 4915SOL    HW215120   1.914   6.296   4.399
 4916SOL     OW15121   2.005   6.331   5.302
 4916SOL    HW115122   2.105   6.330   5.296
 4916SOL    HW215123   1.976   6.412   5.354
 4917SOL     OW15124   2.642   5.781   3.994
 4917SOL    HW115125   2.721   5.837   3.968
 4917SOL    HW215126   2.628   5.787   4.093
 4918SOL     OW15127   2.213   5.860   5.622
 4918SOL    HW115128   2.246   5.945   5.662
 4918SOL    HW215129   2.116   5.868   5.602
 4919SOL     OW15130   2.374   6.322   4.048
 4919SOL    HW115131   2.352   6.393   3.981
 4919SOL    HW215132   2.336   6.347   4.137
 4920SOL     OW15133   3.103   6.170   4.723
 4920SOL    HW115134   3.008   6.158   4.695
 4920SOL    HW215135   3.115   6.143   4.818
 4921SOL     OW15136   2.661   6.251   5.177
 4921SOL    HW115137   2.652   6.226   5.273
 4921SOL    HW215138   2.615   6.183   5.120
 4922SOL     OW15139   3.234   6.120   5.457
 4922SOL    HW115140   3.254   6.164   5.545
 4922SOL    HW215141   3.287   6.035   5.449
 4923SOL     OW15142   2.794   6.304   4.943
 4923SOL    HW115143   2.753   6.311   5.034
 4923SOL    HW215144   2.839   6.215   4.934
 4924SOL     OW15145   2.931   6.317   4.166
 4924SOL    HW115146   2.991   6.307   4.246
 4924SOL    HW215147   2.872   6.396   4.178
 4925SOL     OW15148   1.905   6.427   4.522
 4925SOL    HW115149   1.989   6.405   4.571
 4925SOL    HW215150   1.926   6.486   4.444
 4926SOL     OW15151   2.856   5.936   3.916
 4926SOL    HW115152   2.866   6.022   3.866
 4926SOL    HW215153   2.894   5.861   3.863
 4927SOL     OW15154   3.590   6.223   5.532
 4927SOL    HW115155   3.553   6.288   5.466
 4927SOL    HW215156   3.590   6.131   5.492
 4928SOL     OW15157   2.280   5.844   4.686
 4928SOL    HW115158   2.298   5.859   4.783
 4928SOL    HW215159   2.329   5.913   4.632
 4929SOL     OW15160   3.450   6.430   4.501
 4929SOL    HW115161   3.418   6.376   4.578
 4929SOL    HW215162   3.478   0.021   4.533
 4930SOL     OW15163   2.024   5.849   5.268
 4930SOL    HW115164   1.944   5.892   5.309
 4930SOL    HW215165   2.027   5.753   5.294
 4931SOL     OW15166   3.436   5.877   4.072
 4931SOL    HW115167   3.389   5.793   4.045
 4931SOL    HW215168   3.521   5.853   4.119
 4932SOL     OW15169   2.233   6.284   4.295
 4932SOL    HW115170   2.258   6.188   4.306
 4932SOL    HW215171   2.134   6.293   4.291
 4933SOL     OW15172   3.334   5.858   5.451
 4933SOL    HW115173   3.342   5.856   5.551
 4933SOL    HW215174   3.250   5.812   5.423
 4934SOL     OW15175   2.456   5.851   3.817
 4934SOL    HW115176   2.524   5.816   3.881
 4934SOL    HW215177   2.407   5.775   3.775
 4935SOL     OW15178   2.596   5.928   5.505
 4935SOL    HW115179   2.678   5.872   5.501
 4935SOL    HW215180   2.535   5.893   5.577
 4936SOL     OW15181   3.133   6.232   5.227
 4936SOL    HW115182   3.172   6.192   5.310
 4936SOL    HW215183   3.177   6.320   5.210
 4937SOL     OW15184   2.825   6.175   4.648
 4937SOL    HW115185   2.802   6.163   4.552
 4937SOL    HW215186   2.742   6.177   4.703
 4938SOL     OW15187   2.268   5.673   4.129
 4938SOL    HW115188   2.228   5.666   4.220
 4938SOL    HW215189   2.310   5.763   4.117
 4939SOL     OW15190   2.131   5.691   3.894
 4939SOL    HW115191   2.128   5.785   3.860
 4939SOL    HW215192   2.180   5.689   3.981
 4940SOL     OW15193   2.780   6.090   4.136
 4940SOL    HW115194   2.819   6.024   4.072
 4940SOL    HW215195   2.843   6.168   4.146
 4941SOL     OW15196   2.895   6.370   5.285
 4941SOL    HW115197   2.814   6.327   5.244
 4941SOL    HW215198   2.976   6.317   5.262
 4942SOL     OW15199   2.351   0.235   4.436
 4942SOL    HW115200   2.261   0.266   4.467
 4942SOL    HW215201   2.340   0.181   4.352
 4943SOL     OW15202   2.939   6.160   3.765
 4943SOL    HW115203   2.913   6.250   3.731
 4943SOL    HW215204   3.004   6.171   3.841
 4944SOL     OW15205   1.952   6.193   5.076
 4944SOL    HW115206   2.044   6.184   5.039
 4944SOL    HW215207   1.953   6.248   5.159
 4945SOL     OW15208   2.311   5.915   4.959
 4945SOL    HW115209   2.347   5.822   4.973
 4945SOL    HW215210   2.212   5.915   4.975
 4946SOL     OW15211   2.726   6.180   4.397
 4946SOL    HW115212   2.641   6.231   4.395
 4946SOL    HW215213   2.739   6.133   4.309
 4947SOL     OW15214   2.865   5.543   4.440
 4947SOL    HW115215   2.815   5.458   4.423
 4947SOL    HW215216   2.872   5.558   4.538
 4948SOL     OW15217   3.340   6.304   4.716
 4948SOL    HW115218   3.257   6.248   4.711
 4948SOL    HW215219   3.405   6.261   4.779
 4949SOL     OW15220   3.695   6.412   4.137
 4949SOL    HW115221   3.760   6.364   4.195
 4949SOL    HW215222   3.706   6.383   4.042
 4950SOL     OW15223   3.317   6.259   3.842
 4950SOL    HW115224   3.232   6.235   3.888
 4950SOL    HW215225   3.395   6.225   3.895
 4951SOL     OW15226   2.350   5.925   4.070
 4951SOL    HW115227   2.398   5.911   3.984
 4951SOL    HW215228   2.284   5.999   4.060
 4952SOL     OW15229   2.816   5.950   5.221
 4952SOL    HW115230   2.779   5.863   5.255
 4952SOL    HW215231   2.867   5.995   5.294
 4953SOL     OW15232   2.529   0.136   4.004
 4953SOL    HW115233   2.503   0.103   4.095
 4953SOL    HW215234   2.608   0.084   3.971
 4954SOL     OW15235   2.262   6.449   4.988
 4954SOL    HW115236   2.338   6.454   5.053
 4954SOL    HW215237   2.227   6.355   4.985
 4955SOL     OW15238   3.128   6.097   4.990
 4955SOL    HW115239   3.136   6.151   5.074
 4955SOL    HW215240   3.034   6.064   4.981
 4956SOL     OW15241   2.391   6.080   4.585
 4956SOL    HW115242   2.378   6.070   4.486
 4956SOL    HW215243   2.469   6.140   4.602
 4957SOL     OW15244   3.469   6.311   4.250
 4957SOL    HW115245   3.457   6.347   4.342
 4957SOL    HW215246   3.550   6.352   4.208
 4958SOL     OW15247   2.275   6.311   5.303
 4958SOL    HW115248   2.349   6.353   5.251
 4958SOL    HW215249   2.282   6.211   5.297
 4959SOL     OW15250   3.481   6.406   5.359
 4959SOL    HW115251   3.389   6.379   5.331
 4959SOL    HW215252   3.513   6.480   5.300
 4960SOL     OW15253   2.822   5.784   5.492
 4960SOL    HW115254   2.895   5.853   5.492
 4960SOL    HW215255   2.863   5.692   5.491
 4961SOL     OW15256   2.362   5.651   5.523
 4961SOL    HW115257   2.327   5.610   5.439
 4961SOL    HW215258   2.305   5.729   5.548
 4962SOL     OW15259   2.399   6.453   4.748
 4962SOL    HW115260   2.437   0.043   4.726
 4962SOL    HW215261   2.349   6.458   4.834
 4963SOL     OW15262   3.174   0.015   4.659
 4963SOL    HW115263   3.190   0.045   4.566
 4963SOL    HW215264   3.235   6.439   4.681
 4964SOL     OW15265   3.096   6.196   3.986
 4964SOL    HW115266   3.147   6.135   4.047
 4964SOL    HW215267   3.033   6.252   4.041
 4965SOL     OW15268   2.047   5.824   4.998
 4965SOL    HW115269   2.044   5.840   5.096
 4965SOL    HW215270   2.066   5.727   4.981
 4966SOL     OW15271   2.580   6.245   4.781
 4966SOL    HW115272   2.652   6.287   4.835
 4966SOL    HW215273   2.512   6.315   4.756
 4967SOL     OW15274   3.599   0.104   5.524
 4967SOL    HW115275   3.560   0.023   5.479
 4967SOL    HW215276   3.535   0.137   5.594
 4968SOL     OW15277   2.143   5.667   4.373
 4968SOL    HW115278   2.107   5.760   4.385
 4968SOL    HW215279   2.159   5.627   4.463
 4969SOL     OW15280   3.491   6.147   4.029
 4969SOL    HW115281   3.475   6.050   4.046
 4969SOL    HW215282   3.469   6.199   4.112
 4970SOL     OW15283   2.922   6.424   4.599
 4970SOL    HW115284   3.010   6.440   4.643
 4970SOL    HW215285   2.887   6.334   4.626
 4971SOL     OW15286   3.397   5.867   3.769
 4971SOL    HW115287   3.371   5.771   3.784
 4971SOL    HW215288   3.432   5.906   3.853
 4972SOL     OW15289   2.167   6.397   4.603
 4972SOL    HW115290   2.253   6.434   4.638
 4972SOL    HW215291   2.155   6.303   4.635
 4973SOL     OW15292   2.159   6.144   4.705
 4973SOL    HW115293   2.095   6.067   4.707
 4973SOL    HW215294   2.244   6.117   4.659
 4974SOL     OW15295   2.982   6.010   5.439
 4974SOL    HW115296   2.926   6.049   5.513
 4974SOL    HW215297   3.072   6.053   5.440
 4975SOL     OW15298   3.102   5.775   5.323
 4975SOL    HW115299   3.052   5.860   5.338
 4975SOL    HW215300   3.128   5.768   5.227
 4976SOL     OW15301   1.829   6.162   4.831
 4976SOL    HW115302   1.879   6.091   4.783
 4976SOL    HW215303   1.878   6.186   4.915
 4977SOL     OW15304   2.065   6.124   5.477
 4977SOL    HW115305   2.145   6.091   5.426
 4977SOL    HW215306   2.018   6.194   5.423
 4978SOL     OW15307   2.609   6.215   3.961
 4978SOL    HW115308   2.656   6.162   4.031
 4978SOL    HW215309   2.520   6.244   3.997
 4979SOL     OW15310   3.511   6.193   4.898
 4979SOL    HW115311   3.475   6.117   4.952
 4979SOL    HW215312   3.605   6.173   4.871
 4980SOL     OW15313   2.527   6.081   5.004
 4980SOL    HW115314   2.456   6.011   4.988
 4980SOL    HW215315   2.544   6.130   4.919
 4981SOL     OW15316   2.185   6.130   4.015
 4981SOL    HW115317   2.261   6.195   4.024
 4981SOL    HW215318   2.101   6.179   3.993
 4982SOL     OW15319   3.673   5.801   4.182
 4982SOL    HW115320   3.719   5.793   4.093
 4982SOL    HW215321   3.698   5.724   4.240
 4983SOL     OW15322   3.235   0.050   4.383
 4983SOL    HW115323   3.321   0.008   4.413
 4983SOL    HW215324   3.250   0.095   4.295
 4984SOL     OW15325   3.739   5.650   4.733
 4984SOL    HW115326   3.760   5.583   4.661
 4984SOL    HW215327   3.686   5.725   4.694
 4985SOL     OW15328   2.061   5.918   4.450
 4985SOL    HW115329   1.971   5.951   4.423
 4985SOL    HW215330   2.067   5.914   4.550
 4986SOL     OW15331   2.732   6.457   3.938
 4986SOL    HW115332   2.761   6.479   4.031
 4986SOL    HW215333   2.688   6.367   3.937
 4987SOL     OW15334   2.867   6.033   4.965
 4987SOL    HW115335   2.832   5.966   4.899
 4987SOL    HW215336   2.841   6.005   5.057
 4988SOL     OW15337   3.705   5.984   5.185
 4988SOL    HW115338   3.744   6.070   5.153
 4988SOL    HW215339   3.679   5.928   5.106
 4989SOL     OW15340   1.968   0.050   5.456
 4989SOL    HW115341   1.870   0.054   5.474
 4989SOL    HW215342   2.017   0.044   5.543
 4990SOL     OW15343   2.499   5.905   5.249
 4990SOL    HW115344   2.548   5.962   5.183
 4990SOL    HW215345   2.535   5.922   5.341
 4991SOL     OW15346   1.794   5.910   3.861
 4991SOL    HW115347   1.795   5.896   3.762
 4991SOL    HW215348   1.786   6.007   3.881
 4992SOL     OW15349   3.251   6.469   5.188
 4992SOL    HW115350   3.183   0.042   5.180
 4992SOL    HW215351   3.323   6.483   5.120
 4993SOL     OW15352   1.877   5.702   4.005
 4993SOL    HW115353   1.833   5.775   3.952
 4993SOL    HW215354   1.971   5.689   3.973
 4994SOL     OW15355   2.468   6.445   5.163
 4994SOL    HW115356   2.497   0.040   5.176
 4994SOL    HW215357   2.547   6.385   5.167
 4995SOL     OW15358   2.642   6.193   5.436
 4995SOL    HW115359   2.678   6.252   5.508
 4995SOL    HW215360   2.625   6.102   5.474
 4996SOL     OW15361   3.433   6.457   4.968
 4996SOL    HW115362   3.475   6.367   4.967
 4996SOL    HW215363   3.381   6.471   4.884
 4997SOL     OW15364   3.234   6.051   4.167
 4997SOL    HW115365   3.303   5.983   4.140
 4997SOL    HW215366   3.244   6.071   4.265
 4998SOL     OW15367   2.495   6.326   4.396
 4998SOL    HW115368   2.524   6.421   4.402
 4998SOL    HW215369   2.400   6.322   4.365
 4999SOL     OW15370   3.588   5.968   5.430
 4999SOL    HW115371   3.624   5.969   5.336
 4999SOL    HW215372   3.502   5.918   5.432
 5000SOL     OW15373   3.666   5.822   4.973
 5000SOL    HW115374   3.701   5.729   4.984
 5000SOL    HW215375   3.660   5.843   4.875
 5001SOL     OW15376   2.296   6.020   4.333
 5001SOL    HW115377   2.327   5.976   4.249
 5001SOL    HW215378   2.212   5.976   4.365
 5002SOL     OW15379   2.201   6.183   4.969
 5002SOL    HW115380   2.270   6.117   4.997
 5002SOL    HW215381   2.188   6.177   4.870
 5003SOL     OW15382   3.374   5.973   5.009
 5003SOL    HW115383   3.386   5.905   4.936
 5003SOL    HW215384   3.283   6.014   5.001
 5004SOL     OW15385   2.907   5.550   4.711
 5004SOL    HW115386   2.870   5.473   4.762
 5004SOL    HW215387   3.007   5.550   4.719
 5005SOL     OW15388   3.335   5.605   3.804
 5005SOL    HW115389   3.391   5.522   3.795
 5005SOL    HW215390   3.244   5.588   3.766
 5006SOL     OW15391   3.249   6.119   4.449
 5006SOL    HW115392   3.194   6.197   4.417
 5006SOL    HW215393   3.207   6.080   4.531
 5007SOL     OW15394   3.651   5.921   4.704
 5007SOL    HW115395   3.704   5.992   4.750
 5007SOL    HW215396   3.595   5.962   4.632
 5008SOL     OW15397   2.064   6.244   5.723
 5008SOL    HW115398   1.973   6.230   5.764
 5008SOL    HW215399   2.064   6.208   5.630
 5009SOL     OW15400   2.065   5.938   0.075
 5009SOL    HW115401   2.117   5.873   0.131
 5009SOL    HW215402   1.977   5.897   0.051
 5010SOL     OW15403   1.794   5.960   6.247
 5010SOL    HW115404   1.709   6.009   6.266
 5010SOL    HW215405   1.783   5.905   6.164
 5011SOL     OW15406   2.991   6.238   6.272
 5011SOL    HW115407   2.982   6.326   6.318
 5011SOL    HW215408   2.906   6.186   6.283
 5012SOL     OW15409   3.664   6.219   5.789
 5012SOL    HW115410   3.638   6.228   5.693
 5012SOL    HW215411   3.607   6.150   5.833
 5013SOL     OW15412   2.529   0.022   6.354
 5013SOL    HW115413   2.588   0.096   6.385
 5013SOL    HW215414   2.437   0.058   6.334
 5014SOL     OW15415   3.452   6.059   6.330
 5014SOL    HW115416   3.362   6.031   6.295
 5014SOL    HW215417   3.450   6.157   6.349
 5015SOL     OW15418   1.865   6.241   6.201
 5015SOL    HW115419   1.851   6.144   6.217
 5015SOL    HW215420   1.895   6.285   6.286
 5016SOL     OW15421   2.690   5.650   6.116
 5016SOL    HW115422   2.737   5.738   6.109
 5016SOL    HW215423   2.591   5.666   6.121
 5017SOL     OW15424   2.443   6.284   5.877
 5017SOL    HW115425   2.450   6.359   5.811
 5017SOL    HW215426   2.382   6.310   5.952
 5018SOL     OW15427   3.092   5.910   6.475
 5018SOL    HW115428   3.002   5.916   0.018
 5018SOL    HW215429   3.163   5.913   0.045
 5019SOL     OW15430   2.920   6.264   6.007
 5019SOL    HW115431   2.950   6.264   6.103
 5019SOL    HW215432   2.827   6.228   6.002
 5020SOL     OW15433   1.958   6.361   6.434
 5020SOL    HW115434   2.002   6.298   6.498
 5020SOL    HW215435   1.902   6.426   6.484
 5021SOL     OW15436   2.713   5.934   5.819
 5021SOL    HW115437   2.762   5.984   5.748
 5021SOL    HW215438   2.657   5.862   5.777
 5022SOL     OW15439   2.374   5.783   0.028
 5022SOL    HW115440   2.387   5.802   0.125
 5022SOL    HW215441   2.382   5.868   6.476
 5023SOL     OW15442   3.382   6.327   6.357
 5023SOL    HW115443   3.332   6.286   6.433
 5023SOL    HW215444   3.403   6.422   6.377
 5024SOL     OW15445   3.229   5.663   6.053
 5024SOL    HW115446   3.229   5.641   5.955
 5024SOL    HW215447   3.320   5.645   6.091
 5025SOL     OW15448   2.281   6.322   6.101
 5025SOL    HW115449   2.261   6.224   6.098
 5025SOL    HW215450   2.209   6.370   6.150
 5026SOL     OW15451   2.535   5.731   5.724
 5026SOL    HW115452   2.589   5.655   5.760
 5026SOL    HW215453   2.475   5.697   5.651
 5027SOL     OW15454   2.419   5.697   6.102
 5027SOL    HW115455   2.337   5.691   6.158
 5027SOL    HW215456   2.411   5.774   6.038
 5028SOL     OW15457   2.149   5.626   5.756
 5028SOL    HW115458   2.187   5.711   5.719
 5028SOL    HW215459   2.215   5.583   5.816
 5029SOL     OW15460   2.815   5.895   6.075
 5029SOL    HW115461   2.776   5.911   5.985
 5029SOL    HW215462   2.915   5.895   6.069
 5030SOL     OW15463   2.294   0.155   6.339
 5030SOL    HW115464   2.223   0.091   6.310
 5030SOL    HW215465   2.299   0.231   6.274
 5031SOL     OW15466   2.860   6.113   5.660
 5031SOL    HW115467   2.826   6.207   5.655
 5031SOL    HW215468   2.935   6.109   5.726
 5032SOL     OW15469   2.759   6.097   6.287
 5032SOL    HW115470   2.671   6.143   6.279
 5032SOL    HW215471   2.765   6.025   6.218
 5033SOL     OW15472   2.820   5.491   6.297
 5033SOL    HW115473   2.774   5.551   6.231
 5033SOL    HW215474   2.765   5.408   6.310
 5034SOL     OW15475   3.356   0.106   6.407
 5034SOL    HW115476   3.288   0.082   6.337
 5034SOL    HW215477   3.394   0.196   6.386
 5035SOL     OW15478   3.655   6.411   5.988
 5035SOL    HW115479   3.716   6.376   6.059
 5035SOL    HW215480   3.663   6.354   5.906
 5036SOL     OW15481   3.280   6.203   5.721
 5036SOL    HW115482   3.199   6.164   5.765
 5036SOL    HW215483   3.363   6.162   5.760
 5037SOL     OW15484   2.381   5.881   5.907
 5037SOL    HW115485   2.437   5.827   5.844
 5037SOL    HW215486   2.341   5.958   5.858
 5038SOL     OW15487   2.593   0.133   5.909
 5038SOL    HW115488   2.513   0.117   5.967
 5038SOL    HW215489   2.642   0.048   5.895
 5039SOL     OW15490   2.400   6.043   6.448
 5039SOL    HW115491   2.440   6.113   6.389
 5039SOL    HW215492   2.378   6.083   0.037
 5040SOL     OW15493   3.434   6.265   6.082
 5040SOL    HW115494   3.415   6.280   6.179
 5040SOL    HW215495   3.505   6.329   6.052
 5041SOL     OW15496   3.060   6.099   5.847
 5041SOL    HW115497   3.079   6.017   5.900
 5041SOL    HW215498   3.016   6.167   5.906
 5042SOL     OW15499   2.173   5.685   6.224
 5042SOL    HW115500   2.134   5.775   6.242
 5042SOL    HW215501   2.190   5.637   6.310
 5043SOL     OW15502   3.465   6.050   5.910
 5043SOL    HW115503   3.515   5.976   5.955
 5043SOL    HW215504   3.441   6.120   5.977
 5044SOL     OW15505   3.340   5.865   5.719
 5044SOL    HW115506   3.294   5.785   5.757
 5044SOL    HW215507   3.374   5.922   5.793
 5045SOL     OW15508   2.674   6.168   5.960
 5045SOL    HW115509   2.677   6.078   5.916
 5045SOL    HW215510   2.588   6.213   5.936
 5046SOL     OW15511   2.289   6.090   5.759
 5046SOL    HW115512   2.360   6.151   5.793
 5046SOL    HW215513   2.202   6.140   5.754
 5047SOL     OW15514   3.621   5.834   6.010
 5047SOL    HW115515   3.668   5.813   5.924
 5047SOL    HW215516   3.578   5.751   6.046
 5048SOL     OW15517   3.197   0.005   6.207
 5048SOL    HW115518   3.220   6.408   6.216
 5048SOL    HW215519   3.244   0.043   6.127
 5049SOL     OW15520   3.568   5.856   0.084
 5049SOL    HW115521   3.572   5.793   0.006
 5049SOL    HW215522   3.474   5.888   0.096
 5050SOL     OW15523   2.073   5.931   6.289
 5050SOL    HW115524   1.976   5.946   6.272
 5050SOL    HW215525   2.094   5.950   6.385
 5051SOL     OW15526   2.837   6.478   5.863
 5051SOL    HW115527   2.856   0.064   5.911
 5051SOL    HW215528   2.869   6.401   5.919
 5052SOL     OW15529   1.939   5.904   5.581
 5052SOL    HW115530   1.860   5.885   5.522
 5052SOL    HW215531   1.976   5.995   5.560
 5053SOL     OW15532   1.901   5.732   5.804
 5053SOL    HW115533   1.894   5.800   5.732
 5053SOL    HW215534   1.991   5.689   5.800
 5054SOL     OW15535   3.093   5.901   6.039
 5054SOL    HW115536   3.135   5.811   6.040
 5054SOL    HW215537   3.129   5.956   6.115
 5055SOL     OW15538   2.509   6.247   6.286
 5055SOL    HW115539   2.530   6.339   6.317
 5055SOL    HW215540   2.442   6.250   6.212
 5056SOL     OW15541   2.246   6.054   6.104
 5056SOL    HW115542   2.292   5.983   6.050
 5056SOL    HW215543   2.186   6.010   6.171
 5057SOL     OW15544   3.222   5.616   5.782
 5057SOL    HW115545   3.275   5.557   5.723
 5057SOL    HW215546   3.131   5.576   5.797
 5058SOL     OW15547   3.180   6.039   6.257
 5058SOL    HW115548   3.125   6.122   6.256
 5058SOL    HW215549   3.152   5.981   6.333
 5059SOL     OW15550   3.913   0.639   0.124
 5059SOL    HW115551   3.825   0.646   0.171
 5059SOL    HW215552   3.923   0.547   0.086
 5060SOL     OW15553   3.912   0.266   1.034
 5060SOL    HW115554   3.965   0.225   1.109
 5060SOL    HW215555   3.827   0.216   1.022
 5061SOL     OW15556   3.717   0.383   0.652
 5061SOL    HW115557   3.630   0.409   0.694
 5061SOL    HW215558   3.703   0.303   0.594
 5062SOL     OW15559   4.314   1.319   1.242
 5062SOL    HW115560   4.228   1.314   1.192
 5062SOL    HW215561   4.336   1.415   1.260
 5063SOL     OW15562   5.328   1.489   0.703
 5063SOL    HW115563   5.281   1.449   0.782
 5063SOL    HW215564   5.261   1.519   0.636
 5064SOL     OW15565   4.882   0.700   0.631
 5064SOL    HW115566   4.916   0.792   0.645
 5064SOL    HW215567   4.799   0.686   0.685
 5065SOL     OW15568   5.581   0.534   0.198
 5065SOL    HW115569   5.535   0.507   0.114
 5065SOL    HW215570   5.554   0.472   0.272
 5066SOL     OW15571   4.468   1.144   1.088
 5066SOL    HW115572   4.409   1.186   1.156
 5066SOL    HW215573   4.504   1.214   1.027
 5067SOL     OW15574   4.636   0.714   1.800
 5067SOL    HW115575   4.660   0.779   1.872
 5067SOL    HW215576   4.640   0.761   1.711
 5068SOL     OW15577   4.435   0.948   0.698
 5068SOL    HW115578   4.509   0.959   0.765
 5068SOL    HW215579   4.368   1.021   0.709
 5069SOL     OW15580   4.451   1.175   1.852
 5069SOL    HW115581   4.512   1.242   1.894
 5069SOL    HW215582   4.371   1.222   1.814
 5070SOL     OW15583   4.082   1.379   1.099
 5070SOL    HW115584   4.007   1.323   1.065
 5070SOL    HW215585   4.118   1.435   1.023
 5071SOL     OW15586   5.173   1.510   1.381
 5071SOL    HW115587   5.229   1.593   1.391
 5071SOL    HW215588   5.092   1.518   1.440
 5072SOL     OW15589   4.193   0.372   1.461
 5072SOL    HW115590   4.277   0.322   1.484
 5072SOL    HW215591   4.114   0.318   1.489
 5073SOL     OW15592   5.338   0.461   0.773
 5073SOL    HW115593   5.265   0.470   0.705
 5073SOL    HW215594   5.329   0.534   0.841
 5074SOL     OW15595   3.984   1.694   0.472
 5074SOL    HW115596   3.992   1.771   0.536
 5074SOL    HW215597   4.069   1.685   0.420
 5075SOL     OW15598   4.867   1.339   1.701
 5075SOL    HW115599   4.953   1.310   1.741
 5075SOL    HW215600   4.801   1.263   1.703
 5076SOL     OW15601   3.991   1.417   0.490
 5076SOL    HW115602   3.979   1.515   0.505
 5076SOL    HW215603   3.954   1.367   0.568
 5077SOL     OW15604   4.038   1.073   0.884
 5077SOL    HW115605   4.047   0.975   0.905
 5077SOL    HW215606   3.987   1.118   0.957
 5078SOL     OW15607   4.295   1.820   1.426
 5078SOL    HW115608   4.222   1.794   1.489
 5078SOL    HW215609   4.343   1.900   1.462
 5079SOL     OW15610   4.274   1.026   0.261
 5079SOL    HW115611   4.299   1.085   0.184
 5079SOL    HW215612   4.345   1.030   0.331
 5080SOL     OW15613   5.444   0.083   1.514
 5080SOL    HW115614   5.450   0.112   1.419
 5080SOL    HW215615   5.518   0.126   1.566
 5081SOL     OW15616   3.839   0.647   0.603
 5081SOL    HW115617   3.804   0.554   0.619
 5081SOL    HW215618   3.825   0.702   0.684
 5082SOL     OW15619   5.596   1.717   0.311
 5082SOL    HW115620   5.666   1.693   0.379
 5082SOL    HW215621   5.601   1.814   0.290
 5083SOL     OW15622   3.842   1.608   0.054
 5083SOL    HW115623   3.915   1.541   0.069
 5083SOL    HW215624   3.810   1.642   0.142
 5084SOL     OW15625   5.440   0.934   0.670
 5084SOL    HW115626   5.531   0.892   0.673
 5084SOL    HW215627   5.430   0.983   0.583
 5085SOL     OW15628   5.419   1.087   0.437
 5085SOL    HW115629   5.497   1.058   0.381
 5085SOL    HW215630   5.445   1.167   0.491
 5086SOL     OW15631   3.830   0.774   1.525
 5086SOL    HW115632   3.886   0.822   1.457
 5086SOL    HW215633   3.748   0.828   1.545
 5087SOL     OW15634   4.350   1.389   0.734
 5087SOL    HW115635   4.319   1.294   0.740
 5087SOL    HW215636   4.329   1.425   0.644
 5088SOL     OW15637   4.974   1.223   1.419
 5088SOL    HW115638   4.993   1.152   1.350
 5088SOL    HW215639   5.045   1.220   1.489
 5089SOL     OW15640   4.560   0.110   0.424
 5089SOL    HW115641   4.627   0.181   0.444
 5089SOL    HW215642   4.518   0.077   0.508
 5090SOL     OW15643   3.942   0.925   1.319
 5090SOL    HW115644   4.035   0.895   1.300
 5090SOL    HW215645   3.886   0.914   1.237
 5091SOL     OW15646   5.262   1.021   0.215
 5091SOL    HW115647   5.181   0.967   0.236
 5091SOL    HW215648   5.313   1.040   0.299
 5092SOL     OW15649   4.920   1.809   1.633
 5092SOL    HW115650   4.918   1.879   1.562
 5092SOL    HW215651   4.927   1.719   1.590
 5093SOL     OW15652   4.037   0.239   1.848
 5093SOL    HW115653   4.081   0.260   1.935
 5093SOL    HW215654   3.971   0.311   1.826
 5094SOL     OW15655   5.207   1.383   0.924
 5094SOL    HW115656   5.144   1.421   0.992
 5094SOL    HW215657   5.181   1.289   0.904
 5095SOL     OW15658   5.359   1.852   0.545
 5095SOL    HW115659   5.353   1.783   0.473
 5095SOL    HW215660   5.369   1.807   0.633
 5096SOL     OW15661   4.308   0.746   0.324
 5096SOL    HW115662   4.314   0.843   0.300
 5096SOL    HW215663   4.238   0.734   0.395
 5097SOL     OW15664   5.004   0.468   0.943
 5097SOL    HW115665   4.905   0.483   0.951
 5097SOL    HW215666   5.027   0.378   0.981
 5098SOL     OW15667   5.328   1.669   0.339
 5098SOL    HW115668   5.427   1.674   0.327
 5098SOL    HW215669   5.283   1.672   0.249
 5099SOL     OW15670   4.524   0.595   1.470
 5099SOL    HW115671   4.488   0.557   1.555
 5099SOL    HW215672   4.492   0.540   1.393
 5100SOL     OW15673   5.088   0.466   1.657
 5100SOL    HW115674   5.095   0.517   1.743
 5100SOL    HW215675   5.145   0.384   1.663
 5101SOL     OW15676   4.675   0.892   1.579
 5101SOL    HW115677   4.730   0.826   1.526
 5101SOL    HW215678   4.619   0.946   1.517
 5102SOL     OW15679   4.728   0.416   1.199
 5102SOL    HW115680   4.636   0.442   1.231
 5102SOL    HW215681   4.720   0.355   1.120
 5103SOL     OW15682   4.814   0.710   0.369
 5103SOL    HW115683   4.843   0.704   0.464
 5103SOL    HW215684   4.722   0.672   0.359
 5104SOL     OW15685   3.808   0.834   0.813
 5104SOL    HW115686   3.899   0.817   0.851
 5104SOL    HW215687   3.767   0.913   0.858
 5105SOL     OW15688   3.859   1.884   1.561
 5105SOL    HW115689   3.828   1.864   1.654
 5105SOL    HW215690   3.791   1.850   1.496
 5106SOL     OW15691   4.645   0.386   0.201
 5106SOL    HW115692   4.663   0.438   0.117
 5106SOL    HW215693   4.639   0.289   0.180
 5107SOL     OW15694   5.386   0.580   1.833
 5107SOL    HW115695   5.367   0.667   1.788
 5107SOL    HW215696   5.410   0.511   1.764
 5108SOL     OW15697   5.150   1.160   0.586
 5108SOL    HW115698   5.232   1.150   0.530
 5108SOL    HW215699   5.090   1.230   0.546
 5109SOL     OW15700   4.354   0.196   0.946
 5109SOL    HW115701   4.342   0.227   1.041
 5109SOL    HW215702   4.314   0.264   0.884
 5110SOL     OW15703   4.721   1.454   0.478
 5110SOL    HW115704   4.708   1.528   0.414
 5110SOL    HW215705   4.682   1.478   0.567
 5111SOL     OW15706   4.108   1.798   0.875
 5111SOL    HW115707   4.148   1.708   0.891
 5111SOL    HW215708   4.173   1.869   0.901
 5112SOL     OW15709   5.527   1.050   0.909
 5112SOL    HW115710   5.480   1.033   0.823
 5112SOL    HW215711   5.460   1.063   0.982
 5113SOL     OW15712   4.925   1.540   1.513
 5113SOL    HW115713   4.915   1.470   1.583
 5113SOL    HW215714   4.862   1.521   1.438
 5114SOL     OW15715   4.023   0.913   0.166
 5114SOL    HW115716   4.117   0.928   0.198
 5114SOL    HW215717   4.005   0.814   0.160
 5115SOL     OW15718   5.221   0.779   0.713
 5115SOL    HW115719   5.221   0.735   0.803
 5115SOL    HW215720   5.302   0.838   0.705
 5116SOL     OW15721   4.211   1.305   1.769
 5116SOL    HW115722   4.185   1.313   1.672
 5116SOL    HW215723   4.131   1.274   1.822
 5117SOL     OW15724   4.855   1.755   0.177
 5117SOL    HW115725   4.786   1.722   0.241
 5117SOL    HW215726   4.894   1.678   0.127
 5118SOL     OW15727   3.945   0.245   1.487
 5118SOL    HW115728   3.893   0.330   1.489
 5118SOL    HW215729   3.910   0.183   1.557
 5119SOL     OW15730   5.431   1.384   0.122
 5119SOL    HW115731   5.393   1.429   0.202
 5119SOL    HW215732   5.360   1.331   0.076
 5120SOL     OW15733   4.231   1.715   0.350
 5120SOL    HW115734   4.264   1.793   0.404
 5120SOL    HW215735   4.297   1.694   0.279
 5121SOL     OW15736   5.195   0.127   0.443
 5121SOL    HW115737   5.165   0.117   0.348
 5121SOL    HW215738   5.294   0.117   0.448
 5122SOL     OW15739   3.988   1.778   1.210
 5122SOL    HW115740   4.031   1.696   1.249
 5122SOL    HW215741   3.938   1.753   1.127
 5123SOL     OW15742   4.671   1.693   0.885
 5123SOL    HW115743   4.764   1.656   0.887
 5123SOL    HW215744   4.619   1.649   0.811
 5124SOL     OW15745   4.101   0.689   0.501
 5124SOL    HW115746   4.133   0.595   0.494
 5124SOL    HW215747   4.004   0.689   0.527
 5125SOL     OW15748   5.229   0.236   1.696
 5125SOL    HW115749   5.229   0.216   1.794
 5125SOL    HW215750   5.241   0.151   1.645
 5126SOL     OW15751   4.238   0.103   0.009
 5126SOL    HW115752   4.296   0.103   0.090
 5126SOL    HW215753   4.270   0.172   6.445
 5127SOL     OW15754   4.495   0.253   1.752
 5127SOL    HW115755   4.574   0.195   1.733
 5127SOL    HW215756   4.450   0.221   1.835
 5128SOL     OW15757   4.587   1.522   1.174
 5128SOL    HW115758   4.570   1.471   1.089
 5128SOL    HW215759   4.652   1.471   1.231
 5129SOL     OW15760   5.025   0.591   1.421
 5129SOL    HW115761   5.055   0.555   1.510
 5129SOL    HW215762   5.059   0.684   1.409
 5130SOL     OW15763   4.545   1.365   0.942
 5130SOL    HW115764   4.638   1.371   0.906
 5130SOL    HW215765   4.479   1.377   0.868
 5131SOL     OW15766   4.707   0.514   0.886
 5131SOL    HW115767   4.680   0.512   0.790
 5131SOL    HW215768   4.696   0.423   0.926
 5132SOL     OW15769   4.129   0.107   0.448
 5132SOL    HW115770   4.100   0.016   0.478
 5132SOL    HW215771   4.065   0.142   0.380
 5133SOL     OW15772   5.219   1.232   0.046
 5133SOL    HW115773   5.238   1.147   0.094
 5133SOL    HW215774   5.132   1.269   0.078
 5134SOL     OW15775   4.032   0.017   0.182
 5134SOL    HW115776   4.100   0.042   0.113
 5134SOL    HW215777   3.985   6.434   0.154
 5135SOL     OW15778   4.746   0.314   0.451
 5135SOL    HW115779   4.714   0.347   0.362
 5135SOL    HW215780   4.846   0.318   0.454
 5136SOL     OW15781   4.769   0.701   1.410
 5136SOL    HW115782   4.693   0.642   1.434
 5136SOL    HW215783   4.854   0.647   1.409
 5137SOL     OW15784   4.932   1.620   0.829
 5137SOL    HW115785   4.960   1.673   0.749
 5137SOL    HW215786   4.972   1.661   0.911
 5138SOL     OW15787   4.242   1.139   0.714
 5138SOL    HW115788   4.172   1.116   0.781
 5138SOL    HW215789   4.202   1.141   0.623
 5139SOL     OW15790   4.979   1.802   0.622
 5139SOL    HW115791   5.029   1.868   0.565
 5139SOL    HW215792   4.896   1.844   0.657
 5140SOL     OW15793   4.712   0.511   6.463
 5140SOL    HW115794   4.684   0.472   6.375
 5140SOL    HW215795   4.693   0.610   6.462
 5141SOL     OW15796   3.855   0.522   1.413
 5141SOL    HW115797   3.949   0.527   1.380
 5141SOL    HW215798   3.835   0.603   1.469
 5142SOL     OW15799   4.310   0.242   1.216
 5142SOL    HW115800   4.352   0.223   1.305
 5142SOL    HW215801   4.212   0.220   1.220
 5143SOL     OW15802   4.641   0.507   0.622
 5143SOL    HW115803   4.588   0.560   0.555
 5143SOL    HW215804   4.682   0.428   0.577
 5144SOL     OW15805   4.697   0.089   0.763
 5144SOL    HW115806   4.750   0.103   0.679
 5144SOL    HW215807   4.731   0.008   0.811
 5145SOL     OW15808   5.155   1.119   0.872
 5145SOL    HW115809   5.101   1.039   0.898
 5145SOL    HW215810   5.153   1.129   0.772
 5146SOL     OW15811   5.209   0.653   0.960
 5146SOL    HW115812   5.134   0.586   0.963
 5146SOL    HW215813   5.270   0.638   1.037
 5147SOL     OW15814   5.559   0.740   0.382
 5147SOL    HW115815   5.624   0.715   0.454
 5147SOL    HW215816   5.563   0.673   0.308
 5148SOL     OW15817   4.223   1.522   0.042
 5148SOL    HW115818   4.167   1.474   0.110
 5148SOL    HW215819   4.231   1.466   6.460
 5149SOL     OW15820   5.495   1.286   0.596
 5149SOL    HW115821   5.588   1.280   0.632
 5149SOL    HW215822   5.448   1.363   0.639
 5150SOL     OW15823   5.115   0.606   0.022
 5150SOL    HW115824   5.106   0.601   0.121
 5150SOL    HW215825   5.070   0.527   6.480
 5151SOL     OW15826   4.148   0.330   0.227
 5151SOL    HW115827   4.222   0.266   0.212
 5151SOL    HW215828   4.173   0.420   0.192
 5152SOL     OW15829   5.467   1.231   1.525
 5152SOL    HW115830   5.557   1.191   1.507
 5152SOL    HW215831   5.478   1.324   1.561
 5153SOL     OW15832   4.748   1.363   1.344
 5153SOL    HW115833   4.664   1.336   1.391
 5153SOL    HW215834   4.826   1.312   1.382
 5154SOL     OW15835   5.344   1.650   1.671
 5154SOL    HW115836   5.321   1.692   1.582
 5154SOL    HW215837   5.418   1.585   1.658
 5155SOL     OW15838   4.871   1.273   1.112
 5155SOL    HW115839   4.808   1.303   1.183
 5155SOL    HW215840   4.838   1.303   1.023
 5156SOL     OW15841   5.326   1.092   1.092
 5156SOL    HW115842   5.318   1.163   1.161
 5156SOL    HW215843   5.257   1.106   1.021
 5157SOL     OW15844   4.677   0.131   1.395
 5157SOL    HW115845   4.675   0.090   1.304
 5157SOL    HW215846   4.771   0.154   1.419
 5158SOL     OW15847   4.697   1.121   1.728
 5158SOL    HW115848   4.604   1.139   1.760
 5158SOL    HW215849   4.697   1.039   1.670
 5159SOL     OW15850   4.475   1.036   0.439
 5159SOL    HW115851   4.471   0.995   0.530
 5159SOL    HW215852   4.558   1.004   0.392
 5160SOL     OW15853   4.185   0.811   1.275
 5160SOL    HW115854   4.248   0.823   1.352
 5160SOL    HW215855   4.150   0.718   1.274
 5161SOL     OW15856   4.981   0.366   1.274
 5161SOL    HW115857   5.017   0.446   1.321
 5161SOL    HW215858   4.887   0.384   1.245
 5162SOL     OW15859   3.810   1.557   1.380
 5162SOL    HW115860   3.769   1.647   1.366
 5162SOL    HW215861   3.909   1.564   1.366
 5163SOL     OW15862   4.120   1.157   0.468
 5163SOL    HW115863   4.100   1.252   0.442
 5163SOL    HW215864   4.160   1.109   0.389
 5164SOL     OW15865   4.255   0.513   0.880
 5164SOL    HW115866   4.247   0.575   0.802
 5164SOL    HW215867   4.335   0.537   0.934
 5165SOL     OW15868   4.988   1.358   0.475
 5165SOL    HW115869   5.041   1.440   0.495
 5165SOL    HW215870   4.891   1.378   0.482
 5166SOL     OW15871   5.057   1.473   1.137
 5166SOL    HW115872   5.100   1.480   1.228
 5166SOL    HW215873   4.993   1.396   1.137
 5167SOL     OW15874   5.332   0.617   0.505
 5167SOL    HW115875   5.272   0.669   0.567
 5167SOL    HW215876   5.394   0.680   0.458
 5168SOL     OW15877   4.081   1.534   1.318
 5168SOL    HW115878   4.073   1.474   1.238
 5168SOL    HW215879   4.176   1.560   1.330
 5169SOL     OW15880   4.222   0.705   1.685
 5169SOL    HW115881   4.262   0.754   1.607
 5169SOL    HW215882   4.282   0.630   1.711
 5170SOL     OW15883   5.332   0.810   1.701
 5170SOL    HW115884   5.237   0.841   1.696
 5170SOL    HW215885   5.384   0.847   1.624
 5171SOL     OW15886   4.703   0.087   1.686
 5171SOL    HW115887   4.773   0.157   1.701
 5171SOL    HW215888   4.697   0.066   1.588
 5172SOL     OW15889   4.202   0.021   1.846
 5172SOL    HW115890   4.205   6.451   1.773
 5172SOL    HW215891   4.142   0.095   1.818
 5173SOL     OW15892   4.402   0.872   1.110
 5173SOL    HW115893   4.413   0.970   1.094
 5173SOL    HW215894   4.315   0.855   1.157
 5174SOL     OW15895   5.040   0.883   0.981
 5174SOL    HW115896   4.948   0.848   0.964
 5174SOL    HW215897   5.106   0.807   0.977
 5175SOL     OW15898   5.010   0.537   0.268
 5175SOL    HW115899   5.020   0.463   0.336
 5175SOL    HW215900   4.937   0.599   0.297
 5176SOL     OW15901   4.048   0.161   1.245
 5176SOL    HW115902   4.006   0.184   1.332
 5176SOL    HW215903   4.080   0.066   1.248
 5177SOL     OW15904   3.778   1.292   1.308
 5177SOL    HW115905   3.822   1.238   1.380
 5177SOL    HW215906   3.787   1.389   1.330
 5178SOL     OW15907   4.467   0.619   1.014
 5178SOL    HW115908   4.553   0.609   0.964
 5178SOL    HW215909   4.450   0.716   1.033
 5179SOL     OW15910   5.470   0.988   1.862
 5179SOL    HW115911   5.425   0.917   1.809
 5179SOL    HW215912   5.412   1.014   1.939
 5180SOL     OW15913   3.938   6.483   0.744
 5180SOL    HW115914   3.942   0.083   0.742
 5180SOL    HW215915   4.003   6.450   0.813
 5181SOL     OW15916   5.444   0.392   0.401
 5181SOL    HW115917   5.423   0.304   0.444
 5181SOL    HW215918   5.389   0.464   0.444
 5182SOL     OW15919   4.786   0.771   0.961
 5182SOL    HW115920   4.753   0.790   1.053
 5182SOL    HW215921   4.767   0.675   0.938
 5183SOL     OW15922   4.725   1.560   1.782
 5183SOL    HW115923   4.690   1.616   1.707
 5183SOL    HW215924   4.765   1.476   1.745
 5184SOL     OW15925   5.555   1.489   1.584
 5184SOL    HW115926   5.573   1.518   1.490
 5184SOL    HW215927   5.638   1.502   1.639
 5185SOL     OW15928   4.132   0.917   1.840
 5185SOL    HW115929   4.205   0.950   1.900
 5185SOL    HW215930   4.166   0.839   1.787
 5186SOL     OW15931   5.353   0.294   0.158
 5186SOL    HW115932   5.264   0.250   0.164
 5186SOL    HW215933   5.376   0.336   0.245
 5187SOL     OW15934   4.999   0.854   6.492
 5187SOL    HW115935   5.034   0.761   0.002
 5187SOL    HW215936   5.030   0.893   6.405
 5188SOL     OW15937   4.804   1.374   0.864
 5188SOL    HW115938   4.824   1.293   0.809
 5188SOL    HW215939   4.862   1.450   0.835
 5189SOL     OW15940   4.058   0.794   0.920
 5189SOL    HW115941   4.131   0.780   0.853
 5189SOL    HW215942   4.048   0.712   0.977
 5190SOL     OW15943   4.027   0.513   1.022
 5190SOL    HW115944   3.979   0.425   1.022
 5190SOL    HW215945   4.109   0.508   0.965
 5191SOL     OW15946   4.859   0.320   1.701
 5191SOL    HW115947   4.804   0.365   1.772
 5191SOL    HW215948   4.941   0.375   1.683
 5192SOL     OW15949   4.936   0.185   1.472
 5192SOL    HW115950   4.916   0.234   1.557
 5192SOL    HW215951   4.963   0.250   1.401
 5193SOL     OW15952   3.841   1.250   0.147
 5193SOL    HW115953   3.755   1.298   0.130
 5193SOL    HW215954   3.825   1.177   0.213
 5194SOL     OW15955   3.857   1.734   0.967
 5194SOL    HW115956   3.825   1.650   0.922
 5194SOL    HW215957   3.944   1.761   0.927
 5195SOL     OW15958   4.221   1.546   0.923
 5195SOL    HW115959   4.292   1.608   0.957
 5195SOL    HW215960   4.259   1.487   0.852
 5196SOL     OW15961   4.669   0.835   1.193
 5196SOL    HW115962   4.703   0.790   1.275
 5196SOL    HW215963   4.569   0.830   1.191
 5197SOL     OW15964   3.802   0.622   1.152
 5197SOL    HW115965   3.876   0.592   1.091
 5197SOL    HW215966   3.823   0.594   1.245
 5198SOL     OW15967   3.951   0.659   1.746
 5198SOL    HW115968   4.050   0.663   1.729
 5198SOL    HW215969   3.903   0.706   1.672
 5199SOL     OW15970   5.095   0.934   1.637
 5199SOL    HW115971   5.118   1.031   1.633
 5199SOL    HW215972   5.084   0.899   1.544
 5200SOL     OW15973   4.557   0.605   0.365
 5200SOL    HW115974   4.566   0.526   0.304
 5200SOL    HW215975   4.470   0.651   0.347
 5201SOL     OW15976   5.393   0.615   1.160
 5201SOL    HW115977   5.382   0.547   1.233
 5201SOL    HW215978   5.490   0.622   1.137
 5202SOL     OW15979   3.976   1.541   1.760
 5202SOL    HW115980   3.931   1.570   1.845
 5202SOL    HW215981   3.996   1.443   1.764
 5203SOL     OW15982   4.459   0.469   1.239
 5203SOL    HW115983   4.399   0.390   1.227
 5203SOL    HW215984   4.455   0.527   1.157
 5204SOL     OW15985   4.604   1.700   1.551
 5204SOL    HW115986   4.554   1.633   1.497
 5204SOL    HW215987   4.632   1.776   1.493
 5205SOL     OW15988   4.192   0.583   0.141
 5205SOL    HW115989   4.241   0.642   0.205
 5205SOL    HW215990   4.097   0.614   0.133
 5206SOL     OW15991   3.897   1.129   1.499
 5206SOL    HW115992   3.903   1.089   1.591
 5206SOL    HW215993   3.915   1.059   1.431
 5207SOL     OW15994   4.996   1.046   1.199
 5207SOL    HW115995   5.017   0.984   1.123
 5207SOL    HW215996   4.949   1.127   1.165
 5208SOL     OW15997   5.032   0.879   0.265
 5208SOL    HW115998   4.964   0.822   0.312
 5208SOL    HW215999   5.015   0.876   0.166
 5209SOL     OW16000   5.472   1.703   1.147
 5209SOL    HW116001   5.543   1.737   1.085
 5209SOL    HW216002   5.448   1.609   1.121
 5210SOL     OW16003   5.011   1.733   1.068
 5210SOL    HW116004   5.097   1.783   1.070
 5210SOL    HW216005   5.025   1.640   1.102
 5211SOL     OW16006   3.870   1.205   1.060
 5211SOL    HW116007   3.832   1.236   1.147
 5211SOL    HW216008   3.799   1.157   1.008
 5212SOL     OW16009   4.435   1.719   1.768
 5212SOL    HW116010   4.367   1.791   1.760
 5212SOL    HW216011   4.504   1.730   1.696
 5213SOL     OW16012   4.649   0.116   0.154
 5213SOL    HW116013   4.639   0.044   0.085
 5213SOL    HW216014   4.628   0.079   0.245
 5214SOL     OW16015   5.468   0.109   0.441
 5214SOL    HW116016   5.551   0.148   0.402
 5214SOL    HW216017   5.472   0.009   0.437
 5215SOL     OW16018   5.137   1.586   0.526
 5215SOL    HW116019   5.197   1.616   0.451
 5215SOL    HW216020   5.078   1.662   0.553
 5216SOL     OW16021   3.816   1.818   1.825
 5216SOL    HW116022   3.790   1.727   1.859
 5216SOL    HW216023   3.888   1.856   1.883
 5217SOL     OW16024   5.008   0.939   0.656
 5217SOL    HW116025   5.082   0.874   0.678
 5217SOL    HW216026   5.047   1.019   0.611
 5218SOL     OW16027   4.500   1.300   1.448
 5218SOL    HW116028   4.477   1.354   1.529
 5218SOL    HW216029   4.425   1.303   1.382
 5219SOL     OW16030   4.423   1.669   0.166
 5219SOL    HW116031   4.428   1.750   0.107
 5219SOL    HW216032   4.373   1.597   0.119
 5220SOL     OW16033   5.327   1.741   1.396
 5220SOL    HW116034   5.380   1.735   1.312
 5220SOL    HW216035   5.315   1.837   1.421
 5221SOL     OW16036   5.556   0.123   0.999
 5221SOL    HW116037   5.573   0.039   0.946
 5221SOL    HW216038   5.471   0.165   0.967
 5222SOL     OW16039   3.947   0.261   0.764
 5222SOL    HW116040   3.874   0.313   0.720
 5222SOL    HW216041   3.938   0.268   0.863
 5223SOL     OW16042   4.977   1.540   0.050
 5223SOL    HW116043   4.988   1.463   0.113
 5223SOL    HW216044   4.940   1.507   6.463
 5224SOL     OW16045   4.532   1.032   1.397
 5224SOL    HW116046   4.572   1.028   1.305
 5224SOL    HW216047   4.520   1.128   1.424
 5225SOL     OW16048   4.694   0.957   0.304
 5225SOL    HW116049   4.732   0.996   0.220
 5225SOL    HW216050   4.742   0.872   0.326
 5226SOL     OW16051   5.213   1.679   0.090
 5226SOL    HW116052   5.130   1.627   0.070
 5226SOL    HW216053   5.269   1.686   0.007
 5227SOL     OW16054   4.098   1.330   1.524
 5227SOL    HW116055   4.089   1.402   1.456
 5227SOL    HW216056   4.029   1.259   1.508
 5228SOL     OW16057   5.324   1.291   1.292
 5228SOL    HW116058   5.380   1.261   1.368
 5228SOL    HW216059   5.262   1.363   1.322
 5229SOL     OW16060   4.824   1.127   0.754
 5229SOL    HW116061   4.747   1.081   0.798
 5229SOL    HW216062   4.886   1.058   0.715
 5230SOL     OW16063   4.710   0.246   0.990
 5230SOL    HW116064   4.694   0.206   0.900
 5230SOL    HW216065   4.715   0.173   1.058
 5231SOL     OW16066   4.324   1.485   0.487
 5231SOL    HW116067   4.378   1.424   0.430
 5231SOL    HW216068   4.280   1.554   0.429
 5232SOL     OW16069   5.449   0.416   1.360
 5232SOL    HW116070   5.545   0.443   1.365
 5232SOL    HW216071   5.442   0.326   1.316
 5233SOL     OW16072   4.045   1.412   0.222
 5233SOL    HW116073   3.978   1.347   0.187
 5233SOL    HW216074   4.034   1.423   0.320
 5234SOL     OW16075   3.897   1.023   1.748
 5234SOL    HW116076   3.815   0.994   1.799
 5234SOL    HW216077   3.977   0.975   1.784
 5235SOL     OW16078   4.437   0.223   1.482
 5235SOL    HW116079   4.527   0.206   1.444
 5235SOL    HW216080   4.446   0.244   1.580
 5236SOL     OW16081   5.101   0.855   1.374
 5236SOL    HW116082   5.043   0.916   1.320
 5236SOL    HW216083   5.194   0.856   1.338
 5237SOL     OW16084   3.834   0.174   0.277
 5237SOL    HW116085   3.780   0.193   0.195
 5237SOL    HW216086   3.913   0.116   0.252
 5238SOL     OW16087   5.000   1.315   0.200
 5238SOL    HW116088   4.929   1.255   0.164
 5238SOL    HW216089   4.997   1.316   0.300
 5239SOL     OW16090   4.368   0.822   1.474
 5239SOL    HW116091   4.419   0.906   1.455
 5239SOL    HW216092   4.431   0.744   1.473
 5240SOL     OW16093   5.254   1.859   1.061
 5240SOL    HW116094   5.283   1.912   0.981
 5240SOL    HW216095   5.332   1.808   1.097
 5241SOL     OW16096   4.441   0.527   1.721
 5241SOL    HW116097   4.506   0.587   1.767
 5241SOL    HW216098   4.461   0.431   1.744
 5242SOL     OW16099   5.183   1.196   1.619
 5242SOL    HW116100   5.173   1.213   1.717
 5242SOL    HW216101   5.277   1.215   1.591
 5243SOL     OW16102   4.095   1.754   1.615
 5243SOL    HW116103   4.013   1.803   1.584
 5243SOL    HW216104   4.068   1.670   1.662
 5244SOL     OW16105   5.348   0.872   1.257
 5244SOL    HW116106   5.366   0.784   1.212
 5244SOL    HW216107   5.344   0.944   1.188
 5245SOL     OW16108   5.019   0.339   0.464
 5245SOL    HW116109   5.081   0.261   0.459
 5245SOL    HW216110   5.041   0.395   0.544
 5246SOL     OW16111   4.245   0.747   0.726
 5246SOL    HW116112   4.321   0.811   0.712
 5246SOL    HW216113   4.197   0.734   0.639
 5247SOL     OW16114   5.448   0.388   1.640
 5247SOL    HW116115   5.443   0.410   1.542
 5247SOL    HW216116   5.372   0.327   1.664
 5248SOL     OW16117   5.452   0.939   1.498
 5248SOL    HW116118   5.444   1.038   1.513
 5248SOL    HW216119   5.418   0.916   1.408
 5249SOL     OW16120   4.570   1.384   6.455
 5249SOL    HW116121   4.549   1.455   6.388
 5249SOL    HW216122   4.661   1.347   6.437
 5250SOL     OW16123   4.406   1.739   0.967
 5250SOL    HW116124   4.385   1.834   0.946
 5250SOL    HW216125   4.504   1.723   0.956
 5251SOL     OW16126   4.627   0.989   0.892
 5251SOL    HW116127   4.686   0.913   0.917
 5251SOL    HW216128   4.585   1.028   0.974
 5252SOL     OW16129   4.804   1.039   0.063
 5252SOL    HW116130   4.819   1.120   0.006
 5252SOL    HW216131   4.870   0.968   0.038
 5253SOL     OW16132   5.543   1.565   0.856
 5253SOL    HW116133   5.475   1.547   0.786
 5253SOL    HW216134   5.525   1.507   0.936
 5254SOL     OW16135   3.947   1.271   1.845
 5254SOL    HW116136   3.931   1.181   1.803
 5254SOL    HW216137   3.875   1.289   1.912
 5255SOL     OW16138   3.921   1.201   0.663
 5255SOL    HW116139   3.954   1.158   0.747
 5255SOL    HW216140   3.973   1.166   0.585
 5256SOL     OW16141   4.419   1.457   1.659
 5256SOL    HW116142   4.340   1.410   1.700
 5256SOL    HW216143   4.428   1.548   1.701
 5257SOL     OW16144   5.436   0.158   1.249
 5257SOL    HW116145   5.355   0.099   1.239
 5257SOL    HW216146   5.493   0.150   1.167
 5258SOL     OW16147   4.185   0.437   0.485
 5258SOL    HW116148   4.165   0.388   0.401
 5258SOL    HW216149   4.209   0.372   0.558
 5259SOL     OW16150   5.424   1.445   1.077
 5259SOL    HW116151   5.347   1.422   1.017
 5259SOL    HW216152   5.424   1.384   1.156
 5260SOL     OW16153   4.096   0.556   1.289
 5260SOL    HW116154   4.146   0.489   1.345
 5260SOL    HW216155   4.089   0.522   1.196
 5261SOL     OW16156   4.550   1.580   0.671
 5261SOL    HW116157   4.518   1.643   0.600
 5261SOL    HW216158   4.479   1.512   0.690
 5262SOL     OW16159   5.075   0.226   1.053
 5262SOL    HW116160   5.044   0.131   1.046
 5262SOL    HW216161   5.050   0.263   1.143
 5263SOL     OW16162   4.734   0.012   1.147
 5263SOL    HW116163   4.735   6.467   1.057
 5263SOL    HW216164   4.757   6.445   1.217
 5264SOL     OW16165   4.499   1.302   0.375
 5264SOL    HW116166   4.493   1.208   0.406
 5264SOL    HW216167   4.587   1.341   0.401
 5265SOL     OW16168   4.354   1.586   1.301
 5265SOL    HW116169   4.342   1.677   1.340
 5265SOL    HW216170   4.438   1.583   1.248
 5266SOL     OW16171   5.109   0.133   0.177
 5266SOL    HW116172   5.138   0.132   0.081
 5266SOL    HW216173   5.022   0.084   0.187
 5267SOL     OW16174   5.065   0.497   0.678
 5267SOL    HW116175   5.012   0.575   0.649
 5267SOL    HW216176   5.046   0.478   0.775
 5268SOL     OW16177   5.322   0.231   0.925
 5268SOL    HW116178   5.233   0.231   0.971
 5268SOL    HW216179   5.327   0.309   0.863
 5269SOL     OW16180   3.817   1.028   0.307
 5269SOL    HW116181   3.898   0.998   0.257
 5269SOL    HW216182   3.774   0.948   0.350
 5270SOL     OW16183   4.642   1.679   0.337
 5270SOL    HW116184   4.567   1.666   0.272
 5270SOL    HW216185   4.620   1.754   0.399
 5271SOL     OW16186   3.932   0.707   2.020
 5271SOL    HW116187   3.848   0.663   2.052
 5271SOL    HW216188   3.935   0.705   1.920
 5272SOL     OW16189   3.933   0.270   2.894
 5272SOL    HW116190   3.984   0.225   2.967
 5272SOL    HW216191   3.848   0.220   2.877
 5273SOL     OW16192   3.699   0.277   2.507
 5273SOL    HW116193   3.615   0.326   2.531
 5273SOL    HW216194   3.684   0.225   2.423
 5274SOL     OW16195   4.286   1.316   3.091
 5274SOL    HW116196   4.202   1.311   3.037
 5274SOL    HW216197   4.306   1.411   3.112
 5275SOL     OW16198   5.341   1.491   2.578
 5275SOL    HW116199   5.279   1.461   2.650
 5275SOL    HW216200   5.287   1.521   2.499
 5276SOL     OW16201   4.850   0.715   2.524
 5276SOL    HW116202   4.900   0.801   2.511
 5276SOL    HW216203   4.794   0.721   2.606
 5277SOL     OW16204   5.528   0.558   2.064
 5277SOL    HW116205   5.477   0.574   1.979
 5277SOL    HW216206   5.507   0.466   2.098
 5278SOL     OW16207   4.431   1.140   2.923
 5278SOL    HW116208   4.378   1.178   2.999
 5278SOL    HW216209   4.470   1.215   2.869
 5279SOL     OW16210   4.608   0.721   3.701
 5279SOL    HW116211   4.598   0.775   3.785
 5279SOL    HW216212   4.626   0.782   3.624
 5280SOL     OW16213   4.417   0.993   2.530
 5280SOL    HW116214   4.487   0.994   2.601
 5280SOL    HW216215   4.344   1.057   2.554
 5281SOL     OW16216   4.413   1.161   3.699
 5281SOL    HW116217   4.466   1.233   3.743
 5281SOL    HW216218   4.335   1.201   3.651
 5282SOL     OW16219   4.060   1.382   2.930
 5282SOL    HW116220   3.969   1.365   2.892
 5282SOL    HW216221   4.114   1.436   2.866
 5283SOL     OW16222   5.162   1.511   3.245
 5283SOL    HW116223   5.221   1.592   3.253
 5283SOL    HW216224   5.081   1.523   3.303
 5284SOL     OW16225   4.160   0.372   3.314
 5284SOL    HW116226   4.242   0.335   3.358
 5284SOL    HW216227   4.082   0.314   3.335
 5285SOL     OW16228   5.338   0.467   2.613
 5285SOL    HW116229   5.312   0.493   2.520
 5285SOL    HW216230   5.297   0.531   2.678
 5286SOL     OW16231   3.963   1.745   2.324
 5286SOL    HW116232   3.989   1.809   2.397
 5286SOL    HW216233   4.039   1.736   2.260
 5287SOL     OW16234   4.853   1.344   3.557
 5287SOL    HW116235   4.940   1.312   3.593
 5287SOL    HW216236   4.786   1.269   3.562
 5288SOL     OW16237   3.986   1.473   2.391
 5288SOL    HW116238   3.962   1.570   2.393
 5288SOL    HW216239   3.944   1.426   2.468
 5289SOL     OW16240   4.019   1.114   2.759
 5289SOL    HW116241   4.018   1.015   2.769
 5289SOL    HW216242   4.007   1.157   2.849
 5290SOL     OW16243   4.262   1.801   3.298
 5290SOL    HW116244   4.189   1.782   3.363
 5290SOL    HW216245   4.314   1.881   3.328
 5291SOL     OW16246   4.314   1.016   2.035
 5291SOL    HW116247   4.365   1.064   1.964
 5291SOL    HW216248   4.350   1.040   2.125
 5292SOL     OW16249   5.360   0.071   3.353
 5292SOL    HW116250   5.409   0.107   3.274
 5292SOL    HW216251   5.334   0.146   3.414
 5293SOL     OW16252   5.593   1.758   2.192
 5293SOL    HW116253   5.670   1.744   2.254
 5293SOL    HW216254   5.597   1.850   2.153
 5294SOL     OW16255   3.801   1.579   1.972
 5294SOL    HW116256   3.778   1.485   1.996
 5294SOL    HW216257   3.779   1.640   2.048
 5295SOL     OW16258   5.420   0.930   2.525
 5295SOL    HW116259   5.513   0.894   2.531
 5295SOL    HW216260   5.410   0.984   2.441
 5296SOL     OW16261   5.391   1.112   2.306
 5296SOL    HW116262   5.470   1.080   2.253
 5296SOL    HW216263   5.422   1.176   2.376
 5297SOL     OW16264   3.806   0.797   3.427
 5297SOL    HW116265   3.850   0.869   3.481
 5297SOL    HW216266   3.724   0.834   3.383
 5298SOL     OW16267   4.351   1.399   2.571
 5298SOL    HW116268   4.307   1.309   2.576
 5298SOL    HW216269   4.338   1.438   2.481
 5299SOL     OW16270   4.968   1.222   3.278
 5299SOL    HW116271   4.988   1.153   3.209
 5299SOL    HW216272   5.040   1.222   3.347
 5300SOL     OW16273   4.604   0.056   2.392
 5300SOL    HW116274   4.640   0.147   2.370
 5300SOL    HW216275   4.533   0.064   2.461
 5301SOL     OW16276   3.926   0.951   3.130
 5301SOL    HW116277   4.019   0.915   3.128
 5301SOL    HW216278   3.869   0.900   3.067
 5302SOL     OW16279   5.268   1.050   2.061
 5302SOL    HW116280   5.193   0.988   2.082
 5302SOL    HW216281   5.310   1.082   2.146
 5303SOL     OW16282   4.894   1.811   3.488
 5303SOL    HW116283   4.899   1.882   3.418
 5303SOL    HW216284   4.906   1.721   3.445
 5304SOL     OW16285   4.050   0.251   3.722
 5304SOL    HW116286   4.123   0.313   3.751
 5304SOL    HW216287   3.964   0.302   3.716
 5305SOL     OW16288   5.163   1.408   2.769
 5305SOL    HW116289   5.116   1.436   2.853
 5305SOL    HW216290   5.147   1.311   2.754
 5306SOL     OW16291   5.361   1.862   2.399
 5306SOL    HW116292   5.353   1.796   2.324
 5306SOL    HW216293   5.381   1.812   2.484
 5307SOL     OW16294   4.334   0.749   2.123
 5307SOL    HW116295   4.337   0.843   2.088
 5307SOL    HW216296   4.269   0.744   2.199
 5308SOL     OW16297   5.007   0.435   2.784
 5308SOL    HW116298   4.911   0.408   2.781
 5308SOL    HW216299   5.059   0.368   2.838
 5309SOL     OW16300   5.330   1.681   2.189
 5309SOL    HW116301   5.429   1.696   2.184
 5309SOL    HW216302   5.294   1.668   2.097
 5310SOL     OW16303   4.527   0.596   3.324
 5310SOL    HW116304   4.495   0.556   3.409
 5310SOL    HW216305   4.500   0.538   3.247
 5311SOL     OW16306   5.075   0.482   3.524
 5311SOL    HW116307   5.082   0.533   3.610
 5311SOL    HW216308   5.140   0.407   3.523
 5312SOL     OW16309   4.664   0.885   3.471
 5312SOL    HW116310   4.724   0.823   3.421
 5312SOL    HW216311   4.606   0.935   3.407
 5313SOL     OW16312   4.731   0.417   3.046
 5313SOL    HW116313   4.638   0.436   3.076
 5313SOL    HW216314   4.729   0.383   2.952
 5314SOL     OW16315   4.781   0.688   2.260
 5314SOL    HW116316   4.802   0.690   2.358
 5314SOL    HW216317   4.690   0.648   2.247
 5315SOL     OW16318   3.788   0.896   2.640
 5315SOL    HW116319   3.877   0.869   2.677
 5315SOL    HW216320   3.749   0.969   2.696
 5316SOL     OW16321   3.817   1.899   3.450
 5316SOL    HW116322   3.816   1.878   3.547
 5316SOL    HW216323   3.729   1.873   3.409
 5317SOL     OW16324   4.577   0.348   2.075
 5317SOL    HW116325   4.633   0.386   2.001
 5317SOL    HW216326   4.515   0.278   2.038
 5318SOL     OW16327   5.376   0.587   3.709
 5318SOL    HW116328   5.362   0.675   3.663
 5318SOL    HW216329   5.400   0.518   3.641
 5319SOL     OW16330   5.134   1.167   2.435
 5319SOL    HW116331   5.219   1.152   2.384
 5319SOL    HW216332   5.079   1.235   2.388
 5320SOL     OW16333   4.366   0.196   2.817
 5320SOL    HW116334   4.355   0.219   2.914
 5320SOL    HW216335   4.326   0.269   2.761
 5321SOL     OW16336   4.734   1.474   2.350
 5321SOL    HW116337   4.715   1.547   2.284
 5321SOL    HW216338   4.695   1.498   2.439
 5322SOL     OW16339   4.089   1.785   2.758
 5322SOL    HW116340   4.126   1.692   2.758
 5322SOL    HW216341   4.159   1.849   2.789
 5323SOL     OW16342   5.518   1.070   2.761
 5323SOL    HW116343   5.471   1.067   2.672
 5323SOL    HW216344   5.450   1.073   2.834
 5324SOL     OW16345   4.912   1.543   3.370
 5324SOL    HW116346   4.899   1.474   3.441
 5324SOL    HW216347   4.853   1.521   3.292
 5325SOL     OW16348   4.023   0.951   2.130
 5325SOL    HW116349   4.107   0.978   2.084
 5325SOL    HW216350   3.988   0.867   2.090
 5326SOL     OW16351   5.205   0.770   2.559
 5326SOL    HW116352   5.202   0.727   2.649
 5326SOL    HW216353   5.285   0.828   2.552
 5327SOL     OW16354   4.193   1.306   3.604
 5327SOL    HW116355   4.166   1.318   3.508
 5327SOL    HW216356   4.113   1.279   3.658
 5328SOL     OW16357   4.892   1.759   2.104
 5328SOL    HW116358   4.800   1.740   2.140
 5328SOL    HW216359   4.917   1.687   2.039
 5329SOL     OW16360   3.938   0.209   3.348
 5329SOL    HW116361   3.857   0.264   3.327
 5329SOL    HW216362   3.921   0.152   3.428
 5330SOL     OW16363   5.355   1.389   1.956
 5330SOL    HW116364   5.329   1.485   1.947
 5330SOL    HW216365   5.279   1.331   1.929
 5331SOL     OW16366   4.197   1.760   2.168
 5331SOL    HW116367   4.239   1.811   2.242
 5331SOL    HW216368   4.268   1.715   2.114
 5332SOL     OW16369   5.159   0.102   2.298
 5332SOL    HW116370   5.124   0.054   2.218
 5332SOL    HW216371   5.258   0.115   2.288
 5333SOL     OW16372   3.934   1.797   3.080
 5333SOL    HW116373   3.988   1.719   3.114
 5333SOL    HW216374   3.901   1.778   2.988
 5334SOL     OW16375   4.699   1.690   2.757
 5334SOL    HW116376   4.789   1.646   2.759
 5334SOL    HW216377   4.643   1.647   2.686
 5335SOL     OW16378   4.142   0.705   2.313
 5335SOL    HW116379   4.150   0.605   2.317
 5335SOL    HW216380   4.048   0.729   2.289
 5336SOL     OW16381   5.214   0.239   3.538
 5336SOL    HW116382   5.213   0.214   3.634
 5336SOL    HW216383   5.133   0.201   3.492
 5337SOL     OW16384   4.394   0.148   1.987
 5337SOL    HW116385   4.409   0.097   2.072
 5337SOL    HW216386   4.329   0.098   1.929
 5338SOL     OW16387   4.516   0.250   3.596
 5338SOL    HW116388   4.592   0.187   3.580
 5338SOL    HW216389   4.465   0.222   3.677
 5339SOL     OW16390   4.562   1.514   3.034
 5339SOL    HW116391   4.546   1.464   2.949
 5339SOL    HW216392   4.632   1.467   3.088
 5340SOL     OW16393   5.023   0.593   3.279
 5340SOL    HW116394   5.048   0.562   3.370
 5340SOL    HW216395   5.058   0.686   3.264
 5341SOL     OW16396   4.526   1.363   2.795
 5341SOL    HW116397   4.621   1.364   2.764
 5341SOL    HW216398   4.466   1.380   2.718
 5342SOL     OW16399   4.655   0.544   2.727
 5342SOL    HW116400   4.628   0.536   2.631
 5342SOL    HW216401   4.683   0.455   2.762
 5343SOL     OW16402   4.128   0.041   2.304
 5343SOL    HW116403   4.071   6.495   2.372
 5343SOL    HW216404   4.083   0.038   2.215
 5344SOL     OW16405   5.138   1.225   1.891
 5344SOL    HW116406   5.185   1.154   1.944
 5344SOL    HW216407   5.057   1.256   1.941
 5345SOL     OW16408   4.011   6.493   2.054
 5345SOL    HW116409   4.085   0.006   1.988
 5345SOL    HW216410   3.972   6.402   2.043
 5346SOL     OW16411   4.712   0.290   2.308
 5346SOL    HW116412   4.669   0.316   2.222
 5346SOL    HW216413   4.811   0.303   2.301
 5347SOL     OW16414   4.771   0.712   3.283
 5347SOL    HW116415   4.693   0.653   3.301
 5347SOL    HW216416   4.854   0.657   3.277
 5348SOL     OW16417   4.947   1.573   2.660
 5348SOL    HW116418   4.965   1.646   2.594
 5348SOL    HW216419   5.034   1.531   2.687
 5349SOL     OW16420   4.209   1.166   2.569
 5349SOL    HW116421   4.146   1.148   2.645
 5349SOL    HW216422   4.161   1.155   2.482
 5350SOL     OW16423   4.984   1.790   2.480
 5350SOL    HW116424   5.029   1.854   2.418
 5350SOL    HW216425   4.904   1.833   2.522
 5351SOL     OW16426   4.744   0.476   1.898
 5351SOL    HW116427   4.711   0.563   1.861
 5351SOL    HW216428   4.816   0.494   1.966
 5352SOL     OW16429   3.840   0.601   3.240
 5352SOL    HW116430   3.937   0.592   3.217
 5352SOL    HW216431   3.829   0.671   3.311
 5353SOL     OW16432   4.316   0.242   3.081
 5353SOL    HW116433   4.363   0.225   3.168
 5353SOL    HW216434   4.220   0.218   3.090
 5354SOL     OW16435   4.598   0.487   2.470
 5354SOL    HW116436   4.549   0.538   2.400
 5354SOL    HW216437   4.643   0.408   2.428
 5355SOL     OW16438   4.737   0.051   2.642
 5355SOL    HW116439   4.708   0.042   2.547
 5355SOL    HW216440   4.748   6.461   2.683
 5356SOL     OW16441   5.138   1.134   2.726
 5356SOL    HW116442   5.085   1.052   2.751
 5356SOL    HW216443   5.140   1.143   2.627
 5357SOL     OW16444   5.192   0.642   2.804
 5357SOL    HW116445   5.120   0.573   2.807
 5357SOL    HW216446   5.253   0.630   2.882
 5358SOL     OW16447   5.522   0.748   2.257
 5358SOL    HW116448   5.599   0.728   2.319
 5358SOL    HW216449   5.525   0.684   2.180
 5359SOL     OW16450   4.240   1.440   2.019
 5359SOL    HW116451   4.162   1.405   2.072
 5359SOL    HW216452   4.239   1.400   1.927
 5360SOL     OW16453   5.482   1.261   2.506
 5360SOL    HW116454   5.581   1.264   2.518
 5360SOL    HW216455   5.443   1.350   2.530
 5361SOL     OW16456   5.108   0.582   1.902
 5361SOL    HW116457   5.058   0.553   1.983
 5361SOL    HW216458   5.206   0.572   1.918
 5362SOL     OW16459   4.179   0.306   2.072
 5362SOL    HW116460   4.266   0.261   2.051
 5362SOL    HW216461   4.183   0.401   2.042
 5363SOL     OW16462   5.460   1.232   3.378
 5363SOL    HW116463   5.550   1.193   3.358
 5363SOL    HW216464   5.472   1.324   3.417
 5364SOL     OW16465   4.740   1.361   3.201
 5364SOL    HW116466   4.654   1.332   3.244
 5364SOL    HW216467   4.816   1.311   3.242
 5365SOL     OW16468   5.343   1.647   3.532
 5365SOL    HW116469   5.320   1.688   3.444
 5365SOL    HW216470   5.418   1.583   3.520
 5366SOL     OW16471   4.865   1.273   2.971
 5366SOL    HW116472   4.802   1.303   3.043
 5366SOL    HW216473   4.828   1.298   2.882
 5367SOL     OW16474   5.314   1.096   2.944
 5367SOL    HW116475   5.303   1.162   3.018
 5367SOL    HW216476   5.245   1.112   2.874
 5368SOL     OW16477   4.693   0.114   3.216
 5368SOL    HW116478   4.730   0.113   3.123
 5368SOL    HW216479   4.736   0.042   3.270
 5369SOL     OW16480   4.680   1.129   3.595
 5369SOL    HW116481   4.586   1.148   3.623
 5369SOL    HW216482   4.684   1.042   3.547
 5370SOL     OW16483   4.457   1.069   2.267
 5370SOL    HW116484   4.436   1.041   2.360
 5370SOL    HW216485   4.538   1.020   2.235
 5371SOL     OW16486   4.175   0.827   3.124
 5371SOL    HW116487   4.239   0.838   3.201
 5371SOL    HW216488   4.140   0.733   3.123
 5372SOL     OW16489   4.975   0.355   3.150
 5372SOL    HW116490   5.007   0.440   3.192
 5372SOL    HW216491   4.882   0.369   3.114
 5373SOL     OW16492   3.777   1.565   3.227
 5373SOL    HW116493   3.729   1.624   3.163
 5373SOL    HW216494   3.876   1.572   3.211
 5374SOL     OW16495   4.055   1.139   2.341
 5374SOL    HW116496   4.058   1.215   2.275
 5374SOL    HW216497   4.045   1.053   2.291
 5375SOL     OW16498   4.229   0.565   2.738
 5375SOL    HW116499   4.239   0.622   2.657
 5375SOL    HW216500   4.307   0.579   2.800
 5376SOL     OW16501   4.987   1.369   2.304
 5376SOL    HW116502   5.051   1.442   2.328
 5376SOL    HW216503   4.894   1.397   2.329
 5377SOL     OW16504   5.044   1.479   3.002
 5377SOL    HW116505   5.088   1.487   3.091
 5377SOL    HW216506   4.980   1.402   3.003
 5378SOL     OW16507   5.308   0.590   2.359
 5378SOL    HW116508   5.239   0.645   2.407
 5378SOL    HW216509   5.378   0.651   2.321
 5379SOL     OW16510   4.047   1.547   3.150
 5379SOL    HW116511   4.039   1.483   3.073
 5379SOL    HW216512   4.143   1.570   3.164
 5380SOL     OW16513   4.218   0.690   3.535
 5380SOL    HW116514   4.253   0.741   3.456
 5380SOL    HW216515   4.284   0.620   3.561
 5381SOL     OW16516   5.330   0.815   3.565
 5381SOL    HW116517   5.235   0.845   3.558
 5381SOL    HW216518   5.381   0.847   3.485
 5382SOL     OW16519   4.721   0.066   3.561
 5382SOL    HW116520   4.785   0.142   3.568
 5382SOL    HW216521   4.749   0.004   3.488
 5383SOL     OW16522   4.247   0.060   3.661
 5383SOL    HW116523   4.235   6.476   3.608
 5383SOL    HW216524   4.163   0.114   3.657
 5384SOL     OW16525   4.307   0.889   2.889
 5384SOL    HW116526   4.347   0.981   2.893
 5384SOL    HW216527   4.255   0.872   2.973
 5385SOL     OW16528   5.027   0.883   2.834
 5385SOL    HW116529   4.933   0.851   2.820
 5385SOL    HW216530   5.090   0.807   2.826
 5386SOL     OW16531   4.929   0.518   2.102
 5386SOL    HW116532   4.959   0.444   2.163
 5386SOL    HW216533   4.883   0.588   2.156
 5387SOL     OW16534   4.058   0.144   3.105
 5387SOL    HW116535   4.010   0.160   3.191
 5387SOL    HW216536   4.089   0.049   3.101
 5388SOL     OW16537   3.786   1.310   3.126
 5388SOL    HW116538   3.817   1.243   3.193
 5388SOL    HW216539   3.772   1.399   3.171
 5389SOL     OW16540   4.447   0.650   2.888
 5389SOL    HW116541   4.515   0.631   2.818
 5389SOL    HW216542   4.406   0.740   2.871
 5390SOL     OW16543   5.473   0.994   3.719
 5390SOL    HW116544   5.426   0.922   3.667
 5390SOL    HW216545   5.418   1.018   3.799
 5391SOL     OW16546   3.968   6.486   2.538
 5391SOL    HW116547   3.963   0.083   2.562
 5391SOL    HW216548   4.024   6.438   2.605
 5392SOL     OW16549   5.306   0.376   2.169
 5392SOL    HW116550   5.347   0.297   2.217
 5392SOL    HW216551   5.293   0.451   2.234
 5393SOL     OW16552   4.763   0.779   2.819
 5393SOL    HW116553   4.735   0.798   2.913
 5393SOL    HW216554   4.732   0.688   2.793
 5394SOL     OW16555   4.716   1.561   3.653
 5394SOL    HW116556   4.683   1.622   3.581
 5394SOL    HW216557   4.755   1.479   3.611
 5395SOL     OW16558   5.555   1.488   3.444
 5395SOL    HW116559   5.571   1.518   3.350
 5395SOL    HW216560   5.638   1.500   3.497
 5396SOL     OW16561   4.115   0.905   3.679
 5396SOL    HW116562   4.180   0.935   3.748
 5396SOL    HW216563   4.153   0.827   3.630
 5397SOL     OW16564   5.247   0.187   1.964
 5397SOL    HW116565   5.181   0.122   2.001
 5397SOL    HW216566   5.263   0.260   2.031
 5398SOL     OW16567   4.994   0.827   1.866
 5398SOL    HW116568   5.033   0.735   1.873
 5398SOL    HW216569   5.025   0.870   1.781
 5399SOL     OW16570   4.786   1.359   2.722
 5399SOL    HW116571   4.804   1.276   2.670
 5399SOL    HW216572   4.844   1.433   2.687
 5400SOL     OW16573   4.036   0.837   2.781
 5400SOL    HW116574   4.135   0.843   2.779
 5400SOL    HW216575   4.008   0.744   2.806
 5401SOL     OW16576   4.000   0.533   2.875
 5401SOL    HW116577   3.968   0.438   2.876
 5401SOL    HW216578   4.081   0.541   2.816
 5402SOL     OW16579   4.854   0.320   3.572
 5402SOL    HW116580   4.795   0.362   3.641
 5402SOL    HW216581   4.928   0.383   3.549
 5403SOL     OW16582   4.986   0.188   3.371
 5403SOL    HW116583   4.921   0.229   3.436
 5403SOL    HW216584   4.983   0.238   3.285
 5404SOL     OW16585   3.754   1.307   2.041
 5404SOL    HW116586   3.661   1.331   2.013
 5404SOL    HW216587   3.754   1.218   2.086
 5405SOL     OW16588   3.826   1.749   2.828
 5405SOL    HW116589   3.786   1.672   2.778
 5405SOL    HW216590   3.919   1.766   2.794
 5406SOL     OW16591   4.214   1.539   2.767
 5406SOL    HW116592   4.288   1.596   2.803
 5406SOL    HW216593   4.249   1.484   2.690
 5407SOL     OW16594   4.646   0.821   3.064
 5407SOL    HW116595   4.700   0.791   3.142
 5407SOL    HW216596   4.565   0.764   3.055
 5408SOL     OW16597   3.781   0.665   2.982
 5408SOL    HW116598   3.854   0.621   2.929
 5408SOL    HW216599   3.794   0.646   3.079
 5409SOL     OW16600   3.949   0.628   3.602
 5409SOL    HW116601   4.045   0.638   3.576
 5409SOL    HW216602   3.891   0.676   3.535
 5410SOL     OW16603   5.091   0.935   3.496
 5410SOL    HW116604   5.116   1.032   3.491
 5410SOL    HW216605   5.082   0.899   3.403
 5411SOL     OW16606   4.533   0.585   2.216
 5411SOL    HW116607   4.532   0.500   2.163
 5411SOL    HW216608   4.462   0.646   2.181
 5412SOL     OW16609   5.376   0.611   3.012
 5412SOL    HW116610   5.364   0.546   3.087
 5412SOL    HW216611   5.473   0.619   2.990
 5413SOL     OW16612   3.937   1.530   3.607
 5413SOL    HW116613   3.897   1.558   3.694
 5413SOL    HW216614   3.964   1.434   3.612
 5414SOL     OW16615   4.465   0.472   3.091
 5414SOL    HW116616   4.403   0.394   3.082
 5414SOL    HW216617   4.448   0.536   3.017
 5415SOL     OW16618   4.589   1.703   3.423
 5415SOL    HW116619   4.547   1.630   3.369
 5415SOL    HW216620   4.621   1.775   3.362
 5416SOL     OW16621   4.174   0.563   2.001
 5416SOL    HW116622   4.245   0.626   2.033
 5416SOL    HW216623   4.084   0.607   2.010
 5417SOL     OW16624   3.867   1.131   3.327
 5417SOL    HW116625   3.881   1.090   3.417
 5417SOL    HW216626   3.889   1.064   3.256
 5418SOL     OW16627   4.992   1.045   3.056
 5418SOL    HW116628   5.011   0.984   2.979
 5418SOL    HW216629   4.945   1.127   3.023
 5419SOL     OW16630   5.054   0.896   2.125
 5419SOL    HW116631   4.984   0.868   2.192
 5419SOL    HW216632   5.025   0.870   2.033
 5420SOL     OW16633   5.474   1.698   3.000
 5420SOL    HW116634   5.545   1.723   2.934
 5420SOL    HW216635   5.438   1.608   2.977
 5421SOL     OW16636   5.005   1.756   2.986
 5421SOL    HW116637   5.095   1.796   2.968
 5421SOL    HW216638   5.013   1.656   2.989
 5422SOL     OW16639   3.802   1.320   2.858
 5422SOL    HW116640   3.787   1.320   2.957
 5422SOL    HW216641   3.760   1.238   2.818
 5423SOL     OW16642   4.420   1.718   3.637
 5423SOL    HW116643   4.347   1.785   3.626
 5423SOL    HW216644   4.488   1.729   3.564
 5424SOL     OW16645   5.434   0.137   2.245
 5424SOL    HW116646   5.498   0.182   2.183
 5424SOL    HW216647   5.460   0.041   2.255
 5425SOL     OW16648   5.157   1.582   2.382
 5425SOL    HW116649   5.213   1.614   2.306
 5425SOL    HW216650   5.092   1.654   2.408
 5426SOL     OW16651   3.833   1.823   3.707
 5426SOL    HW116652   3.798   1.734   3.736
 5426SOL    HW216653   3.902   1.855   3.772
 5427SOL     OW16654   5.001   0.938   2.496
 5427SOL    HW116655   5.075   0.873   2.517
 5427SOL    HW216656   5.041   1.023   2.460
 5428SOL     OW16657   4.487   1.292   3.292
 5428SOL    HW116658   4.464   1.348   3.372
 5428SOL    HW216659   4.411   1.296   3.227
 5429SOL     OW16660   4.416   1.647   2.030
 5429SOL    HW116661   4.435   1.671   1.935
 5429SOL    HW216662   4.361   1.564   2.033
 5430SOL     OW16663   5.325   1.736   3.257
 5430SOL    HW116664   5.379   1.730   3.173
 5430SOL    HW216665   5.312   1.832   3.282
 5431SOL     OW16666   5.574   0.134   2.860
 5431SOL    HW116667   5.583   0.043   2.819
 5431SOL    HW216668   5.489   0.176   2.829
 5432SOL     OW16669   3.948   0.246   2.617
 5432SOL    HW116670   3.859   0.268   2.576
 5432SOL    HW216671   3.945   0.264   2.715
 5433SOL     OW16672   4.968   1.568   1.922
 5433SOL    HW116673   4.959   1.477   1.960
 5433SOL    HW216674   4.890   1.587   1.861
 5434SOL     OW16675   4.532   1.020   3.271
 5434SOL    HW116676   4.574   1.000   3.182
 5434SOL    HW216677   4.519   1.118   3.281
 5435SOL     OW16678   4.672   0.932   2.183
 5435SOL    HW116679   4.699   0.942   2.087
 5435SOL    HW216680   4.711   0.848   2.220
 5436SOL     OW16681   5.232   1.653   1.925
 5436SOL    HW116682   5.137   1.623   1.916
 5436SOL    HW216683   5.273   1.661   1.834
 5437SOL     OW16684   4.070   1.336   3.363
 5437SOL    HW116685   4.063   1.410   3.296
 5437SOL    HW216686   4.003   1.265   3.341
 5438SOL     OW16687   5.303   1.289   3.152
 5438SOL    HW116688   5.367   1.260   3.224
 5438SOL    HW216689   5.243   1.361   3.187
 5439SOL     OW16690   4.814   1.117   2.608
 5439SOL    HW116691   4.733   1.071   2.644
 5439SOL    HW216692   4.873   1.050   2.563
 5440SOL     OW16693   4.758   0.289   2.800
 5440SOL    HW116694   4.742   0.240   2.714
 5440SOL    HW216695   4.773   0.223   2.874
 5441SOL     OW16696   4.334   1.502   2.324
 5441SOL    HW116697   4.398   1.446   2.272
 5441SOL    HW216698   4.252   1.520   2.268
 5442SOL     OW16699   5.449   0.420   3.229
 5442SOL    HW116700   5.543   0.453   3.233
 5442SOL    HW216701   5.446   0.331   3.184
 5443SOL     OW16702   4.020   1.349   2.158
 5443SOL    HW116703   3.931   1.339   2.114
 5443SOL    HW216704   4.008   1.401   2.243
 5444SOL     OW16705   3.884   1.011   3.583
 5444SOL    HW116706   3.804   0.997   3.642
 5444SOL    HW216707   3.965   0.972   3.626
 5445SOL     OW16708   4.459   0.211   3.321
 5445SOL    HW116709   4.548   0.190   3.280
 5445SOL    HW216710   4.472   0.234   3.418
 5446SOL     OW16711   3.838   0.413   1.803
 5446SOL    HW116712   3.753   0.405   1.753
 5446SOL    HW216713   3.877   0.504   1.790
 5447SOL     OW16714   5.101   0.857   3.232
 5447SOL    HW116715   5.043   0.918   3.178
 5447SOL    HW216716   5.194   0.858   3.195
 5448SOL     OW16717   3.806   0.212   2.063
 5448SOL    HW116718   3.815   0.278   1.988
 5448SOL    HW216719   3.878   0.144   2.056
 5449SOL     OW16720   4.921   1.321   2.030
 5449SOL    HW116721   4.823   1.306   2.014
 5449SOL    HW216722   4.939   1.322   2.128
 5450SOL     OW16723   4.360   0.814   3.326
 5450SOL    HW116724   4.412   0.899   3.315
 5450SOL    HW216725   4.422   0.736   3.325
 5451SOL     OW16726   5.255   1.861   2.931
 5451SOL    HW116727   5.279   1.912   2.848
 5451SOL    HW216728   5.334   1.807   2.961
 5452SOL     OW16729   4.446   0.522   3.576
 5452SOL    HW116730   4.502   0.585   3.631
 5452SOL    HW216731   4.477   0.428   3.592
 5453SOL     OW16732   5.180   1.197   3.477
 5453SOL    HW116733   5.174   1.214   3.575
 5453SOL    HW216734   5.273   1.215   3.445
 5454SOL     OW16735   4.055   1.753   3.479
 5454SOL    HW116736   3.973   1.805   3.455
 5454SOL    HW216737   4.028   1.666   3.521
 5455SOL     OW16738   5.346   0.873   3.108
 5455SOL    HW116739   5.359   0.785   3.063
 5455SOL    HW216740   5.339   0.945   3.039
 5456SOL     OW16741   4.986   0.327   2.295
 5456SOL    HW116742   5.049   0.250   2.296
 5456SOL    HW216743   5.002   0.386   2.374
 5457SOL     OW16744   4.280   0.751   2.546
 5457SOL    HW116745   4.335   0.834   2.537
 5457SOL    HW216746   4.229   0.736   2.461
 5458SOL     OW16747   5.433   0.400   3.510
 5458SOL    HW116748   5.436   0.419   3.412
 5458SOL    HW216749   5.359   0.335   3.529
 5459SOL     OW16750   5.449   0.934   3.354
 5459SOL    HW116751   5.443   1.033   3.368
 5459SOL    HW216752   5.417   0.912   3.262
 5460SOL     OW16753   4.633   1.354   1.965
 5460SOL    HW116754   4.588   1.366   2.054
 5460SOL    HW216755   4.645   1.443   1.921
 5461SOL     OW16756   4.410   1.713   2.825
 5461SOL    HW116757   4.383   1.810   2.823
 5461SOL    HW216758   4.509   1.706   2.837
 5462SOL     OW16759   4.601   0.994   2.739
 5462SOL    HW116760   4.657   0.917   2.770
 5462SOL    HW216761   4.552   1.034   2.816
 5463SOL     OW16762   4.755   0.935   1.927
 5463SOL    HW116763   4.738   1.014   1.867
 5463SOL    HW216764   4.844   0.896   1.905
 5464SOL     OW16765   5.590   1.521   2.708
 5464SOL    HW116766   5.502   1.513   2.661
 5464SOL    HW216767   5.614   1.435   2.751
 5465SOL     OW16768   3.938   1.260   3.691
 5465SOL    HW116769   3.918   1.174   3.643
 5465SOL    HW216770   3.875   1.271   3.768
 5466SOL     OW16771   3.891   1.248   2.543
 5466SOL    HW116772   3.924   1.207   2.628
 5466SOL    HW216773   3.938   1.205   2.466
 5467SOL     OW16774   4.409   1.455   3.504
 5467SOL    HW116775   4.333   1.404   3.544
 5467SOL    HW216776   4.425   1.538   3.557
 5468SOL     OW16777   5.451   0.167   3.110
 5468SOL    HW116778   5.378   0.102   3.089
 5468SOL    HW216779   5.519   0.166   3.037
 5469SOL     OW16780   4.168   0.437   2.320
 5469SOL    HW116781   4.159   0.384   2.236
 5469SOL    HW216782   4.188   0.376   2.396
 5470SOL     OW16783   5.380   1.454   2.944
 5470SOL    HW116784   5.311   1.437   2.873
 5470SOL    HW216785   5.368   1.389   3.019
 5471SOL     OW16786   4.092   0.570   3.139
 5471SOL    HW116787   4.127   0.496   3.196
 5471SOL    HW216788   4.072   0.536   3.048
 5472SOL     OW16789   4.561   1.594   2.542
 5472SOL    HW116790   4.532   1.668   2.481
 5472SOL    HW216791   4.486   1.529   2.552
 5473SOL     OW16792   5.115   0.242   2.938
 5473SOL    HW116793   5.083   0.149   2.917
 5473SOL    HW216794   5.075   0.272   3.024
 5474SOL     OW16795   4.795   0.062   2.957
 5474SOL    HW116796   4.723   0.008   2.914
 5474SOL    HW216797   4.884   0.033   2.922
 5475SOL     OW16798   4.526   1.336   2.219
 5475SOL    HW116799   4.500   1.240   2.236
 5475SOL    HW216800   4.605   1.359   2.275
 5476SOL     OW16801   4.321   1.583   3.147
 5476SOL    HW116802   4.313   1.668   3.199
 5476SOL    HW216803   4.410   1.580   3.102
 5477SOL     OW16804   5.069   6.491   2.059
 5477SOL    HW116805   5.096   6.404   2.017
 5477SOL    HW216806   4.969   6.493   2.069
 5478SOL     OW16807   5.012   0.489   2.512
 5478SOL    HW116808   4.956   0.572   2.507
 5478SOL    HW216809   5.023   0.462   2.607
 5479SOL     OW16810   5.344   0.243   2.779
 5479SOL    HW116811   5.265   0.246   2.840
 5479SOL    HW216812   5.337   0.318   2.713
 5480SOL     OW16813   3.765   1.059   2.165
 5480SOL    HW116814   3.863   1.041   2.152
 5480SOL    HW216815   3.717   0.972   2.176
 5481SOL     OW16816   4.638   1.686   2.198
 5481SOL    HW116817   4.560   1.666   2.139
 5481SOL    HW216818   4.612   1.755   2.266
 5482SOL     OW16819   3.927   0.688   3.871
 5482SOL    HW116820   3.839   0.650   3.899
 5482SOL    HW216821   3.934   0.685   3.771
 5483SOL     OW16822   3.921   0.261   4.761
 5483SOL    HW116823   3.969   0.223   4.840
 5483SOL    HW216824   3.837   0.208   4.745
 5484SOL     OW16825   3.732   0.409   4.363
 5484SOL    HW116826   3.640   0.421   4.402
 5484SOL    HW216827   3.726   0.350   4.283
 5485SOL     OW16828   4.295   1.319   4.942
 5485SOL    HW116829   4.207   1.311   4.896
 5485SOL    HW216830   4.314   1.415   4.963
 5486SOL     OW16831   5.341   1.485   4.436
 5486SOL    HW116832   5.285   1.451   4.512
 5486SOL    HW216833   5.281   1.518   4.363
 5487SOL     OW16834   4.832   0.732   4.379
 5487SOL    HW116835   4.885   0.814   4.361
 5487SOL    HW216836   4.790   0.739   4.470
 5488SOL     OW16837   5.536   0.550   3.930
 5488SOL    HW116838   5.473   0.564   3.854
 5488SOL    HW216839   5.546   0.452   3.947
 5489SOL     OW16840   4.448   1.139   4.786
 5489SOL    HW116841   4.387   1.178   4.855
 5489SOL    HW216842   4.488   1.213   4.732
 5490SOL     OW16843   4.610   0.719   5.566
 5490SOL    HW116844   4.605   0.773   5.650
 5490SOL    HW216845   4.627   0.780   5.489
 5491SOL     OW16846   4.430   0.971   4.375
 5491SOL    HW116847   4.499   0.977   4.447
 5491SOL    HW216848   4.358   1.039   4.391
 5492SOL     OW16849   4.406   1.179   5.548
 5492SOL    HW116850   4.449   1.257   5.594
 5492SOL    HW216851   4.329   1.211   5.493
 5493SOL     OW16852   4.058   1.382   4.795
 5493SOL    HW116853   3.984   1.326   4.757
 5493SOL    HW216854   4.104   1.430   4.720
 5494SOL     OW16855   5.161   1.501   5.105
 5494SOL    HW116856   5.220   1.582   5.114
 5494SOL    HW216857   5.085   1.508   5.169
 5495SOL     OW16858   4.151   0.376   5.196
 5495SOL    HW116859   4.227   0.362   5.259
 5495SOL    HW216860   4.073   0.320   5.224
 5496SOL     OW16861   5.345   0.485   4.464
 5496SOL    HW116862   5.320   0.511   4.371
 5496SOL    HW216863   5.302   0.547   4.529
 5497SOL     OW16864   3.962   1.744   4.194
 5497SOL    HW116865   3.983   1.815   4.261
 5497SOL    HW216866   4.039   1.733   4.132
 5498SOL     OW16867   4.844   1.333   5.448
 5498SOL    HW116868   4.898   1.319   5.531
 5498SOL    HW216869   4.781   1.257   5.435
 5499SOL     OW16870   4.000   1.471   4.239
 5499SOL    HW116871   3.972   1.567   4.247
 5499SOL    HW216872   3.961   1.419   4.315
 5500SOL     OW16873   4.045   1.085   4.603
 5500SOL    HW116874   4.050   0.987   4.621
 5500SOL    HW216875   3.977   1.126   4.664
 5501SOL     OW16876   4.285   1.830   5.127
 5501SOL    HW116877   4.209   1.804   5.187
 5501SOL    HW216878   4.341   1.900   5.172
 5502SOL     OW16879   4.290   0.994   3.887
 5502SOL    HW116880   4.334   1.044   3.813
 5502SOL    HW216881   4.334   1.016   3.974
 5503SOL     OW16882   5.428   0.107   5.239
 5503SOL    HW116883   5.440   0.126   5.142
 5503SOL    HW216884   5.499   0.155   5.291
 5504SOL     OW16885   3.840   0.669   4.305
 5504SOL    HW116886   3.811   0.576   4.329
 5504SOL    HW216887   3.829   0.729   4.384
 5505SOL     OW16888   5.592   1.759   4.053
 5505SOL    HW116889   5.669   1.744   4.116
 5505SOL    HW216890   5.597   1.851   4.015
 5506SOL     OW16891   3.786   1.579   3.832
 5506SOL    HW116892   3.738   1.492   3.843
 5506SOL    HW216893   3.773   1.635   3.914
 5507SOL     OW16894   5.414   0.908   4.372
 5507SOL    HW116895   5.508   0.891   4.402
 5507SOL    HW216896   5.414   0.972   4.296
 5508SOL     OW16897   5.395   1.116   4.172
 5508SOL    HW116898   5.475   1.084   4.120
 5508SOL    HW216899   5.426   1.173   4.248
 5509SOL     OW16900   3.823   0.804   5.286
 5509SOL    HW116901   3.879   0.878   5.324
 5509SOL    HW216902   3.735   0.841   5.256
 5510SOL     OW16903   4.354   1.382   4.434
 5510SOL    HW116904   4.314   1.290   4.437
 5510SOL    HW216905   4.339   1.422   4.344
 5511SOL     OW16906   4.963   1.215   5.145
 5511SOL    HW116907   4.985   1.147   5.076
 5511SOL    HW216908   5.038   1.220   5.212
 5512SOL     OW16909   4.615   0.047   4.255
 5512SOL    HW116910   4.648   0.139   4.236
 5512SOL    HW216911   4.545   0.050   4.327
 5513SOL     OW16912   3.934   0.951   5.005
 5513SOL    HW116913   4.026   0.913   4.998
 5513SOL    HW216914   3.874   0.906   4.940
 5514SOL     OW16915   5.278   1.052   3.924
 5514SOL    HW116916   5.205   0.987   3.944
 5514SOL    HW216917   5.318   1.085   4.009
 5515SOL     OW16918   4.952   1.818   5.355
 5515SOL    HW116919   4.931   1.882   5.281
 5515SOL    HW216920   4.946   1.724   5.320
 5516SOL     OW16921   4.126   0.300   5.526
 5516SOL    HW116922   4.162   0.363   5.595
 5516SOL    HW216923   4.028   0.314   5.516
 5517SOL     OW16924   5.194   1.383   4.642
 5517SOL    HW116925   5.133   1.421   4.711
 5517SOL    HW216926   5.166   1.290   4.620
 5518SOL     OW16927   5.360   1.863   4.264
 5518SOL    HW116928   5.354   1.797   4.189
 5518SOL    HW216929   5.374   1.815   4.350
 5519SOL     OW16930   4.293   0.721   3.993
 5519SOL    HW116931   4.302   0.812   3.952
 5519SOL    HW216932   4.223   0.724   4.065
 5520SOL     OW16933   4.991   0.463   4.646
 5520SOL    HW116934   4.893   0.467   4.663
 5520SOL    HW216935   5.028   0.380   4.688
 5521SOL     OW16936   5.329   1.684   4.052
 5521SOL    HW116937   5.427   1.699   4.047
 5521SOL    HW216938   5.292   1.669   3.960
 5522SOL     OW16939   4.529   0.597   5.186
 5522SOL    HW116940   4.496   0.559   5.273
 5522SOL    HW216941   4.501   0.538   5.111
 5523SOL     OW16942   5.082   0.482   5.388
 5523SOL    HW116943   5.092   0.538   5.470
 5523SOL    HW216944   5.140   0.401   5.396
 5524SOL     OW16945   4.664   0.883   5.332
 5524SOL    HW116946   4.724   0.820   5.283
 5524SOL    HW216947   4.612   0.937   5.266
 5525SOL     OW16948   4.735   0.417   4.914
 5525SOL    HW116949   4.643   0.438   4.946
 5525SOL    HW216950   4.730   0.356   4.835
 5526SOL     OW16951   4.754   0.689   4.117
 5526SOL    HW116952   4.780   0.702   4.213
 5526SOL    HW216953   4.664   0.645   4.113
 5527SOL     OW16954   3.804   0.849   4.513
 5527SOL    HW116955   3.895   0.835   4.550
 5527SOL    HW216956   3.753   0.912   4.572
 5528SOL     OW16957   3.834   1.900   5.299
 5528SOL    HW116958   3.838   1.870   5.394
 5528SOL    HW216959   3.742   1.885   5.263
 5529SOL     OW16960   4.578   0.353   3.944
 5529SOL    HW116961   4.634   0.394   3.872
 5529SOL    HW216962   4.520   0.282   3.904
 5530SOL     OW16963   5.392   0.595   5.560
 5530SOL    HW116964   5.370   0.678   5.509
 5530SOL    HW216965   5.417   0.523   5.495
 5531SOL     OW16966   5.136   1.169   4.291
 5531SOL    HW116967   5.222   1.154   4.243
 5531SOL    HW216968   5.084   1.241   4.246
 5532SOL     OW16969   4.355   0.178   4.702
 5532SOL    HW116970   4.347   0.210   4.796
 5532SOL    HW216971   4.322   0.250   4.640
 5533SOL     OW16972   4.731   1.467   4.204
 5533SOL    HW116973   4.710   1.539   4.139
 5533SOL    HW216974   4.690   1.489   4.293
 5534SOL     OW16975   4.082   1.781   4.605
 5534SOL    HW116976   4.118   1.687   4.603
 5534SOL    HW216977   4.154   1.844   4.633
 5535SOL     OW16978   5.520   1.081   4.615
 5535SOL    HW116979   5.483   1.122   4.532
 5535SOL    HW216980   5.448   1.074   4.684
 5536SOL     OW16981   4.924   1.528   5.253
 5536SOL    HW116982   4.912   1.459   5.325
 5536SOL    HW216983   4.858   1.509   5.179
 5537SOL     OW16984   4.017   0.936   3.981
 5537SOL    HW116985   4.105   0.962   3.940
 5537SOL    HW216986   3.990   0.846   3.948
 5538SOL     OW16987   5.188   0.771   4.409
 5538SOL    HW116988   5.187   0.728   4.500
 5538SOL    HW216989   5.272   0.823   4.397
 5539SOL     OW16990   4.191   1.303   5.429
 5539SOL    HW116991   4.157   1.312   5.336
 5539SOL    HW216992   4.114   1.303   5.493
 5540SOL     OW16993   4.884   1.759   3.959
 5540SOL    HW116994   4.794   1.740   3.998
 5540SOL    HW216995   4.911   1.684   3.899
 5541SOL     OW16996   3.932   0.210   5.239
 5541SOL    HW116997   3.848   0.256   5.211
 5541SOL    HW216998   3.918   0.164   5.327
 5542SOL     OW16999   5.365   1.393   3.821
 5542SOL    HW117000   5.334   1.488   3.811
 5542SOL    HW217001   5.292   1.331   3.790
 5543SOL     OW17002   4.200   1.754   4.044
 5543SOL    HW117003   4.243   1.808   4.116
 5543SOL    HW217004   4.270   1.706   3.991
 5544SOL     OW17005   5.159   0.097   4.155
 5544SOL    HW117006   5.123   0.051   4.075
 5544SOL    HW217007   5.257   0.114   4.144
 5545SOL     OW17008   3.939   1.806   4.938
 5545SOL    HW117009   3.993   1.729   4.970
 5545SOL    HW217010   3.905   1.787   4.845
 5546SOL     OW17011   4.666   1.693   4.606
 5546SOL    HW117012   4.758   1.654   4.606
 5546SOL    HW217013   4.612   1.652   4.532
 5547SOL     OW17014   4.106   0.691   4.199
 5547SOL    HW117015   4.140   0.597   4.206
 5547SOL    HW217016   4.008   0.692   4.220
 5548SOL     OW17017   5.228   0.255   5.426
 5548SOL    HW117018   5.243   0.236   5.523
 5548SOL    HW217019   5.238   0.170   5.374
 5549SOL     OW17020   4.410   0.157   3.846
 5549SOL    HW117021   4.423   0.094   3.923
 5549SOL    HW217022   4.352   0.113   3.778
 5550SOL     OW17023   4.497   0.264   5.483
 5550SOL    HW117024   4.576   0.202   5.473
 5550SOL    HW217025   4.434   0.226   5.551
 5551SOL     OW17026   4.569   1.514   4.894
 5551SOL    HW117027   4.555   1.463   4.809
 5551SOL    HW217028   4.637   1.467   4.950
 5552SOL     OW17029   5.026   0.596   5.145
 5552SOL    HW117030   5.053   0.562   5.236
 5552SOL    HW217031   5.061   0.689   5.133
 5553SOL     OW17032   4.538   1.362   4.655
 5553SOL    HW117033   4.633   1.368   4.623
 5553SOL    HW217034   4.476   1.373   4.578
 5554SOL     OW17035   4.678   0.504   4.606
 5554SOL    HW117036   4.650   0.501   4.510
 5554SOL    HW217037   4.682   0.411   4.643
 5555SOL     OW17038   4.178   0.089   4.183
 5555SOL    HW117039   4.096   0.043   4.217
 5555SOL    HW217040   4.153   0.148   4.106
 5556SOL     OW17041   5.153   1.225   3.750
 5556SOL    HW117042   5.200   1.154   3.803
 5556SOL    HW217043   5.073   1.257   3.800
 5557SOL     OW17044   3.968   0.058   3.923
 5557SOL    HW117045   4.024   0.112   3.860
 5557SOL    HW217046   3.975   6.461   3.899
 5558SOL     OW17047   4.710   0.288   4.177
 5558SOL    HW117048   4.666   0.315   4.091
 5558SOL    HW217049   4.809   0.301   4.169
 5559SOL     OW17050   4.771   0.713   5.141
 5559SOL    HW117051   4.694   0.653   5.159
 5559SOL    HW217052   4.855   0.658   5.137
 5560SOL     OW17053   4.925   1.617   4.549
 5560SOL    HW117054   4.956   1.666   4.467
 5560SOL    HW217055   4.967   1.659   4.630
 5561SOL     OW17056   4.222   1.144   4.408
 5561SOL    HW117057   4.163   1.124   4.487
 5561SOL    HW217058   4.168   1.139   4.324
 5562SOL     OW17059   4.982   1.795   4.338
 5562SOL    HW117060   5.027   1.859   4.275
 5562SOL    HW217061   4.898   1.837   4.374
 5563SOL     OW17062   4.739   0.484   3.766
 5563SOL    HW117063   4.700   0.572   3.739
 5563SOL    HW217064   4.813   0.499   3.832
 5564SOL     OW17065   3.831   0.590   5.111
 5564SOL    HW117066   3.927   0.580   5.085
 5564SOL    HW217067   3.822   0.664   5.178
 5565SOL     OW17068   4.307   0.242   4.968
 5565SOL    HW117069   4.348   0.227   5.058
 5565SOL    HW217070   4.208   0.225   4.972
 5566SOL     OW17071   4.597   0.476   4.348
 5566SOL    HW117072   4.542   0.527   4.282
 5566SOL    HW217073   4.643   0.400   4.302
 5567SOL     OW17074   4.740   0.049   4.512
 5567SOL    HW117075   4.719   0.035   4.416
 5567SOL    HW217076   4.760   6.461   4.555
 5568SOL     OW17077   5.136   1.120   4.585
 5568SOL    HW117078   5.083   1.039   4.610
 5568SOL    HW217079   5.136   1.131   4.486
 5569SOL     OW17080   5.193   0.647   4.657
 5569SOL    HW117081   5.120   0.580   4.661
 5569SOL    HW217082   5.255   0.634   4.735
 5570SOL     OW17083   5.522   0.747   4.113
 5570SOL    HW117084   5.597   0.732   4.178
 5570SOL    HW217085   5.527   0.678   4.041
 5571SOL     OW17086   4.233   1.428   3.873
 5571SOL    HW117087   4.154   1.391   3.922
 5571SOL    HW217088   4.235   1.391   3.780
 5572SOL     OW17089   5.482   1.249   4.389
 5572SOL    HW117090   5.581   1.259   4.387
 5572SOL    HW217091   5.440   1.340   4.399
 5573SOL     OW17092   5.097   0.598   3.769
 5573SOL    HW117093   5.049   0.564   3.850
 5573SOL    HW217094   5.196   0.587   3.783
 5574SOL     OW17095   4.214   0.292   3.993
 5574SOL    HW117096   4.288   0.250   3.941
 5574SOL    HW217097   4.185   0.376   3.946
 5575SOL     OW17098   5.469   1.234   5.240
 5575SOL    HW117099   5.559   1.196   5.219
 5575SOL    HW217100   5.480   1.325   5.280
 5576SOL     OW17101   4.741   1.360   5.067
 5576SOL    HW117102   4.655   1.332   5.108
 5576SOL    HW217103   4.816   1.307   5.107
 5577SOL     OW17104   5.336   1.640   5.405
 5577SOL    HW117105   5.308   1.681   5.319
 5577SOL    HW217106   5.414   1.580   5.389
 5578SOL     OW17107   4.864   1.270   4.835
 5578SOL    HW117108   4.803   1.302   4.907
 5578SOL    HW217109   4.831   1.300   4.746
 5579SOL     OW17110   5.314   1.091   4.802
 5579SOL    HW117111   5.303   1.158   4.875
 5579SOL    HW217112   5.243   1.105   4.733
 5580SOL     OW17113   4.677   0.133   5.122
 5580SOL    HW117114   4.674   0.094   5.030
 5580SOL    HW217115   4.772   0.152   5.148
 5581SOL     OW17116   4.669   1.117   5.471
 5581SOL    HW117117   4.574   1.138   5.493
 5581SOL    HW217118   4.673   1.032   5.418
 5582SOL     OW17119   4.462   1.038   4.103
 5582SOL    HW117120   4.454   1.007   4.198
 5582SOL    HW217121   4.524   0.977   4.053
 5583SOL     OW17122   4.176   0.818   4.987
 5583SOL    HW117123   4.243   0.831   5.061
 5583SOL    HW217124   4.139   0.726   4.992
 5584SOL     OW17125   4.985   0.366   5.002
 5584SOL    HW117126   5.018   0.448   5.049
 5584SOL    HW217127   4.892   0.383   4.968
 5585SOL     OW17128   3.781   1.555   5.068
 5585SOL    HW117129   3.730   1.619   5.011
 5585SOL    HW217130   3.879   1.569   5.056
 5586SOL     OW17131   4.050   1.126   4.190
 5586SOL    HW117132   4.050   1.201   4.124
 5586SOL    HW217133   4.038   1.040   4.142
 5587SOL     OW17134   4.220   0.545   4.591
 5587SOL    HW117135   4.225   0.607   4.512
 5587SOL    HW217136   4.303   0.555   4.646
 5588SOL     OW17137   4.990   1.373   4.165
 5588SOL    HW117138   5.051   1.448   4.192
 5588SOL    HW217139   4.896   1.398   4.187
 5589SOL     OW17140   5.049   1.471   4.859
 5589SOL    HW117141   5.092   1.478   4.949
 5589SOL    HW217142   4.985   1.394   4.858
 5590SOL     OW17143   5.302   0.593   4.210
 5590SOL    HW117144   5.230   0.647   4.253
 5590SOL    HW217145   5.373   0.654   4.174
 5591SOL     OW17146   4.054   1.557   5.000
 5591SOL    HW117147   4.045   1.493   4.924
 5591SOL    HW217148   4.151   1.577   5.015
 5592SOL     OW17149   4.231   0.708   5.389
 5592SOL    HW117150   4.268   0.757   5.310
 5592SOL    HW217151   4.295   0.636   5.417
 5593SOL     OW17152   5.330   0.812   5.411
 5593SOL    HW117153   5.236   0.847   5.410
 5593SOL    HW217154   5.379   0.846   5.330
 5594SOL     OW17155   4.708   0.088   5.434
 5594SOL    HW117156   4.775   0.162   5.439
 5594SOL    HW217157   4.701   0.055   5.340
 5595SOL     OW17158   4.267   0.062   5.504
 5595SOL    HW117159   4.267   0.015   5.416
 5595SOL    HW217160   4.205   0.141   5.499
 5596SOL     OW17161   4.394   0.866   4.819
 5596SOL    HW117162   4.406   0.964   4.800
 5596SOL    HW217163   4.306   0.852   4.865
 5597SOL     OW17164   5.019   0.879   4.690
 5597SOL    HW117165   4.928   0.841   4.675
 5597SOL    HW217166   5.087   0.806   4.682
 5598SOL     OW17167   4.922   0.524   3.970
 5598SOL    HW117168   4.954   0.449   4.029
 5598SOL    HW217169   4.869   0.589   4.024
 5599SOL     OW17170   4.042   0.157   4.985
 5599SOL    HW117171   4.000   0.176   5.074
 5599SOL    HW217172   4.078   0.064   4.985
 5600SOL     OW17173   3.776   1.298   4.973
 5600SOL    HW117174   3.809   1.238   5.046
 5600SOL    HW217175   3.769   1.391   5.008
 5601SOL     OW17176   4.444   0.607   4.732
 5601SOL    HW117177   4.529   0.590   4.683
 5601SOL    HW217178   4.434   0.705   4.750
 5602SOL     OW17179   5.493   0.976   5.562
 5602SOL    HW117180   5.442   0.909   5.507
 5602SOL    HW217181   5.439   0.999   5.643
 5603SOL     OW17182   3.990   0.027   4.389
 5603SOL    HW117183   3.983   0.121   4.422
 5603SOL    HW217184   4.043   6.473   4.454
 5604SOL     OW17185   5.286   0.370   4.021
 5604SOL    HW117186   5.335   0.296   4.067
 5604SOL    HW217187   5.282   0.450   4.082
 5605SOL     OW17188   4.759   0.762   4.665
 5605SOL    HW117189   4.735   0.786   4.758
 5605SOL    HW217190   4.738   0.665   4.649
 5606SOL     OW17191   4.709   1.560   5.519
 5606SOL    HW117192   4.675   1.619   5.446
 5606SOL    HW217193   4.747   1.476   5.480
 5607SOL     OW17194   5.555   1.491   5.311
 5607SOL    HW117195   5.572   1.522   5.217
 5607SOL    HW217196   5.638   1.505   5.366
 5608SOL     OW17197   4.115   0.922   5.524
 5608SOL    HW117198   4.174   0.955   5.597
 5608SOL    HW217199   4.158   0.845   5.478
 5609SOL     OW17200   5.236   0.188   3.808
 5609SOL    HW117201   5.176   0.118   3.847
 5609SOL    HW217202   5.251   0.260   3.875
 5610SOL     OW17203   4.984   0.845   3.732
 5610SOL    HW117204   5.017   0.751   3.742
 5610SOL    HW217205   5.014   0.882   3.644
 5611SOL     OW17206   4.800   1.370   4.587
 5611SOL    HW117207   4.819   1.291   4.528
 5611SOL    HW217208   4.857   1.447   4.558
 5612SOL     OW17209   4.051   0.809   4.623
 5612SOL    HW117210   4.124   0.797   4.556
 5612SOL    HW217211   4.049   0.730   4.685
 5613SOL     OW17212   4.002   0.519   4.748
 5613SOL    HW117213   3.966   0.426   4.751
 5613SOL    HW217214   4.079   0.523   4.684
 5614SOL     OW17215   4.859   0.325   5.430
 5614SOL    HW117216   4.800   0.370   5.497
 5614SOL    HW217217   4.938   0.383   5.412
 5615SOL     OW17218   4.937   0.183   5.200
 5615SOL    HW117219   4.917   0.233   5.285
 5615SOL    HW217220   4.964   0.248   5.129
 5616SOL     OW17221   3.759   1.278   3.901
 5616SOL    HW117222   3.669   1.313   3.878
 5616SOL    HW217223   3.749   1.188   3.943
 5617SOL     OW17224   3.824   1.752   4.687
 5617SOL    HW117225   3.779   1.676   4.641
 5617SOL    HW217226   3.916   1.765   4.650
 5618SOL     OW17227   4.205   1.531   4.615
 5618SOL    HW117228   4.276   1.589   4.656
 5618SOL    HW217229   4.245   1.473   4.545
 5619SOL     OW17230   4.667   0.828   4.910
 5619SOL    HW117231   4.705   0.790   4.994
 5619SOL    HW217232   4.567   0.823   4.913
 5620SOL     OW17233   3.757   0.622   4.849
 5620SOL    HW117234   3.837   0.594   4.795
 5620SOL    HW217235   3.779   0.614   4.947
 5621SOL     OW17236   3.970   0.639   5.453
 5621SOL    HW117237   4.065   0.654   5.426
 5621SOL    HW217238   3.910   0.691   5.392
 5622SOL     OW17239   5.093   0.944   5.361
 5622SOL    HW117240   5.122   1.040   5.353
 5622SOL    HW217241   5.080   0.906   5.270
 5623SOL     OW17242   4.508   0.576   4.096
 5623SOL    HW117243   4.519   0.493   4.041
 5623SOL    HW217244   4.430   0.628   4.062
 5624SOL     OW17245   5.377   0.612   4.867
 5624SOL    HW117246   5.362   0.545   4.940
 5624SOL    HW217247   5.475   0.622   4.850
 5625SOL     OW17248   3.950   1.551   5.432
 5625SOL    HW117249   3.925   1.621   5.500
 5625SOL    HW217250   3.958   1.462   5.478
 5626SOL     OW17251   4.466   0.462   4.960
 5626SOL    HW117252   4.404   0.384   4.961
 5626SOL    HW217253   4.449   0.517   4.878
 5627SOL     OW17254   4.596   1.698   5.290
 5627SOL    HW117255   4.546   1.627   5.241
 5627SOL    HW217256   4.623   1.770   5.226
 5628SOL     OW17257   4.151   0.519   3.864
 5628SOL    HW117258   4.221   0.583   3.895
 5628SOL    HW217259   4.062   0.563   3.868
 5629SOL     OW17260   3.865   1.141   5.183
 5629SOL    HW117261   3.880   1.111   5.277
 5629SOL    HW217262   3.893   1.069   5.119
 5630SOL     OW17263   4.989   1.040   4.917
 5630SOL    HW117264   5.004   0.978   4.840
 5630SOL    HW217265   4.943   1.123   4.885
 5631SOL     OW17266   5.068   0.895   3.991
 5631SOL    HW117267   5.003   0.869   4.062
 5631SOL    HW217268   5.030   0.873   3.901
 5632SOL     OW17269   5.474   1.696   4.864
 5632SOL    HW117270   5.545   1.722   4.798
 5632SOL    HW217271   5.444   1.603   4.844
 5633SOL     OW17272   5.010   1.732   4.787
 5633SOL    HW117273   5.097   1.780   4.790
 5633SOL    HW217274   5.023   1.639   4.822
 5634SOL     OW17275   3.842   1.213   4.728
 5634SOL    HW117276   3.814   1.245   4.818
 5634SOL    HW217277   3.769   1.157   4.688
 5635SOL     OW17278   4.414   1.714   5.498
 5635SOL    HW117279   4.346   1.787   5.487
 5635SOL    HW217280   4.488   1.727   5.431
 5636SOL     OW17281   5.432   0.139   4.097
 5636SOL    HW117282   5.495   0.186   4.036
 5636SOL    HW217283   5.462   0.045   4.111
 5637SOL     OW17284   5.155   1.586   4.247
 5637SOL    HW117285   5.211   1.618   4.171
 5637SOL    HW217286   5.092   1.658   4.274
 5638SOL     OW17287   3.867   1.804   5.549
 5638SOL    HW117288   3.809   1.735   5.592
 5638SOL    HW217289   3.923   1.849   5.619
 5639SOL     OW17290   4.993   0.945   4.340
 5639SOL    HW117291   5.063   0.878   4.364
 5639SOL    HW217292   5.038   1.029   4.309
 5640SOL     OW17293   4.485   1.295   5.151
 5640SOL    HW117294   4.460   1.352   5.229
 5640SOL    HW217295   4.412   1.297   5.083
 5641SOL     OW17296   4.407   1.637   3.898
 5641SOL    HW117297   4.424   1.666   3.804
 5641SOL    HW217298   4.354   1.552   3.898
 5642SOL     OW17299   5.321   1.726   5.117
 5642SOL    HW117300   5.377   1.722   5.034
 5642SOL    HW217301   5.311   1.822   5.146
 5643SOL     OW17302   5.552   0.133   4.717
 5643SOL    HW117303   5.564   0.047   4.668
 5643SOL    HW217304   5.472   0.181   4.681
 5644SOL     OW17305   3.958   0.281   4.487
 5644SOL    HW117306   3.886   0.336   4.446
 5644SOL    HW217307   3.947   0.280   4.586
 5645SOL     OW17308   4.962   1.557   3.789
 5645SOL    HW117309   4.954   1.466   3.827
 5645SOL    HW217310   4.882   1.577   3.732
 5646SOL     OW17311   4.548   1.027   5.128
 5646SOL    HW117312   4.600   1.019   5.044
 5646SOL    HW217313   4.524   1.123   5.144
 5647SOL     OW17314   4.634   0.879   3.950
 5647SOL    HW117315   4.698   0.945   3.911
 5647SOL    HW217316   4.684   0.814   4.008
 5648SOL     OW17317   5.229   1.648   3.786
 5648SOL    HW117318   5.135   1.616   3.779
 5648SOL    HW217319   5.269   1.657   3.695
 5649SOL     OW17320   4.072   1.335   5.190
 5649SOL    HW117321   4.059   1.414   5.130
 5649SOL    HW217322   3.998   1.270   5.176
 5650SOL     OW17323   5.308   1.280   5.016
 5650SOL    HW117324   5.372   1.255   5.089
 5650SOL    HW217325   5.245   1.351   5.049
 5651SOL     OW17326   4.814   1.130   4.460
 5651SOL    HW117327   4.737   1.082   4.501
 5651SOL    HW217328   4.873   1.064   4.414
 5652SOL     OW17329   4.725   0.241   4.707
 5652SOL    HW117330   4.735   0.193   4.620
 5652SOL    HW217331   4.721   0.175   4.782
 5653SOL     OW17332   4.331   1.486   4.188
 5653SOL    HW117333   4.390   1.431   4.129
 5653SOL    HW217334   4.242   1.499   4.143
 5654SOL     OW17335   5.456   0.416   5.084
 5654SOL    HW117336   5.552   0.444   5.088
 5654SOL    HW217337   5.449   0.327   5.039
 5655SOL     OW17338   4.012   1.335   4.010
 5655SOL    HW117339   3.921   1.324   3.971
 5655SOL    HW217340   4.006   1.393   4.092
 5656SOL     OW17341   3.887   1.045   5.439
 5656SOL    HW117342   3.807   1.020   5.493
 5656SOL    HW217343   3.968   1.001   5.479
 5657SOL     OW17344   4.435   0.208   5.216
 5657SOL    HW117345   4.524   0.188   5.176
 5657SOL    HW217346   4.446   0.239   5.310
 5658SOL     OW17347   3.828   0.401   3.706
 5658SOL    HW117348   3.744   0.387   3.653
 5658SOL    HW217349   3.873   0.485   3.676
 5659SOL     OW17350   5.102   0.860   5.098
 5659SOL    HW117351   5.042   0.917   5.043
 5659SOL    HW217352   5.194   0.859   5.059
 5660SOL     OW17353   3.781   0.264   3.957
 5660SOL    HW117354   3.793   0.321   3.875
 5660SOL    HW217355   3.845   0.187   3.953
 5661SOL     OW17356   4.938   1.303   3.898
 5661SOL    HW117357   4.877   1.223   3.890
 5661SOL    HW217358   4.956   1.321   3.995
 5662SOL     OW17359   4.372   0.822   5.177
 5662SOL    HW117360   4.425   0.905   5.164
 5662SOL    HW217361   4.433   0.743   5.178
 5663SOL     OW17362   5.256   1.855   4.784
 5663SOL    HW117363   5.285   1.906   4.703
 5663SOL    HW217364   5.333   1.802   4.819
 5664SOL     OW17365   4.443   0.532   5.440
 5664SOL    HW117366   4.500   0.594   5.495
 5664SOL    HW217367   4.465   0.437   5.464
 5665SOL     OW17368   5.193   1.199   5.329
 5665SOL    HW117369   5.189   1.219   5.427
 5665SOL    HW217370   5.285   1.215   5.295
 5666SOL     OW17371   4.079   1.769   5.301
 5666SOL    HW117372   3.995   1.820   5.286
 5666SOL    HW217373   4.057   1.678   5.336
 5667SOL     OW17374   5.344   0.871   4.967
 5667SOL    HW117375   5.357   0.783   4.922
 5667SOL    HW217376   5.338   0.943   4.898
 5668SOL     OW17377   4.981   0.328   4.157
 5668SOL    HW117378   5.048   0.254   4.159
 5668SOL    HW217379   4.994   0.386   4.237
 5669SOL     OW17380   4.238   0.770   4.424
 5669SOL    HW117381   4.315   0.832   4.407
 5669SOL    HW217382   4.193   0.748   4.338
 5670SOL     OW17383   5.449   0.400   5.366
 5670SOL    HW117384   5.447   0.419   5.268
 5670SOL    HW217385   5.370   0.344   5.390
 5671SOL     OW17386   5.456   0.934   5.208
 5671SOL    HW117387   5.451   1.033   5.223
 5671SOL    HW217388   5.421   0.912   5.116
 5672SOL     OW17389   4.560   1.360   3.802
 5672SOL    HW117390   4.550   1.360   3.901
 5672SOL    HW217391   4.611   1.442   3.774
 5673SOL     OW17392   4.393   1.710   4.685
 5673SOL    HW117393   4.367   1.806   4.673
 5673SOL    HW217394   4.493   1.701   4.684
 5674SOL     OW17395   4.609   0.992   4.589
 5674SOL    HW117396   4.658   0.910   4.619
 5674SOL    HW217397   4.560   1.032   4.667
 5675SOL     OW17398   4.813   1.046   3.820
 5675SOL    HW117399   4.763   1.084   3.742
 5675SOL    HW217400   4.877   0.975   3.787
 5676SOL     OW17401   5.588   1.524   4.568
 5676SOL    HW117402   5.501   1.513   4.520
 5676SOL    HW217403   5.611   1.439   4.615
 5677SOL     OW17404   3.939   1.298   5.550
 5677SOL    HW117405   3.922   1.212   5.501
 5677SOL    HW217406   3.881   1.301   5.632
 5678SOL     OW17407   3.905   1.255   4.396
 5678SOL    HW117408   3.933   1.214   4.483
 5678SOL    HW217409   3.945   1.203   4.320
 5679SOL     OW17410   4.404   1.463   5.356
 5679SOL    HW117411   4.326   1.408   5.384
 5679SOL    HW217412   4.412   1.542   5.416
 5680SOL     OW17413   5.440   0.158   4.970
 5680SOL    HW117414   5.363   0.094   4.964
 5680SOL    HW217415   5.494   0.153   4.886
 5681SOL     OW17416   4.208   0.445   4.224
 5681SOL    HW117417   4.213   0.387   4.142
 5681SOL    HW217418   4.234   0.391   4.304
 5682SOL     OW17419   5.398   1.445   4.814
 5682SOL    HW117420   5.332   1.424   4.742
 5682SOL    HW217421   5.385   1.381   4.890
 5683SOL     OW17422   4.083   0.565   5.012
 5683SOL    HW117423   4.119   0.493   5.071
 5683SOL    HW217424   4.069   0.529   4.920
 5684SOL     OW17425   4.545   1.583   4.390
 5684SOL    HW117426   4.511   1.640   4.315
 5684SOL    HW217427   4.479   1.511   4.410
 5685SOL     OW17428   5.099   0.248   4.774
 5685SOL    HW117429   5.086   0.149   4.762
 5685SOL    HW217430   5.068   0.275   4.865
 5686SOL     OW17431   4.720   0.010   4.871
 5686SOL    HW117432   4.708   6.465   4.783
 5686SOL    HW217433   4.743   6.442   4.941
 5687SOL     OW17434   4.522   1.317   4.075
 5687SOL    HW117435   4.502   1.220   4.086
 5687SOL    HW217436   4.603   1.342   4.128
 5688SOL     OW17437   4.329   1.590   5.001
 5688SOL    HW117438   4.324   1.680   5.045
 5688SOL    HW217439   4.417   1.579   4.956
 5689SOL     OW17440   5.071   6.483   3.912
 5689SOL    HW117441   5.100   6.396   3.872
 5689SOL    HW217442   4.972   6.482   3.924
 5690SOL     OW17443   4.987   0.498   4.370
 5690SOL    HW117444   4.932   0.581   4.363
 5690SOL    HW217445   5.000   0.474   4.466
 5691SOL     OW17446   5.335   0.258   4.625
 5691SOL    HW117447   5.249   0.259   4.677
 5691SOL    HW217448   5.335   0.335   4.560
 5692SOL     OW17449   3.759   1.024   4.027
 5692SOL    HW117450   3.856   1.010   4.005
 5692SOL    HW217451   3.717   0.937   4.051
 5693SOL     OW17452   4.632   1.684   4.060
 5693SOL    HW117453   4.554   1.662   4.002
 5693SOL    HW217454   4.609   1.759   4.121
 5694SOL     OW17455   3.948   0.682   5.725
 5694SOL    HW117456   3.861   0.641   5.752
 5694SOL    HW217457   3.956   0.682   5.625
 5695SOL     OW17458   3.931   0.376   0.046
 5695SOL    HW117459   3.998   0.343   0.113
 5695SOL    HW217460   3.854   0.312   0.042
 5696SOL     OW17461   3.673   0.356   6.171
 5696SOL    HW117462   3.587   0.355   6.222
 5696SOL    HW217463   3.667   0.295   6.092
 5697SOL     OW17464   5.250   1.431   6.317
 5697SOL    HW117465   5.202   1.363   6.372
 5697SOL    HW217466   5.192   1.460   6.241
 5698SOL     OW17467   4.887   0.746   6.200
 5698SOL    HW117468   4.979   0.784   6.209
 5698SOL    HW217469   4.819   0.816   6.223
 5699SOL     OW17470   5.517   0.579   5.803
 5699SOL    HW117471   5.477   0.597   5.713
 5699SOL    HW217472   5.473   0.498   5.843
 5700SOL     OW17473   4.422   1.223   0.117
 5700SOL    HW117474   4.446   1.254   0.209
 5700SOL    HW217475   4.464   1.284   0.049
 5701SOL     OW17476   4.387   0.985   6.227
 5701SOL    HW117477   4.448   0.995   6.306
 5701SOL    HW217478   4.306   1.042   6.242
 5702SOL     OW17479   5.266   0.375   6.270
 5702SOL    HW117480   5.172   0.380   6.235
 5702SOL    HW217481   5.299   0.467   6.291
 5703SOL     OW17482   3.954   1.763   6.037
 5703SOL    HW117483   3.974   1.815   6.120
 5703SOL    HW217484   4.036   1.760   5.979
 5704SOL     OW17485   3.880   1.508   6.101
 5704SOL    HW117486   3.909   1.602   6.080
 5704SOL    HW217487   3.823   1.509   6.183
 5705SOL     OW17488   3.969   1.091   6.467
 5705SOL    HW117489   3.992   1.016   0.028
 5705SOL    HW217490   3.926   1.165   0.020
 5706SOL     OW17491   4.277   1.017   5.734
 5706SOL    HW117492   4.324   1.069   5.663
 5706SOL    HW217493   4.329   1.022   5.819
 5707SOL     OW17494   3.812   0.619   6.166
 5707SOL    HW117495   3.765   0.530   6.169
 5707SOL    HW217496   3.797   0.668   6.252
 5708SOL     OW17497   5.585   1.732   5.929
 5708SOL    HW117498   5.662   1.716   5.991
 5708SOL    HW217499   5.588   1.827   5.896
 5709SOL     OW17500   3.745   1.598   5.669
 5709SOL    HW117501   3.677   1.524   5.667
 5709SOL    HW217502   3.740   1.645   5.758
 5710SOL     OW17503   5.375   0.892   6.173
 5710SOL    HW117504   5.433   0.827   6.123
 5710SOL    HW217505   5.364   0.975   6.118
 5711SOL     OW17506   5.383   1.110   6.000
 5711SOL    HW117507   5.470   1.076   5.964
 5711SOL    HW217508   5.400   1.190   6.058
 5712SOL     OW17509   4.248   1.397   6.303
 5712SOL    HW117510   4.220   1.301   6.301
 5712SOL    HW217511   4.284   1.423   6.213
 5713SOL     OW17512   4.706   0.041   6.217
 5713SOL    HW117513   4.748   0.101   6.149
 5713SOL    HW217514   4.607   0.050   6.213
 5714SOL     OW17515   5.294   1.018   5.756
 5714SOL    HW117516   5.238   0.938   5.776
 5714SOL    HW217517   5.325   1.059   5.841
 5715SOL     OW17518   5.330   1.844   6.150
 5715SOL    HW117519   5.324   1.781   6.073
 5715SOL    HW217520   5.346   1.793   6.235
 5716SOL     OW17521   4.294   0.651   5.913
 5716SOL    HW117522   4.305   0.745   5.881
 5716SOL    HW217523   4.222   0.648   5.982
 5717SOL     OW17524   4.954   0.385   6.472
 5717SOL    HW117525   4.863   0.425   6.480
 5717SOL    HW217526   4.975   0.333   0.055
 5718SOL     OW17527   5.315   1.671   5.934
 5718SOL    HW117528   5.415   1.681   5.932
 5718SOL    HW217529   5.282   1.662   5.840
 5719SOL     OW17530   4.764   0.678   5.964
 5719SOL    HW117531   4.808   0.702   6.050
 5719SOL    HW217532   4.681   0.625   5.983
 5720SOL     OW17533   3.768   0.747   6.405
 5720SOL    HW117534   3.829   0.718   6.478
 5720SOL    HW217535   3.725   0.834   6.430
 5721SOL     OW17536   4.587   0.325   5.810
 5721SOL    HW117537   4.632   0.371   5.734
 5721SOL    HW217538   4.515   0.265   5.776
 5722SOL     OW17539   5.104   1.089   6.021
 5722SOL    HW117540   5.201   1.111   6.016
 5722SOL    HW217541   5.050   1.173   6.013
 5723SOL     OW17542   4.743   1.391   6.097
 5723SOL    HW117543   4.736   1.490   6.103
 5723SOL    HW217544   4.774   1.354   6.184
 5724SOL     OW17545   4.165   1.782   6.467
 5724SOL    HW117546   4.171   1.684   6.486
 5724SOL    HW217547   4.256   1.822   6.469
 5725SOL     OW17548   5.519   0.992   6.385
 5725SOL    HW117549   5.461   0.960   6.311
 5725SOL    HW217550   5.462   1.022   6.462
 5726SOL     OW17551   4.022   0.932   5.836
 5726SOL    HW117552   4.107   0.963   5.793
 5726SOL    HW217553   3.998   0.841   5.801
 5727SOL     OW17554   5.287   0.647   6.305
 5727SOL    HW117555   5.231   0.645   6.387
 5727SOL    HW217556   5.325   0.738   6.292
 5728SOL     OW17557   4.880   1.761   5.833
 5728SOL    HW117558   4.789   1.750   5.873
 5728SOL    HW217559   4.902   1.681   5.777
 5729SOL     OW17560   5.378   1.403   5.692
 5729SOL    HW117561   5.328   1.489   5.691
 5729SOL    HW217562   5.321   1.331   5.652
 5730SOL     OW17563   4.193   1.792   5.904
 5730SOL    HW117564   4.235   1.841   5.979
 5730SOL    HW217565   4.263   1.741   5.854
 5731SOL     OW17566   5.184   0.108   5.995
 5731SOL    HW117567   5.154   0.061   5.912
 5731SOL    HW217568   5.284   0.115   5.996
 5732SOL     OW17569   4.097   0.618   6.104
 5732SOL    HW117570   4.115   0.520   6.107
 5732SOL    HW217571   4.000   0.635   6.120
 5733SOL     OW17572   4.387   0.143   5.732
 5733SOL    HW117573   4.405   0.079   5.807
 5733SOL    HW217574   4.343   0.094   5.657
 5734SOL     OW17575   5.190   1.219   5.603
 5734SOL    HW117576   5.227   1.139   5.650
 5734SOL    HW217577   5.102   1.244   5.644
 5735SOL     OW17578   3.954   0.048   5.738
 5735SOL    HW117579   4.030   0.092   5.785
 5735SOL    HW217580   3.961   6.449   5.747
 5736SOL     OW17581   4.751   0.215   6.002
 5736SOL    HW117582   4.690   0.258   5.936
 5736SOL    HW217583   4.843   0.255   5.994
 5737SOL     OW17584   4.161   1.136   6.276
 5737SOL    HW117585   4.098   1.120   6.351
 5737SOL    HW217586   4.112   1.127   6.189
 5738SOL     OW17587   4.946   1.733   6.173
 5738SOL    HW117588   4.976   1.817   6.127
 5738SOL    HW217589   4.856   1.749   6.216
 5739SOL     OW17590   4.734   0.477   5.627
 5739SOL    HW117591   4.693   0.564   5.602
 5739SOL    HW217592   4.811   0.492   5.689
 5740SOL     OW17593   4.661   0.417   6.211
 5740SOL    HW117594   4.602   0.467   6.149
 5740SOL    HW217595   4.699   0.337   6.164
 5741SOL     OW17596   4.629   6.418   6.453
 5741SOL    HW117597   4.674   6.460   6.374
 5741SOL    HW217598   4.678   6.334   6.477
 5742SOL     OW17599   5.552   0.753   6.016
 5742SOL    HW117600   5.630   0.719   6.068
 5742SOL    HW217601   5.532   0.689   5.942
 5743SOL     OW17602   4.224   1.448   5.816
 5743SOL    HW117603   4.133   1.416   5.843
 5743SOL    HW217604   4.266   1.382   5.754
 5744SOL     OW17605   5.445   1.301   6.172
 5744SOL    HW117606   5.532   1.282   6.218
 5744SOL    HW217607   5.386   1.353   6.234
 5745SOL     OW17608   5.113   0.611   5.627
 5745SOL    HW117609   5.060   0.573   5.703
 5745SOL    HW217610   5.210   0.595   5.642
 5746SOL     OW17611   4.147   0.226   5.850
 5746SOL    HW117612   4.236   0.194   5.818
 5746SOL    HW217613   4.128   0.317   5.813
 5747SOL     OW17614   4.450   1.028   5.953
 5747SOL    HW117615   4.436   1.006   6.050
 5747SOL    HW217616   4.519   0.966   5.915
 5748SOL     OW17617   4.017   1.110   6.046
 5748SOL    HW117618   4.010   1.198   5.999
 5748SOL    HW217619   4.023   1.036   5.978
 5749SOL     OW17620   4.356   0.513   6.431
 5749SOL    HW117621   4.354   0.587   6.364
 5749SOL    HW217622   4.300   0.539   0.010
 5750SOL     OW17623   4.985   1.336   5.979
 5750SOL    HW117624   5.045   1.406   6.018
 5750SOL    HW217625   4.894   1.344   6.019
 5751SOL     OW17626   5.221   0.615   6.013
 5751SOL    HW117627   5.230   0.631   6.112
 5751SOL    HW217628   5.180   0.696   5.971
 5752SOL     OW17629   4.932   0.522   5.813
 5752SOL    HW117630   4.966   0.448   5.872
 5752SOL    HW217631   4.879   0.586   5.867
 5753SOL     OW17632   4.014   0.060   6.352
 5753SOL    HW117633   3.987   0.148   6.314
 5753SOL    HW217634   4.102   0.069   6.399
 5754SOL     OW17635   5.327   0.391   5.898
 5754SOL    HW117636   5.360   0.331   5.971
 5754SOL    HW217637   5.282   0.471   5.939
 5755SOL     OW17638   5.283   0.211   5.687
 5755SOL    HW117639   5.221   0.141   5.721
 5755SOL    HW217640   5.301   0.278   5.760
 5756SOL     OW17641   5.009   0.863   5.610
 5756SOL    HW117642   5.040   0.768   5.615
 5756SOL    HW217643   5.033   0.900   5.520
 5757SOL     OW17644   3.761   1.267   5.762
 5757SOL    HW117645   3.675   1.315   5.742
 5757SOL    HW217646   3.741   1.176   5.797
 5758SOL     OW17647   3.787   1.838   6.396
 5758SOL    HW117648   3.803   1.754   6.449
 5758SOL    HW217649   3.864   1.854   6.335
 5759SOL     OW17650   4.534   0.529   5.989
 5759SOL    HW117651   4.545   0.453   5.924
 5759SOL    HW217652   4.446   0.574   5.973
 5760SOL     OW17653   4.146   0.482   5.748
 5760SOL    HW117654   4.218   0.528   5.801
 5760SOL    HW217655   4.068   0.544   5.738
 5761SOL     OW17656   5.109   0.846   5.885
 5761SOL    HW117657   5.091   0.927   5.940
 5761SOL    HW217658   5.049   0.846   5.805
 5762SOL     OW17659   5.461   0.132   5.983
 5762SOL    HW117660   5.513   0.179   5.911
 5762SOL    HW217661   5.485   0.034   5.983
 5763SOL     OW17662   5.125   1.541   6.095
 5763SOL    HW117663   5.193   1.586   6.037
 5763SOL    HW217664   5.058   1.608   6.125
 5764SOL     OW17665   5.107   0.909   6.239
 5764SOL    HW117666   5.204   0.895   6.223
 5764SOL    HW217667   5.074   0.985   6.182
 5765SOL     OW17668   4.395   1.667   5.767
 5765SOL    HW117669   4.413   1.676   5.669
 5765SOL    HW217670   4.347   1.581   5.785
 5766SOL     OW17671   5.585   0.203   0.052
 5766SOL    HW117672   5.572   0.135   6.480
 5766SOL    HW217673   5.496   0.237   0.081
 5767SOL     OW17674   3.924   0.309   6.274
 5767SOL    HW117675   3.831   0.323   6.240
 5767SOL    HW217676   3.933   0.350   6.365
 5768SOL     OW17677   4.952   1.557   5.661
 5768SOL    HW117678   4.951   1.460   5.688
 5768SOL    HW217679   4.870   1.577   5.607
 5769SOL     OW17680   4.638   0.871   5.812
 5769SOL    HW117681   4.702   0.941   5.779
 5769SOL    HW217682   4.687   0.804   5.868
 5770SOL     OW17683   5.222   1.640   5.661
 5770SOL    HW117684   5.126   1.612   5.653
 5770SOL    HW217685   5.261   1.648   5.569
 5771SOL     OW17686   4.749   0.982   6.255
 5771SOL    HW117687   4.663   0.987   6.306
 5771SOL    HW217688   4.799   1.068   6.265
 5772SOL     OW17689   4.364   1.465   6.057
 5772SOL    HW117690   4.434   1.405   6.021
 5772SOL    HW217691   4.293   1.480   5.987
 5773SOL     OW17692   3.980   1.348   5.909
 5773SOL    HW117693   3.903   1.324   5.850
 5773SOL    HW217694   3.948   1.407   5.984
 5774SOL     OW17695   3.867   0.402   5.535
 5774SOL    HW117696   3.779   0.389   5.490
 5774SOL    HW217697   3.907   0.489   5.507
 5775SOL     OW17698   3.791   0.272   5.764
 5775SOL    HW117699   3.819   0.323   5.683
 5775SOL    HW217700   3.842   0.186   5.767
 5776SOL     OW17701   4.946   1.281   5.717
 5776SOL    HW117702   4.893   1.196   5.713
 5776SOL    HW217703   4.964   1.304   5.813
 5777SOL     OW17704   5.000   0.323   5.990
 5777SOL    HW117705   5.073   0.254   5.993
 5777SOL    HW217706   5.005   0.380   6.072
 5778SOL     OW17707   4.315   0.715   6.254
 5778SOL    HW117708   4.341   0.811   6.238
 5778SOL    HW217709   4.232   0.694   6.202
 5779SOL     OW17710   4.516   1.390   5.675
 5779SOL    HW117711   4.536   1.366   5.770
 5779SOL    HW217712   4.581   1.459   5.644
 5780SOL     OW17713   4.413   1.891   0.004
 5780SOL    HW117714   4.368   1.978   6.482
 5780SOL    HW217715   4.512   1.904   0.002
 5781SOL     OW17716   4.547   1.027   6.453
 5781SOL    HW117717   4.636   1.019   6.498
 5781SOL    HW217718   4.489   1.091   0.004
 5782SOL     OW17719   4.818   1.041   5.686
 5782SOL    HW117720   4.762   1.067   5.608
 5782SOL    HW217721   4.886   0.973   5.658
 5783SOL     OW17722   5.376   1.671   6.367
 5783SOL    HW117723   5.336   1.583   6.342
 5783SOL    HW217724   5.460   1.656   6.419
 5784SOL     OW17725   3.819   1.079   6.239
 5784SOL    HW117726   3.872   1.070   6.323
 5784SOL    HW217727   3.881   1.081   6.160
 5785SOL     OW17728   4.134   0.343   6.105
 5785SOL    HW117729   4.132   0.291   6.020
 5785SOL    HW217730   4.051   0.323   6.158
 5786SOL     OW17731   4.481   1.585   6.281
 5786SOL    HW117732   4.458   1.555   6.188
 5786SOL    HW217733   4.402   1.574   6.341
 5787SOL     OW17734   4.543   1.296   5.934
 5787SOL    HW117735   4.516   1.201   5.945
 5787SOL    HW217736   4.622   1.316   5.993
 5788SOL     OW17737   5.100   0.009   5.753
 5788SOL    HW117738   5.118   6.415   5.723
 5788SOL    HW217739   5.006   0.034   5.729
 5789SOL     OW17740   4.996   0.470   6.217
 5789SOL    HW117741   4.952   0.560   6.208
 5789SOL    HW217742   4.973   0.431   6.306
 5790SOL     OW17743   3.752   1.006   5.888
 5790SOL    HW117744   3.849   0.995   5.864
 5790SOL    HW217745   3.713   0.916   5.908
 5791SOL     OW17746   4.623   1.721   5.929
 5791SOL    HW117747   4.543   1.692   5.877
 5791SOL    HW217748   4.599   1.797   5.990
 5792SOL     OW17749   3.975   2.527   0.115
 5792SOL    HW117750   3.889   2.499   0.157
 5792SOL    HW217751   3.957   2.568   0.025
 5793SOL     OW17752   3.974   2.121   0.968
 5793SOL    HW117753   4.017   2.092   1.054
 5793SOL    HW217754   3.883   2.080   0.960
 5794SOL     OW17755   3.793   2.265   0.594
 5794SOL    HW117756   3.720   2.323   0.630
 5794SOL    HW217757   3.754   2.178   0.563
 5795SOL     OW17758   4.324   3.172   1.241
 5795SOL    HW117759   4.235   3.163   1.196
 5795SOL    HW217760   4.345   3.269   1.253
 5796SOL     OW17761   5.322   3.363   0.698
 5796SOL    HW117762   5.276   3.319   0.776
 5796SOL    HW217763   5.255   3.382   0.626
 5797SOL     OW17764   4.861   2.588   0.680
 5797SOL    HW117765   4.910   2.673   0.661
 5797SOL    HW217766   4.812   2.596   0.767
 5798SOL     OW17767   5.540   2.416   0.174
 5798SOL    HW117768   5.504   2.427   0.082
 5798SOL    HW217769   5.481   2.353   0.225
 5799SOL     OW17770   4.461   2.985   1.078
 5799SOL    HW117771   4.405   3.019   1.153
 5799SOL    HW217772   4.496   3.062   1.025
 5800SOL     OW17773   4.621   2.579   1.839
 5800SOL    HW117774   4.616   2.635   1.921
 5800SOL    HW217775   4.637   2.637   1.759
 5801SOL     OW17776   4.427   2.806   0.701
 5801SOL    HW117777   4.496   2.832   0.768
 5801SOL    HW217778   4.350   2.870   0.706
 5802SOL     OW17779   4.442   3.024   1.831
 5802SOL    HW117780   4.502   3.090   1.876
 5802SOL    HW217781   4.363   3.072   1.791
 5803SOL     OW17782   4.086   3.221   1.099
 5803SOL    HW117783   4.013   3.168   1.057
 5803SOL    HW217784   4.129   3.279   1.030
 5804SOL     OW17785   5.174   3.371   1.377
 5804SOL    HW117786   5.230   3.453   1.389
 5804SOL    HW217787   5.094   3.377   1.436
 5805SOL     OW17788   4.230   2.221   1.425
 5805SOL    HW117789   4.309   2.163   1.444
 5805SOL    HW217790   4.147   2.178   1.461
 5806SOL     OW17791   5.303   2.317   0.740
 5806SOL    HW117792   5.245   2.328   0.660
 5806SOL    HW217793   5.278   2.385   0.809
 5807SOL     OW17794   3.948   3.553   0.481
 5807SOL    HW117795   3.969   3.618   0.554
 5807SOL    HW217796   4.018   3.561   0.409
 5808SOL     OW17797   4.861   3.203   1.701
 5808SOL    HW117798   4.931   3.182   1.769
 5808SOL    HW217799   4.799   3.125   1.691
 5809SOL     OW17800   4.016   3.292   0.515
 5809SOL    HW117801   3.983   3.387   0.514
 5809SOL    HW217802   3.967   3.240   0.584
 5810SOL     OW17803   4.037   2.906   0.876
 5810SOL    HW117804   4.049   2.813   0.912
 5810SOL    HW217805   3.979   2.958   0.939
 5811SOL     OW17806   4.302   3.680   1.411
 5811SOL    HW117807   4.220   3.661   1.466
 5811SOL    HW217808   4.358   3.749   1.458
 5812SOL     OW17809   4.317   2.863   0.222
 5812SOL    HW117810   4.355   2.930   0.157
 5812SOL    HW217811   4.361   2.874   0.311
 5813SOL     OW17812   5.311   2.001   1.475
 5813SOL    HW117813   5.366   2.077   1.440
 5813SOL    HW217814   5.264   2.029   1.558
 5814SOL     OW17815   3.902   2.519   0.545
 5814SOL    HW117816   3.875   2.423   0.548
 5814SOL    HW217817   3.891   2.560   0.636
 5815SOL     OW17818   5.593   3.558   0.324
 5815SOL    HW117819   5.660   3.536   0.395
 5815SOL    HW217820   5.596   3.656   0.304
 5816SOL     OW17821   3.765   3.436   0.072
 5816SOL    HW117822   3.782   3.339   0.088
 5816SOL    HW217823   3.753   3.483   0.159
 5817SOL     OW17824   5.429   2.790   0.672
 5817SOL    HW117825   5.519   2.749   0.683
 5817SOL    HW217826   5.425   2.840   0.586
 5818SOL     OW17827   5.423   2.948   0.446
 5818SOL    HW117828   5.497   2.929   0.381
 5818SOL    HW217829   5.447   3.026   0.502
 5819SOL     OW17830   3.910   2.646   1.585
 5819SOL    HW117831   3.981   2.711   1.612
 5819SOL    HW217832   3.834   2.696   1.544
 5820SOL     OW17833   4.330   3.205   0.768
 5820SOL    HW117834   4.291   3.115   0.752
 5820SOL    HW217835   4.328   3.258   0.683
 5821SOL     OW17836   4.976   3.074   1.417
 5821SOL    HW117837   4.995   3.005   1.347
 5821SOL    HW217838   5.047   3.070   1.488
 5822SOL     OW17839   4.566   1.883   0.510
 5822SOL    HW117840   4.617   1.965   0.483
 5822SOL    HW217841   4.468   1.902   0.506
 5823SOL     OW17842   3.995   2.846   1.325
 5823SOL    HW117843   4.068   2.783   1.300
 5823SOL    HW217844   3.917   2.832   1.264
 5824SOL     OW17845   5.234   2.880   0.256
 5824SOL    HW117846   5.164   2.815   0.287
 5824SOL    HW217847   5.298   2.899   0.330
 5825SOL     OW17848   4.916   3.656   1.634
 5825SOL    HW117849   4.922   3.730   1.567
 5825SOL    HW217850   4.925   3.568   1.588
 5826SOL     OW17851   4.115   2.131   1.891
 5826SOL    HW117852   4.156   2.209   1.939
 5826SOL    HW217853   4.021   2.154   1.866
 5827SOL     OW17854   5.205   3.247   0.918
 5827SOL    HW117855   5.144   3.285   0.987
 5827SOL    HW217856   5.179   3.152   0.898
 5828SOL     OW17857   5.324   3.701   0.525
 5828SOL    HW117858   5.327   3.639   0.447
 5828SOL    HW217859   5.326   3.648   0.610
 5829SOL     OW17860   4.339   2.592   0.286
 5829SOL    HW117861   4.342   2.687   0.254
 5829SOL    HW217862   4.280   2.586   0.367
 5830SOL     OW17863   5.007   2.268   0.934
 5830SOL    HW117864   4.917   2.225   0.930
 5830SOL    HW217865   5.066   2.217   0.997
 5831SOL     OW17866   5.318   3.520   0.320
 5831SOL    HW117867   5.418   3.517   0.320
 5831SOL    HW217868   5.285   3.503   0.227
 5832SOL     OW17869   4.531   2.420   1.449
 5832SOL    HW117870   4.497   2.392   1.539
 5832SOL    HW217871   4.501   2.353   1.380
 5833SOL     OW17872   5.107   2.336   1.662
 5833SOL    HW117873   5.111   2.385   1.749
 5833SOL    HW217874   5.152   2.247   1.673
 5834SOL     OW17875   4.670   2.732   1.603
 5834SOL    HW117876   4.725   2.666   1.553
 5834SOL    HW217877   4.614   2.785   1.539
 5835SOL     OW17878   4.741   2.236   1.182
 5835SOL    HW117879   4.646   2.249   1.210
 5835SOL    HW217880   4.743   2.194   1.091
 5836SOL     OW17881   4.800   2.571   0.414
 5836SOL    HW117882   4.815   2.569   0.513
 5836SOL    HW217883   4.713   2.527   0.393
 5837SOL     OW17884   3.861   2.632   0.789
 5837SOL    HW117885   3.950   2.647   0.832
 5837SOL    HW217886   3.804   2.576   0.850
 5838SOL     OW17887   3.822   3.735   1.622
 5838SOL    HW117888   3.844   3.700   1.713
 5838SOL    HW217889   3.727   3.712   1.601
 5839SOL     OW17890   4.578   2.111   0.198
 5839SOL    HW117891   4.605   2.199   0.159
 5839SOL    HW217892   4.610   2.037   0.138
 5840SOL     OW17893   5.386   2.432   1.837
 5840SOL    HW117894   5.370   2.512   1.779
 5840SOL    HW217895   5.411   2.354   1.781
 5841SOL     OW17896   5.149   3.036   0.586
 5841SOL    HW117897   5.235   3.031   0.535
 5841SOL    HW217898   5.086   3.097   0.539
 5842SOL     OW17899   4.307   1.998   0.925
 5842SOL    HW117900   4.317   2.012   1.024
 5842SOL    HW217901   4.312   2.086   0.878
 5843SOL     OW17902   4.709   3.303   0.470
 5843SOL    HW117903   4.710   3.374   0.401
 5843SOL    HW217904   4.658   3.334   0.550
 5844SOL     OW17905   4.082   3.636   0.935
 5844SOL    HW117906   4.127   3.546   0.931
 5844SOL    HW217907   4.152   3.707   0.943
 5845SOL     OW17908   5.523   2.927   0.903
 5845SOL    HW117909   5.475   2.913   0.816
 5845SOL    HW217910   5.457   2.936   0.977
 5846SOL     OW17911   4.927   3.394   1.509
 5846SOL    HW117912   4.917   3.327   1.582
 5846SOL    HW217913   4.865   3.371   1.434
 5847SOL     OW17914   4.055   2.793   0.191
 5847SOL    HW117915   4.154   2.808   0.193
 5847SOL    HW217916   4.037   2.695   0.179
 5848SOL     OW17917   5.209   2.634   0.693
 5848SOL    HW117918   5.200   2.588   0.781
 5848SOL    HW217919   5.290   2.691   0.694
 5849SOL     OW17920   4.223   3.173   1.751
 5849SOL    HW117921   4.198   3.176   1.654
 5849SOL    HW217922   4.139   3.171   1.806
 5850SOL     OW17923   4.873   3.625   0.162
 5850SOL    HW117924   4.805   3.592   0.228
 5850SOL    HW217925   4.916   3.547   0.117
 5851SOL     OW17926   3.982   2.116   1.480
 5851SOL    HW117927   3.929   2.196   1.506
 5851SOL    HW217928   3.937   2.034   1.515
 5852SOL     OW17929   5.365   3.202   0.063
 5852SOL    HW117930   5.331   3.295   0.078
 5852SOL    HW217931   5.287   3.139   0.059
 5853SOL     OW17932   4.148   3.570   0.295
 5853SOL    HW117933   4.220   3.597   0.359
 5853SOL    HW217934   4.183   3.499   0.234
 5854SOL     OW17935   5.124   1.969   0.460
 5854SOL    HW117936   5.116   1.944   0.363
 5854SOL    HW217937   5.214   1.943   0.493
 5855SOL     OW17938   4.006   3.645   1.208
 5855SOL    HW117939   4.043   3.564   1.253
 5855SOL    HW217940   4.027   3.643   1.110
 5856SOL     OW17941   4.645   3.570   0.829
 5856SOL    HW117942   4.736   3.531   0.840
 5856SOL    HW217943   4.595   3.517   0.760
 5857SOL     OW17944   4.172   2.540   0.494
 5857SOL    HW117945   4.197   2.444   0.508
 5857SOL    HW217946   4.073   2.550   0.504
 5858SOL     OW17947   5.198   2.076   1.721
 5858SOL    HW117948   5.212   2.099   1.817
 5858SOL    HW217949   5.128   2.005   1.714
 5859SOL     OW17950   4.504   2.119   1.753
 5859SOL    HW117951   4.590   2.068   1.755
 5859SOL    HW217952   4.441   2.079   1.820
 5860SOL     OW17953   4.611   3.397   1.167
 5860SOL    HW117954   4.582   3.342   1.088
 5860SOL    HW217955   4.668   3.341   1.227
 5861SOL     OW17956   5.028   2.453   1.428
 5861SOL    HW117957   5.066   2.421   1.515
 5861SOL    HW217958   5.062   2.544   1.407
 5862SOL     OW17959   4.539   3.221   0.954
 5862SOL    HW117960   4.630   3.228   0.911
 5862SOL    HW217961   4.469   3.223   0.883
 5863SOL     OW17962   4.662   2.370   0.858
 5863SOL    HW117963   4.640   2.368   0.761
 5863SOL    HW217964   4.689   2.279   0.889
 5864SOL     OW17965   4.301   1.944   0.475
 5864SOL    HW117966   4.221   1.944   0.535
 5864SOL    HW217967   4.298   2.025   0.416
 5865SOL     OW17968   5.139   3.051   0.069
 5865SOL    HW117969   5.173   2.981   0.132
 5865SOL    HW217970   5.054   3.090   0.104
 5866SOL     OW17971   4.070   1.893   0.198
 5866SOL    HW117972   4.091   1.857   0.107
 5866SOL    HW217973   4.121   1.841   0.266
 5867SOL     OW17974   4.701   2.108   0.444
 5867SOL    HW117975   4.661   2.117   0.353
 5867SOL    HW217976   4.797   2.136   0.441
 5868SOL     OW17977   4.770   2.551   1.424
 5868SOL    HW117978   4.696   2.485   1.436
 5868SOL    HW217979   4.858   2.503   1.424
 5869SOL     OW17980   4.908   3.486   0.823
 5869SOL    HW117981   4.943   3.536   0.744
 5869SOL    HW217982   4.947   3.524   0.907
 5870SOL     OW17983   4.206   2.974   0.679
 5870SOL    HW117984   4.142   2.947   0.751
 5870SOL    HW217985   4.161   2.967   0.590
 5871SOL     OW17986   4.971   3.666   0.618
 5871SOL    HW117987   5.014   3.723   0.548
 5871SOL    HW217988   4.899   3.717   0.664
 5872SOL     OW17989   4.679   2.342   0.100
 5872SOL    HW117990   4.674   2.346   6.500
 5872SOL    HW217991   4.774   2.352   0.128
 5873SOL     OW17992   3.888   2.405   1.454
 5873SOL    HW117993   3.961   2.401   1.386
 5873SOL    HW217994   3.894   2.491   1.505
 5874SOL     OW17995   4.323   2.029   1.194
 5874SOL    HW117996   4.354   1.956   1.255
 5874SOL    HW217997   4.225   2.044   1.207
 5875SOL     OW17998   4.615   2.329   0.591
 5875SOL    HW117999   4.576   2.386   0.519
 5875SOL    HW218000   4.645   2.241   0.553
 5876SOL     OW18001   4.743   1.908   0.728
 5876SOL    HW118002   4.680   1.908   0.651
 5876SOL    HW218003   4.715   1.837   0.793
 5877SOL     OW18004   5.148   2.980   0.870
 5877SOL    HW118005   5.088   2.902   0.890
 5877SOL    HW218006   5.150   2.996   0.771
 5878SOL     OW18007   5.177   2.496   0.932
 5878SOL    HW118008   5.109   2.424   0.942
 5878SOL    HW218009   5.244   2.489   1.006
 5879SOL     OW18010   5.541   2.621   0.360
 5879SOL    HW118011   5.596   2.594   0.439
 5879SOL    HW218012   5.545   2.549   0.291
 5880SOL     OW18013   4.219   3.351   0.121
 5880SOL    HW118014   4.158   3.289   0.169
 5880SOL    HW218015   4.230   3.320   0.026
 5881SOL     OW18016   5.489   3.144   0.611
 5881SOL    HW118017   5.585   3.139   0.637
 5881SOL    HW218018   5.450   3.229   0.646
 5882SOL     OW18019   5.105   2.426   0.067
 5882SOL    HW118020   5.032   2.410   0.134
 5882SOL    HW218021   5.160   2.344   0.057
 5883SOL     OW18022   4.317   2.165   0.306
 5883SOL    HW118023   4.408   2.142   0.270
 5883SOL    HW218024   4.275   2.235   0.247
 5884SOL     OW18025   5.461   3.094   1.525
 5884SOL    HW118026   5.552   3.055   1.506
 5884SOL    HW218027   5.472   3.187   1.561
 5885SOL     OW18028   4.756   3.222   1.343
 5885SOL    HW118029   4.670   3.192   1.385
 5885SOL    HW218030   4.832   3.169   1.380
 5886SOL     OW18031   5.356   3.519   1.669
 5886SOL    HW118032   5.330   3.556   1.579
 5886SOL    HW218033   5.428   3.451   1.657
 5887SOL     OW18034   4.874   3.132   1.109
 5887SOL    HW118035   4.812   3.162   1.182
 5887SOL    HW218036   4.838   3.162   1.021
 5888SOL     OW18037   5.322   2.952   1.088
 5888SOL    HW118038   5.314   3.023   1.158
 5888SOL    HW218039   5.252   2.966   1.018
 5889SOL     OW18040   4.670   1.914   1.376
 5889SOL    HW118041   4.689   1.897   1.279
 5889SOL    HW218042   4.747   1.963   1.417
 5890SOL     OW18043   4.697   2.980   1.717
 5890SOL    HW118044   4.603   2.999   1.746
 5890SOL    HW218045   4.700   2.891   1.671
 5891SOL     OW18046   4.465   2.893   0.446
 5891SOL    HW118047   4.454   2.851   0.536
 5891SOL    HW218048   4.550   2.860   0.404
 5892SOL     OW18049   4.181   2.652   1.261
 5892SOL    HW118050   4.251   2.653   1.332
 5892SOL    HW218051   4.137   2.562   1.260
 5893SOL     OW18052   4.984   2.222   1.293
 5893SOL    HW118053   5.006   2.307   1.340
 5893SOL    HW218054   4.894   2.230   1.251
 5894SOL     OW18055   3.816   3.412   1.333
 5894SOL    HW118056   3.776   3.489   1.282
 5894SOL    HW218057   3.916   3.417   1.327
 5895SOL     OW18058   4.062   2.967   0.424
 5895SOL    HW118059   4.082   3.050   0.372
 5895SOL    HW218060   4.068   2.887   0.363
 5896SOL     OW18061   4.325   2.273   0.847
 5896SOL    HW118062   4.323   2.309   0.754
 5896SOL    HW218063   4.378   2.335   0.905
 5897SOL     OW18064   4.975   3.214   0.461
 5897SOL    HW118065   5.030   3.296   0.479
 5897SOL    HW218066   4.879   3.234   0.480
 5898SOL     OW18067   5.059   3.334   1.133
 5898SOL    HW118068   5.101   3.342   1.223
 5898SOL    HW218069   4.995   3.257   1.133
 5899SOL     OW18070   5.310   2.490   0.472
 5899SOL    HW118071   5.254   2.539   0.538
 5899SOL    HW218072   5.375   2.553   0.430
 5900SOL     OW18073   4.094   3.397   1.301
 5900SOL    HW118074   4.082   3.329   1.229
 5900SOL    HW218075   4.191   3.421   1.309
 5901SOL     OW18076   4.245   2.555   1.666
 5901SOL    HW118077   4.276   2.601   1.582
 5901SOL    HW218078   4.313   2.487   1.693
 5902SOL     OW18079   5.338   2.653   1.686
 5902SOL    HW118080   5.244   2.686   1.678
 5902SOL    HW218081   5.393   2.688   1.611
 5903SOL     OW18082   4.733   1.979   1.760
 5903SOL    HW118083   4.790   2.060   1.747
 5903SOL    HW218084   4.786   1.898   1.735
 5904SOL     OW18085   4.242   1.918   1.777
 5904SOL    HW118086   4.185   1.859   1.720
 5904SOL    HW218087   4.193   2.002   1.799
 5905SOL     OW18088   4.347   2.716   1.047
 5905SOL    HW118089   4.382   2.809   1.051
 5905SOL    HW218090   4.282   2.702   1.122
 5906SOL     OW18091   5.017   2.733   0.972
 5906SOL    HW118092   4.924   2.699   0.959
 5906SOL    HW218093   5.082   2.658   0.959
 5907SOL     OW18094   4.912   2.378   0.251
 5907SOL    HW118095   4.939   2.303   0.312
 5907SOL    HW218096   4.880   2.455   0.306
 5908SOL     OW18097   4.051   2.040   1.222
 5908SOL    HW118098   4.024   2.076   1.311
 5908SOL    HW218099   4.029   1.942   1.217
 5909SOL     OW18100   3.768   3.148   1.260
 5909SOL    HW118101   3.809   3.098   1.337
 5909SOL    HW218102   3.773   3.246   1.277
 5910SOL     OW18103   4.451   2.455   1.023
 5910SOL    HW118104   4.528   2.443   0.960
 5910SOL    HW218105   4.414   2.547   1.013
 5911SOL     OW18106   5.469   2.834   1.855
 5911SOL    HW118107   5.422   2.761   1.805
 5911SOL    HW218108   5.414   2.859   1.935
 5912SOL     OW18109   4.070   1.907   0.628
 5912SOL    HW118110   4.047   2.003   0.645
 5912SOL    HW218111   4.083   1.860   0.715
 5913SOL     OW18112   5.357   2.266   0.322
 5913SOL    HW118113   5.403   2.200   0.382
 5913SOL    HW218114   5.327   2.345   0.376
 5914SOL     OW18115   4.759   2.613   0.947
 5914SOL    HW118116   4.731   2.628   1.041
 5914SOL    HW218117   4.732   2.521   0.918
 5915SOL     OW18118   4.721   3.424   1.785
 5915SOL    HW118119   4.687   3.484   1.713
 5915SOL    HW218120   4.759   3.341   1.744
 5916SOL     OW18121   5.561   3.350   1.582
 5916SOL    HW118122   5.580   3.379   1.488
 5916SOL    HW218123   5.643   3.359   1.637
 5917SOL     OW18124   4.116   2.767   1.790
 5917SOL    HW118125   4.175   2.805   1.861
 5917SOL    HW218126   4.162   2.689   1.747
 5918SOL     OW18127   5.177   2.158   0.139
 5918SOL    HW118128   5.156   2.063   0.164
 5918SOL    HW218129   5.241   2.196   0.206
 5919SOL     OW18130   5.009   2.678   0.039
 5919SOL    HW118131   5.041   2.583   0.048
 5919SOL    HW218132   5.059   2.723   6.465
 5920SOL     OW18133   4.795   3.234   0.866
 5920SOL    HW118134   4.816   3.156   0.808
 5920SOL    HW218135   4.846   3.314   0.835
 5921SOL     OW18136   4.095   2.636   0.931
 5921SOL    HW118137   4.192   2.663   0.933
 5921SOL    HW218138   4.087   2.539   0.952
 5922SOL     OW18139   4.102   2.362   0.985
 5922SOL    HW118140   4.039   2.285   0.978
 5922SOL    HW218141   4.184   2.341   0.931
 5923SOL     OW18142   4.864   2.213   1.698
 5923SOL    HW118143   4.813   2.260   1.771
 5923SOL    HW218144   4.948   2.263   1.678
 5924SOL     OW18145   4.889   2.043   1.480
 5924SOL    HW118146   4.871   2.103   1.558
 5924SOL    HW218147   4.933   2.096   1.407
 5925SOL     OW18148   3.776   3.150   0.145
 5925SOL    HW118149   3.682   3.177   0.124
 5925SOL    HW218150   3.776   3.078   0.214
 5926SOL     OW18151   3.804   3.649   0.946
 5926SOL    HW118152   3.766   3.567   0.903
 5926SOL    HW218153   3.903   3.649   0.937
 5927SOL     OW18154   4.223   3.395   0.936
 5927SOL    HW118155   4.297   3.458   0.960
 5927SOL    HW218156   4.258   3.325   0.874
 5928SOL     OW18157   4.653   2.647   1.193
 5928SOL    HW118158   4.704   2.622   1.276
 5928SOL    HW218159   4.566   2.597   1.191
 5929SOL     OW18160   3.825   2.318   1.158
 5929SOL    HW118161   3.919   2.334   1.190
 5929SOL    HW218162   3.797   2.225   1.182
 5930SOL     OW18163   3.999   2.458   1.764
 5930SOL    HW118164   4.095   2.464   1.737
 5930SOL    HW218165   3.944   2.519   1.706
 5931SOL     OW18166   5.101   2.779   1.625
 5931SOL    HW118167   5.126   2.876   1.625
 5931SOL    HW218168   5.089   2.747   1.531
 5932SOL     OW18169   4.570   2.452   0.333
 5932SOL    HW118170   4.600   2.413   0.247
 5932SOL    HW218171   4.486   2.505   0.319
 5933SOL     OW18172   5.366   2.466   1.130
 5933SOL    HW118173   5.338   2.394   1.193
 5933SOL    HW218174   5.465   2.463   1.119
 5934SOL     OW18175   3.990   3.421   1.718
 5934SOL    HW118176   3.966   3.494   1.782
 5934SOL    HW218177   3.994   3.334   1.766
 5935SOL     OW18178   4.472   2.267   1.225
 5935SOL    HW118179   4.414   2.186   1.216
 5935SOL    HW218180   4.451   2.332   1.152
 5936SOL     OW18181   4.604   3.563   1.561
 5936SOL    HW118182   4.565   3.492   1.503
 5936SOL    HW218183   4.636   3.639   1.504
 5937SOL     OW18184   4.225   2.387   0.148
 5937SOL    HW118185   4.273   2.460   0.197
 5937SOL    HW218186   4.131   2.416   0.131
 5938SOL     OW18187   3.883   3.030   1.486
 5938SOL    HW118188   3.887   2.999   1.581
 5938SOL    HW218189   3.929   2.963   1.427
 5939SOL     OW18190   4.995   2.901   1.191
 5939SOL    HW118191   5.007   2.838   1.114
 5939SOL    HW218192   4.951   2.985   1.158
 5940SOL     OW18193   5.031   2.708   0.315
 5940SOL    HW118194   4.954   2.665   0.361
 5940SOL    HW218195   5.021   2.696   0.216
 5941SOL     OW18196   5.474   3.562   1.148
 5941SOL    HW118197   5.545   3.595   1.085
 5941SOL    HW218198   5.448   3.469   1.123
 5942SOL     OW18199   5.006   3.591   1.061
 5942SOL    HW118200   5.091   3.643   1.063
 5942SOL    HW218201   5.023   3.498   1.093
 5943SOL     OW18202   3.863   3.081   1.008
 5943SOL    HW118203   3.830   3.101   1.100
 5943SOL    HW218204   3.791   3.036   0.956
 5944SOL     OW18205   4.422   3.589   1.763
 5944SOL    HW118206   4.353   3.660   1.750
 5944SOL    HW218207   4.494   3.599   1.695
 5945SOL     OW18208   4.690   1.913   0.023
 5945SOL    HW118209   4.695   1.876   6.431
 5945SOL    HW218210   4.751   1.861   0.084
 5946SOL     OW18211   5.497   2.082   0.473
 5946SOL    HW118212   5.557   2.051   0.400
 5946SOL    HW218213   5.447   2.003   0.511
 5947SOL     OW18214   5.127   3.442   0.512
 5947SOL    HW118215   5.184   3.469   0.435
 5947SOL    HW218216   5.070   3.519   0.540
 5948SOL     OW18217   3.894   3.631   1.864
 5948SOL    HW118218   3.850   3.563   1.922
 5948SOL    HW218219   3.944   3.696   1.921
 5949SOL     OW18220   5.009   2.810   0.642
 5949SOL    HW118221   5.081   2.741   0.654
 5949SOL    HW218222   5.049   2.893   0.602
 5950SOL     OW18223   4.511   3.145   1.442
 5950SOL    HW118224   4.489   3.203   1.520
 5950SOL    HW218225   4.436   3.148   1.376
 5951SOL     OW18226   4.477   3.449   0.115
 5951SOL    HW118227   4.453   3.542   0.090
 5951SOL    HW218228   4.394   3.395   0.129
 5952SOL     OW18229   5.331   3.602   1.396
 5952SOL    HW118230   5.384   3.595   1.312
 5952SOL    HW218231   5.317   3.698   1.419
 5953SOL     OW18232   5.557   2.021   0.976
 5953SOL    HW118233   5.593   1.935   0.940
 5953SOL    HW218234   5.471   2.043   0.931
 5954SOL     OW18235   4.024   2.164   0.696
 5954SOL    HW118236   3.942   2.208   0.661
 5954SOL    HW218237   4.017   2.153   0.795
 5955SOL     OW18238   4.972   3.397   0.050
 5955SOL    HW118239   4.963   3.317   0.110
 5955SOL    HW218240   4.934   3.376   6.460
 5956SOL     OW18241   4.544   2.870   1.402
 5956SOL    HW118242   4.585   2.860   1.311
 5956SOL    HW218243   4.533   2.967   1.422
 5957SOL     OW18244   4.686   2.808   0.322
 5957SOL    HW118245   4.727   2.834   0.235
 5957SOL    HW218246   4.733   2.728   0.358
 5958SOL     OW18247   5.239   3.453   0.062
 5958SOL    HW118248   5.139   3.441   0.067
 5958SOL    HW218249   5.268   3.448   6.466
 5959SOL     OW18250   4.112   3.194   1.505
 5959SOL    HW118251   4.108   3.272   1.442
 5959SOL    HW218252   4.031   3.137   1.492
 5960SOL     OW18253   5.321   3.150   1.289
 5960SOL    HW118254   5.378   3.121   1.366
 5960SOL    HW218255   5.260   3.223   1.318
 5961SOL     OW18256   4.821   2.992   0.747
 5961SOL    HW118257   4.745   2.943   0.791
 5961SOL    HW218258   4.882   2.925   0.703
 5962SOL     OW18259   4.771   2.099   0.939
 5962SOL    HW118260   4.764   2.059   0.848
 5962SOL    HW218261   4.773   2.027   1.008
 5963SOL     OW18262   4.296   3.325   0.524
 5963SOL    HW118263   4.346   3.264   0.461
 5963SOL    HW218264   4.198   3.312   0.512
 5964SOL     OW18265   5.503   2.209   1.422
 5964SOL    HW118266   5.566   2.286   1.411
 5964SOL    HW218267   5.528   2.136   1.357
 5965SOL     OW18268   4.033   3.200   0.260
 5965SOL    HW118269   3.943   3.195   0.216
 5965SOL    HW218270   4.022   3.240   0.351
 5966SOL     OW18271   3.903   2.939   1.743
 5966SOL    HW118272   3.817   2.916   1.788
 5966SOL    HW218273   3.973   2.873   1.769
 5967SOL     OW18274   4.443   2.041   1.493
 5967SOL    HW118275   4.526   2.008   1.449
 5967SOL    HW218276   4.464   2.074   1.585
 5968SOL     OW18277   5.106   2.710   1.361
 5968SOL    HW118278   5.049   2.772   1.308
 5968SOL    HW218279   5.199   2.711   1.324
 5969SOL     OW18280   3.825   1.978   0.276
 5969SOL    HW118281   3.788   2.021   0.193
 5969SOL    HW218282   3.919   1.950   0.259
 5970SOL     OW18283   4.918   3.168   0.188
 5970SOL    HW118284   4.820   3.177   0.170
 5970SOL    HW218285   4.933   3.168   0.287
 5971SOL     OW18286   4.381   2.652   1.442
 5971SOL    HW118287   4.434   2.736   1.433
 5971SOL    HW218288   4.443   2.573   1.444
 5972SOL     OW18289   5.252   3.716   1.062
 5972SOL    HW118290   5.282   3.772   0.985
 5972SOL    HW218291   5.330   3.664   1.098
 5973SOL     OW18292   4.457   2.387   1.715
 5973SOL    HW118293   4.516   2.447   1.769
 5973SOL    HW218294   4.478   2.292   1.735
 5974SOL     OW18295   5.189   3.040   1.614
 5974SOL    HW118296   5.178   3.059   1.711
 5974SOL    HW218297   5.282   3.063   1.586
 5975SOL     OW18298   4.085   3.640   1.575
 5975SOL    HW118299   3.995   3.682   1.564
 5975SOL    HW218300   4.074   3.547   1.612
 5976SOL     OW18301   5.353   2.725   1.241
 5976SOL    HW118302   5.364   2.640   1.189
 5976SOL    HW218303   5.347   2.802   1.178
 5977SOL     OW18304   4.963   2.191   0.448
 5977SOL    HW118305   5.025   2.113   0.453
 5977SOL    HW218306   4.980   2.251   0.526
 5978SOL     OW18307   4.331   2.551   0.728
 5978SOL    HW118308   4.378   2.640   0.725
 5978SOL    HW218309   4.271   2.543   0.648
 5979SOL     OW18310   5.454   2.207   1.691
 5979SOL    HW118311   5.470   2.210   1.592
 5979SOL    HW218312   5.376   2.147   1.710
 5980SOL     OW18313   5.466   2.782   1.484
 5980SOL    HW118314   5.453   2.879   1.502
 5980SOL    HW218315   5.431   2.760   1.393
 5981SOL     OW18316   4.672   3.259   0.055
 5981SOL    HW118317   4.614   3.338   0.074
 5981SOL    HW218318   4.727   3.276   6.474
 5982SOL     OW18319   4.408   3.591   0.970
 5982SOL    HW118320   4.373   3.684   0.961
 5982SOL    HW218321   4.499   3.585   0.928
 5983SOL     OW18322   4.625   2.854   0.887
 5983SOL    HW118323   4.669   2.767   0.911
 5983SOL    HW218324   4.577   2.890   0.968
 5984SOL     OW18325   4.804   2.854   0.077
 5984SOL    HW118326   4.834   2.938   0.033
 5984SOL    HW218327   4.875   2.784   0.067
 5985SOL     OW18328   5.538   3.430   0.854
 5985SOL    HW118329   5.468   3.417   0.784
 5985SOL    HW218330   5.518   3.370   0.932
 5986SOL     OW18331   3.972   3.179   1.853
 5986SOL    HW118332   3.949   3.096   1.801
 5986SOL    HW218333   3.912   3.185   1.933
 5987SOL     OW18334   3.874   3.144   0.699
 5987SOL    HW118335   3.869   3.159   0.798
 5987SOL    HW218336   3.898   3.049   0.681
 5988SOL     OW18337   4.432   3.320   1.644
 5988SOL    HW118338   4.356   3.270   1.685
 5988SOL    HW218339   4.440   3.410   1.688
 5989SOL     OW18340   5.564   2.011   1.251
 5989SOL    HW118341   5.635   1.941   1.260
 5989SOL    HW218342   5.547   2.029   1.154
 5990SOL     OW18343   4.229   2.284   0.549
 5990SOL    HW118344   4.261   2.233   0.469
 5990SOL    HW218345   4.161   2.230   0.598
 5991SOL     OW18346   5.421   3.306   1.075
 5991SOL    HW118347   5.345   3.283   1.013
 5991SOL    HW218348   5.420   3.244   1.153
 5992SOL     OW18349   4.086   2.385   1.258
 5992SOL    HW118350   4.149   2.329   1.312
 5992SOL    HW218351   4.109   2.377   1.161
 5993SOL     OW18352   4.521   3.451   0.618
 5993SOL    HW118353   4.532   3.538   0.571
 5993SOL    HW218354   4.435   3.409   0.590
 5994SOL     OW18355   5.156   2.120   1.111
 5994SOL    HW118356   5.180   2.025   1.128
 5994SOL    HW218357   5.100   2.155   1.186
 5995SOL     OW18358   4.767   1.866   1.102
 5995SOL    HW118359   4.707   1.804   1.053
 5995SOL    HW218360   4.860   1.828   1.104
 5996SOL     OW18361   4.475   3.159   0.395
 5996SOL    HW118362   4.470   3.063   0.423
 5996SOL    HW218363   4.565   3.196   0.417
 5997SOL     OW18364   4.366   3.445   1.286
 5997SOL    HW118365   4.353   3.535   1.328
 5997SOL    HW218366   4.451   3.445   1.234
 5998SOL     OW18367   5.091   1.898   0.199
 5998SOL    HW118368   5.150   1.832   0.154
 5998SOL    HW218369   4.996   1.865   0.197
 5999SOL     OW18370   5.007   2.349   0.666
 5999SOL    HW118371   4.957   2.435   0.663
 5999SOL    HW218372   5.010   2.316   0.761
 6000SOL     OW18373   5.309   2.079   0.885
 6000SOL    HW118374   5.252   2.106   0.963
 6000SOL    HW218375   5.309   2.152   0.817
 6001SOL     OW18376   3.795   2.953   0.334
 6001SOL    HW118377   3.881   2.976   0.380
 6001SOL    HW218378   3.783   2.854   0.333
 6002SOL     OW18379   4.663   3.522   0.307
 6002SOL    HW118380   4.596   3.493   0.239
 6002SOL    HW218381   4.621   3.586   0.371
 6003SOL     OW18382   3.945   2.538   2.019
 6003SOL    HW118383   3.847   2.517   2.029
 6003SOL    HW218384   3.972   2.521   1.925
 6004SOL     OW18385   3.937   2.138   2.865
 6004SOL    HW118386   3.985   2.109   2.948
 6004SOL    HW218387   3.849   2.092   2.859
 6005SOL     OW18388   3.727   2.272   2.499
 6005SOL    HW118389   3.647   2.287   2.557
 6005SOL    HW218390   3.707   2.200   2.432
 6006SOL     OW18391   4.220   3.092   2.963
 6006SOL    HW118392   4.134   3.050   2.934
 6006SOL    HW218393   4.205   3.143   3.048
 6007SOL     OW18394   5.324   3.342   2.552
 6007SOL    HW118395   5.264   3.327   2.630
 6007SOL    HW218396   5.270   3.373   2.473
 6008SOL     OW18397   4.850   2.590   2.519
 6008SOL    HW118398   4.903   2.674   2.505
 6008SOL    HW218399   4.799   2.598   2.605
 6009SOL     OW18400   5.532   2.424   2.063
 6009SOL    HW118401   5.487   2.437   1.975
 6009SOL    HW218402   5.480   2.359   2.118
 6010SOL     OW18403   4.465   2.992   2.913
 6010SOL    HW118404   4.369   3.020   2.927
 6010SOL    HW218405   4.523   3.074   2.909
 6011SOL     OW18406   4.634   2.602   3.664
 6011SOL    HW118407   4.664   2.665   3.735
 6011SOL    HW218408   4.628   2.649   3.577
 6012SOL     OW18409   4.403   2.836   2.478
 6012SOL    HW118410   4.470   2.854   2.550
 6012SOL    HW218411   4.339   2.912   2.472
 6013SOL     OW18412   4.358   2.975   3.744
 6013SOL    HW118413   4.450   3.015   3.743
 6013SOL    HW218414   4.290   3.046   3.729
 6014SOL     OW18415   3.960   3.274   2.908
 6014SOL    HW118416   3.965   3.175   2.899
 6014SOL    HW218417   4.048   3.314   2.883
 6015SOL     OW18418   5.191   3.376   3.243
 6015SOL    HW118419   5.248   3.458   3.254
 6015SOL    HW218420   5.115   3.380   3.309
 6016SOL     OW18421   4.207   2.224   3.324
 6016SOL    HW118422   4.287   2.164   3.335
 6016SOL    HW218423   4.125   2.176   3.353
 6017SOL     OW18424   5.302   2.317   2.605
 6017SOL    HW118425   5.243   2.325   2.525
 6017SOL    HW218426   5.274   2.385   2.674
 6018SOL     OW18427   3.951   3.637   2.319
 6018SOL    HW118428   3.985   3.696   2.392
 6018SOL    HW218429   4.025   3.618   2.254
 6019SOL     OW18430   4.941   3.184   3.573
 6019SOL    HW118431   5.026   3.154   3.619
 6019SOL    HW218432   4.877   3.107   3.569
 6020SOL     OW18433   3.978   2.995   2.892
 6020SOL    HW118434   4.004   2.904   2.861
 6020SOL    HW218435   3.879   3.000   2.902
 6021SOL     OW18436   4.219   3.741   3.246
 6021SOL    HW118437   4.174   3.690   3.319
 6021SOL    HW218438   4.294   3.795   3.284
 6022SOL     OW18439   4.294   2.857   2.004
 6022SOL    HW118440   4.344   2.902   1.929
 6022SOL    HW218441   4.339   2.878   2.091
 6023SOL     OW18442   5.307   1.995   3.336
 6023SOL    HW118443   5.362   2.071   3.301
 6023SOL    HW218444   5.260   2.024   3.420
 6024SOL     OW18445   3.842   2.521   2.428
 6024SOL    HW118446   3.809   2.427   2.439
 6024SOL    HW218447   3.858   2.562   2.518
 6025SOL     OW18448   5.596   3.611   2.201
 6025SOL    HW118449   5.674   3.596   2.262
 6025SOL    HW218450   5.600   3.704   2.166
 6026SOL     OW18451   3.798   3.451   2.038
 6026SOL    HW118452   3.763   3.358   2.050
 6026SOL    HW218453   3.754   3.513   2.103
 6027SOL     OW18454   5.419   2.756   2.520
 6027SOL    HW118455   5.511   2.743   2.558
 6027SOL    HW218456   5.424   2.817   2.441
 6028SOL     OW18457   5.406   2.970   2.319
 6028SOL    HW118458   5.486   2.948   2.264
 6028SOL    HW218459   5.433   3.025   2.398
 6029SOL     OW18460   3.918   2.574   3.436
 6029SOL    HW118461   4.009   2.616   3.447
 6029SOL    HW218462   3.848   2.639   3.463
 6030SOL     OW18463   5.031   3.065   3.281
 6030SOL    HW118464   5.042   2.995   3.211
 6030SOL    HW218465   5.100   3.052   3.352
 6031SOL     OW18466   4.562   1.876   2.386
 6031SOL    HW118467   4.610   1.957   2.352
 6031SOL    HW218468   4.464   1.893   2.386
 6032SOL     OW18469   5.284   2.903   2.067
 6032SOL    HW118470   5.210   2.839   2.087
 6032SOL    HW218471   5.326   2.933   2.153
 6033SOL     OW18472   4.894   3.656   3.484
 6033SOL    HW118473   4.901   3.728   3.415
 6033SOL    HW218474   4.927   3.570   3.445
 6034SOL     OW18475   4.085   2.122   3.750
 6034SOL    HW118476   4.117   2.203   3.800
 6034SOL    HW218477   3.987   2.130   3.734
 6035SOL     OW18478   5.157   3.301   2.769
 6035SOL    HW118479   5.114   3.326   2.855
 6035SOL    HW218480   5.144   3.204   2.751
 6036SOL     OW18481   5.360   3.731   2.400
 6036SOL    HW118482   5.356   3.661   2.328
 6036SOL    HW218483   5.370   3.686   2.489
 6037SOL     OW18484   4.312   2.573   2.145
 6037SOL    HW118485   4.316   2.661   2.097
 6037SOL    HW218486   4.242   2.578   2.217
 6038SOL     OW18487   5.006   2.263   2.800
 6038SOL    HW118488   4.917   2.218   2.797
 6038SOL    HW218489   5.066   2.214   2.863
 6039SOL     OW18490   5.332   3.545   2.189
 6039SOL    HW118491   5.431   3.556   2.189
 6039SOL    HW218492   5.300   3.532   2.095
 6040SOL     OW18493   4.490   2.474   3.297
 6040SOL    HW118494   4.467   2.444   3.390
 6040SOL    HW218495   4.475   2.399   3.233
 6041SOL     OW18496   5.098   2.332   3.527
 6041SOL    HW118497   5.105   2.380   3.614
 6041SOL    HW218498   5.145   2.244   3.533
 6042SOL     OW18499   4.650   2.782   3.436
 6042SOL    HW118500   4.703   2.713   3.388
 6042SOL    HW218501   4.589   2.829   3.372
 6043SOL     OW18502   4.728   2.234   3.052
 6043SOL    HW118503   4.634   2.255   3.079
 6043SOL    HW218504   4.727   2.192   2.961
 6044SOL     OW18505   4.770   2.555   2.256
 6044SOL    HW118506   4.797   2.566   2.352
 6044SOL    HW218507   4.683   2.507   2.251
 6045SOL     OW18508   3.852   2.624   2.685
 6045SOL    HW118509   3.921   2.688   2.718
 6045SOL    HW218510   3.863   2.536   2.730
 6046SOL     OW18511   3.822   3.722   3.447
 6046SOL    HW118512   3.819   3.683   3.539
 6046SOL    HW218513   3.730   3.746   3.418
 6047SOL     OW18514   4.574   2.198   2.071
 6047SOL    HW118515   4.633   2.239   2.001
 6047SOL    HW218516   4.517   2.127   2.029
 6048SOL     OW18517   5.387   2.427   3.700
 6048SOL    HW118518   5.372   2.508   3.643
 6048SOL    HW218519   5.411   2.349   3.641
 6049SOL     OW18520   5.142   3.037   2.420
 6049SOL    HW118521   5.228   3.016   2.374
 6049SOL    HW218522   5.089   3.102   2.365
 6050SOL     OW18523   4.295   1.966   2.817
 6050SOL    HW118524   4.306   2.000   2.910
 6050SOL    HW218525   4.308   2.042   2.753
 6051SOL     OW18526   4.737   3.337   2.332
 6051SOL    HW118527   4.714   3.407   2.265
 6051SOL    HW218528   4.701   3.364   2.422
 6052SOL     OW18529   4.110   3.721   2.782
 6052SOL    HW118530   4.194   3.668   2.788
 6052SOL    HW218531   4.130   3.818   2.794
 6053SOL     OW18532   5.533   2.951   2.761
 6053SOL    HW118533   5.506   3.000   2.678
 6053SOL    HW218534   5.455   2.945   2.823
 6054SOL     OW18535   4.959   3.392   3.393
 6054SOL    HW118536   4.973   3.324   3.465
 6054SOL    HW218537   4.898   3.354   3.323
 6055SOL     OW18538   4.038   2.792   2.114
 6055SOL    HW118539   4.123   2.818   2.068
 6055SOL    HW218540   4.011   2.701   2.085
 6056SOL     OW18541   5.187   2.633   2.564
 6056SOL    HW118542   5.183   2.585   2.652
 6056SOL    HW218543   5.275   2.679   2.556
 6057SOL     OW18544   4.198   3.191   3.710
 6057SOL    HW118545   4.245   3.238   3.635
 6057SOL    HW218546   4.100   3.188   3.691
 6058SOL     OW18547   4.898   3.618   2.100
 6058SOL    HW118548   4.804   3.602   2.130
 6058SOL    HW218549   4.923   3.549   2.032
 6059SOL     OW18550   3.957   2.117   3.359
 6059SOL    HW118551   3.896   2.196   3.354
 6059SOL    HW218552   3.907   2.039   3.396
 6060SOL     OW18553   5.354   3.252   1.955
 6060SOL    HW118554   5.324   3.347   1.944
 6060SOL    HW218555   5.282   3.190   1.923
 6061SOL     OW18556   4.195   3.630   2.177
 6061SOL    HW118557   4.240   3.682   2.249
 6061SOL    HW218558   4.265   3.587   2.119
 6062SOL     OW18559   5.121   1.966   2.315
 6062SOL    HW118560   5.121   1.941   2.218
 6062SOL    HW218561   5.210   1.946   2.355
 6063SOL     OW18562   4.666   3.570   2.726
 6063SOL    HW118563   4.755   3.525   2.732
 6063SOL    HW218564   4.615   3.534   2.648
 6064SOL     OW18565   4.114   2.536   2.341
 6064SOL    HW118566   4.132   2.439   2.359
 6064SOL    HW218567   4.015   2.552   2.344
 6065SOL     OW18568   5.195   2.074   3.582
 6065SOL    HW118569   5.210   2.096   3.678
 6065SOL    HW218570   5.123   2.004   3.575
 6066SOL     OW18571   4.405   1.981   1.990
 6066SOL    HW118572   4.466   1.905   2.015
 6066SOL    HW218573   4.338   1.948   1.923
 6067SOL     OW18574   4.478   2.132   3.592
 6067SOL    HW118575   4.565   2.082   3.595
 6067SOL    HW218576   4.419   2.101   3.667
 6068SOL     OW18577   4.599   3.363   3.152
 6068SOL    HW118578   4.578   3.339   3.057
 6068SOL    HW218579   4.689   3.328   3.176
 6069SOL     OW18580   5.003   2.458   3.301
 6069SOL    HW118581   5.044   2.422   3.385
 6069SOL    HW218582   5.046   2.546   3.278
 6070SOL     OW18583   4.564   3.262   2.894
 6070SOL    HW118584   4.646   3.252   2.838
 6070SOL    HW218585   4.495   3.316   2.844
 6071SOL     OW18586   4.654   2.354   2.725
 6071SOL    HW118587   4.630   2.344   2.629
 6071SOL    HW218588   4.694   2.269   2.759
 6072SOL     OW18589   4.292   1.927   2.366
 6072SOL    HW118590   4.215   1.920   2.429
 6072SOL    HW218591   4.281   2.007   2.307
 6073SOL     OW18592   5.156   3.072   1.888
 6073SOL    HW118593   5.202   3.004   1.945
 6073SOL    HW218594   5.074   3.104   1.935
 6074SOL     OW18595   4.015   1.902   2.010
 6074SOL    HW118596   4.064   1.980   1.973
 6074SOL    HW218597   4.078   1.844   2.061
 6075SOL     OW18598   4.693   2.099   2.299
 6075SOL    HW118599   4.653   2.135   2.214
 6075SOL    HW218600   4.790   2.123   2.303
 6076SOL     OW18601   4.750   2.578   3.286
 6076SOL    HW118602   4.670   2.518   3.295
 6076SOL    HW218603   4.833   2.523   3.292
 6077SOL     OW18604   4.927   3.448   2.657
 6077SOL    HW118605   4.944   3.517   2.587
 6077SOL    HW218606   5.014   3.410   2.689
 6078SOL     OW18607   4.978   3.658   2.475
 6078SOL    HW118608   5.027   3.718   2.412
 6078SOL    HW218609   4.904   3.709   2.519
 6079SOL     OW18610   4.747   2.343   1.909
 6079SOL    HW118611   4.708   2.432   1.884
 6079SOL    HW218612   4.818   2.356   1.978
 6080SOL     OW18613   3.865   2.380   3.253
 6080SOL    HW118614   3.952   2.370   3.204
 6080SOL    HW218615   3.875   2.451   3.323
 6081SOL     OW18616   4.310   2.059   3.074
 6081SOL    HW118617   4.355   2.026   3.157
 6081SOL    HW218618   4.211   2.055   3.086
 6082SOL     OW18619   4.598   2.302   2.467
 6082SOL    HW118620   4.559   2.362   2.397
 6082SOL    HW218621   4.634   2.219   2.424
 6083SOL     OW18622   4.752   1.906   2.595
 6083SOL    HW118623   4.686   1.901   2.520
 6083SOL    HW218624   4.732   1.833   2.661
 6084SOL     OW18625   5.128   3.035   2.714
 6084SOL    HW118626   5.043   2.984   2.730
 6084SOL    HW218627   5.151   3.032   2.617
 6085SOL     OW18628   5.170   2.491   2.800
 6085SOL    HW118629   5.105   2.415   2.811
 6085SOL    HW218630   5.237   2.488   2.874
 6086SOL     OW18631   5.528   2.630   2.243
 6086SOL    HW118632   5.595   2.606   2.313
 6086SOL    HW218633   5.530   2.561   2.170
 6087SOL     OW18634   4.249   3.302   2.040
 6087SOL    HW118635   4.174   3.261   2.092
 6087SOL    HW218636   4.259   3.254   1.952
 6088SOL     OW18637   5.486   3.110   2.537
 6088SOL    HW118638   5.585   3.123   2.531
 6088SOL    HW218639   5.442   3.200   2.538
 6089SOL     OW18640   5.108   2.448   1.911
 6089SOL    HW118641   5.059   2.414   1.991
 6089SOL    HW218642   5.207   2.434   1.925
 6090SOL     OW18643   4.254   2.125   2.183
 6090SOL    HW118644   4.309   2.076   2.116
 6090SOL    HW218645   4.220   2.210   2.142
 6091SOL     OW18646   5.473   3.101   3.386
 6091SOL    HW118647   5.563   3.060   3.375
 6091SOL    HW218648   5.483   3.196   3.415
 6092SOL     OW18649   4.804   3.203   3.246
 6092SOL    HW118650   4.730   3.166   3.302
 6092SOL    HW218651   4.888   3.152   3.264
 6093SOL     OW18652   5.336   3.505   3.536
 6093SOL    HW118653   5.317   3.552   3.450
 6093SOL    HW218654   5.414   3.444   3.525
 6094SOL     OW18655   4.892   3.135   2.987
 6094SOL    HW118656   4.835   3.155   3.066
 6094SOL    HW218657   4.845   3.163   2.903
 6095SOL     OW18658   5.315   2.963   2.931
 6095SOL    HW118659   5.313   3.033   3.003
 6095SOL    HW218660   5.241   2.981   2.865
 6096SOL     OW18661   4.657   1.912   3.238
 6096SOL    HW118662   4.678   1.892   3.142
 6096SOL    HW218663   4.733   1.964   3.278
 6097SOL     OW18664   4.742   2.995   3.587
 6097SOL    HW118665   4.666   3.046   3.627
 6097SOL    HW218666   4.708   2.921   3.530
 6098SOL     OW18667   4.473   2.897   2.214
 6098SOL    HW118668   4.453   2.861   2.304
 6098SOL    HW218669   4.537   2.836   2.167
 6099SOL     OW18670   4.166   2.643   3.058
 6099SOL    HW118671   4.213   2.673   3.141
 6099SOL    HW218672   4.135   2.549   3.070
 6100SOL     OW18673   4.976   2.230   3.154
 6100SOL    HW118674   4.993   2.315   3.205
 6100SOL    HW218675   4.885   2.233   3.113
 6101SOL     OW18676   4.130   2.974   2.324
 6101SOL    HW118677   4.107   3.063   2.285
 6101SOL    HW218678   4.093   2.901   2.266
 6102SOL     OW18679   4.191   2.456   2.765
 6102SOL    HW118680   4.202   2.514   2.685
 6102SOL    HW218681   4.280   2.439   2.807
 6103SOL     OW18682   4.989   3.234   2.280
 6103SOL    HW118683   5.052   3.307   2.304
 6103SOL    HW218684   4.896   3.260   2.305
 6104SOL     OW18685   5.052   3.356   3.011
 6104SOL    HW118686   5.106   3.362   3.096
 6104SOL    HW218687   4.999   3.271   3.012
 6105SOL     OW18688   5.297   2.494   2.344
 6105SOL    HW118689   5.241   2.540   2.413
 6105SOL    HW218690   5.369   2.556   2.312
 6106SOL     OW18691   4.166   2.686   3.495
 6106SOL    HW118692   4.220   2.698   3.412
 6106SOL    HW218693   4.220   2.639   3.564
 6107SOL     OW18694   5.343   2.652   3.554
 6107SOL    HW118695   5.247   2.681   3.551
 6107SOL    HW218696   5.391   2.691   3.476
 6108SOL     OW18697   4.705   1.986   3.608
 6108SOL    HW118698   4.767   2.065   3.602
 6108SOL    HW218699   4.756   1.903   3.584
 6109SOL     OW18700   4.217   1.910   3.637
 6109SOL    HW118701   4.158   1.850   3.585
 6109SOL    HW218702   4.167   1.993   3.663
 6110SOL     OW18703   4.406   2.712   2.938
 6110SOL    HW118704   4.417   2.810   2.924
 6110SOL    HW218705   4.314   2.693   2.972
 6111SOL     OW18706   4.992   2.713   2.852
 6111SOL    HW118707   4.902   2.683   2.820
 6111SOL    HW218708   5.059   2.642   2.832
 6112SOL     OW18709   4.928   2.380   2.114
 6112SOL    HW118710   4.948   2.303   2.175
 6112SOL    HW218711   4.879   2.451   2.165
 6113SOL     OW18712   4.041   2.046   3.104
 6113SOL    HW118713   4.012   2.080   3.193
 6113SOL    HW218714   4.011   1.951   3.094
 6114SOL     OW18715   4.440   2.444   2.874
 6114SOL    HW118716   4.518   2.417   2.817
 6114SOL    HW218717   4.442   2.543   2.887
 6115SOL     OW18718   5.482   2.832   3.718
 6115SOL    HW118719   5.433   2.759   3.669
 6115SOL    HW218720   5.429   2.859   3.799
 6116SOL     OW18721   4.062   1.913   2.517
 6116SOL    HW118722   4.021   2.002   2.536
 6116SOL    HW218723   4.069   1.861   2.602
 6117SOL     OW18724   5.344   2.269   2.196
 6117SOL    HW118725   5.393   2.204   2.254
 6117SOL    HW218726   5.313   2.347   2.250
 6118SOL     OW18727   4.731   2.614   2.775
 6118SOL    HW118728   4.714   2.635   2.871
 6118SOL    HW218729   4.708   2.518   2.757
 6119SOL     OW18730   4.743   3.363   3.642
 6119SOL    HW118731   4.727   3.443   3.583
 6119SOL    HW218732   4.813   3.305   3.601
 6120SOL     OW18733   5.560   3.362   3.442
 6120SOL    HW118734   5.582   3.393   3.350
 6120SOL    HW218735   5.641   3.368   3.500
 6121SOL     OW18736   3.989   2.864   3.625
 6121SOL    HW118737   3.990   2.834   3.720
 6121SOL    HW218738   4.061   2.818   3.574
 6122SOL     OW18739   5.233   2.134   1.980
 6122SOL    HW118740   5.190   2.051   2.017
 6122SOL    HW218741   5.271   2.188   2.055
 6123SOL     OW18742   4.997   2.693   1.864
 6123SOL    HW118743   5.031   2.600   1.877
 6123SOL    HW218744   5.027   2.728   1.775
 6124SOL     OW18745   4.787   3.226   2.748
 6124SOL    HW118746   4.805   3.142   2.697
 6124SOL    HW218747   4.836   3.302   2.704
 6125SOL     OW18748   4.071   2.749   2.807
 6125SOL    HW118749   4.131   2.717   2.734
 6125SOL    HW218750   4.098   2.705   2.893
 6126SOL     OW18751   3.935   2.405   2.825
 6126SOL    HW118752   3.927   2.306   2.838
 6126SOL    HW218753   4.029   2.428   2.802
 6127SOL     OW18754   4.853   2.214   3.562
 6127SOL    HW118755   4.802   2.264   3.633
 6127SOL    HW218756   4.939   2.260   3.543
 6128SOL     OW18757   4.876   2.048   3.339
 6128SOL    HW118758   4.859   2.108   3.418
 6128SOL    HW218759   4.921   2.100   3.267
 6129SOL     OW18760   3.798   3.150   2.064
 6129SOL    HW118761   3.705   3.182   2.049
 6129SOL    HW218762   3.798   3.051   2.079
 6130SOL     OW18763   3.843   3.655   2.819
 6130SOL    HW118764   3.845   3.559   2.790
 6130SOL    HW218765   3.936   3.692   2.818
 6131SOL     OW18766   4.669   2.659   3.032
 6131SOL    HW118767   4.704   2.635   3.122
 6131SOL    HW218768   4.569   2.664   3.035
 6132SOL     OW18769   3.763   2.486   3.020
 6132SOL    HW118770   3.825   2.464   2.945
 6132SOL    HW218771   3.802   2.454   3.106
 6133SOL     OW18772   3.967   2.381   3.622
 6133SOL    HW118773   4.054   2.339   3.596
 6133SOL    HW218774   3.940   2.447   3.553
 6134SOL     OW18775   5.103   2.777   3.501
 6134SOL    HW118776   5.139   2.870   3.499
 6134SOL    HW218777   5.089   2.744   3.407
 6135SOL     OW18778   4.532   2.425   2.226
 6135SOL    HW118779   4.537   2.344   2.168
 6135SOL    HW218780   4.454   2.481   2.197
 6136SOL     OW18781   5.361   2.474   2.998
 6136SOL    HW118782   5.335   2.401   3.061
 6136SOL    HW218783   5.460   2.471   2.982
 6137SOL     OW18784   3.974   3.394   3.578
 6137SOL    HW118785   3.919   3.462   3.625
 6137SOL    HW218786   3.949   3.303   3.610
 6138SOL     OW18787   4.460   2.289   3.095
 6138SOL    HW118788   4.403   2.207   3.087
 6138SOL    HW218789   4.446   2.348   3.015
 6139SOL     OW18790   4.567   3.564   3.348
 6139SOL    HW118791   4.571   3.495   3.276
 6139SOL    HW218792   4.599   3.652   3.312
 6140SOL     OW18793   4.171   2.354   2.051
 6140SOL    HW118794   4.241   2.422   2.073
 6140SOL    HW218795   4.081   2.397   2.052
 6141SOL     OW18796   5.004   2.894   3.058
 6141SOL    HW118797   5.001   2.826   2.984
 6141SOL    HW218798   4.965   2.980   3.026
 6142SOL     OW18799   5.074   2.742   2.126
 6142SOL    HW118800   5.017   2.695   2.193
 6142SOL    HW218801   5.040   2.723   2.034
 6143SOL     OW18802   5.487   3.589   3.027
 6143SOL    HW118803   5.552   3.620   2.958
 6143SOL    HW218804   5.443   3.505   2.995
 6144SOL     OW18805   4.976   3.623   2.994
 6144SOL    HW118806   5.060   3.677   2.998
 6144SOL    HW218807   4.998   3.526   2.997
 6145SOL     OW18808   3.715   3.053   2.909
 6145SOL    HW118809   3.673   3.141   2.930
 6145SOL    HW218810   3.644   2.988   2.882
 6146SOL     OW18811   4.429   3.570   3.586
 6146SOL    HW118812   4.366   3.648   3.590
 6146SOL    HW218813   4.483   3.574   3.502
 6147SOL     OW18814   5.503   2.090   2.329
 6147SOL    HW118815   5.559   2.066   2.250
 6147SOL    HW218816   5.455   2.008   2.362
 6148SOL     OW18817   5.145   3.447   2.365
 6148SOL    HW118818   5.206   3.483   2.294
 6148SOL    HW218819   5.081   3.519   2.393
 6149SOL     OW18820   3.816   3.599   3.695
 6149SOL    HW118821   3.786   3.520   3.749
 6149SOL    HW218822   3.871   3.660   3.752
 6150SOL     OW18823   5.002   2.817   2.500
 6150SOL    HW118824   5.071   2.750   2.524
 6150SOL    HW218825   5.046   2.896   2.457
 6151SOL     OW18826   4.537   3.172   3.341
 6151SOL    HW118827   4.489   3.205   3.422
 6151SOL    HW218828   4.543   3.245   3.273
 6152SOL     OW18829   4.407   3.525   2.026
 6152SOL    HW118830   4.423   3.544   1.929
 6152SOL    HW218831   4.360   3.438   2.036
 6153SOL     OW18832   5.335   3.607   3.266
 6153SOL    HW118833   5.392   3.603   3.184
 6153SOL    HW218834   5.319   3.702   3.290
 6154SOL     OW18835   5.565   2.010   2.831
 6154SOL    HW118836   5.593   1.920   2.797
 6154SOL    HW218837   5.477   2.034   2.791
 6155SOL     OW18838   3.963   2.156   2.586
 6155SOL    HW118839   3.880   2.202   2.555
 6155SOL    HW218840   3.965   2.155   2.686
 6156SOL     OW18841   4.973   3.433   1.912
 6156SOL    HW118842   4.962   3.340   1.948
 6156SOL    HW218843   4.895   3.455   1.854
 6157SOL     OW18844   4.502   2.917   3.241
 6157SOL    HW118845   4.527   2.920   3.144
 6157SOL    HW218846   4.512   3.008   3.281
 6158SOL     OW18847   4.651   2.735   2.078
 6158SOL    HW118848   4.715   2.800   2.036
 6158SOL    HW218849   4.701   2.675   2.141
 6159SOL     OW18850   5.238   3.517   1.921
 6159SOL    HW118851   5.143   3.488   1.909
 6159SOL    HW218852   5.281   3.526   1.831
 6160SOL     OW18853   5.331   3.162   3.135
 6160SOL    HW118854   5.398   3.129   3.202
 6160SOL    HW218855   5.271   3.229   3.178
 6161SOL     OW18856   4.827   2.981   2.638
 6161SOL    HW118857   4.738   2.937   2.651
 6161SOL    HW218858   4.886   2.922   2.583
 6162SOL     OW18859   4.769   2.099   2.804
 6162SOL    HW118860   4.767   2.057   2.714
 6162SOL    HW218861   4.770   2.028   2.875
 6163SOL     OW18862   4.384   3.368   2.316
 6163SOL    HW118863   4.437   3.295   2.274
 6163SOL    HW218864   4.300   3.383   2.263
 6164SOL     OW18865   5.497   2.202   3.281
 6164SOL    HW118866   5.559   2.279   3.271
 6164SOL    HW218867   5.522   2.130   3.216
 6165SOL     OW18868   4.032   3.218   2.201
 6165SOL    HW118869   3.950   3.191   2.152
 6165SOL    HW218870   4.016   3.305   2.249
 6166SOL     OW18871   3.751   2.776   3.515
 6166SOL    HW118872   3.675   2.795   3.577
 6166SOL    HW218873   3.835   2.814   3.553
 6167SOL     OW18874   4.423   2.028   3.339
 6167SOL    HW118875   4.508   1.989   3.302
 6167SOL    HW218876   4.441   2.068   3.428
 6168SOL     OW18877   3.868   2.229   1.850
 6168SOL    HW118878   3.778   2.223   1.807
 6168SOL    HW218879   3.913   2.314   1.823
 6169SOL     OW18880   5.107   2.706   3.235
 6169SOL    HW118881   5.048   2.764   3.179
 6169SOL    HW218882   5.200   2.708   3.197
 6170SOL     OW18883   3.789   2.027   2.093
 6170SOL    HW118884   3.776   2.103   2.029
 6170SOL    HW218885   3.876   1.981   2.073
 6171SOL     OW18886   4.934   3.177   2.011
 6171SOL    HW118887   4.858   3.113   2.002
 6171SOL    HW218888   4.956   3.191   2.108
 6172SOL     OW18889   4.332   2.700   3.275
 6172SOL    HW118890   4.390   2.781   3.266
 6172SOL    HW218891   4.389   2.618   3.282
 6173SOL     OW18892   4.446   2.411   3.558
 6173SOL    HW118893   4.508   2.466   3.615
 6173SOL    HW218894   4.461   2.314   3.577
 6174SOL     OW18895   5.222   3.026   3.484
 6174SOL    HW118896   5.210   3.048   3.581
 6174SOL    HW218897   5.312   3.056   3.453
 6175SOL     OW18898   4.081   3.624   3.457
 6175SOL    HW118899   3.990   3.664   3.444
 6175SOL    HW218900   4.071   3.530   3.491
 6176SOL     OW18901   5.347   2.737   3.099
 6176SOL    HW118902   5.357   2.650   3.051
 6176SOL    HW218903   5.337   2.811   3.032
 6177SOL     OW18904   4.955   2.186   2.312
 6177SOL    HW118905   5.017   2.108   2.313
 6177SOL    HW218906   4.973   2.244   2.391
 6178SOL     OW18907   4.217   2.650   2.571
 6178SOL    HW118908   4.293   2.708   2.543
 6178SOL    HW218909   4.175   2.608   2.490
 6179SOL     OW18910   5.452   2.203   3.551
 6179SOL    HW118911   5.467   2.204   3.452
 6179SOL    HW218912   5.375   2.143   3.572
 6180SOL     OW18913   5.456   2.787   3.347
 6180SOL    HW118914   5.451   2.885   3.364
 6180SOL    HW218915   5.423   2.768   3.254
 6181SOL     OW18916   4.603   3.211   1.940
 6181SOL    HW118917   4.581   3.217   2.037
 6181SOL    HW218918   4.637   3.299   1.908
 6182SOL     OW18919   4.382   3.675   2.773
 6182SOL    HW118920   4.372   3.773   2.758
 6182SOL    HW218921   4.478   3.650   2.763
 6183SOL     OW18922   4.585   2.855   2.695
 6183SOL    HW118923   4.624   2.767   2.721
 6183SOL    HW218924   4.545   2.898   2.776
 6184SOL     OW18925   4.826   2.896   1.942
 6184SOL    HW118926   4.780   2.933   1.861
 6184SOL    HW218927   4.891   2.826   1.914
 6185SOL     OW18928   5.531   3.431   2.712
 6185SOL    HW118929   5.470   3.407   2.636
 6185SOL    HW218930   5.498   3.388   2.796
 6186SOL     OW18931   3.923   3.134   3.670
 6186SOL    HW118932   3.949   3.040   3.648
 6186SOL    HW218933   3.859   3.133   3.747
 6187SOL     OW18934   4.414   3.291   3.558
 6187SOL    HW118935   4.467   3.251   3.632
 6187SOL    HW218936   4.415   3.390   3.566
 6188SOL     OW18937   5.563   2.009   3.108
 6188SOL    HW118938   5.634   1.939   3.119
 6188SOL    HW218939   5.546   2.023   3.010
 6189SOL     OW18940   4.136   2.274   2.398
 6189SOL    HW118941   4.176   2.206   2.335
 6189SOL    HW218942   4.081   2.226   2.467
 6190SOL     OW18943   5.387   3.347   2.933
 6190SOL    HW118944   5.309   3.333   2.873
 6190SOL    HW218945   5.387   3.277   3.005
 6191SOL     OW18946   4.106   2.375   3.120
 6191SOL    HW118947   4.157   2.331   3.194
 6191SOL    HW218948   4.123   2.325   3.034
 6192SOL     OW18949   4.545   3.500   2.494
 6192SOL    HW118950   4.555   3.591   2.453
 6192SOL    HW218951   4.482   3.445   2.438
 6193SOL     OW18952   5.159   2.124   2.981
 6193SOL    HW118953   5.182   2.029   3.000
 6193SOL    HW218954   5.099   2.159   3.053
 6194SOL     OW18955   4.759   1.871   2.969
 6194SOL    HW118956   4.716   1.806   2.906
 6194SOL    HW218957   4.852   1.840   2.990
 6195SOL     OW18958   4.539   3.171   2.207
 6195SOL    HW118959   4.517   3.074   2.210
 6195SOL    HW218960   4.621   3.189   2.261
 6196SOL     OW18961   5.122   1.891   2.050
 6196SOL    HW118962   5.175   1.821   2.001
 6196SOL    HW218963   5.030   1.857   2.067
 6197SOL     OW18964   5.000   2.345   2.530
 6197SOL    HW118965   4.951   2.432   2.523
 6197SOL    HW218966   5.004   2.317   2.626
 6198SOL     OW18967   5.314   2.081   2.755
 6198SOL    HW118968   5.259   2.108   2.834
 6198SOL    HW218969   5.312   2.153   2.686
 6199SOL     OW18970   3.782   2.889   2.152
 6199SOL    HW118971   3.875   2.858   2.132
 6199SOL    HW218972   3.732   2.816   2.198
 6200SOL     OW18973   4.639   3.555   2.183
 6200SOL    HW118974   4.560   3.535   2.125
 6200SOL    HW218975   4.616   3.627   2.248
 6201SOL     OW18976   3.921   2.498   3.866
 6201SOL    HW118977   3.829   2.478   3.900
 6201SOL    HW218978   3.931   2.462   3.773
 6202SOL     OW18979   3.918   2.153   4.727
 6202SOL    HW118980   3.968   2.123   4.808
 6202SOL    HW218981   3.830   2.104   4.722
 6203SOL     OW18982   3.702   2.289   4.365
 6203SOL    HW118983   3.615   2.303   4.411
 6203SOL    HW218984   3.692   2.217   4.296
 6204SOL     OW18985   4.325   3.182   4.922
 6204SOL    HW118986   4.233   3.171   4.885
 6204SOL    HW218987   4.338   3.277   4.952
 6205SOL     OW18988   5.330   3.343   4.420
 6205SOL    HW118989   5.280   3.302   4.497
 6205SOL    HW218990   5.265   3.379   4.353
 6206SOL     OW18991   4.849   2.566   4.392
 6206SOL    HW118992   4.898   2.649   4.364
 6206SOL    HW218993   4.810   2.580   4.483
 6207SOL     OW18994   5.530   2.420   3.927
 6207SOL    HW118995   5.486   2.431   3.838
 6207SOL    HW218996   5.477   2.355   3.983
 6208SOL     OW18997   4.423   2.964   4.759
 6208SOL    HW118998   4.408   3.031   4.833
 6208SOL    HW218999   4.384   3.000   4.674
 6209SOL     OW19000   4.631   2.568   5.530
 6209SOL    HW119001   4.653   2.632   5.604
 6209SOL    HW219002   4.635   2.616   5.442
 6210SOL     OW19003   4.406   2.858   4.401
 6210SOL    HW119004   4.488   2.832   4.453
 6210SOL    HW219005   4.362   2.937   4.445
 6211SOL     OW19006   4.413   3.019   5.573
 6211SOL    HW119007   4.474   3.088   5.611
 6211SOL    HW219008   4.337   3.064   5.525
 6212SOL     OW19009   4.081   3.237   4.793
 6212SOL    HW119010   4.011   3.181   4.749
 6212SOL    HW219011   4.123   3.297   4.725
 6213SOL     OW19012   5.169   3.350   5.097
 6213SOL    HW119013   5.230   3.428   5.110
 6213SOL    HW219014   5.087   3.362   5.154
 6214SOL     OW19015   4.227   2.208   5.164
 6214SOL    HW119016   4.306   2.150   5.184
 6214SOL    HW219017   4.145   2.170   5.206
 6215SOL     OW19018   5.299   2.313   4.464
 6215SOL    HW119019   5.228   2.316   4.393
 6215SOL    HW219020   5.280   2.383   4.533
 6216SOL     OW19021   4.814   3.193   5.424
 6216SOL    HW119022   4.865   3.182   5.509
 6216SOL    HW219023   4.758   3.112   5.408
 6217SOL     OW19024   4.057   2.953   4.594
 6217SOL    HW119025   4.062   2.854   4.611
 6217SOL    HW219026   3.979   2.991   4.644
 6218SOL     OW19027   4.267   3.671   5.146
 6218SOL    HW119028   4.192   3.649   5.208
 6218SOL    HW219029   4.312   3.755   5.177
 6219SOL     OW19030   4.259   2.824   3.948
 6219SOL    HW119031   4.292   2.866   3.864
 6219SOL    HW219032   4.313   2.857   4.026
 6220SOL     OW19033   5.309   1.983   5.203
 6220SOL    HW119034   5.364   2.061   5.171
 6220SOL    HW219035   5.257   2.010   5.284
 6221SOL     OW19036   3.820   2.541   4.316
 6221SOL    HW119037   3.787   2.447   4.331
 6221SOL    HW219038   3.822   2.590   4.403
 6222SOL     OW19039   5.586   3.620   4.058
 6222SOL    HW119040   5.663   3.605   4.120
 6222SOL    HW219041   5.589   3.713   4.022
 6223SOL     OW19042   3.732   3.386   3.835
 6223SOL    HW119043   3.726   3.288   3.856
 6223SOL    HW219044   3.710   3.438   3.917
 6224SOL     OW19045   5.414   2.755   4.386
 6224SOL    HW119046   5.506   2.745   4.426
 6224SOL    HW219047   5.417   2.825   4.314
 6225SOL     OW19048   5.408   2.970   4.194
 6225SOL    HW119049   5.487   2.948   4.137
 6225SOL    HW219050   5.436   3.029   4.270
 6226SOL     OW19051   3.833   2.632   5.292
 6226SOL    HW119052   3.902   2.699   5.317
 6226SOL    HW219053   3.749   2.680   5.263
 6227SOL     OW19054   4.965   3.060   5.146
 6227SOL    HW119055   4.988   2.992   5.076
 6227SOL    HW219056   5.038   3.063   5.214
 6228SOL     OW19057   4.563   1.890   4.231
 6228SOL    HW119058   4.608   1.974   4.200
 6228SOL    HW219059   4.465   1.907   4.240
 6229SOL     OW19060   3.913   2.782   5.015
 6229SOL    HW119061   4.007   2.747   5.005
 6229SOL    HW219062   3.850   2.722   4.966
 6230SOL     OW19063   5.294   2.912   3.929
 6230SOL    HW119064   5.212   2.859   3.949
 6230SOL    HW219065   5.337   2.941   4.014
 6231SOL     OW19066   4.955   3.690   5.294
 6231SOL    HW119067   4.979   3.723   5.203
 6231SOL    HW219068   4.961   3.590   5.295
 6232SOL     OW19069   4.102   2.142   5.595
 6232SOL    HW119070   4.141   2.223   5.638
 6232SOL    HW219071   4.007   2.160   5.569
 6233SOL     OW19072   5.210   3.225   4.636
 6233SOL    HW119073   5.151   3.263   4.707
 6233SOL    HW219074   5.181   3.131   4.615
 6234SOL     OW19075   5.343   3.732   4.268
 6234SOL    HW119076   5.343   3.660   4.199
 6234SOL    HW219077   5.350   3.691   4.359
 6235SOL     OW19078   4.280   2.557   4.026
 6235SOL    HW119079   4.284   2.649   3.988
 6235SOL    HW219080   4.211   2.554   4.098
 6236SOL     OW19081   5.007   2.258   4.659
 6236SOL    HW119082   4.918   2.212   4.656
 6236SOL    HW219083   5.068   2.209   4.722
 6237SOL     OW19084   5.322   3.548   4.055
 6237SOL    HW119085   5.421   3.563   4.052
 6237SOL    HW219086   5.289   3.532   3.962
 6238SOL     OW19087   4.516   2.418   5.171
 6238SOL    HW119088   4.485   2.389   5.262
 6238SOL    HW219089   4.491   2.349   5.104
 6239SOL     OW19090   5.106   2.323   5.378
 6239SOL    HW119091   5.110   2.371   5.465
 6239SOL    HW219092   5.145   2.231   5.389
 6240SOL     OW19093   4.660   2.727   5.300
 6240SOL    HW119094   4.716   2.662   5.249
 6240SOL    HW219095   4.603   2.779   5.237
 6241SOL     OW19096   4.735   2.224   4.907
 6241SOL    HW119097   4.640   2.234   4.937
 6241SOL    HW219098   4.736   2.179   4.818
 6242SOL     OW19099   4.753   2.543   4.133
 6242SOL    HW119100   4.781   2.543   4.229
 6242SOL    HW219101   4.664   2.499   4.124
 6243SOL     OW19102   3.800   2.708   4.538
 6243SOL    HW119103   3.894   2.695   4.571
 6243SOL    HW219104   3.753   2.773   4.598
 6244SOL     OW19105   3.826   3.757   5.341
 6244SOL    HW119106   3.839   3.718   5.432
 6244SOL    HW219107   3.729   3.753   5.316
 6245SOL     OW19108   4.565   2.210   3.925
 6245SOL    HW119109   4.623   2.255   3.857
 6245SOL    HW219110   4.510   2.140   3.881
 6246SOL     OW19111   5.385   2.433   5.559
 6246SOL    HW119112   5.368   2.512   5.500
 6246SOL    HW219113   5.407   2.353   5.503
 6247SOL     OW19114   5.140   3.015   4.303
 6247SOL    HW119115   5.229   3.005   4.258
 6247SOL    HW219116   5.090   3.090   4.260
 6248SOL     OW19117   4.286   1.963   4.656
 6248SOL    HW119118   4.294   1.991   4.752
 6248SOL    HW219119   4.299   2.042   4.597
 6249SOL     OW19120   4.724   3.311   4.188
 6249SOL    HW119121   4.700   3.395   4.138
 6249SOL    HW219122   4.727   3.331   4.286
 6250SOL     OW19123   4.080   3.632   4.647
 6250SOL    HW119124   4.137   3.550   4.644
 6250SOL    HW219125   4.138   3.713   4.657
 6251SOL     OW19126   5.543   2.958   4.629
 6251SOL    HW119127   5.513   3.011   4.549
 6251SOL    HW219128   5.466   2.947   4.692
 6252SOL     OW19129   4.934   3.395   5.244
 6252SOL    HW119130   4.908   3.312   5.294
 6252SOL    HW219131   4.853   3.432   5.198
 6253SOL     OW19132   3.991   2.765   3.882
 6253SOL    HW119133   4.083   2.786   3.916
 6253SOL    HW219134   3.977   2.666   3.884
 6254SOL     OW19135   5.189   2.619   4.421
 6254SOL    HW119136   5.182   2.575   4.510
 6254SOL    HW219137   5.274   2.671   4.415
 6255SOL     OW19138   4.185   3.149   5.464
 6255SOL    HW119139   4.162   3.150   5.366
 6255SOL    HW219140   4.101   3.145   5.518
 6256SOL     OW19141   4.895   3.615   3.959
 6256SOL    HW119142   4.807   3.601   4.003
 6256SOL    HW219143   4.922   3.532   3.910
 6257SOL     OW19144   3.969   2.126   5.224
 6257SOL    HW119145   3.926   2.206   5.266
 6257SOL    HW219146   3.920   2.043   5.252
 6258SOL     OW19147   5.357   3.252   3.820
 6258SOL    HW119148   5.328   3.347   3.814
 6258SOL    HW219149   5.282   3.193   3.791
 6259SOL     OW19150   4.177   3.645   3.982
 6259SOL    HW119151   4.212   3.683   4.068
 6259SOL    HW219152   4.250   3.594   3.936
 6260SOL     OW19153   5.122   1.966   4.171
 6260SOL    HW119154   5.122   1.938   4.075
 6260SOL    HW219155   5.211   1.947   4.211
 6261SOL     OW19156   3.973   3.634   4.913
 6261SOL    HW119157   4.013   3.557   4.964
 6261SOL    HW219158   4.004   3.630   4.818
 6262SOL     OW19159   4.718   3.589   4.688
 6262SOL    HW119160   4.816   3.566   4.691
 6262SOL    HW219161   4.665   3.504   4.679
 6263SOL     OW19162   4.087   2.537   4.222
 6263SOL    HW119163   4.105   2.439   4.231
 6263SOL    HW219164   3.991   2.556   4.242
 6264SOL     OW19165   5.181   2.057   5.438
 6264SOL    HW119166   5.199   2.078   5.535
 6264SOL    HW219167   5.112   1.986   5.431
 6265SOL     OW19168   4.398   1.991   3.833
 6265SOL    HW119169   4.469   1.923   3.850
 6265SOL    HW219170   4.329   1.953   3.772
 6266SOL     OW19171   4.507   2.108   5.484
 6266SOL    HW119172   4.595   2.060   5.480
 6266SOL    HW219173   4.453   2.074   5.561
 6267SOL     OW19174   4.593   3.384   4.932
 6267SOL    HW119175   4.585   3.372   4.833
 6267SOL    HW219176   4.648   3.310   4.970
 6268SOL     OW19177   5.020   2.448   5.150
 6268SOL    HW119178   5.060   2.412   5.234
 6268SOL    HW219179   5.057   2.539   5.132
 6269SOL     OW19180   4.580   3.351   4.649
 6269SOL    HW119181   4.650   3.281   4.631
 6269SOL    HW219182   4.550   3.390   4.562
 6270SOL     OW19183   4.663   2.354   4.596
 6270SOL    HW119184   4.636   2.348   4.500
 6270SOL    HW219185   4.697   2.265   4.628
 6271SOL     OW19186   4.291   1.936   4.232
 6271SOL    HW119187   4.212   1.932   4.293
 6271SOL    HW219188   4.278   2.011   4.166
 6272SOL     OW19189   5.155   3.074   3.752
 6272SOL    HW119190   5.212   3.008   3.800
 6272SOL    HW219191   5.078   3.099   3.810
 6273SOL     OW19192   4.017   1.900   3.900
 6273SOL    HW119193   4.065   1.976   3.857
 6273SOL    HW219194   4.083   1.841   3.948
 6274SOL     OW19195   4.692   2.117   4.154
 6274SOL    HW119196   4.652   2.152   4.069
 6274SOL    HW219197   4.790   2.136   4.155
 6275SOL     OW19198   4.758   2.542   5.125
 6275SOL    HW119199   4.684   2.478   5.144
 6275SOL    HW219200   4.846   2.494   5.133
 6276SOL     OW19201   4.877   3.416   4.445
 6276SOL    HW119202   4.897   3.487   4.377
 6276SOL    HW219203   4.919   3.441   4.533
 6277SOL     OW19204   4.291   3.068   4.537
 6277SOL    HW119205   4.202   3.028   4.559
 6277SOL    HW219206   4.278   3.153   4.486
 6278SOL     OW19207   4.948   3.648   4.308
 6278SOL    HW119208   4.995   3.713   4.248
 6278SOL    HW219209   4.886   3.697   4.369
 6279SOL     OW19210   4.735   2.359   3.764
 6279SOL    HW119211   4.705   2.448   3.730
 6279SOL    HW219212   4.805   2.372   3.834
 6280SOL     OW19213   3.832   2.411   5.125
 6280SOL    HW119214   3.927   2.397   5.095
 6280SOL    HW219215   3.829   2.488   5.189
 6281SOL     OW19216   4.299   2.027   4.919
 6281SOL    HW119217   4.320   1.950   4.980
 6281SOL    HW219218   4.206   2.058   4.935
 6282SOL     OW19219   4.596   2.305   4.338
 6282SOL    HW119220   4.547   2.362   4.271
 6282SOL    HW219221   4.636   2.226   4.291
 6283SOL     OW19222   4.744   1.904   4.445
 6283SOL    HW119223   4.683   1.904   4.367
 6283SOL    HW219224   4.715   1.835   4.511
 6284SOL     OW19225   5.141   2.962   4.589
 6284SOL    HW119226   5.085   2.883   4.615
 6284SOL    HW219227   5.139   2.974   4.490
 6285SOL     OW19228   5.172   2.488   4.663
 6285SOL    HW119229   5.106   2.413   4.672
 6285SOL    HW219230   5.239   2.482   4.736
 6286SOL     OW19231   5.523   2.631   4.101
 6286SOL    HW119232   5.589   2.610   4.173
 6286SOL    HW219233   5.527   2.560   4.030
 6287SOL     OW19234   4.342   3.314   3.917
 6287SOL    HW119235   4.406   3.251   3.960
 6287SOL    HW219236   4.282   3.264   3.854
 6288SOL     OW19237   5.495   3.116   4.405
 6288SOL    HW119238   5.594   3.128   4.398
 6288SOL    HW219239   5.450   3.205   4.406
 6289SOL     OW19240   5.108   2.438   3.778
 6289SOL    HW119241   5.055   2.407   3.857
 6289SOL    HW219242   5.205   2.420   3.793
 6290SOL     OW19243   4.246   2.121   4.038
 6290SOL    HW119244   4.304   2.076   3.969
 6290SOL    HW219245   4.207   2.204   3.998
 6291SOL     OW19246   5.467   3.088   5.251
 6291SOL    HW119247   5.557   3.045   5.242
 6291SOL    HW219248   5.477   3.181   5.286
 6292SOL     OW19249   4.734   3.182   5.054
 6292SOL    HW119250   4.652   3.156   5.104
 6292SOL    HW219251   4.815   3.146   5.101
 6293SOL     OW19252   5.348   3.483   5.404
 6293SOL    HW119253   5.327   3.519   5.314
 6293SOL    HW219254   5.429   3.424   5.398
 6294SOL     OW19255   4.872   3.110   4.829
 6294SOL    HW119256   4.807   3.137   4.900
 6294SOL    HW219257   4.836   3.136   4.740
 6295SOL     OW19258   5.326   2.943   4.803
 6295SOL    HW119259   5.317   3.014   4.873
 6295SOL    HW219260   5.254   2.954   4.735
 6296SOL     OW19261   4.664   1.902   5.102
 6296SOL    HW119262   4.680   1.883   5.005
 6296SOL    HW219263   4.742   1.952   5.140
 6297SOL     OW19264   4.663   2.957   5.450
 6297SOL    HW119265   4.569   2.972   5.481
 6297SOL    HW219266   4.667   2.875   5.393
 6298SOL     OW19267   4.443   2.918   4.135
 6298SOL    HW119268   4.430   2.896   4.232
 6298SOL    HW219269   4.522   2.868   4.100
 6299SOL     OW19270   4.157   2.649   4.992
 6299SOL    HW119271   4.225   2.662   5.064
 6299SOL    HW219272   4.123   2.555   4.995
 6300SOL     OW19273   4.982   2.219   5.011
 6300SOL    HW119274   5.002   2.304   5.059
 6300SOL    HW219275   4.891   2.224   4.971
 6301SOL     OW19276   3.787   3.402   5.064
 6301SOL    HW119277   3.744   3.469   5.003
 6301SOL    HW219278   3.886   3.413   5.060
 6302SOL     OW19279   4.227   2.411   4.593
 6302SOL    HW119280   4.240   2.478   4.520
 6302SOL    HW219281   4.309   2.406   4.649
 6303SOL     OW19282   4.996   3.223   4.178
 6303SOL    HW119283   5.052   3.302   4.203
 6303SOL    HW219284   4.900   3.245   4.191
 6304SOL     OW19285   5.062   3.306   4.848
 6304SOL    HW119286   5.098   3.327   4.939
 6304SOL    HW219287   4.997   3.230   4.855
 6305SOL     OW19288   5.292   2.495   4.192
 6305SOL    HW119289   5.241   2.534   4.269
 6305SOL    HW219290   5.364   2.558   4.164
 6306SOL     OW19291   4.065   3.388   5.019
 6306SOL    HW119292   4.059   3.326   4.941
 6306SOL    HW219293   4.160   3.414   5.034
 6307SOL     OW19294   4.217   2.535   5.392
 6307SOL    HW119295   4.251   2.583   5.311
 6307SOL    HW219296   4.285   2.468   5.422
 6308SOL     OW19297   5.332   2.657   5.413
 6308SOL    HW119298   5.236   2.686   5.410
 6308SOL    HW219299   5.382   2.699   5.338
 6309SOL     OW19300   4.740   1.972   5.477
 6309SOL    HW119301   4.792   2.056   5.462
 6309SOL    HW219302   4.799   1.893   5.461
 6310SOL     OW19303   4.225   1.917   5.490
 6310SOL    HW119304   4.169   1.865   5.426
 6310SOL    HW219305   4.180   2.004   5.512
 6311SOL     OW19306   4.385   2.695   4.830
 6311SOL    HW119307   4.393   2.790   4.801
 6311SOL    HW219308   4.297   2.681   4.876
 6312SOL     OW19309   5.015   2.724   4.692
 6312SOL    HW119310   4.922   2.690   4.678
 6312SOL    HW219311   5.080   2.648   4.684
 6313SOL     OW19312   4.915   2.384   3.975
 6313SOL    HW119313   4.940   2.307   4.033
 6313SOL    HW219314   4.864   2.452   4.028
 6314SOL     OW19315   4.031   2.064   4.959
 6314SOL    HW119316   4.009   2.099   5.050
 6314SOL    HW219317   4.005   1.967   4.953
 6315SOL     OW19318   3.805   3.143   4.973
 6315SOL    HW119319   3.825   3.083   5.050
 6315SOL    HW219320   3.787   3.235   5.006
 6316SOL     OW19321   4.445   2.433   4.752
 6316SOL    HW119322   4.527   2.419   4.698
 6316SOL    HW219323   4.435   2.530   4.772
 6317SOL     OW19324   5.464   2.818   5.597
 6317SOL    HW119325   5.418   2.753   5.536
 6317SOL    HW219326   5.401   2.846   5.669
 6318SOL     OW19327   4.054   1.929   4.376
 6318SOL    HW119328   4.009   2.015   4.398
 6318SOL    HW219329   4.060   1.873   4.459
 6319SOL     OW19330   5.341   2.264   4.057
 6319SOL    HW119331   5.390   2.202   4.118
 6319SOL    HW219332   5.310   2.344   4.109
 6320SOL     OW19333   4.762   2.601   4.664
 6320SOL    HW119334   4.735   2.625   4.757
 6320SOL    HW219335   4.734   2.507   4.644
 6321SOL     OW19336   4.695   3.440   5.432
 6321SOL    HW119337   4.692   3.476   5.339
 6321SOL    HW219338   4.725   3.345   5.431
 6322SOL     OW19339   5.573   3.338   5.319
 6322SOL    HW119340   5.597   3.371   5.228
 6322SOL    HW219341   5.652   3.345   5.380
 6323SOL     OW19342   4.098   2.751   5.526
 6323SOL    HW119343   4.158   2.785   5.598
 6323SOL    HW219344   4.141   2.673   5.480
 6324SOL     OW19345   5.234   2.128   3.841
 6324SOL    HW119346   5.190   2.046   3.876
 6324SOL    HW219347   5.271   2.181   3.917
 6325SOL     OW19348   5.000   2.683   3.738
 6325SOL    HW119349   5.037   2.591   3.749
 6325SOL    HW219350   5.031   2.720   3.650
 6326SOL     OW19351   4.790   3.191   4.579
 6326SOL    HW119352   4.799   3.105   4.530
 6326SOL    HW219353   4.830   3.265   4.525
 6327SOL     OW19354   4.055   2.678   4.628
 6327SOL    HW119355   4.127   2.661   4.561
 6327SOL    HW219356   4.049   2.601   4.692
 6328SOL     OW19357   4.004   2.408   4.738
 6328SOL    HW119358   3.959   2.319   4.731
 6328SOL    HW219359   4.087   2.408   4.681
 6329SOL     OW19360   4.859   2.209   5.412
 6329SOL    HW119361   4.811   2.254   5.488
 6329SOL    HW219362   4.944   2.257   5.393
 6330SOL     OW19363   4.884   2.038   5.195
 6330SOL    HW119364   4.865   2.098   5.273
 6330SOL    HW219365   4.929   2.090   5.123
 6331SOL     OW19366   3.752   3.111   3.901
 6331SOL    HW119367   3.800   3.129   3.987
 6331SOL    HW219368   3.727   3.015   3.896
 6332SOL     OW19369   3.801   3.586   4.646
 6332SOL    HW119370   3.787   3.487   4.640
 6332SOL    HW219371   3.899   3.606   4.638
 6333SOL     OW19372   4.268   3.413   4.661
 6333SOL    HW119373   4.323   3.496   4.657
 6333SOL    HW219374   4.327   3.335   4.679
 6334SOL     OW19375   4.657   2.669   4.902
 6334SOL    HW119376   4.693   2.626   4.985
 6334SOL    HW219377   4.557   2.664   4.904
 6335SOL     OW19378   3.780   2.513   4.873
 6335SOL    HW119379   3.857   2.486   4.815
 6335SOL    HW219380   3.792   2.475   4.965
 6336SOL     OW19381   3.957   2.450   5.460
 6336SOL    HW119382   4.053   2.466   5.438
 6336SOL    HW219383   3.899   2.510   5.404
 6337SOL     OW19384   5.092   2.780   5.357
 6337SOL    HW119385   5.117   2.877   5.355
 6337SOL    HW219386   5.084   2.745   5.264
 6338SOL     OW19387   4.509   2.421   4.098
 6338SOL    HW119388   4.520   2.344   4.036
 6338SOL    HW219389   4.428   2.474   4.073
 6339SOL     OW19390   5.362   2.461   4.858
 6339SOL    HW119391   5.334   2.389   4.922
 6339SOL    HW219392   5.461   2.456   4.845
 6340SOL     OW19393   3.939   3.394   5.439
 6340SOL    HW119394   3.920   3.468   5.504
 6340SOL    HW219395   3.945   3.307   5.488
 6341SOL     OW19396   4.466   2.250   4.956
 6341SOL    HW119397   4.405   2.172   4.949
 6341SOL    HW219398   4.446   2.315   4.882
 6342SOL     OW19399   4.681   3.515   5.167
 6342SOL    HW119400   4.649   3.466   5.086
 6342SOL    HW219401   4.664   3.613   5.156
 6343SOL     OW19402   4.149   2.344   3.907
 6343SOL    HW119403   4.218   2.409   3.939
 6343SOL    HW219404   4.060   2.388   3.905
 6344SOL     OW19405   3.863   2.984   5.193
 6344SOL    HW119406   3.872   2.952   5.287
 6344SOL    HW219407   3.882   2.908   5.130
 6345SOL     OW19408   4.997   2.885   4.917
 6345SOL    HW119409   5.009   2.823   4.840
 6345SOL    HW219410   4.952   2.969   4.885
 6346SOL     OW19411   5.063   2.785   3.988
 6346SOL    HW119412   5.015   2.741   4.064
 6346SOL    HW219413   5.034   2.742   3.902
 6347SOL     OW19414   5.507   3.526   4.906
 6347SOL    HW119415   5.544   3.587   4.836
 6347SOL    HW219416   5.471   3.444   4.862
 6348SOL     OW19417   4.977   3.506   4.684
 6348SOL    HW119418   5.042   3.582   4.685
 6348SOL    HW219419   5.007   3.436   4.748
 6349SOL     OW19420   3.844   3.067   4.719
 6349SOL    HW119421   3.833   3.087   4.816
 6349SOL    HW219422   3.769   3.009   4.688
 6350SOL     OW19423   4.448   3.524   5.513
 6350SOL    HW119424   4.412   3.604   5.466
 6350SOL    HW219425   4.543   3.509   5.486
 6351SOL     OW19426   5.503   2.089   4.193
 6351SOL    HW119427   5.560   2.065   4.114
 6351SOL    HW219428   5.456   2.008   4.226
 6352SOL     OW19429   5.143   3.450   4.240
 6352SOL    HW119430   5.203   3.483   4.167
 6352SOL    HW219431   5.078   3.521   4.264
 6353SOL     OW19432   3.872   3.629   5.577
 6353SOL    HW119433   3.825   3.559   5.629
 6353SOL    HW219434   3.928   3.685   5.640
 6354SOL     OW19435   4.998   2.785   4.329
 6354SOL    HW119436   5.068   2.721   4.360
 6354SOL    HW219437   5.041   2.873   4.305
 6355SOL     OW19438   4.482   3.125   5.149
 6355SOL    HW119439   4.458   3.180   5.228
 6355SOL    HW219440   4.416   3.142   5.075
 6356SOL     OW19441   4.443   3.556   3.865
 6356SOL    HW119442   4.453   3.562   3.766
 6356SOL    HW219443   4.407   3.466   3.890
 6357SOL     OW19444   5.347   3.561   5.131
 6357SOL    HW119445   5.404   3.547   5.051
 6357SOL    HW219446   5.325   3.658   5.140
 6358SOL     OW19447   5.564   2.010   4.692
 6358SOL    HW119448   5.594   1.921   4.660
 6358SOL    HW219449   5.477   2.034   4.649
 6359SOL     OW19450   3.942   2.168   4.449
 6359SOL    HW119451   3.858   2.214   4.419
 6359SOL    HW219452   3.945   2.167   4.549
 6360SOL     OW19453   4.966   3.394   3.812
 6360SOL    HW119454   4.966   3.303   3.855
 6360SOL    HW219455   4.886   3.402   3.752
 6361SOL     OW19456   4.523   2.858   5.107
 6361SOL    HW119457   4.576   2.851   5.022
 6361SOL    HW219458   4.506   2.954   5.128
 6362SOL     OW19459   4.657   2.787   4.040
 6362SOL    HW119460   4.697   2.803   3.949
 6362SOL    HW219461   4.696   2.703   4.078
 6363SOL     OW19462   5.225   3.507   3.791
 6363SOL    HW119463   5.132   3.469   3.788
 6363SOL    HW219464   5.261   3.513   3.698
 6364SOL     OW19465   4.085   3.165   5.211
 6364SOL    HW119466   4.072   3.247   5.155
 6364SOL    HW219467   4.008   3.103   5.197
 6365SOL     OW19468   5.330   3.139   5.009
 6365SOL    HW119469   5.388   3.115   5.087
 6365SOL    HW219470   5.264   3.208   5.037
 6366SOL     OW19471   4.808   2.955   4.452
 6366SOL    HW119472   4.732   2.903   4.493
 6366SOL    HW219473   4.868   2.892   4.403
 6367SOL     OW19474   4.771   2.091   4.662
 6367SOL    HW119475   4.766   2.052   4.570
 6367SOL    HW219476   4.773   2.017   4.729
 6368SOL     OW19477   5.496   2.192   5.150
 6368SOL    HW119478   5.558   2.270   5.142
 6368SOL    HW219479   5.519   2.123   5.083
 6369SOL     OW19480   3.873   2.893   5.452
 6369SOL    HW119481   3.789   2.866   5.500
 6369SOL    HW219482   3.950   2.840   5.489
 6370SOL     OW19483   4.440   2.031   5.225
 6370SOL    HW119484   4.523   1.998   5.180
 6370SOL    HW219485   4.462   2.061   5.318
 6371SOL     OW19486   3.813   2.173   3.719
 6371SOL    HW119487   3.734   2.153   3.661
 6371SOL    HW219488   3.854   2.260   3.692
 6372SOL     OW19489   5.109   2.704   5.093
 6372SOL    HW119490   5.051   2.765   5.038
 6372SOL    HW219491   5.202   2.705   5.057
 6373SOL     OW19492   3.783   2.022   3.962
 6373SOL    HW119493   3.768   2.081   3.882
 6373SOL    HW219494   3.873   1.979   3.955
 6374SOL     OW19495   4.952   3.137   3.922
 6374SOL    HW119496   4.890   3.059   3.924
 6374SOL    HW219497   4.976   3.164   4.015
 6375SOL     OW19498   4.358   2.647   5.175
 6375SOL    HW119499   4.411   2.729   5.157
 6375SOL    HW219500   4.418   2.567   5.171
 6376SOL     OW19501   5.151   3.711   4.713
 6376SOL    HW119502   5.206   3.786   4.676
 6376SOL    HW219503   5.123   3.732   4.806
 6377SOL     OW19504   4.446   2.376   5.437
 6377SOL    HW119505   4.509   2.437   5.483
 6377SOL    HW219506   4.469   2.281   5.459
 6378SOL     OW19507   5.182   3.040   5.339
 6378SOL    HW119508   5.167   3.061   5.435
 6378SOL    HW219509   5.274   3.067   5.313
 6379SOL     OW19510   4.069   3.620   5.326
 6379SOL    HW119511   3.987   3.675   5.316
 6379SOL    HW219512   4.043   3.527   5.354
 6380SOL     OW19513   5.354   2.722   4.966
 6380SOL    HW119514   5.364   2.635   4.918
 6380SOL    HW219515   5.349   2.796   4.900
 6381SOL     OW19516   4.959   2.187   4.166
 6381SOL    HW119517   5.019   2.107   4.164
 6381SOL    HW219518   4.978   2.242   4.247
 6382SOL     OW19519   4.239   2.635   4.430
 6382SOL    HW119520   4.303   2.709   4.410
 6382SOL    HW219521   4.193   2.607   4.345
 6383SOL     OW19522   5.445   2.203   5.420
 6383SOL    HW119523   5.461   2.200   5.321
 6383SOL    HW219524   5.372   2.138   5.443
 6384SOL     OW19525   5.448   2.795   5.214
 6384SOL    HW119526   5.438   2.894   5.226
 6384SOL    HW219527   5.420   2.770   5.121
 6385SOL     OW19528   4.581   3.165   3.746
 6385SOL    HW119529   4.573   3.160   3.846
 6385SOL    HW219530   4.642   3.240   3.722
 6386SOL     OW19531   4.421   3.642   4.643
 6386SOL    HW119532   4.367   3.726   4.643
 6386SOL    HW219533   4.508   3.658   4.691
 6387SOL     OW19534   4.607   2.821   4.585
 6387SOL    HW119535   4.657   2.741   4.619
 6387SOL    HW219536   4.562   2.867   4.662
 6388SOL     OW19537   4.772   2.814   3.794
 6388SOL    HW119538   4.764   2.886   3.725
 6388SOL    HW219539   4.856   2.762   3.779
 6389SOL     OW19540   5.539   3.429   4.579
 6389SOL    HW119541   5.472   3.413   4.508
 6389SOL    HW219542   5.519   3.370   4.658
 6390SOL     OW19543   3.930   3.141   5.566
 6390SOL    HW119544   3.909   3.057   5.517
 6390SOL    HW219545   3.865   3.152   5.642
 6391SOL     OW19546   4.404   3.282   5.362
 6391SOL    HW119547   4.321   3.241   5.400
 6391SOL    HW219548   4.421   3.370   5.407
 6392SOL     OW19549   5.559   2.006   4.969
 6392SOL    HW119550   5.629   1.935   4.980
 6392SOL    HW219551   5.545   2.023   4.872
 6393SOL     OW19552   4.116   2.273   4.252
 6393SOL    HW119553   4.159   2.203   4.196
 6393SOL    HW219554   4.063   2.229   4.326
 6394SOL     OW19555   5.427   3.289   4.791
 6394SOL    HW119556   5.352   3.268   4.729
 6394SOL    HW219557   5.419   3.232   4.873
 6395SOL     OW19558   4.081   2.388   5.017
 6395SOL    HW119559   4.144   2.326   5.064
 6395SOL    HW219560   4.078   2.363   4.920
 6396SOL     OW19561   4.508   3.501   4.426
 6396SOL    HW119562   4.529   3.559   4.347
 6396SOL    HW219563   4.465   3.556   4.498
 6397SOL     OW19564   5.162   2.117   4.835
 6397SOL    HW119565   5.186   2.021   4.853
 6397SOL    HW219566   5.103   2.151   4.909
 6398SOL     OW19567   4.764   1.859   4.820
 6398SOL    HW119568   4.706   1.799   4.767
 6398SOL    HW219569   4.857   1.822   4.824
 6399SOL     OW19570   4.544   3.155   4.022
 6399SOL    HW119571   4.510   3.071   4.064
 6399SOL    HW219572   4.609   3.199   4.084
 6400SOL     OW19573   4.336   3.447   5.009
 6400SOL    HW119574   4.319   3.532   5.058
 6400SOL    HW219575   4.433   3.439   4.987
 6401SOL     OW19576   5.119   1.886   3.908
 6401SOL    HW119577   5.170   1.815   3.860
 6401SOL    HW219578   5.025   1.855   3.924
 6402SOL     OW19579   5.008   2.334   4.391
 6402SOL    HW119580   4.954   2.418   4.384
 6402SOL    HW219581   5.009   2.303   4.486
 6403SOL     OW19582   5.315   2.075   4.609
 6403SOL    HW119583   5.260   2.102   4.688
 6403SOL    HW219584   5.313   2.148   4.540
 6404SOL     OW19585   3.724   2.832   3.922
 6404SOL    HW119586   3.821   2.811   3.904
 6404SOL    HW219587   3.691   2.775   3.996
 6405SOL     OW19588   4.643   3.548   4.064
 6405SOL    HW119589   4.577   3.549   3.988
 6405SOL    HW219590   4.616   3.615   4.133
 6406SOL     OW19591   3.937   2.504   5.735
 6406SOL    HW119592   3.848   2.470   5.764
 6406SOL    HW219593   3.943   2.500   5.635
 6407SOL     OW19594   4.015   2.127   0.053
 6407SOL    HW119595   4.048   2.061   0.120
 6407SOL    HW219596   3.915   2.128   0.052
 6408SOL     OW19597   3.740   2.289   6.216
 6408SOL    HW119598   3.659   2.311   6.270
 6408SOL    HW219599   3.717   2.223   6.145
 6409SOL     OW19600   5.292   3.374   6.298
 6409SOL    HW119601   5.305   3.276   6.316
 6409SOL    HW219602   5.233   3.386   6.219
 6410SOL     OW19603   4.832   2.520   6.249
 6410SOL    HW119604   4.837   2.605   6.302
 6410SOL    HW219605   4.754   2.466   6.281
 6411SOL     OW19606   5.521   2.435   5.791
 6411SOL    HW119607   5.478   2.446   5.701
 6411SOL    HW219608   5.478   2.360   5.840
 6412SOL     OW19609   4.473   3.084   0.127
 6412SOL    HW119610   4.457   3.110   0.223
 6412SOL    HW219611   4.546   3.142   0.089
 6413SOL     OW19612   4.377   2.855   6.248
 6413SOL    HW119613   4.450   2.864   6.315
 6413SOL    HW219614   4.298   2.911   6.276
 6414SOL     OW19615   5.290   2.380   6.250
 6414SOL    HW119616   5.202   2.340   6.274
 6414SOL    HW219617   5.282   2.428   6.163
 6415SOL     OW19618   3.955   3.630   6.035
 6415SOL    HW119619   3.977   3.705   6.097
 6415SOL    HW219620   4.033   3.613   5.974
 6416SOL     OW19621   3.881   3.384   6.125
 6416SOL    HW119622   3.909   3.476   6.099
 6416SOL    HW219623   3.808   3.389   6.193
 6417SOL     OW19624   3.944   2.959   0.001
 6417SOL    HW119625   3.985   2.903   0.073
 6417SOL    HW219626   3.889   3.031   0.042
 6418SOL     OW19627   4.285   2.853   5.759
 6418SOL    HW119628   4.330   2.901   5.684
 6418SOL    HW219629   4.330   2.876   5.846
 6419SOL     OW19630   3.843   2.549   6.169
 6419SOL    HW119631   3.816   2.454   6.185
 6419SOL    HW219632   3.851   2.597   6.257
 6420SOL     OW19633   5.581   3.628   5.900
 6420SOL    HW119634   5.662   3.618   5.958
 6420SOL    HW219635   5.581   3.719   5.858
 6421SOL     OW19636   3.775   3.424   5.719
 6421SOL    HW119637   3.751   3.328   5.736
 6421SOL    HW219638   3.745   3.480   5.796
 6422SOL     OW19639   5.387   2.768   6.183
 6422SOL    HW119640   5.437   2.712   6.117
 6422SOL    HW219641   5.363   2.856   6.141
 6423SOL     OW19642   5.376   2.998   6.018
 6423SOL    HW119643   5.456   2.964   5.969
 6423SOL    HW219644   5.405   3.066   6.085
 6424SOL     OW19645   4.259   3.261   6.360
 6424SOL    HW119646   4.228   3.166   6.354
 6424SOL    HW219647   4.278   3.296   6.269
 6425SOL     OW19648   4.558   1.936   6.093
 6425SOL    HW119649   4.599   2.027   6.091
 6425SOL    HW219650   4.459   1.944   6.103
 6426SOL     OW19651   5.249   2.881   5.792
 6426SOL    HW119652   5.186   2.810   5.823
 6426SOL    HW219653   5.284   2.931   5.871
 6427SOL     OW19654   5.349   3.726   6.112
 6427SOL    HW119655   5.342   3.656   6.041
 6427SOL    HW219656   5.376   3.685   6.198
 6428SOL     OW19657   4.310   2.583   5.861
 6428SOL    HW119658   4.309   2.674   5.819
 6428SOL    HW219659   4.241   2.581   5.934
 6429SOL     OW19660   4.945   2.162   6.482
 6429SOL    HW119661   4.883   2.088   0.007
 6429SOL    HW219662   5.025   2.161   0.043
 6430SOL     OW19663   5.321   3.538   5.907
 6430SOL    HW119664   5.419   3.559   5.900
 6430SOL    HW219665   5.284   3.520   5.815
 6431SOL     OW19666   4.815   2.575   5.980
 6431SOL    HW119667   4.824   2.557   6.078
 6431SOL    HW219668   4.725   2.544   5.949
 6432SOL     OW19669   3.858   2.683   6.413
 6432SOL    HW119670   3.904   2.771   6.421
 6432SOL    HW219671   3.766   2.691   6.453
 6433SOL     OW19672   4.577   2.212   5.810
 6433SOL    HW119673   4.639   2.241   5.737
 6433SOL    HW219674   4.522   2.135   5.778
 6434SOL     OW19675   5.096   3.002   6.071
 6434SOL    HW119676   5.194   3.014   6.054
 6434SOL    HW219677   5.045   3.076   6.027
 6435SOL     OW19678   4.274   2.114   6.441
 6435SOL    HW119679   4.185   2.132   6.484
 6435SOL    HW219680   4.315   2.201   6.413
 6436SOL     OW19681   4.720   3.314   6.060
 6436SOL    HW119682   4.694   3.396   6.009
 6436SOL    HW219683   4.695   3.326   6.156
 6437SOL     OW19684   4.082   3.710   6.447
 6437SOL    HW119685   4.131   3.624   6.459
 6437SOL    HW219686   4.141   3.787   6.472
 6438SOL     OW19687   5.529   2.780   6.416
 6438SOL    HW119688   5.466   2.771   6.339
 6438SOL    HW219689   5.480   2.815   6.495
 6439SOL     OW19690   4.022   2.804   5.852
 6439SOL    HW119691   4.112   2.827   5.816
 6439SOL    HW219692   4.001   2.708   5.833
 6440SOL     OW19693   5.170   2.652   6.304
 6440SOL    HW119694   5.190   2.556   6.325
 6440SOL    HW219695   5.250   2.693   6.260
 6441SOL     OW19696   4.867   3.622   5.797
 6441SOL    HW119697   4.785   3.595   5.849
 6441SOL    HW219698   4.890   3.551   5.731
 6442SOL     OW19699   5.339   3.236   5.692
 6442SOL    HW119700   5.309   3.330   5.678
 6442SOL    HW219701   5.269   3.173   5.658
 6443SOL     OW19702   4.200   3.633   5.900
 6443SOL    HW119703   4.246   3.694   5.964
 6443SOL    HW219704   4.268   3.574   5.855
 6444SOL     OW19705   5.090   1.950   6.048
 6444SOL    HW119706   5.102   1.924   5.952
 6444SOL    HW219707   5.172   1.925   6.099
 6445SOL     OW19708   4.105   2.554   6.052
 6445SOL    HW119709   4.116   2.454   6.057
 6445SOL    HW219710   4.012   2.578   6.082
 6446SOL     OW19711   4.392   1.980   5.707
 6446SOL    HW119712   4.442   1.900   5.741
 6446SOL    HW219713   4.326   1.950   5.638
 6447SOL     OW19714   4.284   1.960   6.098
 6447SOL    HW119715   4.216   1.963   6.171
 6447SOL    HW219716   4.267   2.035   6.034
 6448SOL     OW19717   5.135   3.065   5.613
 6448SOL    HW119718   5.170   2.991   5.671
 6448SOL    HW219719   5.044   3.090   5.644
 6449SOL     OW19720   4.016   1.927   5.745
 6449SOL    HW119721   4.063   2.004   5.701
 6449SOL    HW219722   4.081   1.877   5.802
 6450SOL     OW19723   4.673   2.188   6.073
 6450SOL    HW119724   4.633   2.205   5.983
 6450SOL    HW219725   4.772   2.186   6.066
 6451SOL     OW19726   4.154   3.007   6.314
 6451SOL    HW119727   4.086   2.989   6.385
 6451SOL    HW219728   4.111   3.000   6.224
 6452SOL     OW19729   4.951   3.590   6.157
 6452SOL    HW119730   4.983   3.675   6.114
 6452SOL    HW219731   4.863   3.606   6.202
 6453SOL     OW19732   4.750   2.336   5.628
 6453SOL    HW119733   4.711   2.423   5.598
 6453SOL    HW219734   4.819   2.353   5.698
 6454SOL     OW19735   4.631   2.344   6.319
 6454SOL    HW119736   4.534   2.354   6.344
 6454SOL    HW219737   4.638   2.285   6.239
 6455SOL     OW19738   4.681   1.780   6.280
 6455SOL    HW119739   4.644   1.842   6.210
 6455SOL    HW219740   4.619   1.702   6.291
 6456SOL     OW19741   5.522   2.623   5.989
 6456SOL    HW119742   5.593   2.595   6.054
 6456SOL    HW219743   5.525   2.564   5.908
 6457SOL     OW19744   4.197   3.284   5.789
 6457SOL    HW119745   4.115   3.264   5.842
 6457SOL    HW219746   4.200   3.226   5.708
 6458SOL     OW19747   5.493   3.149   6.209
 6458SOL    HW119748   5.563   3.084   6.239
 6458SOL    HW219749   5.520   3.241   6.237
 6459SOL     OW19750   5.108   2.435   5.626
 6459SOL    HW119751   5.059   2.401   5.707
 6459SOL    HW219752   5.206   2.425   5.639
 6460SOL     OW19753   4.246   2.134   5.888
 6460SOL    HW119754   4.299   2.077   5.826
 6460SOL    HW219755   4.220   2.219   5.842
 6461SOL     OW19756   4.435   2.911   5.984
 6461SOL    HW119757   4.411   2.886   6.078
 6461SOL    HW219758   4.524   2.873   5.960
 6462SOL     OW19759   4.022   2.984   6.071
 6462SOL    HW119760   4.010   3.071   6.022
 6462SOL    HW219761   4.029   2.909   6.005
 6463SOL     OW19762   4.367   2.373   6.404
 6463SOL    HW119763   4.340   2.449   6.346
 6463SOL    HW219764   4.324   2.383   6.494
 6464SOL     OW19765   4.962   3.223   5.961
 6464SOL    HW119766   5.031   3.288   5.993
 6464SOL    HW219767   4.873   3.248   5.998
 6465SOL     OW19768   5.264   2.504   6.006
 6465SOL    HW119769   5.188   2.556   5.967
 6465SOL    HW219770   5.349   2.556   5.996
 6466SOL     OW19771   4.935   2.372   5.834
 6466SOL    HW119772   4.946   2.295   5.898
 6466SOL    HW219773   4.899   2.451   5.883
 6467SOL     OW19774   4.027   1.901   6.261
 6467SOL    HW119775   4.015   1.999   6.273
 6467SOL    HW219776   4.080   1.864   6.337
 6468SOL     OW19777   5.353   2.251   5.911
 6468SOL    HW119778   5.387   2.187   5.980
 6468SOL    HW219779   5.304   2.326   5.956
 6469SOL     OW19780   5.238   2.114   5.696
 6469SOL    HW119781   5.191   2.035   5.736
 6469SOL    HW219782   5.280   2.168   5.769
 6470SOL     OW19783   5.000   2.683   5.597
 6470SOL    HW119784   5.033   2.589   5.600
 6470SOL    HW219785   5.026   2.725   5.510
 6471SOL     OW19786   4.849   3.283   6.332
 6471SOL    HW119787   4.835   3.184   6.330
 6471SOL    HW219788   4.898   3.311   6.249
 6472SOL     OW19789   3.739   3.146   5.770
 6472SOL    HW119790   3.648   3.174   5.742
 6472SOL    HW219791   3.736   3.052   5.805
 6473SOL     OW19792   3.791   3.688   6.453
 6473SOL    HW119793   3.777   3.596   6.490
 6473SOL    HW219794   3.888   3.700   6.430
 6474SOL     OW19795   4.574   2.483   5.888
 6474SOL    HW119796   4.566   2.386   5.865
 6474SOL    HW219797   4.484   2.526   5.884
 6475SOL     OW19798   4.176   2.363   5.752
 6475SOL    HW119799   4.245   2.430   5.778
 6475SOL    HW219800   4.085   2.405   5.756
 6476SOL     OW19801   5.066   2.679   5.869
 6476SOL    HW119802   4.985   2.666   5.925
 6476SOL    HW219803   5.040   2.683   5.772
 6477SOL     OW19804   5.481   2.066   6.073
 6477SOL    HW119805   5.539   2.036   5.998
 6477SOL    HW219806   5.429   1.988   6.108
 6478SOL     OW19807   5.134   3.410   6.072
 6478SOL    HW119808   5.200   3.454   6.010
 6478SOL    HW219809   5.067   3.478   6.102
 6479SOL     OW19810   4.968   2.823   6.234
 6479SOL    HW119811   5.034   2.752   6.257
 6479SOL    HW219812   5.010   2.889   6.172
 6480SOL     OW19813   4.391   3.476   5.775
 6480SOL    HW119814   4.407   3.494   5.678
 6480SOL    HW219815   4.327   3.400   5.785
 6481SOL     OW19816   5.581   2.059   0.005
 6481SOL    HW119817   5.625   1.974   6.475
 6481SOL    HW219818   5.504   2.079   6.446
 6482SOL     OW19819   3.979   2.168   6.284
 6482SOL    HW119820   3.892   2.215   6.263
 6482SOL    HW219821   3.998   2.175   6.382
 6483SOL     OW19822   4.939   3.434   5.611
 6483SOL    HW119823   4.924   3.341   5.643
 6483SOL    HW219824   4.876   3.455   5.537
 6484SOL     OW19825   4.676   2.816   5.913
 6484SOL    HW119826   4.699   2.815   5.816
 6484SOL    HW219827   4.728   2.745   5.960
 6485SOL     OW19828   5.214   3.496   5.645
 6485SOL    HW119829   5.119   3.472   5.627
 6485SOL    HW219830   5.264   3.499   5.558
 6486SOL     OW19831   4.797   3.016   6.330
 6486SOL    HW119832   4.706   2.978   6.346
 6486SOL    HW219833   4.857   2.946   6.293
 6487SOL     OW19834   4.331   3.339   6.097
 6487SOL    HW119835   4.385   3.278   6.039
 6487SOL    HW219836   4.254   3.374   6.045
 6488SOL     OW19837   3.964   3.216   5.929
 6488SOL    HW119838   3.885   3.195   5.872
 6488SOL    HW219839   3.936   3.276   6.004
 6489SOL     OW19840   3.841   2.212   5.540
 6489SOL    HW119841   3.751   2.200   5.500
 6489SOL    HW219842   3.877   2.303   5.517
 6490SOL     OW19843   3.776   2.041   5.795
 6490SOL    HW119844   3.762   2.109   5.722
 6490SOL    HW219845   3.867   2.002   5.786
 6491SOL     OW19846   4.882   3.175   5.700
 6491SOL    HW119847   4.783   3.160   5.700
 6491SOL    HW219848   4.915   3.183   5.794
 6492SOL     OW19849   4.950   2.187   6.042
 6492SOL    HW119850   4.995   2.098   6.038
 6492SOL    HW219851   4.981   2.236   6.123
 6493SOL     OW19852   4.291   2.589   6.256
 6493SOL    HW119853   4.328   2.681   6.252
 6493SOL    HW219854   4.224   2.577   6.184
 6494SOL     OW19855   4.588   3.208   5.692
 6494SOL    HW119856   4.551   3.200   5.784
 6494SOL    HW219857   4.580   3.302   5.661
 6495SOL     OW19858   4.402   3.704   0.058
 6495SOL    HW119859   4.346   3.786   0.056
 6495SOL    HW219860   4.497   3.728   0.040
 6496SOL     OW19861   4.563   2.900   6.445
 6496SOL    HW119862   4.637   2.855   6.494
 6496SOL    HW219863   4.518   2.966   0.005
 6497SOL     OW19864   4.755   2.792   5.654
 6497SOL    HW119865   4.732   2.862   5.587
 6497SOL    HW219866   4.846   2.755   5.634
 6498SOL     OW19867   5.566   3.393   6.318
 6498SOL    HW119868   5.467   3.408   6.312
 6498SOL    HW219869   5.595   3.399   6.413
 6499SOL     OW19870   3.820   2.966   6.256
 6499SOL    HW119871   3.866   2.969   6.345
 6499SOL    HW219872   3.889   2.967   6.184
 6500SOL     OW19873   4.120   2.289   6.082
 6500SOL    HW119874   4.164   2.223   6.021
 6500SOL    HW219875   4.074   2.240   6.156
 6501SOL     OW19876   4.532   3.404   6.278
 6501SOL    HW119877   4.463   3.390   6.207
 6501SOL    HW219878   4.496   3.373   6.366
 6502SOL     OW19879   4.500   3.177   5.949
 6502SOL    HW119880   4.477   3.081   5.964
 6502SOL    HW219881   4.586   3.198   5.997
 6503SOL     OW19882   5.116   1.882   5.778
 6503SOL    HW119883   5.166   1.809   5.731
 6503SOL    HW219884   5.022   1.852   5.795
 6504SOL     OW19885   5.020   2.318   6.271
 6504SOL    HW119886   4.961   2.398   6.265
 6504SOL    HW219887   4.992   2.261   6.349
 6505SOL     OW19888   3.754   2.885   5.881
 6505SOL    HW119889   3.852   2.874   5.864
 6505SOL    HW219890   3.714   2.796   5.904
 6506SOL     OW19891   4.624   3.535   5.920
 6506SOL    HW119892   4.540   3.507   5.873
 6506SOL    HW219893   4.607   3.617   5.975
 6507SOL     OW19894   3.985   4.284   0.024
 6507SOL    HW119895   3.938   4.196   0.017
 6507SOL    HW219896   4.016   4.313   6.433
 6508SOL     OW19897   3.919   3.999   1.026
 6508SOL    HW119898   3.951   3.966   1.115
 6508SOL    HW219899   3.825   3.970   1.011
 6509SOL     OW19900   3.716   4.121   0.676
 6509SOL    HW119901   3.639   4.146   0.734
 6509SOL    HW219902   3.691   4.043   0.619
 6510SOL     OW19903   4.351   5.036   1.256
 6510SOL    HW119904   4.257   5.011   1.236
 6510SOL    HW219905   4.360   5.135   1.262
 6511SOL     OW19906   5.366   5.223   0.757
 6511SOL    HW119907   5.298   5.182   0.818
 6511SOL    HW219908   5.323   5.297   0.705
 6512SOL     OW19909   4.889   4.409   0.616
 6512SOL    HW119910   4.927   4.501   0.625
 6512SOL    HW219911   4.800   4.406   0.662
 6513SOL     OW19912   5.521   4.277   0.220
 6513SOL    HW119913   5.462   4.284   0.140
 6513SOL    HW219914   5.486   4.206   0.281
 6514SOL     OW19915   4.540   4.882   1.125
 6514SOL    HW119916   4.466   4.924   1.176
 6514SOL    HW219917   4.585   4.950   1.068
 6515SOL     OW19918   4.642   4.439   1.799
 6515SOL    HW119919   4.671   4.505   1.869
 6515SOL    HW219920   4.642   4.483   1.709
 6516SOL     OW19921   4.420   4.547   0.837
 6516SOL    HW119922   4.502   4.602   0.856
 6516SOL    HW219923   4.344   4.581   0.891
 6517SOL     OW19924   4.443   4.881   1.857
 6517SOL    HW119925   4.504   4.948   1.900
 6517SOL    HW219926   4.364   4.929   1.818
 6518SOL     OW19927   4.091   5.041   1.173
 6518SOL    HW119928   4.048   4.952   1.157
 6518SOL    HW219929   4.091   5.095   1.089
 6519SOL     OW19930   5.185   5.237   1.407
 6519SOL    HW119931   5.239   5.321   1.414
 6519SOL    HW219932   5.108   5.242   1.471
 6520SOL     OW19933   4.217   4.050   1.479
 6520SOL    HW119934   4.297   3.991   1.491
 6520SOL    HW219935   4.136   4.003   1.514
 6521SOL     OW19936   5.302   4.176   0.744
 6521SOL    HW119937   5.212   4.168   0.701
 6521SOL    HW219938   5.299   4.245   0.816
 6522SOL     OW19939   4.239   5.356   0.451
 6522SOL    HW119940   4.253   5.439   0.505
 6522SOL    HW219941   4.244   5.379   0.353
 6523SOL     OW19942   4.851   5.053   1.728
 6523SOL    HW119943   4.901   5.041   1.813
 6523SOL    HW219944   4.795   4.973   1.709
 6524SOL     OW19945   4.062   5.157   0.469
 6524SOL    HW119946   4.130   5.229   0.473
 6524SOL    HW219947   3.999   5.166   0.546
 6525SOL     OW19948   3.985   4.799   1.089
 6525SOL    HW119949   3.966   4.740   1.168
 6525SOL    HW219950   3.899   4.832   1.050
 6526SOL     OW19951   4.295   5.503   1.452
 6526SOL    HW119952   4.213   5.495   1.509
 6526SOL    HW219953   4.335   5.594   1.465
 6527SOL     OW19954   4.262   4.806   0.093
 6527SOL    HW119955   4.246   4.859   0.009
 6527SOL    HW219956   4.178   4.802   0.147
 6528SOL     OW19957   5.312   3.863   1.470
 6528SOL    HW119958   5.364   3.939   1.431
 6528SOL    HW219959   5.270   3.892   1.556
 6529SOL     OW19960   3.837   4.367   0.608
 6529SOL    HW119961   3.801   4.277   0.632
 6529SOL    HW219962   3.826   4.429   0.685
 6530SOL     OW19963   5.627   5.454   0.329
 6530SOL    HW119964   5.694   5.437   0.400
 6530SOL    HW219965   5.626   5.552   0.306
 6531SOL     OW19966   3.444   5.519   0.069
 6531SOL    HW119967   3.481   5.567   6.490
 6531SOL    HW219968   3.499   5.539   0.150
 6532SOL     OW19969   5.447   4.652   0.675
 6532SOL    HW119970   5.536   4.611   0.694
 6532SOL    HW219971   5.449   4.695   0.585
 6533SOL     OW19972   5.440   4.825   0.451
 6533SOL    HW119973   5.518   4.794   0.397
 6533SOL    HW219974   5.465   4.907   0.502
 6534SOL     OW19975   3.826   4.495   1.577
 6534SOL    HW119976   3.870   4.568   1.629
 6534SOL    HW219977   3.744   4.530   1.534
 6535SOL     OW19978   4.457   5.190   0.449
 6535SOL    HW119979   4.372   5.240   0.464
 6535SOL    HW219980   4.440   5.092   0.456
 6536SOL     OW19981   4.968   4.923   1.442
 6536SOL    HW119982   4.992   4.852   1.376
 6536SOL    HW219983   5.033   4.921   1.518
 6537SOL     OW19984   4.537   3.689   0.487
 6537SOL    HW119985   4.580   3.779   0.493
 6537SOL    HW219986   4.438   3.698   0.496
 6538SOL     OW19987   3.911   4.641   1.297
 6538SOL    HW119988   3.995   4.590   1.317
 6538SOL    HW219989   3.842   4.579   1.262
 6539SOL     OW19990   5.245   4.830   0.252
 6539SOL    HW119991   5.178   4.758   0.271
 6539SOL    HW219992   5.316   4.829   0.322
 6540SOL     OW19993   4.885   5.527   1.643
 6540SOL    HW119994   4.923   5.598   1.584
 6540SOL    HW219995   4.912   5.437   1.608
 6541SOL     OW19996   4.099   4.008   1.879
 6541SOL    HW119997   4.137   4.088   1.925
 6541SOL    HW219998   4.006   4.027   1.849
 6542SOL     OW19999   5.189   5.112   0.942
 6542SOL    HW120000   5.142   5.140   1.026
 6542SOL    HW220001   5.183   5.013   0.932
 6543SOL     OW20002   5.495   5.546   0.657
 6543SOL    HW120003   5.409   5.497   0.644
 6543SOL    HW220004   5.568   5.481   0.675
 6544SOL     OW20005   4.306   4.274   0.355
 6544SOL    HW120006   4.351   4.360   0.328
 6544SOL    HW220007   4.241   4.293   0.428
 6545SOL     OW20008   5.021   4.117   0.955
 6545SOL    HW120009   4.933   4.070   0.959
 6545SOL    HW220010   5.084   4.073   1.019
 6546SOL     OW20011   5.352   5.446   0.334
 6546SOL    HW120012   5.451   5.440   0.337
 6546SOL    HW220013   5.322   5.468   0.241
 6547SOL     OW20014   4.504   4.281   1.461
 6547SOL    HW120015   4.476   4.252   1.553
 6547SOL    HW220016   4.480   4.210   1.395
 6548SOL     OW20017   5.102   4.194   1.665
 6548SOL    HW120018   5.106   4.244   1.751
 6548SOL    HW220019   5.154   4.109   1.672
 6549SOL     OW20020   4.668   4.602   1.569
 6549SOL    HW120021   4.716   4.532   1.516
 6549SOL    HW220022   4.611   4.657   1.509
 6550SOL     OW20023   4.729   4.066   1.220
 6550SOL    HW120024   4.633   4.078   1.245
 6550SOL    HW220025   4.736   4.018   1.133
 6551SOL     OW20026   4.901   4.272   0.373
 6551SOL    HW120027   4.895   4.332   0.452
 6551SOL    HW220028   4.892   4.177   0.402
 6552SOL     OW20029   3.798   4.533   0.830
 6552SOL    HW120030   3.868   4.500   0.894
 6552SOL    HW220031   3.711   4.542   0.878
 6553SOL     OW20032   3.812   5.607   1.587
 6553SOL    HW120033   3.825   5.592   1.685
 6553SOL    HW220034   3.726   5.566   1.558
 6554SOL     OW20035   4.584   3.998   0.073
 6554SOL    HW120036   4.655   4.059   0.036
 6554SOL    HW220037   4.611   3.903   0.058
 6555SOL     OW20038   5.388   4.295   1.836
 6555SOL    HW120039   5.383   4.381   1.786
 6555SOL    HW220040   5.416   4.222   1.774
 6556SOL     OW20041   5.197   4.875   0.615
 6556SOL    HW120042   5.275   4.831   0.571
 6556SOL    HW220043   5.183   4.966   0.576
 6557SOL     OW20044   4.276   3.833   0.959
 6557SOL    HW120045   4.282   3.849   1.057
 6557SOL    HW220046   4.286   3.920   0.911
 6558SOL     OW20047   4.977   5.216   0.658
 6558SOL    HW120048   4.925   5.150   0.713
 6558SOL    HW220049   5.006   5.292   0.717
 6559SOL     OW20050   4.066   5.608   0.918
 6559SOL    HW120051   4.108   5.524   0.951
 6559SOL    HW220052   4.127   5.685   0.935
 6560SOL     OW20053   5.529   4.794   0.909
 6560SOL    HW120054   5.477   4.769   0.827
 6560SOL    HW220055   5.467   4.796   0.988
 6561SOL     OW20056   4.937   5.250   1.544
 6561SOL    HW120057   4.929   5.182   1.617
 6561SOL    HW220058   4.877   5.225   1.468
 6562SOL     OW20059   4.017   4.834   0.219
 6562SOL    HW120060   4.063   4.856   0.305
 6562SOL    HW220061   3.966   4.748   0.229
 6563SOL     OW20062   5.217   4.514   0.732
 6563SOL    HW120063   5.227   4.454   0.810
 6563SOL    HW220064   5.304   4.559   0.713
 6564SOL     OW20065   4.204   5.014   1.768
 6564SOL    HW120066   4.185   5.017   1.670
 6564SOL    HW220067   4.121   4.988   1.818
 6565SOL     OW20068   5.038   5.528   0.298
 6565SOL    HW120069   4.973   5.502   0.370
 6565SOL    HW220070   5.051   5.450   0.236
 6566SOL     OW20071   3.954   3.959   1.536
 6566SOL    HW120072   3.918   4.041   1.580
 6566SOL    HW220073   3.902   3.879   1.567
 6567SOL     OW20074   5.435   5.102   0.111
 6567SOL    HW120075   5.357   5.126   0.168
 6567SOL    HW220076   5.409   5.027   0.050
 6568SOL     OW20077   4.253   5.401   0.180
 6568SOL    HW120078   4.254   5.490   0.133
 6568SOL    HW220079   4.345   5.364   0.182
 6569SOL     OW20080   5.094   3.825   0.432
 6569SOL    HW120081   5.088   3.822   0.332
 6569SOL    HW220082   5.184   3.794   0.461
 6570SOL     OW20083   3.960   5.514   1.228
 6570SOL    HW120084   4.015   5.433   1.247
 6570SOL    HW220085   3.918   5.505   1.138
 6571SOL     OW20086   4.617   5.466   1.045
 6571SOL    HW120087   4.618   5.390   1.109
 6571SOL    HW220088   4.667   5.441   0.962
 6572SOL     OW20089   4.121   4.325   0.557
 6572SOL    HW120090   4.128   4.230   0.587
 6572SOL    HW220091   4.025   4.354   0.562
 6573SOL     OW20092   5.211   3.943   1.721
 6573SOL    HW120093   5.227   3.964   1.817
 6573SOL    HW220094   5.140   3.873   1.714
 6574SOL     OW20095   4.508   3.975   1.773
 6574SOL    HW120096   4.594   3.925   1.769
 6574SOL    HW220097   4.447   3.932   1.839
 6575SOL     OW20098   4.613   5.243   1.207
 6575SOL    HW120099   4.617   5.188   1.123
 6575SOL    HW220100   4.668   5.200   1.278
 6576SOL     OW20101   5.010   4.313   1.436
 6576SOL    HW120102   5.047   4.277   1.522
 6576SOL    HW220103   5.052   4.401   1.415
 6577SOL     OW20104   4.636   5.098   0.975
 6577SOL    HW120105   4.727   5.100   0.934
 6577SOL    HW220106   4.568   5.114   0.903
 6578SOL     OW20107   4.707   4.229   0.920
 6578SOL    HW120108   4.670   4.211   0.828
 6578SOL    HW220109   4.732   4.142   0.963
 6579SOL     OW20110   4.266   3.711   0.510
 6579SOL    HW120111   4.196   3.703   0.581
 6579SOL    HW220112   4.255   3.798   0.462
 6580SOL     OW20113   5.330   4.873   6.496
 6580SOL    HW120114   5.297   4.846   0.086
 6580SOL    HW220115   5.252   4.890   6.435
 6581SOL     OW20116   4.004   3.792   0.202
 6581SOL    HW120117   4.008   3.767   0.105
 6581SOL    HW220118   4.059   3.728   0.255
 6582SOL     OW20119   4.650   3.943   0.511
 6582SOL    HW120120   4.593   3.984   0.440
 6582SOL    HW220121   4.745   3.972   0.498
 6583SOL     OW20122   4.747   4.401   1.405
 6583SOL    HW120123   4.675   4.336   1.426
 6583SOL    HW220124   4.836   4.356   1.412
 6584SOL     OW20125   5.036   5.422   0.822
 6584SOL    HW120126   5.033   5.498   0.758
 6584SOL    HW220127   5.106   5.439   0.891
 6585SOL     OW20128   4.184   4.653   0.963
 6585SOL    HW120129   4.124   4.713   1.016
 6585SOL    HW220130   4.168   4.668   0.865
 6586SOL     OW20131   5.018   5.610   0.630
 6586SOL    HW120132   5.068   5.669   0.568
 6586SOL    HW220133   4.933   5.655   0.658
 6587SOL     OW20134   4.765   4.155   6.452
 6587SOL    HW120135   4.725   4.171   6.362
 6587SOL    HW220136   4.757   4.238   0.007
 6588SOL     OW20137   3.844   4.273   1.409
 6588SOL    HW120138   3.938   4.250   1.384
 6588SOL    HW220139   3.844   4.349   1.474
 6589SOL     OW20140   4.281   3.884   1.223
 6589SOL    HW120141   4.302   3.805   1.280
 6589SOL    HW220142   4.187   3.913   1.239
 6590SOL     OW20143   4.600   4.169   0.683
 6590SOL    HW120144   4.513   4.217   0.676
 6590SOL    HW220145   4.599   4.089   0.622
 6591SOL     OW20146   4.757   3.807   0.736
 6591SOL    HW120147   4.708   3.854   0.662
 6591SOL    HW220148   4.703   3.730   0.769
 6592SOL     OW20149   5.164   4.843   0.896
 6592SOL    HW120150   5.110   4.761   0.919
 6592SOL    HW220151   5.176   4.848   0.797
 6593SOL     OW20152   5.207   4.349   0.953
 6593SOL    HW120153   5.134   4.283   0.969
 6593SOL    HW220154   5.273   4.344   1.028
 6594SOL     OW20155   5.572   4.491   0.381
 6594SOL    HW120156   5.622   4.455   0.460
 6594SOL    HW220157   5.549   4.417   0.319
 6595SOL     OW20158   5.518   5.034   0.601
 6595SOL    HW120159   5.614   5.023   0.627
 6595SOL    HW220160   5.475   5.102   0.662
 6596SOL     OW20161   5.318   4.268   0.034
 6596SOL    HW120162   5.247   4.214   0.078
 6596SOL    HW220163   5.320   4.246   6.436
 6597SOL     OW20164   4.240   3.949   0.391
 6597SOL    HW120165   4.334   3.979   0.370
 6597SOL    HW220166   4.178   3.988   0.323
 6598SOL     OW20167   5.431   4.926   1.590
 6598SOL    HW120168   5.450   4.878   1.676
 6598SOL    HW220169   5.469   5.019   1.595
 6599SOL     OW20170   4.757   5.081   1.383
 6599SOL    HW120171   4.673   5.051   1.428
 6599SOL    HW220172   4.833   5.024   1.413
 6600SOL     OW20173   5.348   5.371   1.675
 6600SOL    HW120174   5.337   5.418   1.587
 6600SOL    HW220175   5.413   5.296   1.665
 6601SOL     OW20176   4.880   4.973   1.151
 6601SOL    HW120177   4.811   5.003   1.217
 6601SOL    HW220178   4.853   5.004   1.060
 6602SOL     OW20179   5.343   4.819   1.112
 6602SOL    HW120180   5.336   4.888   1.183
 6602SOL    HW220181   5.268   4.831   1.046
 6603SOL     OW20182   4.677   3.774   1.393
 6603SOL    HW120183   4.695   3.755   1.297
 6603SOL    HW220184   4.756   3.823   1.432
 6604SOL     OW20185   4.690   4.825   1.729
 6604SOL    HW120186   4.597   4.841   1.762
 6604SOL    HW220187   4.690   4.746   1.667
 6605SOL     OW20188   4.420   4.921   0.451
 6605SOL    HW120189   4.476   4.861   0.509
 6605SOL    HW220190   4.450   4.912   0.356
 6606SOL     OW20191   4.137   4.497   1.339
 6606SOL    HW120192   4.210   4.515   1.405
 6606SOL    HW220193   4.120   4.399   1.333
 6607SOL     OW20194   4.986   4.079   1.300
 6607SOL    HW120195   5.004   4.166   1.346
 6607SOL    HW220196   4.892   4.077   1.267
 6608SOL     OW20197   3.798   5.277   1.378
 6608SOL    HW120198   3.752   5.345   1.321
 6608SOL    HW220199   3.897   5.290   1.372
 6609SOL     OW20200   4.149   4.901   0.438
 6609SOL    HW120201   4.115   4.994   0.451
 6609SOL    HW220202   4.248   4.900   0.446
 6610SOL     OW20203   4.308   4.099   0.887
 6610SOL    HW120204   4.296   4.125   0.791
 6610SOL    HW220205   4.372   4.162   0.931
 6611SOL     OW20206   5.179   5.132   0.505
 6611SOL    HW120207   5.256   5.193   0.526
 6611SOL    HW220208   5.097   5.163   0.553
 6612SOL     OW20209   5.060   5.181   1.171
 6612SOL    HW120210   5.109   5.199   1.256
 6612SOL    HW220211   5.000   5.101   1.183
 6613SOL     OW20212   4.071   5.257   1.336
 6613SOL    HW120213   4.072   5.177   1.277
 6613SOL    HW220214   4.165   5.289   1.351
 6614SOL     OW20215   4.223   4.404   1.698
 6614SOL    HW120216   4.260   4.457   1.622
 6614SOL    HW220217   4.288   4.334   1.725
 6615SOL     OW20218   5.370   4.530   1.699
 6615SOL    HW120219   5.274   4.557   1.687
 6615SOL    HW220220   5.423   4.562   1.621
 6616SOL     OW20221   4.735   3.831   1.761
 6616SOL    HW120222   4.792   3.913   1.750
 6616SOL    HW220223   4.786   3.750   1.734
 6617SOL     OW20224   4.223   3.788   1.766
 6617SOL    HW120225   4.170   3.739   1.697
 6617SOL    HW220226   4.177   3.874   1.789
 6618SOL     OW20227   4.350   4.519   1.151
 6618SOL    HW120228   4.306   4.579   1.085
 6618SOL    HW220229   4.287   4.500   1.226
 6619SOL     OW20230   5.046   4.598   0.990
 6619SOL    HW120231   4.953   4.561   0.983
 6619SOL    HW220232   5.112   4.524   0.972
 6620SOL     OW20233   5.118   4.188   0.220
 6620SOL    HW120234   5.189   4.164   0.285
 6620SOL    HW220235   5.041   4.229   0.268
 6621SOL     OW20236   4.010   3.909   1.267
 6621SOL    HW120237   3.982   3.933   1.360
 6621SOL    HW220238   4.000   3.811   1.254
 6622SOL     OW20239   3.795   5.021   1.276
 6622SOL    HW120240   3.827   4.961   1.349
 6622SOL    HW220241   3.790   5.115   1.310
 6623SOL     OW20242   4.455   4.276   1.041
 6623SOL    HW120243   4.547   4.282   1.002
 6623SOL    HW220244   4.424   4.367   1.069
 6624SOL     OW20245   5.457   4.763   1.823
 6624SOL    HW120246   5.433   4.672   1.788
 6624SOL    HW220247   5.412   4.778   1.910
 6625SOL     OW20248   4.038   3.727   0.676
 6625SOL    HW120249   3.996   3.817   0.689
 6625SOL    HW220250   4.052   3.684   0.765
 6626SOL     OW20251   5.330   4.121   0.390
 6626SOL    HW120252   5.382   4.045   0.430
 6626SOL    HW220253   5.315   4.191   0.460
 6627SOL     OW20254   4.797   4.480   0.987
 6627SOL    HW120255   4.748   4.496   1.073
 6627SOL    HW220256   4.778   4.388   0.955
 6628SOL     OW20257   4.709   5.282   1.792
 6628SOL    HW120258   4.679   5.343   1.718
 6628SOL    HW220259   4.747   5.198   1.752
 6629SOL     OW20260   5.539   5.180   1.606
 6629SOL    HW120261   5.585   5.222   1.528
 6629SOL    HW220262   5.607   5.151   1.673
 6630SOL     OW20263   4.118   4.620   1.838
 6630SOL    HW120264   4.186   4.656   1.902
 6630SOL    HW220265   4.156   4.540   1.791
 6631SOL     OW20266   5.323   3.936   0.162
 6631SOL    HW120267   5.238   3.885   0.153
 6631SOL    HW220268   5.316   4.000   0.238
 6632SOL     OW20269   5.173   4.504   0.071
 6632SOL    HW120270   5.226   4.420   0.086
 6632SOL    HW220271   5.198   4.543   6.483
 6633SOL     OW20272   4.894   5.069   0.885
 6633SOL    HW120273   4.886   4.975   0.851
 6633SOL    HW220274   4.991   5.091   0.896
 6634SOL     OW20275   3.993   4.444   1.009
 6634SOL    HW120276   4.066   4.512   1.002
 6634SOL    HW220277   4.033   4.352   1.017
 6635SOL     OW20278   4.102   4.196   1.042
 6635SOL    HW120279   4.028   4.129   1.032
 6635SOL    HW220280   4.181   4.165   0.988
 6636SOL     OW20281   4.864   4.067   1.707
 6636SOL    HW120282   4.813   4.114   1.779
 6636SOL    HW220283   4.947   4.118   1.685
 6637SOL     OW20284   4.904   3.897   1.491
 6637SOL    HW120285   4.881   3.959   1.567
 6637SOL    HW220286   4.946   3.950   1.417
 6638SOL     OW20287   3.286   5.106   0.286
 6638SOL    HW120288   3.336   5.057   0.215
 6638SOL    HW220289   3.208   5.052   0.316
 6639SOL     OW20290   3.808   5.522   0.984
 6639SOL    HW120291   3.761   5.459   0.923
 6639SOL    HW220292   3.893   5.553   0.941
 6640SOL     OW20293   4.194   5.370   1.049
 6640SOL    HW120294   4.259   5.431   1.005
 6640SOL    HW220295   4.234   5.334   1.134
 6641SOL     OW20296   4.630   4.530   1.191
 6641SOL    HW120297   4.668   4.488   1.273
 6641SOL    HW220298   4.530   4.525   1.193
 6642SOL     OW20299   3.777   4.415   1.182
 6642SOL    HW120300   3.851   4.420   1.115
 6642SOL    HW220301   3.804   4.355   1.257
 6643SOL     OW20302   3.959   4.326   1.753
 6643SOL    HW120303   4.055   4.342   1.734
 6643SOL    HW220304   3.903   4.380   1.691
 6644SOL     OW20305   5.121   4.631   1.644
 6644SOL    HW120306   5.128   4.731   1.643
 6644SOL    HW220307   5.110   4.598   1.550
 6645SOL     OW20308   4.486   4.057   0.325
 6645SOL    HW120309   4.518   4.042   0.232
 6645SOL    HW220310   4.436   4.144   0.329
 6646SOL     OW20311   5.398   4.333   1.149
 6646SOL    HW120312   5.387   4.261   1.218
 6646SOL    HW220313   5.496   4.350   1.135
 6647SOL     OW20314   3.958   5.246   1.736
 6647SOL    HW120315   3.915   5.275   1.821
 6647SOL    HW220316   3.981   5.149   1.741
 6648SOL     OW20317   4.457   4.101   1.254
 6648SOL    HW120318   4.394   4.024   1.248
 6648SOL    HW220319   4.445   4.161   1.175
 6649SOL     OW20320   4.596   5.438   1.573
 6649SOL    HW120321   4.542   5.388   1.505
 6649SOL    HW220322   4.644   5.513   1.529
 6650SOL     OW20323   4.139   4.126   0.196
 6650SOL    HW120324   4.202   4.180   0.252
 6650SOL    HW220325   4.083   4.187   0.140
 6651SOL     OW20326   3.875   4.842   1.481
 6651SOL    HW120327   3.884   4.802   1.573
 6651SOL    HW220328   3.886   4.770   1.413
 6652SOL     OW20329   5.009   4.746   1.218
 6652SOL    HW120330   5.026   4.690   1.137
 6652SOL    HW220331   4.958   4.828   1.192
 6653SOL     OW20332   5.086   4.620   0.309
 6653SOL    HW120333   5.026   4.563   0.364
 6653SOL    HW220334   5.114   4.569   0.227
 6654SOL     OW20335   5.520   5.436   1.190
 6654SOL    HW120336   5.586   5.460   1.118
 6654SOL    HW220337   5.475   5.350   1.166
 6655SOL     OW20338   4.999   5.457   1.146
 6655SOL    HW120339   5.081   5.487   1.098
 6655SOL    HW220340   5.002   5.358   1.159
 6656SOL     OW20341   3.727   4.894   1.047
 6656SOL    HW120342   3.753   4.951   1.125
 6656SOL    HW220343   3.634   4.861   1.059
 6657SOL     OW20344   4.414   5.447   1.777
 6657SOL    HW120345   4.344   5.517   1.763
 6657SOL    HW220346   4.486   5.457   1.708
 6658SOL     OW20347   4.671   3.744   0.013
 6658SOL    HW120348   4.682   3.710   6.420
 6658SOL    HW220349   4.747   3.712   0.070
 6659SOL     OW20350   5.484   3.924   0.496
 6659SOL    HW120351   5.552   3.894   0.428
 6659SOL    HW220352   5.426   3.846   0.520
 6660SOL     OW20353   5.259   5.417   0.587
 6660SOL    HW120354   5.287   5.425   0.491
 6660SOL    HW220355   5.174   5.467   0.602
 6661SOL     OW20356   3.854   5.542   1.844
 6661SOL    HW120357   3.818   5.453   1.873
 6661SOL    HW220358   3.916   5.577   1.913
 6662SOL     OW20359   5.009   4.657   0.644
 6662SOL    HW120360   5.083   4.600   0.679
 6662SOL    HW220361   5.048   4.739   0.601
 6663SOL     OW20362   4.509   5.012   1.479
 6663SOL    HW120363   4.479   5.069   1.554
 6663SOL    HW220364   4.443   5.019   1.403
 6664SOL     OW20365   5.339   5.478   1.413
 6664SOL    HW120366   5.399   5.465   1.334
 6664SOL    HW220367   5.312   5.574   1.418
 6665SOL     OW20368   5.577   3.883   0.968
 6665SOL    HW120369   5.609   3.792   0.938
 6665SOL    HW220370   5.487   3.901   0.929
 6666SOL     OW20371   3.942   3.976   0.751
 6666SOL    HW120372   3.863   4.029   0.720
 6666SOL    HW220373   3.947   3.980   0.851
 6667SOL     OW20374   5.071   5.316   0.117
 6667SOL    HW120375   5.110   5.234   0.159
 6667SOL    HW220376   5.004   5.290   0.047
 6668SOL     OW20377   4.513   4.744   1.399
 6668SOL    HW120378   4.538   4.751   1.302
 6668SOL    HW220379   4.511   4.836   1.439
 6669SOL     OW20380   4.759   4.353   0.137
 6669SOL    HW120381   4.812   4.431   0.103
 6669SOL    HW220382   4.796   4.324   0.226
 6670SOL     OW20383   5.272   5.496   0.068
 6670SOL    HW120384   5.198   5.429   0.078
 6670SOL    HW220385   5.330   5.469   6.491
 6671SOL     OW20386   4.089   5.031   1.521
 6671SOL    HW120387   4.071   5.117   1.472
 6671SOL    HW220388   4.019   4.965   1.500
 6672SOL     OW20389   5.331   5.014   1.320
 6672SOL    HW120390   5.383   4.973   1.395
 6672SOL    HW220391   5.273   5.087   1.355
 6673SOL     OW20392   4.851   4.820   0.804
 6673SOL    HW120393   4.768   4.776   0.840
 6673SOL    HW220394   4.901   4.755   0.748
 6674SOL     OW20395   4.788   3.942   0.978
 6674SOL    HW120396   4.781   3.912   0.883
 6674SOL    HW220397   4.783   3.863   1.039
 6675SOL     OW20398   5.494   4.077   1.404
 6675SOL    HW120399   5.563   4.149   1.403
 6675SOL    HW220400   5.522   4.002   1.343
 6676SOL     OW20401   4.007   5.277   0.225
 6676SOL    HW120402   4.014   5.231   0.313
 6676SOL    HW220403   4.091   5.329   0.207
 6677SOL     OW20404   3.886   4.720   1.734
 6677SOL    HW120405   3.804   4.705   1.790
 6677SOL    HW220406   3.966   4.683   1.782
 6678SOL     OW20407   4.445   3.884   1.518
 6678SOL    HW120408   4.530   3.860   1.470
 6678SOL    HW220409   4.468   3.923   1.607
 6679SOL     OW20410   5.122   4.557   1.381
 6679SOL    HW120411   5.066   4.622   1.329
 6679SOL    HW220412   5.216   4.561   1.348
 6680SOL     OW20413   3.755   3.841   0.290
 6680SOL    HW120414   3.708   3.877   0.209
 6680SOL    HW220415   3.852   3.830   0.270
 6681SOL     OW20416   5.180   5.096   0.236
 6681SOL    HW120417   5.189   4.998   0.224
 6681SOL    HW220418   5.173   5.117   0.334
 6682SOL     OW20419   4.362   4.520   1.485
 6682SOL    HW120420   4.413   4.604   1.461
 6682SOL    HW220421   4.423   4.441   1.474
 6683SOL     OW20422   5.232   5.496   0.999
 6683SOL    HW120423   5.258   5.590   0.976
 6683SOL    HW220424   5.311   5.448   1.039
 6684SOL     OW20425   4.449   4.243   1.731
 6684SOL    HW120426   4.517   4.305   1.769
 6684SOL    HW220427   4.474   4.149   1.752
 6685SOL     OW20428   5.160   4.901   1.638
 6685SOL    HW120429   5.146   4.925   1.734
 6685SOL    HW220430   5.255   4.919   1.613
 6686SOL     OW20431   4.066   5.477   1.610
 6686SOL    HW120432   3.982   5.524   1.582
 6686SOL    HW220433   4.042   5.390   1.654
 6687SOL     OW20434   5.368   4.589   1.263
 6687SOL    HW120435   5.382   4.505   1.211
 6687SOL    HW220436   5.364   4.667   1.200
 6688SOL     OW20437   4.914   4.023   0.493
 6688SOL    HW120438   4.976   3.949   0.465
 6688SOL    HW220439   4.954   4.073   0.570
 6689SOL     OW20440   4.370   4.317   0.695
 6689SOL    HW120441   4.393   4.399   0.747
 6689SOL    HW220442   4.283   4.330   0.648
 6690SOL     OW20443   5.460   4.079   1.677
 6690SOL    HW120444   5.472   4.083   1.578
 6690SOL    HW220445   5.383   4.019   1.700
 6691SOL     OW20446   5.495   4.660   1.495
 6691SOL    HW120447   5.488   4.759   1.509
 6691SOL    HW220448   5.457   4.636   1.406
 6692SOL     OW20449   4.524   5.103   0.012
 6692SOL    HW120450   4.436   5.141   6.485
 6692SOL    HW220451   4.586   5.103   6.433
 6693SOL     OW20452   4.369   5.551   0.963
 6693SOL    HW120453   4.354   5.649   0.949
 6693SOL    HW220454   4.464   5.536   0.991
 6694SOL     OW20455   4.634   4.700   0.927
 6694SOL    HW120456   4.691   4.623   0.955
 6694SOL    HW220457   4.601   4.748   1.009
 6695SOL     OW20458   4.909   4.545   0.024
 6695SOL    HW120459   4.904   4.626   6.466
 6695SOL    HW220460   5.004   4.524   0.045
 6696SOL     OW20461   5.617   5.246   0.870
 6696SOL    HW120462   5.525   5.238   0.833
 6696SOL    HW220463   5.644   5.159   0.911
 6697SOL     OW20464   3.937   4.975   1.826
 6697SOL    HW120465   3.920   4.886   1.784
 6697SOL    HW220466   3.872   4.990   1.901
 6698SOL     OW20467   3.708   4.811   0.785
 6698SOL    HW120468   3.725   4.845   0.878
 6698SOL    HW220469   3.742   4.718   0.777
 6699SOL     OW20470   4.404   5.181   1.669
 6699SOL    HW120471   4.328   5.132   1.711
 6699SOL    HW220472   4.412   5.272   1.710
 6700SOL     OW20473   5.563   3.871   1.243
 6700SOL    HW120474   5.629   3.799   1.260
 6700SOL    HW220475   5.557   3.889   1.144
 6701SOL     OW20476   4.166   4.071   0.628
 6701SOL    HW120477   4.192   4.017   0.548
 6701SOL    HW220478   4.088   4.028   0.673
 6702SOL     OW20479   5.392   5.210   1.120
 6702SOL    HW120480   5.334   5.180   1.045
 6702SOL    HW220481   5.396   5.139   1.190
 6703SOL     OW20482   4.097   4.232   1.317
 6703SOL    HW120483   4.149   4.167   1.372
 6703SOL    HW220484   4.107   4.210   1.220
 6704SOL     OW20485   4.762   5.406   0.824
 6704SOL    HW120486   4.860   5.407   0.842
 6704SOL    HW220487   4.744   5.354   0.740
 6705SOL     OW20488   5.178   3.982   1.132
 6705SOL    HW120489   5.196   3.885   1.146
 6705SOL    HW220490   5.118   4.016   1.204
 6706SOL     OW20491   4.760   3.703   1.128
 6706SOL    HW120492   4.692   3.631   1.112
 6706SOL    HW220493   4.851   3.666   1.111
 6707SOL     OW20494   4.353   5.309   1.276
 6707SOL    HW120495   4.340   5.387   1.338
 6707SOL    HW220496   4.449   5.303   1.250
 6708SOL     OW20497   5.067   3.824   0.159
 6708SOL    HW120498   5.040   3.895   0.095
 6708SOL    HW220499   5.000   3.749   0.156
 6709SOL     OW20500   5.031   4.180   0.687
 6709SOL    HW120501   4.987   4.268   0.665
 6709SOL    HW220502   5.019   4.160   0.784
 6710SOL     OW20503   5.322   3.940   0.898
 6710SOL    HW120504   5.272   3.969   0.980
 6710SOL    HW220505   5.315   4.011   0.828
 6711SOL     OW20506   3.521   4.704   0.347
 6711SOL    HW120507   3.600   4.755   0.313
 6711SOL    HW220508   3.551   4.619   0.389
 6712SOL     OW20509   4.502   5.303   0.206
 6712SOL    HW120510   4.527   5.232   0.140
 6712SOL    HW220511   4.506   5.265   0.299
 6713SOL     OW20512   3.934   4.375   2.027
 6713SOL    HW120513   3.844   4.340   2.053
 6713SOL    HW220514   3.943   4.373   1.928
 6714SOL     OW20515   3.925   3.991   2.869
 6714SOL    HW120516   3.962   3.945   2.950
 6714SOL    HW220517   3.829   3.968   2.859
 6715SOL     OW20518   3.742   4.167   2.497
 6715SOL    HW120519   3.658   4.184   2.549
 6715SOL    HW220520   3.724   4.099   2.427
 6716SOL     OW20521   4.306   5.028   3.096
 6716SOL    HW120522   4.224   5.029   3.038
 6716SOL    HW220523   4.329   5.122   3.122
 6717SOL     OW20524   5.346   5.216   2.571
 6717SOL    HW120525   5.285   5.197   2.648
 6717SOL    HW220526   5.291   5.242   2.491
 6718SOL     OW20527   4.838   4.448   2.542
 6718SOL    HW120528   4.888   4.530   2.512
 6718SOL    HW220529   4.795   4.466   2.630
 6719SOL     OW20530   5.518   4.275   2.071
 6719SOL    HW120531   5.476   4.290   1.981
 6719SOL    HW220532   5.460   4.213   2.124
 6720SOL     OW20533   4.434   4.849   2.917
 6720SOL    HW120534   4.386   4.884   2.997
 6720SOL    HW220535   4.468   4.925   2.863
 6721SOL     OW20536   4.615   4.439   3.709
 6721SOL    HW120537   4.612   4.495   3.792
 6721SOL    HW220538   4.633   4.497   3.630
 6722SOL     OW20539   4.419   4.689   2.528
 6722SOL    HW120540   4.492   4.697   2.596
 6722SOL    HW220541   4.351   4.760   2.544
 6723SOL     OW20542   4.435   4.879   3.702
 6723SOL    HW120543   4.489   4.950   3.747
 6723SOL    HW220544   4.358   4.921   3.653
 6724SOL     OW20545   4.091   5.109   2.936
 6724SOL    HW120546   4.015   5.058   2.895
 6724SOL    HW220547   4.133   5.167   2.866
 6725SOL     OW20548   5.161   5.230   3.249
 6725SOL    HW120549   5.220   5.310   3.259
 6725SOL    HW220550   5.080   5.241   3.306
 6726SOL     OW20551   4.195   4.056   3.266
 6726SOL    HW120552   4.277   4.019   3.310
 6726SOL    HW220553   4.113   4.019   3.310
 6727SOL     OW20554   5.333   4.211   2.603
 6727SOL    HW120555   5.318   4.250   2.512
 6727SOL    HW220556   5.284   4.265   2.671
 6728SOL     OW20557   3.972   5.470   2.328
 6728SOL    HW120558   3.997   5.533   2.401
 6728SOL    HW220559   4.050   5.459   2.265
 6729SOL     OW20560   4.855   5.063   3.562
 6729SOL    HW120561   4.940   5.037   3.608
 6729SOL    HW220562   4.792   4.986   3.561
 6730SOL     OW20563   3.958   5.196   2.372
 6730SOL    HW120564   3.950   5.295   2.380
 6730SOL    HW220565   3.931   5.154   2.459
 6731SOL     OW20566   4.046   4.805   2.731
 6731SOL    HW120567   4.048   4.707   2.754
 6731SOL    HW220568   3.992   4.854   2.799
 6732SOL     OW20569   4.291   5.504   3.317
 6732SOL    HW120570   4.211   5.492   3.375
 6732SOL    HW220571   4.330   5.595   3.331
 6733SOL     OW20572   4.300   4.715   2.039
 6733SOL    HW120573   4.352   4.760   1.966
 6733SOL    HW220574   4.339   4.740   2.128
 6734SOL     OW20575   5.306   3.864   3.340
 6734SOL    HW120576   5.364   3.939   3.308
 6734SOL    HW220577   5.259   3.891   3.424
 6735SOL     OW20578   3.843   4.422   2.429
 6735SOL    HW120579   3.816   4.329   2.455
 6735SOL    HW220580   3.836   4.482   2.509
 6736SOL     OW20581   5.594   5.482   2.193
 6736SOL    HW120582   5.673   5.470   2.254
 6736SOL    HW220583   5.600   5.571   2.148
 6737SOL     OW20584   3.797   5.292   1.954
 6737SOL    HW120585   3.752   5.204   1.972
 6737SOL    HW220586   3.788   5.350   2.035
 6738SOL     OW20587   5.408   4.626   2.518
 6738SOL    HW120588   5.500   4.613   2.556
 6738SOL    HW220589   5.413   4.688   2.439
 6739SOL     OW20590   5.402   4.836   2.317
 6739SOL    HW120591   5.482   4.813   2.262
 6739SOL    HW220592   5.429   4.894   2.394
 6740SOL     OW20593   3.824   4.514   3.406
 6740SOL    HW120594   3.871   4.585   3.457
 6740SOL    HW220595   3.740   4.551   3.366
 6741SOL     OW20596   4.347   5.127   2.577
 6741SOL    HW120597   4.309   5.034   2.576
 6741SOL    HW220598   4.336   5.168   2.486
 6742SOL     OW20599   4.972   4.935   3.283
 6742SOL    HW120600   4.989   4.866   3.213
 6742SOL    HW220601   5.045   4.932   3.351
 6743SOL     OW20602   4.562   3.750   2.372
 6743SOL    HW120603   4.610   3.833   2.340
 6743SOL    HW220604   4.464   3.768   2.376
 6744SOL     OW20605   3.958   4.687   3.123
 6744SOL    HW120606   4.042   4.633   3.128
 6744SOL    HW220607   3.910   4.668   3.038
 6745SOL     OW20608   5.281   4.778   2.065
 6745SOL    HW120609   5.208   4.714   2.087
 6745SOL    HW220610   5.328   4.806   2.149
 6746SOL     OW20611   4.884   5.530   3.492
 6746SOL    HW120612   4.897   5.602   3.424
 6746SOL    HW220613   4.899   5.441   3.449
 6747SOL     OW20614   4.071   3.986   3.723
 6747SOL    HW120615   4.117   4.059   3.775
 6747SOL    HW220616   3.995   4.025   3.671
 6748SOL     OW20617   5.169   5.153   2.770
 6748SOL    HW120618   5.122   5.177   2.855
 6748SOL    HW220619   5.149   5.058   2.747
 6749SOL     OW20620   5.371   5.573   2.400
 6749SOL    HW120621   5.363   5.507   2.325
 6749SOL    HW220622   5.403   5.527   2.482
 6750SOL     OW20623   4.307   4.441   2.143
 6750SOL    HW120624   4.315   4.532   2.103
 6750SOL    HW220625   4.238   4.442   2.215
 6751SOL     OW20626   5.023   4.125   2.808
 6751SOL    HW120627   4.936   4.077   2.807
 6751SOL    HW220628   5.088   4.076   2.866
 6752SOL     OW20629   5.332   5.399   2.186
 6752SOL    HW120630   5.430   5.414   2.181
 6752SOL    HW220631   5.295   5.387   2.094
 6753SOL     OW20632   4.536   4.295   3.315
 6753SOL    HW120633   4.504   4.262   3.404
 6753SOL    HW220634   4.513   4.228   3.245
 6754SOL     OW20635   5.105   4.199   3.523
 6754SOL    HW120636   5.107   4.250   3.609
 6754SOL    HW220637   5.151   4.112   3.535
 6755SOL     OW20638   4.670   4.593   3.474
 6755SOL    HW120639   4.730   4.530   3.424
 6755SOL    HW220640   4.613   4.643   3.410
 6756SOL     OW20641   4.756   4.099   3.051
 6756SOL    HW120642   4.661   4.119   3.076
 6756SOL    HW220643   4.759   4.063   2.958
 6757SOL     OW20644   4.764   4.411   2.277
 6757SOL    HW120645   4.785   4.414   2.375
 6757SOL    HW220646   4.676   4.366   2.263
 6758SOL     OW20647   3.812   4.587   2.649
 6758SOL    HW120648   3.897   4.564   2.696
 6758SOL    HW220649   3.768   4.665   2.694
 6759SOL     OW20650   3.826   5.606   3.447
 6759SOL    HW120651   3.823   5.585   3.545
 6759SOL    HW220652   3.741   5.575   3.404
 6760SOL     OW20653   4.573   4.066   2.071
 6760SOL    HW120654   4.635   4.110   2.006
 6760SOL    HW220655   4.519   3.996   2.024
 6761SOL     OW20656   5.385   4.294   3.697
 6761SOL    HW120657   5.370   4.375   3.641
 6761SOL    HW220658   5.411   4.217   3.639
 6762SOL     OW20659   5.137   4.892   2.417
 6762SOL    HW120660   5.224   4.873   2.371
 6762SOL    HW220661   5.086   4.960   2.365
 6763SOL     OW20662   4.274   3.949   2.772
 6763SOL    HW120663   4.291   3.957   2.870
 6763SOL    HW220664   4.271   4.041   2.731
 6764SOL     OW20665   4.731   5.193   2.346
 6764SOL    HW120666   4.712   5.263   2.277
 6764SOL    HW220667   4.698   5.223   2.435
 6765SOL     OW20668   4.102   5.532   2.768
 6765SOL    HW120669   4.147   5.442   2.770
 6765SOL    HW220670   4.165   5.601   2.803
 6766SOL     OW20671   5.516   4.818   2.759
 6766SOL    HW120672   5.488   4.863   2.674
 6766SOL    HW220673   5.438   4.811   2.821
 6767SOL     OW20674   4.911   5.261   3.373
 6767SOL    HW120675   4.900   5.192   3.444
 6767SOL    HW220676   4.850   5.239   3.296
 6768SOL     OW20677   4.025   4.655   2.136
 6768SOL    HW120678   4.112   4.679   2.093
 6768SOL    HW220679   4.000   4.561   2.110
 6769SOL     OW20680   5.177   4.501   2.563
 6769SOL    HW120681   5.174   4.454   2.651
 6769SOL    HW220682   5.264   4.550   2.555
 6770SOL     OW20683   4.222   5.026   3.600
 6770SOL    HW120684   4.195   5.042   3.505
 6770SOL    HW220685   4.144   4.992   3.652
 6771SOL     OW20686   4.891   5.492   2.098
 6771SOL    HW120687   4.801   5.470   2.135
 6771SOL    HW220688   4.918   5.421   2.033
 6772SOL     OW20689   3.954   3.951   3.363
 6772SOL    HW120690   3.929   4.018   3.433
 6772SOL    HW220691   3.913   3.863   3.387
 6773SOL     OW20692   5.356   5.105   1.950
 6773SOL    HW120693   5.336   5.203   1.940
 6773SOL    HW220694   5.274   5.052   1.928
 6774SOL     OW20695   4.209   5.478   2.175
 6774SOL    HW120696   4.251   5.533   2.247
 6774SOL    HW220697   4.280   5.435   2.119
 6775SOL     OW20698   5.119   3.829   2.311
 6775SOL    HW120699   5.121   3.804   2.214
 6775SOL    HW220700   5.209   3.813   2.351
 6776SOL     OW20701   3.971   5.514   3.075
 6776SOL    HW120702   4.023   5.434   3.105
 6776SOL    HW220703   3.931   5.496   2.985
 6777SOL     OW20704   4.694   5.418   2.764
 6777SOL    HW120705   4.782   5.371   2.774
 6777SOL    HW220706   4.642   5.377   2.689
 6778SOL     OW20707   4.112   4.407   2.338
 6778SOL    HW120708   4.119   4.308   2.350
 6778SOL    HW220709   4.018   4.436   2.356
 6779SOL     OW20710   5.199   3.942   3.585
 6779SOL    HW120711   5.217   3.966   3.681
 6779SOL    HW220712   5.124   3.876   3.581
 6780SOL     OW20713   4.384   3.838   1.984
 6780SOL    HW120714   4.433   3.756   2.014
 6780SOL    HW220715   4.318   3.813   1.913
 6781SOL     OW20716   4.496   3.973   3.608
 6781SOL    HW120717   4.584   3.926   3.606
 6781SOL    HW220718   4.439   3.935   3.682
 6782SOL     OW20719   4.579   5.230   3.031
 6782SOL    HW120720   4.557   5.178   2.948
 6782SOL    HW220721   4.646   5.179   3.086
 6783SOL     OW20722   5.037   4.311   3.283
 6783SOL    HW120723   5.070   4.282   3.373
 6783SOL    HW220724   5.069   4.404   3.264
 6784SOL     OW20725   4.524   5.079   2.794
 6784SOL    HW120726   4.618   5.083   2.762
 6784SOL    HW220727   4.462   5.103   2.718
 6785SOL     OW20728   4.652   4.232   2.737
 6785SOL    HW120729   4.627   4.225   2.640
 6785SOL    HW220730   4.693   4.147   2.767
 6786SOL     OW20731   4.293   3.803   2.365
 6786SOL    HW120732   4.219   3.800   2.432
 6786SOL    HW220733   4.282   3.882   2.305
 6787SOL     OW20734   5.134   4.946   1.907
 6787SOL    HW120735   5.184   4.879   1.962
 6787SOL    HW220736   5.051   4.973   1.955
 6788SOL     OW20737   4.023   3.795   2.036
 6788SOL    HW120738   4.069   3.872   1.990
 6788SOL    HW220739   4.091   3.741   2.085
 6789SOL     OW20740   4.692   3.977   2.302
 6789SOL    HW120741   4.651   4.011   2.218
 6789SOL    HW220742   4.790   3.998   2.304
 6790SOL     OW20743   4.780   4.419   3.289
 6790SOL    HW120744   4.704   4.356   3.303
 6790SOL    HW220745   4.866   4.368   3.283
 6791SOL     OW20746   4.944   5.294   2.659
 6791SOL    HW120747   4.957   5.367   2.592
 6791SOL    HW220748   5.033   5.260   2.688
 6792SOL     OW20749   4.227   4.882   2.547
 6792SOL    HW120750   4.166   4.855   2.621
 6792SOL    HW220751   4.178   4.879   2.460
 6793SOL     OW20752   4.979   5.508   2.481
 6793SOL    HW120753   5.027   5.568   2.418
 6793SOL    HW220754   4.903   5.557   2.524
 6794SOL     OW20755   4.748   4.208   1.911
 6794SOL    HW120756   4.716   4.295   1.873
 6794SOL    HW220757   4.817   4.226   1.981
 6795SOL     OW20758   3.833   4.300   3.230
 6795SOL    HW120759   3.929   4.284   3.207
 6795SOL    HW220760   3.826   4.376   3.296
 6796SOL     OW20761   4.309   3.943   3.042
 6796SOL    HW120762   4.321   3.847   3.064
 6796SOL    HW220763   4.254   3.988   3.112
 6797SOL     OW20764   4.597   4.179   2.476
 6797SOL    HW120765   4.550   4.236   2.409
 6797SOL    HW220766   4.637   4.099   2.431
 6798SOL     OW20767   4.759   3.791   2.587
 6798SOL    HW120768   4.700   3.803   2.507
 6798SOL    HW220769   4.722   3.719   2.645
 6799SOL     OW20770   5.114   4.894   2.704
 6799SOL    HW120771   5.021   4.861   2.714
 6799SOL    HW220772   5.142   4.888   2.608
 6800SOL     OW20773   5.177   4.355   2.797
 6800SOL    HW120774   5.116   4.277   2.809
 6800SOL    HW220775   5.246   4.355   2.869
 6801SOL     OW20776   5.519   4.490   2.240
 6801SOL    HW120777   5.587   4.470   2.312
 6801SOL    HW220778   5.524   4.419   2.170
 6802SOL     OW20779   4.235   5.151   2.015
 6802SOL    HW120780   4.154   5.124   2.067
 6802SOL    HW220781   4.233   5.107   1.925
 6803SOL     OW20782   5.483   4.977   2.534
 6803SOL    HW120783   5.582   4.988   2.529
 6803SOL    HW220784   5.440   5.068   2.538
 6804SOL     OW20785   5.110   4.297   1.916
 6804SOL    HW120786   5.061   4.269   1.999
 6804SOL    HW220787   5.208   4.283   1.929
 6805SOL     OW20788   4.250   3.995   2.176
 6805SOL    HW120789   4.303   3.944   2.109
 6805SOL    HW220790   4.218   4.081   2.135
 6806SOL     OW20791   5.458   4.958   3.381
 6806SOL    HW120792   5.549   4.919   3.364
 6806SOL    HW220793   5.469   5.051   3.418
 6807SOL     OW20794   4.747   5.073   3.203
 6807SOL    HW120795   4.662   5.043   3.247
 6807SOL    HW220796   4.824   5.025   3.245
 6808SOL     OW20797   5.347   5.372   3.536
 6808SOL    HW120798   5.321   5.410   3.447
 6808SOL    HW220799   5.422   5.307   3.524
 6809SOL     OW20800   4.870   4.995   2.971
 6809SOL    HW120801   4.811   5.020   3.047
 6809SOL    HW220802   4.828   5.023   2.885
 6810SOL     OW20803   5.297   4.825   2.928
 6810SOL    HW120804   5.286   4.888   3.005
 6810SOL    HW220805   5.221   4.838   2.864
 6811SOL     OW20806   4.650   3.801   3.223
 6811SOL    HW120807   4.668   3.787   3.126
 6811SOL    HW220808   4.731   3.839   3.267
 6812SOL     OW20809   4.692   4.840   3.591
 6812SOL    HW120810   4.598   4.858   3.621
 6812SOL    HW220811   4.696   4.752   3.545
 6813SOL     OW20812   4.451   4.778   2.265
 6813SOL    HW120813   4.433   4.745   2.358
 6813SOL    HW220814   4.535   4.736   2.231
 6814SOL     OW20815   4.180   4.524   3.129
 6814SOL    HW120816   4.247   4.532   3.203
 6814SOL    HW220817   4.140   4.432   3.129
 6815SOL     OW20818   5.004   4.074   3.152
 6815SOL    HW120819   5.026   4.160   3.199
 6815SOL    HW220820   4.913   4.081   3.112
 6816SOL     OW20821   3.802   5.281   3.214
 6816SOL    HW120822   3.755   5.345   3.153
 6816SOL    HW220823   3.901   5.293   3.204
 6817SOL     OW20824   4.062   4.866   2.322
 6817SOL    HW120825   4.056   4.940   2.255
 6817SOL    HW220826   4.050   4.778   2.275
 6818SOL     OW20827   4.263   4.227   2.718
 6818SOL    HW120828   4.270   4.288   2.640
 6818SOL    HW220829   4.329   4.255   2.788
 6819SOL     OW20830   4.986   5.095   2.290
 6819SOL    HW120831   5.051   5.166   2.316
 6819SOL    HW220832   4.894   5.121   2.319
 6820SOL     OW20833   5.046   5.203   3.004
 6820SOL    HW120834   5.089   5.209   3.094
 6820SOL    HW220835   4.984   5.124   3.002
 6821SOL     OW20836   5.302   4.350   2.363
 6821SOL    HW120837   5.235   4.404   2.412
 6821SOL    HW220838   5.370   4.410   2.322
 6822SOL     OW20839   4.074   5.263   3.156
 6822SOL    HW120840   4.070   5.204   3.076
 6822SOL    HW220841   4.170   5.286   3.175
 6823SOL     OW20842   4.233   4.415   3.537
 6823SOL    HW120843   4.267   4.464   3.457
 6823SOL    HW220844   4.299   4.345   3.564
 6824SOL     OW20845   5.338   4.516   3.549
 6824SOL    HW120846   5.243   4.548   3.544
 6824SOL    HW220847   5.389   4.552   3.471
 6825SOL     OW20848   4.729   3.839   3.614
 6825SOL    HW120849   4.787   3.920   3.603
 6825SOL    HW220850   4.779   3.758   3.583
 6826SOL     OW20851   4.228   3.779   3.630
 6826SOL    HW120852   4.176   3.721   3.568
 6826SOL    HW220853   4.173   3.859   3.654
 6827SOL     OW20854   4.313   4.588   2.896
 6827SOL    HW120855   4.351   4.680   2.895
 6827SOL    HW220856   4.265   4.572   2.982
 6828SOL     OW20857   5.002   4.570   2.869
 6828SOL    HW120858   4.911   4.539   2.842
 6828SOL    HW220859   5.069   4.501   2.842
 6829SOL     OW20860   4.925   4.248   2.121
 6829SOL    HW120861   4.945   4.170   2.181
 6829SOL    HW220862   4.876   4.318   2.173
 6830SOL     OW20863   4.005   3.866   3.102
 6830SOL    HW120864   3.969   3.911   3.184
 6830SOL    HW220865   4.084   3.811   3.127
 6831SOL     OW20866   3.803   5.021   3.128
 6831SOL    HW120867   3.839   4.963   3.201
 6831SOL    HW220868   3.797   5.115   3.160
 6832SOL     OW20869   4.444   4.338   2.894
 6832SOL    HW120870   4.518   4.319   2.829
 6832SOL    HW220871   4.409   4.430   2.878
 6833SOL     OW20872   5.477   4.692   3.715
 6833SOL    HW120873   5.428   4.621   3.665
 6833SOL    HW220874   5.423   4.720   3.794
 6834SOL     OW20875   4.061   3.789   2.520
 6834SOL    HW120876   4.021   3.880   2.531
 6834SOL    HW220877   4.084   3.751   2.610
 6835SOL     OW20878   5.337   4.123   2.209
 6835SOL    HW120879   5.391   4.061   2.265
 6835SOL    HW220880   5.306   4.200   2.265
 6836SOL     OW20881   4.741   4.479   2.814
 6836SOL    HW120882   4.715   4.495   2.909
 6836SOL    HW220883   4.717   4.385   2.788
 6837SOL     OW20884   4.718   5.282   3.653
 6837SOL    HW120885   4.687   5.345   3.581
 6837SOL    HW220886   4.755   5.199   3.611
 6838SOL     OW20887   5.558   5.213   3.447
 6838SOL    HW120888   5.573   5.247   3.355
 6838SOL    HW220889   5.642   5.221   3.500
 6839SOL     OW20890   4.136   4.622   3.694
 6839SOL    HW120891   4.200   4.651   3.764
 6839SOL    HW220892   4.174   4.546   3.642
 6840SOL     OW20893   5.245   3.991   1.984
 6840SOL    HW120894   5.199   3.908   2.015
 6840SOL    HW220895   5.275   4.044   2.063
 6841SOL     OW20896   5.009   4.545   1.877
 6841SOL    HW120897   5.042   4.451   1.889
 6841SOL    HW220898   5.046   4.582   1.791
 6842SOL     OW20899   4.784   5.082   2.723
 6842SOL    HW120900   4.811   4.996   2.679
 6842SOL    HW220901   4.841   5.156   2.688
 6843SOL     OW20902   4.051   4.531   2.795
 6843SOL    HW120903   4.149   4.547   2.807
 6843SOL    HW220904   4.030   4.435   2.815
 6844SOL     OW20905   4.030   4.242   2.857
 6844SOL    HW120906   3.989   4.151   2.860
 6844SOL    HW220907   4.111   4.239   2.799
 6845SOL     OW20908   4.862   4.072   3.556
 6845SOL    HW120909   4.810   4.118   3.629
 6845SOL    HW220910   4.945   4.124   3.537
 6846SOL     OW20911   4.885   3.901   3.336
 6846SOL    HW120912   4.867   3.962   3.413
 6846SOL    HW220913   4.938   3.949   3.267
 6847SOL     OW20914   3.757   4.997   2.032
 6847SOL    HW120915   3.665   5.030   2.008
 6847SOL    HW220916   3.750   4.908   2.077
 6848SOL     OW20917   3.841   5.470   2.825
 6848SOL    HW120918   3.805   5.397   2.767
 6848SOL    HW220919   3.932   5.496   2.792
 6849SOL     OW20920   4.230   5.285   2.770
 6849SOL    HW120921   4.303   5.347   2.799
 6849SOL    HW220922   4.264   5.226   2.697
 6850SOL     OW20923   4.645   4.515   3.067
 6850SOL    HW120924   4.705   4.493   3.144
 6850SOL    HW220925   4.561   4.460   3.073
 6851SOL     OW20926   3.778   4.320   2.961
 6851SOL    HW120927   3.862   4.301   2.910
 6851SOL    HW220928   3.798   4.322   3.059
 6852SOL     OW20929   3.966   4.349   3.576
 6852SOL    HW120930   4.063   4.370   3.562
 6852SOL    HW220931   3.911   4.406   3.515
 6853SOL     OW20932   5.100   4.643   3.489
 6853SOL    HW120933   5.126   4.740   3.488
 6853SOL    HW220934   5.091   4.610   3.395
 6854SOL     OW20935   4.523   4.291   2.229
 6854SOL    HW120936   4.529   4.210   2.171
 6854SOL    HW220937   4.447   4.348   2.199
 6855SOL     OW20938   5.368   4.345   2.994
 6855SOL    HW120939   5.342   4.276   3.061
 6855SOL    HW220940   5.467   4.345   2.982
 6856SOL     OW20941   3.955   5.239   3.601
 6856SOL    HW120942   3.915   5.262   3.689
 6856SOL    HW220943   3.990   5.145   3.603
 6857SOL     OW20944   4.488   4.149   3.086
 6857SOL    HW120945   4.431   4.068   3.071
 6857SOL    HW220946   4.466   4.219   3.018
 6858SOL     OW20947   4.592   5.423   3.429
 6858SOL    HW120948   4.543   5.355   3.375
 6858SOL    HW220949   4.625   5.496   3.368
 6859SOL     OW20950   4.167   4.223   2.043
 6859SOL    HW120951   4.238   4.290   2.064
 6859SOL    HW220952   4.077   4.266   2.049
 6860SOL     OW20953   3.895   4.851   3.328
 6860SOL    HW120954   3.910   4.806   3.416
 6860SOL    HW220955   3.920   4.788   3.254
 6861SOL     OW20956   4.987   4.762   3.061
 6861SOL    HW120957   4.996   4.693   2.989
 6861SOL    HW220958   4.946   4.845   3.022
 6862SOL     OW20959   5.067   4.627   2.135
 6862SOL    HW120960   4.998   4.602   2.202
 6862SOL    HW220961   5.039   4.595   2.044
 6863SOL     OW20962   5.469   5.427   3.006
 6863SOL    HW120963   5.540   5.454   2.940
 6863SOL    HW220964   5.436   5.336   2.984
 6864SOL     OW20965   5.001   5.478   2.992
 6864SOL    HW120966   5.090   5.520   2.976
 6864SOL    HW220967   5.011   5.378   2.994
 6865SOL     OW20968   3.873   4.947   2.880
 6865SOL    HW120969   3.845   4.974   2.972
 6865SOL    HW220970   3.796   4.901   2.834
 6866SOL     OW20971   4.423   5.453   3.642
 6866SOL    HW120972   4.350   5.520   3.626
 6866SOL    HW220973   4.489   5.458   3.567
 6867SOL     OW20974   5.509   3.954   2.338
 6867SOL    HW120975   5.566   3.927   2.261
 6867SOL    HW220976   5.457   3.876   2.371
 6868SOL     OW20977   5.156   5.301   2.376
 6868SOL    HW120978   5.213   5.334   2.302
 6868SOL    HW220979   5.092   5.372   2.404
 6869SOL     OW20980   3.840   5.530   3.706
 6869SOL    HW120981   3.817   5.439   3.737
 6869SOL    HW220982   3.907   5.571   3.768
 6870SOL     OW20983   4.988   4.669   2.474
 6870SOL    HW120984   5.058   4.604   2.506
 6870SOL    HW220985   5.033   4.750   2.437
 6871SOL     OW20986   4.498   4.999   3.299
 6871SOL    HW120987   4.480   5.060   3.376
 6871SOL    HW220988   4.422   5.003   3.234
 6872SOL     OW20989   4.413   5.354   2.033
 6872SOL    HW120990   4.425   5.388   1.939
 6872SOL    HW220991   4.356   5.272   2.032
 6873SOL     OW20992   5.325   5.454   3.262
 6873SOL    HW120993   5.375   5.449   3.176
 6873SOL    HW220994   5.323   5.549   3.293
 6874SOL     OW20995   5.573   3.889   2.809
 6874SOL    HW120996   5.604   3.797   2.786
 6874SOL    HW220997   5.488   3.909   2.761
 6875SOL     OW20998   3.960   4.029   2.591
 6875SOL    HW120999   3.884   4.087   2.560
 6875SOL    HW221000   3.956   4.019   2.690
 6876SOL     OW21001   4.962   5.298   1.919
 6876SOL    HW121002   4.952   5.207   1.960
 6876SOL    HW221003   4.883   5.317   1.861
 6877SOL     OW21004   4.540   4.727   3.274
 6877SOL    HW121005   4.583   4.711   3.184
 6877SOL    HW221006   4.528   4.825   3.287
 6878SOL     OW21007   4.675   4.655   2.182
 6878SOL    HW121008   4.706   4.662   2.088
 6878SOL    HW221009   4.709   4.571   2.223
 6879SOL     OW21010   5.231   5.376   1.925
 6879SOL    HW121011   5.136   5.347   1.914
 6879SOL    HW221012   5.274   5.383   1.836
 6880SOL     OW21013   4.091   5.058   3.364
 6880SOL    HW121014   4.085   5.130   3.295
 6880SOL    HW221015   4.025   4.986   3.343
 6881SOL     OW21016   5.301   5.007   3.150
 6881SOL    HW121017   5.365   4.978   3.220
 6881SOL    HW221018   5.240   5.078   3.187
 6882SOL     OW21019   4.842   4.827   2.647
 6882SOL    HW121020   4.754   4.788   2.675
 6882SOL    HW221021   4.884   4.768   2.578
 6883SOL     OW21022   4.780   3.974   2.804
 6883SOL    HW121023   4.783   3.939   2.710
 6883SOL    HW221024   4.764   3.898   2.868
 6884SOL     OW21025   4.337   5.231   2.330
 6884SOL    HW121026   4.395   5.169   2.278
 6884SOL    HW221027   4.264   5.266   2.271
 6885SOL     OW21028   5.491   4.062   3.270
 6885SOL    HW121029   5.565   4.130   3.266
 6885SOL    HW221030   5.491   4.008   3.186
 6886SOL     OW21031   4.005   5.071   2.143
 6886SOL    HW121032   3.918   5.051   2.099
 6886SOL    HW221033   3.989   5.124   2.226
 6887SOL     OW21034   3.915   4.719   3.570
 6887SOL    HW121035   3.830   4.704   3.621
 6887SOL    HW221036   3.992   4.680   3.621
 6888SOL     OW21037   4.419   3.905   3.348
 6888SOL    HW121038   4.502   3.874   3.301
 6888SOL    HW221039   4.442   3.931   3.442
 6889SOL     OW21040   3.842   4.084   1.816
 6889SOL    HW121041   3.754   4.075   1.770
 6889SOL    HW221042   3.878   4.176   1.802
 6890SOL     OW21043   5.110   4.572   3.224
 6890SOL    HW121044   5.048   4.632   3.174
 6890SOL    HW221045   5.202   4.579   3.185
 6891SOL     OW21046   3.781   3.910   2.079
 6891SOL    HW121047   3.768   3.976   2.005
 6891SOL    HW221048   3.871   3.868   2.070
 6892SOL     OW21049   4.904   5.047   2.022
 6892SOL    HW121050   4.805   5.035   2.014
 6892SOL    HW221051   4.929   5.051   2.119
 6893SOL     OW21052   4.373   4.517   3.319
 6893SOL    HW121053   4.425   4.602   3.310
 6893SOL    HW221054   4.435   4.439   3.319
 6894SOL     OW21055   5.247   5.590   2.947
 6894SOL    HW121056   5.269   5.645   2.866
 6894SOL    HW221057   5.327   5.535   2.972
 6895SOL     OW21058   4.453   4.246   3.575
 6895SOL    HW121059   4.509   4.305   3.633
 6895SOL    HW221060   4.471   4.150   3.596
 6896SOL     OW21061   5.188   4.904   3.476
 6896SOL    HW121062   5.179   4.922   3.574
 6896SOL    HW221063   5.280   4.928   3.445
 6897SOL     OW21064   4.069   5.473   3.482
 6897SOL    HW121065   3.986   5.522   3.454
 6897SOL    HW221066   4.043   5.385   3.522
 6898SOL     OW21067   5.352   4.606   3.095
 6898SOL    HW121068   5.362   4.519   3.046
 6898SOL    HW221069   5.337   4.679   3.028
 6899SOL     OW21070   4.955   4.050   2.311
 6899SOL    HW121071   5.019   3.973   2.313
 6899SOL    HW221072   4.965   4.104   2.395
 6900SOL     OW21073   4.295   4.437   2.543
 6900SOL    HW121074   4.346   4.523   2.538
 6900SOL    HW221075   4.230   4.432   2.468
 6901SOL     OW21076   5.454   4.073   3.544
 6901SOL    HW121077   5.468   4.073   3.445
 6901SOL    HW221078   5.377   4.013   3.567
 6902SOL     OW21079   5.458   4.647   3.345
 6902SOL    HW121080   5.450   4.745   3.366
 6902SOL    HW221081   5.427   4.631   3.251
 6903SOL     OW21082   4.621   5.069   1.970
 6903SOL    HW121083   4.575   5.079   2.058
 6903SOL    HW221084   4.629   5.159   1.926
 6904SOL     OW21085   4.411   5.481   2.815
 6904SOL    HW121086   4.388   5.578   2.823
 6904SOL    HW221087   4.510   5.470   2.820
 6905SOL     OW21088   4.606   4.711   2.736
 6905SOL    HW121089   4.649   4.627   2.768
 6905SOL    HW221090   4.551   4.750   2.810
 6906SOL     OW21091   4.767   4.651   1.928
 6906SOL    HW121092   4.747   4.726   1.865
 6906SOL    HW221093   4.858   4.615   1.909
 6907SOL     OW21094   5.593   5.254   2.711
 6907SOL    HW121095   5.510   5.241   2.658
 6907SOL    HW221096   5.618   5.168   2.756
 6908SOL     OW21097   3.977   4.964   3.688
 6908SOL    HW121098   3.957   4.879   3.639
 6908SOL    HW221099   3.908   4.978   3.759
 6909SOL     OW21100   3.906   4.958   2.534
 6909SOL    HW121101   3.946   4.910   2.612
 6909SOL    HW221102   3.953   4.929   2.450
 6910SOL     OW21103   4.435   5.174   3.504
 6910SOL    HW121104   4.360   5.123   3.546
 6910SOL    HW221105   4.453   5.257   3.557
 6911SOL     OW21106   5.454   3.893   3.054
 6911SOL    HW121107   5.458   3.796   3.077
 6911SOL    HW221108   5.502   3.908   2.968
 6912SOL     OW21109   4.119   4.143   2.385
 6912SOL    HW121110   4.165   4.076   2.326
 6912SOL    HW221111   4.077   4.096   2.462
 6913SOL     OW21112   5.383   5.181   2.950
 6913SOL    HW121113   5.316   5.167   2.877
 6913SOL    HW221114   5.369   5.113   3.021
 6914SOL     OW21115   4.085   4.268   3.131
 6914SOL    HW121116   4.134   4.195   3.178
 6914SOL    HW221117   4.079   4.247   3.033
 6915SOL     OW21118   4.570   5.335   2.536
 6915SOL    HW121119   4.558   5.418   2.481
 6915SOL    HW221120   4.487   5.279   2.532
 6916SOL     OW21121   5.200   3.994   2.975
 6916SOL    HW121122   5.285   3.959   3.015
 6916SOL    HW221123   5.135   4.014   3.048
 6917SOL     OW21124   4.735   3.741   2.954
 6917SOL    HW121125   4.688   3.680   2.889
 6917SOL    HW221126   4.824   3.703   2.978
 6918SOL     OW21127   4.516   5.050   2.224
 6918SOL    HW121128   4.491   4.954   2.240
 6918SOL    HW221129   4.597   5.072   2.279
 6919SOL     OW21130   4.348   5.291   3.163
 6919SOL    HW121131   4.340   5.375   3.216
 6919SOL    HW221132   4.435   5.291   3.112
 6920SOL     OW21133   5.127   3.751   2.046
 6920SOL    HW121134   5.180   3.681   1.998
 6920SOL    HW221135   5.035   3.717   2.063
 6921SOL     OW21136   4.965   4.197   2.540
 6921SOL    HW121137   4.920   4.286   2.539
 6921SOL    HW221138   4.995   4.176   2.633
 6922SOL     OW21139   5.328   3.958   2.721
 6922SOL    HW121140   5.269   3.967   2.800
 6922SOL    HW221141   5.324   4.042   2.667
 6923SOL     OW21142   3.763   4.747   2.165
 6923SOL    HW121143   3.861   4.730   2.153
 6923SOL    HW221144   3.715   4.660   2.176
 6924SOL     OW21145   4.639   5.403   2.190
 6924SOL    HW121146   4.561   5.381   2.132
 6924SOL    HW221147   4.611   5.468   2.261
 6925SOL     OW21148   3.932   4.294   3.847
 6925SOL    HW121149   3.836   4.286   3.873
 6925SOL    HW221150   3.939   4.328   3.753
 6926SOL     OW21151   3.946   3.986   4.703
 6926SOL    HW121152   3.986   3.959   4.790
 6926SOL    HW221153   3.857   3.943   4.692
 6927SOL     OW21154   3.699   4.115   4.332
 6927SOL    HW121155   3.634   4.107   4.408
 6927SOL    HW221156   3.673   4.192   4.275
 6928SOL     OW21157   4.326   5.026   4.944
 6928SOL    HW121158   4.241   5.027   4.890
 6928SOL    HW221159   4.352   5.120   4.966
 6929SOL     OW21160   5.342   5.208   4.442
 6929SOL    HW121161   5.279   5.184   4.517
 6929SOL    HW221162   5.289   5.239   4.363
 6930SOL     OW21163   4.843   4.438   4.377
 6930SOL    HW121164   4.879   4.529   4.394
 6930SOL    HW221165   4.783   4.411   4.453
 6931SOL     OW21166   5.522   4.289   3.929
 6931SOL    HW121167   5.479   4.300   3.839
 6931SOL    HW221168   5.465   4.230   3.986
 6932SOL     OW21169   4.455   4.841   4.784
 6932SOL    HW121170   4.406   4.889   4.856
 6932SOL    HW221171   4.499   4.907   4.723
 6933SOL     OW21172   4.628   4.428   5.539
 6933SOL    HW121173   4.643   4.492   5.615
 6933SOL    HW221174   4.643   4.475   5.452
 6934SOL     OW21175   4.442   4.678   4.373
 6934SOL    HW121176   4.507   4.669   4.448
 6934SOL    HW221177   4.376   4.749   4.394
 6935SOL     OW21178   4.480   4.885   5.538
 6935SOL    HW121179   4.534   4.954   5.587
 6935SOL    HW221180   4.394   4.926   5.508
 6936SOL     OW21181   4.111   5.108   4.786
 6936SOL    HW121182   4.066   5.038   4.731
 6936SOL    HW221183   4.158   5.173   4.725
 6937SOL     OW21184   5.166   5.214   5.104
 6937SOL    HW121185   5.228   5.292   5.112
 6937SOL    HW221186   5.086   5.228   5.162
 6938SOL     OW21187   4.197   4.084   5.158
 6938SOL    HW121188   4.277   4.026   5.175
 6938SOL    HW221189   4.115   4.038   5.193
 6939SOL     OW21190   5.288   4.183   4.487
 6939SOL    HW121191   5.214   4.190   4.420
 6939SOL    HW221192   5.265   4.239   4.567
 6940SOL     OW21193   3.994   5.462   4.179
 6940SOL    HW121194   4.012   5.526   4.254
 6940SOL    HW221195   4.072   5.462   4.116
 6941SOL     OW21196   4.863   5.054   5.416
 6941SOL    HW121197   4.903   5.051   5.508
 6941SOL    HW221198   4.818   4.967   5.396
 6942SOL     OW21199   3.885   5.226   4.258
 6942SOL    HW121200   3.926   5.313   4.232
 6942SOL    HW221201   3.885   5.218   4.358
 6943SOL     OW21202   4.070   4.781   4.619
 6943SOL    HW121203   4.083   4.682   4.623
 6943SOL    HW221204   4.012   4.811   4.695
 6944SOL     OW21205   4.286   5.522   5.117
 6944SOL    HW121206   4.213   5.508   5.183
 6944SOL    HW221207   4.344   5.598   5.147
 6945SOL     OW21208   4.325   4.704   3.891
 6945SOL    HW121209   4.363   4.757   3.815
 6945SOL    HW221210   4.375   4.726   3.975
 6946SOL     OW21211   5.304   3.831   5.157
 6946SOL    HW121212   5.221   3.824   5.101
 6946SOL    HW221213   5.281   3.873   5.245
 6947SOL     OW21214   3.859   4.387   4.246
 6947SOL    HW121215   3.875   4.290   4.266
 6947SOL    HW221216   3.869   4.440   4.330
 6948SOL     OW21217   5.597   5.475   4.049
 6948SOL    HW121218   5.671   5.465   4.114
 6948SOL    HW221219   5.602   5.565   4.005
 6949SOL     OW21220   3.815   5.282   3.833
 6949SOL    HW121221   3.789   5.188   3.855
 6949SOL    HW221222   3.795   5.341   3.911
 6950SOL     OW21223   5.405   4.618   4.386
 6950SOL    HW121224   5.497   4.603   4.420
 6950SOL    HW221225   5.408   4.678   4.306
 6951SOL     OW21226   5.395   4.827   4.183
 6951SOL    HW121227   5.476   4.806   4.128
 6951SOL    HW221228   5.421   4.886   4.260
 6952SOL     OW21229   3.858   4.460   5.279
 6952SOL    HW121230   3.945   4.507   5.291
 6952SOL    HW221231   3.784   4.527   5.274
 6953SOL     OW21232   4.367   5.126   4.425
 6953SOL    HW121233   4.335   5.032   4.441
 6953SOL    HW221234   4.350   5.151   4.330
 6954SOL     OW21235   4.977   4.947   5.135
 6954SOL    HW121236   4.999   4.875   5.069
 6954SOL    HW221237   5.047   4.949   5.206
 6955SOL     OW21238   4.551   3.729   4.254
 6955SOL    HW121239   4.601   3.810   4.225
 6955SOL    HW221240   4.453   3.744   4.244
 6956SOL     OW21241   3.910   4.673   5.010
 6956SOL    HW121242   3.993   4.619   4.994
 6956SOL    HW221243   3.830   4.615   4.996
 6957SOL     OW21244   5.285   4.765   3.924
 6957SOL    HW121245   5.213   4.698   3.943
 6957SOL    HW221246   5.323   4.798   4.011
 6958SOL     OW21247   4.912   5.504   5.353
 6958SOL    HW121248   4.929   5.581   5.292
 6958SOL    HW221249   4.917   5.419   5.302
 6959SOL     OW21250   4.095   3.990   5.599
 6959SOL    HW121251   4.129   4.076   5.636
 6959SOL    HW221252   3.998   4.001   5.574
 6960SOL     OW21253   5.158   5.134   4.635
 6960SOL    HW121254   5.109   5.162   4.717
 6960SOL    HW221255   5.143   5.036   4.619
 6961SOL     OW21256   5.378   5.566   4.265
 6961SOL    HW121257   5.367   5.499   4.191
 6961SOL    HW221258   5.401   5.518   4.350
 6962SOL     OW21259   4.324   4.418   3.972
 6962SOL    HW121260   4.338   4.509   3.933
 6962SOL    HW221261   4.251   4.422   4.040
 6963SOL     OW21262   4.985   4.089   4.601
 6963SOL    HW121263   4.897   4.044   4.617
 6963SOL    HW221264   5.047   4.067   4.676
 6964SOL     OW21265   5.333   5.397   4.049
 6964SOL    HW121266   5.432   5.412   4.041
 6964SOL    HW221267   5.294   5.385   3.958
 6965SOL     OW21268   4.452   4.325   5.138
 6965SOL    HW121269   4.454   4.290   5.232
 6965SOL    HW221270   4.455   4.249   5.074
 6966SOL     OW21271   5.108   4.194   5.355
 6966SOL    HW121272   5.115   4.239   5.444
 6966SOL    HW221273   5.151   4.104   5.358
 6967SOL     OW21274   4.675   4.566   5.307
 6967SOL    HW121275   4.722   4.493   5.258
 6967SOL    HW221276   4.618   4.618   5.243
 6968SOL     OW21277   4.744   4.167   4.871
 6968SOL    HW121278   4.655   4.164   4.916
 6968SOL    HW221279   4.753   4.089   4.809
 6969SOL     OW21280   4.770   4.411   4.113
 6969SOL    HW121281   4.797   4.421   4.209
 6969SOL    HW221282   4.685   4.360   4.108
 6970SOL     OW21283   3.901   4.519   4.473
 6970SOL    HW121284   3.981   4.517   4.533
 6970SOL    HW221285   3.821   4.552   4.523
 6971SOL     OW21286   3.837   5.600   5.322
 6971SOL    HW121287   3.850   5.575   5.418
 6971SOL    HW221288   3.741   5.589   5.296
 6972SOL     OW21289   4.578   4.041   3.931
 6972SOL    HW121290   4.636   4.083   3.861
 6972SOL    HW221291   4.520   3.971   3.889
 6973SOL     OW21292   5.405   4.299   5.545
 6973SOL    HW121293   5.383   4.381   5.492
 6973SOL    HW221294   5.425   4.223   5.483
 6974SOL     OW21295   5.131   4.881   4.301
 6974SOL    HW121296   5.214   4.856   4.251
 6974SOL    HW221297   5.082   4.952   4.250
 6975SOL     OW21298   4.251   3.855   4.657
 6975SOL    HW121299   4.273   3.883   4.751
 6975SOL    HW221300   4.243   3.935   4.599
 6976SOL     OW21301   4.743   5.192   4.212
 6976SOL    HW121302   4.721   5.260   4.142
 6976SOL    HW221303   4.709   5.223   4.301
 6977SOL     OW21304   4.108   5.525   4.654
 6977SOL    HW121305   4.160   5.440   4.643
 6977SOL    HW221306   4.170   5.600   4.676
 6978SOL     OW21307   5.536   4.816   4.617
 6978SOL    HW121308   5.499   4.859   4.534
 6978SOL    HW221309   5.464   4.808   4.686
 6979SOL     OW21310   4.920   5.249   5.229
 6979SOL    HW121311   4.913   5.175   5.295
 6979SOL    HW221312   4.862   5.228   5.150
 6980SOL     OW21313   4.091   4.677   4.051
 6980SOL    HW121314   4.164   4.693   3.984
 6980SOL    HW221315   4.098   4.584   4.087
 6981SOL     OW21316   5.177   4.498   4.459
 6981SOL    HW121317   5.186   4.445   4.543
 6981SOL    HW221318   5.263   4.544   4.438
 6982SOL     OW21319   4.227   4.990   5.468
 6982SOL    HW121320   4.210   5.000   5.370
 6982SOL    HW221321   4.142   4.963   5.514
 6983SOL     OW21322   4.897   5.485   3.958
 6983SOL    HW121323   4.807   5.465   3.997
 6983SOL    HW221324   4.923   5.411   3.895
 6984SOL     OW21325   3.950   3.971   5.209
 6984SOL    HW121326   3.895   4.054   5.214
 6984SOL    HW221327   3.906   3.898   5.262
 6985SOL     OW21328   5.357   5.113   3.817
 6985SOL    HW121329   5.326   5.208   3.807
 6985SOL    HW221330   5.284   5.052   3.785
 6986SOL     OW21331   4.219   5.501   4.024
 6986SOL    HW121332   4.262   5.553   4.097
 6986SOL    HW221333   4.289   5.447   3.976
 6987SOL     OW21334   5.106   3.824   4.163
 6987SOL    HW121335   5.114   3.799   4.066
 6987SOL    HW221336   5.193   3.806   4.209
 6988SOL     OW21337   4.009   5.492   4.926
 6988SOL    HW121338   4.049   5.410   4.966
 6988SOL    HW221339   4.038   5.500   4.830
 6989SOL     OW21340   4.700   5.421   4.621
 6989SOL    HW121341   4.792   5.381   4.620
 6989SOL    HW221342   4.644   5.379   4.549
 6990SOL     OW21343   4.120   4.407   4.161
 6990SOL    HW121344   4.138   4.310   4.175
 6990SOL    HW221345   4.024   4.427   4.181
 6991SOL     OW21346   5.211   3.936   5.401
 6991SOL    HW121347   5.223   3.950   5.499
 6991SOL    HW221348   5.137   3.871   5.385
 6992SOL     OW21349   4.396   3.836   3.839
 6992SOL    HW121350   4.440   3.751   3.870
 6992SOL    HW221351   4.325   3.814   3.772
 6993SOL     OW21352   4.513   3.983   5.447
 6993SOL    HW121353   4.601   3.945   5.420
 6993SOL    HW221354   4.479   3.934   5.528
 6994SOL     OW21355   4.591   5.218   4.865
 6994SOL    HW121356   4.590   5.168   4.779
 6994SOL    HW221357   4.659   5.178   4.927
 6995SOL     OW21358   5.060   4.348   5.131
 6995SOL    HW121359   5.094   4.296   5.209
 6995SOL    HW221360   5.101   4.440   5.131
 6996SOL     OW21361   4.579   5.041   4.631
 6996SOL    HW121362   4.660   4.999   4.590
 6996SOL    HW221363   4.523   5.082   4.559
 6997SOL     OW21364   4.666   4.252   4.577
 6997SOL    HW121365   4.637   4.231   4.484
 6997SOL    HW221366   4.697   4.168   4.622
 6998SOL     OW21367   4.279   3.772   4.211
 6998SOL    HW121368   4.205   3.766   4.278
 6998SOL    HW221369   4.269   3.857   4.158
 6999SOL     OW21370   5.156   4.935   3.749
 6999SOL    HW121371   5.204   4.866   3.803
 6999SOL    HW221372   5.077   4.969   3.800
 7000SOL     OW21373   3.967   3.766   3.854
 7000SOL    HW121374   4.006   3.847   3.810
 7000SOL    HW221375   4.039   3.718   3.904
 7001SOL     OW21376   4.687   3.951   4.168
 7001SOL    HW121377   4.648   3.981   4.081
 7001SOL    HW221378   4.784   3.977   4.171
 7002SOL     OW21379   4.794   4.356   5.177
 7002SOL    HW121380   4.773   4.269   5.223
 7002SOL    HW221381   4.892   4.359   5.155
 7003SOL     OW21382   4.947   5.325   4.548
 7003SOL    HW121383   4.972   5.386   4.473
 7003SOL    HW221384   5.021   5.260   4.565
 7004SOL     OW21385   4.256   4.873   4.435
 7004SOL    HW121386   4.198   4.839   4.508
 7004SOL    HW221387   4.203   4.882   4.351
 7005SOL     OW21388   4.989   5.513   4.344
 7005SOL    HW121389   5.039   5.574   4.282
 7005SOL    HW221390   4.911   5.561   4.383
 7006SOL     OW21391   4.742   4.200   3.768
 7006SOL    HW121392   4.700   4.289   3.747
 7006SOL    HW221393   4.814   4.212   3.837
 7007SOL     OW21394   3.847   4.235   5.120
 7007SOL    HW121395   3.939   4.238   5.080
 7007SOL    HW221396   3.833   4.315   5.178
 7008SOL     OW21397   4.299   3.918   4.917
 7008SOL    HW121398   4.347   3.874   4.993
 7008SOL    HW221399   4.201   3.921   4.935
 7009SOL     OW21400   4.604   4.170   4.327
 7009SOL    HW121401   4.561   4.223   4.254
 7009SOL    HW221402   4.636   4.082   4.290
 7010SOL     OW21403   4.739   3.760   4.469
 7010SOL    HW121404   4.668   3.746   4.400
 7010SOL    HW221405   4.728   3.693   4.542
 7011SOL     OW21406   5.142   4.859   4.592
 7011SOL    HW121407   5.087   4.779   4.614
 7011SOL    HW221408   5.152   4.867   4.492
 7012SOL     OW21409   5.194   4.359   4.702
 7012SOL    HW121410   5.118   4.318   4.753
 7012SOL    HW221411   5.276   4.360   4.760
 7013SOL     OW21412   5.514   4.500   4.106
 7013SOL    HW121413   5.580   4.473   4.176
 7013SOL    HW221414   5.512   4.430   4.034
 7014SOL     OW21415   4.219   5.167   3.899
 7014SOL    HW121416   4.134   5.140   3.943
 7014SOL    HW221417   4.225   5.125   3.808
 7015SOL     OW21418   5.481   4.972   4.394
 7015SOL    HW121419   5.580   4.981   4.386
 7015SOL    HW221420   5.439   5.062   4.405
 7016SOL     OW21421   5.106   4.311   3.771
 7016SOL    HW121422   5.055   4.276   3.850
 7016SOL    HW221423   5.204   4.297   3.786
 7017SOL     OW21424   4.252   3.980   4.033
 7017SOL    HW121425   4.307   3.924   3.971
 7017SOL    HW221426   4.220   4.062   3.985
 7018SOL     OW21427   5.474   4.958   5.238
 7018SOL    HW121428   5.562   4.919   5.212
 7018SOL    HW221429   5.488   5.050   5.275
 7019SOL     OW21430   4.752   5.076   5.047
 7019SOL    HW121431   4.669   5.046   5.094
 7019SOL    HW221432   4.831   5.028   5.084
 7020SOL     OW21433   5.362   5.357   5.404
 7020SOL    HW121434   5.324   5.393   5.320
 7020SOL    HW221435   5.441   5.299   5.383
 7021SOL     OW21436   4.876   4.975   4.805
 7021SOL    HW121437   4.798   5.000   4.862
 7021SOL    HW221438   4.843   4.942   4.716
 7022SOL     OW21439   5.329   4.823   4.798
 7022SOL    HW121440   5.318   4.886   4.874
 7022SOL    HW221441   5.256   4.837   4.731
 7023SOL     OW21442   4.630   3.785   5.118
 7023SOL    HW121443   4.675   3.800   5.030
 7023SOL    HW221444   4.687   3.823   5.191
 7024SOL     OW21445   4.722   4.812   5.428
 7024SOL    HW121446   4.630   4.840   5.455
 7024SOL    HW221447   4.718   4.726   5.378
 7025SOL     OW21448   4.492   4.756   4.108
 7025SOL    HW121449   4.479   4.721   4.201
 7025SOL    HW221450   4.555   4.696   4.058
 7026SOL     OW21451   4.144   4.531   4.989
 7026SOL    HW121452   4.205   4.550   5.067
 7026SOL    HW221453   4.120   4.434   4.988
 7027SOL     OW21454   5.000   4.270   4.879
 7027SOL    HW121455   5.022   4.300   4.972
 7027SOL    HW221456   4.904   4.240   4.875
 7028SOL     OW21457   3.850   5.294   5.169
 7028SOL    HW121458   3.807   5.378   5.137
 7028SOL    HW221459   3.943   5.286   5.132
 7029SOL     OW21460   4.090   4.898   4.216
 7029SOL    HW121461   4.072   4.974   4.152
 7029SOL    HW221462   4.089   4.812   4.165
 7030SOL     OW21463   4.266   4.221   4.554
 7030SOL    HW121464   4.275   4.281   4.475
 7030SOL    HW221465   4.336   4.245   4.622
 7031SOL     OW21466   4.996   5.089   4.164
 7031SOL    HW121467   5.061   5.161   4.189
 7031SOL    HW221468   4.904   5.118   4.187
 7032SOL     OW21469   5.034   5.194   4.865
 7032SOL    HW121470   5.079   5.193   4.955
 7032SOL    HW221471   4.972   5.116   4.858
 7033SOL     OW21472   5.278   4.369   4.211
 7033SOL    HW121473   5.227   4.402   4.291
 7033SOL    HW221474   5.349   4.434   4.187
 7034SOL     OW21475   4.091   5.241   5.026
 7034SOL    HW121476   4.080   5.190   4.941
 7034SOL    HW221477   4.187   5.264   5.039
 7035SOL     OW21478   4.199   4.386   5.375
 7035SOL    HW121479   4.229   4.455   5.309
 7035SOL    HW221480   4.274   4.325   5.397
 7036SOL     OW21481   5.341   4.521   5.405
 7036SOL    HW121482   5.250   4.562   5.405
 7036SOL    HW221483   5.394   4.557   5.328
 7037SOL     OW21484   4.752   3.873   5.348
 7037SOL    HW121485   4.792   3.964   5.344
 7037SOL    HW221486   4.825   3.804   5.346
 7038SOL     OW21487   4.235   3.772   5.497
 7038SOL    HW121488   4.179   3.712   5.440
 7038SOL    HW221489   4.183   3.855   5.518
 7039SOL     OW21490   4.338   4.579   4.792
 7039SOL    HW121491   4.374   4.672   4.791
 7039SOL    HW221492   4.271   4.570   4.866
 7040SOL     OW21493   5.007   4.585   4.725
 7040SOL    HW121494   4.914   4.547   4.719
 7040SOL    HW221495   5.074   4.511   4.713
 7041SOL     OW21496   4.927   4.238   3.970
 7041SOL    HW121497   4.944   4.161   4.031
 7041SOL    HW221498   4.877   4.309   4.020
 7042SOL     OW21499   4.029   3.898   4.952
 7042SOL    HW121500   3.997   3.932   5.041
 7042SOL    HW221501   4.005   3.801   4.943
 7043SOL     OW21502   3.776   5.036   5.108
 7043SOL    HW121503   3.825   4.967   5.161
 7043SOL    HW221504   3.795   5.127   5.146
 7044SOL     OW21505   4.443   4.323   4.735
 7044SOL    HW121506   4.525   4.316   4.678
 7044SOL    HW221507   4.421   4.419   4.750
 7045SOL     OW21508   5.482   4.700   5.562
 7045SOL    HW121509   5.441   4.627   5.508
 7045SOL    HW221510   5.416   4.731   5.631
 7046SOL     OW21511   4.064   3.760   4.384
 7046SOL    HW121512   4.019   3.849   4.389
 7046SOL    HW221513   4.062   3.717   4.474
 7047SOL     OW21514   5.330   4.143   4.063
 7047SOL    HW121515   5.376   4.077   4.122
 7047SOL    HW221516   5.297   4.220   4.119
 7048SOL     OW21517   4.745   4.476   4.721
 7048SOL    HW121518   4.714   4.474   4.816
 7048SOL    HW221519   4.732   4.386   4.679
 7049SOL     OW21520   4.708   5.277   5.477
 7049SOL    HW121521   4.675   5.338   5.405
 7049SOL    HW221522   4.755   5.199   5.436
 7050SOL     OW21523   5.573   5.211   5.301
 7050SOL    HW121524   5.588   5.244   5.208
 7050SOL    HW221525   5.656   5.226   5.355
 7051SOL     OW21526   4.097   4.580   5.543
 7051SOL    HW121527   4.178   4.622   5.584
 7051SOL    HW221528   4.124   4.500   5.490
 7052SOL     OW21529   5.238   3.999   3.844
 7052SOL    HW121530   5.193   3.917   3.878
 7052SOL    HW221531   5.268   4.055   3.921
 7053SOL     OW21532   4.991   4.556   3.726
 7053SOL    HW121533   5.025   4.462   3.737
 7053SOL    HW221534   5.022   4.592   3.637
 7054SOL     OW21535   4.105   4.510   4.655
 7054SOL    HW121536   4.199   4.526   4.686
 7054SOL    HW221537   4.076   4.418   4.682
 7055SOL     OW21538   4.051   4.235   4.714
 7055SOL    HW121539   4.001   4.148   4.709
 7055SOL    HW221540   4.128   4.233   4.651
 7056SOL     OW21541   4.839   4.130   5.354
 7056SOL    HW121542   4.809   4.152   5.447
 7056SOL    HW221543   4.935   4.154   5.344
 7057SOL     OW21544   3.785   4.992   3.875
 7057SOL    HW121545   3.692   5.009   3.842
 7057SOL    HW221546   3.789   4.901   3.918
 7058SOL     OW21547   3.853   5.465   4.556
 7058SOL    HW121548   3.851   5.366   4.549
 7058SOL    HW221549   3.942   5.494   4.592
 7059SOL     OW21550   4.251   5.284   4.624
 7059SOL    HW121551   4.322   5.350   4.651
 7059SOL    HW221552   4.285   5.227   4.549
 7060SOL     OW21553   4.642   4.474   4.977
 7060SOL    HW121554   4.713   4.436   5.038
 7060SOL    HW221555   4.553   4.438   5.004
 7061SOL     OW21556   3.785   4.266   4.845
 7061SOL    HW121557   3.865   4.279   4.787
 7061SOL    HW221558   3.814   4.258   4.940
 7062SOL     OW21559   3.948   4.258   5.443
 7062SOL    HW121560   4.045   4.271   5.422
 7062SOL    HW221561   3.893   4.323   5.390
 7063SOL     OW21562   5.110   4.667   5.370
 7063SOL    HW121563   5.130   4.766   5.370
 7063SOL    HW221564   5.104   4.634   5.276
 7064SOL     OW21565   4.536   4.274   4.076
 7064SOL    HW121566   4.543   4.188   4.025
 7064SOL    HW221567   4.460   4.328   4.040
 7065SOL     OW21568   5.409   4.354   4.879
 7065SOL    HW121569   5.403   4.293   4.958
 7065SOL    HW221570   5.505   4.367   4.854
 7066SOL     OW21571   4.053   5.255   5.444
 7066SOL    HW121572   4.086   5.252   5.539
 7066SOL    HW221573   4.037   5.162   5.412
 7067SOL     OW21574   4.468   4.141   4.936
 7067SOL    HW121575   4.408   4.062   4.926
 7067SOL    HW221576   4.452   4.205   4.860
 7068SOL     OW21577   4.604   5.417   5.248
 7068SOL    HW121578   4.574   5.349   5.180
 7068SOL    HW221579   4.647   5.494   5.200
 7069SOL     OW21580   4.179   4.193   3.881
 7069SOL    HW121581   4.245   4.267   3.896
 7069SOL    HW221582   4.086   4.231   3.878
 7070SOL     OW21583   3.927   4.837   5.225
 7070SOL    HW121584   3.905   4.789   5.310
 7070SOL    HW221585   3.923   4.772   5.149
 7071SOL     OW21586   5.009   4.769   4.923
 7071SOL    HW121587   5.013   4.695   4.855
 7071SOL    HW221588   4.967   4.850   4.882
 7072SOL     OW21589   5.081   4.597   3.984
 7072SOL    HW121590   5.046   4.530   4.050
 7072SOL    HW221591   5.040   4.580   3.895
 7073SOL     OW21592   5.480   5.413   4.863
 7073SOL    HW121593   5.550   5.441   4.798
 7073SOL    HW221594   5.444   5.324   4.838
 7074SOL     OW21595   5.011   5.473   4.876
 7074SOL    HW121596   5.101   5.510   4.854
 7074SOL    HW221597   5.012   5.373   4.867
 7075SOL     OW21598   3.912   4.873   4.816
 7075SOL    HW121599   3.919   4.817   4.899
 7075SOL    HW221600   3.877   4.963   4.840
 7076SOL     OW21601   4.395   5.440   5.422
 7076SOL    HW121602   4.339   5.522   5.417
 7076SOL    HW221603   4.472   5.449   5.359
 7077SOL     OW21604   5.485   3.957   4.193
 7077SOL    HW121605   5.546   3.929   4.118
 7077SOL    HW221606   5.436   3.878   4.228
 7078SOL     OW21607   5.161   5.301   4.245
 7078SOL    HW121608   5.216   5.334   4.168
 7078SOL    HW221609   5.097   5.373   4.273
 7079SOL     OW21610   3.894   5.520   5.569
 7079SOL    HW121611   3.878   5.425   5.597
 7079SOL    HW221612   3.944   5.568   5.641
 7080SOL     OW21613   4.978   4.681   4.413
 7080SOL    HW121614   5.046   4.611   4.435
 7080SOL    HW221615   5.021   4.752   4.356
 7081SOL     OW21616   4.509   5.000   5.154
 7081SOL    HW121617   4.484   5.058   5.232
 7081SOL    HW221618   4.435   5.002   5.087
 7082SOL     OW21619   4.420   5.359   3.896
 7082SOL    HW121620   4.431   5.390   3.802
 7082SOL    HW221621   4.360   5.279   3.898
 7083SOL     OW21622   5.342   5.423   5.114
 7083SOL    HW121623   5.387   5.417   5.025
 7083SOL    HW221624   5.361   5.511   5.156
 7084SOL     OW21625   5.538   3.872   4.754
 7084SOL    HW121626   5.577   3.787   4.718
 7084SOL    HW221627   5.452   3.891   4.708
 7085SOL     OW21628   3.948   4.009   4.419
 7085SOL    HW121629   3.860   4.045   4.387
 7085SOL    HW221630   3.951   4.013   4.518
 7086SOL     OW21631   4.966   5.283   3.785
 7086SOL    HW121632   4.959   5.191   3.824
 7086SOL    HW221633   4.885   5.302   3.729
 7087SOL     OW21634   4.535   4.724   5.133
 7087SOL    HW121635   4.577   4.703   5.045
 7087SOL    HW221636   4.533   4.824   5.146
 7088SOL     OW21637   4.657   4.600   3.948
 7088SOL    HW121638   4.721   4.665   3.908
 7088SOL    HW221639   4.706   4.536   4.006
 7089SOL     OW21640   5.231   5.374   3.787
 7089SOL    HW121641   5.136   5.343   3.778
 7089SOL    HW221642   5.273   5.382   3.696
 7090SOL     OW21643   4.122   5.031   5.224
 7090SOL    HW121644   4.108   5.098   5.152
 7090SOL    HW221645   4.054   4.958   5.215
 7091SOL     OW21646   5.316   5.003   5.010
 7091SOL    HW121647   5.380   4.978   5.082
 7091SOL    HW221648   5.251   5.071   5.045
 7092SOL     OW21649   4.791   4.861   4.562
 7092SOL    HW121650   4.718   4.793   4.573
 7092SOL    HW221651   4.864   4.823   4.506
 7093SOL     OW21652   4.743   3.972   4.660
 7093SOL    HW121653   4.739   3.917   4.577
 7093SOL    HW221654   4.742   3.911   4.740
 7094SOL     OW21655   4.338   5.180   4.161
 7094SOL    HW121656   4.417   5.128   4.129
 7094SOL    HW221657   4.275   5.195   4.085
 7095SOL     OW21658   5.477   4.196   5.113
 7095SOL    HW121659   5.566   4.241   5.119
 7095SOL    HW221660   5.488   4.105   5.073
 7096SOL     OW21661   3.993   5.091   4.041
 7096SOL    HW121662   3.918   5.055   3.985
 7096SOL    HW221663   3.956   5.143   4.117
 7097SOL     OW21664   3.872   4.717   5.476
 7097SOL    HW121665   3.789   4.680   5.518
 7097SOL    HW221666   3.951   4.663   5.505
 7098SOL     OW21667   4.403   3.902   5.205
 7098SOL    HW121668   4.486   3.862   5.166
 7098SOL    HW221669   4.424   3.940   5.296
 7099SOL     OW21670   3.865   4.100   3.574
 7099SOL    HW121671   3.766   4.103   3.557
 7099SOL    HW221672   3.901   4.193   3.579
 7100SOL     OW21673   5.141   4.609   5.104
 7100SOL    HW121674   5.081   4.665   5.047
 7100SOL    HW221675   5.233   4.607   5.065
 7101SOL     OW21676   3.725   3.833   3.967
 7101SOL    HW121677   3.679   3.899   3.908
 7101SOL    HW221678   3.819   3.819   3.934
 7102SOL     OW21679   4.944   5.026   3.894
 7102SOL    HW121680   4.886   4.945   3.884
 7102SOL    HW221681   4.962   5.042   3.991
 7103SOL     OW21682   4.324   4.554   5.189
 7103SOL    HW121683   4.387   4.631   5.183
 7103SOL    HW221684   4.373   4.469   5.170
 7104SOL     OW21685   5.256   5.577   4.811
 7104SOL    HW121686   5.273   5.631   4.729
 7104SOL    HW221687   5.337   5.523   4.834
 7105SOL     OW21688   4.446   4.254   5.409
 7105SOL    HW121689   4.504   4.313   5.465
 7105SOL    HW221690   4.469   4.158   5.426
 7106SOL     OW21691   5.192   4.929   5.326
 7106SOL    HW121692   5.181   4.955   5.422
 7106SOL    HW221693   5.286   4.946   5.298
 7107SOL     OW21694   4.085   5.486   5.301
 7107SOL    HW121695   3.993   5.525   5.296
 7107SOL    HW221696   4.082   5.399   5.351
 7108SOL     OW21697   5.379   4.613   4.970
 7108SOL    HW121698   5.390   4.523   4.928
 7108SOL    HW221699   5.369   4.682   4.899
 7109SOL     OW21700   4.948   4.046   4.168
 7109SOL    HW121701   5.008   3.965   4.167
 7109SOL    HW221702   4.978   4.108   4.240
 7110SOL     OW21703   4.306   4.429   4.373
 7110SOL    HW121704   4.360   4.513   4.371
 7110SOL    HW221705   4.237   4.431   4.300
 7111SOL     OW21706   5.454   4.091   5.372
 7111SOL    HW121707   5.454   4.131   5.280
 7111SOL    HW221708   5.379   4.026   5.380
 7112SOL     OW21709   5.479   4.660   5.218
 7112SOL    HW121710   5.463   4.757   5.239
 7112SOL    HW221711   5.453   4.642   5.123
 7113SOL     OW21712   4.579   5.078   3.808
 7113SOL    HW121713   4.575   5.077   3.907
 7113SOL    HW221714   4.626   5.162   3.777
 7114SOL     OW21715   4.420   5.488   4.674
 7114SOL    HW121716   4.395   5.585   4.684
 7114SOL    HW221717   4.519   5.478   4.681
 7115SOL     OW21718   4.597   4.676   4.605
 7115SOL    HW121719   4.651   4.601   4.644
 7115SOL    HW221720   4.540   4.716   4.676
 7116SOL     OW21721   4.832   4.767   3.814
 7116SOL    HW121722   4.781   4.801   3.735
 7116SOL    HW221723   4.894   4.694   3.784
 7117SOL     OW21724   5.596   5.252   4.573
 7117SOL    HW121725   5.508   5.237   4.529
 7117SOL    HW221726   5.626   5.168   4.618
 7118SOL     OW21727   3.968   4.960   5.549
 7118SOL    HW121728   3.945   4.868   5.516
 7118SOL    HW221729   3.895   4.994   5.607
 7119SOL     OW21730   3.939   4.943   4.440
 7119SOL    HW121731   3.975   4.877   4.505
 7119SOL    HW221732   3.989   4.935   4.354
 7120SOL     OW21733   4.416   5.167   5.354
 7120SOL    HW121734   4.346   5.116   5.403
 7120SOL    HW221735   4.409   5.264   5.378
 7121SOL     OW21736   5.514   3.947   5.021
 7121SOL    HW121737   5.441   3.894   5.064
 7121SOL    HW221738   5.527   3.915   4.927
 7122SOL     OW21739   4.115   4.141   4.226
 7122SOL    HW121740   4.166   4.075   4.171
 7122SOL    HW221741   4.069   4.093   4.301
 7123SOL     OW21742   5.380   5.174   4.802
 7123SOL    HW121743   5.306   5.159   4.736
 7123SOL    HW221744   5.372   5.107   4.876
 7124SOL     OW21745   4.085   4.265   4.990
 7124SOL    HW121746   4.141   4.203   5.044
 7124SOL    HW221747   4.091   4.241   4.894
 7125SOL     OW21748   4.571   5.328   4.399
 7125SOL    HW121749   4.554   5.409   4.342
 7125SOL    HW221750   4.491   5.269   4.398
 7126SOL     OW21751   5.132   4.037   4.828
 7126SOL    HW121752   5.104   3.963   4.889
 7126SOL    HW221753   5.092   4.123   4.860
 7127SOL     OW21754   4.751   3.796   4.869
 7127SOL    HW121755   4.740   3.713   4.815
 7127SOL    HW221756   4.842   3.798   4.910
 7128SOL     OW21757   4.552   5.031   4.080
 7128SOL    HW121758   4.536   4.933   4.093
 7128SOL    HW221759   4.629   5.060   4.136
 7129SOL     OW21760   4.363   5.291   4.999
 7129SOL    HW121761   4.349   5.383   5.035
 7129SOL    HW221762   4.447   5.290   4.944
 7130SOL     OW21763   5.119   3.754   3.897
 7130SOL    HW121764   5.174   3.682   3.855
 7130SOL    HW221765   5.027   3.720   3.915
 7131SOL     OW21766   5.023   4.216   4.368
 7131SOL    HW121767   4.970   4.301   4.366
 7131SOL    HW221768   5.007   4.169   4.455
 7132SOL     OW21769   5.300   3.943   4.639
 7132SOL    HW121770   5.246   3.979   4.716
 7132SOL    HW221771   5.304   4.012   4.567
 7133SOL     OW21772   3.819   4.737   3.988
 7133SOL    HW121773   3.917   4.731   4.007
 7133SOL    HW221774   3.776   4.649   4.004
 7134SOL     OW21775   4.646   5.399   4.055
 7134SOL    HW121776   4.570   5.379   3.994
 7134SOL    HW221777   4.618   5.465   4.123
 7135SOL     OW21778   3.924   4.322   5.710
 7135SOL    HW121779   3.832   4.307   5.745
 7135SOL    HW221780   3.925   4.308   5.611
 7136SOL     OW21781   3.901   4.023   0.021
 7136SOL    HW121782   3.953   3.983   0.096
 7136SOL    HW221783   3.806   3.993   0.026
 7137SOL     OW21784   3.703   4.117   6.177
 7137SOL    HW121785   3.628   4.147   6.236
 7137SOL    HW221786   3.670   4.049   6.112
 7138SOL     OW21787   5.249   5.172   6.302
 7138SOL    HW121788   5.197   5.090   6.327
 7138SOL    HW221789   5.203   5.220   6.228
 7139SOL     OW21790   4.917   4.383   6.207
 7139SOL    HW121791   4.962   4.468   6.182
 7139SOL    HW221792   4.834   4.403   6.260
 7140SOL     OW21793   5.532   4.286   5.782
 7140SOL    HW121794   5.496   4.301   5.690
 7140SOL    HW221795   5.480   4.212   5.826
 7141SOL     OW21796   4.495   4.899   0.195
 7141SOL    HW121797   4.415   4.850   0.158
 7141SOL    HW221798   4.519   4.973   0.133
 7142SOL     OW21799   4.424   4.549   6.048
 7142SOL    HW121800   4.508   4.570   5.997
 7142SOL    HW221801   4.395   4.631   6.098
 7143SOL     OW21802   5.302   4.259   6.246
 7143SOL    HW121803   5.218   4.206   6.255
 7143SOL    HW221804   5.306   4.300   6.155
 7144SOL     OW21805   3.941   5.443   5.993
 7144SOL    HW121806   3.913   5.529   6.035
 7144SOL    HW221807   4.037   5.450   5.965
 7145SOL     OW21808   3.842   5.190   6.014
 7145SOL    HW121809   3.882   5.282   6.010
 7145SOL    HW221810   3.757   5.193   6.066
 7146SOL     OW21811   3.981   5.058   0.070
 7146SOL    HW121812   3.983   4.979   0.131
 7146SOL    HW221813   3.976   5.142   0.124
 7147SOL     OW21814   4.330   4.679   5.655
 7147SOL    HW121815   4.398   4.731   5.604
 7147SOL    HW221816   4.285   4.738   5.722
 7148SOL     OW21817   3.778   4.382   6.163
 7148SOL    HW121818   3.760   4.284   6.152
 7148SOL    HW221819   3.725   4.417   6.240
 7149SOL     OW21820   5.603   5.466   5.920
 7149SOL    HW121821   5.683   5.455   5.979
 7149SOL    HW221822   5.599   5.560   5.887
 7150SOL     OW21823   3.806   5.277   5.671
 7150SOL    HW121824   3.798   5.187   5.714
 7150SOL    HW221825   3.762   5.346   5.729
 7151SOL     OW21826   5.428   4.657   6.145
 7151SOL    HW121827   5.477   4.592   6.087
 7151SOL    HW221828   5.404   4.738   6.091
 7152SOL     OW21829   5.393   4.866   5.967
 7152SOL    HW121830   5.478   4.835   5.926
 7152SOL    HW221831   5.411   4.943   6.028
 7153SOL     OW21832   4.285   5.207   6.444
 7153SOL    HW121833   4.240   5.122   6.416
 7153SOL    HW221834   4.225   5.257   0.006
 7154SOL     OW21835   4.569   3.763   6.062
 7154SOL    HW121836   4.622   3.847   6.049
 7154SOL    HW221837   4.472   3.786   6.074
 7155SOL     OW21838   5.273   4.751   5.748
 7155SOL    HW121839   5.221   4.671   5.781
 7155SOL    HW221840   5.311   4.800   5.826
 7156SOL     OW21841   5.389   5.552   6.155
 7156SOL    HW121842   5.367   5.491   6.079
 7156SOL    HW221843   5.406   5.498   6.237
 7157SOL     OW21844   4.340   4.439   5.805
 7157SOL    HW121845   4.342   4.514   5.740
 7157SOL    HW221846   4.347   4.475   5.898
 7158SOL     OW21847   5.005   4.049   0.013
 7158SOL    HW121848   4.911   4.080   6.495
 7158SOL    HW221849   5.043   4.102   0.089
 7159SOL     OW21850   5.339   5.392   5.925
 7159SOL    HW121851   5.438   5.408   5.923
 7159SOL    HW221852   5.305   5.381   5.831
 7160SOL     OW21853   4.786   4.387   5.963
 7160SOL    HW121854   4.821   4.369   6.055
 7160SOL    HW221855   4.698   4.339   5.951
 7161SOL     OW21856   3.638   4.462   6.385
 7161SOL    HW121857   3.691   4.440   6.467
 7161SOL    HW221858   3.582   4.543   6.402
 7162SOL     OW21859   4.599   4.042   5.768
 7162SOL    HW121860   4.657   4.084   5.698
 7162SOL    HW221861   4.542   3.972   5.726
 7163SOL     OW21862   5.128   4.876   6.057
 7163SOL    HW121863   5.219   4.879   6.017
 7163SOL    HW221864   5.072   4.949   6.019
 7164SOL     OW21865   4.229   3.924   0.025
 7164SOL    HW121866   4.191   3.983   0.096
 7164SOL    HW221867   4.283   3.979   6.462
 7165SOL     OW21868   4.754   5.232   5.995
 7165SOL    HW121869   4.727   5.295   5.922
 7165SOL    HW221870   4.761   5.282   6.081
 7166SOL     OW21871   3.844   5.687   6.355
 7166SOL    HW121872   3.905   5.629   6.410
 7166SOL    HW221873   3.886   5.777   6.344
 7167SOL     OW21874   5.539   4.743   6.378
 7167SOL    HW121875   5.499   4.711   6.292
 7167SOL    HW221876   5.468   4.787   6.433
 7168SOL     OW21877   4.031   4.617   5.848
 7168SOL    HW121878   4.018   4.567   5.762
 7168SOL    HW221879   4.031   4.553   5.924
 7169SOL     OW21880   5.247   4.532   6.303
 7169SOL    HW121881   5.266   4.434   6.300
 7169SOL    HW221882   5.320   4.581   6.255
 7170SOL     OW21883   4.927   5.503   5.795
 7170SOL    HW121884   4.830   5.495   5.817
 7170SOL    HW221885   4.951   5.435   5.726
 7171SOL     OW21886   5.366   5.107   5.687
 7171SOL    HW121887   5.340   5.203   5.680
 7171SOL    HW221888   5.293   5.050   5.648
 7172SOL     OW21889   4.198   5.523   5.927
 7172SOL    HW121890   4.252   5.583   5.986
 7172SOL    HW221891   4.250   5.439   5.909
 7173SOL     OW21892   5.095   3.797   6.024
 7173SOL    HW121893   5.103   3.774   5.927
 7173SOL    HW221894   5.183   3.784   6.069
 7174SOL     OW21895   4.029   4.436   6.053
 7174SOL    HW121896   4.087   4.355   6.062
 7174SOL    HW221897   3.939   4.417   6.092
 7175SOL     OW21898   4.423   3.843   5.680
 7175SOL    HW121899   4.461   3.764   5.729
 7175SOL    HW221900   4.351   3.813   5.618
 7176SOL     OW21901   4.301   3.825   6.065
 7176SOL    HW121902   4.222   3.824   6.126
 7176SOL    HW221903   4.295   3.905   6.005
 7177SOL     OW21904   5.157   4.951   5.598
 7177SOL    HW121905   5.189   4.869   5.646
 7177SOL    HW221906   5.069   4.980   5.637
 7178SOL     OW21907   4.019   3.777   5.755
 7178SOL    HW121908   4.062   3.855   5.708
 7178SOL    HW221909   4.089   3.726   5.804
 7179SOL     OW21910   4.709   3.993   6.013
 7179SOL    HW121911   4.673   4.012   5.922
 7179SOL    HW221912   4.808   4.007   6.013
 7180SOL     OW21913   4.161   4.968   6.396
 7180SOL    HW121914   4.087   4.999   6.456
 7180SOL    HW221915   4.122   4.933   6.311
 7181SOL     OW21916   5.019   5.555   6.168
 7181SOL    HW121917   5.074   5.609   6.105
 7181SOL    HW221918   5.000   5.608   6.250
 7182SOL     OW21919   4.764   4.197   5.609
 7182SOL    HW121920   4.718   4.284   5.590
 7182SOL    HW221921   4.836   4.211   5.676
 7183SOL     OW21922   4.636   4.169   6.211
 7183SOL    HW121923   4.552   4.216   6.183
 7183SOL    HW221924   4.661   4.101   6.142
 7184SOL     OW21925   4.692   3.627   6.264
 7184SOL    HW121926   4.649   3.682   6.193
 7184SOL    HW221927   4.640   3.542   6.276
 7185SOL     OW21928   5.548   4.482   5.969
 7185SOL    HW121929   5.620   4.461   6.035
 7185SOL    HW221930   5.551   4.416   5.894
 7186SOL     OW21931   4.171   5.163   5.687
 7186SOL    HW121932   4.107   5.115   5.747
 7186SOL    HW221933   4.206   5.100   5.619
 7187SOL     OW21934   5.448   5.043   6.156
 7187SOL    HW121935   5.536   5.024   6.201
 7187SOL    HW221936   5.390   5.097   6.217
 7188SOL     OW21937   5.126   4.299   5.606
 7188SOL    HW121938   5.078   4.261   5.685
 7188SOL    HW221939   5.225   4.285   5.617
 7189SOL     OW21940   4.277   4.019   5.877
 7189SOL    HW121941   4.333   3.966   5.812
 7189SOL    HW221942   4.236   4.097   5.830
 7190SOL     OW21943   4.486   4.846   5.886
 7190SOL    HW121944   4.388   4.829   5.873
 7190SOL    HW221945   4.536   4.759   5.881
 7191SOL     OW21946   4.205   4.826   5.847
 7191SOL    HW121947   4.153   4.910   5.860
 7191SOL    HW221948   4.144   4.747   5.857
 7192SOL     OW21949   4.384   4.093   6.388
 7192SOL    HW121950   4.401   4.171   6.327
 7192SOL    HW221951   4.466   4.072   6.440
 7193SOL     OW21952   4.992   5.102   5.967
 7193SOL    HW121953   5.056   5.170   6.004
 7193SOL    HW221954   4.898   5.135   5.980
 7194SOL     OW21955   5.293   4.373   5.998
 7194SOL    HW121956   5.224   4.426   5.948
 7194SOL    HW221957   5.382   4.416   5.986
 7195SOL     OW21958   4.953   4.230   5.812
 7195SOL    HW121959   4.974   4.154   5.874
 7195SOL    HW221960   4.899   4.299   5.860
 7196SOL     OW21961   4.060   3.823   6.199
 7196SOL    HW121962   4.024   3.916   6.211
 7196SOL    HW221963   4.066   3.778   6.288
 7197SOL     OW21964   5.334   4.118   5.884
 7197SOL    HW121965   5.379   4.058   5.949
 7197SOL    HW221966   5.298   4.198   5.932
 7198SOL     OW21967   5.230   3.974   5.668
 7198SOL    HW121968   5.183   3.895   5.706
 7198SOL    HW221969   5.268   4.029   5.742
 7199SOL     OW21970   5.015   4.548   5.602
 7199SOL    HW121971   5.049   4.454   5.595
 7199SOL    HW221972   5.042   4.599   5.520
 7200SOL     OW21973   5.119   4.928   6.328
 7200SOL    HW121974   5.040   4.876   6.359
 7200SOL    HW221975   5.131   4.915   6.229
 7201SOL     OW21976   3.762   4.989   5.728
 7201SOL    HW121977   3.674   5.036   5.720
 7201SOL    HW221978   3.749   4.903   5.778
 7202SOL     OW21979   3.573   5.671   6.377
 7202SOL    HW121980   3.531   5.665   6.286
 7202SOL    HW221981   3.672   5.673   6.368
 7203SOL     OW21982   4.548   4.276   5.901
 7203SOL    HW121983   4.554   4.187   5.856
 7203SOL    HW221984   4.472   4.328   5.860
 7204SOL     OW21985   4.175   4.227   5.739
 7204SOL    HW121986   4.239   4.302   5.757
 7204SOL    HW221987   4.081   4.263   5.739
 7205SOL     OW21988   5.120   4.546   5.861
 7205SOL    HW121989   5.056   4.561   5.936
 7205SOL    HW221990   5.069   4.541   5.775
 7206SOL     OW21991   5.492   3.955   6.036
 7206SOL    HW121992   5.549   3.929   5.958
 7206SOL    HW221993   5.444   3.874   6.070
 7207SOL     OW21994   5.137   5.307   6.091
 7207SOL    HW121995   5.211   5.333   6.028
 7207SOL    HW221996   5.088   5.389   6.120
 7208SOL     OW21997   5.051   4.622   6.136
 7208SOL    HW121998   5.124   4.588   6.195
 7208SOL    HW221999   5.077   4.710   6.098
 7209SOL     OW22000   4.450   5.463   5.687
 7209SOL    HW122001   4.433   5.441   5.591
 7209SOL    HW222002   4.398   5.400   5.745
 7210SOL     OW22003   5.572   3.916   0.048
 7210SOL    HW122004   5.592   3.826   0.009
 7210SOL    HW222005   5.475   3.922   0.070
 7211SOL     OW22006   3.962   4.072   6.256
 7211SOL    HW122007   3.871   4.090   6.218
 7211SOL    HW222008   3.954   4.053   6.354
 7212SOL     OW22009   4.988   5.318   5.606
 7212SOL    HW122010   4.956   5.227   5.631
 7212SOL    HW222011   4.931   5.354   5.531
 7213SOL     OW22012   4.643   4.612   5.890
 7213SOL    HW122013   4.683   4.643   5.804
 7213SOL    HW222014   4.696   4.535   5.926
 7214SOL     OW22015   5.254   5.367   5.654
 7214SOL    HW122016   5.157   5.347   5.638
 7214SOL    HW222017   5.302   5.372   5.566
 7215SOL     OW22018   4.912   4.747   6.335
 7215SOL    HW122019   4.815   4.763   6.316
 7215SOL    HW222020   4.953   4.697   6.259
 7216SOL     OW22021   4.326   5.294   5.862
 7216SOL    HW122022   4.397   5.230   5.892
 7216SOL    HW222023   4.263   5.247   5.801
 7217SOL     OW22024   4.006   5.027   5.862
 7217SOL    HW122025   3.930   4.993   5.806
 7217SOL    HW222026   3.970   5.085   5.934
 7218SOL     OW22027   3.823   4.029   5.543
 7218SOL    HW122028   3.739   4.007   5.494
 7218SOL    HW222029   3.858   4.117   5.511
 7219SOL     OW22030   3.766   3.871   5.791
 7219SOL    HW122031   3.755   3.935   5.715
 7219SOL    HW222032   3.860   3.837   5.792
 7220SOL     OW22033   4.917   5.059   5.697
 7220SOL    HW122034   4.818   5.052   5.692
 7220SOL    HW222035   4.946   5.068   5.792
 7221SOL     OW22036   4.981   4.043   6.016
 7221SOL    HW122037   5.019   3.951   6.012
 7221SOL    HW222038   5.008   4.088   6.102
 7222SOL     OW22039   4.399   4.310   6.194
 7222SOL    HW122040   4.413   4.395   6.143
 7222SOL    HW222041   4.313   4.268   6.166
 7223SOL     OW22042   4.640   5.084   5.659
 7223SOL    HW122043   4.590   5.107   5.743
 7223SOL    HW222044   4.648   5.164   5.601
 7224SOL     OW22045   4.448   5.920   0.073
 7224SOL    HW122046   4.424   5.984   0.001
 7224SOL    HW222047   4.533   5.873   0.050
 7225SOL     OW22048   4.685   4.441   6.333
 7225SOL    HW122049   4.689   4.461   6.431
 7225SOL    HW222050   4.600   4.393   6.312
 7226SOL     OW22051   4.770   4.658   5.655
 7226SOL    HW122052   4.754   4.727   5.584
 7226SOL    HW222053   4.859   4.616   5.641
 7227SOL     OW22054   5.417   5.378   6.367
 7227SOL    HW122055   5.361   5.297   6.348
 7227SOL    HW222056   5.489   5.354   6.432
 7228SOL     OW22057   3.727   4.678   6.158
 7228SOL    HW122058   3.788   4.608   6.194
 7228SOL    HW222059   3.760   4.710   6.069
 7229SOL     OW22060   4.166   4.191   6.101
 7229SOL    HW122061   4.197   4.128   6.030
 7229SOL    HW222062   4.097   4.146   6.158
 7230SOL     OW22063   4.768   5.445   6.171
 7230SOL    HW122064   4.861   5.479   6.154
 7230SOL    HW222065   4.703   5.498   6.116
 7231SOL     OW22066   4.522   5.112   5.907
 7231SOL    HW122067   4.511   5.013   5.908
 7231SOL    HW222068   4.604   5.137   5.958
 7232SOL     OW22069   5.109   3.740   5.755
 7232SOL    HW122070   5.160   3.666   5.712
 7232SOL    HW222071   5.014   3.713   5.767
 7233SOL     OW22072   5.054   4.151   6.259
 7233SOL    HW122073   4.997   4.233   6.249
 7233SOL    HW222074   5.033   4.105   6.344
 7234SOL     OW22075   3.784   4.753   5.887
 7234SOL    HW122076   3.882   4.736   5.873
 7234SOL    HW222077   3.734   4.667   5.880
 7235SOL     OW22078   4.666   5.444   5.846
 7235SOL    HW122079   4.600   5.445   5.771
 7235SOL    HW222080   4.637   5.507   5.918
 7236SOL     OW22081   3.868   6.292   0.153
 7236SOL    HW122082   3.809   6.320   0.229
 7236SOL    HW222083   3.839   6.202   0.119
 7237SOL     OW22084   3.907   5.889   1.031
 7237SOL    HW122085   3.960   5.847   1.105
 7237SOL    HW222086   3.816   5.850   1.028
 7238SOL     OW22087   3.676   5.985   0.607
 7238SOL    HW122088   3.584   5.980   0.646
 7238SOL    HW222089   3.678   5.938   0.519
 7239SOL     OW22090   4.936   6.296   0.664
 7239SOL    HW122091   5.008   6.365   0.662
 7239SOL    HW222092   4.869   6.320   0.734
 7240SOL     OW22093   5.538   6.163   0.197
 7240SOL    HW122094   5.491   6.176   0.110
 7240SOL    HW222095   5.489   6.095   0.251
 7241SOL     OW22096   4.691   6.364   1.868
 7241SOL    HW122097   4.722   6.404   1.955
 7241SOL    HW222098   4.691   6.434   1.797
 7242SOL     OW22099   4.434   0.053   0.667
 7242SOL    HW122100   4.516   0.069   0.722
 7242SOL    HW222101   4.363   0.118   0.694
 7243SOL     OW22102   4.172   5.975   1.492
 7243SOL    HW122103   4.255   5.918   1.495
 7243SOL    HW222104   4.091   5.918   1.505
 7244SOL     OW22105   5.288   5.985   0.790
 7244SOL    HW122106   5.213   5.992   0.725
 7244SOL    HW222107   5.281   6.060   0.857
 7245SOL     OW22108   5.287   5.753   1.437
 7245SOL    HW122109   5.365   5.815   1.425
 7245SOL    HW222110   5.242   5.774   1.524
 7246SOL     OW22111   3.742   6.254   0.606
 7246SOL    HW122112   3.726   6.155   0.603
 7246SOL    HW222113   3.743   6.284   0.701
 7247SOL     OW22114   3.951   6.346   1.591
 7247SOL    HW122115   4.051   6.346   1.600
 7247SOL    HW222116   3.914   6.432   1.625
 7248SOL     OW22117   4.558   5.799   0.597
 7248SOL    HW122118   4.615   5.849   0.533
 7248SOL    HW222119   4.463   5.831   0.591
 7249SOL     OW22120   4.087   5.858   1.888
 7249SOL    HW122121   4.118   5.937   1.940
 7249SOL    HW222122   3.989   5.868   1.868
 7250SOL     OW22123   4.282   6.346   0.339
 7250SOL    HW122124   4.301   6.436   0.301
 7250SOL    HW222125   4.216   6.354   0.414
 7251SOL     OW22126   5.027   5.974   0.977
 7251SOL    HW122127   4.934   5.937   0.974
 7251SOL    HW222128   5.080   5.924   1.046
 7252SOL     OW22129   4.541   6.242   1.446
 7252SOL    HW122130   4.517   6.212   1.538
 7252SOL    HW222131   4.513   6.172   1.380
 7253SOL     OW22132   5.082   6.108   1.707
 7253SOL    HW122133   5.093   6.167   1.787
 7253SOL    HW222134   5.148   6.033   1.711
 7254SOL     OW22135   4.729   5.975   1.222
 7254SOL    HW122136   4.637   6.004   1.246
 7254SOL    HW222137   4.729   5.938   1.128
 7255SOL     OW22138   4.818   6.299   0.408
 7255SOL    HW122139   4.858   6.293   0.500
 7255SOL    HW222140   4.719   6.301   0.416
 7256SOL     OW22141   3.727   6.362   0.871
 7256SOL    HW122142   3.757   6.314   0.954
 7256SOL    HW222143   3.806   6.406   0.828
 7257SOL     OW22144   4.615   6.084   0.219
 7257SOL    HW122145   4.676   6.121   0.149
 7257SOL    HW222146   4.550   6.021   0.176
 7258SOL     OW22147   5.379   6.186   1.819
 7258SOL    HW122148   5.355   6.258   1.754
 7258SOL    HW222149   5.405   6.103   1.769
 7259SOL     OW22150   4.259   5.811   0.959
 7259SOL    HW122151   4.281   5.829   1.055
 7259SOL    HW222152   4.268   5.895   0.906
 7260SOL     OW22153   5.340   6.328   0.779
 7260SOL    HW122154   5.300   6.280   0.857
 7260SOL    HW222155   5.433   6.356   0.800
 7261SOL     OW22156   3.930   5.843   1.510
 7261SOL    HW122157   3.877   5.919   1.549
 7261SOL    HW222158   3.889   5.756   1.540
 7262SOL     OW22159   5.179   5.726   0.437
 7262SOL    HW122160   5.154   5.651   0.376
 7262SOL    HW222161   5.278   5.731   0.446
 7263SOL     OW22162   4.074   6.351   0.538
 7263SOL    HW122163   4.060   6.253   0.530
 7263SOL    HW222164   4.009   6.389   0.604
 7264SOL     OW22165   5.183   5.833   1.697
 7264SOL    HW122166   5.194   5.838   1.796
 7264SOL    HW222167   5.095   5.791   1.675
 7265SOL     OW22168   4.481   5.876   1.718
 7265SOL    HW122169   4.566   5.825   1.721
 7265SOL    HW222170   4.423   5.850   1.795
 7266SOL     OW22171   5.007   6.213   1.465
 7266SOL    HW122172   5.029   6.174   1.555
 7266SOL    HW222173   5.042   6.306   1.460
 7267SOL     OW22174   4.704   6.122   0.895
 7267SOL    HW122175   4.678   6.124   0.798
 7267SOL    HW222176   4.724   6.027   0.922
 7268SOL     OW22177   4.283   5.888   0.537
 7268SOL    HW122178   4.211   5.835   0.581
 7268SOL    HW222179   4.266   5.890   0.438
 7269SOL     OW22180   3.947   5.923   0.295
 7269SOL    HW122181   4.033   5.888   0.258
 7269SOL    HW222182   3.966   5.982   0.373
 7270SOL     OW22183   4.723   5.947   0.435
 7270SOL    HW122184   4.689   5.996   0.355
 7270SOL    HW222185   4.823   5.939   0.429
 7271SOL     OW22186   4.781   6.327   1.339
 7271SOL    HW122187   4.695   6.296   1.379
 7271SOL    HW222188   4.858   6.279   1.382
 7272SOL     OW22189   4.208   0.230   0.675
 7272SOL    HW122190   4.123   0.253   0.722
 7272SOL    HW222191   4.187   0.178   0.592
 7273SOL     OW22192   4.767   6.177   6.494
 7273SOL    HW122193   4.741   6.112   6.423
 7273SOL    HW222194   4.846   6.142   0.045
 7274SOL     OW22195   3.846   6.199   1.378
 7274SOL    HW122196   3.938   6.176   1.346
 7274SOL    HW222197   3.853   6.263   1.455
 7275SOL     OW22198   4.295   5.837   1.235
 7275SOL    HW122199   4.345   5.793   1.310
 7275SOL    HW222200   4.198   5.815   1.242
 7276SOL     OW22201   4.644   6.128   0.634
 7276SOL    HW122202   4.586   6.188   0.579
 7276SOL    HW222203   4.679   6.054   0.576
 7277SOL     OW22204   4.763   5.687   0.743
 7277SOL    HW122205   4.686   5.724   0.690
 7277SOL    HW222206   4.742   5.593   0.771
 7278SOL     OW22207   5.199   6.189   0.976
 7278SOL    HW122208   5.128   6.119   0.978
 7278SOL    HW222209   5.248   6.189   1.063
 7279SOL     OW22210   5.507   6.340   0.408
 7279SOL    HW122211   5.560   6.298   0.482
 7279SOL    HW222212   5.526   6.293   0.322
 7280SOL     OW22213   5.163   6.177   0.071
 7280SOL    HW122214   5.081   6.170   0.128
 7280SOL    HW222215   5.209   6.089   0.067
 7281SOL     OW22216   4.234   5.930   0.260
 7281SOL    HW122217   4.311   5.912   0.199
 7281SOL    HW222218   4.198   6.022   0.243
 7282SOL     OW22219   4.688   5.663   1.414
 7282SOL    HW122220   4.717   5.659   1.318
 7282SOL    HW222221   4.760   5.706   1.469
 7283SOL     OW22222   4.335   0.117   0.270
 7283SOL    HW122223   4.265   0.122   0.341
 7283SOL    HW222224   4.426   0.123   0.312
 7284SOL     OW22225   4.178   6.419   1.261
 7284SOL    HW122226   4.248   6.435   1.331
 7284SOL    HW222227   4.141   6.327   1.271
 7285SOL     OW22228   4.975   5.976   1.329
 7285SOL    HW122229   4.991   6.064   1.374
 7285SOL    HW222230   4.883   5.976   1.289
 7286SOL     OW22231   4.280   6.084   0.869
 7286SOL    HW122232   4.283   6.142   0.788
 7286SOL    HW222233   4.352   6.111   0.932
 7287SOL     OW22234   5.306   6.197   0.530
 7287SOL    HW122235   5.305   6.230   0.624
 7287SOL    HW222236   5.363   6.256   0.474
 7288SOL     OW22237   4.228   6.329   1.644
 7288SOL    HW122238   4.271   6.379   1.568
 7288SOL    HW222239   4.290   6.258   1.676
 7289SOL     OW22240   5.310   6.392   1.647
 7289SOL    HW122241   5.219   6.393   1.605
 7289SOL    HW222242   5.371   6.451   1.594
 7290SOL     OW22243   4.705   5.721   1.750
 7290SOL    HW122244   4.770   5.797   1.757
 7290SOL    HW222245   4.754   5.636   1.728
 7291SOL     OW22246   4.217   5.647   1.771
 7291SOL    HW122247   4.158   5.586   1.718
 7291SOL    HW222248   4.166   5.727   1.799
 7292SOL     OW22249   4.343   6.436   1.032
 7292SOL    HW122250   4.357   0.027   0.994
 7292SOL    HW222251   4.289   6.442   1.116
 7293SOL     OW22252   5.076   6.438   0.964
 7293SOL    HW122253   5.094   6.480   0.875
 7293SOL    HW222254   5.117   6.347   0.967
 7294SOL     OW22255   4.942   6.133   0.231
 7294SOL    HW122256   4.971   6.058   0.290
 7294SOL    HW222257   4.898   6.204   0.286
 7295SOL     OW22258   4.027   5.775   1.258
 7295SOL    HW122259   3.989   5.807   1.345
 7295SOL    HW222260   4.009   5.677   1.247
 7296SOL     OW22261   4.470   6.193   1.030
 7296SOL    HW122262   4.556   6.185   0.979
 7296SOL    HW222263   4.436   6.286   1.024
 7297SOL     OW22264   5.461   0.055   1.830
 7297SOL    HW122265   5.406   6.483   1.787
 7297SOL    HW222266   5.404   0.106   1.894
 7298SOL     OW22267   4.069   5.776   0.679
 7298SOL    HW122268   4.009   5.852   0.706
 7298SOL    HW222269   4.068   5.706   0.750
 7299SOL     OW22270   5.376   5.994   0.356
 7299SOL    HW122271   5.403   5.912   0.408
 7299SOL    HW222272   5.338   6.062   0.419
 7300SOL     OW22273   4.803   6.377   0.906
 7300SOL    HW122274   4.895   6.385   0.945
 7300SOL    HW222275   4.771   6.283   0.915
 7301SOL     OW22276   5.291   5.930   0.104
 7301SOL    HW122277   5.221   5.859   0.104
 7301SOL    HW222278   5.316   5.952   0.198
 7302SOL     OW22279   4.091   6.372   0.931
 7302SOL    HW122280   4.186   6.396   0.949
 7302SOL    HW222281   4.073   6.281   0.968
 7303SOL     OW22282   4.056   6.111   1.020
 7303SOL    HW122283   4.002   6.027   1.020
 7303SOL    HW222284   4.135   6.099   0.960
 7304SOL     OW22285   4.859   5.952   1.734
 7304SOL    HW122286   4.801   5.998   1.801
 7304SOL    HW222287   4.940   6.009   1.717
 7305SOL     OW22288   4.927   5.785   1.527
 7305SOL    HW122289   4.891   5.846   1.598
 7305SOL    HW222290   4.953   5.839   1.446
 7306SOL     OW22291   3.798   6.223   1.102
 7306SOL    HW122292   3.883   6.184   1.066
 7306SOL    HW222293   3.805   6.233   1.201
 7307SOL     OW22294   3.969   6.116   1.732
 7307SOL    HW122295   4.059   6.082   1.704
 7307SOL    HW222296   3.945   6.197   1.680
 7308SOL     OW22297   4.540   6.262   0.411
 7308SOL    HW122298   4.563   6.195   0.340
 7308SOL    HW222299   4.446   6.294   0.397
 7309SOL     OW22300   5.338   6.201   1.208
 7309SOL    HW122301   5.315   6.151   1.291
 7309SOL    HW222302   5.430   6.176   1.178
 7310SOL     OW22303   4.466   6.054   1.259
 7310SOL    HW122304   4.400   5.979   1.252
 7310SOL    HW222305   4.463   6.109   1.176
 7311SOL     OW22306   4.125   6.176   0.194
 7311SOL    HW122307   4.189   6.236   0.242
 7311SOL    HW222308   4.036   6.221   0.188
 7312SOL     OW22309   4.699   5.812   0.032
 7312SOL    HW122310   4.718   5.774   6.442
 7312SOL    HW222311   4.710   5.740   0.101
 7313SOL     OW22312   5.459   5.754   0.485
 7313SOL    HW122313   5.527   5.744   0.412
 7313SOL    HW222314   5.471   5.681   0.552
 7314SOL     OW22315   5.132   6.487   0.686
 7314SOL    HW122316   5.217   6.439   0.708
 7314SOL    HW222317   5.145   0.043   0.604
 7315SOL     OW22318   5.568   5.726   0.970
 7315SOL    HW122319   5.606   5.637   0.944
 7315SOL    HW222320   5.471   5.729   0.944
 7316SOL     OW22321   3.906   5.978   0.757
 7316SOL    HW122322   3.817   5.979   0.712
 7316SOL    HW222323   3.895   5.954   0.853
 7317SOL     OW22324   4.780   5.848   0.971
 7317SOL    HW122325   4.772   5.803   0.882
 7317SOL    HW222326   4.788   5.779   1.042
 7318SOL     OW22327   5.505   5.938   1.418
 7318SOL    HW122328   5.567   6.017   1.407
 7318SOL    HW222329   5.528   5.869   1.350
 7319SOL     OW22330   3.871   0.082   1.698
 7319SOL    HW122331   3.780   0.071   1.737
 7319SOL    HW222332   3.929   0.134   1.761
 7320SOL     OW22333   4.428   5.752   1.471
 7320SOL    HW122334   4.518   5.720   1.440
 7320SOL    HW222335   4.438   5.801   1.557
 7321SOL     OW22336   5.105   6.466   1.460
 7321SOL    HW122337   5.040   0.041   1.468
 7321SOL    HW222338   5.155   6.475   1.374
 7322SOL     OW22339   3.685   5.833   0.336
 7322SOL    HW122340   3.640   5.850   0.249
 7322SOL    HW222341   3.782   5.854   0.329
 7323SOL     OW22342   4.368   6.456   1.449
 7323SOL    HW122343   4.403   0.049   1.464
 7323SOL    HW222344   4.444   6.392   1.440
 7324SOL     OW22345   4.463   6.163   1.700
 7324SOL    HW122346   4.521   6.205   1.770
 7324SOL    HW222347   4.472   6.063   1.706
 7325SOL     OW22348   5.235   6.462   1.211
 7325SOL    HW122349   5.280   6.373   1.214
 7325SOL    HW222350   5.180   6.469   1.129
 7326SOL     OW22351   5.001   5.940   0.432
 7326SOL    HW122352   5.068   5.867   0.421
 7326SOL    HW222353   5.013   5.982   0.522
 7327SOL     OW22354   4.307   6.298   0.689
 7327SOL    HW122355   4.366   6.378   0.686
 7327SOL    HW222356   4.221   6.319   0.641
 7328SOL     OW22357   5.434   5.950   1.683
 7328SOL    HW122358   5.463   5.948   1.587
 7328SOL    HW222359   5.349   5.898   1.693
 7329SOL     OW22360   5.541   5.733   1.244
 7329SOL    HW122361   5.557   5.636   1.265
 7329SOL    HW222362   5.549   5.748   1.146
 7330SOL     OW22363   4.065   6.077   0.547
 7330SOL    HW122364   4.155   6.034   0.551
 7330SOL    HW222365   4.011   6.050   0.627
 7331SOL     OW22366   4.100   6.157   1.294
 7331SOL    HW122367   4.141   6.092   1.359
 7331SOL    HW222368   4.108   6.121   1.201
 7332SOL     OW22369   5.168   5.847   1.190
 7332SOL    HW122370   5.221   5.794   1.256
 7332SOL    HW222371   5.094   5.895   1.237
 7333SOL     OW22372   4.793   5.640   1.154
 7333SOL    HW122373   4.719   5.585   1.114
 7333SOL    HW222374   4.876   5.586   1.160
 7334SOL     OW22375   5.112   5.718   0.103
 7334SOL    HW122376   5.180   5.653   0.069
 7334SOL    HW222377   5.061   5.676   0.178
 7335SOL     OW22378   5.030   6.037   0.691
 7335SOL    HW122379   4.995   6.130   0.674
 7335SOL    HW222380   5.012   6.012   0.786
 7336SOL     OW22381   5.293   5.760   0.955
 7336SOL    HW122382   5.251   5.792   1.040
 7336SOL    HW222383   5.288   5.831   0.886
 7337SOL     OW22384   3.931   6.227   1.989
 7337SOL    HW122385   3.837   6.213   2.020
 7337SOL    HW222386   3.939   6.200   1.893
 7338SOL     OW22387   3.924   5.855   2.867
 7338SOL    HW122388   3.971   5.829   2.951
 7338SOL    HW222389   3.834   5.811   2.864
 7339SOL     OW22390   3.715   5.960   2.490
 7339SOL    HW122391   3.634   5.969   2.549
 7339SOL    HW222392   3.696   5.896   2.416
 7340SOL     OW22393   4.909   6.285   2.520
 7340SOL    HW122394   4.977   6.359   2.519
 7340SOL    HW222395   4.855   6.291   2.604
 7341SOL     OW22396   5.515   6.182   2.054
 7341SOL    HW122397   5.474   6.196   1.964
 7341SOL    HW222398   5.463   6.113   2.104
 7342SOL     OW22399   4.681   6.345   3.737
 7342SOL    HW122400   4.715   6.381   3.824
 7342SOL    HW222401   4.683   6.417   3.667
 7343SOL     OW22402   4.401   0.066   2.570
 7343SOL    HW122403   4.422   0.090   2.665
 7343SOL    HW222404   4.325   0.122   2.538
 7344SOL     OW22405   4.150   5.981   3.374
 7344SOL    HW122406   4.227   5.919   3.386
 7344SOL    HW222407   4.065   5.929   3.370
 7345SOL     OW22408   5.293   6.022   2.601
 7345SOL    HW122409   5.204   6.013   2.557
 7345SOL    HW222410   5.313   6.119   2.617
 7346SOL     OW22411   5.339   5.708   3.359
 7346SOL    HW122412   5.392   5.780   3.314
 7346SOL    HW222413   5.286   5.748   3.434
 7347SOL     OW22414   3.821   6.217   2.455
 7347SOL    HW122415   3.787   6.124   2.461
 7347SOL    HW222416   3.796   6.267   2.538
 7348SOL     OW22417   3.966   6.354   3.442
 7348SOL    HW122418   4.065   6.351   3.458
 7348SOL    HW222419   3.926   6.432   3.491
 7349SOL     OW22420   4.565   5.584   2.390
 7349SOL    HW122421   4.617   5.660   2.351
 7349SOL    HW222422   4.468   5.607   2.391
 7350SOL     OW22423   4.089   5.863   3.746
 7350SOL    HW122424   4.123   5.944   3.794
 7350SOL    HW222425   3.993   5.878   3.721
 7351SOL     OW22426   4.298   6.251   2.198
 7351SOL    HW122427   4.336   6.343   2.186
 7351SOL    HW222428   4.228   6.253   2.269
 7352SOL     OW22429   4.987   5.987   2.806
 7352SOL    HW122430   4.897   5.943   2.806
 7352SOL    HW222431   5.047   5.940   2.871
 7353SOL     OW22432   4.549   6.239   3.304
 7353SOL    HW122433   4.521   6.205   3.393
 7353SOL    HW222434   4.526   6.172   3.234
 7354SOL     OW22435   5.090   6.091   3.568
 7354SOL    HW122436   5.098   6.146   3.651
 7354SOL    HW222437   5.150   6.012   3.574
 7355SOL     OW22438   4.735   5.987   3.047
 7355SOL    HW122439   4.643   6.014   3.076
 7355SOL    HW222440   4.729   5.926   2.969
 7356SOL     OW22441   4.790   6.252   2.271
 7356SOL    HW122442   4.825   6.263   2.364
 7356SOL    HW222443   4.698   6.214   2.274
 7357SOL     OW22444   3.755   6.390   2.686
 7357SOL    HW122445   3.791   6.348   2.770
 7357SOL    HW222446   3.831   6.430   2.634
 7358SOL     OW22447   4.580   5.923   2.073
 7358SOL    HW122448   4.634   5.980   2.012
 7358SOL    HW222449   4.521   5.862   2.020
 7359SOL     OW22450   5.390   6.169   3.702
 7359SOL    HW122451   5.373   6.243   3.637
 7359SOL    HW222452   5.418   6.086   3.653
 7360SOL     OW22453   4.293   5.739   2.841
 7360SOL    HW122454   4.302   5.769   2.936
 7360SOL    HW222455   4.287   5.820   2.781
 7361SOL     OW22456   5.316   6.302   2.639
 7361SOL    HW122457   5.254   6.287   2.716
 7361SOL    HW222458   5.401   6.343   2.672
 7362SOL     OW22459   3.911   5.850   3.359
 7362SOL    HW122460   3.836   5.913   3.378
 7362SOL    HW222461   3.887   5.758   3.390
 7363SOL     OW22462   5.128   5.669   2.315
 7363SOL    HW122463   5.131   5.651   2.216
 7363SOL    HW222464   5.217   5.650   2.355
 7364SOL     OW22465   4.108   6.240   2.399
 7364SOL    HW122466   4.127   6.142   2.413
 7364SOL    HW222467   4.011   6.258   2.416
 7365SOL     OW22468   5.198   5.824   3.581
 7365SOL    HW122469   5.210   5.838   3.679
 7365SOL    HW222470   5.116   5.768   3.565
 7366SOL     OW22471   4.408   5.728   1.958
 7366SOL    HW122472   4.482   5.662   1.962
 7366SOL    HW222473   4.335   5.693   1.900
 7367SOL     OW22474   4.484   5.877   3.579
 7367SOL    HW122475   4.567   5.822   3.586
 7367SOL    HW222476   4.421   5.852   3.653
 7368SOL     OW22477   5.003   6.201   3.332
 7368SOL    HW122478   5.033   6.161   3.419
 7368SOL    HW222479   5.048   6.289   3.319
 7369SOL     OW22480   4.640   6.068   2.729
 7369SOL    HW122481   4.622   6.050   2.632
 7369SOL    HW222482   4.666   5.983   2.774
 7370SOL     OW22483   4.301   5.652   2.365
 7370SOL    HW122484   4.226   5.648   2.431
 7370SOL    HW222485   4.288   5.731   2.306
 7371SOL     OW22486   4.024   5.636   2.040
 7371SOL    HW122487   4.070   5.714   1.998
 7371SOL    HW222488   4.091   5.577   2.086
 7372SOL     OW22489   4.700   5.799   2.290
 7372SOL    HW122490   4.659   5.841   2.210
 7372SOL    HW222491   4.797   5.822   2.294
 7373SOL     OW22492   4.777   6.384   3.358
 7373SOL    HW122493   4.695   6.333   3.336
 7373SOL    HW222494   4.857   6.324   3.350
 7374SOL     OW22495   4.191   0.223   2.496
 7374SOL    HW122496   4.109   0.245   2.548
 7374SOL    HW222497   4.168   0.164   2.419
 7375SOL     OW22498   4.739   6.098   1.931
 7375SOL    HW122499   4.720   6.193   1.906
 7375SOL    HW222500   4.817   6.095   1.993
 7376SOL     OW22501   3.886   6.235   3.204
 7376SOL    HW122502   3.974   6.194   3.179
 7376SOL    HW222503   3.897   6.289   3.288
 7377SOL     OW22504   4.295   5.836   3.106
 7377SOL    HW122505   4.342   5.796   3.185
 7377SOL    HW222506   4.198   5.814   3.109
 7378SOL     OW22507   4.611   5.990   2.474
 7378SOL    HW122508   4.573   6.055   2.409
 7378SOL    HW222509   4.646   5.910   2.425
 7379SOL     OW22510   4.754   5.631   2.603
 7379SOL    HW122511   4.687   5.627   2.528
 7379SOL    HW222512   4.735   5.559   2.669
 7380SOL     OW22513   5.132   6.229   2.838
 7380SOL    HW122514   5.076   6.147   2.820
 7380SOL    HW222515   5.197   6.209   2.911
 7381SOL     OW22516   5.510   6.371   2.258
 7381SOL    HW122517   5.566   6.330   2.330
 7381SOL    HW222518   5.521   6.319   2.173
 7382SOL     OW22519   5.124   6.236   1.952
 7382SOL    HW122520   5.074   6.176   2.015
 7382SOL    HW222521   5.219   6.206   1.946
 7383SOL     OW22522   4.254   5.848   2.180
 7383SOL    HW122523   4.315   5.809   2.111
 7383SOL    HW222524   4.211   5.931   2.143
 7384SOL     OW22525   4.664   5.635   3.250
 7384SOL    HW122526   4.685   5.615   3.154
 7384SOL    HW222527   4.738   5.688   3.290
 7385SOL     OW22528   4.393   0.009   2.217
 7385SOL    HW122529   4.307   0.029   2.263
 7385SOL    HW222530   4.468   0.014   2.283
 7386SOL     OW22531   4.184   6.399   3.108
 7386SOL    HW122532   4.252   6.420   3.178
 7386SOL    HW222533   4.158   6.303   3.115
 7387SOL     OW22534   4.971   5.975   3.177
 7387SOL    HW122535   4.986   6.058   3.231
 7387SOL    HW222536   4.884   5.983   3.128
 7388SOL     OW22537   4.276   5.996   2.715
 7388SOL    HW122538   4.277   6.015   2.617
 7388SOL    HW222539   4.335   6.062   2.762
 7389SOL     OW22540   5.299   6.225   2.360
 7389SOL    HW122541   5.293   6.250   2.456
 7389SOL    HW222542   5.365   6.285   2.314
 7390SOL     OW22543   4.238   6.334   3.499
 7390SOL    HW122544   4.281   6.378   3.421
 7390SOL    HW222545   4.298   6.262   3.534
 7391SOL     OW22546   5.322   6.371   3.533
 7391SOL    HW122547   5.223   6.356   3.524
 7391SOL    HW222548   5.353   6.432   3.461
 7392SOL     OW22549   4.701   5.714   3.614
 7392SOL    HW122550   4.768   5.788   3.616
 7392SOL    HW222551   4.746   5.628   3.588
 7393SOL     OW22552   4.220   5.650   3.631
 7393SOL    HW122553   4.162   5.586   3.582
 7393SOL    HW222554   4.167   5.731   3.657
 7394SOL     OW22555   4.315   6.431   2.870
 7394SOL    HW122556   4.336   0.027   2.850
 7394SOL    HW222557   4.267   6.425   2.957
 7395SOL     OW22558   5.042   6.488   2.837
 7395SOL    HW122559   5.043   0.018   2.741
 7395SOL    HW222560   5.068   6.391   2.842
 7396SOL     OW22561   4.945   6.092   2.115
 7396SOL    HW122562   4.964   6.010   2.168
 7396SOL    HW222563   4.897   6.158   2.173
 7397SOL     OW22564   4.028   5.776   3.114
 7397SOL    HW122565   3.977   5.810   3.193
 7397SOL    HW222566   4.010   5.679   3.102
 7398SOL     OW22567   4.424   6.176   2.866
 7398SOL    HW122568   4.503   6.159   2.807
 7398SOL    HW222569   4.392   6.270   2.852
 7399SOL     OW22570   5.464   0.075   3.670
 7399SOL    HW122571   5.420   6.492   3.635
 7399SOL    HW222572   5.402   0.121   3.733
 7400SOL     OW22573   4.072   5.638   2.519
 7400SOL    HW122574   4.026   5.725   2.536
 7400SOL    HW222575   4.086   5.591   2.606
 7401SOL     OW22576   5.334   6.011   2.182
 7401SOL    HW122577   5.380   5.936   2.229
 7401SOL    HW222578   5.305   6.080   2.248
 7402SOL     OW22579   4.777   6.300   2.764
 7402SOL    HW122580   4.835   6.282   2.843
 7402SOL    HW222581   4.718   6.221   2.747
 7403SOL     OW22582   5.215   5.869   1.964
 7403SOL    HW122583   5.182   5.782   2.002
 7403SOL    HW222584   5.255   5.924   2.037
 7404SOL     OW22585   4.088   6.351   2.735
 7404SOL    HW122586   4.176   6.381   2.772
 7404SOL    HW222587   4.070   6.257   2.764
 7405SOL     OW22588   4.046   6.093   2.829
 7405SOL    HW122589   3.989   6.013   2.847
 7405SOL    HW222590   4.130   6.065   2.785
 7406SOL     OW22591   4.861   5.937   3.583
 7406SOL    HW122592   4.806   5.983   3.653
 7406SOL    HW222593   4.944   5.990   3.566
 7407SOL     OW22594   4.879   5.779   3.352
 7407SOL    HW122595   4.862   5.834   3.435
 7407SOL    HW222596   4.919   5.837   3.282
 7408SOL     OW22597   3.839   6.258   2.927
 7408SOL    HW122598   3.913   6.203   2.888
 7408SOL    HW222599   3.857   6.275   3.023
 7409SOL     OW22600   3.984   6.127   3.593
 7409SOL    HW122601   4.058   6.080   3.545
 7409SOL    HW222602   3.953   6.205   3.538
 7410SOL     OW22603   4.541   6.132   2.251
 7410SOL    HW122604   4.549   6.056   2.186
 7410SOL    HW222605   4.452   6.177   2.240
 7411SOL     OW22606   5.319   6.189   3.031
 7411SOL    HW122607   5.292   6.132   3.109
 7411SOL    HW222608   5.416   6.173   3.010
 7412SOL     OW22609   4.472   6.055   3.105
 7412SOL    HW122610   4.410   5.977   3.111
 7412SOL    HW222611   4.451   6.107   3.022
 7413SOL     OW22612   4.151   6.073   2.053
 7413SOL    HW122613   4.219   6.132   2.096
 7413SOL    HW222614   4.066   6.124   2.038
 7414SOL     OW22615   5.480   5.804   2.292
 7414SOL    HW122616   5.539   5.781   2.215
 7414SOL    HW222617   5.443   5.720   2.332
 7415SOL     OW22618   5.104   6.479   2.548
 7415SOL    HW122619   5.190   6.431   2.567
 7415SOL    HW222620   5.114   0.033   2.464
 7416SOL     OW22621   5.551   5.739   2.843
 7416SOL    HW122622   5.581   5.651   2.807
 7416SOL    HW222623   5.461   5.761   2.805
 7417SOL     OW22624   3.956   5.872   2.587
 7417SOL    HW122625   3.869   5.909   2.553
 7417SOL    HW222626   3.953   5.869   2.687
 7418SOL     OW22627   4.790   6.471   2.110
 7418SOL    HW122628   4.744   0.045   2.159
 7418SOL    HW222629   4.793   6.389   2.167
 7419SOL     OW22630   4.754   5.818   2.821
 7419SOL    HW122631   4.756   5.777   2.729
 7419SOL    HW222632   4.755   5.745   2.890
 7420SOL     OW22633   5.532   5.951   3.305
 7420SOL    HW122634   5.576   6.037   3.283
 7420SOL    HW222635   5.542   5.887   3.229
 7421SOL     OW22636   3.882   0.074   3.582
 7421SOL    HW122637   3.788   0.071   3.616
 7421SOL    HW222638   3.938   0.131   3.642
 7422SOL     OW22639   4.425   5.750   3.334
 7422SOL    HW122640   4.510   5.708   3.301
 7422SOL    HW222641   4.444   5.800   3.419
 7423SOL     OW22642   3.818   5.916   1.842
 7423SOL    HW122643   3.733   5.906   1.790
 7423SOL    HW222644   3.866   5.998   1.812
 7424SOL     OW22645   5.110   6.447   3.325
 7424SOL    HW122646   5.050   0.026   3.338
 7424SOL    HW222647   5.202   6.479   3.305
 7425SOL     OW22648   3.782   5.754   2.086
 7425SOL    HW122649   3.768   5.816   2.008
 7425SOL    HW222650   3.875   5.717   2.083
 7426SOL     OW22651   4.372   6.450   3.294
 7426SOL    HW122652   4.408   0.043   3.306
 7426SOL    HW222653   4.449   6.386   3.288
 7427SOL     OW22654   4.473   6.164   3.559
 7427SOL    HW122655   4.528   6.208   3.629
 7427SOL    HW222656   4.480   6.064   3.568
 7428SOL     OW22657   5.277   6.467   3.041
 7428SOL    HW122658   5.299   6.370   3.047
 7428SOL    HW222659   5.196   6.480   2.984
 7429SOL     OW22660   4.962   5.887   2.309
 7429SOL    HW122661   5.023   5.807   2.308
 7429SOL    HW222662   4.982   5.942   2.390
 7430SOL     OW22663   4.341   6.285   2.558
 7430SOL    HW122664   4.368   6.381   2.564
 7430SOL    HW222665   4.255   6.277   2.507
 7431SOL     OW22666   5.452   5.938   3.566
 7431SOL    HW122667   5.479   5.945   3.470
 7431SOL    HW222668   5.365   5.888   3.572
 7432SOL     OW22669   5.558   5.757   3.119
 7432SOL    HW122670   5.623   5.682   3.133
 7432SOL    HW222671   5.536   5.765   3.022
 7433SOL     OW22672   4.162   5.978   2.435
 7433SOL    HW122673   4.187   5.921   2.356
 7433SOL    HW222674   4.090   5.933   2.487
 7434SOL     OW22675   4.127   6.132   3.140
 7434SOL    HW122676   4.148   6.079   3.222
 7434SOL    HW222677   4.148   6.076   3.059
 7435SOL     OW22678   5.136   5.852   2.993
 7435SOL    HW122679   5.158   5.757   3.015
 7435SOL    HW222680   5.083   5.892   3.069
 7436SOL     OW22681   4.755   5.590   2.984
 7436SOL    HW122682   4.708   5.525   2.924
 7436SOL    HW222683   4.849   5.560   2.999
 7437SOL     OW22684   5.126   5.619   2.045
 7437SOL    HW122685   5.177   5.548   1.998
 7437SOL    HW222686   5.032   5.588   2.061
 7438SOL     OW22687   5.023   6.034   2.535
 7438SOL    HW122688   4.984   6.124   2.516
 7438SOL    HW222689   5.004   6.009   2.630
 7439SOL     OW22690   5.299   5.808   2.774
 7439SOL    HW122691   5.241   5.838   2.850
 7439SOL    HW222692   5.298   5.878   2.702
 7440SOL     OW22693   3.965   6.272   3.836
 7440SOL    HW122694   3.870   6.270   3.867
 7440SOL    HW222695   3.971   6.233   3.744
 7441SOL     OW22696   3.954   5.820   4.742
 7441SOL    HW122697   4.005   5.803   4.826
 7441SOL    HW222698   3.874   5.760   4.739
 7442SOL     OW22699   3.737   5.995   4.363
 7442SOL    HW122700   3.655   6.023   4.413
 7442SOL    HW222701   3.712   5.930   4.292
 7443SOL     OW22702   4.913   6.287   4.392
 7443SOL    HW122703   4.985   6.357   4.388
 7443SOL    HW222704   4.865   6.294   4.479
 7444SOL     OW22705   5.530   6.175   3.931
 7444SOL    HW122706   5.486   6.184   3.842
 7444SOL    HW222707   5.481   6.107   3.986
 7445SOL     OW22708   4.684   6.355   5.615
 7445SOL    HW122709   4.684   6.395   5.707
 7445SOL    HW222710   4.688   6.429   5.547
 7446SOL     OW22711   4.423   0.053   4.448
 7446SOL    HW122712   4.458   0.063   4.541
 7446SOL    HW222713   4.351   0.120   4.431
 7447SOL     OW22714   4.143   6.006   5.225
 7447SOL    HW122715   4.229   5.967   5.259
 7447SOL    HW222716   4.072   5.936   5.230
 7448SOL     OW22717   5.293   6.013   4.463
 7448SOL    HW122718   5.203   6.008   4.420
 7448SOL    HW222719   5.315   6.109   4.484
 7449SOL     OW22720   5.407   5.662   5.221
 7449SOL    HW122721   5.435   5.719   5.143
 7449SOL    HW222722   5.343   5.714   5.279
 7450SOL     OW22723   3.837   6.249   4.312
 7450SOL    HW122724   3.809   6.153   4.317
 7450SOL    HW222725   3.821   6.294   4.399
 7451SOL     OW22726   3.927   6.377   5.292
 7451SOL    HW122727   4.009   6.412   5.246
 7451SOL    HW222728   3.895   6.445   5.358
 7452SOL     OW22729   4.568   5.583   4.249
 7452SOL    HW122730   4.623   5.657   4.210
 7452SOL    HW222731   4.472   5.608   4.249
 7453SOL     OW22732   4.086   5.877   5.592
 7453SOL    HW122733   4.123   5.959   5.636
 7453SOL    HW222734   3.987   5.888   5.580
 7454SOL     OW22735   4.313   6.251   4.060
 7454SOL    HW122736   4.352   6.342   4.047
 7454SOL    HW222737   4.239   6.255   4.127
 7455SOL     OW22738   4.994   5.981   4.671
 7455SOL    HW122739   4.903   5.942   4.670
 7455SOL    HW222740   5.052   5.930   4.736
 7456SOL     OW22741   4.513   6.250   5.166
 7456SOL    HW122742   4.520   6.201   5.253
 7456SOL    HW222743   4.495   6.185   5.093
 7457SOL     OW22744   5.096   6.112   5.422
 7457SOL    HW122745   5.097   6.167   5.505
 7457SOL    HW222746   5.190   6.091   5.394
 7458SOL     OW22747   4.734   5.973   4.918
 7458SOL    HW122748   4.645   6.010   4.943
 7458SOL    HW222749   4.724   5.917   4.835
 7459SOL     OW22750   4.801   6.244   4.140
 7459SOL    HW122751   4.833   6.259   4.234
 7459SOL    HW222752   4.708   6.206   4.142
 7460SOL     OW22753   3.798   6.409   4.542
 7460SOL    HW122754   3.875   6.375   4.595
 7460SOL    HW222755   3.831   6.467   4.468
 7461SOL     OW22756   4.585   5.916   3.937
 7461SOL    HW122757   4.640   5.968   3.872
 7461SOL    HW222758   4.521   5.857   3.887
 7462SOL     OW22759   5.380   6.217   5.541
 7462SOL    HW122760   5.350   6.299   5.493
 7462SOL    HW222761   5.388   6.141   5.476
 7463SOL     OW22762   4.292   5.740   4.705
 7463SOL    HW122763   4.311   5.769   4.798
 7463SOL    HW222764   4.283   5.821   4.646
 7464SOL     OW22765   5.337   6.293   4.500
 7464SOL    HW122766   5.280   6.276   4.581
 7464SOL    HW222767   5.422   6.337   4.528
 7465SOL     OW22768   3.932   5.831   5.218
 7465SOL    HW122769   3.854   5.893   5.213
 7465SOL    HW222770   3.905   5.746   5.262
 7466SOL     OW22771   5.140   5.673   4.179
 7466SOL    HW122772   5.141   5.652   4.081
 7466SOL    HW222773   5.229   5.651   4.218
 7467SOL     OW22774   4.116   6.247   4.252
 7467SOL    HW122775   4.129   6.150   4.269
 7467SOL    HW222776   4.019   6.270   4.262
 7468SOL     OW22777   5.233   5.796   5.386
 7468SOL    HW122778   5.248   5.812   5.484
 7468SOL    HW222779   5.137   5.772   5.371
 7469SOL     OW22780   4.407   5.729   3.822
 7469SOL    HW122781   4.482   5.663   3.821
 7469SOL    HW222782   4.333   5.696   3.763
 7470SOL     OW22783   4.517   5.835   5.439
 7470SOL    HW122784   4.603   5.784   5.446
 7470SOL    HW222785   4.458   5.811   5.516
 7471SOL     OW22786   4.993   6.201   5.182
 7471SOL    HW122787   5.018   6.163   5.271
 7471SOL    HW222788   5.030   6.293   5.173
 7472SOL     OW22789   4.652   6.079   4.592
 7472SOL    HW122790   4.637   6.058   4.496
 7472SOL    HW222791   4.675   5.994   4.641
 7473SOL     OW22792   4.308   5.661   4.227
 7473SOL    HW122793   4.233   5.652   4.293
 7473SOL    HW222794   4.292   5.743   4.170
 7474SOL     OW22795   4.022   5.636   3.887
 7474SOL    HW122796   4.062   5.717   3.845
 7474SOL    HW222797   4.093   5.583   3.933
 7475SOL     OW22798   4.709   5.795   4.154
 7475SOL    HW122799   4.667   5.836   4.073
 7475SOL    HW222800   4.806   5.820   4.157
 7476SOL     OW22801   4.764   6.318   5.056
 7476SOL    HW122802   4.677   6.297   5.101
 7476SOL    HW222803   4.838   6.268   5.101
 7477SOL     OW22804   4.222   0.235   4.410
 7477SOL    HW122805   4.135   0.267   4.447
 7477SOL    HW222806   4.205   0.182   4.327
 7478SOL     OW22807   4.747   6.081   3.786
 7478SOL    HW122808   4.722   6.176   3.764
 7478SOL    HW222809   4.824   6.081   3.850
 7479SOL     OW22810   3.841   6.204   5.090
 7479SOL    HW122811   3.934   6.186   5.059
 7479SOL    HW222812   3.843   6.273   5.163
 7480SOL     OW22813   4.322   5.831   4.968
 7480SOL    HW122814   4.374   5.792   5.045
 7480SOL    HW222815   4.226   5.808   4.978
 7481SOL     OW22816   4.626   5.990   4.339
 7481SOL    HW122817   4.586   6.052   4.271
 7481SOL    HW222818   4.660   5.908   4.294
 7482SOL     OW22819   4.758   5.634   4.459
 7482SOL    HW122820   4.691   5.628   4.384
 7482SOL    HW222821   4.741   5.562   4.525
 7483SOL     OW22822   5.166   6.209   4.705
 7483SOL    HW122823   5.104   6.131   4.694
 7483SOL    HW222824   5.229   6.191   4.781
 7484SOL     OW22825   5.520   6.376   4.122
 7484SOL    HW122826   5.576   6.336   4.195
 7484SOL    HW222827   5.530   6.322   4.039
 7485SOL     OW22828   5.129   6.224   3.809
 7485SOL    HW122829   5.078   6.168   3.874
 7485SOL    HW222830   5.225   6.195   3.808
 7486SOL     OW22831   4.251   5.857   4.041
 7486SOL    HW122832   4.308   5.811   3.973
 7486SOL    HW222833   4.210   5.939   4.001
 7487SOL     OW22834   4.702   5.634   5.104
 7487SOL    HW122835   4.722   5.622   5.007
 7487SOL    HW222836   4.778   5.683   5.147
 7488SOL     OW22837   4.414   0.006   4.072
 7488SOL    HW122838   4.331   0.036   4.121
 7488SOL    HW222839   4.492   0.009   4.135
 7489SOL     OW22840   4.166   6.415   5.010
 7489SOL    HW122841   4.226   6.426   5.089
 7489SOL    HW222842   4.137   6.319   5.004
 7490SOL     OW22843   4.976   5.963   5.038
 7490SOL    HW122844   4.992   6.049   5.086
 7490SOL    HW222845   4.886   5.967   4.993
 7491SOL     OW22846   4.270   5.996   4.578
 7491SOL    HW122847   4.265   6.016   4.480
 7491SOL    HW222848   4.330   6.062   4.623
 7492SOL     OW22849   5.315   6.221   4.226
 7492SOL    HW122850   5.315   6.242   4.324
 7492SOL    HW222851   5.375   6.284   4.179
 7493SOL     OW22852   5.293   6.427   5.383
 7493SOL    HW122853   5.206   6.409   5.337
 7493SOL    HW222854   5.352   6.482   5.324
 7494SOL     OW22855   4.744   5.694   5.478
 7494SOL    HW122856   4.809   5.769   5.488
 7494SOL    HW222857   4.792   5.611   5.450
 7495SOL     OW22858   4.215   5.673   5.457
 7495SOL    HW122859   4.159   5.609   5.404
 7495SOL    HW222860   4.158   5.747   5.491
 7496SOL     OW22861   4.280   6.422   4.754
 7496SOL    HW122862   4.312   0.013   4.729
 7496SOL    HW222863   4.246   6.423   4.848
 7497SOL     OW22864   5.105   6.476   4.695
 7497SOL    HW122865   5.097   0.003   4.599
 7497SOL    HW222866   5.114   6.376   4.700
 7498SOL     OW22867   4.950   6.087   3.975
 7498SOL    HW122868   4.971   6.004   4.027
 7498SOL    HW222869   4.903   6.153   4.034
 7499SOL     OW22870   4.061   5.756   4.988
 7499SOL    HW122871   4.013   5.786   5.070
 7499SOL    HW222872   4.052   5.657   4.979
 7500SOL     OW22873   4.418   6.179   4.723
 7500SOL    HW122874   4.497   6.174   4.662
 7500SOL    HW222875   4.376   6.269   4.715
 7501SOL     OW22876   5.483   0.076   5.537
 7501SOL    HW122877   5.417   0.009   5.501
 7501SOL    HW222878   5.440   0.129   5.609
 7502SOL     OW22879   4.084   5.629   4.386
 7502SOL    HW122880   4.032   5.713   4.401
 7502SOL    HW222881   4.100   5.584   4.474
 7503SOL     OW22882   5.345   6.004   4.056
 7503SOL    HW122883   5.391   5.929   4.104
 7503SOL    HW222884   5.319   6.074   4.123
 7504SOL     OW22885   4.788   6.308   4.643
 7504SOL    HW122886   4.847   6.293   4.723
 7504SOL    HW222887   4.733   6.227   4.627
 7505SOL     OW22888   5.224   5.869   3.843
 7505SOL    HW122889   5.188   5.784   3.880
 7505SOL    HW222890   5.266   5.923   3.917
 7506SOL     OW22891   4.046   6.339   4.632
 7506SOL    HW122892   4.132   6.377   4.664
 7506SOL    HW222893   4.042   6.241   4.654
 7507SOL     OW22894   4.044   6.072   4.715
 7507SOL    HW122895   3.998   5.984   4.729
 7507SOL    HW222896   4.128   6.058   4.663
 7508SOL     OW22897   4.890   5.931   5.457
 7508SOL    HW122898   4.826   5.979   5.518
 7508SOL    HW222899   4.970   5.989   5.441
 7509SOL     OW22900   4.919   5.769   5.227
 7509SOL    HW122901   4.894   5.823   5.307
 7509SOL    HW222902   4.949   5.829   5.153
 7510SOL     OW22903   3.779   6.130   4.833
 7510SOL    HW122904   3.865   6.134   4.782
 7510SOL    HW222905   3.795   6.160   4.927
 7511SOL     OW22906   3.964   6.154   5.449
 7511SOL    HW122907   4.040   6.106   5.405
 7511SOL    HW222908   3.937   6.233   5.394
 7512SOL     OW22909   4.551   6.125   4.114
 7512SOL    HW122910   4.558   6.049   4.050
 7512SOL    HW222911   4.464   6.172   4.101
 7513SOL     OW22912   5.363   6.197   4.902
 7513SOL    HW122913   5.368   6.134   4.980
 7513SOL    HW222914   5.454   6.207   4.861
 7514SOL     OW22915   4.472   6.063   4.962
 7514SOL    HW122916   4.416   5.981   4.968
 7514SOL    HW222917   4.451   6.112   4.878
 7515SOL     OW22918   4.160   6.083   3.907
 7515SOL    HW122919   4.231   6.136   3.952
 7515SOL    HW222920   4.082   6.143   3.886
 7516SOL     OW22921   5.492   5.795   4.162
 7516SOL    HW122922   5.550   5.774   4.084
 7516SOL    HW222923   5.455   5.710   4.201
 7517SOL     OW22924   5.121   6.468   4.405
 7517SOL    HW122925   5.207   6.419   4.419
 7517SOL    HW222926   5.126   0.023   4.322
 7518SOL     OW22927   5.544   5.728   4.717
 7518SOL    HW122928   5.578   5.642   4.680
 7518SOL    HW222929   5.457   5.750   4.674
 7519SOL     OW22930   3.961   5.861   4.456
 7519SOL    HW122931   3.879   5.911   4.427
 7519SOL    HW222932   3.961   5.854   4.556
 7520SOL     OW22933   4.793   6.456   3.971
 7520SOL    HW122934   4.749   0.032   4.018
 7520SOL    HW222935   4.799   6.378   4.032
 7521SOL     OW22936   4.757   5.820   4.680
 7521SOL    HW122937   4.756   5.782   4.587
 7521SOL    HW222938   4.765   5.746   4.746
 7522SOL     OW22939   5.493   6.018   5.098
 7522SOL    HW122940   5.576   6.074   5.100
 7522SOL    HW222941   5.515   5.928   5.059
 7523SOL     OW22942   3.866   0.074   5.474
 7523SOL    HW122943   3.768   0.086   5.491
 7523SOL    HW222944   3.914   0.066   5.561
 7524SOL     OW22945   4.457   5.729   5.186
 7524SOL    HW122946   4.545   5.697   5.153
 7524SOL    HW222947   4.468   5.773   5.276
 7525SOL     OW22948   3.823   5.929   3.698
 7525SOL    HW122949   3.746   5.916   3.635
 7525SOL    HW222950   3.870   6.014   3.676
 7526SOL     OW22951   5.096   6.454   5.176
 7526SOL    HW122952   5.035   0.033   5.185
 7526SOL    HW222953   5.152   6.465   5.094
 7527SOL     OW22954   3.785   5.759   3.937
 7527SOL    HW122955   3.772   5.823   3.861
 7527SOL    HW222956   3.874   5.715   3.929
 7528SOL     OW22957   4.326   6.454   5.228
 7528SOL    HW122958   4.369   0.044   5.223
 7528SOL    HW222959   4.395   6.383   5.215
 7529SOL     OW22960   4.532   6.111   5.398
 7529SOL    HW122961   4.567   6.153   5.482
 7529SOL    HW222962   4.529   6.011   5.410
 7530SOL     OW22963   5.248   6.456   4.938
 7530SOL    HW122964   5.291   6.366   4.935
 7530SOL    HW222965   5.196   6.472   4.854
 7531SOL     OW22966   4.970   5.886   4.171
 7531SOL    HW122967   5.033   5.809   4.172
 7531SOL    HW222968   4.986   5.942   4.253
 7532SOL     OW22969   4.324   6.288   4.436
 7532SOL    HW122970   4.363   6.380   4.435
 7532SOL    HW222971   4.250   6.282   4.369
 7533SOL     OW22972   5.355   6.035   5.337
 7533SOL    HW122973   5.406   6.038   5.251
 7533SOL    HW222974   5.320   5.942   5.352
 7534SOL     OW22975   5.542   5.760   4.993
 7534SOL    HW122976   5.614   5.695   5.013
 7534SOL    HW222977   5.524   5.762   4.895
 7535SOL     OW22978   4.154   5.983   4.295
 7535SOL    HW122979   4.180   5.929   4.215
 7535SOL    HW222980   4.087   5.932   4.349
 7536SOL     OW22981   4.090   6.153   4.996
 7536SOL    HW122982   4.124   6.095   5.070
 7536SOL    HW222983   4.104   6.108   4.908
 7537SOL     OW22984   5.138   5.838   4.854
 7537SOL    HW122985   5.161   5.744   4.878
 7537SOL    HW222986   5.088   5.880   4.930
 7538SOL     OW22987   4.772   5.590   4.836
 7538SOL    HW122988   4.728   5.526   4.772
 7538SOL    HW222989   4.863   5.556   4.859
 7539SOL     OW22990   5.130   5.617   3.911
 7539SOL    HW122991   5.181   5.547   3.861
 7539SOL    HW222992   5.037   5.585   3.926
 7540SOL     OW22993   5.022   6.033   4.400
 7540SOL    HW122994   4.984   6.123   4.383
 7540SOL    HW222995   5.007   6.007   4.495
 7541SOL     OW22996   5.297   5.795   4.632
 7541SOL    HW122997   5.239   5.823   4.709
 7541SOL    HW222998   5.297   5.866   4.562
 7542SOL     OW22999   3.933   6.260   5.710
 7542SOL    HW123000   3.841   6.243   5.747
 7542SOL    HW223001   3.935   6.233   5.614
 7543SOL     OW23002   3.775   6.041   0.104
 7543SOL    HW123003   3.844   5.991   0.157
 7543SOL    HW223004   3.707   5.976   0.070
 7544SOL     OW23005   3.697   6.021   6.213
 7544SOL    HW123006   3.612   6.034   6.266
 7544SOL    HW223007   3.679   5.959   6.136
 7545SOL     OW23008   4.898   6.276   6.253
 7545SOL    HW123009   4.944   6.363   6.242
 7545SOL    HW223010   4.851   6.273   6.341
 7546SOL     OW23011   5.542   6.171   5.756
 7546SOL    HW123012   5.491   6.199   5.675
 7546SOL    HW223013   5.493   6.096   5.802
 7547SOL     OW23014   4.434   0.046   6.241
 7547SOL    HW123015   4.459   0.005   6.328
 7547SOL    HW223016   4.391   0.135   6.258
 7548SOL     OW23017   5.312   6.129   6.257
 7548SOL    HW123018   5.223   6.082   6.263
 7548SOL    HW223019   5.308   6.214   6.308
 7549SOL     OW23020   3.802   6.281   6.182
 7549SOL    HW123021   3.765   6.188   6.193
 7549SOL    HW223022   3.792   6.331   6.268
 7550SOL     OW23023   4.596   5.617   6.042
 7550SOL    HW123024   4.648   5.703   6.039
 7550SOL    HW223025   4.499   5.637   6.053
 7551SOL     OW23026   4.300   6.258   5.924
 7551SOL    HW123027   4.348   6.345   5.927
 7551SOL    HW223028   4.217   6.263   5.979
 7552SOL     OW23029   4.955   5.914   6.481
 7552SOL    HW123030   4.860   5.891   6.500
 7552SOL    HW223031   5.015   5.845   0.022
 7553SOL     OW23032   4.772   6.241   6.010
 7553SOL    HW123033   4.811   6.251   6.102
 7553SOL    HW223034   4.684   6.194   6.017
 7554SOL     OW23035   3.791   6.430   6.419
 7554SOL    HW123036   3.810   6.378   0.002
 7554SOL    HW223037   3.874   6.477   6.388
 7555SOL     OW23038   4.594   5.915   5.809
 7555SOL    HW123039   4.647   5.971   5.745
 7555SOL    HW223040   4.539   5.849   5.758
 7556SOL     OW23041   4.139   6.051   6.450
 7556SOL    HW123042   4.128   6.095   0.039
 7556SOL    HW223043   4.227   6.076   6.411
 7557SOL     OW23044   5.254   6.359   6.394
 7557SOL    HW123045   5.218   6.299   6.465
 7557SOL    HW223046   5.262   6.452   6.431
 7558SOL     OW23047   5.177   5.712   6.011
 7558SOL    HW123048   5.181   5.678   5.917
 7558SOL    HW223049   5.269   5.709   6.051
 7559SOL     OW23050   4.071   6.256   6.085
 7559SOL    HW123051   4.076   6.156   6.076
 7559SOL    HW223052   3.978   6.282   6.112
 7560SOL     OW23053   4.385   5.728   5.665
 7560SOL    HW123054   4.425   5.640   5.690
 7560SOL    HW223055   4.316   5.714   5.594
 7561SOL     OW23056   4.343   5.718   6.068
 7561SOL    HW123057   4.326   5.763   6.156
 7561SOL    HW223058   4.315   5.779   5.994
 7562SOL     OW23059   4.025   5.661   5.764
 7562SOL    HW123060   4.071   5.737   5.719
 7562SOL    HW223061   4.089   5.614   5.825
 7563SOL     OW23062   4.729   5.856   6.051
 7563SOL    HW123063   4.681   5.884   5.968
 7563SOL    HW223064   4.826   5.877   6.042
 7564SOL     OW23065   4.309   0.278   6.308
 7564SOL    HW123066   4.340   0.361   6.354
 7564SOL    HW223067   4.251   0.303   6.231
 7565SOL     OW23068   4.752   6.088   5.650
 7565SOL    HW123069   4.725   6.183   5.631
 7565SOL    HW223070   4.829   6.088   5.714
 7566SOL     OW23071   4.657   6.031   6.287
 7566SOL    HW123072   4.563   6.065   6.294
 7566SOL    HW223073   4.670   5.989   6.198
 7567SOL     OW23074   4.765   5.700   6.297
 7567SOL    HW123075   4.754   5.760   6.218
 7567SOL    HW223076   4.750   5.605   6.269
 7568SOL     OW23077   5.188   0.142   6.418
 7568SOL    HW123078   5.130   0.100   6.348
 7568SOL    HW223079   5.228   0.226   6.383
 7569SOL     OW23080   5.529   6.365   5.964
 7569SOL    HW123081   5.594   6.338   6.035
 7569SOL    HW223082   5.548   6.314   5.880
 7570SOL     OW23083   5.121   6.244   5.670
 7570SOL    HW123084   5.070   6.191   5.738
 7570SOL    HW223085   5.217   6.215   5.671
 7571SOL     OW23086   4.252   5.869   5.862
 7571SOL    HW123087   4.301   5.819   5.791
 7571SOL    HW223088   4.219   5.956   5.826
 7572SOL     OW23089   4.442   6.491   5.956
 7572SOL    HW123090   4.438   0.016   6.052
 7572SOL    HW223091   4.537   6.477   5.929
 7573SOL     OW23092   4.413   6.138   6.404
 7573SOL    HW123093   4.365   6.196   6.337
 7573SOL    HW223094   4.464   6.197   6.468
 7574SOL     OW23095   5.301   6.210   5.995
 7574SOL    HW123096   5.298   6.183   6.091
 7574SOL    HW223097   5.372   6.280   5.983
 7575SOL     OW23098   4.948   6.110   5.844
 7575SOL    HW123099   4.978   6.033   5.899
 7575SOL    HW223100   4.890   6.170   5.900
 7576SOL     OW23101   3.866   5.682   6.085
 7576SOL    HW123102   3.819   5.761   6.046
 7576SOL    HW223103   3.855   5.681   6.184
 7577SOL     OW23104   5.371   5.979   5.873
 7577SOL    HW123105   5.397   5.915   5.946
 7577SOL    HW223106   5.331   6.061   5.914
 7578SOL     OW23107   5.271   5.845   5.652
 7578SOL    HW123108   5.227   5.765   5.691
 7578SOL    HW223109   5.303   5.905   5.725
 7579SOL     OW23110   4.528   6.111   5.996
 7579SOL    HW123111   4.539   6.039   5.927
 7579SOL    HW223112   4.442   6.159   5.979
 7580SOL     OW23113   4.159   6.101   5.747
 7580SOL    HW123114   4.226   6.155   5.797
 7580SOL    HW223115   4.074   6.153   5.738
 7581SOL     OW23116   5.474   5.789   6.055
 7581SOL    HW123117   5.531   5.765   5.976
 7581SOL    HW223118   5.456   5.707   6.109
 7582SOL     OW23119   5.077   6.486   6.218
 7582SOL    HW123120   5.146   6.424   6.256
 7582SOL    HW223121   5.110   0.027   6.133
 7583SOL     OW23122   5.547   5.822   0.048
 7583SOL    HW123123   5.557   5.736   6.499
 7583SOL    HW223124   5.453   5.855   0.039
 7584SOL     OW23125   3.949   5.925   6.302
 7584SOL    HW123126   3.869   5.981   6.283
 7584SOL    HW223127   4.014   5.977   6.358
 7585SOL     OW23128   4.704   6.467   5.875
 7585SOL    HW123129   4.737   0.050   5.920
 7585SOL    HW223130   4.738   6.387   5.924
 7586SOL     OW23131   3.820   5.950   5.572
 7586SOL    HW123132   3.730   5.942   5.528
 7586SOL    HW223133   3.867   6.030   5.536
 7587SOL     OW23134   3.774   5.769   5.791
 7587SOL    HW123135   3.773   5.837   5.717
 7587SOL    HW223136   3.865   5.727   5.796
 7588SOL     OW23137   4.995   5.913   6.032
 7588SOL    HW123138   5.062   5.840   6.018
 7588SOL    HW223139   5.018   5.964   6.114
 7589SOL     OW23140   4.283   6.310   6.248
 7589SOL    HW123141   4.319   6.402   6.231
 7589SOL    HW223142   4.199   6.296   6.196
 7590SOL     OW23143   4.092   5.988   6.069
 7590SOL    HW123144   4.132   5.923   6.005
 7590SOL    HW223145   4.045   5.938   6.142
 7591SOL     OW23146   5.167   5.617   5.756
 7591SOL    HW123147   5.215   5.540   5.713
 7591SOL    HW223148   5.072   5.592   5.772
 7592SOL     OW23149   5.048   6.046   6.262
 7592SOL    HW123150   4.996   6.131   6.254
 7592SOL    HW223151   5.018   5.997   6.343
 7593SOL     OW23152   5.814   0.681   0.118
 7593SOL    HW123153   5.742   0.620   0.151
 7593SOL    HW223154   5.783   0.727   0.035
 7594SOL     OW23155   5.788   0.266   1.029
 7594SOL    HW123156   5.839   0.229   1.107
 7594SOL    HW223157   5.700   0.219   1.022
 7595SOL     OW23158   5.596   0.424   0.651
 7595SOL    HW123159   5.512   0.437   0.703
 7595SOL    HW223160   5.574   0.402   0.556
 7596SOL     OW23161   6.111   1.375   1.282
 7596SOL    HW123162   6.050   1.362   1.204
 7596SOL    HW223163   6.144   1.469   1.284
 7597SOL     OW23164   6.456   0.757   1.828
 7597SOL    HW123165   6.468   0.817   1.908
 7597SOL    HW223166   0.015   0.789   1.754
 7598SOL     OW23167   6.260   0.916   0.700
 7598SOL    HW123168   6.359   0.927   0.707
 7598SOL    HW223169   6.218   1.006   0.690
 7599SOL     OW23170   6.261   1.141   1.861
 7599SOL    HW123171   6.325   1.126   1.785
 7599SOL    HW223172   6.181   1.190   1.828
 7600SOL     OW23173   5.937   1.398   1.066
 7600SOL    HW123174   5.868   1.338   1.025
 7600SOL    HW223175   5.987   1.445   0.994
 7601SOL     OW23176   6.040   0.366   1.493
 7601SOL    HW123177   6.119   0.308   1.515
 7601SOL    HW223178   5.956   0.316   1.513
 7602SOL     OW23179   5.810   1.718   0.493
 7602SOL    HW123180   5.821   1.796   0.554
 7602SOL    HW223181   5.892   1.708   0.437
 7603SOL     OW23182   5.813   1.442   0.478
 7603SOL    HW123183   5.802   1.538   0.502
 7603SOL    HW223184   5.793   1.385   0.558
 7604SOL     OW23185   5.912   1.076   0.861
 7604SOL    HW123186   5.909   0.978   0.880
 7604SOL    HW223187   5.853   1.124   0.926
 7605SOL     OW23188   6.131   1.866   1.412
 7605SOL    HW123189   6.056   1.830   1.466
 7605SOL    HW223190   6.184   1.930   1.467
 7606SOL     OW23191   6.177   0.979   0.259
 7606SOL    HW123192   6.222   1.032   0.187
 7606SOL    HW223193   6.208   1.012   0.348
 7607SOL     OW23194   5.726   0.666   0.588
 7607SOL    HW123195   5.691   0.577   0.618
 7607SOL    HW223196   5.717   0.732   0.662
 7608SOL     OW23197   5.579   1.609   0.054
 7608SOL    HW123198   5.540   1.517   0.061
 7608SOL    HW223199   5.593   1.646   0.146
 7609SOL     OW23200   5.670   0.767   1.531
 7609SOL    HW123201   5.728   0.813   1.464
 7609SOL    HW223202   5.585   0.819   1.543
 7610SOL     OW23203   6.222   1.385   0.724
 7610SOL    HW123204   6.182   1.296   0.703
 7610SOL    HW223205   6.235   1.436   0.640
 7611SOL     OW23206   6.390   0.131   0.517
 7611SOL    HW123207   6.488   0.119   0.528
 7611SOL    HW223208   6.342   0.093   0.596
 7612SOL     OW23209   5.779   0.907   1.318
 7612SOL    HW123210   5.876   0.883   1.311
 7612SOL    HW223211   5.732   0.879   1.234
 7613SOL     OW23212   5.898   0.250   1.829
 7613SOL    HW123213   5.967   0.307   1.875
 7613SOL    HW223214   5.811   0.299   1.825
 7614SOL     OW23215   6.187   0.703   0.276
 7614SOL    HW123216   6.197   0.802   0.263
 7614SOL    HW223217   6.121   0.687   0.350
 7615SOL     OW23218   6.402   0.616   1.492
 7615SOL    HW123219   6.353   0.584   1.574
 7615SOL    HW223220   6.363   0.572   1.411
 7616SOL     OW23221   5.686   0.846   0.795
 7616SOL    HW123222   5.769   0.822   0.846
 7616SOL    HW223223   5.634   0.915   0.846
 7617SOL     OW23224   5.684   1.901   1.611
 7617SOL    HW123225   5.692   1.859   1.702
 7617SOL    HW223226   5.591   1.889   1.577
 7618SOL     OW23227   6.202   0.217   0.980
 7618SOL    HW123228   6.206   0.242   1.077
 7618SOL    HW223229   6.184   0.300   0.926
 7619SOL     OW23230   5.957   1.791   0.875
 7619SOL    HW123231   5.996   1.699   0.880
 7619SOL    HW223232   6.024   1.857   0.910
 7620SOL     OW23233   5.904   0.922   0.236
 7620SOL    HW123234   6.003   0.933   0.241
 7620SOL    HW223235   5.882   0.828   0.210
 7621SOL     OW23236   6.036   1.280   1.770
 7621SOL    HW123237   6.032   1.262   1.671
 7621SOL    HW223238   5.943   1.289   1.806
 7622SOL     OW23239   5.786   0.251   1.490
 7622SOL    HW123240   5.734   0.337   1.488
 7622SOL    HW223241   5.751   0.193   1.564
 7623SOL     OW23242   6.047   1.736   0.361
 7623SOL    HW123243   6.103   1.809   0.402
 7623SOL    HW223244   6.106   1.676   0.307
 7624SOL     OW23245   5.774   1.836   1.189
 7624SOL    HW123246   5.824   1.756   1.220
 7624SOL    HW223247   5.747   1.824   1.093
 7625SOL     OW23248   5.986   0.666   0.473
 7625SOL    HW123249   6.014   0.570   0.469
 7625SOL    HW223250   5.891   0.672   0.505
 7626SOL     OW23251   6.174   0.032   0.123
 7626SOL    HW123252   6.232   0.096   0.174
 7626SOL    HW223253   6.171   0.060   0.027
 7627SOL     OW23254   6.348   0.289   1.746
 7627SOL    HW123255   6.443   0.259   1.740
 7627SOL    HW223256   6.306   0.250   1.827
 7628SOL     OW23257   6.463   1.443   0.848
 7628SOL    HW123258   6.479   1.535   0.813
 7628SOL    HW223259   6.377   1.408   0.811
 7629SOL     OW23260   0.047   0.491   0.837
 7629SOL    HW123261   6.483   0.492   0.760
 7629SOL    HW223262   0.003   0.448   0.916
 7630SOL     OW23263   6.044   0.085   0.441
 7630SOL    HW123264   6.033   6.489   0.469
 7630SOL    HW223265   5.998   0.099   0.353
 7631SOL     OW23266   5.909   0.035   0.204
 7631SOL    HW123267   6.001   0.041   0.166
 7631SOL    HW223268   5.859   6.459   0.161
 7632SOL     OW23269   6.097   1.144   0.670
 7632SOL    HW123270   6.038   1.121   0.747
 7632SOL    HW223271   6.046   1.137   0.585
 7633SOL     OW23272   5.702   0.521   1.408
 7633SOL    HW123273   5.798   0.526   1.383
 7633SOL    HW223274   5.678   0.600   1.465
 7634SOL     OW23275   6.171   0.272   1.245
 7634SOL    HW123276   6.217   0.244   1.329
 7634SOL    HW223277   6.076   0.243   1.247
 7635SOL     OW23278   6.104   1.353   0.118
 7635SOL    HW123279   6.016   1.337   0.162
 7635SOL    HW223280   6.090   1.361   0.019
 7636SOL     OW23281   6.068   0.324   0.209
 7636SOL    HW123282   6.159   0.286   0.224
 7636SOL    HW223283   6.075   0.409   0.156
 7637SOL     OW23284   0.024   0.073   1.435
 7637SOL    HW123285   0.047   0.015   1.357
 7637SOL    HW223286   0.097   0.140   1.450
 7638SOL     OW23287   6.033   0.810   1.308
 7638SOL    HW123288   6.104   0.827   1.377
 7638SOL    HW223289   6.005   0.714   1.311
 7639SOL     OW23290   5.636   1.564   1.334
 7639SOL    HW123291   5.581   1.626   1.279
 7639SOL    HW223292   5.733   1.581   1.317
 7640SOL     OW23293   5.929   1.119   0.449
 7640SOL    HW123294   5.922   1.192   0.381
 7640SOL    HW223295   5.917   1.031   0.404
 7641SOL     OW23296   6.155   0.510   0.911
 7641SOL    HW123297   6.150   0.549   0.819
 7641SOL    HW223298   6.221   0.562   0.965
 7642SOL     OW23299   5.895   1.601   1.243
 7642SOL    HW123300   5.894   1.523   1.181
 7642SOL    HW223301   5.989   1.626   1.265
 7643SOL     OW23302   6.059   0.709   1.676
 7643SOL    HW123303   6.102   0.767   1.606
 7643SOL    HW223304   6.124   0.641   1.708
 7644SOL     OW23305   6.065   0.021   1.831
 7644SOL    HW123306   6.049   6.446   1.767
 7644SOL    HW223307   5.995   0.091   1.819
 7645SOL     OW23308   6.140   0.889   1.071
 7645SOL    HW123309   6.157   0.987   1.064
 7645SOL    HW223310   6.102   0.868   1.161
 7646SOL     OW23311   5.912   0.172   1.258
 7646SOL    HW123312   5.861   0.199   1.339
 7646SOL    HW223313   5.935   0.074   1.264
 7647SOL     OW23314   5.662   1.299   1.257
 7647SOL    HW123315   5.687   1.242   1.336
 7647SOL    HW223316   5.647   1.393   1.287
 7648SOL     OW23317   6.323   0.683   1.046
 7648SOL    HW123318   6.414   0.710   1.015
 7648SOL    HW223319   6.263   0.763   1.046
 7649SOL     OW23320   5.837   6.481   0.677
 7649SOL    HW123321   5.828   0.080   0.690
 7649SOL    HW223322   5.863   6.438   0.763
 7650SOL     OW23323   0.089   0.738   0.952
 7650SOL    HW123324   0.182   0.775   0.958
 7650SOL    HW223325   0.091   0.647   0.911
 7651SOL     OW23326   6.495   1.692   1.605
 7651SOL    HW123327   6.485   1.664   1.509
 7651SOL    HW223328   0.068   1.639   1.648
 7652SOL     OW23329   5.937   0.917   1.814
 7652SOL    HW123330   6.002   0.943   1.886
 7652SOL    HW223331   5.974   0.841   1.761
 7653SOL     OW23332   5.913   0.795   0.942
 7653SOL    HW123333   6.002   0.826   0.977
 7653SOL    HW223334   5.902   0.698   0.963
 7654SOL     OW23335   5.906   0.515   1.025
 7654SOL    HW123336   5.859   0.427   1.018
 7654SOL    HW223337   5.995   0.508   0.980
 7655SOL     OW23338   5.650   1.213   0.128
 7655SOL    HW123339   5.572   1.274   0.120
 7655SOL    HW223340   5.625   1.133   0.182
 7656SOL     OW23341   5.686   1.779   0.934
 7656SOL    HW123342   5.640   1.699   0.894
 7656SOL    HW223343   5.780   1.783   0.903
 7657SOL     OW23344   6.102   1.555   0.903
 7657SOL    HW123345   6.174   1.606   0.949
 7657SOL    HW223346   6.143   1.491   0.838
 7658SOL     OW23347   5.668   0.622   1.146
 7658SOL    HW123348   5.746   0.593   1.090
 7658SOL    HW223349   5.679   0.589   1.239
 7659SOL     OW23350   5.796   0.626   1.736
 7659SOL    HW123351   5.893   0.639   1.716
 7659SOL    HW223352   5.741   0.681   1.673
 7660SOL     OW23353   6.425   0.567   0.196
 7660SOL    HW123354   6.460   0.501   0.262
 7660SOL    HW223355   6.345   0.614   0.234
 7661SOL     OW23356   5.803   1.548   1.701
 7661SOL    HW123357   5.781   1.623   1.764
 7661SOL    HW223358   5.802   1.462   1.751
 7662SOL     OW23359   6.311   0.510   1.261
 7662SOL    HW123360   6.249   0.433   1.247
 7662SOL    HW223361   6.302   0.574   1.184
 7663SOL     OW23362   6.066   0.563   0.072
 7663SOL    HW123363   6.122   0.617   0.136
 7663SOL    HW223364   5.972   0.594   0.077
 7664SOL     OW23365   5.725   1.130   1.471
 7664SOL    HW123366   5.726   1.101   1.567
 7664SOL    HW223367   5.743   1.051   1.412
 7665SOL     OW23368   5.728   1.214   1.008
 7665SOL    HW123369   5.702   1.246   1.099
 7665SOL    HW223370   5.652   1.164   0.967
 7666SOL     OW23371   6.261   1.689   1.749
 7666SOL    HW123372   6.206   1.772   1.737
 7666SOL    HW223373   6.346   1.698   1.698
 7667SOL     OW23374   0.067   0.153   6.492
 7667SOL    HW123375   0.003   0.228   0.007
 7667SOL    HW223376   0.138   0.156   0.063
 7668SOL     OW23377   5.724   1.769   1.850
 7668SOL    HW123378   5.671   1.699   1.899
 7668SOL    HW223379   5.781   1.819   1.915
 7669SOL     OW23380   6.326   1.290   1.432
 7669SOL    HW123381   6.313   1.336   1.519
 7669SOL    HW223382   6.248   1.309   1.372
 7670SOL     OW23383   6.223   1.573   0.229
 7670SOL    HW123384   6.247   1.629   0.150
 7670SOL    HW223385   6.185   1.486   0.198
 7671SOL     OW23386   5.802   0.251   0.751
 7671SOL    HW123387   5.733   0.311   0.711
 7671SOL    HW223388   5.800   0.259   0.851
 7672SOL     OW23389   0.266   1.553   6.456
 7672SOL    HW123390   0.199   1.570   0.028
 7672SOL    HW223391   0.228   1.491   6.388
 7673SOL     OW23392   6.416   1.030   1.452
 7673SOL    HW123393   0.004   1.020   1.406
 7673SOL    HW223394   6.386   1.125   1.445
 7674SOL     OW23395   5.989   1.253   1.505
 7674SOL    HW123396   6.030   1.298   1.425
 7674SOL    HW223397   5.898   1.219   1.480
 7675SOL     OW23398   6.249   1.566   0.515
 7675SOL    HW123399   6.269   1.554   0.418
 7675SOL    HW223400   6.161   1.612   0.525
 7676SOL     OW23401   5.873   1.308   0.253
 7676SOL    HW123402   5.790   1.281   0.204
 7676SOL    HW223403   5.849   1.368   0.329
 7677SOL     OW23404   5.711   1.051   1.731
 7677SOL    HW123405   5.628   1.026   1.781
 7677SOL    HW223406   5.788   0.997   1.764
 7678SOL     OW23407   6.288   0.197   1.492
 7678SOL    HW123408   6.375   0.160   1.461
 7678SOL    HW223409   6.299   0.235   1.584
 7679SOL     OW23410   5.691   0.182   0.304
 7679SOL    HW123411   5.648   0.194   0.214
 7679SOL    HW223412   5.778   0.134   0.293
 7680SOL     OW23413   6.233   0.833   1.491
 7680SOL    HW123414   6.287   0.918   1.483
 7680SOL    HW223415   6.295   0.755   1.493
 7681SOL     OW23416   6.284   0.559   1.733
 7681SOL    HW123417   6.344   0.620   1.785
 7681SOL    HW223418   6.308   0.464   1.752
 7682SOL     OW23419   5.927   1.772   1.573
 7682SOL    HW123420   5.841   1.822   1.569
 7682SOL    HW223421   5.908   1.677   1.599
 7683SOL     OW23422   6.171   0.664   0.681
 7683SOL    HW123423   6.204   0.757   0.696
 7683SOL    HW223424   6.101   0.665   0.610
 7684SOL     OW23425   6.293   1.727   1.016
 7684SOL    HW123426   6.253   1.814   0.988
 7684SOL    HW223427   6.391   1.728   0.998
 7685SOL     OW23428   5.769   1.302   1.826
 7685SOL    HW123429   5.751   1.216   1.778
 7685SOL    HW223430   5.706   1.311   1.903
 7686SOL     OW23431   5.769   1.228   0.654
 7686SOL    HW123432   5.801   1.187   0.739
 7686SOL    HW223433   5.814   1.183   0.576
 7687SOL     OW23434   6.258   1.418   1.666
 7687SOL    HW123435   6.173   1.381   1.704
 7687SOL    HW223436   6.266   1.515   1.689
 7688SOL     OW23437   6.090   0.420   0.471
 7688SOL    HW123438   6.074   0.373   0.384
 7688SOL    HW223439   6.089   0.353   0.545
 7689SOL     OW23440   5.955   0.549   1.310
 7689SOL    HW123441   6.001   0.483   1.370
 7689SOL    HW223442   5.959   0.515   1.216
 7690SOL     OW23443   6.431   1.706   0.692
 7690SOL    HW123444   6.430   1.800   0.658
 7690SOL    HW223445   6.375   1.648   0.632
 7691SOL     OW23446   0.114   6.415   1.236
 7691SOL    HW123447   0.071   6.374   1.155
 7691SOL    HW223448   0.213   6.400   1.232
 7692SOL     OW23449   6.167   1.645   1.254
 7692SOL    HW123450   6.170   1.723   1.317
 7692SOL    HW223451   6.223   1.665   1.173
 7693SOL     OW23452   5.632   0.985   0.288
 7693SOL    HW123453   5.730   0.974   0.272
 7693SOL    HW223454   5.592   0.898   0.316
 7694SOL     OW23455   5.784   0.649   2.014
 7694SOL    HW123456   5.694   0.613   2.040
 7694SOL    HW223457   5.789   0.657   1.914
 7695SOL     OW23458   5.800   0.280   2.885
 7695SOL    HW123459   5.855   0.241   2.959
 7695SOL    HW223460   5.712   0.233   2.881
 7696SOL     OW23461   5.597   0.427   2.507
 7696SOL    HW123462   5.513   0.441   2.559
 7696SOL    HW223463   5.575   0.387   2.418
 7697SOL     OW23464   6.103   1.366   3.130
 7697SOL    HW123465   6.041   1.357   3.052
 7697SOL    HW223466   6.138   1.459   3.135
 7698SOL     OW23467   6.461   0.748   3.651
 7698SOL    HW123468   6.477   0.804   3.732
 7698SOL    HW223469   0.027   0.772   3.580
 7699SOL     OW23470   6.279   0.938   2.548
 7699SOL    HW123471   6.369   0.976   2.568
 7699SOL    HW223472   6.211   1.012   2.547
 7700SOL     OW23473   6.260   1.138   3.719
 7700SOL    HW123474   6.322   1.116   3.643
 7700SOL    HW223475   6.181   1.188   3.683
 7701SOL     OW23476   5.927   1.404   2.914
 7701SOL    HW123477   5.847   1.365   2.869
 7701SOL    HW223478   5.984   1.451   2.846
 7702SOL     OW23479   6.061   0.367   3.307
 7702SOL    HW123480   6.140   0.308   3.324
 7702SOL    HW223481   5.978   0.320   3.336
 7703SOL     OW23482   5.821   1.740   2.346
 7703SOL    HW123483   5.844   1.809   2.414
 7703SOL    HW223484   5.900   1.725   2.286
 7704SOL     OW23485   5.761   1.469   2.360
 7704SOL    HW123486   5.778   1.566   2.377
 7704SOL    HW223487   5.761   1.420   2.447
 7705SOL     OW23488   5.882   1.101   2.742
 7705SOL    HW123489   5.878   1.004   2.767
 7705SOL    HW223490   5.821   1.153   2.800
 7706SOL     OW23491   6.134   1.859   3.272
 7706SOL    HW123492   6.057   1.824   3.326
 7706SOL    HW223493   6.186   1.924   3.327
 7707SOL     OW23494   6.121   0.969   2.029
 7707SOL    HW123495   6.177   1.024   1.967
 7707SOL    HW223496   6.140   0.994   2.124
 7708SOL     OW23497   5.717   0.681   2.442
 7708SOL    HW123498   5.690   0.590   2.472
 7708SOL    HW223499   5.708   0.746   2.517
 7709SOL     OW23500   5.614   1.568   1.993
 7709SOL    HW123501   5.575   1.477   2.010
 7709SOL    HW223502   5.609   1.622   2.077
 7710SOL     OW23503   5.669   0.768   3.399
 7710SOL    HW123504   5.734   0.818   3.341
 7710SOL    HW223505   5.583   0.818   3.402
 7711SOL     OW23506   6.192   1.381   2.557
 7711SOL    HW123507   6.158   1.287   2.559
 7711SOL    HW223508   6.177   1.419   2.465
 7712SOL     OW23509   6.407   6.424   2.295
 7712SOL    HW123510   6.483   6.359   2.301
 7712SOL    HW223511   6.384   6.455   2.387
 7713SOL     OW23512   5.766   0.913   3.174
 7713SOL    HW123513   5.863   0.890   3.171
 7713SOL    HW223514   5.720   0.873   3.095
 7714SOL     OW23515   5.895   0.255   3.694
 7714SOL    HW123516   5.963   0.316   3.736
 7714SOL    HW223517   5.807   0.302   3.689
 7715SOL     OW23518   6.170   0.675   2.104
 7715SOL    HW123519   6.168   0.762   2.056
 7715SOL    HW223520   6.112   0.680   2.186
 7716SOL     OW23521   6.380   0.605   3.331
 7716SOL    HW123522   6.331   0.571   3.411
 7716SOL    HW223523   6.346   0.558   3.249
 7717SOL     OW23524   5.673   0.860   2.651
 7717SOL    HW123525   5.755   0.840   2.705
 7717SOL    HW223526   5.620   0.931   2.697
 7718SOL     OW23527   5.685   1.898   3.472
 7718SOL    HW123528   5.693   1.857   3.563
 7718SOL    HW223529   5.592   1.885   3.438
 7719SOL     OW23530   6.224   0.163   2.783
 7719SOL    HW123531   6.230   0.209   2.871
 7719SOL    HW223532   6.173   0.219   2.718
 7720SOL     OW23533   5.952   1.786   2.760
 7720SOL    HW123534   5.993   1.695   2.754
 7720SOL    HW223535   6.020   1.851   2.794
 7721SOL     OW23536   5.854   0.903   2.125
 7721SOL    HW123537   5.940   0.928   2.079
 7721SOL    HW223538   5.827   0.811   2.097
 7722SOL     OW23539   6.036   1.278   3.624
 7722SOL    HW123540   6.030   1.260   3.526
 7722SOL    HW223541   5.944   1.287   3.662
 7723SOL     OW23542   5.803   0.258   3.332
 7723SOL    HW123543   5.749   0.341   3.327
 7723SOL    HW223544   5.765   0.196   3.400
 7724SOL     OW23545   6.057   1.734   2.202
 7724SOL    HW123546   6.105   1.803   2.256
 7724SOL    HW223547   6.117   1.701   2.129
 7725SOL     OW23548   5.774   1.835   3.054
 7725SOL    HW123549   5.824   1.755   3.086
 7725SOL    HW223550   5.740   1.818   2.961
 7726SOL     OW23551   5.992   0.678   2.324
 7726SOL    HW123552   6.007   0.579   2.332
 7726SOL    HW223553   5.897   0.699   2.350
 7727SOL     OW23554   6.261   0.145   1.965
 7727SOL    HW123555   6.340   0.089   1.990
 7727SOL    HW223556   6.194   0.089   1.916
 7728SOL     OW23557   6.346   0.286   3.592
 7728SOL    HW123558   6.442   0.257   3.588
 7728SOL    HW223559   6.304   0.249   3.674
 7729SOL     OW23560   6.434   1.465   2.683
 7729SOL    HW123561   6.465   1.544   2.631
 7729SOL    HW223562   6.355   1.424   2.639
 7730SOL     OW23563   0.025   0.605   2.716
 7730SOL    HW123564   6.487   0.574   2.628
 7730SOL    HW223565   0.016   0.531   2.783
 7731SOL     OW23566   6.096   0.087   2.381
 7731SOL    HW123567   6.015   0.037   2.409
 7731SOL    HW223568   6.083   0.125   2.290
 7732SOL     OW23569   5.827   0.093   2.110
 7732SOL    HW123570   5.917   0.136   2.114
 7732SOL    HW223571   5.838   6.495   2.090
 7733SOL     OW23572   6.074   1.127   2.543
 7733SOL    HW123573   6.012   1.117   2.621
 7733SOL    HW223574   6.022   1.118   2.458
 7734SOL     OW23575   5.702   0.530   3.262
 7734SOL    HW123576   5.798   0.537   3.234
 7734SOL    HW223577   5.680   0.606   3.323
 7735SOL     OW23578   6.186   0.251   3.051
 7735SOL    HW123579   6.235   0.231   3.135
 7735SOL    HW223580   6.089   0.230   3.063
 7736SOL     OW23581   6.066   1.381   2.035
 7736SOL    HW123582   5.978   1.359   2.078
 7736SOL    HW223583   6.069   1.340   1.944
 7737SOL     OW23584   6.073   0.235   2.141
 7737SOL    HW123585   6.149   0.202   2.084
 7737SOL    HW223586   6.036   0.319   2.100
 7738SOL     OW23587   0.021   0.063   3.289
 7738SOL    HW123588   0.044   0.006   3.210
 7738SOL    HW223589   0.092   0.132   3.302
 7739SOL     OW23590   6.022   0.826   3.180
 7739SOL    HW123591   6.096   0.839   3.246
 7739SOL    HW223592   5.999   0.729   3.174
 7740SOL     OW23593   5.631   1.563   3.192
 7740SOL    HW123594   5.577   1.622   3.132
 7740SOL    HW223595   5.728   1.580   3.176
 7741SOL     OW23596   5.900   1.106   2.321
 7741SOL    HW123597   5.885   1.182   2.259
 7741SOL    HW223598   5.881   1.020   2.274
 7742SOL     OW23599   6.136   0.592   2.771
 7742SOL    HW123600   6.154   0.613   2.675
 7742SOL    HW223601   6.204   0.638   2.828
 7743SOL     OW23602   5.891   1.597   3.105
 7743SOL    HW123603   5.889   1.523   3.038
 7743SOL    HW223604   5.986   1.620   3.126
 7744SOL     OW23605   6.055   0.711   3.537
 7744SOL    HW123606   6.098   0.769   3.468
 7744SOL    HW223607   6.119   0.640   3.566
 7745SOL     OW23608   6.055   0.022   3.707
 7745SOL    HW123609   6.043   6.449   3.639
 7745SOL    HW223610   5.988   0.094   3.692
 7746SOL     OW23611   6.113   0.934   2.948
 7746SOL    HW123612   6.125   1.033   2.948
 7746SOL    HW223613   6.079   0.904   3.038
 7747SOL     OW23614   5.926   0.168   3.100
 7747SOL    HW123615   5.877   0.199   3.182
 7747SOL    HW223616   5.945   0.070   3.108
 7748SOL     OW23617   5.652   1.301   3.110
 7748SOL    HW123618   5.680   1.243   3.187
 7748SOL    HW223619   5.636   1.394   3.142
 7749SOL     OW23620   6.302   0.733   2.942
 7749SOL    HW123621   6.396   0.766   2.943
 7749SOL    HW223622   6.239   0.811   2.939
 7750SOL     OW23623   5.868   6.500   2.522
 7750SOL    HW123624   5.835   0.091   2.548
 7750SOL    HW223625   5.876   6.443   2.604
 7751SOL     OW23626   0.083   0.787   2.921
 7751SOL    HW123627   0.167   0.834   2.892
 7751SOL    HW223628   0.058   0.718   2.853
 7752SOL     OW23629   6.495   1.686   3.469
 7752SOL    HW123630   6.483   1.657   3.374
 7752SOL    HW223631   0.068   1.633   3.511
 7753SOL     OW23632   5.935   0.920   3.674
 7753SOL    HW123633   5.999   0.944   3.747
 7753SOL    HW223634   5.972   0.842   3.623
 7754SOL     OW23635   5.894   0.824   2.816
 7754SOL    HW123636   5.981   0.858   2.851
 7754SOL    HW223637   5.888   0.725   2.830
 7755SOL     OW23638   5.895   0.540   2.882
 7755SOL    HW123639   5.861   0.446   2.871
 7755SOL    HW223640   5.983   0.548   2.835
 7756SOL     OW23641   5.586   1.263   2.032
 7756SOL    HW123642   5.496   1.297   2.005
 7756SOL    HW223643   5.577   1.168   2.062
 7757SOL     OW23644   5.680   1.756   2.803
 7757SOL    HW123645   5.647   1.671   2.762
 7757SOL    HW223646   5.777   1.769   2.779
 7758SOL     OW23647   6.100   1.551   2.754
 7758SOL    HW123648   6.178   1.596   2.798
 7758SOL    HW223649   6.132   1.492   2.681
 7759SOL     OW23650   5.652   0.628   3.002
 7759SOL    HW123651   5.729   0.602   2.944
 7759SOL    HW223652   5.667   0.593   3.095
 7760SOL     OW23653   5.794   0.624   3.600
 7760SOL    HW123654   5.891   0.639   3.580
 7760SOL    HW223655   5.738   0.679   3.539
 7761SOL     OW23656   6.404   0.497   2.109
 7761SOL    HW123657   6.385   0.434   2.184
 7761SOL    HW223658   6.329   0.563   2.102
 7762SOL     OW23659   5.803   1.546   3.560
 7762SOL    HW123660   5.783   1.621   3.623
 7762SOL    HW223661   5.802   1.459   3.610
 7763SOL     OW23662   6.310   0.499   3.090
 7763SOL    HW123663   6.250   0.424   3.062
 7763SOL    HW223664   6.290   0.580   3.035
 7764SOL     OW23665   6.000   0.467   2.016
 7764SOL    HW123666   6.077   0.528   2.032
 7764SOL    HW223667   5.914   0.519   2.022
 7765SOL     OW23668   5.717   1.134   3.325
 7765SOL    HW123669   5.720   1.106   3.421
 7765SOL    HW223670   5.733   1.055   3.266
 7766SOL     OW23671   5.683   1.274   2.843
 7766SOL    HW123672   5.667   1.286   2.941
 7766SOL    HW223673   5.620   1.206   2.807
 7767SOL     OW23674   6.258   1.687   3.609
 7767SOL    HW123675   6.204   1.770   3.595
 7767SOL    HW223676   6.345   1.696   3.559
 7768SOL     OW23677   5.728   1.767   3.710
 7768SOL    HW123678   5.674   1.698   3.758
 7768SOL    HW223679   5.783   1.818   3.776
 7769SOL     OW23680   6.320   1.285   3.285
 7769SOL    HW123681   6.307   1.335   3.371
 7769SOL    HW223682   6.242   1.302   3.224
 7770SOL     OW23683   6.212   1.612   2.009
 7770SOL    HW123684   6.229   1.636   1.914
 7770SOL    HW223685   6.159   1.528   2.013
 7771SOL     OW23686   5.790   0.252   2.612
 7771SOL    HW123687   5.724   0.316   2.572
 7771SOL    HW223688   5.792   0.264   2.711
 7772SOL     OW23689   6.416   1.031   3.329
 7772SOL    HW123690   6.497   1.014   3.272
 7772SOL    HW223691   6.383   1.124   3.314
 7773SOL     OW23692   5.984   1.251   3.359
 7773SOL    HW123693   6.024   1.293   3.278
 7773SOL    HW223694   5.891   1.219   3.337
 7774SOL     OW23695   6.129   1.472   2.304
 7774SOL    HW123696   6.125   1.420   2.219
 7774SOL    HW223697   6.098   1.565   2.287
 7775SOL     OW23698   5.828   1.313   2.155
 7775SOL    HW123699   5.744   1.292   2.106
 7775SOL    HW223700   5.810   1.377   2.229
 7776SOL     OW23701   5.711   1.052   3.585
 7776SOL    HW123702   5.628   1.029   3.636
 7776SOL    HW223703   5.788   0.999   3.619
 7777SOL     OW23704   6.289   0.199   3.334
 7777SOL    HW123705   6.376   0.156   3.308
 7777SOL    HW223706   6.297   0.237   3.426
 7778SOL     OW23707   5.667   0.390   1.814
 7778SOL    HW123708   5.585   0.379   1.757
 7778SOL    HW223709   5.710   0.478   1.793
 7779SOL     OW23710   5.614   0.264   2.079
 7779SOL    HW123711   5.626   0.308   1.990
 7779SOL    HW223712   5.690   0.201   2.095
 7780SOL     OW23713   6.230   0.834   3.353
 7780SOL    HW123714   6.288   0.916   3.353
 7780SOL    HW223715   6.287   0.753   3.346
 7781SOL     OW23716   6.275   0.553   3.581
 7781SOL    HW123717   6.343   0.616   3.620
 7781SOL    HW223718   6.303   0.459   3.598
 7782SOL     OW23719   5.926   1.768   3.432
 7782SOL    HW123720   5.840   1.819   3.428
 7782SOL    HW223721   5.908   1.673   3.458
 7783SOL     OW23722   6.196   0.683   2.515
 7783SOL    HW123723   6.229   0.776   2.530
 7783SOL    HW223724   6.122   0.684   2.448
 7784SOL     OW23725   6.294   1.718   2.876
 7784SOL    HW123726   6.255   1.807   2.851
 7784SOL    HW223727   6.392   1.718   2.858
 7785SOL     OW23728   5.771   1.300   3.685
 7785SOL    HW123729   5.751   1.215   3.635
 7785SOL    HW223730   5.710   1.307   3.764
 7786SOL     OW23731   5.757   1.234   2.527
 7786SOL    HW123732   5.795   1.194   2.610
 7786SOL    HW223733   5.797   1.189   2.447
 7787SOL     OW23734   6.254   1.418   3.517
 7787SOL    HW123735   6.171   1.380   3.557
 7787SOL    HW223736   6.262   1.514   3.543
 7788SOL     OW23737   6.053   0.422   2.354
 7788SOL    HW123738   6.065   0.350   2.285
 7788SOL    HW223739   6.069   0.383   2.445
 7789SOL     OW23740   5.952   0.565   3.157
 7789SOL    HW123741   6.005   0.495   3.206
 7789SOL    HW223742   5.948   0.542   3.060
 7790SOL     OW23743   0.018   1.709   2.541
 7790SOL    HW123744   6.470   1.792   2.515
 7790SOL    HW223745   0.087   1.687   2.472
 7791SOL     OW23746   0.111   6.411   3.084
 7791SOL    HW123747   0.071   6.369   3.002
 7791SOL    HW223748   0.210   6.400   3.082
 7792SOL     OW23749   6.165   1.636   3.112
 7792SOL    HW123750   6.170   1.713   3.176
 7792SOL    HW223751   6.220   1.656   3.031
 7793SOL     OW23752   5.595   1.001   2.164
 7793SOL    HW123753   5.691   0.985   2.141
 7793SOL    HW223754   5.552   0.914   2.189
 7794SOL     OW23755   5.785   0.653   3.876
 7794SOL    HW123756   5.696   0.617   3.904
 7794SOL    HW223757   5.789   0.658   3.776
 7795SOL     OW23758   5.781   0.280   4.742
 7795SOL    HW123759   5.835   0.241   4.817
 7795SOL    HW223760   5.692   0.234   4.738
 7796SOL     OW23761   5.601   0.434   4.361
 7796SOL    HW123762   5.517   0.452   4.412
 7796SOL    HW223763   5.578   0.396   4.271
 7797SOL     OW23764   6.104   1.369   4.990
 7797SOL    HW123765   6.042   1.360   4.912
 7797SOL    HW223766   6.140   1.463   4.992
 7798SOL     OW23767   6.462   0.732   5.491
 7798SOL    HW123768   6.490   0.784   5.571
 7798SOL    HW223769   0.029   0.745   5.417
 7799SOL     OW23770   6.277   0.938   4.415
 7799SOL    HW123771   6.368   0.976   4.435
 7799SOL    HW223772   6.210   1.011   4.413
 7800SOL     OW23773   6.257   1.143   5.573
 7800SOL    HW123774   6.318   1.133   5.495
 7800SOL    HW223775   6.174   1.191   5.545
 7801SOL     OW23776   5.929   1.407   4.775
 7801SOL    HW123777   5.848   1.368   4.730
 7801SOL    HW223778   5.985   1.454   4.707
 7802SOL     OW23779   6.085   0.340   5.166
 7802SOL    HW123780   6.160   0.289   5.207
 7802SOL    HW223781   5.998   0.303   5.198
 7803SOL     OW23782   5.820   1.739   4.207
 7803SOL    HW123783   5.843   1.809   4.275
 7803SOL    HW223784   5.899   1.723   4.148
 7804SOL     OW23785   5.762   1.468   4.221
 7804SOL    HW123786   5.777   1.565   4.238
 7804SOL    HW223787   5.762   1.419   4.308
 7805SOL     OW23788   5.882   1.102   4.605
 7805SOL    HW123789   5.876   1.005   4.630
 7805SOL    HW223790   5.823   1.155   4.665
 7806SOL     OW23791   6.131   1.854   5.132
 7806SOL    HW123792   6.059   1.822   5.194
 7806SOL    HW223793   6.188   1.921   5.180
 7807SOL     OW23794   6.118   0.971   3.891
 7807SOL    HW123795   6.174   1.025   3.828
 7807SOL    HW223796   6.139   0.997   3.985
 7808SOL     OW23797   5.719   0.689   4.300
 7808SOL    HW123798   5.691   0.598   4.330
 7808SOL    HW223799   5.706   0.754   4.375
 7809SOL     OW23800   5.613   1.570   3.852
 7809SOL    HW123801   5.564   1.484   3.864
 7809SOL    HW223802   5.608   1.623   3.937
 7810SOL     OW23803   5.674   0.765   5.257
 7810SOL    HW123804   5.738   0.815   5.200
 7810SOL    HW223805   5.586   0.813   5.260
 7811SOL     OW23806   6.193   1.382   4.418
 7811SOL    HW123807   6.159   1.288   4.422
 7811SOL    HW223808   6.178   1.419   4.327
 7812SOL     OW23809   6.403   6.425   4.154
 7812SOL    HW123810   6.477   6.359   4.161
 7812SOL    HW223811   6.377   6.456   4.246
 7813SOL     OW23812   5.768   0.909   5.031
 7813SOL    HW123813   5.864   0.880   5.029
 7813SOL    HW223814   5.719   0.868   4.955
 7814SOL     OW23815   5.904   0.261   5.554
 7814SOL    HW123816   5.970   0.320   5.601
 7814SOL    HW223817   5.815   0.307   5.552
 7815SOL     OW23818   6.173   0.678   3.968
 7815SOL    HW123819   6.169   0.765   3.920
 7815SOL    HW223820   6.115   0.682   4.049
 7816SOL     OW23821   6.376   0.588   5.192
 7816SOL    HW123822   6.327   0.551   5.271
 7816SOL    HW223823   6.343   0.545   5.109
 7817SOL     OW23824   5.666   0.868   4.510
 7817SOL    HW123825   5.746   0.845   4.565
 7817SOL    HW223826   5.614   0.942   4.554
 7818SOL     OW23827   5.688   1.896   5.336
 7818SOL    HW123828   5.696   1.858   5.429
 7818SOL    HW223829   5.596   1.880   5.302
 7819SOL     OW23830   6.218   0.162   4.628
 7819SOL    HW123831   6.219   0.210   4.716
 7819SOL    HW223832   6.165   0.216   4.562
 7820SOL     OW23833   5.950   1.786   4.619
 7820SOL    HW123834   5.992   1.695   4.613
 7820SOL    HW223835   6.019   1.852   4.650
 7821SOL     OW23836   5.854   0.905   3.988
 7821SOL    HW123837   5.940   0.930   3.943
 7821SOL    HW223838   5.827   0.813   3.960
 7822SOL     OW23839   6.030   1.279   5.485
 7822SOL    HW123840   6.025   1.265   5.386
 7822SOL    HW223841   5.937   1.287   5.522
 7823SOL     OW23842   5.816   0.257   5.199
 7823SOL    HW123843   5.763   0.342   5.199
 7823SOL    HW223844   5.779   0.195   5.268
 7824SOL     OW23845   6.057   1.732   4.064
 7824SOL    HW123846   6.105   1.802   4.117
 7824SOL    HW223847   6.117   1.700   3.990
 7825SOL     OW23848   5.769   1.830   4.915
 7825SOL    HW123849   5.822   1.751   4.947
 7825SOL    HW223850   5.739   1.815   4.821
 7826SOL     OW23851   5.993   0.681   4.187
 7826SOL    HW123852   6.007   0.583   4.191
 7826SOL    HW223853   5.898   0.703   4.212
 7827SOL     OW23854   6.260   0.153   3.818
 7827SOL    HW123855   6.338   0.097   3.847
 7827SOL    HW223856   6.191   0.094   3.777
 7828SOL     OW23857   6.347   0.272   5.515
 7828SOL    HW123858   6.433   0.304   5.555
 7828SOL    HW223859   6.294   0.221   5.584
 7829SOL     OW23860   6.438   1.465   4.542
 7829SOL    HW123861   6.468   1.544   4.488
 7829SOL    HW223862   6.357   1.425   4.498
 7830SOL     OW23863   0.027   0.601   4.580
 7830SOL    HW123864   6.487   0.571   4.493
 7830SOL    HW223865   0.019   0.527   4.647
 7831SOL     OW23866   6.090   0.086   4.233
 7831SOL    HW123867   6.007   0.036   4.259
 7831SOL    HW223868   6.079   0.125   4.142
 7832SOL     OW23869   5.822   0.100   3.973
 7832SOL    HW123870   5.912   0.144   3.972
 7832SOL    HW223871   5.831   0.004   3.947
 7833SOL     OW23872   6.074   1.129   4.407
 7833SOL    HW123873   6.012   1.119   4.485
 7833SOL    HW223874   6.022   1.119   4.322
 7834SOL     OW23875   5.710   0.523   5.126
 7834SOL    HW123876   5.806   0.527   5.098
 7834SOL    HW223877   5.689   0.600   5.186
 7835SOL     OW23878   6.169   0.258   4.886
 7835SOL    HW123879   6.223   0.238   4.968
 7835SOL    HW223880   6.073   0.237   4.904
 7836SOL     OW23881   6.068   1.379   3.894
 7836SOL    HW123882   5.981   1.357   3.937
 7836SOL    HW223883   6.072   1.338   3.803
 7837SOL     OW23884   6.071   0.238   3.996
 7837SOL    HW123885   6.147   0.206   3.939
 7837SOL    HW223886   6.034   0.322   3.956
 7838SOL     OW23887   0.020   0.063   5.151
 7838SOL    HW123888   0.042   0.013   5.068
 7838SOL    HW223889   0.094   0.128   5.171
 7839SOL     OW23890   6.019   0.807   5.045
 7839SOL    HW123891   6.094   0.822   5.110
 7839SOL    HW223892   5.999   0.709   5.039
 7840SOL     OW23893   5.634   1.565   5.060
 7840SOL    HW123894   5.580   1.623   4.999
 7840SOL    HW223895   5.731   1.581   5.043
 7841SOL     OW23896   5.901   1.106   4.185
 7841SOL    HW123897   5.887   1.182   4.121
 7841SOL    HW223898   5.882   1.020   4.138
 7842SOL     OW23899   6.130   0.592   4.637
 7842SOL    HW123900   6.148   0.612   4.540
 7842SOL    HW223901   6.199   0.637   4.693
 7843SOL     OW23902   5.893   1.597   4.968
 7843SOL    HW123903   5.891   1.523   4.901
 7843SOL    HW223904   5.988   1.621   4.988
 7844SOL     OW23905   6.058   0.704   5.402
 7844SOL    HW123906   6.104   0.760   5.333
 7844SOL    HW223907   6.120   0.630   5.431
 7845SOL     OW23908   6.009   0.007   5.599
 7845SOL    HW123909   6.019   6.441   5.525
 7845SOL    HW223910   5.971   0.092   5.563
 7846SOL     OW23911   6.106   0.927   4.817
 7846SOL    HW123912   6.119   1.026   4.824
 7846SOL    HW223913   6.074   0.891   4.905
 7847SOL     OW23914   5.913   0.174   4.955
 7847SOL    HW123915   5.873   0.205   5.041
 7847SOL    HW223916   5.943   0.079   4.965
 7848SOL     OW23917   5.658   1.305   4.973
 7848SOL    HW123918   5.686   1.246   5.048
 7848SOL    HW223919   5.641   1.397   5.007
 7849SOL     OW23920   6.302   0.731   4.805
 7849SOL    HW123921   6.396   0.766   4.802
 7849SOL    HW223922   6.238   0.809   4.803
 7850SOL     OW23923   5.859   0.006   4.372
 7850SOL    HW123924   5.827   0.097   4.398
 7850SOL    HW223925   5.870   6.450   4.453
 7851SOL     OW23926   0.083   0.786   4.782
 7851SOL    HW123927   0.168   0.831   4.753
 7851SOL    HW223928   0.059   0.715   4.715
 7852SOL     OW23929   0.002   1.697   5.344
 7852SOL    HW123930   6.489   1.665   5.250
 7852SOL    HW223931   0.078   1.648   5.386
 7853SOL     OW23932   5.945   0.918   5.536
 7853SOL    HW123933   6.008   0.943   5.609
 7853SOL    HW223934   5.980   0.839   5.486
 7854SOL     OW23935   5.887   0.825   4.678
 7854SOL    HW123936   5.975   0.857   4.715
 7854SOL    HW223937   5.880   0.726   4.691
 7855SOL     OW23938   5.889   0.537   4.747
 7855SOL    HW123939   5.852   0.445   4.732
 7855SOL    HW223940   5.976   0.546   4.700
 7856SOL     OW23941   5.592   1.257   3.894
 7856SOL    HW123942   5.502   1.294   3.869
 7856SOL    HW223943   5.581   1.163   3.925
 7857SOL     OW23944   5.679   1.758   4.662
 7857SOL    HW123945   5.645   1.673   4.622
 7857SOL    HW223946   5.775   1.770   4.638
 7858SOL     OW23947   6.101   1.554   4.614
 7858SOL    HW123948   6.179   1.599   4.657
 7858SOL    HW223949   6.133   1.494   4.541
 7859SOL     OW23950   5.654   0.634   4.873
 7859SOL    HW123951   5.729   0.605   4.814
 7859SOL    HW223952   5.666   0.596   4.965
 7860SOL     OW23953   5.795   0.629   5.468
 7860SOL    HW123954   5.892   0.643   5.448
 7860SOL    HW223955   5.740   0.682   5.403
 7861SOL     OW23956   6.416   0.508   3.972
 7861SOL    HW123957   6.397   0.443   4.045
 7861SOL    HW223958   6.338   0.571   3.962
 7862SOL     OW23959   5.801   1.548   5.434
 7862SOL    HW123960   5.781   1.624   5.496
 7862SOL    HW223961   5.798   1.462   5.484
 7863SOL     OW23962   6.304   0.496   4.945
 7863SOL    HW123963   6.241   0.427   4.909
 7863SOL    HW223964   6.292   0.581   4.894
 7864SOL     OW23965   6.000   0.472   3.875
 7864SOL    HW123966   6.078   0.531   3.892
 7864SOL    HW223967   5.916   0.525   3.882
 7865SOL     OW23968   5.724   1.134   5.182
 7865SOL    HW123969   5.730   1.106   5.277
 7865SOL    HW223970   5.737   1.054   5.123
 7866SOL     OW23971   5.686   1.279   4.706
 7866SOL    HW123972   5.670   1.292   4.804
 7866SOL    HW223973   5.623   1.210   4.671
 7867SOL     OW23974   6.263   1.690   5.478
 7867SOL    HW123975   6.210   1.773   5.462
 7867SOL    HW223976   6.352   1.697   5.434
 7868SOL     OW23977   5.729   1.777   5.579
 7868SOL    HW123978   5.671   1.708   5.623
 7868SOL    HW223979   5.783   1.823   5.649
 7869SOL     OW23980   6.313   1.288   5.152
 7869SOL    HW123981   6.301   1.338   5.237
 7869SOL    HW223982   6.236   1.307   5.091
 7870SOL     OW23983   6.212   1.612   3.870
 7870SOL    HW123984   6.228   1.636   3.774
 7870SOL    HW223985   6.160   1.527   3.874
 7871SOL     OW23986   5.785   0.256   4.469
 7871SOL    HW123987   5.722   0.321   4.428
 7871SOL    HW223988   5.782   0.265   4.569
 7872SOL     OW23989   6.406   1.032   5.195
 7872SOL    HW123990   6.485   1.017   5.136
 7872SOL    HW223991   6.371   1.124   5.181
 7873SOL     OW23992   5.982   1.261   5.219
 7873SOL    HW123993   6.022   1.303   5.138
 7873SOL    HW223994   5.891   1.225   5.196
 7874SOL     OW23995   6.129   1.470   4.165
 7874SOL    HW123996   6.127   1.418   4.080
 7874SOL    HW223997   6.098   1.564   4.148
 7875SOL     OW23998   5.832   1.313   4.016
 7875SOL    HW123999   5.748   1.292   3.967
 7875SOL    HW224000   5.813   1.377   4.090
 7876SOL     OW24001   5.726   1.054   5.442
 7876SOL    HW124002   5.642   1.023   5.487
 7876SOL    HW224003   5.804   1.002   5.476
 7877SOL     OW24004   6.298   0.184   5.257
 7877SOL    HW124005   6.384   0.153   5.216
 7877SOL    HW224006   6.316   0.218   5.349
 7878SOL     OW24007   5.659   0.390   3.675
 7878SOL    HW124008   5.577   0.380   3.618
 7878SOL    HW224009   5.704   0.476   3.653
 7879SOL     OW24010   5.612   0.273   3.933
 7879SOL    HW124011   5.622   0.304   3.838
 7879SOL    HW224012   5.687   0.211   3.955
 7880SOL     OW24013   6.230   0.823   5.214
 7880SOL    HW124014   6.287   0.905   5.215
 7880SOL    HW224015   6.290   0.742   5.207
 7881SOL     OW24016   6.271   0.534   5.445
 7881SOL    HW124017   6.341   0.600   5.473
 7881SOL    HW224018   6.296   0.443   5.478
 7882SOL     OW24019   5.935   1.772   5.311
 7882SOL    HW124020   5.849   1.821   5.303
 7882SOL    HW224021   5.918   1.677   5.335
 7883SOL     OW24022   6.193   0.683   4.381
 7883SOL    HW124023   6.227   0.776   4.397
 7883SOL    HW224024   6.120   0.685   4.313
 7884SOL     OW24025   6.296   1.722   4.733
 7884SOL    HW124026   6.256   1.810   4.707
 7884SOL    HW224027   6.394   1.724   4.714
 7885SOL     OW24028   5.768   1.300   5.556
 7885SOL    HW124029   5.749   1.216   5.505
 7885SOL    HW224030   5.713   1.302   5.639
 7886SOL     OW24031   5.757   1.233   4.388
 7886SOL    HW124032   5.795   1.195   4.472
 7886SOL    HW224033   5.798   1.188   4.309
 7887SOL     OW24034   6.250   1.421   5.384
 7887SOL    HW124035   6.167   1.384   5.424
 7887SOL    HW224036   6.261   1.517   5.412
 7888SOL     OW24037   6.052   0.424   4.208
 7888SOL    HW124038   6.064   0.353   4.138
 7888SOL    HW224039   6.065   0.384   4.298
 7889SOL     OW24040   5.962   0.541   5.024
 7889SOL    HW124041   6.019   0.471   5.067
 7889SOL    HW224042   5.955   0.522   4.926
 7890SOL     OW24043   0.019   1.711   4.396
 7890SOL    HW124044   6.470   1.794   4.370
 7890SOL    HW224045   0.089   1.691   4.328
 7891SOL     OW24046   0.110   6.424   4.938
 7891SOL    HW124047   0.071   6.379   4.857
 7891SOL    HW224048   0.209   6.411   4.939
 7892SOL     OW24049   6.167   1.638   4.968
 7892SOL    HW124050   6.170   1.715   5.032
 7892SOL    HW224051   6.222   1.660   4.887
 7893SOL     OW24052   5.595   1.001   4.026
 7893SOL    HW124053   5.691   0.985   4.005
 7893SOL    HW224054   5.550   0.914   4.048
 7894SOL     OW24055   5.779   0.655   5.745
 7894SOL    HW124056   5.688   0.624   5.774
 7894SOL    HW224057   5.781   0.659   5.645
 7895SOL     OW24058   5.832   0.323   0.015
 7895SOL    HW124059   5.898   0.311   0.089
 7895SOL    HW224060   5.745   0.283   0.041
 7896SOL     OW24061   5.528   0.282   6.212
 7896SOL    HW124062   5.438   0.313   6.242
 7896SOL    HW224063   5.518   0.220   6.134
 7897SOL     OW24064   6.286   1.156   0.075
 7897SOL    HW124065   6.216   1.222   0.103
 7897SOL    HW224066   6.357   1.204   0.023
 7898SOL     OW24067   6.287   0.973   6.370
 7898SOL    HW124068   6.286   1.028   6.453
 7898SOL    HW224069   6.206   0.993   6.315
 7899SOL     OW24070   5.820   1.719   6.078
 7899SOL    HW124071   5.838   1.797   6.138
 7899SOL    HW224072   5.899   1.706   6.018
 7900SOL     OW24073   5.806   1.444   6.129
 7900SOL    HW124074   5.799   1.543   6.129
 7900SOL    HW224075   5.758   1.406   6.208
 7901SOL     OW24076   5.869   1.068   6.499
 7901SOL    HW124077   5.889   1.027   0.089
 7901SOL    HW224078   5.797   1.136   0.009
 7902SOL     OW24079   6.127   0.969   5.748
 7902SOL    HW124080   6.180   1.024   5.683
 7902SOL    HW224081   6.149   0.998   5.841
 7903SOL     OW24082   5.762   0.667   6.175
 7903SOL    HW124083   5.765   0.571   6.204
 7903SOL    HW224084   5.763   0.726   6.256
 7904SOL     OW24085   5.596   1.579   5.701
 7904SOL    HW124086   5.529   1.505   5.693
 7904SOL    HW224087   5.592   1.618   5.792
 7905SOL     OW24088   6.132   1.345   6.338
 7905SOL    HW124089   6.101   1.253   6.313
 7905SOL    HW224090   6.128   1.404   6.257
 7906SOL     OW24091   6.434   6.382   6.100
 7906SOL    HW124092   0.015   6.331   6.130
 7906SOL    HW224093   6.422   6.462   6.159
 7907SOL     OW24094   6.176   0.686   5.815
 7907SOL    HW124095   6.168   0.778   5.775
 7907SOL    HW224096   6.120   0.681   5.898
 7908SOL     OW24097   5.746   0.837   6.398
 7908SOL    HW124098   5.814   0.908   6.418
 7908SOL    HW224099   5.655   0.878   6.392
 7909SOL     OW24100   6.024   1.869   6.475
 7909SOL    HW124101   6.101   1.806   6.484
 7909SOL    HW224102   6.058   1.963   6.468
 7910SOL     OW24103   5.863   0.901   5.855
 7910SOL    HW124104   5.947   0.926   5.808
 7910SOL    HW224105   5.833   0.810   5.825
 7911SOL     OW24106   6.062   1.721   5.942
 7911SOL    HW124107   6.108   1.798   5.984
 7911SOL    HW224108   6.116   1.688   5.864
 7912SOL     OW24109   6.015   0.658   6.033
 7912SOL    HW124110   6.033   0.568   6.073
 7912SOL    HW224111   5.925   0.690   6.064
 7913SOL     OW24112   6.221   0.126   5.716
 7913SOL    HW124113   6.285   0.063   5.760
 7913SOL    HW224114   6.148   0.074   5.673
 7914SOL     OW24115   6.387   1.392   6.435
 7914SOL    HW124116   6.416   1.471   6.380
 7914SOL    HW224117   6.294   1.367   6.410
 7915SOL     OW24118   6.086   0.063   6.106
 7915SOL    HW124119   6.041   6.475   6.092
 7915SOL    HW224120   6.066   0.123   6.028
 7916SOL     OW24121   5.846   0.092   5.820
 7916SOL    HW124122   5.915   0.156   5.854
 7916SOL    HW224123   5.887   0.033   5.750
 7917SOL     OW24124   6.039   1.091   6.284
 7917SOL    HW124125   5.981   1.081   6.365
 7917SOL    HW224126   5.982   1.084   6.202
 7918SOL     OW24127   6.065   1.378   5.752
 7918SOL    HW124128   5.987   1.352   5.809
 7918SOL    HW224129   6.056   1.338   5.661
 7919SOL     OW24130   6.057   0.258   5.894
 7919SOL    HW124131   6.130   0.215   5.840
 7919SOL    HW224132   6.027   0.342   5.848
 7920SOL     OW24133   5.863   1.085   6.072
 7920SOL    HW124134   5.863   1.166   6.014
 7920SOL    HW224135   5.858   1.003   6.015
 7921SOL     OW24136   6.175   0.414   6.365
 7921SOL    HW124137   6.125   0.421   6.279
 7921SOL    HW224138   6.132   0.473   6.433
 7922SOL     OW24139   5.873   0.057   6.375
 7922SOL    HW124140   5.828   0.145   6.364
 7922SOL    HW224141   5.972   0.070   6.381
 7923SOL     OW24142   5.606   1.256   5.776
 7923SOL    HW124143   5.519   1.302   5.758
 7923SOL    HW224144   5.590   1.162   5.805
 7924SOL     OW24145   5.718   1.829   6.458
 7924SOL    HW124146   5.673   1.742   6.481
 7924SOL    HW224147   5.817   1.816   6.457
 7925SOL     OW24148   6.418   0.546   5.824
 7925SOL    HW124149   6.408   0.476   5.895
 7925SOL    HW224150   6.335   0.600   5.818
 7926SOL     OW24151   5.996   0.478   5.744
 7926SOL    HW124152   6.074   0.540   5.750
 7926SOL    HW224153   5.911   0.530   5.752
 7927SOL     OW24154   6.208   1.607   5.738
 7927SOL    HW124155   6.226   1.634   5.643
 7927SOL    HW224156   6.155   1.523   5.740
 7928SOL     OW24157   5.775   0.400   6.259
 7928SOL    HW124158   5.686   0.359   6.238
 7928SOL    HW224159   5.798   0.382   6.354
 7929SOL     OW24160   6.164   1.498   6.096
 7929SOL    HW124161   6.186   1.431   6.025
 7929SOL    HW224162   6.112   1.573   6.057
 7930SOL     OW24163   5.847   1.305   5.904
 7930SOL    HW124164   5.760   1.296   5.856
 7930SOL    HW224165   5.835   1.363   5.984
 7931SOL     OW24166   5.667   0.393   5.541
 7931SOL    HW124167   5.586   0.382   5.484
 7931SOL    HW224168   5.710   0.481   5.522
 7932SOL     OW24169   5.617   0.244   5.790
 7932SOL    HW124170   5.629   0.301   5.709
 7932SOL    HW224171   5.697   0.184   5.801
 7933SOL     OW24172   6.262   1.726   0.000
 7933SOL    HW124173   6.341   1.782   0.027
 7933SOL    HW224174   6.283   1.679   6.414
 7934SOL     OW24175   5.682   1.196   6.269
 7934SOL    HW124176   5.635   1.122   6.318
 7934SOL    HW224177   5.746   1.156   6.203
 7935SOL     OW24178   6.024   0.401   6.137
 7935SOL    HW124179   6.035   0.343   6.057
 7935SOL    HW224180   5.930   0.393   6.172
 7936SOL     OW24181   6.354   1.619   6.264
 7936SOL    HW124182   6.390   1.701   6.220
 7936SOL    HW224183   6.293   1.572   6.201
 7937SOL     OW24184   5.603   0.993   5.892
 7937SOL    HW124185   5.698   0.984   5.862
 7937SOL    HW224186   5.572   0.907   5.933
 7938SOL     OW24187   5.810   2.510   0.146
 7938SOL    HW124188   5.726   2.460   0.170
 7938SOL    HW224189   5.801   2.549   0.055
 7939SOL     OW24190   5.792   2.157   0.989
 7939SOL    HW124191   5.832   2.132   1.077
 7939SOL    HW224192   5.700   2.118   0.981
 7940SOL     OW24193   5.566   2.290   0.639
 7940SOL    HW124194   5.480   2.312   0.686
 7940SOL    HW224195   5.550   2.216   0.573
 7941SOL     OW24196   6.134   3.216   1.281
 7941SOL    HW124197   6.071   3.206   1.204
 7941SOL    HW224198   6.170   3.309   1.283
 7942SOL     OW24199   6.419   2.603   1.839
 7942SOL    HW124200   6.412   2.655   1.924
 7942SOL    HW224201   6.472   2.654   1.772
 7943SOL     OW24202   6.264   2.796   0.686
 7943SOL    HW124203   6.360   2.825   0.688
 7943SOL    HW224204   6.206   2.875   0.674
 7944SOL     OW24205   6.191   2.921   1.837
 7944SOL    HW124206   6.274   2.917   1.781
 7944SOL    HW224207   6.135   2.999   1.808
 7945SOL     OW24208   5.951   3.246   1.074
 7945SOL    HW124209   5.878   3.191   1.033
 7945SOL    HW224210   5.999   3.296   1.001
 7946SOL     OW24211   6.068   2.225   1.461
 7946SOL    HW124212   6.148   2.170   1.484
 7946SOL    HW224213   5.986   2.179   1.494
 7947SOL     OW24214   5.807   3.569   0.507
 7947SOL    HW124215   5.812   3.649   0.568
 7947SOL    HW224216   5.889   3.564   0.451
 7948SOL     OW24217   5.825   3.295   0.479
 7948SOL    HW124218   5.808   3.389   0.508
 7948SOL    HW224219   5.799   3.232   0.552
 7949SOL     OW24220   5.900   2.940   0.847
 7949SOL    HW124221   5.903   2.844   0.873
 7949SOL    HW224222   5.847   2.991   0.915
 7950SOL     OW24223   6.125   3.705   1.402
 7950SOL    HW124224   6.050   3.673   1.459
 7950SOL    HW224225   6.182   3.769   1.454
 7951SOL     OW24226   6.152   2.761   0.125
 7951SOL    HW124227   6.164   2.715   0.037
 7951SOL    HW224228   6.196   2.850   0.122
 7952SOL     OW24229   5.679   2.544   0.584
 7952SOL    HW124230   5.646   2.452   0.604
 7952SOL    HW224231   5.680   2.598   0.668
 7953SOL     OW24232   5.629   3.412   0.088
 7953SOL    HW124233   5.631   3.313   0.105
 7953SOL    HW224234   5.614   3.460   0.175
 7954SOL     OW24235   5.688   2.630   1.558
 7954SOL    HW124236   5.766   2.692   1.554
 7954SOL    HW224237   5.604   2.681   1.536
 7955SOL     OW24238   6.226   3.236   0.731
 7955SOL    HW124239   6.181   3.151   0.705
 7955SOL    HW224240   6.242   3.291   0.650
 7956SOL     OW24241   6.415   1.963   0.577
 7956SOL    HW124242   6.481   1.977   0.502
 7956SOL    HW224243   6.323   1.956   0.538
 7957SOL     OW24244   5.785   2.801   1.311
 7957SOL    HW124245   5.875   2.758   1.322
 7957SOL    HW224246   5.745   2.772   1.224
 7958SOL     OW24247   5.955   2.129   1.878
 7958SOL    HW124248   5.991   2.209   1.925
 7958SOL    HW224249   5.861   2.147   1.849
 7959SOL     OW24250   6.175   2.569   0.327
 7959SOL    HW124251   6.175   2.648   0.266
 7959SOL    HW224252   6.100   2.577   0.392
 7960SOL     OW24253   6.379   2.422   1.476
 7960SOL    HW124254   6.334   2.394   1.561
 7960SOL    HW224255   6.342   2.367   1.400
 7961SOL     OW24256   5.671   2.710   0.805
 7961SOL    HW124257   5.756   2.691   0.853
 7961SOL    HW224258   5.623   2.785   0.850
 7962SOL     OW24259   5.672   3.724   1.598
 7962SOL    HW124260   5.683   3.692   1.692
 7962SOL    HW224261   5.576   3.714   1.571
 7963SOL     OW24262   6.161   1.965   0.949
 7963SOL    HW124263   6.159   2.005   1.041
 7963SOL    HW224264   6.185   2.035   0.883
 7964SOL     OW24265   5.959   3.643   0.878
 7964SOL    HW124266   5.998   3.551   0.882
 7964SOL    HW224267   6.027   3.710   0.909
 7965SOL     OW24268   5.895   2.770   0.228
 7965SOL    HW124269   5.990   2.772   0.196
 7965SOL    HW224270   5.860   2.676   0.222
 7966SOL     OW24271   6.031   3.130   1.763
 7966SOL    HW124272   6.025   3.122   1.663
 7966SOL    HW224273   5.939   3.141   1.801
 7967SOL     OW24274   5.813   2.124   1.505
 7967SOL    HW124275   5.759   2.206   1.521
 7967SOL    HW224276   5.769   2.045   1.548
 7968SOL     OW24277   6.046   3.596   0.380
 7968SOL    HW124278   6.101   3.667   0.423
 7968SOL    HW224279   6.105   3.535   0.327
 7969SOL     OW24280   5.775   3.688   1.199
 7969SOL    HW124281   5.832   3.611   1.229
 7969SOL    HW224282   5.749   3.674   1.103
 7970SOL     OW24283   5.950   2.545   0.493
 7970SOL    HW124284   5.961   2.446   0.486
 7970SOL    HW224285   5.856   2.567   0.518
 7971SOL     OW24286   6.336   2.118   1.808
 7971SOL    HW124287   6.380   2.057   1.874
 7971SOL    HW224288   6.238   2.101   1.806
 7972SOL     OW24289   6.454   3.305   0.877
 7972SOL    HW124290   6.477   3.390   0.831
 7972SOL    HW224291   6.375   3.263   0.832
 7973SOL     OW24292   0.010   2.401   0.862
 7973SOL    HW124293   6.479   2.344   0.785
 7973SOL    HW224294   0.011   2.346   0.946
 7974SOL     OW24295   6.155   1.953   0.485
 7974SOL    HW124296   6.073   1.953   0.543
 7974SOL    HW224297   6.150   2.028   0.419
 7975SOL     OW24298   5.901   1.928   0.216
 7975SOL    HW124299   5.938   1.910   0.125
 7975SOL    HW224300   5.942   1.866   0.282
 7976SOL     OW24301   6.087   3.007   0.656
 7976SOL    HW124302   6.024   2.985   0.731
 7976SOL    HW224303   6.039   2.997   0.569
 7977SOL     OW24304   5.701   2.402   1.407
 7977SOL    HW124305   5.796   2.401   1.376
 7977SOL    HW224306   5.686   2.483   1.464
 7978SOL     OW24307   6.148   2.065   1.202
 7978SOL    HW124308   6.175   1.994   1.267
 7978SOL    HW224309   6.051   2.085   1.213
 7979SOL     OW24310   6.100   3.230   0.117
 7979SOL    HW124311   6.011   3.210   0.158
 7979SOL    HW224312   6.091   3.235   0.018
 7980SOL     OW24313   6.157   2.155   0.302
 7980SOL    HW124314   6.244   2.127   0.262
 7980SOL    HW224315   6.118   2.229   0.248
 7981SOL     OW24316   6.479   1.973   1.362
 7981SOL    HW124317   6.495   1.888   1.311
 7981SOL    HW224318   0.067   2.017   1.381
 7982SOL     OW24319   6.024   2.673   1.339
 7982SOL    HW124320   6.105   2.679   1.397
 7982SOL    HW224321   5.997   2.577   1.329
 7983SOL     OW24322   5.646   3.424   1.333
 7983SOL    HW124323   5.593   3.489   1.278
 7983SOL    HW224324   5.744   3.439   1.317
 7984SOL     OW24325   5.923   2.971   0.430
 7984SOL    HW124326   5.915   3.045   0.363
 7984SOL    HW224327   5.920   2.883   0.382
 7985SOL     OW24328   6.149   2.393   0.917
 7985SOL    HW124329   6.146   2.441   0.829
 7985SOL    HW224330   6.214   2.439   0.978
 7986SOL     OW24331   5.910   3.454   1.247
 7986SOL    HW124332   5.909   3.375   1.186
 7986SOL    HW224333   6.004   3.476   1.272
 7987SOL     OW24334   6.068   2.547   1.671
 7987SOL    HW124335   6.116   2.603   1.604
 7987SOL    HW224336   6.129   2.476   1.704
 7988SOL     OW24337   6.079   1.913   1.756
 7988SOL    HW124338   6.023   1.860   1.692
 7988SOL    HW224339   6.028   1.994   1.786
 7989SOL     OW24340   6.122   2.758   1.099
 7989SOL    HW124341   6.154   2.852   1.096
 7989SOL    HW224342   6.085   2.739   1.190
 7990SOL     OW24343   5.878   2.082   1.238
 7990SOL    HW124344   5.857   2.108   1.332
 7990SOL    HW224345   5.847   1.988   1.222
 7991SOL     OW24346   5.660   3.160   1.256
 7991SOL    HW124347   5.682   3.104   1.336
 7991SOL    HW224348   5.649   3.256   1.283
 7992SOL     OW24349   6.291   2.538   1.102
 7992SOL    HW124350   6.386   2.569   1.093
 7992SOL    HW224351   6.230   2.617   1.096
 7993SOL     OW24352   5.924   1.933   0.640
 7993SOL    HW124353   5.878   2.019   0.661
 7993SOL    HW224354   5.936   1.880   0.724
 7994SOL     OW24355   0.059   2.607   1.039
 7994SOL    HW124356   0.151   2.637   1.014
 7994SOL    HW224357   0.028   2.539   0.972
 7995SOL     OW24358   6.482   3.516   1.616
 7995SOL    HW124359   0.013   3.493   1.524
 7995SOL    HW224360   0.012   3.447   1.680
 7996SOL     OW24361   5.933   2.760   1.786
 7996SOL    HW124362   6.003   2.815   1.831
 7996SOL    HW224363   5.975   2.677   1.748
 7997SOL     OW24364   5.902   2.676   0.954
 7997SOL    HW124365   5.987   2.707   0.995
 7997SOL    HW224366   5.893   2.577   0.967
 7998SOL     OW24367   5.900   2.402   1.020
 7998SOL    HW124368   5.854   2.315   1.001
 7998SOL    HW224369   5.992   2.399   0.980
 7999SOL     OW24370   5.610   3.125   0.149
 7999SOL    HW124371   5.520   3.149   0.114
 7999SOL    HW224372   5.607   3.034   0.191
 8000SOL     OW24373   5.690   3.632   0.943
 8000SOL    HW124374   5.641   3.556   0.899
 8000SOL    HW224375   5.784   3.634   0.911
 8001SOL     OW24376   6.107   3.409   0.908
 8001SOL    HW124377   6.180   3.461   0.952
 8001SOL    HW224378   6.147   3.343   0.844
 8002SOL     OW24379   5.638   2.453   1.139
 8002SOL    HW124380   5.723   2.447   1.087
 8002SOL    HW224381   5.657   2.435   1.236
 8003SOL     OW24382   5.809   2.457   1.737
 8003SOL    HW124383   5.905   2.472   1.713
 8003SOL    HW224384   5.750   2.516   1.682
 8004SOL     OW24385   6.410   2.427   0.377
 8004SOL    HW124386   6.438   2.393   0.287
 8004SOL    HW224387   6.324   2.476   0.369
 8005SOL     OW24388   5.806   3.397   1.706
 8005SOL    HW124389   5.785   3.473   1.768
 8005SOL    HW224390   5.802   3.311   1.756
 8006SOL     OW24391   6.305   2.295   1.245
 8006SOL    HW124392   6.244   2.218   1.227
 8006SOL    HW224393   6.276   2.374   1.190
 8007SOL     OW24394   6.065   2.381   0.163
 8007SOL    HW124395   6.110   2.444   0.226
 8007SOL    HW224396   5.968   2.407   0.153
 8008SOL     OW24397   5.718   3.002   1.475
 8008SOL    HW124398   5.720   2.968   1.569
 8008SOL    HW224399   5.741   2.927   1.413
 8009SOL     OW24400   5.730   3.080   1.006
 8009SOL    HW124401   5.704   3.110   1.098
 8009SOL    HW224402   5.653   3.035   0.962
 8010SOL     OW24403   6.238   3.533   1.738
 8010SOL    HW124404   6.183   3.616   1.731
 8010SOL    HW224405   6.323   3.544   1.687
 8011SOL     OW24406   6.410   2.073   0.207
 8011SOL    HW124407   6.422   1.997   0.143
 8011SOL    HW224408   6.477   2.066   0.281
 8012SOL     OW24409   5.728   3.623   1.849
 8012SOL    HW124410   5.677   3.554   1.901
 8012SOL    HW224411   5.784   3.677   1.912
 8013SOL     OW24412   6.340   3.111   1.443
 8013SOL    HW124413   6.324   3.160   1.529
 8013SOL    HW224414   6.267   3.133   1.378
 8014SOL     OW24415   6.222   3.439   0.246
 8014SOL    HW124416   6.239   3.509   0.176
 8014SOL    HW224417   6.186   3.357   0.202
 8015SOL     OW24418   5.811   2.171   0.709
 8015SOL    HW124419   5.728   2.219   0.681
 8015SOL    HW224420   5.818   2.172   0.809
 8016SOL     OW24421   0.296   3.422   6.468
 8016SOL    HW124422   0.223   3.431   0.036
 8016SOL    HW224423   0.259   3.382   6.385
 8017SOL     OW24424   6.451   2.852   1.463
 8017SOL    HW124425   0.010   2.829   1.385
 8017SOL    HW224426   6.417   2.946   1.452
 8018SOL     OW24427   5.989   3.116   1.499
 8018SOL    HW124428   6.038   3.153   1.420
 8018SOL    HW224429   5.897   3.090   1.472
 8019SOL     OW24430   6.249   3.425   0.529
 8019SOL    HW124431   6.270   3.414   0.432
 8019SOL    HW224432   6.156   3.462   0.539
 8020SOL     OW24433   5.864   3.171   0.244
 8020SOL    HW124434   5.775   3.157   0.201
 8020SOL    HW224435   5.853   3.227   0.325
 8021SOL     OW24436   5.706   2.902   1.729
 8021SOL    HW124437   5.622   2.876   1.777
 8021SOL    HW224438   5.781   2.843   1.758
 8022SOL     OW24439   6.284   2.062   1.529
 8022SOL    HW124440   6.357   2.035   1.466
 8022SOL    HW224441   6.323   2.079   1.619
 8023SOL     OW24442   5.638   1.982   0.263
 8023SOL    HW124443   5.603   2.017   0.176
 8023SOL    HW224444   5.736   1.966   0.255
 8024SOL     OW24445   6.251   2.665   1.488
 8024SOL    HW124446   6.315   2.742   1.483
 8024SOL    HW224447   6.301   2.579   1.479
 8025SOL     OW24448   6.285   2.387   1.735
 8025SOL    HW124449   6.335   2.461   1.780
 8025SOL    HW224450   6.309   2.299   1.777
 8026SOL     OW24451   5.923   3.615   1.568
 8026SOL    HW124452   5.834   3.659   1.560
 8026SOL    HW224453   5.911   3.521   1.599
 8027SOL     OW24454   6.137   2.553   0.700
 8027SOL    HW124455   6.189   2.639   0.697
 8027SOL    HW224456   6.069   2.553   0.627
 8028SOL     OW24457   6.298   3.585   1.017
 8028SOL    HW124458   6.256   3.670   0.986
 8028SOL    HW224459   6.395   3.586   0.992
 8029SOL     OW24460   5.767   3.150   1.826
 8029SOL    HW124461   5.746   3.065   1.779
 8029SOL    HW224462   5.703   3.163   1.902
 8030SOL     OW24463   5.763   3.075   0.638
 8030SOL    HW124464   5.798   3.032   0.721
 8030SOL    HW224465   5.806   3.031   0.558
 8031SOL     OW24466   6.263   3.256   1.670
 8031SOL    HW124467   6.181   3.213   1.708
 8031SOL    HW224468   6.258   3.355   1.685
 8032SOL     OW24469   5.970   2.278   0.492
 8032SOL    HW124470   6.032   2.218   0.441
 8032SOL    HW224471   5.928   2.228   0.567
 8033SOL     OW24472   5.953   2.413   1.302
 8033SOL    HW124473   6.006   2.345   1.352
 8033SOL    HW224474   5.952   2.391   1.205
 8034SOL     OW24475   6.430   3.567   0.699
 8034SOL    HW124476   6.428   3.661   0.664
 8034SOL    HW224477   6.375   3.508   0.639
 8035SOL     OW24478   6.192   3.487   1.254
 8035SOL    HW124479   6.181   3.566   1.314
 8035SOL    HW224480   6.237   3.514   1.170
 8036SOL     OW24481   5.628   2.866   0.270
 8036SOL    HW124482   5.726   2.850   0.259
 8036SOL    HW224483   5.583   2.780   0.297
 8037SOL     OW24484   5.791   2.511   2.011
 8037SOL    HW124485   5.702   2.477   2.041
 8037SOL    HW224486   5.797   2.507   1.911
 8038SOL     OW24487   5.790   2.158   2.862
 8038SOL    HW124488   5.829   2.132   2.950
 8038SOL    HW224489   5.701   2.112   2.850
 8039SOL     OW24490   5.567   2.296   2.502
 8039SOL    HW124491   5.481   2.317   2.548
 8039SOL    HW224492   5.551   2.224   2.434
 8040SOL     OW24493   6.133   3.233   3.160
 8040SOL    HW124494   6.073   3.219   3.081
 8040SOL    HW224495   6.171   3.325   3.157
 8041SOL     OW24496   6.455   2.608   3.633
 8041SOL    HW124497   6.432   2.680   3.698
 8041SOL    HW224498   0.003   2.649   3.554
 8042SOL     OW24499   6.296   2.806   2.511
 8042SOL    HW124500   6.371   2.842   2.567
 8042SOL    HW224501   6.219   2.870   2.514
 8043SOL     OW24502   6.273   3.002   3.729
 8043SOL    HW124503   6.342   3.006   3.658
 8043SOL    HW224504   6.190   3.048   3.698
 8044SOL     OW24505   5.958   3.248   2.943
 8044SOL    HW124506   5.883   3.192   2.908
 8044SOL    HW224507   6.004   3.294   2.867
 8045SOL     OW24508   6.069   2.225   3.326
 8045SOL    HW124509   6.149   2.168   3.347
 8045SOL    HW224510   5.987   2.180   3.360
 8046SOL     OW24511   5.828   3.593   2.350
 8046SOL    HW124512   5.851   3.664   2.416
 8046SOL    HW224513   5.905   3.580   2.288
 8047SOL     OW24514   5.760   3.325   2.364
 8047SOL    HW124515   5.783   3.421   2.380
 8047SOL    HW224516   5.769   3.274   2.450
 8048SOL     OW24517   5.903   2.944   2.728
 8048SOL    HW124518   5.899   2.846   2.750
 8048SOL    HW224519   5.852   2.995   2.797
 8049SOL     OW24520   6.138   3.726   3.262
 8049SOL    HW124521   6.066   3.688   3.320
 8049SOL    HW224522   6.194   3.789   3.315
 8050SOL     OW24523   6.137   2.821   2.083
 8050SOL    HW124524   6.163   2.856   1.993
 8050SOL    HW224525   6.174   2.880   2.154
 8051SOL     OW24526   5.700   2.546   2.444
 8051SOL    HW124527   5.660   2.458   2.467
 8051SOL    HW224528   5.691   2.608   2.522
 8052SOL     OW24529   5.625   3.425   1.999
 8052SOL    HW124530   5.594   3.332   2.017
 8052SOL    HW224531   5.615   3.480   2.083
 8053SOL     OW24532   5.678   2.630   3.405
 8053SOL    HW124533   5.748   2.683   3.357
 8053SOL    HW224534   5.591   2.678   3.401
 8054SOL     OW24535   6.185   3.241   2.554
 8054SOL    HW124536   6.155   3.145   2.553
 8054SOL    HW224537   6.171   3.281   2.463
 8055SOL     OW24538   6.409   1.958   2.442
 8055SOL    HW124539   6.465   1.969   2.360
 8055SOL    HW224540   6.314   1.942   2.415
 8056SOL     OW24541   5.778   2.790   3.186
 8056SOL    HW124542   5.871   2.751   3.187
 8056SOL    HW224543   5.735   2.771   3.099
 8057SOL     OW24544   5.951   2.130   3.738
 8057SOL    HW124545   5.989   2.210   3.785
 8057SOL    HW224546   5.858   2.150   3.708
 8058SOL     OW24547   6.170   2.559   2.160
 8058SOL    HW124548   6.162   2.652   2.125
 8058SOL    HW224549   6.107   2.546   2.236
 8059SOL     OW24550   6.392   2.419   3.339
 8059SOL    HW124551   6.340   2.393   3.420
 8059SOL    HW224552   6.354   2.372   3.259
 8060SOL     OW24553   5.665   2.727   2.658
 8060SOL    HW124554   5.746   2.702   2.712
 8060SOL    HW224555   5.620   2.806   2.700
 8061SOL     OW24556   5.698   3.737   3.474
 8061SOL    HW124557   5.707   3.700   3.567
 8061SOL    HW224558   5.606   3.718   3.439
 8062SOL     OW24559   6.162   1.959   2.821
 8062SOL    HW124560   6.162   2.003   2.910
 8062SOL    HW224561   6.183   2.026   2.750
 8063SOL     OW24562   5.952   3.636   2.758
 8063SOL    HW124563   5.993   3.545   2.755
 8063SOL    HW224564   6.018   3.702   2.793
 8064SOL     OW24565   5.864   2.767   2.122
 8064SOL    HW124566   5.961   2.782   2.100
 8064SOL    HW224567   5.836   2.677   2.087
 8065SOL     OW24568   6.041   3.135   3.642
 8065SOL    HW124569   6.040   3.120   3.543
 8065SOL    HW224570   5.947   3.142   3.675
 8066SOL     OW24571   5.814   2.123   3.371
 8066SOL    HW124572   5.757   2.204   3.386
 8066SOL    HW224573   5.770   2.043   3.413
 8067SOL     OW24574   6.061   3.587   2.200
 8067SOL    HW124575   6.109   3.655   2.256
 8067SOL    HW224576   6.120   3.557   2.125
 8068SOL     OW24577   5.793   3.703   3.047
 8068SOL    HW124578   5.845   3.622   3.075
 8068SOL    HW224579   5.756   3.688   2.955
 8069SOL     OW24580   5.983   2.522   2.362
 8069SOL    HW124581   5.989   2.425   2.383
 8069SOL    HW224582   5.889   2.554   2.376
 8070SOL     OW24583   6.179   1.947   2.012
 8070SOL    HW124584   6.278   1.932   2.015
 8070SOL    HW224585   6.143   1.914   1.925
 8071SOL     OW24586   6.335   2.115   3.668
 8071SOL    HW124587   6.376   2.047   3.729
 8071SOL    HW224588   6.236   2.105   3.668
 8072SOL     OW24589   6.430   3.304   2.679
 8072SOL    HW124590   6.470   3.379   2.626
 8072SOL    HW224591   6.346   3.272   2.635
 8073SOL     OW24592   0.011   2.404   2.754
 8073SOL    HW124593   6.474   2.341   2.685
 8073SOL    HW224594   0.023   2.356   2.841
 8074SOL     OW24595   6.144   1.940   2.368
 8074SOL    HW124596   6.068   1.930   2.432
 8074SOL    HW224597   6.125   2.015   2.305
 8075SOL     OW24598   5.878   1.903   2.035
 8075SOL    HW124599   5.926   1.980   1.992
 8075SOL    HW224600   5.944   1.850   2.089
 8076SOL     OW24601   6.082   2.982   2.526
 8076SOL    HW124602   6.025   2.968   2.606
 8076SOL    HW224603   6.026   2.978   2.443
 8077SOL     OW24604   5.693   2.395   3.266
 8077SOL    HW124605   5.788   2.393   3.236
 8077SOL    HW224606   5.677   2.475   3.323
 8078SOL     OW24607   6.152   2.071   3.068
 8078SOL    HW124608   6.184   2.000   3.131
 8078SOL    HW224609   6.055   2.087   3.082
 8079SOL     OW24610   6.072   3.228   2.032
 8079SOL    HW124611   5.983   3.212   2.074
 8079SOL    HW224612   6.074   3.187   1.941
 8080SOL     OW24613   6.078   2.131   2.184
 8080SOL    HW124614   6.115   2.065   2.119
 8080SOL    HW224615   6.054   2.215   2.136
 8081SOL     OW24616   6.490   1.972   3.228
 8081SOL    HW124617   0.010   1.891   3.173
 8081SOL    HW224618   0.075   2.018   3.253
 8082SOL     OW24619   6.017   2.665   3.199
 8082SOL    HW124620   6.098   2.670   3.258
 8082SOL    HW224621   5.989   2.569   3.189
 8083SOL     OW24622   5.656   3.440   3.198
 8083SOL    HW124623   5.603   3.504   3.142
 8083SOL    HW224624   5.754   3.453   3.180
 8084SOL     OW24625   5.902   2.971   2.314
 8084SOL    HW124626   5.886   3.048   2.252
 8084SOL    HW224627   5.885   2.885   2.266
 8085SOL     OW24628   6.148   2.422   2.773
 8085SOL    HW124629   6.166   2.458   2.682
 8085SOL    HW224630   6.211   2.463   2.839
 8086SOL     OW24631   5.917   3.465   3.105
 8086SOL    HW124632   5.915   3.383   3.047
 8086SOL    HW224633   6.011   3.489   3.126
 8087SOL     OW24634   6.065   2.548   3.541
 8087SOL    HW124635   6.111   2.601   3.470
 8087SOL    HW224636   6.125   2.474   3.572
 8088SOL     OW24637   6.075   1.913   3.615
 8088SOL    HW124638   6.020   1.859   3.551
 8088SOL    HW224639   6.023   1.994   3.644
 8089SOL     OW24640   6.110   2.767   2.966
 8089SOL    HW124641   6.139   2.863   2.968
 8089SOL    HW224642   6.076   2.740   3.055
 8090SOL     OW24643   5.882   2.078   3.106
 8090SOL    HW124644   5.859   2.104   3.200
 8090SOL    HW224645   5.850   1.985   3.088
 8091SOL     OW24646   5.665   3.171   3.135
 8091SOL    HW124647   5.692   3.118   3.215
 8091SOL    HW224648   5.658   3.267   3.160
 8092SOL     OW24649   6.289   2.555   2.969
 8092SOL    HW124650   6.384   2.589   2.968
 8092SOL    HW224651   6.226   2.632   2.964
 8093SOL     OW24652   5.917   1.924   2.526
 8093SOL    HW124653   5.868   2.009   2.544
 8093SOL    HW224654   5.927   1.873   2.611
 8094SOL     OW24655   0.066   2.621   2.924
 8094SOL    HW124656   0.155   2.655   2.893
 8094SOL    HW224657   0.035   2.549   2.863
 8095SOL     OW24658   0.009   3.539   3.472
 8095SOL    HW124659   0.003   3.499   3.381
 8095SOL    HW224660   0.081   3.493   3.524
 8096SOL     OW24661   5.952   2.760   3.683
 8096SOL    HW124662   6.020   2.791   3.748
 8096SOL    HW224663   5.988   2.683   3.630
 8097SOL     OW24664   5.893   2.679   2.819
 8097SOL    HW124665   5.977   2.711   2.863
 8097SOL    HW224666   5.884   2.580   2.831
 8098SOL     OW24667   5.900   2.405   2.879
 8098SOL    HW124668   5.858   2.316   2.862
 8098SOL    HW224669   5.990   2.407   2.835
 8099SOL     OW24670   5.586   3.135   2.033
 8099SOL    HW124671   5.495   3.167   2.006
 8099SOL    HW224672   5.579   3.041   2.067
 8100SOL     OW24673   5.680   3.634   2.803
 8100SOL    HW124674   5.630   3.559   2.760
 8100SOL    HW224675   5.776   3.630   2.776
 8101SOL     OW24676   6.103   3.404   2.762
 8101SOL    HW124677   6.184   3.450   2.800
 8101SOL    HW224678   6.131   3.346   2.685
 8102SOL     OW24679   5.634   2.456   2.998
 8102SOL    HW124680   5.718   2.446   2.944
 8102SOL    HW224681   5.652   2.432   3.093
 8103SOL     OW24682   5.800   2.472   3.601
 8103SOL    HW124683   5.897   2.486   3.579
 8103SOL    HW224684   5.744   2.530   3.542
 8104SOL     OW24685   6.436   2.477   2.166
 8104SOL    HW124686   6.431   2.380   2.189
 8104SOL    HW224687   6.344   2.516   2.163
 8105SOL     OW24688   5.809   3.401   3.564
 8105SOL    HW124689   5.792   3.475   3.629
 8105SOL    HW224690   5.807   3.313   3.612
 8106SOL     OW24691   6.306   2.307   3.107
 8106SOL    HW124692   6.246   2.229   3.090
 8106SOL    HW224693   6.275   2.385   3.052
 8107SOL     OW24694   6.021   2.356   2.035
 8107SOL    HW124695   6.091   2.420   2.066
 8107SOL    HW224696   5.932   2.402   2.032
 8108SOL     OW24697   5.728   3.001   3.348
 8108SOL    HW124698   5.733   2.967   3.441
 8108SOL    HW224699   5.745   2.926   3.284
 8109SOL     OW24700   5.737   3.083   2.890
 8109SOL    HW124701   5.708   3.115   2.980
 8109SOL    HW224702   5.660   3.040   2.843
 8110SOL     OW24703   6.271   3.555   3.615
 8110SOL    HW124704   6.219   3.639   3.596
 8110SOL    HW224705   6.357   3.557   3.564
 8111SOL     OW24706   6.451   1.946   1.987
 8111SOL    HW124707   0.001   1.865   1.957
 8111SOL    HW224708   6.490   1.980   2.072
 8112SOL     OW24709   5.739   3.620   3.718
 8112SOL    HW124710   5.687   3.551   3.769
 8112SOL    HW224711   5.790   3.677   3.783
 8113SOL     OW24712   6.326   3.124   3.336
 8113SOL    HW124713   6.317   3.184   3.416
 8113SOL    HW224714   6.264   3.156   3.264
 8114SOL     OW24715   6.212   3.462   2.002
 8114SOL    HW124716   6.220   3.485   1.905
 8114SOL    HW224717   6.163   3.376   2.013
 8115SOL     OW24718   5.798   2.163   2.585
 8115SOL    HW124719   5.716   2.213   2.555
 8115SOL    HW224720   5.803   2.166   2.685
 8116SOL     OW24721   6.404   2.867   3.303
 8116SOL    HW124722   6.484   2.865   3.244
 8116SOL    HW224723   6.375   2.961   3.318
 8117SOL     OW24724   5.997   3.117   3.377
 8117SOL    HW124725   6.044   3.158   3.299
 8117SOL    HW224726   5.906   3.087   3.349
 8118SOL     OW24727   6.126   3.328   2.300
 8118SOL    HW124728   6.126   3.274   2.216
 8118SOL    HW224729   6.098   3.422   2.280
 8119SOL     OW24730   5.831   3.179   2.151
 8119SOL    HW124731   5.746   3.161   2.102
 8119SOL    HW224732   5.813   3.241   2.228
 8120SOL     OW24733   5.726   2.900   3.601
 8120SOL    HW124734   5.642   2.871   3.646
 8120SOL    HW224735   5.802   2.843   3.633
 8121SOL     OW24736   6.286   2.057   3.388
 8121SOL    HW124737   6.360   2.030   3.327
 8121SOL    HW224738   6.322   2.074   3.480
 8122SOL     OW24739   5.703   2.212   1.815
 8122SOL    HW124740   5.611   2.201   1.777
 8122SOL    HW224741   5.738   2.303   1.792
 8123SOL     OW24742   5.639   2.019   2.098
 8123SOL    HW124743   5.617   2.085   2.026
 8123SOL    HW224744   5.730   1.981   2.082
 8124SOL     OW24745   6.242   2.656   3.350
 8124SOL    HW124746   6.295   2.739   3.339
 8124SOL    HW224747   6.302   2.576   3.342
 8125SOL     OW24748   6.286   2.386   3.593
 8125SOL    HW124749   6.347   2.460   3.622
 8125SOL    HW224750   6.315   2.300   3.635
 8126SOL     OW24751   5.947   3.625   3.437
 8126SOL    HW124752   5.858   3.670   3.433
 8126SOL    HW224753   5.935   3.528   3.460
 8127SOL     OW24754   6.202   2.544   2.534
 8127SOL    HW124755   6.246   2.634   2.526
 8127SOL    HW224756   6.123   2.540   2.474
 8128SOL     OW24757   6.300   3.585   2.871
 8128SOL    HW124758   6.254   3.670   2.848
 8128SOL    HW224759   6.396   3.589   2.843
 8129SOL     OW24760   5.773   3.154   3.689
 8129SOL    HW124761   5.758   3.065   3.646
 8129SOL    HW224762   5.706   3.166   3.763
 8130SOL     OW24763   5.763   3.088   2.528
 8130SOL    HW124764   5.804   3.045   2.608
 8130SOL    HW224765   5.801   3.047   2.445
 8131SOL     OW24766   6.264   3.281   3.554
 8131SOL    HW124767   6.176   3.246   3.586
 8131SOL    HW224768   6.269   3.379   3.573
 8132SOL     OW24769   5.997   2.261   2.418
 8132SOL    HW124770   6.015   2.201   2.340
 8132SOL    HW224771   5.928   2.219   2.477
 8133SOL     OW24772   5.945   2.406   3.164
 8133SOL    HW124773   6.001   2.340   3.214
 8133SOL    HW224774   5.947   2.385   3.066
 8134SOL     OW24775   0.033   3.525   2.536
 8134SOL    HW124776   6.478   3.600   2.500
 8134SOL    HW224777   0.109   3.506   2.473
 8135SOL     OW24778   6.193   3.503   3.115
 8135SOL    HW124779   6.188   3.586   3.171
 8135SOL    HW224780   6.237   3.524   3.027
 8136SOL     OW24781   5.608   2.878   2.157
 8136SOL    HW124782   5.704   2.861   2.135
 8136SOL    HW224783   5.563   2.792   2.178
 8137SOL     OW24784   5.787   2.509   3.878
 8137SOL    HW124785   5.699   2.473   3.907
 8137SOL    HW224786   5.792   2.511   3.778
 8138SOL     OW24787   5.791   2.155   4.721
 8138SOL    HW124788   5.830   2.128   4.810
 8138SOL    HW224789   5.702   2.111   4.710
 8139SOL     OW24790   5.566   2.299   4.362
 8139SOL    HW124791   5.479   2.319   4.406
 8139SOL    HW224792   5.553   2.226   4.294
 8140SOL     OW24793   6.114   3.210   5.023
 8140SOL    HW124794   6.061   3.211   4.938
 8140SOL    HW224795   6.155   3.300   5.038
 8141SOL     OW24796   6.472   2.538   5.494
 8141SOL    HW124797   6.490   2.579   5.584
 8141SOL    HW224798   0.031   2.579   5.426
 8142SOL     OW24799   6.282   2.793   4.391
 8142SOL    HW124800   6.374   2.831   4.401
 8142SOL    HW224801   6.215   2.868   4.392
 8143SOL     OW24802   6.257   3.002   5.594
 8143SOL    HW124803   6.320   3.021   5.519
 8143SOL    HW224804   6.169   3.046   5.576
 8144SOL     OW24805   5.968   3.268   4.794
 8144SOL    HW124806   5.892   3.213   4.759
 8144SOL    HW224807   6.009   3.320   4.719
 8145SOL     OW24808   6.069   2.221   5.182
 8145SOL    HW124809   6.151   2.165   5.199
 8145SOL    HW224810   5.989   2.174   5.219
 8146SOL     OW24811   5.818   3.603   4.206
 8146SOL    HW124812   5.838   3.675   4.272
 8146SOL    HW224813   5.897   3.590   4.147
 8147SOL     OW24814   5.760   3.332   4.226
 8147SOL    HW124815   5.776   3.430   4.240
 8147SOL    HW224816   5.768   3.284   4.313
 8148SOL     OW24817   5.909   2.948   4.591
 8148SOL    HW124818   5.900   2.850   4.611
 8148SOL    HW224819   5.860   3.001   4.661
 8149SOL     OW24820   6.146   3.708   5.137
 8149SOL    HW124821   6.065   3.675   5.186
 8149SOL    HW224822   6.193   3.776   5.194
 8150SOL     OW24823   6.127   2.838   3.901
 8150SOL    HW124824   6.187   2.888   3.838
 8150SOL    HW224825   6.129   2.880   3.991
 8151SOL     OW24826   5.697   2.554   4.301
 8151SOL    HW124827   5.661   2.464   4.325
 8151SOL    HW224828   5.689   2.615   4.380
 8152SOL     OW24829   5.624   3.427   3.865
 8152SOL    HW124830   5.599   3.333   3.886
 8152SOL    HW224831   5.608   3.485   3.945
 8153SOL     OW24832   5.669   2.630   5.261
 8153SOL    HW124833   5.727   2.678   5.195
 8153SOL    HW224834   5.582   2.678   5.271
 8154SOL     OW24835   6.194   3.257   4.418
 8154SOL    HW124836   6.167   3.161   4.419
 8154SOL    HW224837   6.176   3.295   4.327
 8155SOL     OW24838   6.407   1.961   4.299
 8155SOL    HW124839   6.463   1.971   4.217
 8155SOL    HW224840   6.312   1.945   4.273
 8156SOL     OW24841   5.778   2.782   5.058
 8156SOL    HW124842   5.871   2.745   5.053
 8156SOL    HW224843   5.738   2.784   4.966
 8157SOL     OW24844   5.942   2.126   5.609
 8157SOL    HW124845   5.981   2.207   5.652
 8157SOL    HW224846   5.851   2.148   5.573
 8158SOL     OW24847   6.178   2.570   4.000
 8158SOL    HW124848   6.165   2.660   3.958
 8158SOL    HW224849   6.116   2.560   4.078
 8159SOL     OW24850   6.365   2.417   5.195
 8159SOL    HW124851   6.321   2.383   5.278
 8159SOL    HW224852   6.327   2.371   5.115
 8160SOL     OW24853   5.663   2.734   4.519
 8160SOL    HW124854   5.744   2.705   4.571
 8160SOL    HW224855   5.623   2.815   4.561
 8161SOL     OW24856   5.691   3.739   5.324
 8161SOL    HW124857   5.696   3.702   5.417
 8161SOL    HW224858   5.603   3.714   5.283
 8162SOL     OW24859   6.160   1.959   4.673
 8162SOL    HW124860   6.157   2.004   4.762
 8162SOL    HW224861   6.184   2.027   4.603
 8163SOL     OW24862   5.942   3.666   4.614
 8163SOL    HW124863   5.989   3.578   4.613
 8163SOL    HW224864   6.004   3.736   4.650
 8164SOL     OW24865   5.856   2.767   3.987
 8164SOL    HW124866   5.939   2.791   3.935
 8164SOL    HW224867   5.826   2.676   3.961
 8165SOL     OW24868   6.027   3.135   5.527
 8165SOL    HW124869   6.030   3.125   5.427
 8165SOL    HW224870   5.932   3.142   5.557
 8166SOL     OW24871   5.816   2.118   5.233
 8166SOL    HW124872   5.763   2.200   5.254
 8166SOL    HW224873   5.772   2.038   5.275
 8167SOL     OW24874   6.056   3.601   4.064
 8167SOL    HW124875   6.101   3.669   4.120
 8167SOL    HW224876   6.118   3.569   3.992
 8168SOL     OW24877   5.818   3.698   4.914
 8168SOL    HW124878   5.868   3.616   4.942
 8168SOL    HW224879   5.761   3.676   4.835
 8169SOL     OW24880   5.989   2.529   4.202
 8169SOL    HW124881   5.989   2.432   4.225
 8169SOL    HW224882   5.897   2.567   4.218
 8170SOL     OW24883   6.175   1.946   3.871
 8170SOL    HW124884   6.273   1.928   3.874
 8170SOL    HW224885   6.137   1.914   3.784
 8171SOL     OW24886   6.331   2.089   5.509
 8171SOL    HW124887   6.380   2.037   5.579
 8171SOL    HW224888   6.241   2.049   5.494
 8172SOL     OW24889   6.443   3.331   4.541
 8172SOL    HW124890   6.472   3.417   4.500
 8172SOL    HW224891   6.359   3.299   4.498
 8173SOL     OW24892   0.009   2.396   4.631
 8173SOL    HW124893   6.473   2.336   4.559
 8173SOL    HW224894   0.015   2.344   4.716
 8174SOL     OW24895   6.142   1.941   4.227
 8174SOL    HW124896   6.066   1.932   4.291
 8174SOL    HW224897   6.123   2.016   4.164
 8175SOL     OW24898   5.877   1.904   3.897
 8175SOL    HW124899   5.925   1.981   3.854
 8175SOL    HW224900   5.943   1.850   3.950
 8176SOL     OW24901   6.091   2.995   4.392
 8176SOL    HW124902   6.033   2.979   4.472
 8176SOL    HW224903   6.036   2.988   4.309
 8177SOL     OW24904   5.690   2.387   5.133
 8177SOL    HW124905   5.785   2.387   5.103
 8177SOL    HW224906   5.672   2.470   5.187
 8178SOL     OW24907   6.144   2.070   4.919
 8178SOL    HW124908   6.185   2.006   4.984
 8178SOL    HW224909   6.047   2.079   4.938
 8179SOL     OW24910   6.070   3.246   3.899
 8179SOL    HW124911   5.982   3.226   3.942
 8179SOL    HW224912   6.073   3.203   3.809
 8180SOL     OW24913   6.078   2.132   4.043
 8180SOL    HW124914   6.114   2.065   3.977
 8180SOL    HW224915   6.055   2.216   3.995
 8181SOL     OW24916   6.493   1.970   5.065
 8181SOL    HW124917   0.017   1.886   5.016
 8181SOL    HW224918   0.077   2.022   5.085
 8182SOL     OW24919   6.018   2.660   5.052
 8182SOL    HW124920   6.094   2.666   5.116
 8182SOL    HW224921   5.988   2.565   5.044
 8183SOL     OW24922   5.685   3.420   5.083
 8183SOL    HW124923   5.623   3.469   5.021
 8183SOL    HW224924   5.780   3.444   5.061
 8184SOL     OW24925   5.912   2.971   4.176
 8184SOL    HW124926   5.892   3.048   4.116
 8184SOL    HW224927   5.887   2.886   4.131
 8185SOL     OW24928   6.146   2.416   4.630
 8185SOL    HW124929   6.163   2.449   4.537
 8185SOL    HW224930   6.207   2.463   4.693
 8186SOL     OW24931   5.941   3.465   4.981
 8186SOL    HW124932   5.942   3.393   4.912
 8186SOL    HW224933   6.033   3.478   5.018
 8187SOL     OW24934   6.062   2.545   5.410
 8187SOL    HW124935   6.110   2.599   5.341
 8187SOL    HW224936   6.119   2.468   5.438
 8188SOL     OW24937   6.087   1.932   5.480
 8188SOL    HW124938   6.032   1.874   5.419
 8188SOL    HW224939   6.030   2.006   5.515
 8189SOL     OW24940   6.106   2.771   4.821
 8189SOL    HW124941   6.132   2.868   4.825
 8189SOL    HW224942   6.074   2.741   4.911
 8190SOL     OW24943   5.877   2.073   4.967
 8190SOL    HW124944   5.856   2.099   5.062
 8190SOL    HW224945   5.844   1.980   4.950
 8191SOL     OW24946   5.688   3.156   5.009
 8191SOL    HW124947   5.704   3.100   5.090
 8191SOL    HW224948   5.684   3.253   5.035
 8192SOL     OW24949   6.283   2.559   4.820
 8192SOL    HW124950   6.378   2.590   4.825
 8192SOL    HW224951   6.222   2.638   4.814
 8193SOL     OW24952   5.916   1.926   4.385
 8193SOL    HW124953   5.868   2.012   4.403
 8193SOL    HW224954   5.925   1.875   4.470
 8194SOL     OW24955   0.066   2.615   4.795
 8194SOL    HW124956   0.152   2.651   4.760
 8194SOL    HW224957   0.037   2.537   4.739
 8195SOL     OW24958   6.413   3.450   5.319
 8195SOL    HW124959   6.491   3.507   5.346
 8195SOL    HW224960   6.420   3.428   5.222
 8196SOL     OW24961   5.938   2.758   5.544
 8196SOL    HW124962   6.006   2.793   5.607
 8196SOL    HW224963   5.976   2.681   5.492
 8197SOL     OW24964   5.889   2.679   4.678
 8197SOL    HW124965   5.973   2.711   4.721
 8197SOL    HW224966   5.881   2.580   4.691
 8198SOL     OW24967   5.900   2.402   4.741
 8198SOL    HW124968   5.857   2.313   4.723
 8198SOL    HW224969   5.989   2.406   4.696
 8199SOL     OW24970   5.589   3.136   3.896
 8199SOL    HW124971   5.499   3.169   3.868
 8199SOL    HW224972   5.581   3.043   3.932
 8200SOL     OW24973   5.672   3.640   4.682
 8200SOL    HW124974   5.628   3.564   4.635
 8200SOL    HW224975   5.766   3.651   4.647
 8201SOL     OW24976   6.097   3.434   4.610
 8201SOL    HW124977   6.171   3.498   4.634
 8201SOL    HW224978   6.130   3.371   4.539
 8202SOL     OW24979   5.634   2.441   4.862
 8202SOL    HW124980   5.719   2.437   4.811
 8202SOL    HW224981   5.651   2.419   4.958
 8203SOL     OW24982   5.796   2.475   5.455
 8203SOL    HW124983   5.894   2.489   5.437
 8203SOL    HW224984   5.743   2.534   5.394
 8204SOL     OW24985   6.454   2.498   4.015
 8204SOL    HW124986   6.451   2.399   4.029
 8204SOL    HW224987   6.361   2.534   4.009
 8205SOL     OW24988   5.820   3.395   5.441
 8205SOL    HW124989   5.797   3.475   5.496
 8205SOL    HW224990   5.813   3.313   5.497
 8206SOL     OW24991   6.280   2.312   4.958
 8206SOL    HW124992   6.219   2.236   4.937
 8206SOL    HW224993   6.255   2.391   4.902
 8207SOL     OW24994   6.021   2.357   3.895
 8207SOL    HW124995   6.093   2.422   3.919
 8207SOL    HW224996   5.932   2.404   3.896
 8208SOL     OW24997   5.729   2.990   5.227
 8208SOL    HW124998   5.726   2.957   5.321
 8208SOL    HW224999   5.747   2.912   5.166
 8209SOL     OW25000   5.749   3.093   4.754
 8209SOL    HW125001   5.726   3.118   4.848
 8209SOL    HW225002   5.670   3.053   4.709
 8210SOL     OW25003   6.216   3.529   5.503
 8210SOL    HW125004   6.166   3.612   5.479
 8210SOL    HW225005   6.282   3.507   5.430
 8211SOL     OW25006   6.445   1.935   3.844
 8211SOL    HW125007   6.498   1.855   3.815
 8211SOL    HW225008   6.485   1.973   3.927
 8212SOL     OW25009   5.731   3.623   5.572
 8212SOL    HW125010   5.680   3.553   5.623
 8212SOL    HW225011   5.785   3.678   5.636
 8213SOL     OW25012   6.331   3.102   5.148
 8213SOL    HW125013   6.325   3.134   5.242
 8213SOL    HW225014   6.248   3.129   5.099
 8214SOL     OW25015   6.219   3.477   3.875
 8214SOL    HW125016   6.236   3.502   3.780
 8214SOL    HW225017   6.165   3.392   3.878
 8215SOL     OW25018   5.798   2.167   4.445
 8215SOL    HW125019   5.717   2.217   4.416
 8215SOL    HW225020   5.805   2.168   4.545
 8216SOL     OW25021   6.410   2.840   5.144
 8216SOL    HW125022   6.498   2.827   5.098
 8216SOL    HW225023   6.386   2.937   5.142
 8217SOL     OW25024   5.994   3.113   5.257
 8217SOL    HW125025   6.033   3.149   5.173
 8217SOL    HW225026   5.902   3.078   5.240
 8218SOL     OW25027   6.124   3.342   4.166
 8218SOL    HW125028   6.123   3.289   4.081
 8218SOL    HW225029   6.094   3.435   4.147
 8219SOL     OW25030   5.833   3.181   4.019
 8219SOL    HW125031   5.749   3.162   3.968
 8219SOL    HW225032   5.813   3.243   4.094
 8220SOL     OW25033   5.707   2.900   5.483
 8220SOL    HW125034   5.623   2.866   5.527
 8220SOL    HW225035   5.783   2.840   5.508
 8221SOL     OW25036   6.291   2.055   5.228
 8221SOL    HW125037   6.365   2.028   5.167
 8221SOL    HW225038   6.328   2.072   5.320
 8222SOL     OW25039   5.701   2.220   3.673
 8222SOL    HW125040   5.609   2.206   3.637
 8222SOL    HW225041   5.732   2.312   3.652
 8223SOL     OW25042   5.639   2.021   3.961
 8223SOL    HW125043   5.617   2.088   3.890
 8223SOL    HW225044   5.730   1.982   3.944
 8224SOL     OW25045   6.231   2.654   5.218
 8224SOL    HW125046   6.290   2.732   5.197
 8224SOL    HW225047   6.283   2.570   5.210
 8225SOL     OW25048   6.269   2.360   5.450
 8225SOL    HW125049   6.341   2.424   5.477
 8225SOL    HW225050   6.289   2.270   5.488
 8226SOL     OW25051   5.932   3.611   5.286
 8226SOL    HW125052   5.844   3.657   5.275
 8226SOL    HW225053   5.917   3.518   5.319
 8227SOL     OW25054   6.201   2.531   4.388
 8227SOL    HW125055   6.239   2.623   4.394
 8227SOL    HW225056   6.125   2.530   4.323
 8228SOL     OW25057   6.276   3.638   4.659
 8228SOL    HW125058   6.233   3.728   4.658
 8228SOL    HW225059   6.374   3.648   4.675
 8229SOL     OW25060   5.762   3.152   5.576
 8229SOL    HW125061   5.742   3.065   5.531
 8229SOL    HW225062   5.696   3.168   5.650
 8230SOL     OW25063   5.771   3.093   4.391
 8230SOL    HW125064   5.812   3.051   4.472
 8230SOL    HW225065   5.810   3.052   4.309
 8231SOL     OW25066   6.302   3.212   5.398
 8231SOL    HW125067   6.211   3.232   5.436
 8231SOL    HW225068   6.350   3.298   5.380
 8232SOL     OW25069   5.988   2.270   4.268
 8232SOL    HW125070   6.011   2.205   4.196
 8232SOL    HW225071   5.923   2.227   4.331
 8233SOL     OW25072   5.939   2.402   5.025
 8233SOL    HW125073   5.997   2.336   5.074
 8233SOL    HW225074   5.942   2.383   4.927
 8234SOL     OW25075   0.029   3.588   4.415
 8234SOL    HW125076   6.472   3.662   4.380
 8234SOL    HW225077   0.101   3.567   4.349
 8235SOL     OW25078   6.222   3.461   5.050
 8235SOL    HW125079   6.204   3.555   5.080
 8235SOL    HW225080   6.320   3.449   5.035
 8236SOL     OW25081   5.603   2.881   4.022
 8236SOL    HW125082   5.699   2.862   4.001
 8236SOL    HW225083   5.556   2.795   4.041
 8237SOL     OW25084   5.779   2.512   5.731
 8237SOL    HW125085   5.689   2.478   5.760
 8237SOL    HW225086   5.785   2.511   5.631
 8238SOL     OW25087   5.831   2.162   0.057
 8238SOL    HW125088   5.865   2.113   0.138
 8238SOL    HW225089   5.734   2.143   0.045
 8239SOL     OW25090   5.553   2.284   6.223
 8239SOL    HW125091   5.466   2.326   6.250
 8239SOL    HW225092   5.536   2.203   6.167
 8240SOL     OW25093   6.265   3.008   0.099
 8240SOL    HW125094   6.206   3.086   0.122
 8240SOL    HW225095   6.337   3.038   0.037
 8241SOL     OW25096   6.314   2.836   6.254
 8241SOL    HW125097   6.400   2.888   6.255
 8241SOL    HW225098   6.237   2.900   6.257
 8242SOL     OW25099   5.819   3.616   6.039
 8242SOL    HW125100   5.836   3.689   6.106
 8242SOL    HW225101   5.904   3.592   5.993
 8243SOL     OW25102   5.755   3.363   6.118
 8243SOL    HW125103   5.780   3.455   6.090
 8243SOL    HW225104   5.691   3.367   6.195
 8244SOL     OW25105   5.888   2.899   6.468
 8244SOL    HW125106   5.881   2.889   0.067
 8244SOL    HW225107   5.814   2.958   6.435
 8245SOL     OW25108   6.114   2.835   5.760
 8245SOL    HW125109   6.176   2.882   5.697
 8245SOL    HW225110   6.119   2.879   5.850
 8246SOL     OW25111   5.701   2.526   6.172
 8246SOL    HW125112   5.663   2.435   6.188
 8246SOL    HW225113   5.736   2.564   6.258
 8247SOL     OW25114   5.625   3.423   5.723
 8247SOL    HW125115   5.600   3.331   5.752
 8247SOL    HW225116   5.606   3.488   5.797
 8248SOL     OW25117   6.128   3.217   6.341
 8248SOL    HW125118   6.103   3.124   6.315
 8248SOL    HW225119   6.128   3.276   6.260
 8249SOL     OW25120   6.412   1.858   6.136
 8249SOL    HW125121   6.474   1.894   6.067
 8249SOL    HW225122   6.319   1.890   6.118
 8250SOL     OW25123   6.170   2.569   5.848
 8250SOL    HW125124   6.157   2.659   5.806
 8250SOL    HW225125   6.122   2.565   5.936
 8251SOL     OW25126   5.768   2.651   6.411
 8251SOL    HW125127   5.835   2.724   6.419
 8251SOL    HW225128   5.676   2.689   6.419
 8252SOL     OW25129   6.089   2.129   6.456
 8252SOL    HW125130   6.004   2.162   6.496
 8252SOL    HW225131   6.147   2.206   6.432
 8253SOL     OW25132   5.972   3.704   6.468
 8253SOL    HW125133   6.043   3.635   6.482
 8253SOL    HW225134   6.014   3.794   6.465
 8254SOL     OW25135   5.846   2.761   5.845
 8254SOL    HW125136   5.930   2.788   5.798
 8254SOL    HW225137   5.816   2.672   5.811
 8255SOL     OW25138   6.073   3.583   5.944
 8255SOL    HW125139   6.120   3.660   5.988
 8255SOL    HW225140   6.130   3.545   5.872
 8256SOL     OW25141   6.012   2.553   6.079
 8256SOL    HW125142   6.017   2.455   6.096
 8256SOL    HW225143   5.917   2.583   6.083
 8257SOL     OW25144   6.178   1.938   5.742
 8257SOL    HW125145   6.277   1.920   5.741
 8257SOL    HW225146   6.140   1.915   5.653
 8258SOL     OW25147   6.392   3.233   6.435
 8258SOL    HW125148   6.429   3.292   6.364
 8258SOL    HW225149   6.294   3.222   6.422
 8259SOL     OW25150   6.155   1.942   6.080
 8259SOL    HW125151   6.075   1.938   6.139
 8259SOL    HW225152   6.148   2.022   6.021
 8260SOL     OW25153   5.875   1.909   5.774
 8260SOL    HW125154   5.914   1.987   5.726
 8260SOL    HW225155   5.946   1.860   5.823
 8261SOL     OW25156   6.061   2.963   6.265
 8261SOL    HW125157   6.013   2.933   6.347
 8261SOL    HW225158   6.002   2.950   6.185
 8262SOL     OW25159   6.057   3.221   5.803
 8262SOL    HW125160   5.971   3.204   5.850
 8262SOL    HW225161   6.051   3.189   5.709
 8263SOL     OW25162   6.106   2.145   5.901
 8263SOL    HW125163   6.133   2.072   5.838
 8263SOL    HW225164   6.071   2.223   5.849
 8264SOL     OW25165   5.869   2.929   6.065
 8264SOL    HW125166   5.851   3.018   6.024
 8264SOL    HW225167   5.859   2.857   5.996
 8265SOL     OW25168   6.225   2.372   6.436
 8265SOL    HW125169   6.209   2.456   6.383
 8265SOL    HW225170   6.174   2.377   0.022
 8266SOL     OW25171   5.922   1.933   6.226
 8266SOL    HW125172   5.873   2.020   6.236
 8266SOL    HW225173   5.956   1.903   6.315
 8267SOL     OW25174   5.578   3.144   5.783
 8267SOL    HW125175   5.487   3.174   5.753
 8267SOL    HW225176   5.574   3.048   5.811
 8268SOL     OW25177   5.685   3.670   6.484
 8268SOL    HW125178   5.661   3.577   0.012
 8268SOL    HW225179   5.783   3.676   6.467
 8269SOL     OW25180   6.413   2.436   5.796
 8269SOL    HW125181   6.396   2.345   5.834
 8269SOL    HW225182   6.332   2.493   5.811
 8270SOL     OW25183   6.012   2.358   5.751
 8270SOL    HW125184   6.083   2.426   5.772
 8270SOL    HW225185   5.923   2.402   5.751
 8271SOL     OW25186   6.450   1.929   5.699
 8271SOL    HW125187   0.002   1.850   5.668
 8271SOL    HW225188   6.486   1.962   5.786
 8272SOL     OW25189   6.219   3.442   5.759
 8272SOL    HW125190   6.213   3.472   5.664
 8272SOL    HW225191   6.161   3.361   5.772
 8273SOL     OW25192   5.808   2.180   6.278
 8273SOL    HW125193   5.718   2.218   6.259
 8273SOL    HW225194   5.826   2.185   6.377
 8274SOL     OW25195   6.152   3.344   6.086
 8274SOL    HW125196   6.142   3.277   6.012
 8274SOL    HW225197   6.115   3.432   6.057
 8275SOL     OW25198   5.815   3.169   5.937
 8275SOL    HW125199   5.732   3.164   5.881
 8275SOL    HW225200   5.801   3.237   6.009
 8276SOL     OW25201   5.703   2.223   5.522
 8276SOL    HW125202   5.608   2.210   5.494
 8276SOL    HW225203   5.732   2.316   5.500
 8277SOL     OW25204   5.624   1.994   5.846
 8277SOL    HW125205   5.592   2.053   5.773
 8277SOL    HW225206   5.719   1.968   5.829
 8278SOL     OW25207   6.176   2.607   6.305
 8278SOL    HW125208   6.235   2.686   6.288
 8278SOL    HW225209   6.116   2.592   6.226
 8279SOL     OW25210   6.235   3.649   0.064
 8279SOL    HW125211   6.214   3.745   0.082
 8279SOL    HW225212   6.331   3.641   0.035
 8280SOL     OW25213   5.686   2.969   6.278
 8280SOL    HW125214   5.637   2.890   6.315
 8280SOL    HW225215   5.746   2.940   6.204
 8281SOL     OW25216   6.009   2.289   6.119
 8281SOL    HW125217   6.042   2.225   6.050
 8281SOL    HW225218   5.941   2.244   6.176
 8282SOL     OW25219   6.401   3.410   6.210
 8282SOL    HW125220   6.404   3.510   6.202
 8282SOL    HW225221   6.317   3.375   6.167
 8283SOL     OW25222   5.590   2.878   5.889
 8283SOL    HW125223   5.684   2.862   5.859
 8283SOL    HW225224   5.549   2.791   5.917
 8284SOL     OW25225   5.807   4.398   0.143
 8284SOL    HW125226   5.730   4.345   0.180
 8284SOL    HW225227   5.781   4.439   0.056
 8285SOL     OW25228   5.801   4.031   0.999
 8285SOL    HW125229   5.836   4.003   1.088
 8285SOL    HW225230   5.713   3.985   0.982
 8286SOL     OW25231   5.566   4.140   0.649
 8286SOL    HW125232   5.480   4.165   0.694
 8286SOL    HW225233   5.551   4.060   0.591
 8287SOL     OW25234   6.157   5.083   1.236
 8287SOL    HW125235   6.076   5.077   1.177
 8287SOL    HW225236   6.181   5.179   1.249
 8288SOL     OW25237   6.342   4.433   1.854
 8288SOL    HW125238   6.310   4.488   1.931
 8288SOL    HW225239   6.336   4.487   1.770
 8289SOL     OW25240   6.273   4.641   0.688
 8289SOL    HW125241   6.368   4.672   0.696
 8289SOL    HW225242   6.212   4.721   0.694
 8290SOL     OW25243   6.337   4.912   1.859
 8290SOL    HW125244   6.333   4.984   1.790
 8290SOL    HW225245   6.248   4.866   1.864
 8291SOL     OW25246   5.928   5.147   1.079
 8291SOL    HW125247   5.851   5.099   1.036
 8291SOL    HW225248   5.975   5.203   1.010
 8292SOL     OW25249   6.067   4.060   1.460
 8292SOL    HW125250   6.151   4.008   1.479
 8292SOL    HW225251   5.989   4.012   1.498
 8293SOL     OW25252   5.833   5.464   0.514
 8293SOL    HW125253   5.839   5.543   0.575
 8293SOL    HW225254   5.907   5.466   0.448
 8294SOL     OW25255   5.908   5.195   0.520
 8294SOL    HW125256   5.869   5.286   0.535
 8294SOL    HW225257   5.864   5.129   0.581
 8295SOL     OW25258   5.882   4.829   0.873
 8295SOL    HW125259   5.889   4.734   0.903
 8295SOL    HW225260   5.826   4.881   0.937
 8296SOL     OW25261   6.138   5.593   1.389
 8296SOL    HW125262   6.062   5.570   1.449
 8296SOL    HW225263   6.195   5.663   1.432
 8297SOL     OW25264   6.175   4.647   0.131
 8297SOL    HW125265   6.178   4.619   0.035
 8297SOL    HW225266   6.224   4.734   0.142
 8298SOL     OW25267   5.705   4.394   0.600
 8298SOL    HW125268   5.667   4.304   0.621
 8298SOL    HW225269   5.700   4.453   0.681
 8299SOL     OW25270   5.584   5.332   0.084
 8299SOL    HW125271   5.540   5.243   0.094
 8299SOL    HW225272   5.608   5.368   0.174
 8300SOL     OW25273   5.705   4.489   1.559
 8300SOL    HW125274   5.796   4.528   1.573
 8300SOL    HW225275   5.640   4.562   1.535
 8301SOL     OW25276   6.187   5.110   0.755
 8301SOL    HW125277   6.159   5.016   0.739
 8301SOL    HW225278   6.197   5.158   0.668
 8302SOL     OW25279   6.416   3.825   0.588
 8302SOL    HW125280   6.480   3.840   0.512
 8302SOL    HW225281   6.323   3.817   0.552
 8303SOL     OW25282   5.756   4.634   1.277
 8303SOL    HW125283   5.848   4.600   1.296
 8303SOL    HW225284   5.707   4.568   1.221
 8304SOL     OW25285   5.958   3.981   1.872
 8304SOL    HW125286   5.998   4.058   1.922
 8304SOL    HW225287   5.872   4.010   1.830
 8305SOL     OW25288   6.204   4.433   0.306
 8305SOL    HW125289   6.199   4.517   0.252
 8305SOL    HW225290   6.134   4.436   0.378
 8306SOL     OW25291   6.350   4.294   1.453
 8306SOL    HW125292   6.338   4.253   1.544
 8306SOL    HW225293   6.315   4.232   1.383
 8307SOL     OW25294   5.681   4.576   0.811
 8307SOL    HW125295   5.771   4.562   0.853
 8307SOL    HW225296   5.634   4.650   0.857
 8308SOL     OW25297   5.684   5.618   1.609
 8308SOL    HW125298   5.696   5.577   1.700
 8308SOL    HW225299   5.599   5.582   1.568
 8309SOL     OW25300   6.164   3.818   0.943
 8309SOL    HW125301   6.155   3.858   1.034
 8309SOL    HW225302   6.194   3.888   0.878
 8310SOL     OW25303   5.961   5.550   0.877
 8310SOL    HW125304   6.016   5.468   0.890
 8310SOL    HW225305   6.014   5.631   0.903
 8311SOL     OW25306   5.920   4.640   0.236
 8311SOL    HW125307   6.016   4.642   0.207
 8311SOL    HW225308   5.883   4.548   0.223
 8312SOL     OW25309   6.041   5.021   1.763
 8312SOL    HW125310   5.993   5.033   1.676
 8312SOL    HW225311   6.022   4.930   1.799
 8313SOL     OW25312   5.821   3.947   1.529
 8313SOL    HW125313   5.796   4.011   1.601
 8313SOL    HW225314   5.768   3.863   1.539
 8314SOL     OW25315   6.046   5.510   0.353
 8314SOL    HW125316   6.101   5.574   0.407
 8314SOL    HW225317   6.105   5.440   0.314
 8315SOL     OW25318   5.822   5.532   1.220
 8315SOL    HW125319   5.870   5.453   1.259
 8315SOL    HW225320   5.792   5.511   1.127
 8316SOL     OW25321   5.979   4.395   0.481
 8316SOL    HW125322   5.979   4.295   0.474
 8316SOL    HW225323   5.889   4.425   0.514
 8317SOL     OW25324   6.328   3.942   1.788
 8317SOL    HW125325   6.385   3.894   1.855
 8317SOL    HW225326   6.233   3.913   1.800
 8318SOL     OW25327   6.430   5.186   0.873
 8318SOL    HW125328   6.441   5.266   0.814
 8318SOL    HW225329   6.349   5.135   0.846
 8319SOL     OW25330   0.020   4.263   0.905
 8319SOL    HW125331   6.491   4.197   0.835
 8319SOL    HW225332   0.027   4.216   0.993
 8320SOL     OW25333   6.157   3.814   0.500
 8320SOL    HW125334   6.072   3.815   0.554
 8320SOL    HW225335   6.151   3.884   0.428
 8321SOL     OW25336   5.899   3.775   0.229
 8321SOL    HW125337   5.913   3.746   0.134
 8321SOL    HW225338   5.949   3.714   0.290
 8322SOL     OW25339   6.092   4.856   0.695
 8322SOL    HW125340   6.023   4.844   0.766
 8322SOL    HW225341   6.050   4.845   0.605
 8323SOL     OW25342   5.690   4.269   1.400
 8323SOL    HW125343   5.786   4.250   1.379
 8323SOL    HW225344   5.685   4.347   1.463
 8324SOL     OW25345   6.136   3.913   1.194
 8324SOL    HW125346   6.168   3.844   1.259
 8324SOL    HW225347   6.040   3.935   1.213
 8325SOL     OW25348   6.126   5.097   0.141
 8325SOL    HW125349   6.041   5.075   0.189
 8325SOL    HW225350   6.110   5.098   0.043
 8326SOL     OW25351   6.157   3.997   0.298
 8326SOL    HW125352   6.237   3.958   0.253
 8326SOL    HW225353   6.126   4.078   0.247
 8327SOL     OW25354   0.007   3.817   1.364
 8327SOL    HW125355   0.042   3.764   1.287
 8327SOL    HW225356   0.081   3.872   1.403
 8328SOL     OW25357   6.002   4.520   1.325
 8328SOL    HW125358   6.074   4.535   1.393
 8328SOL    HW225359   5.978   4.423   1.323
 8329SOL     OW25360   5.662   5.289   1.386
 8329SOL    HW125361   5.619   5.354   1.324
 8329SOL    HW225362   5.761   5.297   1.380
 8330SOL     OW25363   5.946   4.831   0.457
 8330SOL    HW125364   5.946   4.907   0.392
 8330SOL    HW225365   5.946   4.745   0.407
 8331SOL     OW25366   6.152   4.267   0.920
 8331SOL    HW125367   6.162   4.301   0.826
 8331SOL    HW225368   6.216   4.316   0.980
 8332SOL     OW25369   5.930   5.288   1.312
 8332SOL    HW125370   5.920   5.230   1.231
 8332SOL    HW225371   6.027   5.309   1.326
 8333SOL     OW25372   5.985   4.526   1.648
 8333SOL    HW125373   6.071   4.526   1.597
 8333SOL    HW225374   5.990   4.592   1.723
 8334SOL     OW25375   6.071   3.760   1.753
 8334SOL    HW125376   6.013   3.711   1.687
 8334SOL    HW225377   6.023   3.843   1.783
 8335SOL     OW25378   6.126   4.633   1.112
 8335SOL    HW125379   6.167   4.722   1.132
 8335SOL    HW225380   6.078   4.600   1.193
 8336SOL     OW25381   5.870   3.938   1.248
 8336SOL    HW125382   5.852   3.963   1.344
 8336SOL    HW225383   5.839   3.844   1.232
 8337SOL     OW25384   5.654   5.041   1.260
 8337SOL    HW125385   5.681   4.969   1.323
 8337SOL    HW225386   5.648   5.128   1.308
 8338SOL     OW25387   6.293   4.410   1.105
 8338SOL    HW125388   6.388   4.439   1.117
 8338SOL    HW225389   6.234   4.491   1.104
 8339SOL     OW25390   5.922   3.791   0.647
 8339SOL    HW125391   5.878   3.878   0.670
 8339SOL    HW225392   5.934   3.737   0.730
 8340SOL     OW25393   0.075   4.481   1.072
 8340SOL    HW125394   0.165   4.511   1.041
 8340SOL    HW225395   0.042   4.408   1.013
 8341SOL     OW25396   6.492   5.401   1.572
 8341SOL    HW125397   6.479   5.370   1.478
 8341SOL    HW225398   0.068   5.350   1.613
 8342SOL     OW25399   5.917   4.556   0.950
 8342SOL    HW125400   5.999   4.589   0.996
 8342SOL    HW225401   5.907   4.458   0.967
 8343SOL     OW25402   5.902   4.281   1.017
 8343SOL    HW125403   5.856   4.193   1.002
 8343SOL    HW225404   5.994   4.277   0.979
 8344SOL     OW25405   5.673   4.967   0.161
 8344SOL    HW125406   5.590   5.020   0.144
 8344SOL    HW225407   5.650   4.883   0.210
 8345SOL     OW25408   5.709   5.480   0.969
 8345SOL    HW125409   5.679   5.393   0.930
 8345SOL    HW225410   5.796   5.507   0.927
 8346SOL     OW25411   6.100   5.309   0.928
 8346SOL    HW125412   6.177   5.328   0.989
 8346SOL    HW225413   6.128   5.241   0.860
 8347SOL     OW25414   5.669   4.381   1.150
 8347SOL    HW125415   5.748   4.355   1.096
 8347SOL    HW225416   5.676   4.341   1.242
 8348SOL     OW25417   5.809   4.337   1.760
 8348SOL    HW125418   5.900   4.377   1.745
 8348SOL    HW225419   5.743   4.382   1.701
 8349SOL     OW25420   6.481   4.369   0.287
 8349SOL    HW125421   6.483   4.282   0.238
 8349SOL    HW225422   6.386   4.395   0.304
 8350SOL     OW25423   5.870   5.304   1.695
 8350SOL    HW125424   5.817   5.364   1.756
 8350SOL    HW225425   5.845   5.209   1.713
 8351SOL     OW25426   6.287   4.147   1.229
 8351SOL    HW125427   6.225   4.071   1.210
 8351SOL    HW225428   6.259   4.227   1.174
 8352SOL     OW25429   6.080   4.233   0.162
 8352SOL    HW125430   6.131   4.300   0.216
 8352SOL    HW225431   5.985   4.263   0.154
 8353SOL     OW25432   5.742   4.855   1.441
 8353SOL    HW125433   5.734   4.827   1.536
 8353SOL    HW225434   5.744   4.774   1.382
 8354SOL     OW25435   5.691   5.001   0.995
 8354SOL    HW125436   5.674   5.015   1.093
 8354SOL    HW225437   5.631   4.930   0.960
 8355SOL     OW25438   6.271   5.398   1.733
 8355SOL    HW125439   6.201   5.459   1.697
 8355SOL    HW225440   6.354   5.406   1.678
 8356SOL     OW25441   6.398   3.880   0.195
 8356SOL    HW125442   6.430   3.812   0.130
 8356SOL    HW225443   6.462   3.885   0.272
 8357SOL     OW25444   5.729   5.488   1.846
 8357SOL    HW125445   5.673   5.417   1.889
 8357SOL    HW225446   5.785   5.534   1.915
 8358SOL     OW25447   6.325   4.987   1.431
 8358SOL    HW125448   6.307   5.032   1.518
 8358SOL    HW225449   6.253   5.012   1.366
 8359SOL     OW25450   6.219   5.329   0.249
 8359SOL    HW125451   6.236   5.393   0.174
 8359SOL    HW225452   6.195   5.239   0.211
 8360SOL     OW25453   5.817   4.033   0.716
 8360SOL    HW125454   5.731   4.077   0.690
 8360SOL    HW225455   5.829   4.039   0.815
 8361SOL     OW25456   0.294   5.277   6.478
 8361SOL    HW125457   0.223   5.288   0.048
 8361SOL    HW225458   0.253   5.237   6.396
 8362SOL     OW25459   6.396   4.720   1.411
 8362SOL    HW125460   6.491   4.711   1.381
 8362SOL    HW225461   6.373   4.816   1.421
 8363SOL     OW25462   5.925   5.049   1.518
 8363SOL    HW125463   5.927   5.129   1.458
 8363SOL    HW225464   5.865   4.979   1.480
 8364SOL     OW25465   6.186   5.258   0.522
 8364SOL    HW125466   6.219   5.279   0.430
 8364SOL    HW225467   6.089   5.237   0.520
 8365SOL     OW25468   5.905   5.043   0.287
 8365SOL    HW125469   5.816   5.031   0.242
 8365SOL    HW225470   5.896   5.109   0.361
 8366SOL     OW25471   5.728   4.794   1.714
 8366SOL    HW125472   5.645   4.771   1.765
 8366SOL    HW225473   5.808   4.767   1.767
 8367SOL     OW25474   6.288   3.892   1.513
 8367SOL    HW125475   6.367   3.870   1.456
 8367SOL    HW225476   6.318   3.914   1.606
 8368SOL     OW25477   5.643   3.830   0.298
 8368SOL    HW125478   5.608   3.869   0.213
 8368SOL    HW225479   5.740   3.810   0.288
 8369SOL     OW25480   6.219   4.531   1.494
 8369SOL    HW125481   6.279   4.607   1.469
 8369SOL    HW225482   6.266   4.444   1.480
 8370SOL     OW25483   6.342   4.202   1.705
 8370SOL    HW125484   6.339   4.277   1.772
 8370SOL    HW225485   6.321   4.116   1.751
 8371SOL     OW25486   5.949   5.536   1.579
 8371SOL    HW125487   5.859   5.577   1.568
 8371SOL    HW225488   5.940   5.442   1.612
 8372SOL     OW25489   6.179   4.384   0.677
 8372SOL    HW125490   6.220   4.475   0.684
 8372SOL    HW225491   6.107   4.386   0.608
 8373SOL     OW25492   5.720   5.068   1.775
 8373SOL    HW125493   5.743   4.978   1.738
 8373SOL    HW225494   5.685   5.057   1.868
 8374SOL     OW25495   5.789   4.970   0.646
 8374SOL    HW125496   5.811   4.928   0.734
 8374SOL    HW225497   5.830   4.915   0.572
 8375SOL     OW25498   6.275   5.119   1.674
 8375SOL    HW125499   6.185   5.086   1.703
 8375SOL    HW225500   6.282   5.217   1.693
 8376SOL     OW25501   5.971   4.127   0.486
 8376SOL    HW125502   6.025   4.061   0.433
 8376SOL    HW225503   5.927   4.081   0.563
 8377SOL     OW25504   5.947   4.253   1.309
 8377SOL    HW125505   6.001   4.186   1.360
 8377SOL    HW225506   5.956   4.234   1.211
 8378SOL     OW25507   6.399   5.396   0.690
 8378SOL    HW125508   6.412   5.488   0.653
 8378SOL    HW225509   6.331   5.347   0.634
 8379SOL     OW25510   6.207   5.350   1.287
 8379SOL    HW125511   6.185   5.443   1.316
 8379SOL    HW225512   6.306   5.336   1.294
 8380SOL     OW25513   5.658   4.732   0.303
 8380SOL    HW125514   5.755   4.717   0.286
 8380SOL    HW225515   5.614   4.645   0.326
 8381SOL     OW25516   5.788   4.293   2.029
 8381SOL    HW125517   5.693   4.285   2.057
 8381SOL    HW225518   5.793   4.321   1.933
 8382SOL     OW25519   5.796   4.028   2.864
 8382SOL    HW125520   5.825   4.002   2.957
 8382SOL    HW225521   5.710   3.983   2.842
 8383SOL     OW25522   5.590   4.158   2.507
 8383SOL    HW125523   5.507   4.180   2.559
 8383SOL    HW225524   5.569   4.087   2.440
 8384SOL     OW25525   6.108   5.106   3.138
 8384SOL    HW125526   6.048   5.096   3.058
 8384SOL    HW225527   6.141   5.201   3.142
 8385SOL     OW25528   6.459   4.468   3.631
 8385SOL    HW125529   6.434   4.537   3.699
 8385SOL    HW225530   0.005   4.513   3.554
 8386SOL     OW25531   6.256   4.676   2.553
 8386SOL    HW125532   6.349   4.712   2.538
 8386SOL    HW225533   6.191   4.752   2.554
 8387SOL     OW25534   6.258   4.847   3.715
 8387SOL    HW125535   6.330   4.851   3.646
 8387SOL    HW225536   6.177   4.896   3.681
 8388SOL     OW25537   5.934   5.139   2.919
 8388SOL    HW125538   5.854   5.097   2.876
 8388SOL    HW225539   5.986   5.190   2.851
 8389SOL     OW25540   6.072   4.082   3.332
 8389SOL    HW125541   6.154   4.026   3.345
 8389SOL    HW225542   5.992   4.032   3.366
 8390SOL     OW25543   5.826   5.465   2.345
 8390SOL    HW125544   5.849   5.536   2.412
 8390SOL    HW225545   5.904   5.448   2.286
 8391SOL     OW25546   5.723   5.208   2.369
 8391SOL    HW125547   5.759   5.301   2.381
 8391SOL    HW225548   5.740   5.155   2.452
 8392SOL     OW25549   5.878   4.831   2.742
 8392SOL    HW125550   5.874   4.734   2.766
 8392SOL    HW225551   5.821   4.883   2.805
 8393SOL     OW25552   6.124   5.592   3.289
 8393SOL    HW125553   6.047   5.549   3.338
 8393SOL    HW225554   6.162   5.665   3.345
 8394SOL     OW25555   6.247   4.614   2.044
 8394SOL    HW125556   6.168   4.651   1.996
 8394SOL    HW225557   6.307   4.688   2.073
 8395SOL     OW25558   5.689   4.418   2.446
 8395SOL    HW125559   5.661   4.325   2.471
 8395SOL    HW225560   5.678   4.478   2.526
 8396SOL     OW25561   5.605   5.296   1.991
 8396SOL    HW125562   5.591   5.200   2.013
 8396SOL    HW225563   5.604   5.350   2.076
 8397SOL     OW25564   5.680   4.490   3.409
 8397SOL    HW125565   5.753   4.542   3.364
 8397SOL    HW225566   5.594   4.539   3.400
 8398SOL     OW25567   6.193   5.133   2.562
 8398SOL    HW125568   6.159   5.039   2.569
 8398SOL    HW225569   6.178   5.166   2.468
 8399SOL     OW25570   6.414   3.739   2.418
 8399SOL    HW125571   6.466   3.779   2.342
 8399SOL    HW225572   6.317   3.754   2.403
 8400SOL     OW25573   5.774   4.648   3.180
 8400SOL    HW125574   5.868   4.613   3.182
 8400SOL    HW225575   5.726   4.612   3.100
 8401SOL     OW25576   5.951   3.993   3.738
 8401SOL    HW125577   5.988   4.072   3.786
 8401SOL    HW225578   5.861   4.015   3.700
 8402SOL     OW25579   6.174   4.389   2.182
 8402SOL    HW125580   6.199   4.474   2.135
 8402SOL    HW225581   6.097   4.406   2.243
 8403SOL     OW25582   6.391   4.286   3.331
 8403SOL    HW125583   6.342   4.259   3.414
 8403SOL    HW225584   6.353   4.237   3.252
 8404SOL     OW25585   5.653   4.596   2.661
 8404SOL    HW125586   5.736   4.576   2.712
 8404SOL    HW225587   5.606   4.674   2.703
 8405SOL     OW25588   5.671   5.605   3.479
 8405SOL    HW125589   5.686   5.567   3.570
 8405SOL    HW225590   5.575   5.595   3.454
 8406SOL     OW25591   6.152   3.817   2.822
 8406SOL    HW125592   6.148   3.864   2.910
 8406SOL    HW225593   6.167   3.884   2.749
 8407SOL     OW25594   5.949   5.537   2.767
 8407SOL    HW125595   5.994   5.447   2.765
 8407SOL    HW225596   6.015   5.606   2.797
 8408SOL     OW25597   5.868   4.663   2.165
 8408SOL    HW125598   5.908   4.685   2.076
 8408SOL    HW225599   5.888   4.568   2.187
 8409SOL     OW25600   6.037   4.992   3.626
 8409SOL    HW125601   6.032   4.980   3.527
 8409SOL    HW225602   5.945   4.999   3.664
 8410SOL     OW25603   5.824   3.970   3.397
 8410SOL    HW125604   5.791   4.037   3.463
 8410SOL    HW225605   5.780   3.881   3.416
 8411SOL     OW25606   6.063   5.457   2.196
 8411SOL    HW125607   6.109   5.527   2.251
 8411SOL    HW225608   6.125   5.427   2.123
 8412SOL     OW25609   5.761   5.566   3.060
 8412SOL    HW125610   5.814   5.487   3.091
 8412SOL    HW225611   5.729   5.550   2.967
 8413SOL     OW25612   5.952   4.401   2.349
 8413SOL    HW125613   5.967   4.302   2.359
 8413SOL    HW225614   5.859   4.423   2.377
 8414SOL     OW25615   6.181   3.789   2.008
 8414SOL    HW125616   6.280   3.777   2.006
 8414SOL    HW225617   6.141   3.754   1.923
 8415SOL     OW25618   6.339   3.970   3.657
 8415SOL    HW125619   6.377   3.908   3.724
 8415SOL    HW225620   6.243   3.947   3.641
 8416SOL     OW25621   6.442   5.195   2.688
 8416SOL    HW125622   6.480   5.271   2.636
 8416SOL    HW225623   6.358   5.163   2.645
 8417SOL     OW25624   0.012   4.302   2.729
 8417SOL    HW125625   6.474   4.248   2.654
 8417SOL    HW225626   0.016   4.245   2.812
 8418SOL     OW25627   6.148   3.788   2.372
 8418SOL    HW125628   6.070   3.782   2.435
 8418SOL    HW225629   6.134   3.865   2.309
 8419SOL     OW25630   5.878   3.765   2.033
 8419SOL    HW125631   5.923   3.842   1.988
 8419SOL    HW225632   5.946   3.714   2.086
 8420SOL     OW25633   6.073   4.882   2.553
 8420SOL    HW125634   6.008   4.863   2.627
 8420SOL    HW225635   6.024   4.882   2.465
 8421SOL     OW25636   5.689   4.256   3.265
 8421SOL    HW125637   5.786   4.248   3.243
 8421SOL    HW225638   5.675   4.334   3.325
 8422SOL     OW25639   6.132   3.937   3.065
 8422SOL    HW125640   6.161   3.863   3.127
 8422SOL    HW225641   6.036   3.958   3.081
 8423SOL     OW25642   6.058   5.127   2.021
 8423SOL    HW125643   5.971   5.110   2.068
 8423SOL    HW225644   6.054   5.088   1.929
 8424SOL     OW25645   6.097   3.976   2.185
 8424SOL    HW125646   6.129   3.907   2.120
 8424SOL    HW225647   6.075   4.060   2.136
 8425SOL     OW25648   0.004   3.828   3.217
 8425SOL    HW125649   0.036   3.757   3.155
 8425SOL    HW225650   0.082   3.880   3.252
 8426SOL     OW25651   6.018   4.531   3.198
 8426SOL    HW125652   6.099   4.538   3.257
 8426SOL    HW225653   5.991   4.435   3.192
 8427SOL     OW25654   5.633   5.298   3.200
 8427SOL    HW125655   5.577   5.355   3.139
 8427SOL    HW225656   5.729   5.314   3.181
 8428SOL     OW25657   5.910   4.882   2.326
 8428SOL    HW125658   5.896   4.957   2.262
 8428SOL    HW225659   5.902   4.795   2.278
 8429SOL     OW25660   6.143   4.284   2.789
 8429SOL    HW125661   6.142   4.327   2.698
 8429SOL    HW225662   6.211   4.329   2.847
 8430SOL     OW25663   5.890   5.333   3.108
 8430SOL    HW125664   5.890   5.257   3.043
 8430SOL    HW225665   5.985   5.359   3.129
 8431SOL     OW25666   6.070   4.414   3.541
 8431SOL    HW125667   6.116   4.468   3.470
 8431SOL    HW225668   6.129   4.338   3.569
 8432SOL     OW25669   6.089   3.788   3.611
 8432SOL    HW125670   6.036   3.729   3.550
 8432SOL    HW225671   6.031   3.863   3.643
 8433SOL     OW25672   6.111   4.630   2.962
 8433SOL    HW125673   6.137   4.727   2.964
 8433SOL    HW225674   6.075   4.604   3.052
 8434SOL     OW25675   5.862   3.953   3.119
 8434SOL    HW125676   5.844   3.971   3.216
 8434SOL    HW225677   5.836   3.858   3.098
 8435SOL     OW25678   5.661   5.034   3.124
 8435SOL    HW125679   5.684   4.976   3.202
 8435SOL    HW225680   5.643   5.127   3.156
 8436SOL     OW25681   6.297   4.424   2.970
 8436SOL    HW125682   6.390   4.459   2.966
 8436SOL    HW225683   6.232   4.499   2.962
 8437SOL     OW25684   5.921   3.781   2.527
 8437SOL    HW125685   5.879   3.870   2.546
 8437SOL    HW225686   5.928   3.729   2.611
 8438SOL     OW25687   0.074   4.500   2.915
 8438SOL    HW125688   0.167   4.526   2.888
 8438SOL    HW225689   0.036   4.438   2.846
 8439SOL     OW25690   6.489   5.416   3.461
 8439SOL    HW125691   6.481   5.388   3.365
 8439SOL    HW225692   0.063   5.365   3.505
 8440SOL     OW25693   5.944   4.625   3.675
 8440SOL    HW125694   6.007   4.656   3.747
 8440SOL    HW225695   5.986   4.549   3.625
 8441SOL     OW25696   5.882   4.556   2.820
 8441SOL    HW125697   5.972   4.584   2.856
 8441SOL    HW225698   5.872   4.458   2.832
 8442SOL     OW25699   5.892   4.279   2.886
 8442SOL    HW125700   5.852   4.189   2.869
 8442SOL    HW225701   5.984   4.282   2.848
 8443SOL     OW25702   5.595   5.000   2.021
 8443SOL    HW125703   5.503   5.028   1.995
 8443SOL    HW225704   5.593   4.907   2.058
 8444SOL     OW25705   5.676   5.491   2.807
 8444SOL    HW125706   5.647   5.405   2.766
 8444SOL    HW225707   5.772   5.509   2.783
 8445SOL     OW25708   6.095   5.301   2.759
 8445SOL    HW125709   6.172   5.350   2.802
 8445SOL    HW225710   6.130   5.242   2.686
 8446SOL     OW25711   5.640   4.338   3.006
 8446SOL    HW125712   5.724   4.325   2.954
 8446SOL    HW225713   5.654   4.308   3.100
 8447SOL     OW25714   5.806   4.340   3.605
 8447SOL    HW125715   5.902   4.355   3.583
 8447SOL    HW225716   5.749   4.396   3.545
 8448SOL     OW25717   6.398   4.254   2.260
 8448SOL    HW125718   6.413   4.189   2.186
 8448SOL    HW225719   6.314   4.305   2.244
 8449SOL     OW25720   5.806   5.258   3.567
 8449SOL    HW125721   5.789   5.332   3.631
 8449SOL    HW225722   5.804   5.170   3.615
 8450SOL     OW25723   6.300   4.169   3.101
 8450SOL    HW125724   6.238   4.092   3.086
 8450SOL    HW225725   6.269   4.248   3.049
 8451SOL     OW25726   6.038   4.194   2.038
 8451SOL    HW125727   6.100   4.263   2.075
 8451SOL    HW225728   5.944   4.229   2.040
 8452SOL     OW25729   5.716   4.861   3.337
 8452SOL    HW125730   5.721   4.829   3.431
 8452SOL    HW225731   5.735   4.785   3.275
 8453SOL     OW25732   5.690   5.006   2.857
 8453SOL    HW125733   5.676   5.019   2.956
 8453SOL    HW225734   5.623   4.940   2.823
 8454SOL     OW25735   6.258   5.404   3.612
 8454SOL    HW125736   6.199   5.484   3.603
 8454SOL    HW225737   6.341   5.417   3.557
 8455SOL     OW25738   6.452   3.790   1.982
 8455SOL    HW125739   0.012   3.718   1.947
 8455SOL    HW225740   6.488   3.824   2.069
 8456SOL     OW25741   5.738   5.484   3.717
 8456SOL    HW125742   5.688   5.412   3.766
 8456SOL    HW225743   5.795   5.535   3.781
 8457SOL     OW25744   6.320   5.009   3.287
 8457SOL    HW125745   6.310   5.053   3.376
 8457SOL    HW225746   6.243   5.033   3.229
 8458SOL     OW25747   6.226   5.339   2.001
 8458SOL    HW125748   6.242   5.363   1.905
 8458SOL    HW225749   6.166   5.259   2.006
 8459SOL     OW25750   5.821   4.029   2.588
 8459SOL    HW125751   5.739   4.077   2.557
 8459SOL    HW225752   5.826   4.033   2.687
 8460SOL     OW25753   6.400   4.743   3.299
 8460SOL    HW125754   6.486   4.735   3.249
 8460SOL    HW225755   6.369   4.838   3.298
 8461SOL     OW25756   5.988   4.977   3.360
 8461SOL    HW125757   6.026   5.025   3.281
 8461SOL    HW225758   5.894   4.947   3.339
 8462SOL     OW25759   6.126   5.202   2.302
 8462SOL    HW125760   6.123   5.143   2.222
 8462SOL    HW225761   6.098   5.295   2.277
 8463SOL     OW25762   5.823   5.079   2.154
 8463SOL    HW125763   5.747   5.048   2.098
 8463SOL    HW225764   5.788   5.134   2.230
 8464SOL     OW25765   5.718   4.761   3.592
 8464SOL    HW125766   5.634   4.732   3.639
 8464SOL    HW225767   5.794   4.705   3.623
 8465SOL     OW25768   6.298   3.916   3.374
 8465SOL    HW125769   6.371   3.888   3.312
 8465SOL    HW225770   6.337   3.935   3.465
 8466SOL     OW25771   5.728   4.078   1.754
 8466SOL    HW125772   5.630   4.074   1.738
 8466SOL    HW225773   5.757   4.174   1.761
 8467SOL     OW25774   5.638   3.870   2.109
 8467SOL    HW125775   5.606   3.932   2.037
 8467SOL    HW225776   5.730   3.837   2.087
 8468SOL     OW25777   6.244   4.526   3.349
 8468SOL    HW125778   6.297   4.610   3.337
 8468SOL    HW225779   6.304   4.447   3.338
 8469SOL     OW25780   6.289   4.246   3.586
 8469SOL    HW125781   6.350   4.318   3.619
 8469SOL    HW225782   6.314   4.160   3.630
 8470SOL     OW25783   5.916   5.484   3.437
 8470SOL    HW125784   5.828   5.530   3.433
 8470SOL    HW225785   5.903   5.388   3.462
 8471SOL     OW25786   6.141   4.428   2.560
 8471SOL    HW125787   6.187   4.516   2.559
 8471SOL    HW225788   6.075   4.424   2.485
 8472SOL     OW25789   6.276   5.484   2.875
 8472SOL    HW125790   6.242   5.574   2.849
 8472SOL    HW225791   6.374   5.479   2.857
 8473SOL     OW25792   5.772   5.010   3.689
 8473SOL    HW125793   5.754   4.923   3.642
 8473SOL    HW225794   5.706   5.022   3.763
 8474SOL     OW25795   5.756   4.976   2.534
 8474SOL    HW125796   5.793   4.930   2.615
 8474SOL    HW225797   5.804   4.943   2.452
 8475SOL     OW25798   6.261   5.133   3.528
 8475SOL    HW125799   6.175   5.095   3.565
 8475SOL    HW225800   6.268   5.229   3.553
 8476SOL     OW25801   5.987   4.136   2.390
 8476SOL    HW125802   6.020   4.068   2.325
 8476SOL    HW225803   5.933   4.092   2.461
 8477SOL     OW25804   5.949   4.269   3.175
 8477SOL    HW125805   6.003   4.201   3.225
 8477SOL    HW225806   5.949   4.246   3.078
 8478SOL     OW25807   0.041   5.426   2.546
 8478SOL    HW125808   6.482   5.500   2.513
 8478SOL    HW225809   0.113   5.408   2.479
 8479SOL     OW25810   6.162   5.382   3.115
 8479SOL    HW125811   6.165   5.455   3.183
 8479SOL    HW225812   6.212   5.409   3.034
 8480SOL     OW25813   5.602   4.743   2.157
 8480SOL    HW125814   5.701   4.730   2.156
 8480SOL    HW225815   5.557   4.655   2.171
 8481SOL     OW25816   5.784   4.371   3.882
 8481SOL    HW125817   5.694   4.339   3.910
 8481SOL    HW225818   5.789   4.373   3.782
 8482SOL     OW25819   5.763   4.026   4.727
 8482SOL    HW125820   5.815   4.002   4.809
 8482SOL    HW225821   5.673   3.982   4.731
 8483SOL     OW25822   5.548   4.163   4.367
 8483SOL    HW125823   5.463   4.183   4.416
 8483SOL    HW225824   5.531   4.091   4.299
 8484SOL     OW25825   6.094   5.092   5.008
 8484SOL    HW125826   6.040   5.094   4.923
 8484SOL    HW225827   6.129   5.183   5.027
 8485SOL     OW25828   6.476   4.446   5.492
 8485SOL    HW125829   0.010   4.466   5.584
 8485SOL    HW225830   0.038   4.485   5.424
 8486SOL     OW25831   6.258   4.646   4.427
 8486SOL    HW125832   6.352   4.679   4.430
 8486SOL    HW225833   6.195   4.724   4.420
 8487SOL     OW25834   6.279   4.853   5.582
 8487SOL    HW125835   6.340   4.823   5.508
 8487SOL    HW225836   6.202   4.904   5.543
 8488SOL     OW25837   5.941   5.158   4.780
 8488SOL    HW125838   5.864   5.112   4.736
 8488SOL    HW225839   5.996   5.205   4.711
 8489SOL     OW25840   6.064   4.077   5.199
 8489SOL    HW125841   6.142   4.016   5.217
 8489SOL    HW225842   5.980   4.031   5.227
 8490SOL     OW25843   5.821   5.464   4.210
 8490SOL    HW125844   5.843   5.535   4.277
 8490SOL    HW225845   5.901   5.446   4.153
 8491SOL     OW25846   5.763   5.192   4.224
 8491SOL    HW125847   5.777   5.289   4.243
 8491SOL    HW225848   5.762   5.141   4.311
 8492SOL     OW25849   5.886   4.821   4.598
 8492SOL    HW125850   5.881   4.723   4.619
 8492SOL    HW225851   5.836   4.873   4.667
 8493SOL     OW25852   6.121   5.593   5.141
 8493SOL    HW125853   6.039   5.561   5.189
 8493SOL    HW225854   6.168   5.660   5.199
 8494SOL     OW25855   6.118   4.697   3.900
 8494SOL    HW125856   6.176   4.743   3.832
 8494SOL    HW225857   6.125   4.746   3.987
 8495SOL     OW25858   5.685   4.409   4.300
 8495SOL    HW125859   5.646   4.321   4.325
 8495SOL    HW225860   5.681   4.471   4.378
 8496SOL     OW25861   5.635   5.280   3.859
 8496SOL    HW125862   5.605   5.187   3.877
 8496SOL    HW225863   5.620   5.337   3.940
 8497SOL     OW25864   5.695   4.512   5.311
 8497SOL    HW125865   5.755   4.581   5.352
 8497SOL    HW225866   5.615   4.557   5.272
 8498SOL     OW25867   6.192   5.118   4.425
 8498SOL    HW125868   6.161   5.023   4.431
 8498SOL    HW225869   6.178   5.152   4.332
 8499SOL     OW25870   6.408   3.816   4.296
 8499SOL    HW125871   6.461   3.828   4.211
 8499SOL    HW225872   6.311   3.803   4.273
 8500SOL     OW25873   5.763   4.641   5.015
 8500SOL    HW125874   5.856   4.608   5.026
 8500SOL    HW225875   5.714   4.583   4.950
 8501SOL     OW25876   5.943   3.992   5.594
 8501SOL    HW125877   5.980   4.072   5.640
 8501SOL    HW225878   5.849   4.011   5.563
 8502SOL     OW25879   6.177   4.431   4.001
 8502SOL    HW125880   6.162   4.521   3.960
 8502SOL    HW225881   6.116   4.419   4.079
 8503SOL     OW25882   6.379   4.301   5.195
 8503SOL    HW125883   6.333   4.276   5.280
 8503SOL    HW225884   6.347   4.242   5.121
 8504SOL     OW25885   5.659   4.592   4.509
 8504SOL    HW125886   5.744   4.567   4.556
 8504SOL    HW225887   5.618   4.671   4.554
 8505SOL     OW25888   5.659   5.621   5.324
 8505SOL    HW125889   5.666   5.576   5.414
 8505SOL    HW225890   5.563   5.622   5.295
 8506SOL     OW25891   6.132   3.877   4.673
 8506SOL    HW125892   6.145   3.892   4.771
 8506SOL    HW225893   6.131   3.965   4.626
 8507SOL     OW25894   5.951   5.541   4.629
 8507SOL    HW125895   6.000   5.454   4.625
 8507SOL    HW225896   6.014   5.613   4.658
 8508SOL     OW25897   5.855   4.628   3.991
 8508SOL    HW125898   5.941   4.648   3.944
 8508SOL    HW225899   5.824   4.537   3.963
 8509SOL     OW25900   6.048   4.987   5.488
 8509SOL    HW125901   6.042   4.965   5.391
 8509SOL    HW225902   5.956   5.006   5.524
 8510SOL     OW25903   5.803   3.975   5.227
 8510SOL    HW125904   5.731   4.044   5.227
 8510SOL    HW225905   5.767   3.888   5.261
 8511SOL     OW25906   6.059   5.449   4.066
 8511SOL    HW125907   6.106   5.518   4.122
 8511SOL    HW225908   6.121   5.418   3.994
 8512SOL     OW25909   5.764   5.574   4.929
 8512SOL    HW125910   5.826   5.500   4.958
 8512SOL    HW225911   5.731   5.555   4.836
 8513SOL     OW25912   5.985   4.388   4.200
 8513SOL    HW125913   5.981   4.291   4.222
 8513SOL    HW225914   5.895   4.429   4.214
 8514SOL     OW25915   6.176   3.809   3.873
 8514SOL    HW125916   6.275   3.793   3.876
 8514SOL    HW225917   6.141   3.783   3.783
 8515SOL     OW25918   6.324   3.997   5.526
 8515SOL    HW125919   6.372   3.921   5.570
 8515SOL    HW225920   6.227   3.993   5.551
 8516SOL     OW25921   6.445   5.184   4.545
 8516SOL    HW125922   6.479   5.264   4.497
 8516SOL    HW225923   6.359   5.153   4.505
 8517SOL     OW25924   0.018   4.246   4.618
 8517SOL    HW125925   6.482   4.181   4.552
 8517SOL    HW225926   0.030   4.201   4.706
 8518SOL     OW25927   6.140   3.805   4.230
 8518SOL    HW125928   6.064   3.798   4.295
 8518SOL    HW225929   6.123   3.881   4.167
 8519SOL     OW25930   5.875   3.773   3.901
 8519SOL    HW125931   5.921   3.850   3.857
 8519SOL    HW225932   5.942   3.721   3.955
 8520SOL     OW25933   6.078   4.859   4.405
 8520SOL    HW125934   6.015   4.846   4.482
 8520SOL    HW225935   6.028   4.851   4.319
 8521SOL     OW25936   5.723   4.311   5.127
 8521SOL    HW125937   5.818   4.291   5.105
 8521SOL    HW225938   5.719   4.386   5.194
 8522SOL     OW25939   6.152   3.919   4.941
 8522SOL    HW125940   6.173   3.839   4.997
 8522SOL    HW225941   6.055   3.942   4.952
 8523SOL     OW25942   6.075   5.093   3.895
 8523SOL    HW125943   5.986   5.077   3.938
 8523SOL    HW225944   6.074   5.054   3.803
 8524SOL     OW25945   6.076   3.993   4.044
 8524SOL    HW125946   6.114   3.928   3.979
 8524SOL    HW225947   6.054   4.079   3.997
 8525SOL     OW25948   0.034   3.818   5.169
 8525SOL    HW125949   0.052   3.769   5.084
 8525SOL    HW225950   0.102   3.890   5.182
 8526SOL     OW25951   6.014   4.531   5.038
 8526SOL    HW125952   6.089   4.546   5.101
 8526SOL    HW225953   5.996   4.433   5.030
 8527SOL     OW25954   5.655   5.293   5.054
 8527SOL    HW125955   5.596   5.349   4.996
 8527SOL    HW225956   5.751   5.318   5.039
 8528SOL     OW25957   5.909   4.833   4.180
 8528SOL    HW125958   5.892   4.910   4.118
 8528SOL    HW225959   5.885   4.747   4.135
 8529SOL     OW25960   6.146   4.225   4.631
 8529SOL    HW125961   6.152   4.272   4.543
 8529SOL    HW225962   6.205   4.270   4.697
 8530SOL     OW25963   5.914   5.350   4.973
 8530SOL    HW125964   5.916   5.280   4.901
 8530SOL    HW225965   6.006   5.359   5.012
 8531SOL     OW25966   6.064   4.424   5.399
 8531SOL    HW125967   6.105   4.478   5.325
 8531SOL    HW225968   6.130   4.355   5.430
 8532SOL     OW25969   6.058   3.765   5.474
 8532SOL    HW125970   6.006   3.713   5.407
 8532SOL    HW225971   6.010   3.850   5.496
 8533SOL     OW25972   6.116   4.609   4.798
 8533SOL    HW125973   6.157   4.701   4.797
 8533SOL    HW225974   6.075   4.592   4.888
 8534SOL     OW25975   5.882   3.952   4.962
 8534SOL    HW125976   5.852   3.974   5.055
 8534SOL    HW225977   5.859   3.857   4.942
 8535SOL     OW25978   5.674   5.031   4.975
 8535SOL    HW125979   5.698   4.969   5.050
 8535SOL    HW225980   5.663   5.123   5.011
 8536SOL     OW25981   6.279   4.384   4.816
 8536SOL    HW125982   6.373   4.418   4.818
 8536SOL    HW225983   6.217   4.461   4.803
 8537SOL     OW25984   5.905   3.798   4.379
 8537SOL    HW125985   5.855   3.882   4.398
 8537SOL    HW225986   5.918   3.746   4.463
 8538SOL     OW25987   0.056   4.473   4.784
 8538SOL    HW125988   0.140   4.516   4.751
 8538SOL    HW225989   0.035   4.392   4.728
 8539SOL     OW25990   6.478   5.408   5.309
 8539SOL    HW125991   6.464   5.375   5.216
 8539SOL    HW225992   0.054   5.358   5.351
 8540SOL     OW25993   5.936   4.628   5.535
 8540SOL    HW125994   5.999   4.662   5.605
 8540SOL    HW225995   5.979   4.553   5.485
 8541SOL     OW25996   5.895   4.540   4.649
 8541SOL    HW125997   5.982   4.568   4.690
 8541SOL    HW225998   5.881   4.442   4.663
 8542SOL     OW25999   5.891   4.267   4.725
 8542SOL    HW126000   5.836   4.183   4.717
 8542SOL    HW226001   5.982   4.251   4.687
 8543SOL     OW26002   5.589   4.998   3.895
 8543SOL    HW126003   5.498   5.030   3.868
 8543SOL    HW226004   5.581   4.905   3.932
 8544SOL     OW26005   5.682   5.487   4.674
 8544SOL    HW126006   5.654   5.402   4.629
 8544SOL    HW226007   5.777   5.508   4.651
 8545SOL     OW26008   6.102   5.307   4.609
 8545SOL    HW126009   6.177   5.370   4.631
 8545SOL    HW226010   6.134   5.240   4.542
 8546SOL     OW26011   5.682   4.395   4.869
 8546SOL    HW126012   5.753   4.357   4.810
 8546SOL    HW226013   5.694   4.362   4.962
 8547SOL     OW26014   5.811   4.320   5.471
 8547SOL    HW126015   5.906   4.335   5.444
 8547SOL    HW226016   5.751   4.379   5.417
 8548SOL     OW26017   6.454   4.356   4.006
 8548SOL    HW126018   6.451   4.257   4.020
 8548SOL    HW226019   6.361   4.392   4.003
 8549SOL     OW26020   5.811   5.275   5.425
 8549SOL    HW126021   5.785   5.349   5.487
 8549SOL    HW226022   5.814   5.189   5.476
 8550SOL     OW26023   6.306   4.154   4.978
 8550SOL    HW126024   6.249   4.073   4.964
 8550SOL    HW226025   6.274   4.227   4.917
 8551SOL     OW26026   6.019   4.219   3.895
 8551SOL    HW126027   6.091   4.284   3.920
 8551SOL    HW226028   5.930   4.265   3.899
 8552SOL     OW26029   5.726   4.852   5.184
 8552SOL    HW126030   5.728   4.820   5.278
 8552SOL    HW226031   5.735   4.774   5.122
 8553SOL     OW26032   5.702   5.013   4.709
 8553SOL    HW126033   5.689   5.022   4.808
 8553SOL    HW226034   5.640   4.943   4.674
 8554SOL     OW26035   6.256   5.401   5.475
 8554SOL    HW126036   6.193   5.479   5.466
 8554SOL    HW226037   6.335   5.415   5.416
 8555SOL     OW26038   6.446   3.800   3.843
 8555SOL    HW126039   6.497   3.718   3.817
 8555SOL    HW226040   6.486   3.840   3.925
 8556SOL     OW26041   5.720   5.501   5.565
 8556SOL    HW126042   5.682   5.429   5.624
 8556SOL    HW226043   5.765   5.570   5.621
 8557SOL     OW26044   6.318   5.010   5.145
 8557SOL    HW126045   6.308   5.056   5.233
 8557SOL    HW226046   6.236   5.025   5.090
 8558SOL     OW26047   6.217   5.328   3.874
 8558SOL    HW126048   6.232   5.354   3.779
 8558SOL    HW226049   6.165   5.242   3.877
 8559SOL     OW26050   5.780   4.032   4.449
 8559SOL    HW126051   5.698   4.081   4.419
 8559SOL    HW226052   5.782   4.029   4.549
 8560SOL     OW26053   6.393   4.745   5.149
 8560SOL    HW126054   6.483   4.734   5.106
 8560SOL    HW226055   6.368   4.841   5.149
 8561SOL     OW26056   5.989   4.955   5.226
 8561SOL    HW126057   6.026   5.004   5.147
 8561SOL    HW226058   5.897   4.922   5.204
 8562SOL     OW26059   6.130   5.192   4.167
 8562SOL    HW126060   6.131   5.138   4.083
 8562SOL    HW226061   6.097   5.284   4.148
 8563SOL     OW26062   5.835   5.041   4.017
 8563SOL    HW126063   5.751   5.023   3.967
 8563SOL    HW226064   5.816   5.104   4.092
 8564SOL     OW26065   5.723   4.772   5.448
 8564SOL    HW126066   5.637   4.747   5.493
 8564SOL    HW226067   5.799   4.723   5.491
 8565SOL     OW26068   6.287   3.908   5.262
 8565SOL    HW126069   6.373   3.880   5.220
 8565SOL    HW226070   6.304   3.942   5.354
 8566SOL     OW26071   5.714   4.084   3.638
 8566SOL    HW126072   5.617   4.075   3.616
 8566SOL    HW226073   5.740   4.181   3.635
 8567SOL     OW26074   5.631   3.878   3.969
 8567SOL    HW126075   5.606   3.944   3.898
 8567SOL    HW226076   5.724   3.845   3.951
 8568SOL     OW26077   6.229   4.537   5.203
 8568SOL    HW126078   6.284   4.620   5.190
 8568SOL    HW226079   6.288   4.457   5.197
 8569SOL     OW26080   6.280   4.263   5.451
 8569SOL    HW126081   6.351   4.329   5.474
 8569SOL    HW226082   6.306   4.173   5.486
 8570SOL     OW26083   5.903   5.499   5.282
 8570SOL    HW126084   5.815   5.547   5.279
 8570SOL    HW226085   5.889   5.405   5.312
 8571SOL     OW26086   6.174   4.384   4.410
 8571SOL    HW126087   6.211   4.476   4.424
 8571SOL    HW226088   6.107   4.385   4.337
 8572SOL     OW26089   6.280   5.514   4.656
 8572SOL    HW126090   6.241   5.606   4.658
 8572SOL    HW226091   6.380   5.520   4.664
 8573SOL     OW26092   5.785   5.024   5.545
 8573SOL    HW126093   5.761   4.942   5.494
 8573SOL    HW226094   5.721   5.034   5.622
 8574SOL     OW26095   5.756   4.953   4.386
 8574SOL    HW126096   5.794   4.914   4.470
 8574SOL    HW226097   5.800   4.911   4.307
 8575SOL     OW26098   6.258   5.137   5.382
 8575SOL    HW126099   6.176   5.095   5.421
 8575SOL    HW226100   6.264   5.232   5.412
 8576SOL     OW26101   5.970   4.130   4.268
 8576SOL    HW126102   5.995   4.062   4.199
 8576SOL    HW226103   5.906   4.089   4.333
 8577SOL     OW26104   5.971   4.263   5.025
 8577SOL    HW126105   6.016   4.197   5.085
 8577SOL    HW226106   5.963   4.224   4.933
 8578SOL     OW26107   0.038   5.422   4.410
 8578SOL    HW126108   6.478   5.494   4.375
 8578SOL    HW226109   0.112   5.406   4.345
 8579SOL     OW26110   6.191   5.346   5.049
 8579SOL    HW126111   6.173   5.438   5.083
 8579SOL    HW226112   6.289   5.332   5.041
 8580SOL     OW26113   5.601   4.744   4.021
 8580SOL    HW126114   5.698   4.724   4.001
 8580SOL    HW226115   5.554   4.659   4.042
 8581SOL     OW26116   5.793   4.368   5.742
 8581SOL    HW126117   5.703   4.330   5.767
 8581SOL    HW226118   5.804   4.364   5.643
 8582SOL     OW26119   5.829   4.007   0.067
 8582SOL    HW126120   5.863   3.959   0.148
 8582SOL    HW226121   5.731   3.991   0.057
 8583SOL     OW26122   5.573   4.166   6.199
 8583SOL    HW126123   5.487   4.199   6.239
 8583SOL    HW226124   5.554   4.089   6.139
 8584SOL     OW26125   6.299   4.889   0.106
 8584SOL    HW126126   6.236   4.957   0.141
 8584SOL    HW226127   6.364   4.932   0.044
 8585SOL     OW26128   6.222   4.677   6.346
 8585SOL    HW126129   6.307   4.730   6.339
 8585SOL    HW226130   6.144   4.736   6.327
 8586SOL     OW26131   5.838   5.444   6.062
 8586SOL    HW126132   5.848   5.528   6.114
 8586SOL    HW226133   5.926   5.419   6.020
 8587SOL     OW26134   5.820   5.167   6.113
 8587SOL    HW126135   5.813   5.267   6.114
 8587SOL    HW226136   5.770   5.129   6.191
 8588SOL     OW26137   5.859   4.804   0.019
 8588SOL    HW126138   5.887   4.753   0.100
 8588SOL    HW226139   5.792   4.874   0.044
 8589SOL     OW26140   6.114   4.706   5.751
 8589SOL    HW126141   6.180   4.744   5.686
 8589SOL    HW226142   6.112   4.763   5.833
 8590SOL     OW26143   5.721   4.414   6.170
 8590SOL    HW126144   5.687   4.322   6.186
 8590SOL    HW226145   5.735   4.459   6.258
 8591SOL     OW26146   5.647   5.290   5.719
 8591SOL    HW126147   5.620   5.195   5.735
 8591SOL    HW226148   5.628   5.345   5.800
 8592SOL     OW26149   6.134   5.080   6.367
 8592SOL    HW126150   6.089   4.995   6.341
 8592SOL    HW226151   6.147   5.137   6.286
 8593SOL     OW26152   6.402   3.678   6.158
 8593SOL    HW126153   6.474   3.715   6.098
 8593SOL    HW226154   6.317   3.726   6.139
 8594SOL     OW26155   6.178   4.433   5.841
 8594SOL    HW126156   6.166   4.523   5.800
 8594SOL    HW226157   6.122   4.425   5.924
 8595SOL     OW26158   5.742   4.559   6.415
 8595SOL    HW126159   5.816   4.623   6.436
 8595SOL    HW226160   5.655   4.609   6.409
 8596SOL     OW26161   6.083   3.949   6.471
 8596SOL    HW126162   5.999   3.990   0.006
 8596SOL    HW226163   6.144   4.021   6.438
 8597SOL     OW26164   5.956   5.575   6.454
 8597SOL    HW126165   6.009   5.490   6.465
 8597SOL    HW226166   6.018   5.653   6.460
 8598SOL     OW26167   5.860   4.620   5.854
 8598SOL    HW126168   5.946   4.645   5.810
 8598SOL    HW226169   5.832   4.529   5.824
 8599SOL     OW26170   6.100   5.416   5.975
 8599SOL    HW126171   6.132   5.506   6.006
 8599SOL    HW226172   6.139   5.396   5.885
 8600SOL     OW26173   6.001   4.406   6.059
 8600SOL    HW126174   6.003   4.306   6.070
 8600SOL    HW226175   5.908   4.439   6.078
 8601SOL     OW26176   6.177   3.796   5.719
 8601SOL    HW126177   6.275   3.779   5.711
 8601SOL    HW226178   6.131   3.770   5.634
 8602SOL     OW26179   6.403   5.103   6.449
 8602SOL    HW126180   6.436   5.174   6.387
 8602SOL    HW226181   6.304   5.092   6.437
 8603SOL     OW26182   6.163   3.802   6.088
 8603SOL    HW126183   6.080   3.801   6.144
 8603SOL    HW226184   6.159   3.878   6.024
 8604SOL     OW26185   5.876   3.774   5.753
 8604SOL    HW126186   5.916   3.851   5.703
 8604SOL    HW226187   5.947   3.728   5.806
 8605SOL     OW26188   6.011   4.843   6.297
 8605SOL    HW126189   5.952   4.833   6.377
 8605SOL    HW226190   5.958   4.831   6.214
 8606SOL     OW26191   6.088   5.077   5.759
 8606SOL    HW126192   6.003   5.061   5.808
 8606SOL    HW226193   6.081   5.042   5.666
 8607SOL     OW26194   6.109   3.990   5.895
 8607SOL    HW126195   6.135   3.919   5.829
 8607SOL    HW226196   6.079   4.072   5.846
 8608SOL     OW26197   5.857   4.813   6.070
 8608SOL    HW126198   5.860   4.889   6.005
 8608SOL    HW226199   5.852   4.727   6.019
 8609SOL     OW26200   6.217   4.191   6.423
 8609SOL    HW126201   6.201   4.269   6.363
 8609SOL    HW226202   6.175   4.208   0.012
 8610SOL     OW26203   5.914   3.802   6.216
 8610SOL    HW126204   5.872   3.891   6.234
 8610SOL    HW226205   5.928   3.754   6.302
 8611SOL     OW26206   5.606   5.006   5.754
 8611SOL    HW126207   5.514   5.037   5.732
 8611SOL    HW226208   5.603   4.908   5.777
 8612SOL     OW26209   5.668   5.577   6.475
 8612SOL    HW126210   5.635   5.488   0.007
 8612SOL    HW226211   5.765   5.571   6.453
 8613SOL     OW26212   6.446   4.338   5.800
 8613SOL    HW126213   6.449   4.247   5.841
 8613SOL    HW226214   6.355   4.377   5.813
 8614SOL     OW26215   6.026   4.212   5.749
 8614SOL    HW126216   6.099   4.278   5.766
 8614SOL    HW226217   5.937   4.257   5.759
 8615SOL     OW26218   6.442   3.793   5.662
 8615SOL    HW126219   6.499   3.715   5.634
 8615SOL    HW226220   6.489   3.844   5.735
 8616SOL     OW26221   6.216   5.321   5.739
 8616SOL    HW126222   6.222   5.347   5.643
 8616SOL    HW226223   6.170   5.233   5.746
 8617SOL     OW26224   5.811   4.046   6.287
 8617SOL    HW126225   5.724   4.089   6.261
 8617SOL    HW226226   5.820   4.046   6.386
 8618SOL     OW26227   6.189   5.204   6.123
 8618SOL    HW126228   6.184   5.128   6.058
 8618SOL    HW226229   6.152   5.287   6.081
 8619SOL     OW26230   5.851   5.023   5.891
 8619SOL    HW126231   5.765   5.025   5.840
 8619SOL    HW226232   5.845   5.084   5.970
 8620SOL     OW26233   5.687   4.077   5.534
 8620SOL    HW126234   5.603   4.067   5.481
 8620SOL    HW226235   5.728   4.166   5.514
 8621SOL     OW26236   5.631   3.888   5.804
 8621SOL    HW126237   5.614   3.950   5.728
 8621SOL    HW226238   5.723   3.849   5.796
 8622SOL     OW26239   6.175   4.416   6.277
 8622SOL    HW126240   6.196   4.511   6.300
 8622SOL    HW226241   6.115   4.414   6.197
 8623SOL     OW26242   6.237   5.519   0.048
 8623SOL    HW126243   6.206   5.612   0.026
 8623SOL    HW226244   6.335   5.512   0.034
 8624SOL     OW26245   5.687   4.946   6.256
 8624SOL    HW126246   5.647   4.878   6.318
 8624SOL    HW226247   5.747   4.900   6.191
 8625SOL     OW26248   5.994   4.143   6.099
 8625SOL    HW126249   6.031   4.072   6.040
 8625SOL    HW226250   5.934   4.101   6.168
 8626SOL     OW26251   6.416   5.304   6.260
 8626SOL    HW126252   6.426   5.400   6.234
 8626SOL    HW226253   6.341   5.263   6.208
 8627SOL     OW26254   5.610   4.741   5.856
 8627SOL    HW126255   5.708   4.723   5.847
 8627SOL    HW226256   5.561   4.655   5.868
 8628SOL     OW26257   5.807   6.160   0.111
 8628SOL    HW126258   5.722   6.174   0.160
 8628SOL    HW226259   5.811   6.066   0.076
 8629SOL     OW26260   5.755   5.910   1.024
 8629SOL    HW126261   5.799   5.873   1.106
 8629SOL    HW226262   5.683   5.848   0.994
 8630SOL     OW26263   5.531   5.950   0.667
 8630SOL    HW126264   5.446   5.967   0.718
 8630SOL    HW226265   5.514   5.880   0.598
 8631SOL     OW26266   6.417   6.316   1.822
 8631SOL    HW126267   6.421   6.370   1.906
 8631SOL    HW226268   6.474   6.358   1.752
 8632SOL     OW26269   6.257   0.051   0.748
 8632SOL    HW126270   6.283   0.074   0.842
 8632SOL    HW226271   6.185   0.112   0.717
 8633SOL     OW26272   6.053   5.963   1.465
 8633SOL    HW126273   6.137   5.909   1.472
 8633SOL    HW226274   5.975   5.907   1.492
 8634SOL     OW26275   5.619   6.207   0.616
 8634SOL    HW126276   5.590   6.112   0.628
 8634SOL    HW226277   5.626   6.251   0.706
 8635SOL     OW26278   5.774   6.336   1.596
 8635SOL    HW126279   5.874   6.337   1.602
 8635SOL    HW226280   5.738   6.425   1.625
 8636SOL     OW26281   6.418   5.646   0.568
 8636SOL    HW126282   6.480   5.662   0.491
 8636SOL    HW226283   6.324   5.665   0.539
 8637SOL     OW26284   5.927   5.865   1.917
 8637SOL    HW126285   5.966   5.945   1.964
 8637SOL    HW226286   5.829   5.880   1.902
 8638SOL     OW26287   6.180   6.308   0.289
 8638SOL    HW126288   6.183   6.391   0.234
 8638SOL    HW226289   6.119   6.321   0.367
 8639SOL     OW26290   6.372   6.179   1.463
 8639SOL    HW126291   6.322   6.153   1.546
 8639SOL    HW226292   6.339   6.124   1.386
 8640SOL     OW26293   5.612   6.400   0.831
 8640SOL    HW126294   5.690   6.373   0.887
 8640SOL    HW226295   5.644   6.445   0.748
 8641SOL     OW26296   6.093   5.790   0.924
 8641SOL    HW126297   6.116   5.795   1.021
 8641SOL    HW226298   6.123   5.874   0.878
 8642SOL     OW26299   5.803   5.849   1.519
 8642SOL    HW126300   5.750   5.930   1.542
 8642SOL    HW226301   5.758   5.768   1.555
 8643SOL     OW26302   5.991   6.322   0.509
 8643SOL    HW126303   5.968   6.224   0.510
 8643SOL    HW226304   5.921   6.373   0.559
 8644SOL     OW26305   6.329   5.832   1.774
 8644SOL    HW126306   6.374   5.778   1.845
 8644SOL    HW226307   6.236   5.797   1.760
 8645SOL     OW26308   0.004   6.049   0.896
 8645SOL    HW126309   6.496   5.985   0.819
 8645SOL    HW226310   0.023   5.998   0.980
 8646SOL     OW26311   6.165   5.715   0.489
 8646SOL    HW126312   6.083   5.725   0.546
 8646SOL    HW226313   6.161   5.779   0.413
 8647SOL     OW26314   5.894   5.681   0.202
 8647SOL    HW126315   5.899   5.637   0.112
 8647SOL    HW226316   5.950   5.630   0.267
 8648SOL     OW26317   6.063   0.226   0.664
 8648SOL    HW126318   5.972   0.242   0.702
 8648SOL    HW226319   6.055   0.171   0.581
 8649SOL     OW26320   5.696   6.145   1.402
 8649SOL    HW126321   5.787   6.140   1.361
 8649SOL    HW226322   5.694   6.219   1.469
 8650SOL     OW26323   6.130   5.810   1.195
 8650SOL    HW126324   6.163   5.729   1.244
 8650SOL    HW226325   6.032   5.822   1.214
 8651SOL     OW26326   6.184   5.865   0.256
 8651SOL    HW126327   6.279   5.845   0.230
 8651SOL    HW226328   6.160   5.957   0.224
 8652SOL     OW26329   6.496   5.689   1.356
 8652SOL    HW126330   0.025   5.617   1.294
 8652SOL    HW226331   0.075   5.742   1.386
 8653SOL     OW26332   6.317   0.216   0.269
 8653SOL    HW126333   6.324   0.177   0.361
 8653SOL    HW226334   6.402   0.265   0.247
 8654SOL     OW26335   6.006   6.416   1.282
 8654SOL    HW126336   6.085   6.419   1.344
 8654SOL    HW226337   5.968   6.323   1.281
 8655SOL     OW26338   6.169   6.061   0.861
 8655SOL    HW126339   6.170   6.124   0.784
 8655SOL    HW226340   6.228   6.096   0.934
 8656SOL     OW26341   6.049   6.311   1.641
 8656SOL    HW126342   6.100   6.356   1.568
 8656SOL    HW226343   6.103   6.235   1.678
 8657SOL     OW26344   6.081   5.708   1.755
 8657SOL    HW126345   6.033   5.649   1.690
 8657SOL    HW226346   6.016   5.769   1.799
 8658SOL     OW26347   6.105   6.462   1.029
 8658SOL    HW126348   6.137   0.055   1.010
 8658SOL    HW226349   6.072   6.457   1.123
 8659SOL     OW26350   5.860   5.799   1.251
 8659SOL    HW126351   5.836   5.825   1.344
 8659SOL    HW226352   5.847   5.701   1.239
 8660SOL     OW26353   6.270   6.237   1.061
 8660SOL    HW126354   6.364   6.268   1.043
 8660SOL    HW226355   6.206   6.311   1.042
 8661SOL     OW26356   5.926   5.698   0.643
 8661SOL    HW126357   5.879   5.782   0.670
 8661SOL    HW226358   5.948   5.644   0.724
 8662SOL     OW26359   0.037   6.294   0.998
 8662SOL    HW126360   0.127   6.325   0.967
 8662SOL    HW226361   0.019   6.202   0.962
 8663SOL     OW26362   5.876   6.355   0.922
 8663SOL    HW126363   5.956   6.408   0.951
 8663SOL    HW226364   5.886   6.260   0.950
 8664SOL     OW26365   5.946   6.105   1.015
 8664SOL    HW126366   5.880   6.030   1.009
 8664SOL    HW226367   6.024   6.085   0.957
 8665SOL     OW26368   5.588   6.117   1.144
 8665SOL    HW126369   5.645   6.053   1.091
 8665SOL    HW226370   5.634   6.137   1.230
 8666SOL     OW26371   5.807   6.102   1.731
 8666SOL    HW126372   5.899   6.074   1.702
 8666SOL    HW226373   5.781   6.185   1.683
 8667SOL     OW26374   6.411   6.156   0.325
 8667SOL    HW126375   6.432   6.113   0.237
 8667SOL    HW226376   6.329   6.212   0.317
 8668SOL     OW26377   6.300   6.032   1.242
 8668SOL    HW126378   6.239   5.954   1.227
 8668SOL    HW226379   6.280   6.104   1.176
 8669SOL     OW26380   6.089   6.102   0.139
 8669SOL    HW126381   6.130   6.177   0.192
 8669SOL    HW226382   5.992   6.121   0.125
 8670SOL     OW26383   6.440   5.772   0.176
 8670SOL    HW126384   6.455   5.694   0.116
 8670SOL    HW226385   6.496   5.762   0.258
 8671SOL     OW26386   5.794   5.921   0.736
 8671SOL    HW126387   5.698   5.932   0.709
 8671SOL    HW226388   5.800   5.919   0.836
 8672SOL     OW26389   5.698   0.089   1.701
 8672SOL    HW126390   5.615   0.074   1.754
 8672SOL    HW226391   5.769   0.129   1.759
 8673SOL     OW26392   6.286   5.796   1.496
 8673SOL    HW126393   6.362   5.765   1.439
 8673SOL    HW226394   6.319   5.813   1.589
 8674SOL     OW26395   5.639   5.725   0.285
 8674SOL    HW126396   5.596   5.766   0.204
 8674SOL    HW226397   5.737   5.716   0.269
 8675SOL     OW26398   6.216   6.419   1.453
 8675SOL    HW126399   6.254   0.010   1.470
 8675SOL    HW226400   6.290   6.352   1.447
 8676SOL     OW26401   6.256   6.123   1.713
 8676SOL    HW126402   6.311   6.190   1.762
 8676SOL    HW226403   6.274   6.032   1.749
 8677SOL     OW26404   6.195   6.283   0.695
 8677SOL    HW126405   6.224   6.375   0.722
 8677SOL    HW226406   6.126   6.289   0.623
 8678SOL     OW26407   5.940   6.056   0.535
 8678SOL    HW126408   5.946   5.987   0.462
 8678SOL    HW226409   5.891   6.017   0.613
 8679SOL     OW26410   5.942   6.146   1.289
 8679SOL    HW126411   5.996   6.083   1.345
 8679SOL    HW226412   5.957   6.126   1.192
 8680SOL     OW26413   5.788   6.192   1.998
 8680SOL    HW126414   5.693   6.190   2.030
 8680SOL    HW226415   5.790   6.172   1.900
 8681SOL     OW26416   5.763   5.901   2.878
 8681SOL    HW126417   5.807   5.871   2.962
 8681SOL    HW226418   5.681   5.846   2.862
 8682SOL     OW26419   5.544   5.969   2.499
 8682SOL    HW126420   5.456   5.985   2.542
 8682SOL    HW226421   5.532   5.911   2.418
 8683SOL     OW26422   6.421   6.323   3.693
 8683SOL    HW126423   6.425   6.381   3.775
 8683SOL    HW226424   6.477   6.365   3.620
 8684SOL     OW26425   6.296   6.493   2.549
 8684SOL    HW126426   6.294   0.044   2.635
 8684SOL    HW226427   6.224   0.026   2.489
 8685SOL     OW26428   6.018   5.978   3.348
 8685SOL    HW126429   6.102   5.926   3.366
 8685SOL    HW226430   5.939   5.919   3.366
 8686SOL     OW26431   5.627   6.234   2.463
 8686SOL    HW126432   5.609   6.136   2.467
 8686SOL    HW226433   5.621   6.273   2.555
 8687SOL     OW26434   5.780   6.341   3.458
 8687SOL    HW126435   5.880   6.341   3.469
 8687SOL    HW226436   5.745   6.432   3.482
 8688SOL     OW26437   6.412   5.643   2.430
 8688SOL    HW126438   6.462   5.656   2.344
 8688SOL    HW226439   6.314   5.638   2.411
 8689SOL     OW26440   5.961   5.850   3.754
 8689SOL    HW126441   5.992   5.932   3.803
 8689SOL    HW226442   5.862   5.857   3.738
 8690SOL     OW26443   6.199   6.257   2.213
 8690SOL    HW126444   6.265   6.330   2.229
 8690SOL    HW226445   6.118   6.272   2.270
 8691SOL     OW26446   6.371   6.195   3.331
 8691SOL    HW126447   6.325   6.168   3.416
 8691SOL    HW226448   6.338   6.138   3.256
 8692SOL     OW26449   5.611   6.408   2.687
 8692SOL    HW126450   5.699   6.380   2.726
 8692SOL    HW226451   5.627   6.470   2.611
 8693SOL     OW26452   6.150   5.734   2.823
 8693SOL    HW126453   6.153   5.761   2.919
 8693SOL    HW226454   6.163   5.814   2.765
 8694SOL     OW26455   5.785   5.835   3.374
 8694SOL    HW126456   5.707   5.897   3.368
 8694SOL    HW226457   5.756   5.750   3.417
 8695SOL     OW26458   5.982   6.277   2.377
 8695SOL    HW126459   5.953   6.181   2.379
 8695SOL    HW226460   5.907   6.335   2.409
 8696SOL     OW26461   6.176   5.682   2.015
 8696SOL    HW126462   6.274   5.663   2.009
 8696SOL    HW226463   6.135   5.675   1.924
 8697SOL     OW26464   6.309   5.864   3.678
 8697SOL    HW126465   6.358   5.789   3.723
 8697SOL    HW226466   6.214   5.864   3.710
 8698SOL     OW26467   0.004   6.037   2.755
 8698SOL    HW126468   6.485   5.982   2.674
 8698SOL    HW226469   0.021   5.978   2.833
 8699SOL     OW26470   6.145   5.659   2.368
 8699SOL    HW126471   6.068   5.655   2.431
 8699SOL    HW226472   6.139   5.743   2.313
 8700SOL     OW26473   5.880   5.616   2.040
 8700SOL    HW126474   5.924   5.699   2.007
 8700SOL    HW226475   5.946   5.560   2.089
 8701SOL     OW26476   6.064   0.267   2.584
 8701SOL    HW126477   5.965   0.274   2.600
 8701SOL    HW226478   6.082   0.197   2.514
 8702SOL     OW26479   5.695   6.169   3.254
 8702SOL    HW126480   5.784   6.158   3.211
 8702SOL    HW226481   5.701   6.237   3.327
 8703SOL     OW26482   6.145   5.808   3.086
 8703SOL    HW126483   6.180   5.738   3.148
 8703SOL    HW226484   6.046   5.816   3.096
 8704SOL     OW26485   6.131   5.874   2.199
 8704SOL    HW126486   6.147   5.803   2.131
 8704SOL    HW226487   6.092   5.955   2.155
 8705SOL     OW26488   6.435   5.720   3.242
 8705SOL    HW126489   6.446   5.623   3.220
 8705SOL    HW226490   0.016   5.770   3.211
 8706SOL     OW26491   6.376   0.306   2.312
 8706SOL    HW126492   6.310   0.232   2.324
 8706SOL    HW226493   6.464   0.269   2.285
 8707SOL     OW26494   6.011   6.411   3.126
 8707SOL    HW126495   6.084   6.417   3.195
 8707SOL    HW226496   5.971   6.319   3.128
 8708SOL     OW26497   6.184   6.016   2.732
 8708SOL    HW126498   6.184   6.072   2.649
 8708SOL    HW226499   6.241   6.060   2.801
 8709SOL     OW26500   6.052   6.323   3.508
 8709SOL    HW126501   6.102   6.365   3.432
 8709SOL    HW226502   6.106   6.246   3.544
 8710SOL     OW26503   6.066   5.618   3.627
 8710SOL    HW126504   6.009   5.568   3.563
 8710SOL    HW226505   6.023   5.706   3.650
 8711SOL     OW26506   6.105   6.432   2.869
 8711SOL    HW126507   6.152   0.017   2.843
 8711SOL    HW226508   6.076   6.438   2.964
 8712SOL     OW26509   5.873   5.805   3.111
 8712SOL    HW126510   5.847   5.829   3.205
 8712SOL    HW226511   5.841   5.713   3.090
 8713SOL     OW26512   6.277   6.217   2.913
 8713SOL    HW126513   6.368   6.253   2.893
 8713SOL    HW226514   6.208   6.287   2.890
 8714SOL     OW26515   5.916   5.655   2.523
 8714SOL    HW126516   5.868   5.741   2.541
 8714SOL    HW226517   5.929   5.606   2.609
 8715SOL     OW26518   0.042   6.286   2.845
 8715SOL    HW126519   0.133   6.315   2.814
 8715SOL    HW226520   0.023   6.194   2.811
 8716SOL     OW26521   5.876   6.343   2.753
 8716SOL    HW126522   5.956   6.391   2.789
 8716SOL    HW226523   5.880   6.247   2.778
 8717SOL     OW26524   5.950   6.094   2.858
 8717SOL    HW126525   5.883   6.020   2.855
 8717SOL    HW226526   6.033   6.066   2.809
 8718SOL     OW26527   5.584   6.134   3.001
 8718SOL    HW126528   5.650   6.081   2.948
 8718SOL    HW226529   5.624   6.161   3.088
 8719SOL     OW26530   5.819   6.104   3.590
 8719SOL    HW126531   5.899   6.069   3.541
 8719SOL    HW226532   5.788   6.188   3.547
 8720SOL     OW26533   6.351   6.036   2.290
 8720SOL    HW126534   6.294   5.959   2.261
 8720SOL    HW226535   6.302   6.122   2.273
 8721SOL     OW26536   6.299   6.040   3.118
 8721SOL    HW126537   6.242   5.958   3.107
 8721SOL    HW226538   6.280   6.103   3.044
 8722SOL     OW26539   6.031   6.087   2.062
 8722SOL    HW126540   6.098   6.153   2.096
 8722SOL    HW226541   5.943   6.132   2.050
 8723SOL     OW26542   6.442   5.669   1.969
 8723SOL    HW126543   6.491   5.588   1.938
 8723SOL    HW226544   6.480   5.700   2.056
 8724SOL     OW26545   5.788   5.887   2.594
 8724SOL    HW126546   5.700   5.917   2.558
 8724SOL    HW226547   5.789   5.895   2.693
 8725SOL     OW26548   6.472   6.486   2.034
 8725SOL    HW126549   0.070   6.498   2.025
 8725SOL    HW226550   6.448   6.476   2.131
 8726SOL     OW26551   5.711   0.097   3.544
 8726SOL    HW126552   5.621   0.092   3.587
 8726SOL    HW226553   5.776   0.141   3.606
 8727SOL     OW26554   6.240   5.814   3.407
 8727SOL    HW126555   6.316   5.790   3.347
 8727SOL    HW226556   6.274   5.829   3.500
 8728SOL     OW26557   5.656   5.910   1.851
 8728SOL    HW126558   5.567   5.903   1.807
 8728SOL    HW226559   5.707   5.986   1.811
 8729SOL     OW26560   5.637   5.735   2.078
 8729SOL    HW126561   5.625   5.799   2.002
 8729SOL    HW226562   5.728   5.693   2.071
 8730SOL     OW26563   6.209   6.426   3.310
 8730SOL    HW126564   6.244   0.019   3.322
 8730SOL    HW226565   6.285   6.362   3.309
 8731SOL     OW26566   6.260   6.136   3.580
 8731SOL    HW126567   6.314   6.204   3.630
 8731SOL    HW226568   6.278   6.045   3.617
 8732SOL     OW26569   6.195   6.225   2.548
 8732SOL    HW126570   6.240   6.313   2.564
 8732SOL    HW226571   6.115   6.238   2.489
 8733SOL     OW26572   5.944   6.010   2.396
 8733SOL    HW126573   5.997   5.944   2.343
 8733SOL    HW226574   5.893   5.962   2.467
 8734SOL     OW26575   5.937   6.146   3.135
 8734SOL    HW126576   5.984   6.084   3.199
 8734SOL    HW226577   5.957   6.119   3.041
 8735SOL     OW26578   5.801   6.178   3.861
 8735SOL    HW126579   5.707   6.178   3.895
 8735SOL    HW226580   5.801   6.165   3.762
 8736SOL     OW26581   5.765   5.882   4.725
 8736SOL    HW126582   5.806   5.865   4.815
 8736SOL    HW226583   5.678   5.834   4.719
 8737SOL     OW26584   5.546   5.973   4.359
 8737SOL    HW126585   5.457   5.986   4.403
 8737SOL    HW226586   5.536   5.910   4.282
 8738SOL     OW26587   6.409   6.348   5.577
 8738SOL    HW126588   6.416   6.378   5.672
 8738SOL    HW226589   6.472   6.401   5.520
 8739SOL     OW26590   6.290   6.495   4.403
 8739SOL    HW126591   6.287   0.048   4.487
 8739SOL    HW226592   6.217   0.027   4.341
 8740SOL     OW26593   6.027   5.946   5.286
 8740SOL    HW126594   6.114   5.908   5.255
 8740SOL    HW226595   5.952   5.900   5.239
 8741SOL     OW26596   5.641   6.234   4.324
 8741SOL    HW126597   5.616   6.137   4.326
 8741SOL    HW226598   5.629   6.274   4.415
 8742SOL     OW26599   5.793   6.339   5.314
 8742SOL    HW126600   5.890   6.337   5.339
 8742SOL    HW226601   5.753   6.426   5.341
 8743SOL     OW26602   6.410   5.638   4.290
 8743SOL    HW126603   6.457   5.652   4.203
 8743SOL    HW226604   6.312   5.632   4.274
 8744SOL     OW26605   6.024   5.873   5.549
 8744SOL    HW126606   6.029   5.946   5.618
 8744SOL    HW226607   6.012   5.913   5.459
 8745SOL     OW26608   6.198   6.251   4.073
 8745SOL    HW126609   6.262   6.326   4.087
 8745SOL    HW226610   6.115   6.267   4.125
 8746SOL     OW26611   6.363   6.184   5.198
 8746SOL    HW126612   6.326   6.167   5.289
 8746SOL    HW226613   6.306   6.139   5.130
 8747SOL     OW26614   5.604   6.416   4.539
 8747SOL    HW126615   5.692   6.393   4.583
 8747SOL    HW226616   5.621   6.475   4.460
 8748SOL     OW26617   6.141   5.756   4.679
 8748SOL    HW126618   6.143   5.771   4.777
 8748SOL    HW226619   6.148   5.844   4.631
 8749SOL     OW26620   5.772   5.853   5.231
 8749SOL    HW126621   5.749   5.929   5.291
 8749SOL    HW226622   5.728   5.769   5.265
 8750SOL     OW26623   5.977   6.274   4.232
 8750SOL    HW126624   5.952   6.177   4.234
 8750SOL    HW226625   5.896   6.329   4.256
 8751SOL     OW26626   6.182   5.666   3.874
 8751SOL    HW126627   6.280   5.651   3.867
 8751SOL    HW226628   6.137   5.632   3.792
 8752SOL     OW26629   6.302   5.851   5.533
 8752SOL    HW126630   6.333   5.770   5.582
 8752SOL    HW226631   6.203   5.860   5.542
 8753SOL     OW26632   6.494   6.039   4.612
 8753SOL    HW126633   6.474   5.982   4.532
 8753SOL    HW226634   6.485   5.985   4.695
 8754SOL     OW26635   6.143   5.653   4.231
 8754SOL    HW126636   6.066   5.653   4.295
 8754SOL    HW226637   6.139   5.736   4.175
 8755SOL     OW26638   5.889   5.615   3.908
 8755SOL    HW126639   5.943   5.691   3.871
 8755SOL    HW226640   5.949   5.555   3.961
 8756SOL     OW26641   6.057   0.266   4.434
 8756SOL    HW126642   5.959   0.274   4.453
 8756SOL    HW226643   6.072   0.196   4.364
 8757SOL     OW26644   5.720   6.182   5.093
 8757SOL    HW126645   5.811   6.165   5.053
 8757SOL    HW226646   5.729   6.244   5.170
 8758SOL     OW26647   6.128   5.800   4.949
 8758SOL    HW126648   6.149   5.720   5.005
 8758SOL    HW226649   6.030   5.819   4.954
 8759SOL     OW26650   6.137   5.863   4.057
 8759SOL    HW126651   6.153   5.790   3.990
 8759SOL    HW226652   6.099   5.943   4.010
 8760SOL     OW26653   6.470   5.748   5.070
 8760SOL    HW126654   6.475   5.659   5.024
 8760SOL    HW226655   0.058   5.766   5.115
 8761SOL     OW26656   6.380   0.312   4.169
 8761SOL    HW126657   6.313   0.239   4.180
 8761SOL    HW226658   6.469   0.273   4.144
 8762SOL     OW26659   6.023   6.427   4.991
 8762SOL    HW126660   6.090   6.431   5.064
 8762SOL    HW226661   5.986   6.335   4.984
 8763SOL     OW26662   6.161   6.034   4.602
 8763SOL    HW126663   6.168   6.087   4.517
 8763SOL    HW226664   6.219   6.076   4.672
 8764SOL     OW26665   6.058   6.327   5.389
 8764SOL    HW126666   6.106   6.370   5.313
 8764SOL    HW226667   6.113   6.253   5.426
 8765SOL     OW26668   6.067   5.607   5.472
 8765SOL    HW126669   6.002   5.567   5.408
 8765SOL    HW226670   6.045   5.703   5.487
 8766SOL     OW26671   6.107   6.433   4.729
 8766SOL    HW126672   6.152   0.016   4.695
 8766SOL    HW226673   6.081   6.446   4.825
 8767SOL     OW26674   5.859   5.821   4.974
 8767SOL    HW126675   5.822   5.851   5.062
 8767SOL    HW226676   5.831   5.726   4.957
 8768SOL     OW26677   6.276   6.219   4.781
 8768SOL    HW126678   6.369   6.248   4.761
 8768SOL    HW226679   6.212   6.291   4.755
 8769SOL     OW26680   5.914   5.655   4.384
 8769SOL    HW126681   5.866   5.742   4.400
 8769SOL    HW226682   5.928   5.609   4.472
 8770SOL     OW26683   0.041   6.284   4.706
 8770SOL    HW126684   0.132   6.313   4.675
 8770SOL    HW226685   0.020   6.194   4.669
 8771SOL     OW26686   5.872   6.359   4.605
 8771SOL    HW126687   5.954   6.402   4.645
 8771SOL    HW226688   5.874   6.261   4.623
 8772SOL     OW26689   5.911   6.103   4.695
 8772SOL    HW126690   5.854   6.021   4.700
 8772SOL    HW226691   5.999   6.081   4.654
 8773SOL     OW26692   5.628   6.201   4.829
 8773SOL    HW126693   5.705   6.173   4.772
 8773SOL    HW226694   5.657   6.203   4.925
 8774SOL     OW26695   5.809   6.078   5.401
 8774SOL    HW126696   5.897   6.054   5.358
 8774SOL    HW226697   5.785   6.171   5.376
 8775SOL     OW26698   6.349   6.031   4.150
 8775SOL    HW126699   6.293   5.954   4.121
 8775SOL    HW226700   6.300   6.116   4.133
 8776SOL     OW26701   6.215   6.063   5.000
 8776SOL    HW126702   6.204   5.965   4.979
 8776SOL    HW226703   6.247   6.110   4.918
 8777SOL     OW26704   6.046   6.074   3.911
 8777SOL    HW126705   6.109   6.142   3.949
 8777SOL    HW226706   5.955   6.115   3.901
 8778SOL     OW26707   6.447   5.667   3.819
 8778SOL    HW126708   6.496   5.584   3.793
 8778SOL    HW226709   6.481   5.701   3.907
 8779SOL     OW26710   5.790   5.889   4.448
 8779SOL    HW126711   5.701   5.921   4.415
 8779SOL    HW226712   5.790   5.887   4.548
 8780SOL     OW26713   6.469   6.498   3.898
 8780SOL    HW126714   0.068   0.010   3.890
 8780SOL    HW226715   6.445   6.485   3.995
 8781SOL     OW26716   5.722   0.097   5.409
 8781SOL    HW126717   5.636   0.083   5.459
 8781SOL    HW226718   5.788   0.144   5.467
 8782SOL     OW26719   6.264   5.800   5.254
 8782SOL    HW126720   6.339   5.792   5.189
 8782SOL    HW226721   6.300   5.817   5.345
 8783SOL     OW26722   5.685   5.899   3.712
 8783SOL    HW126723   5.594   5.893   3.673
 8783SOL    HW226724   5.733   5.978   3.673
 8784SOL     OW26725   5.648   5.732   3.945
 8784SOL    HW126726   5.639   5.799   3.871
 8784SOL    HW226727   5.739   5.691   3.942
 8785SOL     OW26728   6.210   6.429   5.187
 8785SOL    HW126729   6.245   0.020   5.213
 8785SOL    HW226730   6.287   6.365   5.180
 8786SOL     OW26731   6.270   6.147   5.456
 8786SOL    HW126732   6.318   6.218   5.508
 8786SOL    HW226733   6.283   6.059   5.501
 8787SOL     OW26734   6.185   6.232   4.411
 8787SOL    HW126735   6.231   6.320   4.422
 8787SOL    HW226736   6.107   6.243   4.348
 8788SOL     OW26737   5.949   6.007   4.252
 8788SOL    HW126738   6.001   5.938   4.202
 8788SOL    HW226739   5.896   5.962   4.324
 8789SOL     OW26740   5.959   6.161   4.962
 8789SOL    HW126741   6.046   6.123   4.992
 8789SOL    HW226742   5.945   6.141   4.866
 8790SOL     OW26743   5.798   6.096   5.678
 8790SOL    HW126744   5.711   6.129   5.714
 8790SOL    HW226745   5.791   6.088   5.578
 8791SOL     OW26746   5.807   5.899   0.037
 8791SOL    HW126747   5.856   5.837   0.099
 8791SOL    HW226748   5.710   5.876   0.038
 8792SOL     OW26749   5.557   6.015   6.190
 8792SOL    HW126750   5.474   6.059   6.226
 8792SOL    HW226751   5.531   5.931   6.142
 8793SOL     OW26752   6.403   0.087   6.275
 8793SOL    HW126753   6.469   0.105   6.347
 8793SOL    HW226754   6.310   0.095   6.311
 8794SOL     OW26755   5.694   6.260   6.156
 8794SOL    HW126756   5.655   6.168   6.157
 8794SOL    HW226757   5.699   6.294   6.250
 8795SOL     OW26758   6.413   5.566   6.171
 8795SOL    HW126759   6.474   5.590   6.096
 8795SOL    HW226760   6.321   5.602   6.151
 8796SOL     OW26761   6.190   6.267   5.873
 8796SOL    HW126762   6.247   6.348   5.859
 8796SOL    HW226763   6.119   6.288   5.941
 8797SOL     OW26764   5.719   6.339   6.415
 8797SOL    HW126765   5.760   6.278   6.483
 8797SOL    HW226766   5.778   6.419   6.402
 8798SOL     OW26767   6.135   5.776   6.495
 8798SOL    HW126768   6.134   5.803   0.091
 8798SOL    HW226769   6.165   5.853   6.439
 8799SOL     OW26770   5.982   6.295   6.075
 8799SOL    HW126771   5.993   6.196   6.076
 8799SOL    HW226772   5.886   6.318   6.091
 8800SOL     OW26773   6.130   5.633   5.740
 8800SOL    HW126774   6.230   5.623   5.740
 8800SOL    HW226775   6.095   5.607   5.650
 8801SOL     OW26776   6.161   5.662   6.093
 8801SOL    HW126777   6.074   5.661   6.142
 8801SOL    HW226778   6.163   5.739   6.029
 8802SOL     OW26779   5.851   5.702   5.711
 8802SOL    HW126780   5.884   5.777   5.655
 8802SOL    HW226781   5.928   5.662   5.762
 8803SOL     OW26782   6.143   0.135   6.361
 8803SOL    HW126783   6.149   0.235   6.368
 8803SOL    HW226784   6.123   0.110   6.266
 8804SOL     OW26785   6.124   5.854   5.901
 8804SOL    HW126786   6.125   5.774   5.841
 8804SOL    HW226787   6.104   5.936   5.846
 8805SOL     OW26788   6.413   0.311   5.998
 8805SOL    HW126789   6.366   0.244   6.056
 8805SOL    HW226790   6.476   0.263   5.937
 8806SOL     OW26791   6.226   6.038   6.405
 8806SOL    HW126792   6.214   6.109   6.336
 8806SOL    HW226793   6.179   6.065   6.489
 8807SOL     OW26794   5.906   5.669   6.203
 8807SOL    HW126795   5.865   5.759   6.210
 8807SOL    HW226796   5.916   5.629   6.295
 8808SOL     OW26797   6.432   6.118   5.841
 8808SOL    HW126798   6.425   6.023   5.871
 8808SOL    HW226799   6.345   6.165   5.856
 8809SOL     OW26800   6.058   6.066   5.741
 8809SOL    HW126801   6.107   6.144   5.780
 8809SOL    HW226802   5.961   6.088   5.731
 8810SOL     OW26803   6.398   5.641   5.682
 8810SOL    HW126804   6.450   5.565   5.645
 8810SOL    HW226805   6.454   5.691   5.748
 8811SOL     OW26806   5.809   5.920   6.259
 8811SOL    HW126807   5.720   5.957   6.234
 8811SOL    HW226808   5.819   5.920   6.359
 8812SOL     OW26809   6.400   6.462   5.843
 8812SOL    HW126810   6.464   0.038   5.830
 8812SOL    HW226811   6.413   6.422   5.933
 8813SOL     OW26812   5.600   5.724   5.821
 8813SOL    HW126813   5.540   5.772   5.756
 8813SOL    HW226814   5.694   5.726   5.787
 8814SOL     OW26815   6.223   6.243   6.226
 8814SOL    HW126816   6.296   6.291   6.177
 8814SOL    HW226817   6.135   6.268   6.185
 8815SOL     OW26818   6.002   6.028   6.089
 8815SOL    HW126819   6.044   5.956   6.033
 8815SOL    HW226820   5.935   5.987   6.151
 8816CL      CL26821   1.827   4.453   0.296
 8817CL      CL26822   0.553   4.197   5.414
 8818CL      CL26823   4.859   1.280   6.368
 8819CL      CL26824   5.034   3.795   5.004
 8820CL      CL26825   6.002   4.735   1.885
   6.50000   6.50000   6.50000
