M14 bilayer
45166
    1SM24    N1    1   4.399   5.877   7.938 -0.2288  0.6843  0.8585
    1SM24    C1    2   4.368   0.075   7.915 -0.2287 -1.0617 -0.5570
    1SM24    H1    3   4.421   0.135   7.989 -1.7470  0.9005 -1.0126
    1SM24    H2    4   4.408   0.113   7.822  0.3359  1.6007  0.7276
    1SM24    C2    5   4.549   5.876   7.960  0.2427 -0.4361 -0.3492
    1SM24    H3    6   4.575   5.944   8.041 -1.4562  0.9006 -0.8703
    1SM24    H4    7   4.592   5.777   7.971  3.2611  0.9841  1.2195
    1SM24    H5    8   4.597   5.912   7.869  0.9647  2.3846  1.0799
    1SM24    C3    9   4.340   5.818   8.066  0.4069  0.2286  0.2338
    1SM24    H6   10   4.235   5.815   8.095  0.0793  0.2379 -0.9426
    1SM24    H7   11   4.365   5.712   8.059 -0.8120 -0.0848  0.4134
    1SM24    H8   12   4.390   5.839   8.161  2.1328  2.2232 -1.0931
    1SM24    C4   13   4.343   5.798   7.823 -0.2500  0.0775 -0.3287
    1SM24    H9   14   4.389   5.700   7.810  1.0192  0.5638  0.4285
    1SM24   H10   15   4.235   5.788   7.833 -0.4876  2.9051  0.2628
    1SM24   H11   16   4.360   5.846   7.727 -2.7533  3.1942  0.6967
    1SM24    C5   17   4.210   0.103   7.914  0.3492 -0.2744 -0.4740
    1SM24   H12   18   4.171   0.114   8.015  0.3279  0.6936 -0.5911
    1SM24   H13   19   4.146   0.022   7.878 -1.8980  0.8805  0.7746
    1SM24    P1   20   4.045   0.276   7.812 -0.3067  0.5742 -0.5381
    1SM24    O1   21   4.048   0.425   7.813 -0.5271 -0.0658 -0.0591
    1SM24    O2   22   3.944   0.207   7.898 -0.1771  0.2258  0.0372
    1SM24    O3   23   4.195   0.227   7.848 -0.1727 -0.2592  0.8786
    1SM24    O4   24   4.021   0.219   7.671  0.0063  0.0851 -0.4941
    1SM24    C6   25   4.072   0.283   7.561  0.0932 -0.1804  0.1520
    1SM24   H14   26   4.018   0.244   7.475  1.9415  1.4298 -1.8237
    1SM24   H15   27   4.042   0.387   7.566 -0.3725 -0.2038 -1.8292
    1SM24    C7   28   4.228   0.262   7.528 -0.4379 -0.2347 -0.0062
    1SM24   H16   29   4.291   0.303   7.607  0.5131 -1.0288 -0.3496
    1SM24    N2   30   4.251   0.334   7.403 -0.4848 -0.2294  0.0324
    1SM24    HN   31   4.169   0.371   7.357 -0.8397 -1.0467 -0.0016
    1SM24    C8   32   4.261   0.105   7.525 -0.0217 -0.3345  0.0319
    1SM24   OSM   33   4.403   0.097   7.537  0.3414 -0.1934 -0.8588
    1SM24   HSM   34   4.442   0.151   7.470 -0.8790  2.1314  0.2306
    1SM24   H17   35   4.218   0.054   7.611 -1.5007  3.4705  1.6556
    1SM24    C9   36   4.213   0.033   7.399 -0.7366 -0.9109  0.1241
    1SM24   H18   37   4.106   0.025   7.409 -0.7321  0.3458  1.3347
    1SM24   C10   38   4.293   5.937   7.295  0.0310 -0.2616  0.1134
    1SM24   H19   39   4.400   5.948   7.288  0.3415 -2.4529  1.1521
    1SM24   C11   40   4.241   5.862   7.173  0.0956 -0.5529  0.6568
    1SM24   H20   41   4.291   5.916   7.092 -0.2864 -0.7084  0.3164
    1SM24   H21   42   4.133   5.874   7.183  0.6631  3.2178  3.5467
    1SM24   C12   43   4.300   5.718   7.168  0.3174 -0.4662 -0.0837
    1SM24   H22   44   4.253   5.661   7.248  0.1246  0.4960  0.4982
    1SM24   H23   45   4.406   5.727   7.192  0.6580 -0.5554 -1.4914
    1SM24   C13   46   4.291   5.654   7.030 -0.1232  0.3581  0.4335
    1SM24   H24   47   4.331   5.716   6.949  2.7800 -2.8992 -0.7108
    1SM24   H25   48   4.183   5.649   7.012 -0.1098  2.7555 -0.5777
    1SM24   C14   49   4.352   5.509   7.037  0.9666  0.6825  0.3922
    1SM24   H26   50   4.321   5.470   7.134  0.0823  0.8004  0.1551
    1SM24   H27   51   4.460   5.499   7.024  0.6048  0.2581 -2.6728
    1SM24   C15   52   4.299   5.405   6.945  0.1998  0.1992  0.3129
    1SM24   H28   53   4.191   5.412   6.928 -0.2316 -2.4270  1.6654
    1SM24   H29   54   4.324   5.308   6.988  1.8270  0.4344 -0.0706
    1SM24   C16   55   4.361   5.419   6.812 -1.0238  0.2270  0.1566
    1SM24   H30   56   4.470   5.409   6.816 -1.2199 -1.5162  2.0028
    1SM24   H31   57   4.347   5.523   6.785  1.4293 -0.0666 -2.5182
    1SM24   C17   58   4.308   5.314   6.727  0.7578  0.3340 -0.5531
    1SM24   H32   59   4.321   5.216   6.774 -1.3188 -0.3493 -1.3450
    1SM24   H33   60   4.381   5.322   6.647  1.5219  0.3297  0.1385
    1SM24   C18   61   4.164   5.329   6.674  0.6056 -0.5598 -0.4773
    1SM24   H34   62   4.092   5.312   6.754  1.4282  0.5080  0.5080
    1SM24   H34   63   4.146   5.247   6.605 -1.6130 -0.1035 -0.4818
    1SM24   C19   64   4.129   5.468   6.627 -0.0805  0.1427 -0.1395
    1SM24   H35   65   4.114   5.534   6.712 -0.3523  0.4216 -0.4034
    1SM24   H36   66   4.030   5.457   6.582  0.8234 -1.3295 -1.8454
    1SM24   C20   67   4.229   5.527   6.523  0.6509  0.3661  0.1244
    1SM24   H37   68   4.329   5.533   6.564  0.4072 -0.1246  0.8074
    1SM24   H38   69   4.194   5.622   6.483 -4.0954 -0.9632  0.7533
    1SM24   C21   70   4.225   5.441   6.399  0.0277 -0.0873  0.0965
    1SM24   H39   71   4.215   5.335   6.423 -4.2711  0.5218  1.3687
    1SM24   H40   72   4.320   5.441   6.345  0.7624 -3.3898  1.2656
    1SM24   C22   73   4.111   5.461   6.312  0.2380 -0.5455 -0.4046
    1SM24   H41   74   4.114   5.562   6.272  0.1786  0.2150  1.4464
    1SM24   H42   75   4.017   5.461   6.368  0.5162 -1.2071  0.0685
    1SM24   C23   76   4.114   5.362   6.187 -0.1554 -0.2250  0.1790
    1SM24   H43   77   4.207   5.383   6.133  0.7737  0.7208  2.1228
    1SM24   H44   78   4.099   5.256   6.209 -2.6289  0.2176  0.7512
    1SM24   H45   79   4.035   5.390   6.117  0.6289  0.4470 -0.4514
    1SM24   C24   80   4.372   0.335   7.335 -0.6770  0.2369 -0.2771
    1SM24   O33   81   4.475   0.309   7.399  0.0721 -0.8901  0.2458
    1SM24   C25   82   4.373   0.411   7.193  0.2482 -0.1144  0.2981
    1SM24   H50   83   4.418   0.510   7.202  1.7316 -0.5463 -1.8791
    1SM24   H51   84   4.273   0.423   7.151 -0.2145  0.6240  1.5878
    1SM24   C26   85   4.462   0.333   7.091 -0.4582 -0.6206  0.1332
    1SM24   H52   86   4.544   0.277   7.135  1.4527  1.7941 -0.2101
    1SM24   H53   87   4.507   0.414   7.034 -0.5277 -1.0666 -0.5615
    1SM24   C27   88   4.374   0.238   6.998  0.2581  0.7708 -0.3526
    1SM24   H54   89   4.334   0.310   6.927  0.8981  2.8476  1.3235
    1SM24   H55   90   4.308   0.177   7.059  1.6781 -2.1676 -1.6347
    1SM24   C28   91   4.441   0.130   6.913 -0.7849  0.3076 -0.0696
    1SM24   H56   92   4.487   0.047   6.965 -2.0516 -0.2715  0.1442
    1SM24   H57   93   4.516   0.178   6.850 -0.6653  1.1443  0.6998
    1SM24   C29   94   4.344   0.062   6.820 -0.0918 -1.1688 -0.1083
    1SM24   H58   95   4.287   0.141   6.772 -2.3169 -1.9189  1.2093
    1SM24   H59   96   4.271   5.945   6.868 -1.6064  0.3735 -0.2397
    1SM24   C30   97   4.413   5.935   6.705 -0.4633 -0.0951  0.5847
    1SM24   H60   98   4.340   5.870   6.655 -1.9817  1.4219  0.7857
    1SM24   H61   99   4.491   5.869   6.743 -2.1509 -2.1335  0.6385
    1SM24   C31  100   4.465   0.070   6.591  0.0765 -0.3267 -0.4455
    1SM24   H62  101   4.544   0.136   6.626 -0.4969  0.8318 -1.3124
    1SM24   H63  102   4.388   0.136   6.552  0.2959  0.1265 -0.1113
    1SM24   C32  103   4.519   5.939   6.473  0.6741  0.1581  0.5619
    1SM24   H64  104   4.581   5.864   6.521  1.3897  0.5823  0.3145
    1SM24   H65  105   4.586   0.049   6.410 -0.5096  1.5958  0.6066
    1SM24   C33  106   4.408   5.871   6.393 -0.0079  0.1591  0.3370
    1SM24   H66  107   4.324   5.938   6.374 -1.4792 -1.8928 -0.5222
    1SM24   H67  108   4.369   5.786   6.448 -0.7893 -0.5413 -1.2739
    1SM24   C34  109   4.460   5.821   6.256  0.6676  0.1888 -0.1025
    1SM24   H68  110   4.552   5.766   6.276  1.0608  1.0697  0.5512
    1SM24   H69  111   4.486   5.914   6.205 -0.4305  1.7914  2.1512
    1SM24   C35  112   4.359   5.732   6.174 -0.1891 -0.3580  0.8639
    1SM24   H70  113   4.280   5.801   6.142  0.9392  0.4190 -0.3199
    1SM24   H71  114   4.320   5.653   6.237  1.3812 -1.3844  0.5886
    1SM24   C36  115   4.406   5.660   6.044 -0.2373  0.8458 -0.0825
    1SM24   H72  116   4.337   5.579   6.020 -0.1575  1.1338 -1.3197
    1SM24   H73  117   4.502   5.622   6.077  0.6968  2.5485 -0.7797
    1SM24   C37  118   4.438   5.758   5.932  0.6124  0.8335 -0.2333
    1SM24   H74  119   4.481   5.850   5.969  0.9589  0.3039  0.6934
    1SM24   H75  120   4.350   5.781   5.872  0.7268 -2.3364 -1.7653
    1SM24   C38  121   4.536   5.700   5.829 -0.6762  0.4996 -0.2354
    1SM24   H76  122   4.571   5.782   5.766  0.0453  0.1225 -0.3309
    1SM24   H77  123   4.479   5.642   5.756 -0.7304  0.0491  0.1672
    1SM24   C39  124   4.657   5.615   5.876  0.8931 -0.4509 -0.5212
    1SM24   H78  125   4.721   5.592   5.791  0.0844  0.9931 -1.5214
    1SM24   H79  126   4.616   5.524   5.919  1.2028  0.5440  2.0071
    1SM24   C40  127   4.744   5.682   5.977  0.7283  0.5689  0.4131
    1SM24   H80  128   4.785   5.770   5.928 -0.2493  1.0547  0.4498
    1SM24   H81  129   4.689   5.719   6.064 -1.5578 -0.6048 -0.4758
    1SM24   C41  130   4.847   5.590   6.046 -0.3245  0.3389  0.0975
    1SM24   H82  131   4.799   5.520   6.115 -0.1887  0.3497  0.2041
    1SM24   H83  132   4.885   5.526   5.967  0.1852 -2.2705  2.3988
    1SM24   C42  133   4.960   5.659   6.127 -0.2982  0.4253 -0.1356
    1SM24   H84  134   5.013   5.573   6.167 -0.8506 -0.6005 -1.5410
    1SM24   H85  135   4.912   5.709   6.211  0.2110  0.6861 -0.0005
    1SM24   C43  136   5.055   5.751   6.053  0.0836 -0.2024  0.2977
    1SM24   H86  137   5.001   5.842   6.026 -1.9618 -1.3616  0.3991
    1SM24   H87  138   5.086   5.708   5.957 -0.2970  0.2137 -0.0150
    1SM24   C44  139   5.177   5.794   6.136  1.2014  0.2552  0.1077
    1SM24   H88  140   5.137   5.830   6.231  0.8858  0.0732  0.0474
    1SM24   H89  141   5.240   5.707   6.155 -0.0792 -0.6014  0.5276
    1SM24   C45  142   5.259   5.899   6.062  0.3727  0.6657  0.8258
    1SM24   H90  143   5.207   0.044   6.042  1.2662  1.5257  2.4166
    1SM24   H91  144   5.273   5.860   5.961  1.0293  1.7473  0.4918
    1SM24   C46  145   5.390   5.933   6.136 -0.5974 -0.1851 -0.4586
    1SM24   H92  146   5.378   0.024   6.237  1.0350 -0.7449 -0.0282
    1SM24   H93  147   5.457   5.849   6.158  1.3295  1.0939 -1.2517
    1SM24   C47  148   5.472   0.092   6.050  0.0737 -0.0025 -0.3507
    1SM24   H94  149   5.557   0.126   6.109 -0.0825 -0.5871  0.2165
    1SM24   H95  150   5.514   0.051   5.958 -1.6427  2.1734 -2.1456
    1SM24   H96  151   5.417   0.181   6.019 -0.4150 -0.1574  0.0792
    2SM24    N1  152   5.035   1.761   8.193  0.5123  0.7230  0.4108
    2SM24    C1  153   5.100   1.888   8.229 -0.4249 -0.2740 -0.3111
    2SM24    H1  154   5.023   1.957   8.266  0.4946 -0.7946  2.6957
    2SM24    H2  155   5.178   1.876   8.304  0.6464  0.1392 -1.3492
    2SM24    C2  156   4.895   1.789   8.148 -0.3931  0.0876 -0.0353
    2SM24    H3  157   4.894   1.846   8.054  0.0110  1.1384  0.5881
    2SM24    H4  158   4.846   1.695   8.122  0.6882 -0.5828  0.3457
    2SM24    H5  159   4.839   1.848   8.220  0.8393  1.0055  0.1809
    2SM24    C3  160   5.103   1.678   8.094 -0.3000  0.1147  0.2039
    2SM24    H6  161   5.204   1.647   8.120 -1.1665 -0.0238  3.5980
    2SM24    H7  162   5.042   1.591   8.069 -1.1594  0.8659 -0.3700
    2SM24    H8  163   5.117   1.727   7.998 -2.1442  2.2432  0.9708
    2SM24    C4  164   5.014   1.681   8.316 -0.0092  0.4828  0.1049
    2SM24    H9  165   4.942   1.732   8.379 -0.4893  1.6141 -1.3376
    2SM24   H10  166   4.982   1.578   8.303 -2.5607  1.5690 -2.6394
    2SM24   H11  167   5.111   1.670   8.366  0.1701  0.6715 -0.1922
    2SM24    C5  168   5.169   1.965   8.119 -0.1291  0.0430 -0.0535
    2SM24   H12  169   5.101   1.967   8.033 -1.7783  0.2874  1.2314
    2SM24   H13  170   5.253   1.908   8.080  0.4936  1.5040 -0.9096
    2SM24    P1  171   5.347   2.147   8.141  0.1355 -0.6047 -0.1583
    2SM24    O1  172   5.447   2.039   8.155 -0.3617 -0.5117 -0.1189
    2SM24    O2  173   5.360   2.266   8.233  0.2664  0.7302 -0.2742
    2SM24    O3  174   5.200   2.088   8.169 -0.1383 -0.5118  0.6122
    2SM24    O4  175   5.353   2.191   7.991  0.6535 -0.0286  0.3640
    2SM24    C6  176   5.265   2.285   7.936 -0.3577 -0.2074  0.0380
    2SM24   H14  177   5.167   2.286   7.984 -1.2196  0.5020 -1.7196
    2SM24   H15  178   5.316   2.379   7.956  1.4507 -1.1195 -0.1762
    2SM24    C7  179   5.260   2.280   7.785  0.3887 -0.0081 -0.0462
    2SM24   H16  180   5.361   2.256   7.749  0.1159 -0.6170 -0.4237
    2SM24    N2  181   5.199   2.411   7.735  0.3702  0.2285  0.2859
    2SM24    HN  182   5.127   2.454   7.792  0.5405  1.9640 -0.7801
    2SM24    C8  183   5.172   2.159   7.727  0.3371  0.0897  0.5571
    2SM24   OSM  184   5.037   2.159   7.779  0.1999  0.1627 -0.7598
    2SM24   HSM  185   5.000   2.246   7.778 -0.1450  0.0917  1.9109
    2SM24   H17  186   5.157   2.195   7.625  3.0176  0.3642  0.2355
    2SM24    C9  187   5.240   2.032   7.745  0.1156  0.0409 -0.3251
    2SM24   H18  188   5.283   2.007   7.841  0.8260  1.6528 -0.2030
    2SM24   C10  189   5.276   1.968   7.637 -0.1507 -0.6481  0.3865
    2SM24   H19  190   5.261   2.013   7.540 -1.0676  0.6336  1.0879
    2SM24   C11  191   5.366   1.847   7.634  0.2215 -0.2556  0.3178
    2SM24   H20  192   5.421   1.847   7.728 -0.5775  2.0717  0.8417
    2SM24   H21  193   5.441   1.865   7.557 -0.5900  2.4206  0.0775
    2SM24   C12  194   5.289   1.718   7.603  0.4727 -0.3919  0.4204
    2SM24   H22  195   5.213   1.704   7.680 -0.1551 -0.6936 -0.2456
    2SM24   H23  196   5.361   1.636   7.602  0.6331 -0.2501 -1.0490
    2SM24   C13  197   5.227   1.706   7.457 -0.1286  0.3593 -0.4410
    2SM24   H24  198   5.295   1.698   7.372 -2.9218 -0.9113 -2.6589
    2SM24   H25  199   5.181   1.803   7.437 -1.8191 -0.2958  0.1063
    2SM24   C14  200   5.124   1.592   7.429 -0.6282  0.4937 -0.2973
    2SM24   H26  201   5.043   1.627   7.365 -2.2384  0.6637  1.7993
    2SM24   H27  202   5.073   1.557   7.518  1.5313 -0.3850  0.6427
    2SM24   C15  203   5.197   1.470   7.359  0.2042  0.4070 -0.0977
    2SM24   H28  204   5.140   1.387   7.399  1.7198 -0.8366 -0.4895
    2SM24   H29  205   5.299   1.451   7.395 -0.4243 -0.2394  1.3741
    2SM24   C16  206   5.171   1.478   7.210  0.2563  0.2307  0.2739
    2SM24   H30  207   5.220   1.558   7.155 -3.6175  2.2211 -0.4365
    2SM24   H31  208   5.064   1.490   7.193  0.4939 -0.3371 -1.8234
    2SM24   C17  209   5.204   1.347   7.140  0.7233 -0.3680 -0.1210
    2SM24   H32  210   5.176   1.258   7.198 -1.8922 -0.0459 -0.8495
    2SM24   H33  211   5.312   1.329   7.143  0.2207 -3.7213  0.8863
    2SM24   C18  212   5.158   1.337   6.990  0.1899  0.0669  0.2175
    2SM24   H34  213   5.054   1.370   6.988 -0.0311 -0.7258 -1.1917
    2SM24   H34  214   5.172   1.239   6.946 -1.4253  0.2865 -0.8427
    2SM24   C19  215   5.232   1.428   6.895 -1.0499  0.6356  0.4958
    2SM24   H35  216   5.336   1.395   6.891 -1.6127 -1.3045  1.2768
    2SM24   H36  217   5.231   1.527   6.941 -0.4556  0.8431  0.0831
    2SM24   C20  218   5.188   1.428   6.751 -0.5469 -0.6834  0.0310
    2SM24   H37  219   5.085   1.464   6.744 -0.0156  0.7100 -0.7188
    2SM24   H38  220   5.185   1.331   6.700  1.1292  1.1644 -3.7612
    2SM24   C21  221   5.282   1.521   6.674 -0.1974 -0.5170  0.4701
    2SM24   H39  222   5.382   1.478   6.685  1.0386  2.4137  1.4754
    2SM24   H40  223   5.285   1.617   6.727  4.7806  0.4802 -1.3029
    2SM24   C22  224   5.246   1.553   6.529  0.3966 -0.5868  0.2115
    2SM24   H41  225   5.142   1.584   6.530  0.5576 -0.0566  1.3970
    2SM24   H42  226   5.257   1.478   6.451 -0.8478  0.1402 -0.6741
    2SM24   C23  227   5.336   1.672   6.483  0.1672 -0.3540 -0.6178
    2SM24   H43  228   5.366   1.732   6.569 -1.2278 -1.7255  0.8903
    2SM24   H44  229   5.429   1.637   6.439  0.9552  1.1847 -0.1963
    2SM24   H45  230   5.295   1.736   6.406  1.5513  1.2785 -0.0246
    2SM24   C24  231   5.206   2.453   7.609 -0.0429  0.4435  0.1563
    2SM24   O33  232   5.298   2.408   7.534  0.1630 -0.0628  0.0998
    2SM24   C25  233   5.102   2.545   7.549  0.0106 -0.1231 -0.1847
    2SM24   H50  234   5.158   2.636   7.528  0.0081 -0.4178 -1.5119
    2SM24   H51  235   5.018   2.564   7.616  0.9481 -3.0926  1.9655
    2SM24   C26  236   5.036   2.489   7.419 -0.1178 -0.1603  0.2178
    2SM24   H52  237   4.952   2.428   7.453 -0.8511  1.0320  0.6003
    2SM24   H53  238   5.103   2.424   7.363  0.3231  0.1100  0.4329
    2SM24   C27  239   4.981   2.602   7.335 -0.3327 -0.0271  1.1052
    2SM24   H54  240   5.062   2.673   7.322 -0.2274 -0.1575  1.0387
    2SM24   H55  241   4.914   2.661   7.397 -1.2399  1.4280 -1.1870
    2SM24   C28  242   4.914   2.551   7.198 -0.7370  0.6331  0.1342
    2SM24   H56  243   4.811   2.540   7.233 -0.4578  0.7644  1.0272
    2SM24   H57  244   4.948   2.453   7.166  0.2474  0.9424  0.2025
    2SM24   C29  245   4.916   2.655   7.084 -0.5358 -0.3012 -0.7614
    2SM24   H58  246   5.017   2.670   7.046 -0.7274  3.8881  0.2070
    2SM24   H59  247   4.903   2.758   7.117 -0.2333 -0.6260  0.3995
    2SM24   C30  248   4.823   2.607   6.971 -0.8129 -0.0044  0.3341
    2SM24   H60  249   4.723   2.581   7.006 -1.4684 -1.6840 -2.5985
    2SM24   H61  250   4.869   2.519   6.926  1.4886  2.2492 -1.8564
    2SM24   C31  251   4.798   2.706   6.855  0.4728  0.0034  0.2053
    2SM24   H62  252   4.894   2.736   6.812 -1.1193 -0.0824 -3.6042
    2SM24   H63  253   4.764   2.798   6.900  1.0138  0.6237 -0.6371
    2SM24   C32  254   4.698   2.649   6.743  0.0514 -0.6841 -0.5740
    2SM24   H64  255   4.595   2.637   6.776 -0.2074  0.0409 -1.0956
    2SM24   H65  256   4.729   2.552   6.703 -0.3261 -0.3596 -1.6780
    2SM24   C33  257   4.685   2.744   6.623  1.0244 -0.3331 -0.0116
    2SM24   H66  258   4.776   2.745   6.565  0.6549 -0.2921 -0.5964
    2SM24   H67  259   4.682   2.845   6.664 -1.2122  0.3067 -1.6397
    2SM24   C34  260   4.570   2.691   6.531 -0.3645 -0.1886  0.0156
    2SM24   H68  261   4.487   2.665   6.596  1.0378 -0.5087  1.7347
    2SM24   H69  262   4.598   2.603   6.473 -1.8386  0.7565 -2.1841
    2SM24   C35  263   4.519   2.803   6.438 -0.0728  0.3613 -0.0522
    2SM24   H70  264   4.602   2.869   6.412  0.2786 -0.4572 -1.0634
    2SM24   H71  265   4.448   2.855   6.502 -1.9789 -0.0404 -1.7777
    2SM24   C36  266   4.436   2.741   6.324 -0.9403 -0.4104  0.6751
    2SM24   H72  267   4.499   2.690   6.252 -0.2582  0.7299  0.4540
    2SM24   H73  268   4.391   2.827   6.275  2.4853  0.8572 -0.3595
    2SM24   C37  269   4.336   2.635   6.385 -0.9786  0.7374 -0.0059
    2SM24   H74  270   4.290   2.678   6.475  0.4387  2.3346 -0.0158
    2SM24   H75  271   4.395   2.553   6.425  0.3561  1.4519 -0.4899
    2SM24   C38  272   4.223   2.580   6.302  0.3404 -0.1117  0.2472
    2SM24   H76  273   4.248   2.566   6.197 -0.3137  2.9457 -0.3705
    2SM24   H77  274   4.147   2.658   6.301  1.5953  1.1101  0.0048
    2SM24   C39  275   4.159   2.444   6.354 -0.4114 -0.5720  0.8686
    2SM24   H78  276   4.119   2.468   6.453 -0.1663 -0.4491  0.9390
    2SM24   H79  277   4.243   2.374   6.359  0.9489  1.0139  0.4661
    2SM24   C40  278   4.049   2.393   6.263  0.1382 -0.1484  0.7094
    2SM24   H80  279   4.089   2.345   6.174  2.4244 -0.7240  2.0111
    2SM24   H81  280   4.002   2.305   6.310  0.5593 -0.3374  0.7775
    2SM24   C41  281   3.937   2.496   6.236  0.3917  0.0610  1.2772
    2SM24   H82  282   3.912   2.547   6.329 -0.0255 -0.8064  1.6472
    2SM24   H83  283   3.965   2.563   6.156 -1.3687  0.3984  0.9250
    2SM24   C42  284   3.821   2.420   6.183  0.3637 -0.2189  0.0616
    2SM24   H84  285   3.775   2.369   6.267 -2.0935  0.8160 -0.6074
    2SM24   H85  286   3.848   2.343   6.111  2.1322 -0.6425  1.1419
    2SM24   C43  287   3.710   2.507   6.127 -0.0604  0.1287  0.0691
    2SM24   H86  288   3.676   2.580   6.200 -0.0259 -2.3907  2.6839
    2SM24   H87  289   3.626   2.443   6.098 -0.1889  0.3181  0.0107
    2SM24   C44  290   3.749   2.584   6.000 -0.3147  0.6785 -0.1360
    2SM24   H88  291   3.660   2.631   5.958 -1.1643 -0.9666 -0.2281
    2SM24   H89  292   3.828   2.656   6.019 -1.1530  0.7905  3.1548
    2SM24   C45  293   3.810   2.504   5.883 -1.0736 -0.5049 -0.6205
    2SM24   H90  294   3.750   2.415   5.860 -1.1787 -0.3242 -1.0528
    2SM24   H91  295   3.904   2.461   5.920 -1.9220 -0.1791  2.0547
    2SM24   C46  296   3.856   2.586   5.763 -0.1306  0.3931 -0.1488
    2SM24   H92  297   3.774   2.645   5.723 -0.4450  0.3044  0.3525
    2SM24   H93  298   3.938   2.654   5.786 -1.8211  2.7539 -0.9013
    2SM24   C47  299   3.887   2.504   5.634  0.8136  0.4810 -0.3255
    2SM24   H94  300   3.948   2.416   5.654  2.0163  1.1803 -0.8897
    2SM24   H95  301   3.794   2.467   5.593  1.4884 -1.5803 -0.0486
    2SM24   H96  302   3.947   2.559   5.561 -1.6872  0.9583 -2.0837
    3SM24    N1  303   4.528   2.258   8.493 -0.3499 -0.0718 -0.2407
    3SM24    C1  304   4.489   2.335   8.370  0.3601  0.0393  0.2228
    3SM24    H1  305   4.387   2.306   8.345 -0.1657  1.5628  0.5597
    3SM24    H2  306   4.488   2.443   8.385 -4.9233  0.0447  0.5849
    3SM24    C2  307   4.506   2.110   8.484  0.2248  0.2077 -0.0607
    3SM24    H3  308   4.567   2.050   8.552 -1.3000 -1.6986 -0.3427
    3SM24    H4  309   4.400   2.087   8.492  0.9177 -2.9374  0.5346
    3SM24    H5  310   4.556   2.080   8.392  0.3261  0.4666 -0.0942
    3SM24    C3  311   4.666   2.283   8.520 -0.0186 -0.2181  0.2570
    3SM24    H6  312   4.687   2.388   8.501 -0.9809 -0.2256 -0.9300
    3SM24    H7  313   4.711   2.252   8.615  0.9755  2.6618  0.7536
    3SM24    H8  314   4.731   2.236   8.447  0.8155  2.3821 -0.7215
    3SM24    C4  315   4.443   2.315   8.605  0.2447 -0.3511  1.2914
    3SM24    H9  316   4.343   2.280   8.582  0.6590 -1.0598  0.5187
    3SM24   H10  317   4.483   2.267   8.694  1.7362 -1.4561  0.0597
    3SM24   H11  318   4.453   2.423   8.607  0.0017 -0.3453  4.4509
    3SM24    C5  319   4.572   2.312   8.240 -0.2878  0.0209  0.5458
    3SM24   H12  320   4.574   2.206   8.213  2.7725  0.3034 -0.5847
    3SM24   H13  321   4.675   2.339   8.267  0.6632 -1.3799 -1.5358
    3SM24    P1  322   4.597   2.374   7.981  0.1051 -0.0891  0.3434
    3SM24    O1  323   4.739   2.355   8.001 -0.1181 -0.3943  0.3368
    3SM24    O2  324   4.554   2.498   7.912 -0.0714 -0.3535 -0.1447
    3SM24    O3  325   4.533   2.384   8.128 -0.1600 -0.2060  0.5125
    3SM24    O4  326   4.529   2.238   7.920  0.1262  0.1342  0.4004
    3SM24    C6  327   4.392   2.227   7.900  0.3892  0.1116  0.1692
    3SM24   H14  328   4.366   2.121   7.897 -0.4798  0.2369  2.3147
    3SM24   H15  329   4.340   2.251   7.993  2.0378  1.0425  0.8669
    3SM24    C7  330   4.351   2.299   7.765 -0.7684 -0.1260 -0.3203
    3SM24   H16  331   4.368   2.406   7.774 -1.0557 -0.2113  1.3789
    3SM24    N2  332   4.203   2.287   7.770 -0.0190 -0.1212  0.6892
    3SM24    HN  333   4.165   2.236   7.848  0.5832  0.1382  1.1549
    3SM24    C8  334   4.401   2.239   7.634 -1.1525  0.3433 -0.0852
    3SM24   OSM  335   4.340   2.112   7.617  0.3222 -0.0555 -0.3202
    3SM24   HSM  336   4.323   2.099   7.525 -0.7590  0.8145 -0.2511
    3SM24   H17  337   4.362   2.304   7.555 -0.9889  1.4395  0.7268
    3SM24    C9  338   4.552   2.244   7.616  0.1096  0.4072  0.3057
    3SM24   H18  339   4.601   2.325   7.668  0.3376  0.4335  0.0482
    3SM24   C10  340   4.621   2.160   7.548  0.1414 -0.3478 -0.0054
    3SM24   H19  341   4.568   2.075   7.506 -2.0168  1.8894 -2.0667
    3SM24   C11  342   4.774   2.166   7.541 -0.1300 -0.1856  0.3052
    3SM24   H20  343   4.822   2.101   7.615  0.2059  1.4685  1.5744
    3SM24   H21  344   4.806   2.266   7.570 -0.1132  0.1990 -0.9959
    3SM24   C12  345   4.815   2.140   7.392  0.6375  1.0179  0.0241
    3SM24   H22  346   4.818   2.033   7.374 -0.1653  0.8459  0.8644
    3SM24   H23  347   4.921   2.161   7.376  0.7888 -0.8345 -1.5395
    3SM24   C13  348   4.729   2.206   7.275  0.0705 -0.2908 -0.1280
    3SM24   H24  349   4.721   2.311   7.303  1.9334  0.2718 -1.6261
    3SM24   H25  350   4.622   2.182   7.276  0.2381 -1.1546 -1.5938
    3SM24   C14  351   4.792   2.181   7.133 -0.3630  0.4937 -0.4797
    3SM24   H26  352   4.811   2.074   7.119 -1.0291  0.2252  0.5632
    3SM24   H27  353   4.885   2.237   7.143  1.3455 -2.3169 -0.0997
    3SM24   C15  354   4.709   2.225   7.008 -0.5650 -0.2553  0.6895
    3SM24   H28  355   4.708   2.334   7.003 -0.1911 -0.2945 -0.4725
    3SM24   H29  356   4.608   2.187   7.012 -1.4800  2.0025  0.0580
    3SM24   C16  357   4.753   2.184   6.871  0.1789 -0.0349  0.2583
    3SM24   H30  358   4.748   2.075   6.867  0.5668 -0.0321 -0.3934
    3SM24   H31  359   4.853   2.222   6.851  0.5022 -0.8639  0.2507
    3SM24   C17  360   4.667   2.245   6.760 -0.0443 -0.4412 -0.0284
    3SM24   H32  361   4.709   2.346   6.749  0.8769 -0.5408  2.2692
    3SM24   H33  362   4.561   2.247   6.782 -0.5622 -0.8660 -2.3524
    3SM24   C18  363   4.698   2.186   6.623 -0.0591 -0.0644 -0.4084
    3SM24   H34  364   4.659   2.085   6.631  0.4673 -0.0853  2.3456
    3SM24   H34  365   4.806   2.181   6.617  0.1428 -0.1811  2.4786
    3SM24   C19  366   4.637   2.260   6.502  0.8114 -0.3079 -1.1719
    3SM24   H35  367   4.701   2.338   6.460 -2.8743  1.3695 -3.9900
    3SM24   H36  368   4.541   2.303   6.531  1.5313  0.0453  0.7506
    3SM24   C20  369   4.603   2.161   6.393  0.2599  0.0074  0.1227
    3SM24   H37  370   4.532   2.088   6.431  0.5302  0.2216  1.0767
    3SM24   H38  371   4.693   2.111   6.357  0.2152  0.3196 -0.4237
    3SM24   C21  372   4.520   2.230   6.286 -0.5004  0.8670  0.5154
    3SM24   H39  373   4.573   2.317   6.247 -2.6941  1.9167 -0.2384
    3SM24   H40  374   4.437   2.280   6.338  0.6419  2.4272  0.8875
    3SM24   C22  375   4.477   2.128   6.178 -0.4180  0.6017 -0.2882
    3SM24   H41  376   4.439   2.040   6.230 -2.2567  0.3454 -1.9650
    3SM24   H42  377   4.558   2.085   6.119  0.0799 -2.2789  2.4038
    3SM24   C23  378   4.375   2.180   6.078  0.5750 -0.2737 -0.2705
    3SM24   H43  379   4.370   2.106   5.998 -1.5844  0.3192 -0.7087
    3SM24   H44  380   4.279   2.181   6.129 -0.2742  2.7816 -1.7800
    3SM24   H45  381   4.412   2.279   6.050  2.6934 -1.4595 -1.8605
    3SM24   C24  382   4.119   2.348   7.686 -0.2341  0.3022 -0.2655
    3SM24   O33  383   4.145   2.441   7.610  0.0254  0.1547 -0.4093
    3SM24   C25  384   3.966   2.303   7.682 -0.7002 -0.2496 -0.1115
    3SM24   H50  385   3.904   2.390   7.664 -1.1003 -0.1995  1.4037
    3SM24   H51  386   3.932   2.257   7.775  0.1022 -1.7196 -0.5284
    3SM24   C26  387   3.908   2.232   7.555  0.1678  0.1216  0.2233
    3SM24   H52  388   3.805   2.199   7.570  0.0504  0.4504  0.1614
    3SM24   H53  389   3.949   2.133   7.537 -0.9691  0.1673 -3.0898
    3SM24   C27  390   3.905   2.308   7.420 -0.1804 -0.8200 -0.1545
    3SM24   H54  391   4.009   2.310   7.388  0.1697  4.8456  0.8358
    3SM24   H55  392   3.872   2.411   7.426  0.7279 -0.6196  1.4129
    3SM24   C28  393   3.819   2.226   7.315 -0.2615 -0.3180 -0.9161
    3SM24   H56  394   3.724   2.198   7.362 -0.4094 -1.3451 -1.8127
    3SM24   H57  395   3.869   2.132   7.293  1.2266  0.1390  0.4269
    3SM24   C29  396   3.800   2.304   7.182  0.5433 -0.8005 -0.3395
    3SM24   H58  397   3.899   2.303   7.136  1.7025 -0.5553  2.0829
    3SM24   H59  398   3.776   2.409   7.199 -1.4689 -1.3534  0.2943
    3SM24   C30  399   3.702   2.231   7.084 -0.4653 -0.0676  0.1452
    3SM24   H60  400   3.608   2.190   7.121 -1.4873 -0.2593 -2.5549
    3SM24   H61  401   3.758   2.145   7.048  1.1188  0.6399  0.8544
    3SM24   C31  402   3.665   2.340   6.976 -0.6361  0.4433 -0.6554
    3SM24   H62  403   3.621   2.419   7.037  0.2454  0.6351 -0.2554
    3SM24   H63  404   3.587   2.298   6.912 -2.0868 -0.7781  1.8716
    3SM24   C32  405   3.789   2.397   6.905  0.5686  0.3478  0.6083
    3SM24   H64  406   3.845   2.320   6.852 -0.6177 -0.2655  0.2381
    3SM24   H65  407   3.861   2.444   6.972  2.9534 -0.3689 -1.3603
    3SM24   C33  408   3.733   2.492   6.802  0.4764  0.0485  0.1207
    3SM24   H66  409   3.812   2.539   6.743 -1.5538  1.7958 -1.2935
    3SM24   H67  410   3.678   2.573   6.850 -0.5220 -0.6389  0.1291
    3SM24   C34  411   3.631   2.443   6.693 -0.1737 -0.0800  0.0243
    3SM24   H68  412   3.543   2.406   6.744  0.2755 -0.6660  0.3857
    3SM24   H69  413   3.685   2.357   6.653 -1.6467 -1.1399  0.2952
    3SM24   C35  414   3.609   2.551   6.584 -0.3425  0.1521  0.6461
    3SM24   H70  415   3.705   2.596   6.557 -0.5585 -0.6795 -1.6579
    3SM24   H71  416   3.552   2.625   6.639 -0.0733  2.7700 -2.4411
    3SM24   C36  417   3.538   2.511   6.455  0.6723 -0.2431 -0.1093
    3SM24   H72  418   3.603   2.436   6.410  0.7986 -0.7715  0.9434
    3SM24   H73  419   3.535   2.595   6.386  0.1101 -0.9193 -0.9070
    3SM24   C37  420   3.398   2.465   6.474 -0.1927 -0.2829 -0.0079
    3SM24   H74  421   3.338   2.549   6.510  1.1327  1.0623 -0.8949
    3SM24   H75  422   3.394   2.383   6.546 -0.3488  0.8410  1.2872
    3SM24   C38  423   3.341   2.417   6.341  0.4317  0.3526  0.4808
    3SM24   H76  424   3.385   2.325   6.301  0.9511 -0.1037  2.0599
    3SM24   H77  425   3.357   2.490   6.262 -1.5286  0.7814  0.4654
    3SM24   C39  426   3.193   2.406   6.348  0.5147  0.1982  0.5185
    3SM24   H78  427   3.139   2.495   6.379 -0.6706 -0.5144  0.5219
    3SM24   H79  428   3.170   2.339   6.431 -0.5739  0.1626  0.1892
    3SM24   C40  429   3.133   2.322   6.241  0.5116 -0.0148 -0.4056
    3SM24   H80  430   3.153   2.355   6.139 -0.2497  1.0737 -0.2107
    3SM24   H81  431   3.177   2.223   6.248 -0.1556 -0.3635 -1.0588
    3SM24   C41  432   2.982   2.295   6.264 -0.8610 -0.3212 -0.1773
    3SM24   H82  433   2.966   2.243   6.359  0.5318 -3.3870 -1.5559
    3SM24   H83  434   2.930   2.390   6.272 -0.3921 -0.1931  1.7188
    3SM24   C42  435   2.912   2.217   6.157  0.0644  0.3203  0.0026
    3SM24   H84  436   2.954   2.116   6.152 -0.4390  0.1562 -1.2428
    3SM24   H85  437   2.929   2.255   6.057  1.2231 -0.1089  0.0252
    3SM24   C43  438   2.765   2.180   6.178 -0.0943 -0.5372 -0.1416
    3SM24   H86  439   2.714   2.269   6.215  0.8292  0.0708 -0.2965
    3SM24   H87  440   2.767   2.107   6.258  1.9659 -1.4419 -0.9800
    3SM24   C44  441   2.706   2.126   6.055 -0.3243  0.4534  0.8793
    3SM24   H88  442   2.601   2.111   6.084 -1.4551  3.3249 -1.4772
    3SM24   H89  443   2.716   2.203   5.979  1.2011 -1.7473 -1.2273
    3SM24   C45  444   2.765   2.000   5.995  0.2763 -1.2096  0.4582
    3SM24   H90  445   2.873   2.014   5.993 -0.1778  3.1638  1.2317
    3SM24   H91  446   2.741   1.975   5.892 -0.9764  0.1415  0.4026
    3SM24   C46  447   2.726   1.875   6.084  0.0150  0.0418 -0.1555
    3SM24   H92  448   2.770   1.877   6.184 -1.2415  2.9249  0.3785
    3SM24   H93  449   2.618   1.887   6.088  0.1707  1.1565  1.0546
    3SM24   C47  450   2.765   1.746   6.027 -0.8992  0.2698  0.0039
    3SM24   H94  451   2.873   1.727   6.024 -0.4125  2.4240  1.8258
    3SM24   H95  452   2.712   1.677   6.091  0.0731  1.5586  2.2614
    3SM24   H96  453   2.732   1.735   5.923  1.2333  1.2507 -0.8216
    4SM24    N1  454   2.484   5.894   8.036  0.4339  0.4486 -0.3343
    4SM24    C1  455   2.479   5.755   7.982  0.8169 -0.2981 -0.0589
    4SM24    H1  456   2.461   5.683   8.062  0.6008 -2.1645 -1.7419
    4SM24    H2  457   2.401   5.744   7.907  0.2046  1.1834  0.3463
    4SM24    C2  458   2.543   0.043   7.942 -0.6505 -0.0870 -0.1528
    4SM24    H3  459   2.552   0.147   7.973 -2.0405  0.4261 -1.4198
    4SM24    H4  460   2.637   0.014   7.896 -0.4374  1.1344 -0.5059
    4SM24    H5  461   2.479   0.062   7.856 -0.4363 -0.7031 -0.4542
    4SM24    C3  462   2.353   5.943   8.086  0.2619  0.6980 -0.2992
    4SM24    H6  463   2.349   0.087   8.143  1.5987  1.2077 -0.9874
    4SM24    H7  464   2.278   5.945   8.007  1.2320 -1.8797 -1.3293
    4SM24    H8  465   2.307   5.881   8.162 -0.6026  0.9147 -0.6395
    4SM24    C4  466   2.561   5.888   8.169 -0.0630 -0.7808  0.9316
    4SM24    H9  467   2.577   0.037   8.214 -0.6277  0.6003 -1.7676
    4SM24   H10  468   2.502   5.839   8.246  2.4927 -0.9199  2.8632
    4SM24   H11  469   2.658   5.844   8.148  1.0397  0.7908  2.6766
    4SM24    C5  470   2.600   5.705   7.902  0.2153 -0.2643  0.8486
    4SM24   H12  471   2.689   5.742   7.953 -0.3754  0.7694  1.1449
    4SM24   H13  472   2.602   5.758   7.808  0.9581  0.8143  1.4677
    4SM24    P1  473   2.549   5.481   7.771 -0.2215  0.2520  0.1063
    4SM24    O1  474   2.412   5.531   7.743 -0.0717 -0.2195  0.2091
    4SM24    O2  475   2.564   5.339   7.796  0.1010 -0.2269  0.1164
    4SM24    O3  476   2.609   5.559   7.895  0.1398 -0.3199 -0.6284
    4SM24    O4  477   2.638   5.525   7.648 -0.7160 -0.2292  0.4804
    4SM24    C6  478   2.771   5.482   7.623 -0.0894  0.2470  0.3490
    4SM24   H14  479   2.837   5.551   7.676  1.4822  0.0392 -1.3002
    4SM24   H15  480   2.791   5.384   7.666  1.4073 -0.6409 -2.3197
    4SM24    C7  481   2.805   5.498   7.477  0.1023 -0.3816 -0.1256
    4SM24   H16  482   2.746   5.422   7.425 -0.4679 -1.4574  2.0492
    4SM24    N2  483   2.944   5.450   7.453  0.1489 -0.5865 -0.6306
    4SM24    HN  484   3.016   5.521   7.449 -1.1768  1.0634  2.9547
    4SM24    C8  485   2.806   5.645   7.423  0.2847  0.2357  0.1483
    4SM24   OSM  486   2.903   5.730   7.485  0.3482 -0.2412 -0.5228
    4SM24   HSM  487   2.887   5.740   7.578 -0.4890  2.8590 -0.9267
    4SM24   H17  488   2.841   5.646   7.320 -4.0422 -3.6050 -1.5218
    4SM24    C9  489   2.677   5.721   7.417  0.3882 -0.6277  0.8567
    4SM24   H18  490   2.601   5.716   7.494 -2.8116 -0.8822 -2.1565
    4SM24   C10  491   2.638   5.796   7.315  0.8749  0.1330  0.1923
    4SM24   H19  492   2.709   5.801   7.233 -0.5264 -0.7473 -1.1030
    4SM24   C11  493   2.504   5.870   7.297 -0.0576  0.0531  0.7396
    4SM24   H20  494   2.532   0.026   7.293  0.4573 -0.1608 -2.8240
    4SM24   H21  495   2.431   5.840   7.372 -1.7082 -3.1639 -1.9640
    4SM24   C12  496   2.427   5.835   7.168 -0.5270  0.0714  0.2688
    4SM24   H22  497   2.393   5.731   7.171  0.8629 -0.3814  0.8173
    4SM24   H23  498   2.485   5.838   7.076 -0.7442 -0.9986  0.0898
    4SM24   C13  499   2.308   5.919   7.153  0.0304 -0.2347 -0.3976
    4SM24   H24  500   2.339   0.074   7.156  2.7868 -0.9960 -1.1423
    4SM24   H25  501   2.237   5.905   7.234  2.1034 -1.4894  1.2713
    4SM24   C14  502   2.230   5.890   7.025  0.2279  0.3654  0.6264
    4SM24   H26  503   2.207   5.785   7.006  2.1748  0.2644 -1.4351
    4SM24   H27  504   2.296   5.920   6.944  0.4827 -0.4531  0.5288
    4SM24   C15  505   2.107   0.033   7.007 -0.5049 -0.8360  0.2955
    4SM24   H28  506   2.140   0.131   6.972 -1.5886 -0.0248  1.5124
    4SM24   H29  507   2.065   0.054   7.105  2.1378  1.0656  1.0910
    4SM24   C16  508   2.004   5.915   6.916  0.1278  0.4121  0.2683
    4SM24   H30  509   1.977   5.818   6.959  1.3705 -0.3269 -0.5731
    4SM24   H31  510   2.058   5.903   6.822 -1.3160 -1.5460 -0.3438
    4SM24   C17  511   1.882   0.041   6.889  0.0327  0.2801 -0.6116
    4SM24   H32  512   1.917   0.135   6.845 -0.2338  0.5176 -0.3177
    4SM24   H33  513   1.833   0.064   6.984 -0.2049 -0.9922 -0.4206
    4SM24   C18  514   1.777   5.922   6.801  0.3502  0.4995 -0.6576
    4SM24   H34  515   1.689   0.035   6.819  0.7521  0.4764  1.5372
    4SM24   H34  516   1.746   5.823   6.836  2.7432 -0.6327 -1.6399
    4SM24   C19  517   1.806   5.932   6.648 -0.1845 -0.0810  0.1706
    4SM24   H35  518   1.892   5.868   6.626  0.7473  1.7681 -1.8530
    4SM24   H36  519   1.845   0.083   6.625  1.7940 -0.8405  0.0752
    4SM24   C20  520   1.691   5.879   6.565  0.7679 -0.3573  0.0091
    4SM24   H37  521   1.611   0.004   6.572  1.3204  0.4450 -1.8990
    4SM24   H38  522   1.669   5.781   6.606  0.2558 -0.5132 -0.6311
    4SM24   C21  523   1.726   5.878   6.416 -0.2161 -0.2840 -0.2451
    4SM24   H39  524   1.817   5.818   6.409  0.7514  1.3128 -1.8912
    4SM24   H40  525   1.747   0.029   6.378  0.9338 -0.7334 -0.8056
    4SM24   C22  526   1.615   5.821   6.322 -0.1210  0.0580  0.5626
    4SM24   H41  527   1.651   5.823   6.219 -0.4537 -0.8856  0.4222
    4SM24   H42  528   1.523   5.880   6.322 -0.2165 -0.0877  0.6799
    4SM24   C23  529   1.587   5.675   6.361  1.0062  0.3314 -0.0259
    4SM24   H43  530   1.665   5.600   6.347  0.6971  0.3832 -2.2872
    4SM24   H44  531   1.541   5.653   6.457 -2.1799  2.3303 -0.9985
    4SM24   H45  532   1.513   5.639   6.288  0.6969 -1.7986  1.2946
    4SM24   C24  533   2.981   5.323   7.464  0.3176  0.1287 -0.6739
    4SM24   O33  534   2.896   5.233   7.488  0.1141  0.3253  0.4807
    4SM24   C25  535   3.133   5.276   7.449 -0.0672 -0.1359 -0.4898
    4SM24   H50  536   3.161   5.217   7.537 -0.1044 -0.6706 -0.8336
    4SM24   H51  537   3.205   5.356   7.437 -1.8160  1.5947  0.3076
    4SM24   C26  538   3.146   5.168   7.338  0.5917  0.7375 -0.5946
    4SM24   H52  539   3.078   5.088   7.370 -0.6309  1.4785 -1.2880
    4SM24   H53  540   3.248   5.131   7.351 -0.3999 -0.8122  3.7513
    4SM24   C27  541   3.118   5.188   7.189 -0.2911 -0.2378  0.3706
    4SM24   H54  542   3.009   5.189   7.182 -0.2518  0.3996 -0.1071
    4SM24   H55  543   3.143   5.099   7.131  0.1415  0.2183 -0.1486
    4SM24   C28  544   3.183   5.318   7.130  0.8490 -0.1838 -0.4473
    4SM24   H56  545   3.289   5.305   7.108  1.1654  1.0353  0.3320
    4SM24   H57  546   3.170   5.396   7.205 -1.0610 -1.1115  0.2216
    4SM24   C29  547   3.114   5.362   6.998 -0.3208 -0.4491  0.2955
    4SM24   H58  548   3.162   5.455   6.968  1.3478 -1.7227 -1.1272
    4SM24   H59  549   3.011   5.394   7.013  0.3159  2.0111 -0.4495
    4SM24   C30  550   3.135   5.260   6.892 -0.2243  0.0846  0.2590
    4SM24   H60  551   3.090   5.165   6.922  0.5236 -0.5333 -0.5770
    4SM24   H61  552   3.241   5.237   6.888 -0.3347 -0.7686  1.7076
    4SM24   C31  553   3.079   5.305   6.756  0.3907 -0.1591 -0.1233
    4SM24   H62  554   3.145   5.385   6.721  0.9638  0.7426  2.8576
    4SM24   H63  555   2.984   5.358   6.755 -0.7783 -2.1841  0.3110
    4SM24   C32  556   3.095   5.197   6.649  0.2644 -0.2980  0.6502
    4SM24   H64  557   3.032   5.110   6.668  2.3460 -1.2401  3.5956
    4SM24   H65  558   3.199   5.165   6.644  0.8129  1.2606  1.5366
    4SM24   C33  559   3.069   5.242   6.508 -0.0524  0.4639 -0.0302
    4SM24   H66  560   3.125   5.332   6.482  1.6575 -0.5061  0.2304
    4SM24   H67  561   2.965   5.264   6.484 -0.1960 -3.6469 -3.7752
    4SM24   C34  562   3.098   5.135   6.404 -0.1028  0.5580 -0.2808
    4SM24   H68  563   3.061   5.037   6.432  0.1879  0.1627 -1.2640
    4SM24   H69  564   3.203   5.109   6.396  0.5191  2.3912  1.5152
    4SM24   C35  565   3.037   5.173   6.266  0.5218  0.0838 -0.2982
    4SM24   H70  566   2.929   5.160   6.272  0.4160 -0.5238 -3.0181
    4SM24   H71  567   3.097   5.115   6.196  2.5265  0.2062  1.2616
    4SM24   C36  568   3.069   5.313   6.203 -0.1132  0.0299 -0.5918
    4SM24   H72  569   3.063   5.296   6.096  2.9005 -2.4167 -0.4541
    4SM24   H73  570   3.174   5.339   6.212  0.1152 -0.6616 -1.1288
    4SM24   C37  571   2.980   5.430   6.233  0.1193  1.0719  0.2890
    4SM24   H74  572   2.988   5.435   6.342 -0.8696  0.5724  0.4009
    4SM24   H75  573   2.878   5.404   6.205  0.0771  1.3523  0.1747
    4SM24   C38  574   3.025   5.566   6.185  0.2865 -0.8934 -0.3741
    4SM24   H76  575   3.062   5.556   6.083  1.4651  1.7396 -0.2445
    4SM24   H77  576   3.112   5.602   6.240  0.0758 -1.7628  0.5500
    4SM24   C39  577   2.913   5.669   6.186 -0.5951 -0.1728  0.2555
    4SM24   H78  578   2.844   5.636   6.109 -0.0928  1.0424 -0.7226
    4SM24   H79  579   2.956   5.765   6.156 -0.6875  0.1187  1.0213
    4SM24   C40  580   2.847   5.694   6.321 -0.2585 -0.0074  0.6329
    4SM24   H80  581   2.764   5.763   6.311  1.2125  2.1046  2.5217
    4SM24   H81  582   2.796   5.601   6.348 -0.6816  0.0184 -0.0627
    4SM24   C41  583   2.944   5.746   6.424 -0.2019  0.0493  0.0886
    4SM24   H82  584   3.036   5.689   6.433  0.5624  1.2029 -0.3343
    4SM24   H83  585   2.977   5.850   6.417  0.0982 -0.1590 -1.9849
    4SM24   C42  586   2.881   5.758   6.564  0.0762  0.5795 -0.0485
    4SM24   H84  587   2.862   5.653   6.585 -0.1355  0.1675 -2.1574
    4SM24   H85  588   2.795   5.825   6.556 -0.1264  0.6128  2.2199
    4SM24   C43  589   2.967   5.824   6.671  0.0963 -0.0730 -0.9922
    4SM24   H86  590   2.983   5.931   6.658 -3.4597  0.4513 -1.5352
    4SM24   H87  591   3.069   5.786   6.665 -0.9192 -2.9100 -1.3186
    4SM24   C44  592   2.902   5.796   6.802 -0.6939  0.6410  0.0626
    4SM24   H88  593   2.801   5.836   6.812  0.0702  2.1021  2.2910
    4SM24   H89  594   2.886   5.688   6.806 -0.0155  0.5209 -0.2894
    4SM24   C45  595   2.988   5.842   6.926  0.4789  0.2729  0.2811
    4SM24   H90  596   3.023   5.944   6.910  0.6514  0.1486 -0.1578
    4SM24   H91  597   3.076   5.780   6.944 -0.8197 -1.1941  1.7117
    4SM24   C46  598   2.914   5.830   7.053  0.1879 -0.1939 -0.8966
    4SM24   H92  599   2.818   5.882   7.049 -0.0871 -0.7486 -1.6216
    4SM24   H93  600   2.890   5.726   7.072 -0.3659  0.7389  4.1719
    4SM24   C47  601   2.995   5.879   7.176 -0.1051  0.4392 -0.0320
    4SM24   H94  602   3.096   5.837   7.185 -0.4488 -0.4144 -0.0505
    4SM24   H95  603   3.006   0.038   7.181 -2.6547  0.6267  2.6309
    4SM24   H96  604   2.937   5.854   7.265 -1.6416 -2.0420 -1.6632
    5SM24    N1  605   3.207   0.231   8.338  0.1630 -0.0841  0.3995
    5SM24    C1  606   3.246   0.284   8.202 -0.0009 -0.4828 -0.2715
    5SM24    H1  607   3.326   0.358   8.212 -0.5897 -0.0217  1.0902
    5SM24    H2  608   3.296   0.220   8.129  0.7355 -0.0812 -0.1271
    5SM24    C2  609   3.138   0.331   8.424 -0.0571 -0.1609  0.1839
    5SM24    H3  610   3.202   0.419   8.436  0.9449 -0.6052 -1.6715
    5SM24    H4  611   3.048   0.356   8.369  0.9179  2.8863 -0.1683
    5SM24    H5  612   3.110   0.279   8.515  0.1296  1.4898  1.2075
    5SM24    C3  613   3.106   0.120   8.320 -0.3824  0.5980 -0.2350
    5SM24    H6  614   3.004   0.142   8.290 -0.3781 -0.5537 -1.1573
    5SM24    H7  615   3.147   0.059   8.239  2.7120  0.6480  1.1854
    5SM24    H8  616   3.105   0.054   8.407 -0.6314  1.5501  0.4860
    5SM24    C4  617   3.339   0.178   8.393  0.2606 -0.1288 -0.8064
    5SM24    H9  618   3.400   0.262   8.424  0.2542 -0.9955  1.6195
    5SM24   H10  619   3.310   0.126   8.484 -1.1969 -0.0009 -1.1758
    5SM24   H11  620   3.385   0.108   8.324  0.3071 -1.1435  0.2427
    5SM24    C5  621   3.137   0.362   8.123  0.2242  0.0975  0.2598
    5SM24   H12  622   3.085   0.442   8.176  1.1512  1.4756 -0.8861
    5SM24   H13  623   3.068   0.281   8.098  1.2077 -0.7069  0.1292
    5SM24    P1  624   3.166   0.379   7.859 -0.4821  0.2745 -0.2727
    5SM24    O1  625   3.160   0.232   7.860 -0.6203  0.3304 -0.0548
    5SM24    O2  626   3.274   0.444   7.784 -0.1624  0.2842  0.0503
    5SM24    O3  627   3.196   0.424   8.010  0.0255 -0.0503  0.4084
    5SM24    O4  628   3.026   0.433   7.822  0.2357  0.4641  0.2698
    5SM24    C6  629   3.007   0.573   7.815 -0.0604 -0.2150 -1.4816
    5SM24   H14  630   2.907   0.611   7.835 -0.0425  0.2397 -2.2133
    5SM24   H15  631   3.077   0.614   7.888 -0.1516 -1.0997 -0.8925
    5SM24    C7  632   3.040   0.641   7.684 -0.5127  0.1382 -0.4102
    5SM24   H16  633   3.138   0.603   7.654 -0.3082 -1.5532  2.3156
    5SM24    N2  634   3.041   0.785   7.714  0.4409  0.4866 -0.3192
    5SM24    HN  635   2.984   0.813   7.793 -1.2172 -1.4410 -0.7722
    5SM24    C8  636   2.949   0.624   7.565 -0.6232  0.3358 -0.3842
    5SM24   OSM  637   2.818   0.663   7.608  0.5741 -0.0455 -0.1331
    5SM24   HSM  638   2.805   0.753   7.632 -0.7294 -0.0487 -0.7860
    5SM24   H17  639   2.965   0.700   7.489  0.2562  0.6682  0.1327
    5SM24    C9  640   2.967   0.485   7.509  0.0370  0.1465 -0.6397
    5SM24   H18  641   3.065   0.441   7.499 -0.5110 -0.6270 -2.8141
    5SM24   C10  642   2.871   0.411   7.454  0.1900  0.4257  0.4306
    5SM24   H19  643   2.769   0.440   7.474 -0.1828 -0.0565 -0.7317
    5SM24   C11  644   2.897   0.264   7.407 -0.6157 -0.0121 -0.0338
    5SM24   H20  645   2.887   0.207   7.500  0.6964 -0.3429 -0.0875
    5SM24   H21  646   2.996   0.255   7.363 -0.0379  0.2639  1.2048
    5SM24   C12  647   2.781   0.228   7.308  0.3575 -0.6777  0.3021
    5SM24   H22  648   2.686   0.251   7.357  0.1310 -0.2032 -0.3512
    5SM24   H23  649   2.781   0.122   7.281 -3.3026 -0.7303  0.2396
    5SM24   C13  650   2.788   0.300   7.168 -0.0094  0.4227 -1.0017
    5SM24   H24  651   2.884   0.271   7.125 -0.4690  1.0307 -2.5012
    5SM24   H25  652   2.788   0.409   7.181  1.2167  0.1345  1.5604
    5SM24   C14  653   2.677   0.254   7.071 -0.5305  0.4040 -0.5749
    5SM24   H26  654   2.602   0.332   7.059 -2.1291 -1.0510 -0.3101
    5SM24   H27  655   2.621   0.169   7.111  0.8670 -0.2850 -0.0569
    5SM24   C15  656   2.732   0.224   6.927 -0.5149  0.0562 -1.2765
    5SM24   H28  657   2.808   0.150   6.952 -1.7644 -1.3982 -1.6817
    5SM24   H29  658   2.779   0.317   6.894  1.1361 -0.5986 -0.8135
    5SM24   C16  659   2.622   0.179   6.840  0.6980 -0.0258 -0.1450
    5SM24   H30  660   2.524   0.225   6.857  1.1245 -0.1132  2.6536
    5SM24   H31  661   2.610   0.071   6.837  0.1285  0.0386 -0.2554
    5SM24   C17  662   2.665   0.211   6.700  0.1018  0.5215  0.1379
    5SM24   H32  663   2.753   0.151   6.675  0.8743  0.9379  1.7832
    5SM24   H33  664   2.691   0.316   6.688  2.1861 -0.1965 -1.8912
    5SM24   C18  665   2.551   0.183   6.590  0.9213 -0.1289  1.0048
    5SM24   H34  666   2.454   0.205   6.635  1.2264  3.1190  0.1585
    5SM24   H34  667   2.543   0.082   6.549  1.4623  0.6327 -1.0191
    5SM24   C19  668   2.572   0.261   6.458 -0.0096  0.9589 -0.0502
    5SM24   H35  669   2.664   0.223   6.412 -0.0181  0.5719  0.2484
    5SM24   H36  670   2.576   0.370   6.470  1.3114  0.6352  2.9003
    5SM24   C20  671   2.461   0.237   6.359 -0.1460  0.2982 -0.6164
    5SM24   H37  672   2.367   0.284   6.387 -1.3169 -1.2256 -1.8872
    5SM24   H38  673   2.432   0.132   6.356  0.8465  0.0021 -0.1506
    5SM24   C21  674   2.499   0.281   6.220  0.7914  0.2669  0.2337
    5SM24   H39  675   2.595   0.232   6.201  0.5281 -0.5624  1.0563
    5SM24   H40  676   2.520   0.388   6.231  0.8916  0.0579  2.2233
    5SM24   C22  677   2.385   0.261   6.115 -0.3700 -0.3700 -1.0532
    5SM24   H41  678   2.290   0.283   6.162 -0.0397  1.3662 -1.1571
    5SM24   H42  679   2.391   0.157   6.082 -0.0054 -0.5653 -0.3883
    5SM24   C23  680   2.393   0.361   5.998 -0.5183  0.1907  0.3775
    5SM24   H43  681   2.377   0.462   6.036  2.1394  0.7935 -0.0328
    5SM24   H44  682   2.481   0.365   5.935 -2.1832  3.3646 -1.9005
    5SM24   H45  683   2.314   0.348   5.924 -2.4983  1.9113  2.1059
    5SM24   C24  684   3.102   0.872   7.638  0.4400  0.0698  0.2274
    5SM24   O33  685   3.172   0.844   7.538 -0.4389 -0.2613  0.2049
    5SM24   C25  686   3.087   1.025   7.661  0.1089  0.5110 -0.1682
    5SM24   H50  687   3.140   1.039   7.756  1.1556  2.0480 -0.9630
    5SM24   H51  688   2.983   1.054   7.676 -0.6429 -0.9563 -2.3877
    5SM24   C26  689   3.145   1.117   7.554 -0.7423 -0.2442 -0.3396
    5SM24   H52  690   3.252   1.110   7.535 -0.8109  1.0852 -1.2636
    5SM24   H53  691   3.140   1.212   7.606  0.3067 -0.8666  0.9486
    5SM24   C27  692   3.070   1.126   7.421 -0.2379  0.2195  0.1689
    5SM24   H54  693   2.968   1.157   7.445 -0.2260  1.3678 -1.2302
    5SM24   H55  694   3.047   1.031   7.373  1.7089  0.8120 -1.9795
    5SM24   C28  695   3.130   1.227   7.319 -0.1142 -0.1535 -0.0895
    5SM24   H56  696   3.232   1.196   7.300 -0.2909  0.6350 -2.4186
    5SM24   H57  697   3.137   1.325   7.365 -2.5719  0.2166 -0.4242
    5SM24   C29  698   3.046   1.245   7.187  0.1304 -0.1557 -0.4652
    5SM24   H58  699   3.014   1.160   7.128  0.6648  1.6834 -3.5257
    5SM24   H59  700   3.116   1.290   7.117 -0.7363 -1.2525 -2.0499
    5SM24   C30  701   2.928   1.337   7.221  0.1190  0.0597  0.0719
    5SM24   H60  702   2.952   1.438   7.255  0.2435  0.3550 -0.8688
    5SM24   H61  703   2.870   1.292   7.302  0.1271 -0.6508 -0.3113
    5SM24   C31  704   2.832   1.346   7.108  0.1368  0.0738 -0.0761
    5SM24   H62  705   2.806   1.247   7.069 -2.4230  0.5488  0.3808
    5SM24   H63  706   2.869   1.411   7.028 -2.4851  1.5004 -0.1620
    5SM24   C32  707   2.696   1.394   7.157 -0.6606 -0.3528  0.1513
    5SM24   H64  708   2.708   1.497   7.190 -1.1256  0.2460 -1.5009
    5SM24   H65  709   2.658   1.338   7.243 -0.1606  2.0528  1.9917
    5SM24   C33  710   2.576   1.380   7.062 -0.0669  0.0455 -0.0510
    5SM24   H66  711   2.550   1.274   7.069  2.7814 -0.6457  0.7739
    5SM24   H67  712   2.613   1.378   6.959  0.9366  0.9773  0.2808
    5SM24   C34  713   2.445   1.474   7.081 -0.0321 -0.3082 -0.4705
    5SM24   H68  714   2.359   1.456   7.017 -2.5841 -0.6946  2.9059
    5SM24   H69  715   2.485   1.574   7.067 -0.1602 -0.1696  0.1488
    5SM24   C35  716   2.393   1.479   7.225 -0.8630  0.3633  0.3397
    5SM24   H70  717   2.481   1.496   7.288 -2.3947  0.5972  2.4669
    5SM24   H71  718   2.371   1.378   7.259 -0.2104 -0.6095 -2.0224
    5SM24   C36  719   2.282   1.588   7.239  0.0794 -0.8758  0.1177
    5SM24   H72  720   2.190   1.549   7.195 -0.3558 -1.1082  1.2173
    5SM24   H73  721   2.312   1.681   7.192 -0.1406  0.3260  2.3184
    5SM24   C37  722   2.260   1.611   7.384 -0.1536  0.0506  0.2885
    5SM24   H74  723   2.352   1.621   7.441 -0.6098  1.2768  0.8231
    5SM24   H75  724   2.221   1.514   7.414 -3.1792  1.3139  0.6224
    5SM24   C38  725   2.162   1.717   7.409  0.1727  0.4669 -0.2744
    5SM24   H76  726   2.140   1.708   7.516  1.3531 -0.2421 -0.0801
    5SM24   H77  727   2.071   1.700   7.352  0.1306 -1.7127  0.4064
    5SM24   C39  728   2.218   1.857   7.382  0.0344 -0.4373  0.5322
    5SM24   H78  729   2.250   1.866   7.279 -0.6142  0.4441  0.4026
    5SM24   H79  730   2.295   1.894   7.450 -1.6311  2.6750  0.8463
    5SM24   C40  731   2.112   1.962   7.384 -0.4045 -0.4712 -0.6571
    5SM24   H80  732   2.079   1.968   7.487 -0.4218  2.6742 -0.7927
    5SM24   H81  733   2.159   2.061   7.376  3.0692 -1.8303  1.6768
    5SM24   C41  734   1.971   1.937   7.309 -0.3577 -0.7194  0.4355
    5SM24   H82  735   1.920   1.855   7.360  0.9897 -0.9466  1.4532
    5SM24   H83  736   1.899   2.018   7.315 -0.0039 -0.4641  1.2879
    5SM24   C42  737   1.973   1.893   7.162 -0.0064  0.2931  0.1617
    5SM24   H84  738   1.875   1.850   7.143  0.3927 -0.7534  0.4194
    5SM24   H85  739   2.050   1.818   7.143  1.9054  2.7024 -1.9832
    5SM24   C43  740   2.010   2.013   7.072 -0.4148 -0.6293  0.8455
    5SM24   H86  741   2.112   2.037   7.101 -1.0249  1.0489  1.7120
    5SM24   H87  742   1.945   2.097   7.098  0.3983  0.8647 -1.7330
    5SM24   C44  743   2.012   1.975   6.920 -0.0825 -0.2543  0.0378
    5SM24   H88  744   2.086   2.033   6.865 -0.8737  0.2447 -0.5116
    5SM24   H89  745   2.048   1.873   6.910  1.6885  0.0396  2.8686
    5SM24   C45  746   1.874   1.990   6.857  0.2940  0.3980  0.1051
    5SM24   H90  747   1.847   2.094   6.876  2.0994  0.9106 -0.1076
    5SM24   H91  748   1.797   1.934   6.910 -0.0406  2.7258  2.1654
    5SM24   C46  749   1.881   1.967   6.702  0.3115 -0.4573 -0.5241
    5SM24   H92  750   1.784   1.941   6.661  0.0819  0.5006 -0.5880
    5SM24   H93  751   1.925   2.050   6.647 -0.1383  1.0050  1.2663
    5SM24   C47  752   1.968   1.847   6.665 -0.5901  0.2245  0.5752
    5SM24   H94  753   2.076   1.850   6.681 -0.5241 -0.2326  0.2283
    5SM24   H95  754   1.929   1.753   6.704 -0.9271 -0.3356 -1.0400
    5SM24   H96  755   1.940   1.829   6.561  3.3603  1.8408 -0.8855
    6SM24    N1  756   5.609   2.710   8.425  0.4284 -0.8673  0.1583
    6SM24    C1  757   5.653   2.566   8.404 -0.4276  0.2764 -0.8960
    6SM24    H1  758   5.710   2.527   8.489 -1.3334  1.5688  0.3455
    6SM24    H2  759   5.562   2.507   8.392  0.7008 -1.4410 -1.1299
    6SM24    C2  760   5.537   2.778   8.306 -0.0219 -0.4281 -0.0050
    6SM24    H3  761   5.510   2.879   8.335  0.6592 -0.1879 -0.2112
    6SM24    H4  762   5.588   2.784   8.210 -4.4178  2.0033 -2.3409
    6SM24    H5  763   5.442   2.724   8.301 -0.3795 -0.0140  1.9607
    6SM24    C3  764   5.514   2.713   8.540 -0.2223  0.0863  0.1449
    6SM24    H6  765   5.424   2.652   8.533 -1.0981  1.4218 -0.2988
    6SM24    H7  766   5.570   2.686   8.630  3.5906  1.3609 -1.7111
    6SM24    H8  767   5.488   2.817   8.556  0.6720  0.7874 -2.6861
    6SM24    C4  768   5.722   2.790   8.472 -0.0798  0.5522 -0.0995
    6SM24    H9  769   5.789   2.741   8.542 -0.4304 -0.3878 -0.4054
    6SM24   H10  770   5.792   2.828   8.398  1.3355 -0.1786  0.8434
    6SM24   H11  771   5.683   2.885   8.507 -0.1567  0.7436 -0.6908
    6SM24    C5  772   5.747   2.543   8.281 -0.2319 -0.5670 -0.0847
    6SM24   H12  773   5.845   2.586   8.298 -0.6055  0.5993 -0.8059
    6SM24   H13  774   5.719   2.584   8.184  0.7580 -0.3780 -0.2977
    6SM24    P1  775   5.850   2.362   8.135  0.1553  0.4241 -0.4151
    6SM24    O1  776   5.861   2.214   8.144  0.4964  0.0032  0.0268
    6SM24    O2  777   0.024   2.446   8.127  0.4621 -0.3343  0.0952
    6SM24    O3  778   5.779   2.407   8.266  0.2571  0.1057 -0.1100
    6SM24    O4  779   5.749   2.392   8.014  0.4530  0.3555 -0.1951
    6SM24    C6  780   5.798   2.467   7.901  0.0303  0.1867 -0.3694
    6SM24   H14  781   5.734   2.554   7.883 -1.1198 -0.2211  1.4991
    6SM24   H15  782   5.890   2.524   7.916  1.8280 -2.3544 -1.4779
    6SM24    C7  783   5.801   2.376   7.775 -0.7971  0.0373  0.2543
    6SM24   H16  784   5.863   2.289   7.799 -1.1886 -0.4648 -0.5289
    6SM24    N2  785   5.845   2.445   7.653 -0.6127 -0.2099  0.2535
    6SM24    HN  786   5.778   2.465   7.581  4.7090  1.7384 -4.5589
    6SM24    C8  787   5.659   2.307   7.752 -0.2035  0.6806 -0.0616
    6SM24   OSM  788   5.649   2.200   7.842  0.0627 -0.0520  0.0456
    6SM24   HSM  789   5.662   2.247   7.923  3.3608 -1.1583  0.2246
    6SM24   H17  790   5.590   2.390   7.769 -0.9606  0.1269 -0.4161
    6SM24    C9  791   5.636   2.238   7.622  0.1679 -0.0717  1.1281
    6SM24   H18  792   5.695   2.148   7.611 -0.4379 -0.1305 -2.1452
    6SM24   C10  793   5.568   2.286   7.515 -0.3620 -1.1375 -0.3997
    6SM24   H19  794   5.534   2.388   7.522  1.5347 -0.4395 -0.7948
    6SM24   C11  795   5.555   2.226   7.371 -0.2154  0.3839 -0.0183
    6SM24   H20  796   5.652   2.178   7.352 -0.4200 -0.2420  0.4871
    6SM24   H21  797   5.536   2.309   7.303  0.4764  1.5967  1.2309
    6SM24   C12  798   5.443   2.119   7.357  0.1651 -0.2246 -0.4965
    6SM24   H22  799   5.348   2.156   7.394  0.0215 -0.5034 -0.5841
    6SM24   H23  800   5.477   2.029   7.409 -0.3918 -0.0499  0.1800
    6SM24   C13  801   5.445   2.092   7.210  0.1524 -0.7948  0.2071
    6SM24   H24  802   5.542   2.045   7.196  1.2024  1.5131 -0.3951
    6SM24   H25  803   5.444   2.187   7.158  1.7455 -0.6447  0.4280
    6SM24   C14  804   5.330   1.994   7.169  0.6263 -0.3457  0.2313
    6SM24   H26  805   5.235   2.038   7.199  0.0060 -1.8591  0.5778
    6SM24   H27  806   5.326   1.903   7.229  3.9628 -1.6041 -1.3358
    6SM24   C15  807   5.323   1.940   7.022 -0.6391  0.1576  0.2962
    6SM24   H28  808   5.255   1.855   7.017  0.2163 -0.4694 -1.1890
    6SM24   H29  809   5.422   1.898   7.002 -0.9431 -0.5249  0.2249
    6SM24   C16  810   5.272   2.030   6.919 -0.4160  0.4822  0.5181
    6SM24   H30  811   5.332   2.121   6.918 -0.3540  0.4589  1.5187
    6SM24   H31  812   5.167   2.044   6.943 -0.3157 -0.1466  1.3321
    6SM24   C17  813   5.275   1.970   6.778  0.4673  0.2419  0.3865
    6SM24   H32  814   5.219   1.876   6.770 -0.7913  0.9495  0.7366
    6SM24   H33  815   5.371   1.926   6.753  0.5058  0.5821 -0.0617
    6SM24   C18  816   5.242   2.064   6.662  0.0885 -0.3308 -0.1745
    6SM24   H34  817   5.316   2.144   6.656  2.0610 -1.9647  1.6451
    6SM24   H34  818   5.150   2.113   6.693  0.2150 -0.5384  0.5310
    6SM24   C19  819   5.221   1.991   6.537 -1.2752  0.0103  0.1750
    6SM24   H35  820   5.138   1.921   6.541 -2.0630  0.8903 -0.4304
    6SM24   H36  821   5.317   1.951   6.504 -1.4326  1.3870 -2.0479
    6SM24   C20  822   5.169   2.096   6.440  0.0773 -0.0751 -0.0206
    6SM24   H37  823   5.232   2.183   6.457 -2.1012  1.4884  0.1903
    6SM24   H38  824   5.067   2.128   6.463  0.7024  0.3285  2.2744
    6SM24   C21  825   5.183   2.041   6.295  0.3341 -0.2001  0.3315
    6SM24   H39  826   5.156   1.935   6.291 -0.3186  0.0262 -1.9987
    6SM24   H40  827   5.288   2.053   6.268  1.0372 -0.0683  2.9915
    6SM24   C22  828   5.122   2.137   6.197  0.0968  0.2410  0.5586
    6SM24   H41  829   5.152   2.118   6.094 -0.0803  0.4035  0.4757
    6SM24   H42  830   5.153   2.236   6.230 -1.7909  1.2255 -0.5147
    6SM24   C23  831   4.966   2.130   6.195  0.1605  0.4058  0.5902
    6SM24   H43  832   4.922   2.039   6.155  2.4061  0.0402 -1.1097
    6SM24   H44  833   4.917   2.136   6.293  1.3179  1.2824  1.1346
    6SM24   H45  834   4.919   2.212   6.140 -0.4441 -0.0891  0.3561
    6SM24   C24  835   0.023   2.488   7.641 -0.6167 -0.2390 -0.5241
    6SM24   O33  836   0.107   2.485   7.737 -0.2065  0.3414  0.1747
    6SM24   C25  837   0.072   2.555   7.519 -0.5070  0.2957  0.4308
    6SM24   H50  838   0.072   2.661   7.543 -2.0481  0.6158 -0.8380
    6SM24   H51  839   5.943   2.545   7.443 -0.4224  2.3203  0.0634
    6SM24   C26  840   0.210   2.504   7.470 -0.1380  0.0264 -0.5290
    6SM24   H52  841   0.215   2.396   7.484 -0.4573  0.1579  0.6682
    6SM24   H53  842   0.287   2.539   7.539 -2.2082  0.6633  1.5107
    6SM24   C27  843   0.250   2.549   7.331  0.0827  0.2717 -0.3945
    6SM24   H54  844   0.356   2.530   7.316 -0.1816  0.6100 -3.1272
    6SM24   H55  845   0.243   2.658   7.324 -0.4095  0.2499 -0.2823
    6SM24   C28  846   0.182   2.489   7.214  0.1646 -0.2280 -0.2942
    6SM24   H56  847   0.080   2.528   7.206 -0.2839 -0.6371  2.7462
    6SM24   H57  848   0.170   2.381   7.225 -2.3498  0.1209  0.6560
    6SM24   C29  849   0.245   2.526   7.073 -0.5613  0.5201 -0.1863
    6SM24   H58  850   0.201   2.486   6.982 -1.2869  4.3346 -1.6039
    6SM24   H59  851   0.349   2.495   7.067 -1.0381 -0.8175 -1.7312
    6SM24   C30  852   0.253   2.684   7.056  1.3916 -0.2362 -0.4157
    6SM24   H60  853   0.329   2.720   7.126  0.9568 -1.0410  0.4836
    6SM24   H61  854   0.158   2.733   7.078  2.5989  1.4361  1.2769
    6SM24   C31  855   0.294   2.725   6.915 -0.5720  0.3665 -0.0128
    6SM24   H62  856   0.249   2.647   6.853 -3.9672 -0.5078  3.3641
    6SM24   H63  857   0.403   2.719   6.904 -0.4366 -0.8879  1.8042
    6SM24   C32  858   0.251   2.860   6.865 -0.1172  0.3653  0.1388
    6SM24   H64  859   0.307   2.883   6.775 -0.4202  2.9418  0.5675
    6SM24   H65  860   0.281   2.937   6.936  1.0702  0.1160 -0.0863
    6SM24   C33  861   0.100   2.867   6.845  1.2335 -0.2341  0.2572
    6SM24   H66  862   0.085   2.971   6.817 -2.5932 -0.7229  0.2789
    6SM24   H67  863   0.047   2.842   6.937 -1.9870  2.0435 -0.8827
    6SM24   C34  864   0.045   2.774   6.737  0.0970  0.7965  0.0678
    6SM24   H68  865   0.121   2.724   6.677  0.7651  3.3732 -1.3262
    6SM24   H69  866   5.943   2.840   6.667 -0.8715 -0.5802 -0.5674
    6SM24   C35  867   5.894   2.666   6.777 -0.0042 -0.6382 -0.0120
    6SM24   H70  868   5.939   2.604   6.854 -1.0314  0.4539  1.4871
    6SM24   H71  869   5.865   2.609   6.688  0.6929 -3.0493  1.2672
    6SM24   C36  870   5.759   2.726   6.823 -0.3993 -0.0878 -0.7235
    6SM24   H72  871   5.788   2.801   6.896  1.4552 -2.4778  1.0948
    6SM24   H73  872   5.702   2.641   6.860  0.4085 -0.0103  0.7150
    6SM24   C37  873   5.679   2.788   6.717 -0.5428  0.3981 -0.5165
    6SM24   H74  874   5.672   2.720   6.632 -2.1971  0.7810 -0.7078
    6SM24   H75  875   5.731   2.868   6.666 -1.6757  1.1376 -0.5470
    6SM24   C38  876   5.540   2.819   6.752  0.5546  0.1573 -0.2706
    6SM24   H76  877   5.543   2.879   6.843 -0.1457  1.2253 -0.9309
    6SM24   H77  878   5.488   2.724   6.761  0.9376  0.2878  5.0129
    6SM24   C39  879   5.472   2.912   6.645  1.6755  0.4015 -0.0988
    6SM24   H78  880   5.513   3.010   6.670  0.0564  0.5702  2.1273
    6SM24   H79  881   5.371   2.935   6.680  1.4808 -0.0052 -0.3789
    6SM24   C40  882   5.474   2.867   6.498 -0.5431  0.2520 -0.0702
    6SM24   H80  883   5.480   2.758   6.497  0.6092  0.3110  0.0621
    6SM24   H81  884   5.381   2.905   6.456  0.0810 -0.4701 -2.1736
    6SM24   C41  885   5.583   2.929   6.419  0.4925 -0.4573  0.1938
    6SM24   H82  886   5.556   3.034   6.410  0.8274 -0.4475 -0.8043
    6SM24   H83  887   5.673   2.936   6.480  0.3901 -1.9191  0.5439
    6SM24   C42  888   5.596   2.882   6.273 -0.6704 -0.8358  0.6100
    6SM24   H84  889   5.689   2.929   6.240  0.3054 -1.1757  2.7787
    6SM24   H85  890   5.515   2.921   6.211  0.2287  1.7294  0.9872
    6SM24   C43  891   5.592   2.729   6.243  0.4323  0.1299 -0.2703
    6SM24   H86  892   5.607   2.705   6.138  1.5654  1.4708 -0.4353
    6SM24   H87  893   5.487   2.700   6.251  0.5734 -0.4048 -0.3527
    6SM24   C44  894   5.687   2.633   6.331  0.0893  0.0567 -0.0559
    6SM24   H88  895   5.667   2.640   6.438 -0.5524 -1.0078 -0.1105
    6SM24   H89  896   5.669   2.529   6.305  1.2423 -0.2286  0.2269
    6SM24   C45  897   5.831   2.672   6.318  0.0786 -0.5123 -0.0109
    6SM24   H90  898   5.897   2.609   6.378  1.4039  0.7280 -0.1349
    6SM24   H91  899   5.841   2.773   6.358 -2.6994 -0.4661  0.6429
    6SM24   C46  900   5.892   2.661   6.175 -0.1522 -0.8585  0.3203
    6SM24   H92  901   5.919   2.559   6.145  1.3553 -0.3009 -0.2978
    6SM24   H93  902   5.822   2.695   6.099 -2.6904 -1.2878  2.4169
    6SM24   C47  903   0.067   2.753   6.164  0.1573  0.0294 -0.4942
    6SM24   H94  904   0.156   2.716   6.215  0.8786  1.3257 -0.7746
    6SM24   H95  905   0.100   2.780   6.063  0.1576  0.4847 -0.3724
    6SM24   H96  906   0.036   2.852   6.198 -1.2205 -0.5768  0.0593
    7SM24    N1  907   5.066   3.199   7.495 -0.3901  0.0934  0.0345
    7SM24    C1  908   5.102   3.075   7.566 -0.2907  0.5214  0.1434
    7SM24    H1  909   5.172   3.103   7.645  0.7204  2.7459 -1.4982
    7SM24    H2  910   5.013   3.037   7.617 -1.1042  1.7834 -0.3094
    7SM24    C2  911   5.194   3.264   7.458 -0.4322  1.0374 -0.6215
    7SM24    H3  912   5.160   3.356   7.410  1.0610 -0.2181 -4.2804
    7SM24    H4  913   5.260   3.287   7.542 -0.3878  2.5957 -1.0511
    7SM24    H5  914   5.250   3.207   7.384  0.2971  0.6332  0.2229
    7SM24    C3  915   4.992   3.181   7.373 -0.2366 -0.0205 -0.2227
    7SM24    H6  916   4.970   3.281   7.335 -0.3420  0.6793  1.6235
    7SM24    H7  917   5.047   3.125   7.297  1.1184  1.8455 -0.6409
    7SM24    H8  918   4.900   3.124   7.385 -0.2798  0.0933 -0.0148
    7SM24    C4  919   4.987   3.282   7.593  0.8594 -0.8070 -0.6794
    7SM24    H9  920   5.044   3.295   7.685  0.3439  2.6169 -0.7796
    7SM24   H10  921   4.966   3.383   7.559 -0.9397 -0.6599  0.8237
    7SM24   H11  922   4.891   3.232   7.601  0.7688 -0.7518 -1.3560
    7SM24    C5  923   5.162   2.963   7.480 -0.5319 -0.1923 -0.3438
    7SM24   H12  924   5.223   3.000   7.397 -1.1960 -0.6838 -1.0661
    7SM24   H13  925   5.089   2.913   7.416  0.5001 -1.8831 -0.2126
    7SM24    P1  926   5.395   2.894   7.582 -0.2178 -0.0432  0.0885
    7SM24    O1  927   5.437   2.795   7.681  0.1135  0.6319  0.1715
    7SM24    O2  928   5.426   3.034   7.624  0.2043  0.2882 -0.2150
    7SM24    O3  929   5.238   2.880   7.567  0.4321  0.9789 -0.1649
    7SM24    O4  930   5.450   2.864   7.436  0.3014 -0.2751 -0.3899
    7SM24    C6  931   5.446   2.732   7.381 -0.5689  0.1562  0.2581
    7SM24   H14  932   5.482   2.656   7.450 -3.4650 -2.4009 -0.9025
    7SM24   H15  933   5.338   2.718   7.369 -0.1654 -0.9226 -2.3886
    7SM24    C7  934   5.521   2.725   7.248  0.0420  0.9774  0.0027
    7SM24   H16  935   5.509   2.822   7.201 -1.5192  0.9790  0.3937
    7SM24    N2  936   5.466   2.611   7.169  0.6349  0.0586 -0.0792
    7SM24    HN  937   5.521   2.527   7.177 -0.4031 -0.6728 -0.5888
    7SM24    C8  938   5.672   2.702   7.259 -0.0380 -0.0245 -0.1156
    7SM24   OSM  939   5.704   2.590   7.327 -0.5193  0.5551 -0.5397
    7SM24   HSM  940   5.706   2.622   7.416 -0.3915 -1.6012  0.2503
    7SM24   H17  941   5.708   2.690   7.157  0.6590 -0.7102  0.2158
    7SM24    C9  942   5.749   2.820   7.316 -0.2997  0.6425  0.3770
    7SM24   H18  943   5.701   2.867   7.401  0.3653  0.1532  1.0294
    7SM24   C10  944   5.867   2.860   7.274 -0.7687  0.4995 -0.0444
    7SM24   H19  945   5.913   2.799   7.198  1.3429  1.1780  0.6336
    7SM24   C11  946   5.944   2.974   7.338  0.6306 -0.4369  0.1017
    7SM24   H20  947   0.075   2.918   7.387 -1.1196 -2.4958  0.6533
    7SM24   H21  948   5.887   3.025   7.415 -0.5693  1.3057 -1.8939
    7SM24   C12  949   0.041   3.084   7.245  0.2062 -0.1628  0.5060
    7SM24   H22  950   5.904   3.137   7.205  0.4151 -1.3794 -1.5989
    7SM24   H23  951   0.085   3.052   7.150 -2.1813  0.2099 -0.7674
    7SM24   C13  952   0.130   3.191   7.309 -0.0652  0.8833 -0.6634
    7SM24   H24  953   0.222   3.138   7.336 -0.6376 -0.4498 -1.2888
    7SM24   H25  954   0.089   3.230   7.402  1.6111  1.5573 -0.1816
    7SM24   C14  955   0.152   3.314   7.214 -0.4022  0.9083  0.1411
    7SM24   H26  956   0.183   3.272   7.119 -1.2868 -0.5345  0.4845
    7SM24   H27  957   0.231   3.376   7.258  1.2626 -0.8940 -0.2084
    7SM24   C15  958   0.036   3.411   7.201  0.3355 -0.4579 -1.2694
    7SM24   H28  959   0.021   3.485   7.280  0.2063 -2.2227  0.4049
    7SM24   H29  960   5.896   3.347   7.201  1.1384 -1.7060  2.0742
    7SM24   C16  961   0.020   3.489   7.076  0.1903 -0.6897  0.4646
    7SM24   H30  962   0.098   3.565   7.087 -0.2646 -0.3081  1.1338
    7SM24   H31  963   5.867   3.526   7.075  0.7105  0.7954 -1.7533
    7SM24   C17  964   0.029   3.407   6.944  0.0644  0.6733 -0.0400
    7SM24   H32  965   5.893   3.339   6.944 -1.3726  2.3965 -0.4679
    7SM24   H33  966   0.117   3.343   6.939  0.0966  0.8342 -2.1019
    7SM24   C18  967   0.039   3.485   6.808  0.6708 -0.1650  0.4722
    7SM24   H34  968   5.908   3.559   6.806 -0.7961 -1.6992 -4.7842
    7SM24   H34  969   0.022   3.408   6.733 -2.1864  0.4072  0.4449
    7SM24   C19  970   0.170   3.559   6.787 -0.4495 -0.2946  0.0722
    7SM24   H35  971   0.257   3.494   6.805  0.1693 -0.0360 -1.9091
    7SM24   H36  972   0.182   3.628   6.871  1.2208 -0.8856  0.3449
    7SM24   C20  973   0.171   3.621   6.644 -0.1361 -0.2766 -0.2938
    7SM24   H37  974   0.086   3.674   6.602  0.2007  1.7567  1.4884
    7SM24   H38  975   0.207   3.546   6.573 -0.9600 -0.6348 -0.3375
    7SM24   C21  976   0.276   3.734   6.648 -0.0506 -0.7423 -0.1200
    7SM24   H39  977   0.368   3.703   6.697  0.0963  0.3272  0.2921
    7SM24   H40  978   0.239   3.818   6.707  1.7460  1.7536 -2.3535
    7SM24   C22  979   0.298   3.790   6.515 -0.0257 -0.2343  0.4992
    7SM24   H41  980   0.206   3.829   6.472  0.8992  1.2575 -0.1683
    7SM24   H42  981   0.318   3.711   6.442 -0.7984 -0.5073  0.5742
    7SM24   C23  982   0.408   3.894   6.506  0.5094 -0.2428  0.0514
    7SM24   H43  983   0.435   3.932   6.408 -0.9837  1.4817  0.2996
    7SM24   H44  984   0.389   3.976   6.574 -0.7998 -1.6547  1.4435
    7SM24   H45  985   0.501   3.849   6.541  1.5107  0.8791 -1.1118
    7SM24   C24  986   5.344   2.608   7.105 -0.2420 -0.0112 -0.1050
    7SM24   O33  987   5.265   2.703   7.102 -0.1465  0.0363 -0.2509
    7SM24   C25  988   5.303   2.491   7.015  0.4099 -0.2418  0.5978
    7SM24   H50  989   5.211   2.450   7.058 -1.0143 -0.5553 -2.6380
    7SM24   H51  990   5.384   2.417   7.018  0.8551  0.2160 -0.0099
    7SM24   C26  991   5.266   2.532   6.868  0.3644 -0.2363 -0.1107
    7SM24   H52  992   5.340   2.586   6.809 -0.2858  0.7495 -0.0386
    7SM24   H53  993   5.172   2.586   6.866  0.0686 -0.7727 -2.2995
    7SM24   C27  994   5.232   2.401   6.799 -0.3998 -0.4863  0.4623
    7SM24   H54  995   5.179   2.333   6.866 -1.2323 -0.6214 -0.3170
    7SM24   H55  996   5.324   2.347   6.775 -1.2128 -1.6950  0.0054
    7SM24   C28  997   5.163   2.409   6.667 -0.4465  0.0136 -1.0693
    7SM24   H56  998   5.073   2.466   6.688 -1.1829 -1.9025  1.2434
    7SM24   H57  999   5.118   2.313   6.639  1.6641 -1.4463  0.4019
    7SM24   C29 1000   5.235   2.481   6.554 -0.0464  0.3850  0.3850
    7SM24   H58 1001   5.328   2.429   6.531 -2.3300 -3.3492 -0.8902
    7SM24   H59 1002   5.253   2.585   6.581  3.7386  0.2728 -1.4251
    7SM24   C30 1003   5.142   2.491   6.429 -0.4913  0.8570 -0.6734
    7SM24   H60 1004   5.072   2.573   6.444 -1.1446  0.2430 -0.3417
    7SM24   H61 1005   5.080   2.405   6.404  1.3510 -0.8358  0.4701
    7SM24   C31 1006   5.227   2.516   6.301 -0.1371  0.1750  0.2199
    7SM24   H62 1007   5.300   2.437   6.282 -0.1584  0.3093 -0.4406
    7SM24   H63 1008   5.275   2.609   6.331  0.2819  0.0427 -0.0338
    7SM24   C32 1009   5.130   2.531   6.183 -0.0753  0.3434 -0.2894
    7SM24   H64 1010   5.057   2.609   6.204  0.2575  0.1000  1.8860
    7SM24   H65 1011   5.095   2.429   6.163  0.0716  0.2006  0.1922
    7SM24   C33 1012   5.204   2.575   6.054 -0.3112  0.3640 -0.5230
    7SM24   H66 1013   5.158   2.513   5.977 -2.2050 -1.1576  1.7647
    7SM24   H67 1014   5.306   2.541   6.072 -0.1492  0.3627 -1.4510
    7SM24   C34 1015   5.205   2.724   6.023  0.4913 -0.2602 -0.4775
    7SM24   H68 1016   5.250   2.785   6.101 -1.7725  1.9871 -0.8531
    7SM24   H69 1017   5.102   2.758   6.015  0.3484 -0.4503  0.5210
    7SM24   C35 1018   5.262   2.763   5.887 -0.3541  0.4625 -0.3658
    7SM24   H70 1019   5.244   2.868   5.867  1.1927  0.5105 -1.5845
    7SM24   H71 1020   5.209   2.702   5.813  0.5644 -1.5452  0.5702
    7SM24   C36 1021   5.406   2.728   5.858  1.0088 -0.3183  0.6694
    7SM24   H72 1022   5.423   2.620   5.865 -2.3329 -1.0735 -1.5965
    7SM24   H73 1023   5.464   2.771   5.939 -1.1279  1.4444  1.3208
    7SM24   C37 1024   5.450   2.789   5.721 -0.6264 -0.4200  0.0424
    7SM24   H74 1025   5.414   2.891   5.717  1.6985  0.4048 -0.7774
    7SM24   H75 1026   5.389   2.736   5.648 -0.5829  0.6404 -0.7699
    7SM24   C38 1027   5.600   2.776   5.685  0.2237  0.8914  0.2692
    7SM24   H76 1028   5.626   2.676   5.721 -3.1914  0.1912  1.0198
    7SM24   H77 1029   5.661   2.845   5.742  0.3129 -0.2223  1.5326
    7SM24   C39 1030   5.625   2.789   5.535 -0.0685 -0.2043 -0.0783
    7SM24   H78 1031   5.582   2.884   5.502  1.7549  0.3481 -0.9508
    7SM24   H79 1032   5.565   2.713   5.485  0.5113 -0.0796 -0.9703
    7SM24   C40 1033   5.772   2.782   5.497  0.3388 -0.0223  0.4294
    7SM24   H80 1034   5.831   2.775   5.588  2.1874  1.0808 -0.6609
    7SM24   H81 1035   5.789   2.690   5.441 -0.0089 -0.4801  1.0724
    7SM24   C41 1036   5.824   2.894   5.402 -0.0634 -0.4154 -0.2491
    7SM24   H82 1037   5.753   2.911   5.321 -1.1527  1.3408  1.0415
    7SM24   H83 1038   5.847   2.988   5.453  1.3273 -0.4147 -0.8572
    7SM24   C42 1039   0.017   2.849   5.350 -0.1863  0.0053  0.1872
    7SM24   H84 1040   0.032   2.747   5.315 -2.3134 -0.9746  1.9943
    7SM24   H85 1041   0.078   2.838   5.441  2.2083 -1.2151 -1.4875
    7SM24   C43 1042   0.081   2.944   5.253  0.1461 -0.4062  1.0506
    7SM24   H86 1043   0.079   3.051   5.276  0.8781  0.1341 -1.2871
    7SM24   H87 1044   0.021   2.933   5.162  4.2881  2.4380 -2.2276
    7SM24   C44 1045   0.228   2.912   5.210 -0.5296  0.1723  0.0879
    7SM24   H88 1046   0.287   2.922   5.302 -0.9769 -1.6329  0.6063
    7SM24   H89 1047   0.246   2.814   5.166 -0.1174  0.8081 -1.1630
    7SM24   C45 1048   0.274   3.022   5.107 -0.6545 -0.5931 -0.0237
    7SM24   H90 1049   0.381   3.002   5.099 -0.9694 -2.2417 -0.3374
    7SM24   H91 1050   0.273   3.118   5.158 -0.1585  0.6858 -2.3325
    7SM24   C46 1051   0.206   3.025   4.975  0.9296 -0.7859 -0.0663
    7SM24   H92 1052   0.278   3.044   4.896  0.0029  3.3783 -0.0532
    7SM24   H93 1053   0.164   2.925   4.965  2.7620 -1.6872  1.0140
    7SM24   C47 1054   0.095   3.139   4.953 -0.1060  0.5886  0.2357
    7SM24   H94 1055   0.045   3.128   4.857 -1.6133 -0.6112  1.1298
    7SM24   H95 1056   0.006   3.113   5.010 -0.2670 -1.9424 -1.0984
    7SM24   H96 1057   0.116   3.241   4.984 -0.8722  0.3002  1.7675
    8SM24    N1 1058   4.411   4.327   8.626  0.2461 -0.0517 -0.4063
    8SM24    C1 1059   4.460   4.451   8.558  0.6673  0.1196 -1.0600
    8SM24    H1 1060   4.411   4.540   8.598 -0.1134 -0.4195 -0.8127
    8SM24    H2 1061   4.562   4.462   8.596  0.8205  1.2165 -1.7657
    8SM24    C2 1062   4.268   4.304   8.596 -0.3697 -1.2304 -0.5639
    8SM24    H3 1063   4.227   4.235   8.669 -0.0599  0.3852  1.1956
    8SM24    H4 1064   4.203   4.391   8.604  1.1920  0.1639 -2.3221
    8SM24    H5 1065   4.255   4.261   8.497 -1.3154 -0.0916 -0.9465
    8SM24    C3 1066   4.490   4.212   8.594  0.5097 -0.1328  0.8096
    8SM24    H6 1067   4.511   4.182   8.491 -0.3597 -0.1254  0.6266
    8SM24    H7 1068   4.586   4.215   8.646  0.1783 -0.0439  1.4145
    8SM24    H8 1069   4.437   4.121   8.621 -1.6859  1.0145  0.4415
    8SM24    C4 1070   4.432   4.353   8.773  0.3608 -0.6855 -0.1972
    8SM24    H9 1071   4.534   4.376   8.801  0.2009 -1.7538  1.3640
    8SM24   H10 1072   4.370   4.432   8.816  1.2238  0.8620 -1.7328
    8SM24   H11 1073   4.410   4.258   8.824 -0.4683 -2.1146 -3.0973
    8SM24    C5 1074   4.457   4.462   8.409  0.4010  0.1431 -0.3119
    8SM24   H12 1075   4.352   4.457   8.379 -0.2063  1.9306  1.3910
    8SM24   H13 1076   4.511   4.387   8.351  0.2838  0.8808 -1.4003
    8SM24    P1 1077   4.610   4.598   8.254 -0.5404  0.1756 -0.3769
    8SM24    O1 1078   4.738   4.539   8.288  0.3151  0.9553  1.0564
    8SM24    O2 1079   4.611   4.738   8.210 -0.0825  0.3297 -0.7182
    8SM24    O3 1080   4.515   4.588   8.381 -0.4799 -0.1303 -0.1136
    8SM24    O4 1081   4.547   4.514   8.134 -0.1687  0.4768 -1.0472
    8SM24    C6 1082   4.421   4.534   8.082 -0.6384  0.4379 -0.1596
    8SM24   H14 1083   4.381   4.434   8.064  0.7250 -0.0434 -0.5522
    8SM24   H15 1084   4.358   4.577   8.160  1.4250  1.5677  0.9396
    8SM24    C7 1085   4.417   4.615   7.945  0.2373  0.2973 -0.2431
    8SM24   H16 1086   4.455   4.716   7.963  2.1987 -0.5678  0.6100
    8SM24    N2 1087   4.276   4.609   7.906  0.8304 -0.6592 -0.6753
    8SM24    HN 1088   4.227   4.526   7.935  2.5338 -1.7641 -0.8396
    8SM24    C8 1089   4.496   4.554   7.827 -0.0145 -0.4880 -0.3616
    8SM24   OSM 1090   4.449   4.420   7.811  0.5644 -0.2920 -0.5445
    8SM24   HSM 1091   4.357   4.428   7.794  0.0524  0.7571  2.3834
    8SM24   H17 1092   4.476   4.595   7.728 -1.9312  0.4289  0.3926
    8SM24    C9 1093   4.640   4.548   7.853  0.2563  0.1325 -0.0562
    8SM24   H18 1094   4.667   4.475   7.928  1.2445 -0.1518 -0.6770
    8SM24   C10 1095   4.728   4.628   7.784 -0.1957 -0.0833 -0.0262
    8SM24   H19 1096   4.690   4.698   7.711  0.1955 -0.2650 -0.4084
    8SM24   C11 1097   4.877   4.618   7.790 -0.1283  0.0103 -0.4428
    8SM24   H20 1098   4.917   4.594   7.691  0.0610  0.7898 -0.5608
    8SM24   H21 1099   4.907   4.530   7.847 -2.2385 -1.7652 -2.0060
    8SM24   C12 1100   4.952   4.749   7.842  0.3707  0.0127  0.0707
    8SM24   H22 1101   5.056   4.718   7.841  0.7072  1.0852 -1.8384
    8SM24   H23 1102   4.926   4.770   7.945  0.8927 -0.1264  0.2319
    8SM24   C13 1103   4.935   4.875   7.753 -0.2373 -0.0448 -0.8605
    8SM24   H24 1104   4.995   4.950   7.804  1.1591 -2.2708  0.8826
    8SM24   H25 1105   4.831   4.908   7.759  0.3014  1.3730  1.1721
    8SM24   C14 1106   4.978   4.855   7.607 -0.8214  0.3082 -0.1605
    8SM24   H26 1107   4.909   4.788   7.556  0.0790 -1.0680  0.4304
    8SM24   H27 1108   5.074   4.804   7.604 -1.3805 -0.6671 -2.7062
    8SM24   C15 1109   4.987   4.988   7.525 -0.0097 -0.0394 -0.0277
    8SM24   H28 1110   5.078   5.039   7.556 -0.4512 -0.2052  1.5992
    8SM24   H29 1111   4.901   5.054   7.539  0.1866  0.7227 -2.2630
    8SM24   C16 1112   5.008   4.961   7.368  0.6021  0.2312  0.6093
    8SM24   H30 1113   4.949   4.874   7.341  0.8608 -0.2937  1.6954
    8SM24   H31 1114   5.109   4.919   7.365  0.9442  1.0121  0.8425
    8SM24   C17 1115   4.988   5.088   7.283 -0.2108 -0.2396 -0.4032
    8SM24   H32 1116   5.041   5.171   7.331  2.0237 -1.3901 -0.8221
    8SM24   H33 1117   4.880   5.104   7.291 -0.1243  0.2331 -0.1752
    8SM24   C18 1118   5.034   5.080   7.142  0.2121  0.5138 -0.2649
    8SM24   H34 1119   4.985   5.162   7.088 -0.4030 -1.8704 -3.4867
    8SM24   H34 1120   4.989   4.995   7.091  1.5604 -0.8324  0.7515
    8SM24   C19 1121   5.185   5.075   7.124 -0.2391 -0.2802  0.3220
    8SM24   H35 1122   5.225   4.977   7.150 -2.1404 -1.3494 -0.6853
    8SM24   H36 1123   5.233   5.149   7.189 -0.2625  0.3336 -0.3555
    8SM24   C20 1124   5.222   5.108   6.977  0.1832  0.0293 -0.2733
    8SM24   H37 1125   5.187   5.209   6.955  0.4890  0.2574  0.2672
    8SM24   H38 1126   5.171   5.041   6.909 -1.2219  1.4064 -0.5993
    8SM24   C21 1127   5.367   5.095   6.943 -0.3311 -0.2385  0.0170
    8SM24   H39 1128   5.431   5.166   6.996  2.4508 -1.3145 -1.7547
    8SM24   H40 1129   5.377   5.125   6.838 -3.4106  1.4267  0.1464
    8SM24   C22 1130   5.429   4.956   6.951 -0.5155 -0.2712 -0.2748
    8SM24   H41 1131   5.421   4.922   7.055  0.9851 -1.2288 -0.4644
    8SM24   H42 1132   5.531   4.943   6.914  0.1721  2.8695  0.3036
    8SM24   C23 1133   5.366   4.849   6.861 -0.8202 -0.0110  0.7294
    8SM24   H43 1134   5.260   4.830   6.881 -0.6997 -4.5544 -2.2122
    8SM24   H44 1135   5.370   4.884   6.758  0.3380 -2.3321 -0.0559
    8SM24   H45 1136   5.417   4.753   6.869  2.7569  1.7441 -0.2198
    8SM24   C24 1137   4.221   4.676   7.811 -0.5602 -0.1168 -0.3928
    8SM24   O33 1138   4.279   4.765   7.742  0.4213  0.0198 -1.1599
    8SM24   C25 1139   4.066   4.680   7.785 -0.0579 -0.6038  0.1382
    8SM24   H50 1140   4.025   4.774   7.823  0.8765 -0.8656  1.8260
    8SM24   H51 1141   4.020   4.601   7.844 -1.9963 -1.7072 -2.7022
    8SM24   C26 1142   4.032   4.649   7.634  0.7226  0.1785 -0.6190
    8SM24   H52 1143   4.061   4.546   7.615  1.6590  0.6181 -1.6522
    8SM24   H53 1144   4.097   4.705   7.567 -0.4772  0.4772 -1.5521
    8SM24   C27 1145   3.890   4.681   7.592  0.2459 -0.4379 -0.0056
    8SM24   H54 1146   3.883   4.789   7.577 -1.0002 -0.5538 -0.3377
    8SM24   H55 1147   3.815   4.653   7.666  0.1611 -0.4305 -0.0878
    8SM24   C28 1148   3.872   4.597   7.466 -0.3508 -0.2737  0.5159
    8SM24   H56 1149   3.890   4.491   7.485 -0.1617 -0.3132  0.1231
    8SM24   H57 1150   3.958   4.617   7.402 -0.2124 -0.7222  0.5600
    8SM24   C29 1151   3.734   4.614   7.390 -0.2698 -0.1385 -0.0622
    8SM24   H58 1152   3.700   4.718   7.392  1.1576  0.3463 -0.4600
    8SM24   H59 1153   3.666   4.544   7.440  0.7982 -0.1389  1.4243
    8SM24   C30 1154   3.753   4.572   7.244 -0.4827 -0.1401  0.2888
    8SM24   H60 1155   3.784   4.468   7.233 -1.2605 -0.4277  0.7502
    8SM24   H61 1156   3.834   4.630   7.200  0.0872  0.5567  2.1977
    8SM24   C31 1157   3.627   4.592   7.159  0.2744 -0.2725 -0.4546
    8SM24   H62 1158   3.582   4.686   7.192  1.3415  0.5471 -1.2822
    8SM24   H63 1159   3.550   4.517   7.175  0.3158 -0.1161  0.5273
    8SM24   C32 1160   3.655   4.601   7.010 -0.3120  0.2751 -0.1888
    8SM24   H64 1161   3.725   4.680   6.985  1.4479 -2.2083 -3.5691
    8SM24   H65 1162   3.567   4.620   6.949  0.0696 -0.5895 -1.0174
    8SM24   C33 1163   3.706   4.456   6.968  0.1955  0.3044 -0.1964
    8SM24   H66 1164   3.646   4.376   7.010  1.0888 -0.6798 -0.7549
    8SM24   H67 1165   3.810   4.437   6.994  0.2333 -1.4800 -1.5199
    8SM24   C34 1166   3.697   4.439   6.815 -0.0129 -0.1309  0.6057
    8SM24   H68 1167   3.777   4.368   6.795  1.4142  1.9579 -1.3827
    8SM24   H69 1168   3.724   4.531   6.763  1.3426 -1.0901 -0.4468
    8SM24   C35 1169   3.565   4.373   6.766  0.1012  0.8345  0.2188
    8SM24   H70 1170   3.474   4.433   6.775 -0.2773  0.1379  1.2643
    8SM24   H71 1171   3.545   4.287   6.831  2.6418  1.0063  1.2828
    8SM24   C36 1172   3.568   4.331   6.614  0.3317 -0.4064 -0.1245
    8SM24   H72 1173   3.618   4.234   6.612  2.4701  0.6225  1.3035
    8SM24   H73 1174   3.624   4.403   6.554 -0.0448 -1.5835 -1.9136
    8SM24   C37 1175   3.421   4.315   6.569  0.1333  0.1488 -0.1091
    8SM24   H74 1176   3.367   4.410   6.559  0.9659  0.6287 -0.1680
    8SM24   H75 1177   3.366   4.254   6.640 -1.0569 -1.4171 -2.3336
    8SM24   C38 1178   3.404   4.245   6.436  0.6066 -0.1720 -0.9306
    8SM24   H76 1179   3.303   4.203   6.437  0.8007 -0.6506  1.3560
    8SM24   H77 1180   3.457   4.150   6.443 -1.6091 -1.5587 -2.1009
    8SM24   C39 1181   3.425   4.331   6.318  0.9274 -0.7903 -0.0398
    8SM24   H78 1182   3.533   4.335   6.309  0.9140 -0.1798  0.0784
    8SM24   H79 1183   3.376   4.427   6.332 -4.2713 -3.2267 -0.2311
    8SM24   C40 1184   3.348   4.278   6.193  0.5226  0.1720  1.1623
    8SM24   H80 1185   3.408   4.319   6.111  0.9173 -3.6332 -0.5524
    8SM24   H81 1186   3.360   4.173   6.170 -1.0333  0.3868 -0.7001
    8SM24   C41 1187   3.202   4.340   6.186 -0.1674  0.5285 -0.0338
    8SM24   H82 1188   3.145   4.306   6.272  0.5400 -1.8934 -0.4791
    8SM24   H83 1189   3.205   4.449   6.187  2.4700  0.5687 -2.8600
    8SM24   C42 1190   3.128   4.296   6.059 -0.2034  0.2894 -0.5666
    8SM24   H84 1191   3.133   4.187   6.069  0.2098  0.3569  0.0212
    8SM24   H85 1192   3.188   4.328   5.973 -1.1195  1.5498 -0.7520
    8SM24   C43 1193   2.989   4.363   6.053  0.7158  0.3754  0.1492
    8SM24   H86 1194   2.994   4.472   6.045  0.0535  0.4390  0.5225
    8SM24   H87 1195   2.932   4.337   6.142 -0.2028  1.9627  0.0473
    8SM24   C44 1196   2.905   4.324   5.926 -0.1759 -0.6875 -0.0885
    8SM24   H88 1197   2.976   4.339   5.844  0.4892  1.2208  0.7881
    8SM24   H89 1198   2.881   4.218   5.929  0.1640 -0.7494  1.3480
    8SM24   C45 1199   2.782   4.414   5.902 -0.7375 -0.6477  0.3383
    8SM24   H90 1200   2.747   4.452   5.998 -1.7180 -1.6958  0.4088
    8SM24   H91 1201   2.702   4.349   5.866 -0.6849 -1.9257  2.4163
    8SM24   C46 1202   2.805   4.526   5.799  0.1037  0.1141  0.6806
    8SM24   H92 1203   2.896   4.581   5.823  1.2309 -1.4600  0.0712
    8SM24   H93 1204   2.835   4.483   5.703 -1.4016 -0.8877  0.6291
    8SM24   C47 1205   2.681   4.620   5.775 -0.6508 -1.1968  0.0267
    8SM24   H94 1206   2.584   4.573   5.755 -1.9080  2.7555 -4.0516
    8SM24   H95 1207   2.664   4.692   5.855 -1.2754  3.2724 -3.9496
    8SM24   H96 1208   2.713   4.678   5.689  0.4537  1.4953  2.1596
    9SM24    N1 1209   3.347   5.335   8.153  0.4335  0.0007 -0.3591
    9SM24    C1 1210   3.449   5.424   8.090  0.2925 -0.6633  0.1432
    9SM24    H1 1211   3.467   5.506   8.160  0.0875 -0.9593  0.5408
    9SM24    H2 1212   3.548   5.383   8.067 -0.5062 -2.0910 -0.7829
    9SM24    C2 1213   3.355   5.208   8.091  0.7220  0.0103  0.0404
    9SM24    H3 1214   3.341   5.215   7.983 -0.8552 -0.9057  0.1642
    9SM24    H4 1215   3.445   5.150   8.109  0.5241 -0.1209  0.6211
    9SM24    H5 1216   3.266   5.150   8.113  1.0117  0.1107  1.5334
    9SM24    C3 1217   3.391   5.315   8.296  0.1431 -0.4522 -0.2870
    9SM24    H6 1218   3.364   5.406   8.349  1.1898  0.0971 -0.6839
    9SM24    H7 1219   3.342   5.231   8.346  2.4250 -1.1961  0.7882
    9SM24    H8 1220   3.496   5.295   8.319  0.1220 -0.0492  0.1890
    9SM24    C4 1221   3.207   5.383   8.146 -0.2790 -0.6345 -0.0651
    9SM24    H9 1222   3.172   5.411   8.047  0.0900 -1.0558 -0.3131
    9SM24   H10 1223   3.138   5.315   8.197 -1.9721  0.7332 -0.4676
    9SM24   H11 1224   3.206   5.477   8.201 -1.1245 -0.9426  0.4640
    9SM24    C5 1225   3.407   5.487   7.960  0.9705 -0.0213 -0.0147
    9SM24   H12 1226   3.324   5.554   7.982 -0.5881 -1.7386 -0.5545
    9SM24   H13 1227   3.380   5.426   7.873 -0.6560  1.3478 -0.5014
    9SM24    P1 1228   3.621   5.509   7.804  0.4098 -0.3610  0.0838
    9SM24    O1 1229   3.664   5.375   7.849  0.1291  0.7503 -0.3496
    9SM24    O2 1230   3.717   5.615   7.782 -0.4456 -0.2787 -0.6862
    9SM24    O3 1231   3.516   5.567   7.913  0.1235  0.1639  0.1057
    9SM24    O4 1232   3.537   5.491   7.673  0.2735  0.2014 -0.0040
    9SM24    C6 1233   3.465   5.601   7.620  0.6348 -0.4149  0.3091
    9SM24   H14 1234   3.363   5.566   7.605  0.9028 -0.8594 -0.5434
    9SM24   H15 1235   3.466   5.684   7.690  0.6833  0.9009 -1.2286
    9SM24    C7 1236   3.527   5.646   7.489 -0.2348 -0.0091  0.4617
    9SM24   H16 1237   3.635   5.642   7.507 -0.2286 -0.3783  0.3596
    9SM24    N2 1238   3.480   5.786   7.463 -0.2277 -0.7437  0.7347
    9SM24    HN 1239   3.390   5.818   7.495 -0.1625  3.5265 -2.8418
    9SM24    C8 1240   3.497   5.560   7.361 -0.9010  0.7310 -0.0598
    9SM24   OSM 1241   3.354   5.568   7.347  0.1353 -0.2599 -0.6077
    9SM24   HSM 1242   3.330   5.649   7.389  0.6925 -0.3569 -0.0989
    9SM24   H17 1243   3.549   5.600   7.274 -0.3922  0.1916 -0.0083
    9SM24    C9 1244   3.530   5.411   7.368  0.0037 -0.4208  0.1259
    9SM24   H18 1245   3.498   5.371   7.463  0.9418 -0.9755  0.2169
    9SM24   C10 1246   3.595   5.334   7.278 -0.3760  0.2003  0.2871
    9SM24   H19 1247   3.607   5.385   7.184  1.9151 -0.2603  0.2838
    9SM24   C11 1248   3.631   5.188   7.291  0.9638 -0.4108  0.5577
    9SM24   H20 1249   3.632   5.146   7.391 -2.1797 -0.7583  0.4926
    9SM24   H21 1250   3.732   5.159   7.262  0.4584  0.0573 -1.8418
    9SM24   C12 1251   3.537   5.095   7.208  0.2596 -0.0148  0.8380
    9SM24   H22 1252   3.442   5.145   7.228 -0.0640 -0.3588  0.1778
    9SM24   H23 1253   3.544   4.992   7.245 -0.1572 -0.7546 -1.0652
    9SM24   C13 1254   3.523   5.104   7.056 -0.0731  0.1251  0.4186
    9SM24   H24 1255   3.482   5.197   7.017  2.5888  1.4324  0.5863
    9SM24   H25 1256   3.452   5.029   7.021 -2.0350  1.7460  0.8545
    9SM24   C14 1257   3.664   5.069   6.996 -0.1156  0.1199  0.0485
    9SM24   H26 1258   3.688   4.963   7.003 -1.6101 -0.2738 -0.5666
    9SM24   H27 1259   3.751   5.121   7.036 -0.1330 -0.4979  0.9097
    9SM24   C15 1260   3.659   5.093   6.848 -1.2140 -0.2599 -0.0096
    9SM24   H28 1261   3.670   5.198   6.822  4.1612 -1.6754 -4.3387
    9SM24   H29 1262   3.562   5.055   6.817 -1.0240 -1.2894  0.6303
    9SM24   C16 1263   3.779   5.039   6.768 -0.0475  0.2659  0.7999
    9SM24   H30 1264   3.777   4.930   6.761  1.4266  0.2794  0.0668
    9SM24   H31 1265   3.870   5.073   6.817  0.6076  1.1968 -1.0113
    9SM24   C17 1266   3.774   5.096   6.620  0.0502 -0.0751  0.0008
    9SM24   H32 1267   3.780   5.205   6.618 -0.3969 -0.0362  0.4183
    9SM24   H33 1268   3.672   5.076   6.589  0.1486 -0.9412  0.2167
    9SM24   C18 1269   3.873   5.026   6.523 -0.7263  0.0607  0.1632
    9SM24   H34 1270   3.865   4.918   6.541 -0.1149  0.1595  1.0547
    9SM24   H34 1271   3.975   5.048   6.556 -0.1347  2.9350 -3.3099
    9SM24   C19 1272   3.843   5.068   6.373  0.4688  0.6111  0.8668
    9SM24   H35 1273   3.845   5.176   6.358 -2.6264  0.5253 -0.6024
    9SM24   H36 1274   3.736   5.049   6.364  1.0221 -1.9929 -0.5814
    9SM24   C20 1275   3.928   5.003   6.262 -0.1690  0.1141  0.1952
    9SM24   H37 1276   3.946   4.898   6.282  0.6611  0.4816  1.4735
    9SM24   H38 1277   4.023   5.056   6.263 -1.3582  2.3027  1.9117
    9SM24   C21 1278   3.863   5.025   6.126 -0.4859 -0.1278 -0.5466
    9SM24   H39 1279   3.802   5.115   6.123 -0.6330 -0.2186 -0.3693
    9SM24   H40 1280   3.782   4.953   6.116 -2.2300  1.7314 -0.0155
    9SM24   C22 1281   3.972   5.036   6.016 -0.1164  0.1125  0.6978
    9SM24   H41 1282   4.070   5.001   6.050  0.0634 -0.2930 -0.2081
    9SM24   H42 1283   3.978   5.143   5.997  0.3639  0.0197  0.3203
    9SM24   C23 1284   3.927   4.967   5.887  0.1266  0.1088  0.4666
    9SM24   H43 1285   3.832   5.001   5.845 -0.0797  1.4168  1.9629
    9SM24   H44 1286   3.999   4.977   5.806 -0.6675 -2.0610 -0.5605
    9SM24   H45 1287   3.922   4.858   5.898  2.7666 -0.0328  0.6298
    9SM24   C24 1288   3.532   5.876   7.377 -0.0335 -0.2171 -0.3462
    9SM24   O33 1289   3.642   5.857   7.324 -0.1463  0.0995  0.3114
    9SM24   C25 1290   3.450   0.050   7.329 -0.8958 -0.6162  0.5717
    9SM24   H50 1291   3.535   0.115   7.308 -1.6714 -0.0450 -0.8886
    9SM24   H51 1292   3.384   0.094   7.403 -1.5861  1.9114 -1.4758
    9SM24   C26 1293   3.362   0.017   7.206 -0.5425 -0.1755  0.3685
    9SM24   H52 1294   3.273   0.080   7.203  0.0028  0.5253 -1.7239
    9SM24   H53 1295   3.327   5.863   7.222 -0.9480 -0.4509 -2.0914
    9SM24   C27 1296   3.424   0.032   7.066 -1.0523 -0.2433  0.5873
    9SM24   H54 1297   3.518   5.925   7.067  0.8232  2.7718  1.0438
    9SM24   H55 1298   3.451   0.136   7.045  2.9927 -0.8844  2.0067
    9SM24   C28 1299   3.353   5.914   6.944 -0.1050 -0.6540 -1.1321
    9SM24   H56 1300   3.249   5.946   6.946  0.0089 -0.2087 -2.1998
    9SM24   H57 1301   3.345   5.806   6.947  1.2858 -0.7437  0.9338
    9SM24   C29 1302   3.417   0.009   6.815  0.4125 -0.4781 -0.1477
    9SM24   H58 1303   3.523   5.936   6.824  0.7322  0.8422 -0.5835
    9SM24   H59 1304   3.427   0.116   6.798  0.0032 -0.1837  1.4288
    9SM24   C30 1305   3.358   5.885   6.686  0.6164  0.4816  0.5334
    9SM24   H60 1306   3.252   5.906   6.674  0.5452  0.2972  0.8213
    9SM24   H61 1307   3.381   5.780   6.705 -0.3876  0.2560  0.5138
    9SM24   C31 1308   3.434   5.908   6.556  0.4167  0.6243  0.0812
    9SM24   H62 1309   3.529   5.856   6.564 -1.0256 -1.9792  0.6671
    9SM24   H63 1310   3.459   0.065   6.546  1.9679  0.2126 -0.5282
    9SM24   C32 1311   3.374   5.848   6.432  0.2210  0.0463  0.5148
    9SM24   H64 1312   3.279   5.900   6.420 -0.4461 -1.1689  0.4956
    9SM24   H65 1313   3.367   5.740   6.427  0.4057  0.0959 -1.3716
    9SM24   C33 1314   3.457   5.895   6.304  0.0183  0.5608  0.1656
    9SM24   H66 1315   3.554   5.847   6.318 -0.1515  0.2955  0.4661
    9SM24   H67 1316   3.456   0.054   6.314 -0.1057  0.3977  2.0562
    9SM24   C34 1317   3.400   5.836   6.171 -0.1581 -0.0222 -0.5940
    9SM24   H68 1318   3.295   5.863   6.158 -0.2830 -0.3294 -0.2464
    9SM24   H69 1319   3.416   5.728   6.175  0.3007  0.0394 -0.7350
    9SM24   C35 1320   3.476   5.876   6.047  0.8376  0.0067  0.6121
    9SM24   H70 1321   3.580   5.844   6.056  0.4007 -1.1555  1.6504
    9SM24   H71 1322   3.482   0.036   6.047  3.0102 -0.0755  2.4974
    9SM24   C36 1323   3.421   5.808   5.918  0.1086 -0.3773 -0.8220
    9SM24   H72 1324   3.316   5.836   5.907 -0.1366  0.3740  2.7127
    9SM24   H73 1325   3.411   5.700   5.920 -0.7268 -0.3002 -0.5641
    9SM24   C37 1326   3.500   5.844   5.798 -0.4802 -0.1342 -0.8554
    9SM24   H74 1327   3.454   5.789   5.716 -2.2005  1.0888 -0.7580
    9SM24   H75 1328   3.599   5.803   5.816 -0.0450  0.7582 -1.1946
    9SM24   C38 1329   3.510   0.041   5.766 -0.3626  0.2285  0.3297
    9SM24   H76 1330   3.556   0.093   5.849 -0.0518 -1.5783  1.3086
    9SM24   H77 1331   3.411   0.088   5.768 -1.4126 -1.9443  0.4430
    9SM24   C39 1332   3.594   0.062   5.634 -0.1845 -0.2111 -1.1748
    9SM24   H78 1333   3.581   5.939   5.553  1.2910  1.1467 -2.6562
    9SM24   H79 1334   3.702   0.064   5.652 -0.4150 -0.3451  0.2480
    9SM24   C40 1335   3.560   0.198   5.574  0.1602 -0.1446 -0.7032
    9SM24   H80 1336   3.460   0.178   5.535 -0.2196 -1.7873  1.0664
    9SM24   H81 1337   3.551   0.266   5.659 -0.6278 -2.1643  0.8555
    9SM24   C41 1338   3.663   0.247   5.479  0.5605  0.1125 -0.7695
    9SM24   H82 1339   3.673   0.158   5.417 -3.6869 -1.5631  0.7476
    9SM24   H83 1340   3.625   0.325   5.413  0.8260  0.7732 -0.1546
    9SM24   C42 1341   3.790   0.304   5.542  0.0286 -0.3378 -0.2189
    9SM24   H84 1342   3.837   0.229   5.606  0.8982 -1.0410 -1.6380
    9SM24   H85 1343   3.768   0.390   5.604  0.3037 -0.5401  0.1678
    9SM24   C43 1344   3.896   0.351   5.433  0.3627  0.3206 -0.6516
    9SM24   H86 1345   3.853   0.448   5.409  0.5350  0.1901 -1.5092
    9SM24   H87 1346   3.887   0.289   5.344 -0.9254  0.3234 -0.5264
    9SM24   C44 1347   4.043   0.344   5.487  0.4102 -0.8178  0.4595
    9SM24   H88 1348   4.072   0.244   5.520  0.4642 -1.2475 -0.8683
    9SM24   H89 1349   4.120   0.371   5.415  0.7101  0.8560  1.3781
    9SM24   C45 1350   4.072   0.444   5.607  0.3347  0.5647 -0.2283
    9SM24   H90 1351   4.014   0.416   5.695  0.2918  2.6810  0.4308
    9SM24   H91 1352   4.038   0.541   5.572  2.2359  1.4536  0.3021
    9SM24   C46 1353   4.224   0.464   5.645  0.1536 -0.3215 -0.3807
    9SM24   H92 1354   4.224   0.524   5.736 -1.6710 -1.2609  0.2837
    9SM24   H93 1355   4.280   0.374   5.674 -1.0946 -0.6368  1.1366
    9SM24   C47 1356   4.307   0.536   5.536 -0.1719  0.4497  0.4858
    9SM24   H94 1357   4.406   0.565   5.571 -0.8180  1.7563  1.2683
    9SM24   H95 1358   4.329   0.476   5.448  0.0098 -4.3400  3.5845
    9SM24   H96 1359   4.248   0.621   5.503 -2.5127 -0.9396  0.9452
   10SM24    N1 1360   4.849   5.908   8.413 -0.0842  0.6998 -0.0823
   10SM24    C1 1361   4.954   5.808   8.422  0.0008 -0.1582  0.1316
   10SM24    H1 1362   4.987   5.824   8.524 -0.4484  2.2963 -0.0729
   10SM24    H2 1363   4.920   5.704   8.421 -2.2564  0.5298  1.2119
   10SM24    C2 1364   4.774   5.910   8.284 -0.0397 -0.1526  0.6517
   10SM24    H3 1365   4.710   5.825   8.261 -0.8261  0.6124 -0.0577
   10SM24    H4 1366   4.712   0.051   8.287  1.5983  1.0465 -0.2627
   10SM24    H5 1367   4.840   5.913   8.197 -0.4769  0.6901  0.3431
   10SM24    C3 1368   4.754   5.864   8.522 -0.0437  0.3415 -0.0957
   10SM24    H6 1369   4.800   5.866   8.620 -1.1186  0.8585  0.4013
   10SM24    H7 1370   4.653   5.906   8.525 -0.9022 -1.7911  1.9610
   10SM24    H8 1371   4.713   5.763   8.510 -1.5866  0.8281  0.9637
   10SM24    C4 1372   4.887   0.096   8.450  0.0432 -0.0138  0.6559
   10SM24    H9 1373   4.815   0.162   8.498 -1.5029 -0.8482 -0.4606
   10SM24   H10 1374   4.970   0.102   8.520 -0.0095  1.0050  0.6266
   10SM24   H11 1375   4.939   0.136   8.363  1.6241 -1.7729  0.7661
   10SM24    C5 1376   5.066   5.817   8.318  0.3403  0.3232  0.0986
   10SM24   H12 1377   5.114   5.913   8.301  0.8981  0.3342  1.6537
   10SM24   H13 1378   5.043   5.794   8.214  0.0129  0.1214  0.2141
   10SM24    P1 1379   5.231   5.616   8.257 -0.0705  0.3178  0.0724
   10SM24    O1 1380   5.114   5.555   8.188 -0.4803 -0.6133 -0.1176
   10SM24    O2 1381   5.309   5.524   8.339  0.2362 -0.2575 -0.3055
   10SM24    O3 1382   5.171   5.728   8.356  0.3850  0.7804  0.3257
   10SM24    O4 1383   5.335   5.681   8.157  0.6473 -0.1479 -0.3001
   10SM24    C6 1384   5.368   5.622   8.032 -0.5843 -0.4531  0.1963
   10SM24   H14 1385   5.461   5.657   7.987 -0.7078 -1.5139 -0.9056
   10SM24   H15 1386   5.387   5.515   8.039  1.4735 -0.1717 -0.5962
   10SM24    C7 1387   5.265   5.650   7.919 -0.2599 -0.2691  0.1121
   10SM24   H16 1388   5.170   5.623   7.966  1.2211  2.5686  5.1440
   10SM24    N2 1389   5.300   5.553   7.807 -0.2508  0.3846 -0.5774
   10SM24    HN 1390   5.234   5.477   7.801 -1.4537  1.1940  1.7490
   10SM24    C8 1391   5.241   5.793   7.861 -0.2855 -0.0124 -0.0319
   10SM24   OSM 1392   5.165   5.867   7.953  0.2906 -0.0254  0.0445
   10SM24   HSM 1393   5.074   5.839   7.947  0.7996 -1.7280  0.0511
   10SM24   H17 1394   5.334   5.847   7.849  0.8905 -1.2127  3.1088
   10SM24    C9 1395   5.176   5.797   7.723 -0.1868 -0.0226 -0.2094
   10SM24   H18 1396   5.079   5.748   7.723  0.7101 -1.8669 -2.2796
   10SM24   C10 1397   5.228   5.855   7.612  0.5626  0.4510 -0.2112
   10SM24   H19 1398   5.324   5.904   7.619  0.5248  0.5081 -0.0816
   10SM24   C11 1399   5.159   5.875   7.478  0.5221 -0.8067 -0.5711
   10SM24   H20 1400   5.136   0.032   7.480 -1.5134 -1.2493  0.3714
   10SM24   H21 1401   5.059   5.832   7.469 -0.3330  1.0877 -0.3248
   10SM24   C12 1402   5.249   5.834   7.357  0.2691  0.2293 -0.1180
   10SM24   H22 1403   5.260   5.725   7.352 -1.2269  0.0599  0.0153
   10SM24   H23 1404   5.351   5.865   7.378  0.8310  0.8063 -3.5333
   10SM24   C13 1405   5.210   5.901   7.230 -0.0099 -0.5373 -0.3178
   10SM24   H24 1406   5.189   0.058   7.241 -0.7929 -1.0282  3.3099
   10SM24   H25 1407   5.122   5.856   7.184 -0.3236 -0.9291  0.6506
   10SM24   C14 1408   5.306   5.881   7.122 -1.2031 -0.0098  0.5643
   10SM24   H26 1409   5.329   5.774   7.118 -0.7474  0.1009  0.1464
   10SM24   H27 1410   5.390   5.945   7.147 -1.9585  0.2769  2.4412
   10SM24   C15 1411   5.250   5.935   6.991  0.0625  0.0248  0.2105
   10SM24   H28 1412   5.201   0.083   7.005  0.0830  0.2831 -1.3769
   10SM24   H29 1413   5.186   5.859   6.947 -0.5139  0.7437 -0.2196
   10SM24   C16 1414   5.361   0.003   6.892 -0.5050 -0.8849  0.5050
   10SM24   H30 1415   5.387   5.854   6.854 -0.5141 -1.0116  0.8198
   10SM24   H31 1416   5.448   0.040   6.946  0.5811  0.4261 -2.0367
   10SM24   C17 1417   5.323   0.087   6.763 -1.0783 -0.1180  0.0139
   10SM24   H32 1418   5.293   0.186   6.798 -0.2922  0.0442  0.2477
   10SM24   H33 1419   5.237   0.054   6.705 -1.1781 -0.3389  0.2839
   10SM24   C18 1420   5.437   0.099   6.671  0.4355 -0.0773  0.0242
   10SM24   H34 1421   5.520   0.147   6.723  0.3892 -0.5573  0.5411
   10SM24   H34 1422   5.421   0.167   6.587 -0.7935 -1.1756 -0.6567
   10SM24   C19 1423   5.493   5.920   6.617 -0.1116  0.5486  0.7292
   10SM24   H35 1424   5.416   5.857   6.572  0.5314  0.4958 -0.3296
   10SM24   H36 1425   5.549   5.862   6.690  0.8582 -0.6418 -0.9164
   10SM24   C20 1426   5.594   0.009   6.503 -0.0556 -0.2676  0.1829
   10SM24   H37 1427   5.657   0.091   6.538 -1.7259  0.2401  2.1228
   10SM24   H38 1428   5.525   0.040   6.425 -0.4165 -0.7309  0.3185
   10SM24   C21 1429   5.671   5.838   6.445 -0.3303  0.7099  0.4014
   10SM24   H39 1430   5.598   5.771   6.399  1.5241  0.1077 -1.8176
   10SM24   H40 1431   5.701   5.772   6.526  1.7318 -0.6482 -1.3746
   10SM24   C22 1432   5.799   5.872   6.360 -0.1040 -0.5784 -0.4968
   10SM24   H41 1433   5.864   5.939   6.415  0.9801 -2.8549  1.0997
   10SM24   H42 1434   5.770   5.934   6.275  0.4701  0.9341  0.3904
   10SM24   C23 1435   5.882   5.755   6.311  0.2571  0.1350 -0.1016
   10SM24   H43 1436   5.832   5.688   6.240 -2.6271 -0.5801  2.4753
   10SM24   H44 1437   0.031   5.785   6.274  0.1521 -1.0482 -1.4091
   10SM24   H45 1438   5.908   5.690   6.395  0.2700 -0.1714 -0.3395
   10SM24   C24 1439   5.410   5.563   7.733  0.2974 -0.5260  1.0127
   10SM24   O33 1440   5.488   5.660   7.737  0.0554 -0.3016 -0.4153
   10SM24   C25 1441   5.423   5.460   7.620 -0.6012  0.2262  0.5735
   10SM24   H50 1442   5.325   5.422   7.590 -0.0826 -1.5283  1.0097
   10SM24   H51 1443   5.476   5.377   7.666  0.8267  1.2551  0.8134
   10SM24   C26 1444   5.478   5.529   7.493 -0.7741 -0.4100 -0.2974
   10SM24   H52 1445   5.578   5.566   7.512 -1.4103  1.4062 -0.4277
   10SM24   H53 1446   5.433   5.625   7.468  3.0782  2.0045  1.5402
   10SM24   C27 1447   5.492   5.440   7.373 -0.0593 -0.1116 -0.2256
   10SM24   H54 1448   5.403   5.383   7.346  0.1876 -1.2781  1.3339
   10SM24   H55 1449   5.573   5.367   7.387  0.0397  0.1698  0.7077
   10SM24   C28 1450   5.543   5.523   7.255  0.0868  0.2154  0.3127
   10SM24   H56 1451   5.630   5.568   7.301 -0.7539  2.2530 -0.0399
   10SM24   H57 1452   5.472   5.602   7.227  0.3096  1.1441  2.2793
   10SM24   C29 1453   5.572   5.447   7.116  0.8925  0.1066 -0.7650
   10SM24   H58 1454   5.492   5.377   7.093  0.3778  0.6029 -0.4950
   10SM24   H59 1455   5.662   5.387   7.123 -0.2661 -1.4015  1.9140
   10SM24   C30 1456   5.596   5.545   7.001  0.2701 -0.9489 -0.6500
   10SM24   H60 1457   5.695   5.587   7.020 -0.0131 -0.9375  0.8390
   10SM24   H61 1458   5.527   5.629   7.002  0.4434 -0.8195  1.6136
   10SM24   C31 1459   5.587   5.471   6.863  0.4177 -0.5482  0.0426
   10SM24   H62 1460   5.483   5.458   6.833  0.7049 -0.9334 -0.8106
   10SM24   H63 1461   5.630   5.372   6.877  0.1101 -0.7308 -0.2691
   10SM24   C32 1462   5.660   5.546   6.748 -0.4302  0.7115  0.3134
   10SM24   H64 1463   5.760   5.581   6.774 -0.8437  0.7600  1.8634
   10SM24   H65 1464   5.601   5.636   6.733  2.4516  2.8382  1.4543
   10SM24   C33 1465   5.663   5.468   6.613 -0.4115  0.2989  0.8602
   10SM24   H66 1466   5.676   5.523   6.521  0.8454 -2.0066 -0.3967
   10SM24   H67 1467   5.563   5.425   6.601 -0.4473 -0.3402  3.0623
   10SM24   C34 1468   5.755   5.351   6.603  0.4730  0.4747 -0.2935
   10SM24   H68 1469   5.748   5.293   6.695  2.9821  0.8143  0.1593
   10SM24   H69 1470   5.857   5.389   6.603  0.8095 -0.3508  2.0960
   10SM24   C35 1471   5.737   5.265   6.480  0.2089 -0.1200  0.2462
   10SM24   H70 1472   5.740   5.319   6.385  2.7790 -0.2986  0.1957
   10SM24   H71 1473   5.639   5.217   6.476 -0.2509  0.8742 -0.7275
   10SM24   C36 1474   5.831   5.147   6.480 -0.0415 -0.3891  0.0246
   10SM24   H72 1475   5.806   5.106   6.577 -1.2613 -2.9215 -1.3026
   10SM24   H73 1476   5.936   5.176   6.487 -0.2409  0.0507  1.3300
   10SM24   C37 1477   5.800   5.050   6.362 -0.2959 -0.0639 -0.1186
   10SM24   H74 1478   5.830   5.082   6.262  0.7313 -0.8161 -0.0572
   10SM24   H75 1479   5.692   5.033   6.354 -0.5538  0.7511  1.5231
   10SM24   C38 1480   5.863   4.914   6.395 -0.1490 -0.8048 -0.0141
   10SM24   H76 1481   5.831   4.838   6.324  0.9134 -1.2819  0.0074
   10SM24   H77 1482   5.830   4.880   6.493  1.8993 -3.4916 -0.2165
   10SM24   C39 1483   0.069   4.927   6.397 -0.3375  0.0650  0.2102
   10SM24   H78 1484   0.090   4.983   6.488  0.4821  1.9834 -1.1200
   10SM24   H79 1485   0.102   4.981   6.308 -1.1308  0.8291  0.3733
   10SM24   C40 1486   0.149   4.793   6.412  0.5907 -0.3002  0.4394
   10SM24   H80 1487   0.257   4.804   6.402  0.5005 -0.3879 -0.7403
   10SM24   H81 1488   0.133   4.751   6.511  1.6054 -1.1839  0.2322
   10SM24   C41 1489   0.112   4.694   6.299 -0.0251  0.4195 -0.9842
   10SM24   H82 1490   0.164   4.599   6.309 -0.0880  0.5133  0.3600
   10SM24   H83 1491   0.006   4.674   6.315  0.3073  0.6546  1.7600
   10SM24   C42 1492   0.128   4.738   6.155 -0.1089 -0.5186  0.1102
   10SM24   H84 1493   0.071   4.827   6.130 -1.5701 -1.4069  0.1928
   10SM24   H85 1494   0.080   4.659   6.097  0.1467 -2.8674  2.9673
   10SM24   C43 1495   0.274   4.773   6.116 -0.2029  0.0543  0.2692
   10SM24   H86 1496   0.337   4.687   6.141  0.0322 -0.0910 -0.8051
   10SM24   H87 1497   0.306   4.856   6.178 -0.5832  0.6919 -0.3831
   10SM24   C44 1498   0.286   4.801   5.965 -0.3411 -0.0072 -0.6724
   10SM24   H88 1499   0.222   4.882   5.931 -0.5682  0.4685  0.8470
   10SM24   H89 1500   0.376   4.860   5.950 -0.6124  0.2524 -1.3259
   10SM24   C45 1501   0.268   4.679   5.874 -0.0047  0.0563  0.5577
   10SM24   H90 1502   0.181   4.620   5.901 -1.2242  1.7496  0.4316
   10SM24   H91 1503   0.357   4.615   5.876  0.4751  0.6317 -1.1842
   10SM24   C46 1504   0.242   4.720   5.732 -0.1244  0.5178  0.1848
   10SM24   H92 1505   0.185   4.641   5.683 -0.1237  0.3100  0.5204
   10SM24   H93 1506   0.171   4.802   5.720  1.3489  1.6219 -1.3117
   10SM24   C47 1507   0.370   4.748   5.663  0.5125 -0.0132  0.3484
   10SM24   H94 1508   0.365   4.762   5.555  0.3403 -1.5249  0.1579
   10SM24   H95 1509   0.418   4.832   5.714 -2.3121  1.2263  1.0467
   10SM24   H96 1510   0.439   4.666   5.683 -0.3239 -0.6851  0.5111
   11SM24    N1 1511   0.548   5.847   8.393 -0.1583 -0.0208 -0.1560
   11SM24    C1 1512   0.418   5.815   8.460  0.5557  0.3842 -0.2275
   11SM24    H1 1513   0.439   5.769   8.556  0.0501 -0.6863 -0.6224
   11SM24    H2 1514   0.379   5.916   8.477 -2.2962 -0.9420  1.4402
   11SM24    C2 1515   0.625   5.717   8.362  0.3685 -0.0218 -0.5245
   11SM24    H3 1516   0.583   5.666   8.275 -2.3659 -0.0318  0.7385
   11SM24    H4 1517   0.731   5.727   8.340  1.1694 -1.3038  2.6029
   11SM24    H5 1518   0.619   5.656   8.452  0.9516 -2.0373 -1.8252
   11SM24    C3 1519   0.534   5.923   8.259 -0.7811 -0.2018 -0.0355
   11SM24    H6 1520   0.478   5.864   8.187  0.6625 -0.7132 -0.7751
   11SM24    H7 1521   0.478   0.066   8.273  1.7448  1.6920 -1.8443
   11SM24    H8 1522   0.633   5.943   8.217 -0.2274 -1.1081  0.8114
   11SM24    C4 1523   0.639   5.938   8.469 -0.7165 -0.0979 -0.1091
   11SM24    H9 1524   0.742   5.936   8.435 -0.1372  0.4966  1.5678
   11SM24   H10 1525   0.602   0.092   8.469 -1.5516 -0.3836 -1.2845
   11SM24   H11 1526   0.645   5.908   8.574 -1.4693  1.0208  0.2647
   11SM24    C5 1527   0.312   5.733   8.381  0.1201 -0.1503  0.4954
   11SM24   H12 1528   0.353   5.635   8.359 -0.7844 -0.0177 -1.9989
   11SM24   H13 1529   0.291   5.778   8.284 -2.4869  0.8189  1.4629
   11SM24    P1 1530   0.060   5.672   8.370 -0.1550 -0.3143 -0.2245
   11SM24    O1 1531   5.895   5.749   8.434 -0.1999 -0.6121  0.0227
   11SM24    O2 1532   0.066   5.525   8.381  0.5084  0.2856 -0.7436
   11SM24    O3 1533   0.187   5.734   8.443 -0.1381  0.2504  0.3376
   11SM24    O4 1534   0.067   5.720   8.219 -0.3569 -0.4983 -0.2839
   11SM24    C6 1535   0.048   5.850   8.178 -0.1357 -0.7799  1.0365
   11SM24   H14 1536   5.922   5.901   8.238 -1.0878 -2.3448  1.2078
   11SM24   H15 1537   0.147   5.889   8.200 -0.1256  0.0980 -0.4860
   11SM24    C7 1538   0.013   5.863   8.027  0.0598  0.1848  0.6021
   11SM24   H16 1539   0.100   5.830   7.972  0.1410  2.2752 -0.5873
   11SM24    N2 1540   5.941   0.059   7.992  0.2388 -0.2364 -0.0487
   11SM24    HN 1541   5.842   0.077   7.987  0.1665 -0.6663 -0.2145
   11SM24    C8 1542   5.824   5.787   7.984 -0.6214 -0.7469  0.3859
   11SM24   OSM 1543   5.714   5.822   8.053 -0.6841 -0.5867 -0.2553
   11SM24   HSM 1544   5.642   5.839   7.994 -0.9691  0.1925  0.3203
   11SM24   H17 1545   5.801   5.827   7.885  0.3631 -2.9230 -0.7560
   11SM24    C9 1546   5.838   5.637   7.967 -0.0361  0.1140 -0.1488
   11SM24   H18 1547   5.876   5.587   8.055  0.9175  2.7263  0.9569
   11SM24   C10 1548   5.815   5.559   7.859 -0.1795 -0.4860  0.1368
   11SM24   H19 1549   5.786   5.603   7.764  1.3634 -1.3827 -0.7723
   11SM24   C11 1550   5.836   5.413   7.854 -0.1450  0.0232 -0.4731
   11SM24   H20 1551   5.745   5.354   7.841  0.8763 -1.3071 -1.7372
   11SM24   H21 1552   5.872   5.377   7.951 -1.5936  0.4455  0.2253
   11SM24   C12 1553   5.929   5.382   7.733  0.6221 -1.0220 -0.3778
   11SM24   H22 1554   5.945   5.276   7.752  0.5398 -0.8553  0.6778
   11SM24   H23 1555   0.068   5.446   7.743  2.5748 -3.4306 -1.7135
   11SM24   C13 1556   5.867   5.404   7.596  0.2239 -0.1056  0.5357
   11SM24   H24 1557   5.884   5.512   7.585  0.9664 -0.4836 -2.5431
   11SM24   H25 1558   5.760   5.388   7.605  0.0394 -0.0613 -1.2791
   11SM24   C14 1559   5.930   5.328   7.483 -0.7273  0.2826  0.4522
   11SM24   H26 1560   5.860   5.346   7.402  1.6562 -0.5030 -1.8397
   11SM24   H27 1561   5.932   5.221   7.504  0.5651 -0.0212 -1.1318
   11SM24   C15 1562   0.110   5.398   7.438 -0.2777 -0.3612  0.2096
   11SM24   H28 1563   0.200   5.389   7.498  1.4557  0.4047 -2.1726
   11SM24   H29 1564   0.086   5.504   7.427 -2.0049 -0.2380  4.4591
   11SM24   C16 1565   0.141   5.349   7.295 -0.2655 -0.2214  0.0166
   11SM24   H30 1566   0.136   5.241   7.283 -0.4098 -0.3832  1.4261
   11SM24   H31 1567   0.237   5.390   7.266 -0.1193  1.7854  3.0572
   11SM24   C17 1568   0.042   5.397   7.187  0.0473 -0.6395  0.1342
   11SM24   H32 1569   0.033   5.506   7.188 -1.7786 -0.7707  0.2206
   11SM24   H33 1570   5.899   5.339   7.193 -0.4263  0.1055  0.2618
   11SM24   C18 1571   0.101   5.361   7.044  0.3144  0.3719  0.0155
   11SM24   H34 1572   0.209   5.375   7.052 -0.1880  3.4493  2.1773
   11SM24   H34 1573   0.060   5.429   6.969  0.8051 -1.0473 -1.5541
   11SM24   C19 1574   0.085   5.215   7.007 -0.0026  0.1036 -0.5276
   11SM24   H35 1575   5.938   5.183   7.047 -1.4690  1.7774 -2.5947
   11SM24   H36 1576   0.153   5.159   7.071 -1.2713 -0.8534 -0.0023
   11SM24   C20 1577   0.109   5.183   6.860  0.3752  0.1586  0.0651
   11SM24   H37 1578   0.180   5.255   6.821  2.0183 -1.0885  0.6999
   11SM24   H38 1579   0.019   5.209   6.804  0.0762 -1.1026 -0.0555
   11SM24   C21 1580   0.149   5.038   6.838 -0.3078 -0.1670 -0.4830
   11SM24   H39 1581   0.245   5.010   6.879 -1.7509 -1.0569  2.4198
   11SM24   H40 1582   0.149   5.022   6.730 -1.3357  1.8380 -0.8123
   11SM24   C22 1583   0.054   4.939   6.901 -0.0347  0.1627  0.0118
   11SM24   H41 1584   0.050   4.948   7.010 -0.1403 -1.3977  0.1541
   11SM24   H42 1585   0.095   4.840   6.882 -1.6985 -0.1340 -2.2273
   11SM24   C23 1586   5.856   4.950   6.844  0.3316  0.3149  0.7905
   11SM24   H43 1587   5.807   5.046   6.860 -0.3413 -0.0787  1.0945
   11SM24   H44 1588   5.856   4.923   6.738  0.0456 -3.0492  1.6081
   11SM24   H45 1589   5.800   4.880   6.905 -1.2208  0.9917  0.1545
   11SM24   C24 1590   0.085   0.151   7.977 -0.6084  0.3078  0.4831
   11SM24   O33 1591   0.211   0.123   7.985 -0.5273 -0.7780  0.2256
   11SM24   C25 1592   0.043   0.277   7.905 -0.1001 -0.4052  0.3927
   11SM24   H50 1593   0.097   0.363   7.943 -2.7763  1.2030  0.6411
   11SM24   H51 1594   5.887   0.300   7.921  0.4936  1.0387  2.2808
   11SM24   C26 1595   0.061   0.269   7.756  0.0579 -0.2767  0.1312
   11SM24   H52 1596   0.025   0.180   7.706  1.8830 -0.4007 -0.9846
   11SM24   H53 1597   0.169   0.269   7.740 -0.1573 -0.5042 -1.3405
   11SM24   C27 1598   0.001   0.395   7.684  0.9817  0.4405 -0.2018
   11SM24   H54 1599   0.034   0.485   7.736  0.0423  0.2051  0.8180
   11SM24   H55 1600   5.844   0.410   7.707  1.1938  0.9385  0.4732
   11SM24   C28 1601   0.051   0.408   7.541 -0.0531  0.4368  0.2709
   11SM24   H56 1602   0.160   0.409   7.550 -0.1023 -0.0894  1.0070
   11SM24   H57 1603   0.027   0.508   7.503 -0.5409  0.2983  0.2174
   11SM24   C29 1604   0.001   0.293   7.449 -0.0794 -0.0240 -0.8514
   11SM24   H58 1605   5.841   0.297   7.456  0.1385  2.2512  1.9081
   11SM24   H59 1606   0.030   0.196   7.488  0.1019  1.0599  1.8023
   11SM24   C30 1607   0.052   0.311   7.304 -0.7667  0.0851  0.3840
   11SM24   H60 1608   0.035   0.411   7.264  0.4209 -0.1530 -0.7479
   11SM24   H61 1609   0.005   0.248   7.229  2.3445 -0.0763 -1.4920
   11SM24   C31 1610   0.198   0.278   7.282 -0.3362  0.4971  0.3649
   11SM24   H62 1611   0.229   0.190   7.338  0.5289 -0.9602 -2.3170
   11SM24   H63 1612   0.260   0.362   7.315  0.2345 -0.3095  1.3691
   11SM24   C32 1613   0.225   0.264   7.129 -0.0660  0.9624 -0.3535
   11SM24   H64 1614   0.184   0.351   7.078 -0.8524  1.3339  0.8763
   11SM24   H65 1615   0.178   0.170   7.101 -1.1002  1.4757 -0.3782
   11SM24   C33 1616   0.375   0.277   7.098 -0.0131  0.5881  0.8226
   11SM24   H66 1617   0.431   0.217   7.171 -0.4117 -0.1136  0.5569
   11SM24   H67 1618   0.402   0.382   7.104 -0.8935  0.9368 -1.1601
   11SM24   C34 1619   0.416   0.236   6.954  0.3152  0.3531  0.5438
   11SM24   H68 1620   0.432   0.128   6.958 -2.5256 -0.0789  1.7154
   11SM24   H69 1621   0.514   0.277   6.931 -0.7900  0.7481 -4.0388
   11SM24   C35 1622   0.312   0.263   6.841  0.8299 -0.6709 -0.2842
   11SM24   H70 1623   0.302   0.370   6.821 -0.7988 -0.7037  0.2568
   11SM24   H71 1624   0.211   0.227   6.860 -0.1115  0.8437 -2.2322
   11SM24   C36 1625   0.346   0.193   6.707  0.4369 -0.7929  0.3891
   11SM24   H72 1626   0.259   0.215   6.644  0.9852 -0.0001 -0.0997
   11SM24   H73 1627   0.359   0.086   6.723  0.6184 -1.0981 -1.6557
   11SM24   C37 1628   0.468   0.249   6.633  0.3491  0.0795 -0.6046
   11SM24   H74 1629   0.556   0.232   6.695  0.3896 -0.7672 -0.8785
   11SM24   H75 1630   0.462   0.356   6.616  0.3727  0.0441 -0.8532
   11SM24   C38 1631   0.480   0.177   6.500 -0.6254  0.2690 -0.0782
   11SM24   H76 1632   0.385   0.184   6.446 -1.9641 -1.1563  2.0108
   11SM24   H77 1633   0.480   0.071   6.524  0.2689  0.2745 -0.0552
   11SM24   C39 1634   0.607   0.215   6.427  0.0756 -0.6840 -0.4826
   11SM24   H78 1635   0.694   0.186   6.487  0.3276 -0.0824 -0.5513
   11SM24   H79 1636   0.610   0.323   6.414  1.2704 -0.5918  0.3765
   11SM24   C40 1637   0.602   0.149   6.287  0.6435 -0.2756  0.4153
   11SM24   H80 1638   0.701   0.168   6.245  0.7561  3.8949  2.2891
   11SM24   H81 1639   0.609   0.041   6.295 -1.1051 -0.6954 -2.7750
   11SM24   C41 1640   0.491   0.206   6.197  0.2664 -0.0864 -0.2080
   11SM24   H82 1641   0.401   0.145   6.207 -1.5441  2.4383 -0.6428
   11SM24   H83 1642   0.468   0.307   6.230  3.5540  0.2915  1.1297
   11SM24   C42 1643   0.527   0.198   6.045  0.1280 -0.1921 -0.5546
   11SM24   H84 1644   0.627   0.237   6.028  0.1657  0.2951  0.7350
   11SM24   H85 1645   0.463   0.274   6.000  1.9967  0.5960 -1.9399
   11SM24   C43 1646   0.509   0.058   5.979 -0.3840 -0.1733  0.2960
   11SM24   H86 1647   0.575   5.931   6.022 -0.3509 -0.9127 -1.0461
   11SM24   H87 1648   0.544   0.064   5.876 -1.1419 -1.6951 -0.0582
   11SM24   C44 1649   0.363   0.014   5.988 -0.4804 -0.7663 -0.4203
   11SM24   H88 1650   0.294   0.096   6.009  1.3060  0.6853 -0.0583
   11SM24   H89 1651   0.330   5.929   5.890 -1.7644 -0.6754 -0.0287
   11SM24   C45 1652   0.352   5.840   6.086  0.3279 -0.9999  0.0449
   11SM24   H90 1653   0.250   5.816   6.117 -0.6321  2.1259 -0.5020
   11SM24   H91 1654   0.399   5.869   6.180 -0.2214 -0.7192  0.2396
   11SM24   C46 1655   0.401   5.711   6.033 -0.3523 -0.1354 -0.3224
   11SM24   H92 1656   0.510   5.713   6.039 -0.2473  0.0185 -2.0486
   11SM24   H93 1657   0.379   5.622   6.091  0.2730 -0.4581 -0.5733
   11SM24   C47 1658   0.362   5.654   5.895 -0.1279  0.0984 -0.4938
   11SM24   H94 1659   0.388   5.726   5.817 -0.0622 -0.7078 -1.2281
   11SM24   H95 1660   0.417   5.561   5.880 -1.5544 -0.8044 -0.1419
   11SM24   H96 1661   0.259   5.619   5.894 -0.1539 -0.0939  2.5639
   12SM24    N1 1662   5.614   0.412   8.480 -0.5423  0.1411 -0.1820
   12SM24    C1 1663   5.598   0.561   8.453  0.1093 -0.1344 -0.3184
   12SM24    H1 1664   5.524   0.593   8.526  1.3378 -0.8323  1.2557
   12SM24    H2 1665   5.696   0.608   8.456  0.8294 -1.3238 -3.2646
   12SM24    C2 1666   5.478   0.347   8.496  0.7415 -0.0410 -0.1844
   12SM24    H3 1667   5.404   0.385   8.426 -0.0249  0.1697  0.7344
   12SM24    H4 1668   5.479   0.239   8.481 -1.0542 -0.3907  1.9543
   12SM24    H5 1669   5.431   0.359   8.593  0.6708  1.5641 -0.4081
   12SM24    C3 1670   5.688   0.353   8.363 -0.3921 -0.5292  0.2470
   12SM24    H6 1671   5.785   0.399   8.345 -0.7626 -0.2615 -1.0943
   12SM24    H7 1672   5.722   0.249   8.366 -0.3639 -0.5418 -0.4184
   12SM24    H8 1673   5.626   0.354   8.274  1.0925  0.1880 -0.7972
   12SM24    C4 1674   5.707   0.401   8.595 -0.7295 -0.7330  0.1293
   12SM24    H9 1675   5.716   0.294   8.613 -1.7380 -0.7144  0.7982
   12SM24   H10 1676   5.811   0.427   8.578 -0.7855 -1.8368 -2.0695
   12SM24   H11 1677   5.664   0.446   8.684  2.0396  1.3719  0.4501
   12SM24    C5 1678   5.533   0.604   8.320 -0.3405 -0.4695  0.2095
   12SM24   H12 1679   5.425   0.589   8.317 -0.3566 -0.8873  1.9882
   12SM24   H13 1680   5.574   0.550   8.235  1.5056 -0.7534  1.2567
   12SM24    P1 1681   5.659   0.821   8.238 -0.0752 -0.4443 -0.1460
   12SM24    O1 1682   5.783   0.782   8.309  0.3488 -0.0886  0.4294
   12SM24    O2 1683   5.626   0.965   8.235 -0.3785 -0.3189 -0.1382
   12SM24    O3 1684   5.533   0.745   8.303  0.6536 -0.7683 -0.2580
   12SM24    O4 1685   5.659   0.754   8.096  0.2203 -0.0044  0.6018
   12SM24    C6 1686   5.541   0.745   8.021 -0.0026  0.2540  0.3333
   12SM24   H14 1687   5.513   0.641   8.006 -0.8280  0.4249  0.6362
   12SM24   H15 1688   5.470   0.809   8.073  0.8254 -0.1223  1.9538
   12SM24    C7 1689   5.550   0.815   7.879 -0.5404 -0.3250 -0.2912
   12SM24   H16 1690   5.580   0.919   7.893  0.2239 -0.6292  0.3919
   12SM24    N2 1691   5.413   0.803   7.816 -0.3279 -0.3032 -0.4467
   12SM24    HN 1692   5.411   0.764   7.723 -1.0563  0.7887 -0.8922
   12SM24    C8 1693   5.647   0.755   7.778 -0.1590 -0.3010  0.1367
   12SM24   OSM 1694   5.626   0.623   7.733 -0.1003  0.1075  0.4596
   12SM24   HSM 1695   5.655   0.567   7.803 -0.6938 -0.7781  0.0109
   12SM24   H17 1696   5.635   0.814   7.687  0.5235  0.2450  0.3935
   12SM24    C9 1697   5.790   0.779   7.823 -0.5919 -0.6055 -0.5230
   12SM24   H18 1698   5.849   0.699   7.866 -1.0819 -1.1696 -0.8862
   12SM24   C10 1699   5.860   0.889   7.801  0.6188 -0.0127  0.2541
   12SM24   H19 1700   5.805   0.973   7.759 -1.5757 -1.0735  0.9471
   12SM24   C11 1701   0.058   0.900   7.838  0.4757 -0.0064  0.1873
   12SM24   H20 1702   0.095   0.804   7.874  1.5367 -0.4148 -1.9066
   12SM24   H21 1703   0.065   0.979   7.913 -0.9631 -0.1158  0.4623
   12SM24   C12 1704   0.134   0.931   7.709  0.9964 -1.3141 -0.5784
   12SM24   H22 1705   0.238   0.944   7.736  0.8160 -0.4201 -0.3063
   12SM24   H23 1706   0.089   1.024   7.673  1.6216 -0.9995 -0.5477
   12SM24   C13 1707   0.109   0.826   7.596  0.3279 -0.2810  1.0534
   12SM24   H24 1708   0.026   0.855   7.531 -1.0029 -1.6146  2.1338
   12SM24   H25 1709   0.071   0.734   7.640 -4.1466  0.6090 -0.7087
   12SM24   C14 1710   0.232   0.812   7.507  0.5489 -0.5412 -0.3585
   12SM24   H26 1711   0.209   0.730   7.439 -1.6717 -0.5851  0.4032
   12SM24   H27 1712   0.318   0.770   7.559  1.4284 -1.7841 -2.7027
   12SM24   C15 1713   0.276   0.945   7.435 -0.3062  0.5615 -0.2751
   12SM24   H28 1714   0.298   1.023   7.508  1.8068  0.9635 -1.3083
   12SM24   H29 1715   0.200   0.986   7.368  1.1354  0.9730 -1.6789
   12SM24   C16 1716   0.398   0.918   7.339  0.1991 -0.4569 -0.4289
   12SM24   H30 1717   0.360   0.839   7.274  1.6322  0.7838 -2.8415
   12SM24   H31 1718   0.475   0.868   7.399  2.6870 -0.0358 -3.1607
   12SM24   C17 1719   0.439   1.049   7.273 -0.1108  0.0491 -0.4904
   12SM24   H32 1720   0.450   1.121   7.355 -1.7522  0.4498 -0.6091
   12SM24   H33 1721   0.360   1.088   7.210 -1.2450 -1.3479  0.0356
   12SM24   C18 1722   0.564   1.044   7.179  0.1514 -0.0404  0.7394
   12SM24   H34 1723   0.543   0.972   7.099  2.4164 -1.1090  1.0833
   12SM24   H34 1724   0.648   0.997   7.230 -0.3861 -2.5431 -0.5793
   12SM24   C19 1725   0.609   1.186   7.133 -0.2178  0.2951 -0.0472
   12SM24   H35 1726   0.707   1.185   7.085 -1.2507  1.6420 -2.2643
   12SM24   H36 1727   0.619   1.247   7.223  2.2510 -0.1233 -0.0043
   12SM24   C20 1728   0.504   1.243   7.036 -0.1429 -0.5090  0.0423
   12SM24   H37 1729   0.542   1.337   6.997 -0.3845  0.6416  2.5011
   12SM24   H38 1730   0.419   1.291   7.084  0.5665  0.4239  0.3864
   12SM24   C21 1731   0.456   1.159   6.921 -0.2176  0.0427 -0.1297
   12SM24   H39 1732   0.387   1.225   6.869 -0.8592 -1.5759 -1.3804
   12SM24   H40 1733   0.400   1.072   6.956  0.2984  0.5389  1.9922
   12SM24   C22 1734   0.559   1.115   6.827  0.3524 -0.2152 -0.3577
   12SM24   H41 1735   0.605   1.025   6.868  0.7112 -0.6193 -1.5867
   12SM24   H42 1736   0.645   1.182   6.827 -0.8396  1.3424 -0.9726
   12SM24   C23 1737   0.518   1.074   6.680  0.3073  0.6550 -0.4920
   12SM24   H43 1738   0.493   1.164   6.624 -0.8127  0.7478  0.1496
   12SM24   H44 1739   0.603   1.030   6.628  0.2243  1.5648 -1.4255
   12SM24   H45 1740   0.428   1.013   6.676  0.8928 -0.1476 -1.9045
   12SM24   C24 1741   5.305   0.859   7.866  0.3871  0.0885 -0.3224
   12SM24   O33 1742   5.307   0.937   7.960  0.0488  0.0578 -0.6147
   12SM24   C25 1743   5.174   0.831   7.799 -0.3297  0.6412  0.3506
   12SM24   H50 1744   5.099   0.808   7.875 -0.8587  0.0192 -0.3605
   12SM24   H51 1745   5.187   0.741   7.739 -1.9200  0.8036 -0.2429
   12SM24   C26 1746   5.123   0.950   7.712  0.1133  0.6463  0.3954
   12SM24   H52 1747   5.094   1.041   7.764  2.1718 -0.1600  3.0543
   12SM24   H53 1748   5.025   0.912   7.681 -0.0124  2.1601 -1.1498
   12SM24   C27 1749   5.204   0.979   7.583 -0.1566  0.0123  0.4655
   12SM24   H54 1750   5.304   1.019   7.599  0.0020 -0.0940 -0.2397
   12SM24   H55 1751   5.160   1.061   7.526 -0.4866 -0.7970 -0.4566
   12SM24   C28 1752   5.213   0.862   7.486  0.0784  0.6600  0.6890
   12SM24   H56 1753   5.113   0.824   7.466  1.0817 -2.8862  2.1581
   12SM24   H57 1754   5.265   0.780   7.534 -2.5958  1.2777  4.8925
   12SM24   C29 1755   5.277   0.900   7.353 -0.4670  0.5140  1.0874
   12SM24   H58 1756   5.381   0.929   7.364  0.5472 -2.2204 -0.6408
   12SM24   H59 1757   5.232   0.992   7.314  1.2359  0.3024 -1.4463
   12SM24   C30 1758   5.261   0.791   7.244 -0.0652  0.0196  0.3257
   12SM24   H60 1759   5.155   0.791   7.215 -0.8266 -0.5869  2.9898
   12SM24   H61 1760   5.275   0.693   7.290  0.6101  0.4295  0.9833
   12SM24   C31 1761   5.356   0.800   7.118  0.2708 -0.3216 -0.3724
   12SM24   H62 1762   5.308   0.758   7.030  0.7849 -1.1572 -0.2539
   12SM24   H63 1763   5.440   0.733   7.136 -1.7032 -2.2294  2.2084
   12SM24   C32 1764   5.399   0.943   7.078 -0.1022 -0.2112 -0.2099
   12SM24   H64 1765   5.466   0.964   7.162 -2.4182 -0.7380  1.8425
   12SM24   H65 1766   5.317   1.013   7.097 -1.4678 -2.3583  2.0985
   12SM24   C33 1767   5.469   0.941   6.942 -0.3666  0.5054  0.0976
   12SM24   H66 1768   5.388   0.927   6.871 -1.1633 -0.8975  1.2454
   12SM24   H67 1769   5.541   0.859   6.932  0.1236  0.7126  1.7069
   12SM24   C34 1770   5.528   1.074   6.914 -0.2160  0.0068  0.0988
   12SM24   H68 1771   5.608   1.099   6.984 -0.3025  0.3017  0.0957
   12SM24   H69 1772   5.455   1.155   6.926 -0.8185 -0.7678  1.8059
   12SM24   C35 1773   5.586   1.067   6.770 -0.0771  0.4389  0.3103
   12SM24   H70 1774   5.619   0.965   6.749 -1.3416 -0.1859  1.2520
   12SM24   H71 1775   5.681   1.118   6.759  0.1146 -0.2265 -1.2507
   12SM24   C36 1776   5.493   1.120   6.663  1.1833  0.3070 -0.8068
   12SM24   H72 1777   5.462   1.223   6.682  2.0280  0.6762 -1.4039
   12SM24   H73 1778   5.396   1.071   6.659  0.7500  0.9942  0.8964
   12SM24   C37 1779   5.563   1.131   6.525  0.1517 -0.6278 -0.3562
   12SM24   H74 1780   5.583   1.031   6.486  2.9224 -0.5590  0.8175
   12SM24   H75 1781   5.660   1.176   6.547 -0.6341  0.1839  1.6366
   12SM24   C38 1782   5.490   1.231   6.434 -0.4779 -0.1631 -0.2384
   12SM24   H76 1783   5.556   1.312   6.403  1.5276 -2.2703 -1.5750
   12SM24   H77 1784   5.403   1.279   6.480  0.1973 -0.2754  1.1893
   12SM24   C39 1785   5.438   1.160   6.312 -0.4669  0.2468  0.8874
   12SM24   H78 1786   5.386   1.071   6.349 -0.4403  0.1506  0.6995
   12SM24   H79 1787   5.521   1.132   6.247  0.1291  0.0634  1.7272
   12SM24   C40 1788   5.350   1.247   6.224  0.1581  0.6402 -0.4737
   12SM24   H80 1789   5.342   1.189   6.132  0.7205 -0.3192  0.0738
   12SM24   H81 1790   5.252   1.257   6.271 -0.3160  0.6778 -1.4482
   12SM24   C41 1791   5.402   1.388   6.190  0.0291  0.4224 -0.2598
   12SM24   H82 1792   5.341   1.447   6.122  1.4740  3.9411  1.4114
   12SM24   H83 1793   5.401   1.455   6.276 -1.4732 -1.1298  0.9773
   12SM24   C42 1794   5.540   1.394   6.136 -0.3598 -0.5794  0.0568
   12SM24   H84 1795   5.609   1.337   6.197  0.6420 -2.8898 -3.0716
   12SM24   H85 1796   5.574   1.497   6.130  1.4254 -1.0530  1.8401
   12SM24   C43 1797   5.562   1.318   6.007  0.4206 -0.4935  0.6596
   12SM24   H86 1798   5.492   1.357   5.933  2.3586 -2.0257 -2.0607
   12SM24   H87 1799   5.542   1.214   6.031 -0.0239 -0.5104  0.2192
   12SM24   C44 1800   5.708   1.320   5.949 -0.4183  0.8322 -0.2590
   12SM24   H88 1801   5.705   1.247   5.868 -1.3039  0.1910  0.3484
   12SM24   H89 1802   5.721   1.420   5.909 -0.4988 -0.1896 -2.9597
   12SM24   C45 1803   5.818   1.262   6.041 -0.5850 -0.2069 -0.2129
   12SM24   H90 1804   5.798   1.158   6.066  0.8071 -1.1303 -2.7534
   12SM24   H91 1805   5.814   1.310   6.139 -0.1761 -0.0057 -0.2921
   12SM24   C46 1806   0.010   1.265   5.971 -0.0297 -0.2130 -0.1405
   12SM24   H92 1807   0.087   1.200   6.013  0.1004 -0.1930 -0.3448
   12SM24   H93 1808   0.001   1.214   5.875  1.9442  0.1535 -0.5474
   12SM24   C47 1809   0.055   1.413   5.952 -0.5181 -0.2819  0.3658
   12SM24   H94 1810   0.016   1.473   6.034 -0.3534 -1.1706  1.1098
   12SM24   H95 1811   0.161   1.432   5.966 -0.8218  1.5743  0.2422
   12SM24   H96 1812   0.025   1.460   5.858  1.0735  1.2137  0.5919
   13SM24    N1 1813   0.551   4.143   7.757  0.4546  0.5783  0.2045
   13SM24    C1 1814   0.446   4.059   7.821 -0.2849  0.0301 -0.1457
   13SM24    H1 1815   0.423   4.101   7.919  2.0033 -0.3622  0.6085
   13SM24    H2 1816   0.352   4.069   7.768  0.6814  1.4917 -1.6175
   13SM24    C2 1817   0.497   4.279   7.727  0.1666  0.3650 -0.0123
   13SM24    H3 1818   0.570   4.337   7.670  1.0724 -1.2818 -0.5519
   13SM24    H4 1819   0.404   4.280   7.670 -0.1378 -0.2923  0.4670
   13SM24    H5 1820   0.468   4.333   7.817 -2.9713 -1.6449  0.2639
   13SM24    C3 1821   0.667   4.174   7.847  0.0586  0.0214  0.0161
   13SM24    H6 1822   0.731   4.088   7.863 -2.0559 -1.4259  1.0190
   13SM24    H7 1823   0.727   4.258   7.812 -3.0899  1.9131 -1.0312
   13SM24    H8 1824   0.629   4.208   7.944  2.3725  0.9167  0.6460
   13SM24    C4 1825   0.604   4.092   7.627  0.1063 -0.4533  0.3876
   13SM24    H9 1826   0.683   4.149   7.578  0.9777  0.0860  2.3673
   13SM24   H10 1827   0.664   4.003   7.642  0.9525 -0.2910 -1.8091
   13SM24   H11 1828   0.527   4.072   7.553  0.7657 -0.2397 -0.3653
   13SM24    C5 1829   0.491   3.915   7.848 -0.1642  0.0179  0.3587
   13SM24   H12 1830   0.589   3.917   7.896 -0.8145  0.4080  1.6940
   13SM24   H13 1831   0.513   3.865   7.754  1.6240  0.4450  0.5171
   13SM24    P1 1832   0.416   3.685   7.947 -0.3053 -0.2811  0.0091
   13SM24    O1 1833   0.329   3.639   8.057  0.2635 -0.2028 -0.0751
   13SM24    O2 1834   0.559   3.663   7.955 -0.2993  0.0922  0.5127
   13SM24    O3 1835   0.398   3.842   7.928 -0.4441  0.3163 -0.1438
   13SM24    O4 1836   0.373   3.617   7.806 -0.1372 -0.0490  0.8239
   13SM24    C6 1837   0.242   3.621   7.760  0.1311  0.2939  0.0516
   13SM24   H14 1838   0.175   3.557   7.818  0.0178  0.0753 -0.3113
   13SM24   H15 1839   0.194   3.718   7.771  2.2682  1.2851  0.9361
   13SM24    C7 1840   0.235   3.575   7.610  0.3012 -0.5415 -0.0000
   13SM24   H16 1841   0.315   3.630   7.560  0.0325  0.7371  0.9538
   13SM24    N2 1842   0.113   3.603   7.529  0.3272  0.1422 -0.2747
   13SM24    HN 1843   0.065   3.523   7.490 -0.6908  0.2475  0.7197
   13SM24    C8 1844   0.270   3.425   7.592  0.1471 -0.2894 -0.4130
   13SM24   OSM 1845   0.170   3.336   7.660  0.5030 -0.9115 -0.6903
   13SM24   HSM 1846   0.083   3.355   7.628 -0.8705  0.5187  3.5336
   13SM24   H17 1847   0.271   3.398   7.487 -2.8925  0.9804 -0.8236
   13SM24    C9 1848   0.409   3.385   7.641 -0.0689  0.3046  0.1018
   13SM24   H18 1849   0.408   3.388   7.749  0.5035 -0.7133  0.1419
   13SM24   C10 1850   0.512   3.346   7.566 -0.9347 -0.2680 -0.0976
   13SM24   H19 1851   0.495   3.333   7.460  0.0287 -1.1707 -0.1518
   13SM24   C11 1852   0.646   3.311   7.618 -0.3048  0.2151 -0.0426
   13SM24   H20 1853   0.662   3.203   7.624  4.2170  0.8229  0.7466
   13SM24   H21 1854   0.637   3.350   7.720 -2.1402 -1.3350  0.4175
   13SM24   C12 1855   0.751   3.387   7.536 -0.5778  1.4348 -0.4205
   13SM24   H22 1856   0.728   3.493   7.549 -1.3305  1.2750 -0.4428
   13SM24   H23 1857   0.733   3.361   7.431 -1.4321  1.2298 -0.2262
   13SM24   C13 1858   0.895   3.355   7.568  0.2366  0.9048 -0.4294
   13SM24   H24 1859   0.896   3.248   7.545  0.4079  0.2411  2.4926
   13SM24   H25 1860   0.904   3.362   7.676 -0.4307 -2.1984 -0.1186
   13SM24   C14 1861   0.995   3.430   7.488 -0.2621  0.4137 -0.5908
   13SM24   H26 1862   0.968   3.536   7.499  1.9365  0.9429 -0.0645
   13SM24   H27 1863   0.988   3.406   7.382  1.9206 -0.8119 -0.4833
   13SM24   C15 1864   1.142   3.417   7.538  0.6965  0.7505  0.5652
   13SM24   H28 1865   1.130   3.456   7.639  0.6612  0.3866  0.7035
   13SM24   H29 1866   1.205   3.478   7.474 -1.9433 -1.5400 -4.5495
   13SM24   C16 1867   1.187   3.270   7.538 -0.3682  0.6776 -0.1403
   13SM24   H30 1868   1.161   3.218   7.446 -2.0338  2.6876 -0.8619
   13SM24   H31 1869   1.147   3.220   7.625  0.6280 -1.3928 -0.8466
   13SM24   C17 1870   1.337   3.258   7.553  0.2773  0.6907 -0.2845
   13SM24   H32 1871   1.355   3.151   7.553  1.6308  0.8588 -3.3756
   13SM24   H33 1872   1.358   3.283   7.658 -0.5350  2.3975 -0.5083
   13SM24   C18 1873   1.414   3.332   7.443  0.3217  0.1416  0.1425
   13SM24   H34 1874   1.517   3.313   7.476  1.7071 -0.1204 -4.1037
   13SM24   H34 1875   1.404   3.440   7.458 -0.2696  0.1176 -0.0677
   13SM24   C19 1876   1.390   3.296   7.305  0.5723 -0.0248  0.4409
   13SM24   H35 1877   1.397   3.387   7.245 -1.1142 -0.7468 -0.8911
   13SM24   H36 1878   1.291   3.257   7.281  0.4842  0.2318  0.3862
   13SM24   C20 1879   1.487   3.190   7.247  0.4083 -0.4843 -0.4894
   13SM24   H37 1880   1.488   3.102   7.311  2.2948  0.7813  1.2855
   13SM24   H38 1881   1.585   3.238   7.251  0.1432  0.0496 -0.4345
   13SM24   C21 1882   1.452   3.144   7.103 -0.7724  0.0774  0.2833
   13SM24   H39 1883   1.419   3.237   7.058 -0.9562  1.3634  2.9965
   13SM24   H40 1884   1.376   3.065   7.100  0.1295 -0.7873  0.1544
   13SM24   C22 1885   1.580   3.104   7.028  0.0775 -0.0288 -0.5304
   13SM24   H41 1886   1.636   3.023   7.074 -1.9584 -1.5833 -0.6993
   13SM24   H42 1887   1.642   3.194   7.028 -1.8954  1.3950 -1.6774
   13SM24   C23 1888   1.565   3.053   6.877  0.4580 -0.9675 -0.2423
   13SM24   H43 1889   1.573   3.150   6.827 -1.9724 -0.2737  0.5815
   13SM24   H44 1890   1.648   2.990   6.848  0.4524 -0.3832 -1.5647
   13SM24   H45 1891   1.468   3.010   6.853  0.4695  0.3063 -2.6459
   13SM24   C24 1892   0.068   3.727   7.510  0.0839 -0.0610 -0.4474
   13SM24   O33 1893   0.126   3.828   7.553  0.4855 -0.6256  0.0364
   13SM24   C25 1894   5.894   3.753   7.419 -0.4222  0.3162  0.2067
   13SM24   H50 1895   5.828   3.818   7.477 -2.3644 -0.7123 -0.7887
   13SM24   H51 1896   5.839   3.659   7.414 -1.6772  1.1436 -1.8765
   13SM24   C26 1897   5.933   3.805   7.282 -0.2333 -0.2615 -0.0739
   13SM24   H52 1898   0.051   3.737   7.230  0.9036  1.9923 -1.6705
   13SM24   H53 1899   0.031   3.904   7.280 -1.9132  0.5489 -3.4120
   13SM24   C27 1900   5.808   3.813   7.191  0.5674  0.1177  0.1880
   13SM24   H54 1901   5.735   3.882   7.233  1.4093 -0.2964  2.3652
   13SM24   H55 1902   5.769   3.712   7.194  0.9852 -0.0830 -0.9545
   13SM24   C28 1903   5.843   3.869   7.052 -0.4922 -0.1167 -0.1260
   13SM24   H56 1904   5.909   3.791   7.015 -2.1361 -1.1180 -1.0279
   13SM24   H57 1905   5.901   3.960   7.067  2.6411 -2.3046  1.4378
   13SM24   C29 1906   5.719   3.893   6.967 -0.1558  0.6415  0.8896
   13SM24   H58 1907   5.635   3.922   7.029  1.3399  0.7219  2.9238
   13SM24   H59 1908   5.687   3.798   6.924  0.2994  0.5705  0.6978
   13SM24   C30 1909   5.738   3.997   6.853 -0.1836  0.0684 -0.5724
   13SM24   H60 1910   5.772   4.089   6.900 -0.6316  0.4989 -1.0787
   13SM24   H61 1911   5.644   4.009   6.799 -0.4429  0.8465  0.0474
   13SM24   C31 1912   5.835   3.948   6.746  1.2309  0.2512 -0.3260
   13SM24   H62 1913   5.793   3.852   6.716 -0.7500  1.1829 -0.5842
   13SM24   H63 1914   5.932   3.924   6.789  1.3378 -0.1367 -0.7750
   13SM24   C32 1915   5.845   4.044   6.618 -0.3971  0.6599  1.0352
   13SM24   H64 1916   5.903   3.991   6.542  0.3249  0.4250  1.7411
   13SM24   H65 1917   5.912   4.125   6.644  0.5048  0.2400  0.0406
   13SM24   C33 1918   5.715   4.085   6.552 -0.2941 -0.4552  0.2018
   13SM24   H66 1919   5.662   4.142   6.628 -2.0115 -0.9731 -0.5803
   13SM24   H67 1920   5.659   4.003   6.508  2.5179 -2.1131 -0.4043
   13SM24   C34 1921   5.730   4.178   6.430  0.0968  0.3024 -0.1856
   13SM24   H68 1922   5.753   4.279   6.467 -2.6974  0.7310  0.5578
   13SM24   H69 1923   5.635   4.200   6.381 -0.9144 -1.1525  1.0624
   13SM24   C35 1924   5.831   4.129   6.327  0.2133 -0.1108 -0.4541
   13SM24   H70 1925   5.807   4.026   6.302  0.2708 -0.6331  1.5297
   13SM24   H71 1926   5.930   4.129   6.373  1.3377 -0.5634 -2.7919
   13SM24   C36 1927   5.838   4.228   6.207  0.3539  0.8329 -0.1854
   13SM24   H72 1928   5.944   4.241   6.185  0.2371  1.4058 -0.4340
   13SM24   H73 1929   5.808   4.328   6.240  0.6157  1.1744 -0.9700
   13SM24   C37 1930   5.755   4.190   6.085  0.9772  0.3345 -0.3192
   13SM24   H74 1931   5.650   4.195   6.114  0.6928 -0.0626 -1.2680
   13SM24   H75 1932   5.787   4.087   6.068  1.6063  0.1970  1.5785
   13SM24   C38 1933   5.784   4.281   5.959  0.1598  0.3086 -0.2891
   13SM24   H76 1934   5.887   4.317   5.956  0.4168 -0.2256  1.7327
   13SM24   H77 1935   5.730   4.375   5.972  0.0908  0.2445 -0.1130
   13SM24   C39 1936   5.755   4.208   5.827 -0.5400 -0.3102  0.3195
   13SM24   H78 1937   5.660   4.157   5.839 -0.9384  0.4801  0.5616
   13SM24   H79 1938   5.824   4.127   5.801  0.8007 -0.3002  3.6330
   13SM24   C40 1939   5.739   4.296   5.696 -0.1211 -0.1127 -0.8901
   13SM24   H80 1940   5.643   4.348   5.690  0.3670  1.1864  1.5961
   13SM24   H81 1941   5.810   4.378   5.692 -0.0790 -0.1595 -1.1303
   13SM24   C41 1942   5.745   4.203   5.572 -0.1427  0.1623 -0.1536
   13SM24   H82 1943   5.664   4.130   5.576  1.1430 -1.2431  0.8828
   13SM24   H83 1944   5.726   4.270   5.487 -3.0409 -0.1793  0.1783
   13SM24   C42 1945   5.887   4.136   5.539 -0.2520 -0.0829 -0.0774
   13SM24   H84 1946   5.884   4.069   5.453 -0.7933  0.0820 -0.1933
   13SM24   H85 1947   5.915   4.076   5.625 -2.0374  1.3656  1.5561
   13SM24   C43 1948   0.047   4.243   5.518  0.1790  0.0573 -0.0152
   13SM24   H86 1949   0.053   4.302   5.610 -1.7080  0.8237 -0.3607
   13SM24   H87 1950   0.017   4.306   5.434 -1.9081 -0.2944  0.4494
   13SM24   C44 1951   0.184   4.183   5.502 -0.3099 -0.6748 -0.0111
   13SM24   H88 1952   0.206   4.121   5.588 -0.4952 -1.2892 -0.4010
   13SM24   H89 1953   0.190   4.098   5.434  3.1237 -0.4896 -0.0108
   13SM24   C45 1954   0.291   4.293   5.484 -0.4154 -0.5130 -0.1142
   13SM24   H90 1955   0.294   4.355   5.573 -3.0112  0.5394 -0.6997
   13SM24   H91 1956   0.249   4.354   5.404  0.4604  1.4540  0.9051
   13SM24   C46 1957   0.428   4.241   5.445  0.3503 -0.3479 -0.3595
   13SM24   H92 1958   0.427   4.175   5.358  1.0549 -2.6523  1.3296
   13SM24   H93 1959   0.488   4.331   5.430  0.8193 -0.6461 -0.2932
   13SM24   C47 1960   0.497   4.164   5.552  0.3261 -0.0979 -0.7841
   13SM24   H94 1961   0.592   4.121   5.520 -0.2042 -2.0731  0.2237
   13SM24   H95 1962   0.515   4.202   5.653  2.2466 -1.2439 -0.6606
   13SM24   H96 1963   0.442   4.073   5.579  0.4758 -0.1852 -0.7735
   14SM24    N1 1964   5.114   3.356   8.102 -0.1079 -0.4098 -0.0200
   14SM24    C1 1965   5.062   3.375   7.959 -0.3600  0.4523  0.5825
   14SM24    H1 1966   5.143   3.327   7.904  1.2117 -0.3460  3.5308
   14SM24    H2 1967   4.966   3.327   7.937 -0.4107  1.0960 -0.6327
   14SM24    C2 1968   5.134   3.207   8.107 -0.1398 -0.3373 -0.3284
   14SM24    H3 1969   5.237   3.199   8.073 -0.1205  3.9237 -1.5891
   14SM24    H4 1970   5.125   3.169   8.209  1.7971 -1.5234 -0.5870
   14SM24    H5 1971   5.073   3.147   8.040  0.0477 -0.0499 -0.7635
   14SM24    C3 1972   5.240   3.419   8.132  0.8956  0.4282 -0.1393
   14SM24    H6 1973   5.311   3.399   8.051 -0.3307 -2.5193 -0.5321
   14SM24    H7 1974   5.235   3.528   8.135  0.3993  0.3682  2.5865
   14SM24    H8 1975   5.290   3.382   8.221  1.0868 -1.9464 -1.2098
   14SM24    C4 1976   5.016   3.394   8.208  0.2154 -0.1166 -0.2733
   14SM24    H9 1977   4.935   3.322   8.201 -0.5976  0.5629  1.7799
   14SM24   H10 1978   5.054   3.384   8.310  0.2290  0.1638 -0.2465
   14SM24   H11 1979   4.960   3.488   8.205 -1.0552 -0.8861 -0.7539
   14SM24    C5 1980   5.038   3.527   7.923 -0.3347 -0.4428  0.4570
   14SM24   H12 1981   5.139   3.568   7.924  0.2456 -1.8544  2.3238
   14SM24   H13 1982   4.993   3.587   8.002 -0.4329 -1.3045  1.0631
   14SM24    P1 1983   4.897   3.675   7.757 -0.3826 -0.1971  0.2545
   14SM24    O1 1984   4.789   3.670   7.856 -0.3287 -0.2161  0.5033
   14SM24    O2 1985   4.867   3.683   7.613 -0.5334 -0.0964 -0.4069
   14SM24    O3 1986   4.987   3.551   7.793  0.2112  0.0431  0.0010
   14SM24    O4 1987   4.983   3.801   7.788 -0.0157 -0.1758  0.5789
   14SM24    C6 1988   5.117   3.813   7.739 -0.3467 -0.0370  0.2880
   14SM24   H14 1989   5.174   3.870   7.812  1.0153  0.4868 -1.1710
   14SM24   H15 1990   5.157   3.711   7.748 -4.2777 -1.6042  1.0315
   14SM24    C7 1991   5.127   3.871   7.596 -0.5465 -0.6585 -0.9708
   14SM24   H16 1992   5.044   3.830   7.539 -0.2478 -1.2024 -1.0173
   14SM24    N2 1993   5.253   3.838   7.518 -0.3471 -0.1414 -0.1860
   14SM24    HN 1994   5.314   3.916   7.496 -1.0938  1.1793  2.2622
   14SM24    C8 1995   5.111   4.029   7.591 -0.7098 -0.5511  0.1620
   14SM24   OSM 1996   5.190   4.092   7.688  0.3281 -1.0420 -0.0868
   14SM24   HSM 1997   5.281   4.085   7.664 -0.1674 -0.5479 -2.3004
   14SM24   H17 1998   5.137   4.069   7.493 -1.1121  1.0290  0.6787
   14SM24    C9 1999   4.970   4.075   7.615  0.2477 -0.1912 -0.3949
   14SM24   H18 2000   4.894   4.000   7.631 -0.7640  0.2469 -2.9494
   14SM24   C10 2001   4.938   4.206   7.613  0.2510 -0.2585  0.0045
   14SM24   H19 2002   5.016   4.272   7.578 -1.1692  0.3584 -2.1382
   14SM24   C11 2003   4.804   4.265   7.633 -0.2962 -0.3638  1.0482
   14SM24   H20 2004   4.809   4.322   7.725 -3.2271  3.9069 -1.2516
   14SM24   H21 2005   4.724   4.192   7.650 -0.7761  0.1596  1.0631
   14SM24   C12 2006   4.771   4.347   7.506 -0.8180 -0.3251 -0.1146
   14SM24   H22 2007   4.799   4.286   7.420 -1.3548 -0.2720 -0.3347
   14SM24   H23 2008   4.829   4.439   7.501 -0.7174 -0.4827 -2.2808
   14SM24   C13 2009   4.623   4.382   7.508 -0.1734  0.0582  0.0999
   14SM24   H24 2010   4.586   4.399   7.609 -3.2992 -1.1468 -0.8071
   14SM24   H25 2011   4.564   4.296   7.479  1.5045 -0.6006 -1.4600
   14SM24   C14 2012   4.587   4.500   7.407 -0.0399 -0.1042  0.4819
   14SM24   H26 2013   4.481   4.487   7.389  0.0019  0.3793 -0.1469
   14SM24   H27 2014   4.638   4.490   7.311  0.2560  0.1080  0.6129
   14SM24   C15 2015   4.617   4.641   7.454 -0.5729 -0.7047  0.4777
   14SM24   H28 2016   4.716   4.652   7.497 -1.4810  2.8688  1.7986
   14SM24   H29 2017   4.540   4.663   7.528 -1.3929  1.5816 -0.9941
   14SM24   C16 2018   4.606   4.742   7.337 -0.1865 -1.0838 -0.2589
   14SM24   H30 2019   4.684   4.716   7.266  0.1600 -2.3255  0.5551
   14SM24   H31 2020   4.629   4.843   7.371  1.0329 -0.9447 -1.4966
   14SM24   C17 2021   4.470   4.743   7.270  0.5988 -0.0129  0.3782
   14SM24   H32 2022   4.452   4.644   7.228 -2.5808  0.1196  1.3472
   14SM24   H33 2023   4.470   4.812   7.186 -2.0373  1.3935  1.4771
   14SM24   C18 2024   4.350   4.800   7.352  0.2919 -0.2986  0.3073
   14SM24   H34 2025   4.376   4.897   7.393  0.1090  0.5863 -1.6282
   14SM24   H34 2026   4.323   4.741   7.440 -0.1295  2.1181  1.8632
   14SM24   C19 2027   4.223   4.822   7.265  0.1992 -0.5373  0.0212
   14SM24   H35 2028   4.191   4.718   7.257  1.3548 -0.8192 -1.1471
   14SM24   H36 2029   4.261   4.857   7.170  1.1615  1.2018  1.0258
   14SM24   C20 2030   4.119   4.912   7.314 -0.0462 -0.4097  0.4564
   14SM24   H37 2031   4.164   5.009   7.335 -2.2275  1.0831 -1.5439
   14SM24   H38 2032   4.087   4.888   7.415 -2.5732 -1.5728 -0.5785
   14SM24   C21 2033   3.993   4.921   7.224  0.1416 -0.5382 -0.4359
   14SM24   H39 2034   3.930   5.001   7.261  1.5646  0.2619  0.3115
   14SM24   H40 2035   3.931   4.831   7.229  1.6260 -1.4716  2.0917
   14SM24   C22 2036   4.020   4.955   7.078 -0.0498 -0.6353 -0.1827
   14SM24   H41 2037   3.930   4.960   7.017  1.2448  1.2320 -2.0006
   14SM24   H42 2038   4.071   4.871   7.031  0.8600  0.5556 -1.3664
   14SM24   C23 2039   4.099   5.083   7.049 -0.3896  0.3070 -0.6563
   14SM24   H43 2040   4.048   5.172   7.085 -0.3977 -1.2118  3.2929
   14SM24   H44 2041   4.198   5.090   7.096 -1.7826  1.2895  2.2197
   14SM24   H45 2042   4.101   5.100   6.941  0.0922 -0.3508 -0.7565
   14SM24   C24 2043   5.302   3.722   7.486 -0.4045 -0.5911  0.3665
   14SM24   O33 2044   5.247   3.614   7.518 -0.1713 -0.6831  0.5170
   14SM24   C25 2045   5.428   3.702   7.401  0.6994  0.3092  0.0762
   14SM24   H50 2046   5.513   3.655   7.452 -0.1728 -2.0625 -0.5932
   14SM24   H51 2047   5.462   3.802   7.376  2.6424 -0.5514 -0.8633
   14SM24   C26 2048   5.388   3.637   7.272 -0.4142  0.0708 -0.2694
   14SM24   H52 2049   5.304   3.691   7.229  1.0668  1.8101 -1.0277
   14SM24   H53 2050   5.360   3.535   7.301  0.4686  0.1904  1.0615
   14SM24   C27 2051   5.505   3.636   7.169 -0.5093  0.5605  0.4663
   14SM24   H54 2052   5.579   3.567   7.208  1.0787  2.7022  1.3471
   14SM24   H55 2053   5.555   3.732   7.154  0.3535  0.1138  0.4897
   14SM24   C28 2054   5.479   3.576   7.034 -0.0833 -0.5694 -0.3802
   14SM24   H56 2055   5.429   3.479   7.039 -0.1718 -0.5660 -1.1705
   14SM24   H57 2056   5.572   3.563   6.979  0.2056 -1.5016  0.3312
   14SM24   C29 2057   5.385   3.664   6.949  0.2611 -0.1308 -0.6809
   14SM24   H58 2058   5.432   3.759   6.926  2.4693 -0.8799  0.6055
   14SM24   H59 2059   5.293   3.684   7.005  1.2657 -0.6247  1.1865
   14SM24   C30 2060   5.351   3.585   6.825 -0.2648  0.1207 -0.3950
   14SM24   H60 2061   5.291   3.503   6.861 -0.6863  0.9625  0.8520
   14SM24   H61 2062   5.443   3.550   6.777  0.2891 -0.2599  0.9237
   14SM24   C31 2063   5.259   3.649   6.721 -0.8028 -0.5904  0.3104
   14SM24   H62 2064   5.159   3.653   6.765 -1.0684 -0.1559 -0.3224
   14SM24   H63 2065   5.239   3.582   6.638  0.7666 -2.0378  1.0789
   14SM24   C32 2066   5.301   3.785   6.665 -0.3648 -0.2575  0.0477
   14SM24   H64 2067   5.302   3.851   6.752  0.8968 -1.6651  1.1472
   14SM24   H65 2068   5.239   3.831   6.589  0.1839  1.3747  0.5757
   14SM24   C33 2069   5.455   3.781   6.615  0.9457 -0.8573 -0.6553
   14SM24   H66 2070   5.511   3.729   6.692  0.6236  1.7276  1.3948
   14SM24   H67 2071   5.491   3.884   6.624  0.3717 -0.5469 -1.7519
   14SM24   C34 2072   5.484   3.716   6.476 -0.0915  0.3474  0.3158
   14SM24   H68 2073   5.441   3.769   6.392  3.6135 -0.0205 -1.9237
   14SM24   H69 2074   5.437   3.619   6.464  0.2490  0.4101 -1.5821
   14SM24   C35 2075   5.642   3.704   6.462  0.2425 -0.3997  0.9504
   14SM24   H70 2076   5.688   3.658   6.549  0.7088  0.0377  0.9399
   14SM24   H71 2077   5.696   3.797   6.444  1.5615 -1.2552  0.4204
   14SM24   C36 2078   5.683   3.634   6.333 -0.5448 -0.1479 -0.6705
   14SM24   H72 2079   5.623   3.663   6.246 -1.7466  1.5464  0.6851
   14SM24   H73 2080   5.666   3.527   6.339  2.7840 -0.6285  1.2406
   14SM24   C37 2081   5.833   3.632   6.308  0.3673 -0.5859  0.9235
   14SM24   H74 2082   5.883   3.595   6.398 -0.0848 -2.7638  0.3115
   14SM24   H75 2083   5.863   3.736   6.298 -2.4837  0.2188  0.2618
   14SM24   C38 2084   5.864   3.548   6.176 -0.1814 -0.1709  0.2952
   14SM24   H76 2085   5.827   3.600   6.088 -0.3180  1.8523  1.5159
   14SM24   H77 2086   5.812   3.452   6.173  3.6126 -2.4224  2.0097
   14SM24   C39 2087   0.066   3.531   6.154  0.2307  0.9066  0.2076
   14SM24   H78 2088   0.084   3.449   6.084  0.7694  0.6912  0.5966
   14SM24   H79 2089   0.107   3.490   6.246  1.4078  1.4180 -0.0729
   14SM24   C40 2090   0.134   3.659   6.116 -0.6009  0.0935  0.1084
   14SM24   H80 2091   0.104   3.670   6.012 -0.4025 -1.6992 -0.1495
   14SM24   H81 2092   0.102   3.750   6.168 -0.7329 -0.1475  0.4560
   14SM24   C41 2093   0.289   3.638   6.129  1.0351 -0.1407  0.1510
   14SM24   H82 2094   0.319   3.592   6.223  0.0017 -1.7790 -0.2956
   14SM24   H83 2095   0.315   3.568   6.050 -1.4733 -1.4066  0.3984
   14SM24   C42 2096   0.372   3.772   6.124  0.6410 -0.0722 -0.0853
   14SM24   H84 2097   0.471   3.745   6.088  0.6073 -1.6853  0.9592
   14SM24   H85 2098   0.387   3.820   6.221  1.6454  0.5482 -0.5464
   14SM24   C43 2099   0.313   3.881   6.042 -0.6220  0.1060  0.0750
   14SM24   H86 2100   0.215   3.914   6.077 -0.8744  0.1675 -0.6568
   14SM24   H87 2101   0.292   3.865   5.936 -2.1518  0.4224  0.3144
   14SM24   C44 2102   0.410   4.001   6.049 -0.0568 -0.4880 -0.5562
   14SM24   H88 2103   0.429   4.034   6.152 -1.1507  1.6655 -1.0185
   14SM24   H89 2104   0.505   3.971   6.004  0.9869  0.7309  0.7632
   14SM24   C45 2105   0.353   4.128   5.977  0.1922 -0.2861  0.3030
   14SM24   H90 2106   0.250   4.150   6.004  0.1486 -0.9692  0.7239
   14SM24   H91 2107   0.357   4.107   5.870 -2.2491 -0.7567  0.2854
   14SM24   C46 2108   0.436   4.254   6.012  0.2256  0.5159 -0.3774
   14SM24   H92 2109   0.386   4.336   5.962  2.8689  0.9435 -2.4964
   14SM24   H93 2110   0.434   4.275   6.119 -0.2740  0.7814 -0.4395
   14SM24   C47 2111   0.584   4.257   5.959  0.0207 -0.1617 -0.4723
   14SM24   H94 2112   0.587   4.229   5.854  1.2096  1.1928 -0.8143
   14SM24   H95 2113   0.631   4.355   5.960 -0.4494  0.0717  1.7403
   14SM24   H96 2114   0.652   4.191   6.013 -1.9844 -2.0683 -0.1645
   15SM24    N1 2115   5.074   4.866   8.283 -0.7093  0.0208  0.3559
   15SM24    C1 2116   4.931   4.911   8.264 -0.0407 -0.1863 -0.8476
   15SM24    H1 2117   4.858   4.833   8.245 -1.0004  0.2336  0.9876
   15SM24    H2 2118   4.891   4.943   8.360  0.4266  0.0810 -0.7408
   15SM24    C2 2119   5.164   4.969   8.346 -0.0572  0.3286 -0.3842
   15SM24    H3 2120   5.134   5.000   8.446 -1.5150 -1.4484 -0.2324
   15SM24    H4 2121   5.266   4.935   8.365 -0.0076 -1.8530 -4.0241
   15SM24    H5 2122   5.172   5.067   8.300 -0.7549  0.3442 -0.4754
   15SM24    C3 2123   5.059   4.754   8.377  0.3140  1.5492 -0.2824
   15SM24    H6 2124   5.157   4.726   8.414  0.1905  1.5814  0.0710
   15SM24    H7 2125   4.983   4.769   8.454 -1.0508  0.2319 -1.3227
   15SM24    H8 2126   5.013   4.667   8.330  0.3881  2.2440 -1.7033
   15SM24    C4 2127   5.130   4.814   8.158 -0.0310 -0.1909 -0.1095
   15SM24    H9 2128   5.134   4.901   8.093 -0.6006 -0.8716 -1.0617
   15SM24   H10 2129   5.228   4.772   8.178 -0.6232 -0.7617  1.7000
   15SM24   H11 2130   5.064   4.733   8.127 -0.6276 -0.1729  1.0939
   15SM24    C5 2131   4.913   5.021   8.154  0.1673 -0.2028  0.0220
   15SM24   H12 2132   4.933   4.985   8.054 -0.6883  0.7533 -0.4998
   15SM24   H13 2133   4.985   5.100   8.173  0.9751 -0.5517 -1.5409
   15SM24    P1 2134   4.788   5.235   8.102 -0.0327  0.0498 -0.0929
   15SM24    O1 2135   4.836   5.315   8.219  0.0334  0.4055  0.9445
   15SM24    O2 2136   4.646   5.271   8.057 -0.6602  0.1111 -0.6422
   15SM24    O3 2137   4.789   5.082   8.147 -0.7222  0.3989 -0.0306
   15SM24    O4 2138   4.881   5.252   7.979 -0.5273 -0.4996  0.0555
   15SM24    C6 2139   4.830   5.205   7.850 -0.8313 -0.3632 -0.4387
   15SM24   H14 2140   4.909   5.161   7.788 -1.3101  0.1457 -1.4217
   15SM24   H15 2141   4.758   5.123   7.855 -3.5780  1.7126 -3.6537
   15SM24    C7 2142   4.770   5.328   7.765 -0.3667  0.1629  0.2666
   15SM24   H16 2143   4.705   5.392   7.824  0.7376 -0.4086  2.1440
   15SM24    N2 2144   4.687   5.274   7.652 -0.3510  1.0611  0.0084
   15SM24    HN 2145   4.656   5.178   7.648 -1.3490  1.3562  0.3718
   15SM24    C8 2146   4.888   5.432   7.719 -0.0078  0.7609  0.4127
   15SM24   OSM 2147   4.826   5.553   7.696  0.3560 -0.0402  0.0572
   15SM24   HSM 2148   4.754   5.538   7.637  0.4999  0.6393 -0.2956
   15SM24   H17 2149   4.971   5.441   7.789  1.0094 -1.2635 -0.5001
   15SM24    C9 2150   4.961   5.399   7.597 -0.0202 -0.9662 -0.1333
   15SM24   H18 2151   4.956   5.295   7.566  0.8325 -0.8003 -0.8493
   15SM24   C10 2152   5.031   5.482   7.519  0.0692  1.1382 -0.1696
   15SM24   H19 2153   5.029   5.582   7.562 -1.3051  0.7137  0.7955
   15SM24   C11 2154   5.120   5.449   7.400 -0.0125  0.2034 -0.5327
   15SM24   H20 2155   5.134   5.342   7.412 -0.6606  0.0160 -1.3872
   15SM24   H21 2156   5.213   5.504   7.414 -0.8470  0.8032  3.2692
   15SM24   C12 2157   5.049   5.486   7.269 -1.0073 -1.0569  0.8540
   15SM24   H22 2158   5.033   5.593   7.277  2.8407 -0.3253  0.1294
   15SM24   H23 2159   4.961   5.425   7.248  1.4422 -3.8600 -1.9886
   15SM24   C13 2160   5.148   5.462   7.150  0.6774 -0.7344  0.3244
   15SM24   H24 2161   5.185   5.360   7.148  0.8140 -0.7008  0.9697
   15SM24   H25 2162   5.234   5.526   7.171  1.6591 -0.9571 -2.8422
   15SM24   C14 2163   5.088   5.510   7.012  0.3976 -0.7037  0.0921
   15SM24   H26 2164   5.033   5.600   7.039  0.4392 -0.5299 -0.4025
   15SM24   H27 2165   5.017   5.434   6.980 -1.0690  0.1802  1.2045
   15SM24   C15 2166   5.197   5.529   6.911 -0.2947  0.2988 -0.1181
   15SM24   H28 2167   5.232   5.430   6.882  0.6087  1.0795 -1.7372
   15SM24   H29 2168   5.280   5.583   6.956  1.5020 -2.1853 -0.3368
   15SM24   C16 2169   5.136   5.595   6.792  1.4116 -0.5252  0.0052
   15SM24   H30 2170   5.082   5.686   6.818  2.1524 -0.0434 -0.1107
   15SM24   H31 2171   5.064   5.518   6.763 -0.7578  1.1136  0.9321
   15SM24   C17 2172   5.235   5.632   6.678 -0.2730  0.0523  0.2425
   15SM24   H32 2173   5.319   5.692   6.713 -0.7373  0.8801 -0.0430
   15SM24   H33 2174   5.184   5.701   6.611  0.1874  1.5533  1.4165
   15SM24   C18 2175   5.273   5.521   6.574  0.7784 -0.0406  0.3811
   15SM24   H34 2176   5.187   5.467   6.534  1.1288  0.5344 -1.1871
   15SM24   H34 2177   5.320   5.437   6.626 -3.4117 -2.1275  1.0323
   15SM24   C19 2178   5.362   5.570   6.462 -0.5559 -0.8764  0.0559
   15SM24   H35 2179   5.448   5.611   6.514 -1.8975  0.3945  1.3504
   15SM24   H36 2180   5.305   5.645   6.407  1.2757 -1.5836 -2.9348
   15SM24   C20 2181   5.406   5.457   6.368  0.2770 -0.2850 -0.3421
   15SM24   H37 2182   5.322   5.397   6.334 -0.4920  1.0222 -0.7556
   15SM24   H38 2183   5.448   5.379   6.432 -0.3583  0.4384  0.9718
   15SM24   C21 2184   5.494   5.493   6.253  0.6127 -0.0829  0.0857
   15SM24   H39 2185   5.580   5.555   6.277  1.6630 -1.1650 -0.7664
   15SM24   H40 2186   5.441   5.555   6.182  1.2222  0.8288  0.4190
   15SM24   C22 2187   5.540   5.376   6.166  0.1394 -0.2246  0.0143
   15SM24   H41 2188   5.449   5.358   6.109 -0.5058  0.9589  0.6528
   15SM24   H42 2189   5.563   5.291   6.230 -2.7391  0.9073  2.6533
   15SM24   C23 2190   5.665   5.404   6.081  0.7673  0.5142 -0.3635
   15SM24   H43 2191   5.655   5.494   6.021 -0.8013 -0.2451 -1.2440
   15SM24   H44 2192   5.749   5.416   6.150  0.3065 -0.9365  0.4819
   15SM24   H45 2193   5.698   5.321   6.019  0.9631 -0.8383  1.5110
   15SM24   C24 2194   4.625   5.343   7.559  0.3113  0.0475  0.1112
   15SM24   O33 2195   4.643   5.465   7.547 -0.2750 -0.3645  0.1203
   15SM24   C25 2196   4.561   5.277   7.435  0.0063  0.4309 -0.5983
   15SM24   H50 2197   4.465   5.325   7.413 -2.0373 -2.8290  0.8726
   15SM24   H51 2198   4.534   5.174   7.460 -0.4435  1.2359  2.3649
   15SM24   C26 2199   4.630   5.292   7.296 -0.4351 -0.7482  0.2060
   15SM24   H52 2200   4.739   5.294   7.297 -0.4442  0.3345  0.0671
   15SM24   H53 2201   4.614   5.391   7.255 -1.5783 -0.3267  1.6217
   15SM24   C27 2202   4.580   5.183   7.207  0.1801 -0.3349 -0.0482
   15SM24   H54 2203   4.472   5.176   7.207  0.0730  1.0128  1.0385
   15SM24   H55 2204   4.616   5.090   7.251  0.7749 -0.5064 -0.8864
   15SM24   C28 2205   4.633   5.217   7.063 -0.1706  0.0558 -0.2735
   15SM24   H56 2206   4.741   5.232   7.058 -0.2834  1.0464 -0.0205
   15SM24   H57 2207   4.584   5.310   7.033  3.2146  1.6317 -1.2106
   15SM24   C29 2208   4.617   5.106   6.956 -0.2753 -0.5200  0.0460
   15SM24   H58 2209   4.515   5.068   6.951 -0.1746 -0.9839  1.2551
   15SM24   H59 2210   4.673   5.014   6.975 -0.8943 -1.1993 -1.3194
   15SM24   C30 2211   4.670   5.156   6.822  0.2182  0.4394 -0.2371
   15SM24   H60 2212   4.614   5.236   6.774 -3.1828 -0.2948  2.2938
   15SM24   H61 2213   4.651   5.071   6.756  0.2817 -0.4269  0.8328
   15SM24   C31 2214   4.820   5.183   6.819  0.4613 -0.6121  0.6093
   15SM24   H62 2215   4.878   5.105   6.868  1.7439  0.6020  1.0735
   15SM24   H63 2216   4.840   5.283   6.858 -0.8768 -0.5077  1.0425
   15SM24   C32 2217   4.870   5.185   6.677 -0.2778 -0.2887 -0.0112
   15SM24   H64 2218   4.853   5.282   6.631 -3.7384 -0.5574  0.6191
   15SM24   H65 2219   4.825   5.103   6.623 -2.5311 -0.4684  2.0314
   15SM24   C33 2220   5.018   5.146   6.670  0.8653  0.1250  0.2718
   15SM24   H66 2221   5.039   5.059   6.732  0.1862 -0.1014  0.1851
   15SM24   H67 2222   5.083   5.228   6.700 -0.5318  0.6942  1.7947
   15SM24   C34 2223   5.057   5.112   6.521  0.8163 -0.2504  0.0315
   15SM24   H68 2224   5.041   5.191   6.447 -1.4908  0.5812  1.3557
   15SM24   H69 2225   4.998   5.026   6.489  0.4505 -0.0842  0.2447
   15SM24   C35 2226   5.202   5.074   6.497  0.0338 -0.1089 -0.1477
   15SM24   H70 2227   5.223   4.978   6.543  0.1130 -0.2311 -0.4320
   15SM24   H71 2228   5.266   5.145   6.550 -0.2932 -0.0654  0.1902
   15SM24   C36 2229   5.229   5.059   6.344 -0.5586 -0.2280  0.9234
   15SM24   H72 2230   5.206   5.144   6.280 -1.8992  0.1092  1.8248
   15SM24   H73 2231   5.166   4.981   6.302  0.3083 -0.1284 -0.5764
   15SM24   C37 2232   5.371   5.022   6.315 -0.0325 -0.2032 -0.2587
   15SM24   H74 2233   5.400   4.950   6.391  0.4521 -1.3078 -1.4668
   15SM24   H75 2234   5.438   5.107   6.327  0.8421 -0.7295 -1.3455
   15SM24   C38 2235   5.386   4.961   6.170  0.5880  0.3811  0.5156
   15SM24   H76 2236   5.408   5.037   6.095 -0.1189  1.1095  1.0397
   15SM24   H77 2237   5.287   4.924   6.143  0.3846  0.5306  1.0522
   15SM24   C39 2238   5.487   4.842   6.159 -0.4630  0.3316 -0.3513
   15SM24   H78 2239   5.478   4.756   6.225  0.5994 -0.5709 -1.3631
   15SM24   H79 2240   5.577   4.893   6.192  0.4798 -1.7712  0.3991
   15SM24   C40 2241   5.505   4.791   6.012 -0.2785  0.3430  0.1974
   15SM24   H80 2242   5.515   4.877   5.945  0.3012 -0.1775 -0.3951
   15SM24   H81 2243   5.605   4.748   6.006 -0.0492  1.0695 -1.4200
   15SM24   C41 2244   5.397   4.691   5.968  0.9407 -0.3777  0.3022
   15SM24   H82 2245   5.373   4.620   6.047  1.2993  0.2034  0.9409
   15SM24   H83 2246   5.297   4.733   5.964  1.3654  0.8393  1.6197
   15SM24   C42 2247   5.439   4.618   5.839  0.2546 -0.5415  0.1284
   15SM24   H84 2248   5.372   4.534   5.822 -1.0209  0.8241 -1.8660
   15SM24   H85 2249   5.542   4.588   5.862  0.9377  1.8573  0.3407
   15SM24   C43 2250   5.438   4.705   5.711  0.3343 -0.1718  0.5338
   15SM24   H86 2251   5.516   4.780   5.722  0.5091 -0.1902 -0.5720
   15SM24   H87 2252   5.341   4.751   5.698  0.4096 -0.1585  0.0169
   15SM24   C44 2253   5.455   4.625   5.578 -0.5951 -0.1908  0.0257
   15SM24   H88 2254   5.558   4.588   5.577  0.2696  2.0840  0.8153
   15SM24   H89 2255   5.400   4.531   5.587 -1.0858  0.0154 -0.7811
   15SM24   C45 2256   5.419   4.704   5.451  0.6123 -1.1037 -0.5992
   15SM24   H90 2257   5.450   4.636   5.372  0.3676 -2.7033  0.6694
   15SM24   H91 2258   5.473   4.799   5.442  1.0139 -0.9906  2.6247
   15SM24   C46 2259   5.270   4.727   5.417 -0.0862 -0.5176 -0.0651
   15SM24   H92 2260   5.214   4.634   5.426 -0.2102 -0.5061 -0.7268
   15SM24   H93 2261   5.227   4.795   5.491 -0.3969 -2.6442  1.7638
   15SM24   C47 2262   5.257   4.797   5.275 -0.5856  0.3949  0.3844
   15SM24   H94 2263   5.313   4.889   5.266  3.6917 -2.3260 -2.4831
   15SM24   H95 2264   5.295   4.734   5.195  0.5561 -0.1512  1.3436
   15SM24   H96 2265   5.153   4.824   5.258  0.4252  2.4245 -2.8249
   16SM24    N1 2266   1.535   4.761   7.894 -0.6424  0.4525 -0.0316
   16SM24    C1 2267   1.404   4.826   7.905 -0.2644  0.0672  0.1122
   16SM24    H1 2268   1.333   4.752   7.940 -0.6315  0.0346 -0.6728
   16SM24    H2 2269   1.403   4.914   7.969 -0.6539  0.1750 -0.0342
   16SM24    C2 2270   1.554   4.682   8.023  0.2056  0.5434 -0.0050
   16SM24    H3 2271   1.537   4.737   8.115 -1.1386  0.4843 -0.2128
   16SM24    H4 2272   1.482   4.602   8.038  0.7783  0.1811  0.8147
   16SM24    H5 2273   1.648   4.626   8.029 -0.2956 -0.2860  0.1285
   16SM24    C3 2274   1.557   4.662   7.782  0.5197 -0.1806 -0.4304
   16SM24    H6 2275   1.533   4.701   7.683  3.0774 -0.3254 -1.1347
   16SM24    H7 2276   1.649   4.604   7.781 -0.4641 -1.8039 -0.4792
   16SM24    H8 2277   1.480   4.585   7.795 -0.1215  0.7536  1.5314
   16SM24    C4 2278   1.644   4.866   7.889  0.3660 -0.9733  0.3230
   16SM24    H9 2279   1.644   4.921   7.795 -0.0095  0.6229  1.2541
   16SM24   H10 2280   1.622   4.941   7.964  0.6579 -0.4228 -0.1370
   16SM24   H11 2281   1.739   4.814   7.907  0.2298 -1.4775 -0.3868
   16SM24    C5 2282   1.344   4.879   7.774 -0.6174  0.5535  0.2806
   16SM24   H12 2283   1.362   4.824   7.682 -1.7946  0.5346  0.0549
   16SM24   H13 2284   1.395   4.974   7.755  0.0886  0.2325  0.5600
   16SM24    P1 2285   1.106   4.807   7.702  0.2755 -0.3208 -0.4611
   16SM24    O1 2286   0.968   4.852   7.733  0.4509 -0.4258 -0.2841
   16SM24    O2 2287   1.139   4.665   7.722 -0.0686  0.0663  0.1057
   16SM24    O3 2288   1.206   4.895   7.794 -0.3581  0.0150 -0.2691
   16SM24    O4 2289   1.136   4.835   7.551  0.1991 -0.3727  0.9765
   16SM24    C6 2290   1.149   4.967   7.502  0.3249 -0.3974  0.5087
   16SM24   H14 2291   1.076   5.037   7.543  2.4884  1.1614  1.7872
   16SM24   H15 2292   1.242   5.017   7.526 -0.0331  1.2778 -1.4653
   16SM24    C7 2293   1.135   4.968   7.346  0.3642 -0.2555 -0.0534
   16SM24   H16 2294   1.200   4.892   7.301  0.4272  0.0876 -0.5432
   16SM24    N2 2295   1.195   5.092   7.289 -0.0875  0.0569  0.2079
   16SM24    HN 2296   1.122   5.158   7.268  0.8693  1.2998  0.7196
   16SM24    C8 2297   0.988   4.963   7.285 -0.4679  0.4454 -0.4049
   16SM24   OSM 2298   0.907   5.074   7.312 -0.0203 -0.2585 -0.1490
   16SM24   HSM 2299   0.873   5.064   7.400  1.4619  0.3259  0.5074
   16SM24   H17 2300   0.982   4.959   7.177 -0.2717 -1.6044 -0.3557
   16SM24    C9 2301   0.912   4.853   7.352 -1.0758  0.2590  0.1522
   16SM24   H18 2302   0.906   4.852   7.460  0.6395  1.0950  0.2655
   16SM24   C10 2303   0.843   4.756   7.287 -0.9760 -0.0756 -0.5371
   16SM24   H19 2304   0.856   4.744   7.181  0.2786 -0.7521 -0.3117
   16SM24   C11 2305   0.763   4.646   7.359 -0.5942  0.3780  0.1889
   16SM24   H20 2306   0.662   4.663   7.322  0.0499  0.7562 -1.4468
   16SM24   H21 2307   0.758   4.653   7.467 -0.4358 -1.0783  0.3066
   16SM24   C12 2308   0.806   4.507   7.309  0.0239  0.2309  0.3119
   16SM24   H22 2309   0.905   4.487   7.349 -0.4825 -1.6848  0.6989
   16SM24   H23 2310   0.830   4.503   7.203  1.9036  2.0334  0.6286
   16SM24   C13 2311   0.726   4.387   7.357  0.5892 -0.1682  0.6008
   16SM24   H24 2312   0.620   4.386   7.334  0.0396 -0.0226  2.9953
   16SM24   H25 2313   0.732   4.398   7.465 -0.3731 -1.7671  0.8284
   16SM24   C14 2314   0.784   4.264   7.301 -0.2968  0.0782 -0.3071
   16SM24   H26 2315   0.729   4.178   7.340 -0.5449  0.2098 -0.3617
   16SM24   H27 2316   0.885   4.250   7.338 -0.6803  0.5432  0.9272
   16SM24   C15 2317   0.778   4.254   7.147 -1.0751  0.3314 -0.1179
   16SM24   H28 2318   0.815   4.154   7.125  0.4340  0.8550 -0.0505
   16SM24   H29 2319   0.854   4.308   7.090 -1.0944 -1.0604 -1.4904
   16SM24   C16 2320   0.646   4.262   7.070  0.2205 -0.1446  0.0741
   16SM24   H30 2321   0.579   4.340   7.105 -3.0339 -1.9256 -1.8467
   16SM24   H31 2322   0.582   4.173   7.072  1.4987 -1.1191 -1.2485
   16SM24   C17 2323   0.667   4.292   6.924  0.0639 -0.3180 -0.7907
   16SM24   H32 2324   0.751   4.231   6.889  1.9411  1.5421  0.3244
   16SM24   H33 2325   0.694   4.397   6.912 -0.5329  0.0764  1.1816
   16SM24   C18 2326   0.549   4.248   6.839 -0.3378 -0.4332  0.5882
   16SM24   H34 2327   0.470   4.321   6.853 -0.8655 -1.0459  0.8333
   16SM24   H34 2328   0.516   4.149   6.870  0.0889 -0.7574  0.0337
   16SM24   C19 2329   0.597   4.253   6.695  0.2565 -0.0553  0.6885
   16SM24   H35 2330   0.654   4.161   6.679  1.0954  0.2537  1.8423
   16SM24   H36 2331   0.668   4.334   6.683  0.3040  0.0833  1.8468
   16SM24   C20 2332   0.482   4.270   6.591 -0.8594  0.1446  0.2680
   16SM24   H37 2333   0.410   4.346   6.620  0.4060  0.9397  1.3953
   16SM24   H38 2334   0.441   4.169   6.584  1.8676 -0.9445 -0.5289
   16SM24   C21 2335   0.531   4.309   6.457 -0.1633 -0.1769  0.4948
   16SM24   H39 2336   0.578   4.407   6.445  1.2914 -0.7140  1.6421
   16SM24   H40 2337   0.445   4.323   6.391  0.5467 -0.2648 -0.4538
   16SM24   C22 2338   0.618   4.202   6.390  0.5619  1.5066 -0.1213
   16SM24   H41 2339   0.543   4.153   6.327 -2.0545  4.6641  0.3867
   16SM24   H42 2340   0.646   4.130   6.468  1.1294  0.6118 -1.1301
   16SM24   C23 2341   0.725   4.256   6.300 -0.6443 -0.7359  0.2062
   16SM24   H43 2342   0.688   4.344   6.247  2.0542  1.0435  1.2176
   16SM24   H44 2343   0.821   4.275   6.348 -0.7582 -1.1969  0.6309
   16SM24   H45 2344   0.764   4.191   6.221  0.5648 -0.8519  0.8863
   16SM24   C24 2345   1.323   5.137   7.294 -0.1217  0.4620  0.1992
   16SM24   O33 2346   1.411   5.064   7.344  0.1895  0.1230  0.0641
   16SM24   C25 2347   1.353   5.274   7.232  0.2361  0.5007 -0.5232
   16SM24   H50 2348   1.328   5.353   7.303  1.9132  2.1281 -1.6740
   16SM24   H51 2349   1.290   5.274   7.144  1.0294 -0.9099 -1.1106
   16SM24   C26 2350   1.503   5.291   7.190 -0.1561  0.0095  0.1583
   16SM24   H52 2351   1.538   5.204   7.134 -0.6266 -1.9212  2.7665
   16SM24   H53 2352   1.558   5.297   7.283  0.3641 -1.4061 -0.0541
   16SM24   C27 2353   1.534   5.417   7.104  0.2769 -0.2637 -0.3559
   16SM24   H54 2354   1.640   5.441   7.112 -0.0888  1.2050  0.2545
   16SM24   H55 2355   1.476   5.501   7.142 -1.3220 -0.5424 -2.0938
   16SM24   C28 2356   1.506   5.397   6.953 -0.8322 -0.0685  0.3618
   16SM24   H56 2357   1.412   5.341   6.943 -0.2341 -1.2571  1.2252
   16SM24   H57 2358   1.571   5.329   6.898 -0.5425  2.8980 -3.1689
   16SM24   C29 2359   1.495   5.520   6.873 -0.1705  0.5878 -0.0046
   16SM24   H58 2360   1.588   5.578   6.879 -0.1674  0.7351 -1.3190
   16SM24   H59 2361   1.411   5.571   6.919 -0.1851 -1.4740  2.3133
   16SM24   C30 2362   1.472   5.496   6.724  0.2662  0.1025 -0.0289
   16SM24   H60 2363   1.531   5.414   6.684  0.8950 -0.5776  2.2571
   16SM24   H61 2364   1.489   5.591   6.674  2.2230  0.8960  2.0620
   16SM24   C31 2365   1.323   5.458   6.694 -0.2110 -0.0778 -0.1394
   16SM24   H62 2366   1.257   5.532   6.740 -1.0025 -0.5925 -0.4454
   16SM24   H63 2367   1.299   5.362   6.740 -1.3352 -0.9081 -2.4079
   16SM24   C32 2368   1.279   5.444   6.545 -0.3344 -0.2706  0.2696
   16SM24   H64 2369   1.342   5.373   6.491  0.6043  0.3867  0.4879
   16SM24   H65 2370   1.291   5.538   6.490  4.0243 -0.8798  0.0242
   16SM24   C33 2371   1.135   5.394   6.514 -0.0768  0.3272  0.5496
   16SM24   H66 2372   1.056   5.456   6.558  2.0259  2.2956  1.6897
   16SM24   H67 2373   1.119   5.288   6.535 -0.7569  0.7018  1.9870
   16SM24   C34 2374   1.111   5.411   6.361  0.0897  0.0109 -0.0211
   16SM24   H68 2375   1.147   5.321   6.311 -0.1538 -0.6590  0.9829
   16SM24   H69 2376   1.159   5.495   6.310  1.6176  0.7089  2.4413
   16SM24   C35 2377   0.964   5.442   6.330  0.0758 -0.1737 -0.0909
   16SM24   H70 2378   0.944   5.465   6.225 -1.0178  0.8463  0.3325
   16SM24   H71 2379   0.933   5.531   6.384  3.0255  1.4166 -0.8962
   16SM24   C36 2380   0.872   5.323   6.379  0.2969 -0.5593 -0.0460
   16SM24   H72 2381   0.771   5.333   6.339  0.4507  2.8190  0.2482
   16SM24   H73 2382   0.854   5.325   6.487 -0.1224 -0.6637 -0.1137
   16SM24   C37 2383   0.929   5.187   6.339 -0.5412 -0.2578  0.5843
   16SM24   H74 2384   1.026   5.161   6.382 -0.1496  1.5824  0.8398
   16SM24   H75 2385   0.952   5.183   6.233 -2.0539 -0.5197  0.2429
   16SM24   C38 2386   0.824   5.074   6.375  0.3403  0.0540  0.0187
   16SM24   H76 2387   0.854   4.981   6.327  0.9607  0.0411  0.4263
   16SM24   H77 2388   0.725   5.089   6.331  0.6375  1.2238 -0.2753
   16SM24   C39 2389   0.807   5.044   6.521 -0.5981 -0.3900 -0.1084
   16SM24   H78 2390   0.724   4.976   6.542 -1.1313  0.8433  1.9212
   16SM24   H79 2391   0.777   5.131   6.579 -0.6335  0.6483 -1.6737
   16SM24   C40 2392   0.935   4.973   6.578  0.8617 -0.0754 -0.5220
   16SM24   H80 2393   0.980   4.894   6.518  2.1410  0.3598 -0.1489
   16SM24   H81 2394   1.024   5.036   6.576  1.1518 -0.4958 -1.0054
   16SM24   C41 2395   0.931   4.923   6.727 -0.0258  0.2111 -0.2584
   16SM24   H82 2396   0.866   4.836   6.728 -1.0765  0.9824 -0.1772
   16SM24   H83 2397   1.026   4.884   6.763 -1.1857 -2.0583  0.4708
   16SM24   C42 2398   0.888   5.038   6.826  0.0158 -0.1818  0.4600
   16SM24   H84 2399   0.895   5.007   6.931  1.7527 -0.0206  0.4038
   16SM24   H85 2400   0.790   5.072   6.795 -1.3408 -3.6328  0.8084
   16SM24   C43 2401   0.967   5.170   6.823 -0.1248 -0.4410  0.4281
   16SM24   H86 2402   0.942   5.223   6.731 -2.0758  0.6234  1.5499
   16SM24   H87 2403   1.073   5.146   6.832  0.6728  2.1330 -1.5157
   16SM24   C44 2404   0.923   5.265   6.938  0.4295 -0.5654 -0.3068
   16SM24   H88 2405   0.821   5.298   6.917  0.1622  0.4195  2.3368
   16SM24   H89 2406   0.939   5.222   7.037  1.1016 -0.2843 -0.2873
   16SM24   C45 2407   1.004   5.391   6.929 -0.0199  0.6500 -0.4138
   16SM24   H90 2408   0.962   5.450   6.847 -1.0048 -0.3057 -0.6117
   16SM24   H91 2409   1.104   5.362   6.899 -0.6804 -1.1063 -0.9826
   16SM24   C46 2410   0.998   5.471   7.056  0.3388 -0.4872 -0.5839
   16SM24   H92 2411   0.897   5.444   7.087  0.8261 -0.5393  0.9982
   16SM24   H93 2412   1.071   5.438   7.130 -0.1440  0.7183  0.4478
   16SM24   C47 2413   1.033   5.619   7.020  0.0976  0.4750 -0.1019
   16SM24   H94 2414   1.121   5.653   7.075  0.9235  0.2074 -1.2187
   16SM24   H95 2415   1.011   5.647   6.917 -2.1035  1.7319  0.6789
   16SM24   H96 2416   0.948   5.667   7.068  0.3933  1.9290 -0.9842
   17SM24    N1 2417   0.393   0.890   8.219  0.0453  0.5352  0.7083
   17SM24    C1 2418   0.520   0.878   8.302 -0.1825  0.1583  0.6618
   17SM24    H1 2419   0.604   0.905   8.239 -0.8428 -0.2075 -0.3777
   17SM24    H2 2420   0.518   0.952   8.383 -1.3904  0.8241  0.0431
   17SM24    C2 2421   0.395   1.018   8.144 -0.0221 -0.2010  0.1552
   17SM24    H3 2422   0.401   1.104   8.211  0.7321 -0.2618  0.1712
   17SM24    H4 2423   0.486   1.021   8.084  0.4204 -0.5231  0.8078
   17SM24    H5 2424   0.304   1.020   8.085 -0.5454  2.2613  0.9619
   17SM24    C3 2425   0.370   0.789   8.116 -0.2483 -0.4517  0.2269
   17SM24    H6 2426   0.373   0.692   8.167  0.1169 -2.1681 -2.9340
   17SM24    H7 2427   0.278   0.787   8.057  1.2638  1.4814 -2.2798
   17SM24    H8 2428   0.454   0.794   8.047 -0.8393  1.6744 -0.3504
   17SM24    C4 2429   0.271   0.877   8.305  0.4423  0.0113 -0.3517
   17SM24    H9 2430   0.182   0.884   8.243  1.4977  0.7307 -1.8149
   17SM24   H10 2431   0.256   0.776   8.345  0.8326 -0.0057 -0.2485
   17SM24   H11 2432   0.268   0.947   8.389 -0.6542  0.3244 -0.6441
   17SM24    C5 2433   0.553   0.741   8.365 -0.3082  0.2847 -0.0103
   17SM24   H12 2434   0.564   0.666   8.286 -4.0010  2.6123 -2.8902
   17SM24   H13 2435   0.474   0.694   8.423  0.2859 -0.3663  0.2763
   17SM24    P1 2436   0.803   0.653   8.415 -0.0392 -0.3393 -0.0128
   17SM24    O1 2437   0.756   0.516   8.426  0.0531  0.1005 -0.1483
   17SM24    O2 2438   0.904   0.697   8.507  0.7150  0.6390 -0.4310
   17SM24    O3 2439   0.672   0.750   8.442 -0.1230  0.3520  0.6729
   17SM24    O4 2440   0.854   0.668   8.266  0.0591 -0.0722 -0.1465
   17SM24    C6 2441   0.907   0.794   8.219  0.2648  0.1536 -0.1144
   17SM24   H14 2442   0.844   0.874   8.258  0.3433  0.6995 -1.0900
   17SM24   H15 2443   1.008   0.798   8.261  1.3805  0.6361 -2.7820
   17SM24    C7 2444   0.926   0.806   8.069  0.4670 -0.1961  0.3219
   17SM24   H16 2445   0.987   0.717   8.055 -0.3021 -1.1365  2.7560
   17SM24    N2 2446   1.016   0.924   8.035  0.2812  0.3487 -0.0352
   17SM24    HN 2447   1.028   0.990   8.111 -2.9472 -0.1418  0.9814
   17SM24    C8 2448   0.796   0.803   7.982  0.5881 -0.4008  0.2546
   17SM24   OSM 2449   0.709   0.910   8.005 -0.5276 -0.0972  0.4992
   17SM24   HSM 2450   0.756   0.992   7.994  1.1330 -1.3009 -1.9870
   17SM24   H17 2451   0.827   0.813   7.878 -0.5290  0.6817  0.0110
   17SM24    C9 2452   0.703   0.683   7.986 -0.5126  0.1870  0.5530
   17SM24   H18 2453   0.705   0.620   8.073 -0.6228 -1.3718 -0.5495
   17SM24   C10 2454   0.633   0.642   7.885  0.9262 -0.1341  0.5663
   17SM24   H19 2455   0.642   0.693   7.791  2.6094 -0.2667  0.6323
   17SM24   C11 2456   0.530   0.529   7.898 -0.6123  0.6151 -0.2781
   17SM24   H20 2457   0.490   0.532   7.999 -0.7638 -0.8242 -0.2789
   17SM24   H21 2458   0.591   0.439   7.887  0.0128  1.0583 -0.4449
   17SM24   C12 2459   0.420   0.541   7.788  0.2861 -0.0130  0.1266
   17SM24   H22 2460   0.372   0.639   7.797 -0.4218 -0.5806  3.4096
   17SM24   H23 2461   0.337   0.471   7.799  0.0804  0.2488  0.2911
   17SM24   C13 2462   0.471   0.536   7.644 -0.2265  0.2902 -0.0328
   17SM24   H24 2463   0.524   0.624   7.609 -0.5938  0.5103 -0.0393
   17SM24   H25 2464   0.383   0.529   7.581 -1.3678 -1.3344  1.6889
   17SM24   C14 2465   0.552   0.408   7.620 -0.4612  0.0453  0.7325
   17SM24   H26 2466   0.642   0.411   7.682 -0.7201 -0.3809  1.1306
   17SM24   H27 2467   0.591   0.408   7.518  2.8667  1.6946  1.9189
   17SM24   C15 2468   0.464   0.282   7.648 -0.1987  0.4972  0.2719
   17SM24   H28 2469   0.382   0.277   7.576  1.1269 -2.2683 -1.1106
   17SM24   H29 2470   0.422   0.274   7.749 -1.5248  3.8443  0.0592
   17SM24   C16 2471   0.560   0.156   7.630  0.3066  0.0515 -0.4501
   17SM24   H30 2472   0.507   0.073   7.676 -1.7718  1.2961 -0.4878
   17SM24   H31 2473   0.648   0.161   7.693 -0.5378 -0.4024  0.7913
   17SM24   C17 2474   0.586   0.120   7.483 -0.1499 -0.3749 -0.8621
   17SM24   H32 2475   0.632   0.202   7.429  1.1809 -0.3305  0.3154
   17SM24   H33 2476   0.491   0.100   7.434  0.2559 -0.1227 -1.7775
   17SM24   C18 2477   0.681   0.003   7.468 -0.0354 -0.3435 -0.4938
   17SM24   H34 2478   0.704   5.939   7.362  0.8159  1.1416 -0.5060
   17SM24   H34 2479   0.630   5.863   7.506 -1.0899 -0.0466 -1.1847
   17SM24   C19 2480   0.811   0.025   7.550  0.2411 -0.1606  0.2089
   17SM24   H35 2481   0.800   0.003   7.657 -3.2397 -1.3705 -0.3277
   17SM24   H36 2482   0.852   0.126   7.540 -0.3881  0.2079  1.1799
   17SM24   C20 2483   0.930   5.891   7.513  0.3001 -0.0826 -0.4178
   17SM24   H37 2484   0.921   5.865   7.407  0.4497 -0.3221 -0.3743
   17SM24   H38 2485   0.916   5.796   7.564 -1.3079  0.8944  0.9970
   17SM24   C21 2486   1.069   0.005   7.531  0.4017 -0.1433  0.1349
   17SM24   H39 2487   1.072   0.035   7.635  1.2199 -1.9473  0.6432
   17SM24   H40 2488   1.069   0.098   7.473 -1.8551 -1.1438 -1.5265
   17SM24   C22 2489   1.187   5.851   7.504 -0.1156  0.8117 -0.4146
   17SM24   H41 2490   1.177   5.766   7.572  0.9458  0.2900 -0.9007
   17SM24   H42 2491   1.280   5.896   7.538 -0.7310  0.3136  2.0549
   17SM24   C23 2492   1.196   5.790   7.363  0.1770 -0.1604  0.0836
   17SM24   H43 2493   1.271   5.711   7.356  0.0692 -0.0578 -3.0407
   17SM24   H44 2494   1.104   5.744   7.328 -0.4307 -0.2342  1.7493
   17SM24   H45 2495   1.209   5.863   7.283 -3.6757  2.2828  1.5799
   17SM24   C24 2496   1.066   0.943   7.915  0.0146  0.7180  0.1412
   17SM24   O33 2497   1.073   0.850   7.834 -0.0081 -0.4115  0.6865
   17SM24   C25 2498   1.151   1.064   7.895  0.7777 -0.3009  0.2905
   17SM24   H50 2499   1.255   1.042   7.920  0.8258 -0.2785  0.1071
   17SM24   H51 2500   1.130   1.138   7.972  0.8923 -0.3545  0.3756
   17SM24   C26 2501   1.123   1.141   7.764 -0.0691 -0.6583  0.6357
   17SM24   H52 2502   1.176   1.236   7.773 -0.6779 -0.3051  0.5040
   17SM24   H53 2503   1.018   1.167   7.760  0.0741  0.3023  2.6800
   17SM24   C27 2504   1.200   1.082   7.641  0.0666 -0.2499 -0.3161
   17SM24   H54 2505   1.164   0.984   7.610  0.4344 -0.5169  0.0901
   17SM24   H55 2506   1.308   1.076   7.660  0.6884  2.0439 -2.9188
   17SM24   C28 2507   1.196   1.165   7.516  0.3303 -0.1779  0.2433
   17SM24   H56 2508   1.241   1.259   7.547  0.3768 -0.7584  1.9464
   17SM24   H57 2509   1.092   1.193   7.497  0.1687  1.3077  3.0980
   17SM24   C29 2510   1.272   1.100   7.397 -0.0142 -0.2627  0.3562
   17SM24   H58 2511   1.227   1.011   7.352 -0.9356 -0.4139  1.5739
   17SM24   H59 2512   1.375   1.077   7.426  0.0373 -0.6630 -0.1188
   17SM24   C30 2513   1.295   1.204   7.281  0.1924  0.2250  0.0686
   17SM24   H60 2514   1.345   1.290   7.326 -1.8996  0.0600  2.8649
   17SM24   H61 2515   1.193   1.238   7.261  0.2211  0.5194  0.4174
   17SM24   C31 2516   1.355   1.144   7.159  0.5008  0.5810 -0.8849
   17SM24   H62 2517   1.288   1.068   7.120 -0.5077  1.1185 -0.1979
   17SM24   H63 2518   1.445   1.085   7.174  0.3166  0.5329  0.0308
   17SM24   C32 2519   1.399   1.242   7.052 -1.1388  0.4752  0.1836
   17SM24   H64 2520   1.432   1.182   6.967  1.4339  2.6519 -0.4036
   17SM24   H65 2521   1.486   1.304   7.070  1.4470 -2.6811 -0.9850
   17SM24   C33 2522   1.281   1.328   7.011 -0.2386 -0.1621  0.1731
   17SM24   H66 2523   1.264   1.406   7.085 -1.6631  0.1299 -0.4474
   17SM24   H67 2524   1.185   1.276   7.007 -0.4982  0.3107  0.1903
   17SM24   C34 2525   1.299   1.392   6.879  0.2437 -0.5138  0.9884
   17SM24   H68 2526   1.405   1.410   6.865  0.5528 -2.4884  0.7657
   17SM24   H69 2527   1.252   1.490   6.864 -0.7966 -1.1789 -0.1527
   17SM24   C35 2528   1.273   1.296   6.759 -0.4009 -0.1365 -0.3834
   17SM24   H70 2529   1.168   1.268   6.754 -0.4707  0.1619 -0.6820
   17SM24   H71 2530   1.335   1.207   6.749 -0.2439 -0.0868  0.1632
   17SM24   C36 2531   1.296   1.377   6.635 -0.2591 -1.1479  0.2780
   17SM24   H72 2532   1.379   1.443   6.658 -1.3658  0.3426  0.0828
   17SM24   H73 2533   1.207   1.436   6.616  1.3244  0.9906 -0.6905
   17SM24   C37 2534   1.322   1.294   6.511  0.4781 -0.2070  0.3702
   17SM24   H74 2535   1.230   1.238   6.492  0.7429 -1.1419  1.7987
   17SM24   H75 2536   1.404   1.224   6.524  1.3524  0.3412 -1.8681
   17SM24   C38 2537   1.357   1.385   6.388 -0.1488 -0.1319  0.6679
   17SM24   H76 2538   1.450   1.440   6.407  0.3028 -0.7567  0.2972
   17SM24   H77 2539   1.279   1.460   6.382 -1.3155 -1.2871  1.2324
   17SM24   C39 2540   1.389   1.310   6.262  0.0612 -0.1861 -0.5890
   17SM24   H78 2541   1.319   1.235   6.226  0.1222 -0.6544  0.2467
   17SM24   H79 2542   1.481   1.251   6.269 -0.9975 -1.6361  2.0739
   17SM24   C40 2543   1.398   1.410   6.151  0.5106 -0.0531 -0.0999
   17SM24   H80 2544   1.299   1.455   6.137  0.3958 -0.9266 -2.3175
   17SM24   H81 2545   1.466   1.488   6.183  2.2296 -1.0003 -1.3844
   17SM24   C41 2546   1.456   1.354   6.027  0.4312  0.2268  0.3770
   17SM24   H82 2547   1.560   1.323   6.036 -0.5849 -2.6811  3.1123
   17SM24   H83 2548   1.398   1.265   6.001 -1.8995  2.4109 -2.1317
   17SM24   C42 2549   1.453   1.465   5.917  0.1377 -0.6903 -0.1996
   17SM24   H84 2550   1.493   1.562   5.946 -2.2105  0.5422 -0.9834
   17SM24   H85 2551   1.346   1.475   5.899  0.0496 -0.7957  0.2405
   17SM24   C43 2552   1.520   1.427   5.790 -0.0319 -0.2067 -0.4298
   17SM24   H86 2553   1.483   1.328   5.760 -2.1571  0.3018  0.3770
   17SM24   H87 2554   1.628   1.418   5.799  0.0479  0.4202 -0.7560
   17SM24   C44 2555   1.497   1.543   5.682  0.0825 -0.0630 -0.3016
   17SM24   H88 2556   1.388   1.551   5.678  0.1314  1.1463  0.5525
   17SM24   H89 2557   1.526   1.642   5.716  0.2938 -1.2930  3.2498
   17SM24   C45 2558   1.545   1.508   5.545 -0.7698 -0.2305 -1.0498
   17SM24   H90 2559   1.503   1.410   5.524  1.5876 -1.5524  0.2079
   17SM24   H91 2560   1.651   1.483   5.554 -0.5072  0.6415 -1.6075
   17SM24   C46 2561   1.507   1.609   5.440 -0.5004 -0.2194 -0.8703
   17SM24   H92 2562   1.402   1.638   5.452 -0.4780 -0.1773 -0.7679
   17SM24   H93 2563   1.558   1.703   5.459  1.9366 -1.8719  0.9895
   17SM24   C47 2564   1.532   1.557   5.301  0.4298 -0.5296 -0.0229
   17SM24   H94 2565   1.633   1.516   5.289  0.1941 -0.7610 -1.3051
   17SM24   H95 2566   1.463   1.476   5.278 -1.2719  0.6726  0.8141
   17SM24   H96 2567   1.518   1.630   5.221 -1.7963  0.8006  1.5261
   18SM24    N1 2568   5.151   0.894   8.371  0.0075  0.0560 -0.0497
   18SM24    C1 2569   5.148   0.747   8.337 -0.0931 -0.2662 -0.6833
   18SM24    H1 2570   5.221   0.699   8.402 -1.8330 -3.3838 -0.9251
   18SM24    H2 2571   5.050   0.711   8.369 -1.3123  1.6012 -2.2348
   18SM24    C2 2572   5.286   0.948   8.397  0.3879  0.3422  0.0382
   18SM24    H3 2573   5.275   1.056   8.409 -1.1845  0.4024 -1.7885
   18SM24    H4 2574   5.339   0.904   8.482 -2.3281 -2.1692  0.5060
   18SM24    H5 2575   5.356   0.921   8.318  0.6862  2.6752 -0.5422
   18SM24    C3 2576   5.088   0.975   8.268 -0.0216 -0.5850  0.4404
   18SM24    H6 2577   4.979   0.966   8.272 -0.1712  1.0136  0.3331
   18SM24    H7 2578   5.107   1.079   8.295  1.5611 -1.1189  1.4215
   18SM24    H8 2579   5.128   0.965   8.167 -2.7658 -1.5741 -0.6138
   18SM24    C4 2580   5.078   0.911   8.499  0.1260 -0.2084 -0.0093
   18SM24    H9 2581   4.975   0.876   8.487  1.0898 -2.9236 -0.7967
   18SM24   H10 2582   5.128   0.864   8.583  0.2686  3.5246  2.0993
   18SM24   H11 2583   5.070   1.016   8.528 -1.3018 -0.0200 -0.9872
   18SM24    C5 2584   5.186   0.710   8.194  0.0497  0.1138  0.2213
   18SM24   H12 2585   5.274   0.773   8.179  1.0980 -0.5577  3.1552
   18SM24   H13 2586   5.111   0.727   8.117 -1.3993 -0.7509  1.4053
   18SM24    P1 2587   5.126   0.454   8.142  0.0548  0.3595  0.0782
   18SM24    O1 2588   4.988   0.489   8.179  0.2940 -0.0613 -0.7423
   18SM24    O2 2589   5.180   0.322   8.173  0.1039  0.1021 -0.3354
   18SM24    O3 2590   5.224   0.565   8.205 -0.6721  0.0738 -0.3357
   18SM24    O4 2591   5.146   0.481   7.990 -0.2234 -0.3314  0.2607
   18SM24    C6 2592   5.262   0.464   7.919 -0.7190 -0.1438 -0.8144
   18SM24   H14 2593   5.293   0.558   7.872 -1.3269 -0.0419 -1.0114
   18SM24   H15 2594   5.339   0.453   7.996 -1.4320 -0.5181 -0.1507
   18SM24    C7 2595   5.291   0.351   7.819 -1.2462  0.0829 -0.3623
   18SM24   H16 2596   5.301   0.254   7.868 -1.3475 -0.5806 -1.6131
   18SM24    N2 2597   5.411   0.380   7.738 -0.0832 -0.2143 -1.1947
   18SM24    HN 2598   5.416   0.476   7.709 -0.3611  0.1684 -0.0048
   18SM24    C8 2599   5.182   0.335   7.707 -0.2892  0.0727 -1.6293
   18SM24   OSM 2600   5.140   0.456   7.652 -0.1225 -0.2797  0.1990
   18SM24   HSM 2601   5.083   0.438   7.579  0.7559  1.5274 -0.9694
   18SM24   H17 2602   5.208   0.269   7.624 -0.6938 -0.4774 -1.3218
   18SM24    C9 2603   5.054   0.267   7.758  0.4192 -0.6448  0.4015
   18SM24   H18 2604   5.063   0.195   7.838 -2.2826 -0.5419  0.8193
   18SM24   C10 2605   4.931   0.269   7.700 -0.9712  0.3444  0.0899
   18SM24   H19 2606   4.918   0.326   7.610 -1.4058  0.1106  0.0024
   18SM24   C11 2607   4.815   0.183   7.733  0.0863  0.2710 -0.4723
   18SM24   H20 2608   4.750   0.241   7.799  1.3328 -0.8895  1.8321
   18SM24   H21 2609   4.840   0.110   7.810  0.3390  0.6626 -0.1804
   18SM24   C12 2610   4.737   0.109   7.621  0.3061 -0.5921  0.1001
   18SM24   H22 2611   4.711   0.181   7.544  1.7182 -1.6116 -1.3755
   18SM24   H23 2612   4.635   0.077   7.640 -0.5961  2.1900  0.0835
   18SM24   C13 2613   4.815   0.009   7.543  0.5422 -0.1099  0.5106
   18SM24   H24 2614   4.857   5.882   7.608 -2.3903  1.4239  4.4123
   18SM24   H25 2615   4.903   0.052   7.494  0.0871  0.4000  0.1194
   18SM24   C14 2616   4.724   5.899   7.432 -0.6979  0.5229  0.5690
   18SM24   H26 2617   4.676   0.038   7.388 -1.8743  0.5353  1.8603
   18SM24   H27 2618   4.644   5.840   7.476 -1.7856  1.0074 -0.7013
   18SM24   C15 2619   4.805   5.815   7.336 -0.1489  0.0917  0.1400
   18SM24   H28 2620   4.850   5.724   7.375 -1.7885 -0.4191  0.8758
   18SM24   H29 2621   4.886   5.874   7.294 -0.3326 -0.1232 -0.5242
   18SM24   C16 2622   4.706   5.768   7.228  0.0024 -0.7823 -1.4431
   18SM24   H30 2623   4.659   5.848   7.171 -0.5121 -0.2442 -0.2946
   18SM24   H31 2624   4.619   5.716   7.269  0.2170 -1.8398 -2.2940
   18SM24   C17 2625   4.775   5.695   7.116 -0.0607  0.5310 -0.1036
   18SM24   H32 2626   4.799   5.598   7.160  0.8117 -0.1568 -2.0378
   18SM24   H33 2627   4.867   5.751   7.099 -0.5897  1.3561 -0.2253
   18SM24   C18 2628   4.690   5.682   6.993 -0.0077  0.0645  0.3019
   18SM24   H34 2629   4.697   5.775   6.937  0.7488 -1.2642 -1.9010
   18SM24   H34 2630   4.584   5.678   7.017  0.1007 -1.0768  0.6322
   18SM24   C19 2631   4.719   5.579   6.884 -0.2060 -0.5789  0.1322
   18SM24   H35 2632   4.665   5.488   6.911 -1.2651  0.6384  2.2347
   18SM24   H36 2633   4.823   5.545   6.883  0.2753  0.8410  0.4700
   18SM24   C20 2634   4.669   5.631   6.744  0.1717  0.6913  0.4166
   18SM24   H37 2635   4.706   5.729   6.716 -0.4456  0.5880 -0.7903
   18SM24   H38 2636   4.562   5.631   6.765 -0.3144  0.1840 -1.8895
   18SM24   C21 2637   4.704   5.537   6.633  0.5823 -0.0994 -0.0209
   18SM24   H39 2638   4.655   5.444   6.662 -1.5062  1.0484  0.2631
   18SM24   H40 2639   4.810   5.516   6.644  1.2444  3.3654  0.5500
   18SM24   C22 2640   4.643   5.563   6.491  0.3125 -0.1206  0.5938
   18SM24   H41 2641   4.681   5.655   6.447 -1.4683 -0.4997 -1.7676
   18SM24   H42 2642   4.535   5.569   6.496  0.0927 -3.5559  1.0237
   18SM24   C23 2643   4.698   5.469   6.392  0.3719  1.1195 -0.5104
   18SM24   H43 2644   4.805   5.463   6.374  0.0282  0.8232 -2.6309
   18SM24   H44 2645   4.672   5.367   6.422  0.6104  1.5261  1.1197
   18SM24   H45 2646   4.652   5.485   6.295 -0.1050 -1.0097 -0.6633
   18SM24   C24 2647   5.478   0.292   7.658  0.9654  0.1049  0.1217
   18SM24   O33 2648   5.449   0.170   7.661 -0.0404  0.2304 -0.4842
   18SM24   C25 2649   5.563   0.343   7.544  0.2310 -0.6636  0.7368
   18SM24   H50 2650   5.663   0.347   7.588 -0.1387  0.4070  1.5072
   18SM24   H51 2651   5.545   0.444   7.508  0.4819 -1.3181 -1.2990
   18SM24   C26 2652   5.559   0.253   7.422 -0.1724 -0.1641  0.5123
   18SM24   H52 2653   5.585   0.151   7.448  1.6043  0.1656  0.1204
   18SM24   H53 2654   5.642   0.278   7.357  0.1384  1.4891  1.5113
   18SM24   C27 2655   5.430   0.249   7.344 -0.1607 -0.9436 -0.0316
   18SM24   H54 2656   5.344   0.219   7.404 -1.2136  0.0127 -1.0451
   18SM24   H55 2657   5.426   0.161   7.280  1.7262  1.2016 -3.2051
   18SM24   C28 2658   5.380   0.378   7.277  0.2907  0.3250 -0.0621
   18SM24   H56 2659   5.384   0.460   7.349  1.2329  1.8626 -1.8175
   18SM24   H57 2660   5.279   0.347   7.249  0.2161  0.7060 -0.2277
   18SM24   C29 2661   5.462   0.430   7.155 -0.4308 -0.1449 -0.1129
   18SM24   H58 2662   5.564   0.459   7.177 -0.1781  2.0165 -3.8188
   18SM24   H59 2663   5.408   0.521   7.130  0.0552  0.3314  0.5537
   18SM24   C30 2664   5.471   0.318   7.047  0.0219 -0.6134  0.3369
   18SM24   H60 2665   5.370   0.285   7.022 -0.6254  2.4748 -1.4161
   18SM24   H61 2666   5.526   0.232   7.085 -0.0827 -1.3033 -1.0675
   18SM24   C31 2667   5.527   0.385   6.920 -0.3562  0.1719 -0.5062
   18SM24   H62 2668   5.556   0.309   6.848  0.0323  0.6012 -0.8049
   18SM24   H63 2669   5.619   0.431   6.955  0.3798  0.1042 -2.3250
   18SM24   C32 2670   5.425   0.477   6.840  0.1799 -0.0626 -0.6097
   18SM24   H64 2671   5.369   0.542   6.908 -0.8469 -0.9507 -0.5968
   18SM24   H65 2672   5.356   0.413   6.785 -0.1894  0.3265 -0.6112
   18SM24   C33 2673   5.495   0.568   6.727  0.0481  0.1919  0.2229
   18SM24   H66 2674   5.589   0.610   6.761  0.8874  0.3306 -2.1559
   18SM24   H67 2675   5.426   0.647   6.696 -2.6858 -1.2393  2.3656
   18SM24   C34 2676   5.526   0.478   6.601 -0.1082  0.1190 -0.7027
   18SM24   H68 2677   5.433   0.424   6.580  0.0876 -0.3106 -0.4873
   18SM24   H69 2678   5.598   0.400   6.627  0.1455  0.6038  0.0460
   18SM24   C35 2679   5.590   0.549   6.470  0.1806 -0.2704 -0.6619
   18SM24   H70 2680   5.680   0.604   6.496 -0.3219  0.0844  0.3595
   18SM24   H71 2681   5.518   0.620   6.428 -2.2061 -2.6114 -0.6786
   18SM24   C36 2682   5.616   0.446   6.359  0.0899  0.3740 -0.2604
   18SM24   H72 2683   5.520   0.403   6.332  0.0793 -1.0480  1.9704
   18SM24   H73 2684   5.673   0.368   6.410  0.5530 -1.5996 -3.6669
   18SM24   C37 2685   5.703   0.502   6.239  0.7760 -0.3880 -0.3440
   18SM24   H74 2686   5.791   0.547   6.283  1.0215 -2.7239  1.6403
   18SM24   H75 2687   5.644   0.582   6.193  1.1623 -1.3030 -2.5188
   18SM24   C38 2688   5.727   0.394   6.135 -0.5980  0.1148 -0.3285
   18SM24   H76 2689   5.637   0.353   6.088  0.6304  0.3002 -2.9749
   18SM24   H77 2690   5.771   0.311   6.190  2.9441  0.2453 -2.7689
   18SM24   C39 2691   5.818   0.436   6.018 -0.1447 -0.1827 -0.2943
   18SM24   H78 2692   5.771   0.516   5.962  1.2120  0.9325  0.1357
   18SM24   H79 2693   5.818   0.353   5.946  3.5653  1.0086 -1.7982
   18SM24   C40 2694   0.014   0.468   6.060 -0.4173 -0.0086  0.5381
   18SM24   H80 2695   0.025   0.555   6.125  0.8984 -0.2812  0.6928
   18SM24   H81 2696   0.048   0.391   6.128 -0.1864 -1.7370 -1.4800
   18SM24   C41 2697   0.112   0.505   5.953 -0.2834 -0.5878  0.0875
   18SM24   H82 2698   0.108   0.605   5.909 -2.9088 -1.0721 -0.9040
   18SM24   H83 2699   0.210   0.498   5.999 -0.4355 -1.5074  0.2766
   18SM24   C42 2700   0.110   0.392   5.848  0.0188 -0.0971  0.3953
   18SM24   H84 2701   0.029   0.417   5.780 -0.5707 -0.5519  0.9238
   18SM24   H85 2702   0.086   0.300   5.901 -0.8799  1.2791  2.4501
   18SM24   C43 2703   0.242   0.399   5.774 -0.2127 -0.2343 -0.6248
   18SM24   H86 2704   0.326   0.375   5.839  0.4324  0.2525 -1.2744
   18SM24   H87 2705   0.257   0.503   5.744  1.2892 -0.2077  0.1594
   18SM24   C44 2706   0.248   0.296   5.667 -0.3053 -0.1357 -0.0141
   18SM24   H88 2707   0.219   0.196   5.702 -0.6765 -0.4395 -1.1816
   18SM24   H89 2708   0.168   0.304   5.593 -0.4709  0.4486  0.2233
   18SM24   C45 2709   0.384   0.288   5.596  0.2627  0.1787 -0.1526
   18SM24   H90 2710   0.381   0.207   5.524  0.0830 -0.4818  0.5914
   18SM24   H91 2711   0.471   0.265   5.658  1.2615  2.5259 -0.6256
   18SM24   C46 2712   0.416   0.421   5.528 -0.1523 -0.0479 -0.8540
   18SM24   H92 2713   0.328   0.452   5.473 -0.3648  1.4378  0.3073
   18SM24   H93 2714   0.444   0.495   5.602  1.3863 -0.2460 -1.2011
   18SM24   C47 2715   0.534   0.412   5.431 -0.3753 -0.6122  0.0245
   18SM24   H94 2716   0.565   0.509   5.392 -1.2306 -0.1523  0.4750
   18SM24   H95 2717   0.609   0.373   5.499 -0.4721 -1.6835 -0.4635
   18SM24   H96 2718   0.524   0.338   5.351 -1.0655 -0.5887  0.0815
   19SM24    N1 2719   0.305   2.128   7.918  0.2533  0.3338 -0.3232
   19SM24    C1 2720   0.387   2.054   8.018  0.1869 -0.1876 -0.3488
   19SM24    H1 2721   0.329   2.007   8.097  1.7486 -0.5461  0.6174
   19SM24    H2 2722   0.418   1.960   7.973 -2.2738 -1.7870  1.2226
   19SM24    C2 2723   0.377   2.164   7.790 -0.7021  0.1926  0.2845
   19SM24    H3 2724   0.438   2.252   7.809  0.9042 -0.2306 -2.7085
   19SM24    H4 2725   0.445   2.088   7.752  1.4849  1.8566  0.7901
   19SM24    H5 2726   0.305   2.202   7.718 -0.9704  1.5853  1.2757
   19SM24    C3 2727   0.206   2.031   7.872  0.2845  0.7847 -0.0809
   19SM24    H6 2728   0.133   2.072   7.802  0.1293  2.3246  0.9772
   19SM24    H7 2729   0.250   1.954   7.808  0.5726  1.6741 -0.9794
   19SM24    H8 2730   0.152   1.987   7.956  2.0615  2.7258  2.1087
   19SM24    C4 2731   0.231   2.240   7.979 -0.0740 -0.5535  0.2492
   19SM24    H9 2732   0.150   2.276   7.915  0.7876  1.0363  0.0421
   19SM24   H10 2733   0.171   2.211   8.065  0.4486 -0.1597  0.7487
   19SM24   H11 2734   0.285   2.329   8.012 -1.9270  0.9816 -0.7396
   19SM24    C5 2735   0.513   2.127   8.072 -0.3208 -0.4561  0.3975
   19SM24   H12 2736   0.488   2.220   8.123  0.5157  0.0143 -0.0417
   19SM24   H13 2737   0.564   2.172   7.987  1.0810  0.3492  1.6499
   19SM24    P1 2738   0.697   2.102   8.248  0.1062 -0.3200 -0.0601
   19SM24    O1 2739   0.757   1.984   8.323  0.2251 -0.3147 -0.2186
   19SM24    O2 2740   0.625   2.204   8.322 -0.1222  0.1979  0.2118
   19SM24    O3 2741   0.577   2.037   8.157  0.3290  0.2486  0.1271
   19SM24    O4 2742   0.804   2.178   8.152  0.1117 -0.0658  0.1758
   19SM24    C6 2743   0.865   2.101   8.048  0.0938 -0.0936 -0.3127
   19SM24   H14 2744   0.953   2.047   8.085  0.4155  0.5323 -0.1483
   19SM24   H15 2745   0.801   2.019   8.016 -1.3747  1.6072 -1.8096
   19SM24    C7 2746   0.906   2.185   7.922 -0.3962 -0.2243 -0.0489
   19SM24   H16 2747   0.816   2.237   7.888 -0.9322  0.0474  1.7379
   19SM24    N2 2748   0.948   2.089   7.809  0.1174 -0.4130  0.1126
   19SM24    HN 2749   1.045   2.085   7.784  0.1856  0.7090  0.1562
   19SM24    C8 2750   1.021   2.269   7.953  0.1794  0.4325 -0.2296
   19SM24   OSM 2751   0.967   2.369   8.041 -0.4039  0.2518 -0.0888
   19SM24   HSM 2752   0.902   2.324   8.093 -0.2502  0.1428  0.0125
   19SM24   H17 2753   1.104   2.214   7.997 -1.1670 -1.5044 -0.0509
   19SM24    C9 2754   1.079   2.336   7.834 -0.5866  0.4435 -0.2141
   19SM24   H18 2755   1.012   2.401   7.780  0.9174  0.5437 -2.0054
   19SM24   C10 2756   1.204   2.331   7.795 -0.0582  0.0172 -0.6844
   19SM24   H19 2757   1.285   2.275   7.839  1.3114  1.1936 -1.6601
   19SM24   C11 2758   1.248   2.407   7.668  0.9998 -0.0296  0.1244
   19SM24   H20 2759   1.283   2.507   7.694 -1.5498  0.5175  1.5112
   19SM24   H21 2760   1.156   2.430   7.615  0.9875 -2.6044 -1.0715
   19SM24   C12 2761   1.341   2.328   7.579  0.0842  0.0744  0.1848
   19SM24   H22 2762   1.415   2.286   7.646 -1.0164  1.1944  2.1366
   19SM24   H23 2763   1.391   2.391   7.505 -1.3673  2.1353  0.9034
   19SM24   C13 2764   1.274   2.214   7.509 -0.0376 -0.0328 -0.2515
   19SM24   H24 2765   1.190   2.187   7.574  1.5166  1.3517  2.4366
   19SM24   H25 2766   1.347   2.134   7.513 -0.0354  0.0206  1.3962
   19SM24   C14 2767   1.230   2.240   7.371  0.4818 -1.0357 -0.1408
   19SM24   H26 2768   1.321   2.275   7.322  0.2109 -0.3944 -0.1873
   19SM24   H27 2769   1.160   2.321   7.351  1.4375 -0.6578 -2.0658
   19SM24   C15 2770   1.181   2.117   7.291 -0.0010 -0.0627 -0.1170
   19SM24   H28 2771   1.117   2.048   7.345 -0.2774 -0.6747 -1.2018
   19SM24   H29 2772   1.267   2.056   7.262 -0.8328 -1.1793 -0.2545
   19SM24   C16 2773   1.099   2.161   7.164 -0.0623 -0.2493 -1.0960
   19SM24   H30 2774   1.157   2.231   7.104 -2.3003  1.9921 -0.7197
   19SM24   H31 2775   1.010   2.214   7.197  0.8675  0.4292  0.3706
   19SM24   C17 2776   1.062   2.035   7.087 -0.7505  0.5115 -0.4953
   19SM24   H32 2777   1.033   1.970   7.169  2.7266  0.0999  0.4929
   19SM24   H33 2778   1.147   1.989   7.037 -0.4722  0.8758 -0.3658
   19SM24   C18 2779   0.951   2.060   6.984 -0.5244 -0.4591  0.0777
   19SM24   H34 2780   0.868   2.111   7.032  1.3516  2.6696  0.1716
   19SM24   H34 2781   0.914   1.962   6.954  0.7132 -0.3519 -1.9053
   19SM24   C19 2782   0.981   2.157   6.870 -0.3181  0.0057 -0.2329
   19SM24   H35 2783   1.037   2.245   6.901 -0.8389  0.2331  0.0861
   19SM24   H36 2784   0.885   2.203   6.848 -0.8083 -1.8967 -2.2548
   19SM24   C20 2785   1.027   2.079   6.748  0.6612 -0.2026 -0.4132
   19SM24   H37 2786   0.955   1.999   6.728  0.2130  0.1214 -0.1037
   19SM24   H38 2787   1.115   2.015   6.749  2.3148  2.0240 -0.0074
   19SM24   C21 2788   1.029   2.164   6.628  0.5009  0.3492 -0.2227
   19SM24   H39 2789   1.123   2.219   6.637  0.0586  1.6305 -2.6884
   19SM24   H40 2790   0.958   2.247   6.631 -0.1591 -0.2846  2.6538
   19SM24   C22 2791   1.038   2.086   6.497 -0.3303  0.4406 -1.3981
   19SM24   H41 2792   0.958   2.012   6.497 -1.6392  1.8373 -0.7838
   19SM24   H42 2793   1.128   2.025   6.503 -0.9585 -0.6021 -2.3559
   19SM24   C23 2794   1.063   2.175   6.368  1.2119  0.4332  0.6239
   19SM24   H43 2795   1.150   2.239   6.378  1.1828  0.3085  1.6724
   19SM24   H44 2796   1.092   2.103   6.291  0.2344 -0.2262  0.8644
   19SM24   H45 2797   0.977   2.228   6.328  2.6488  3.4620  1.4470
   19SM24   C24 2798   0.875   1.992   7.747  0.6483  0.5328  0.6377
   19SM24   O33 2799   0.756   1.966   7.773 -0.1258  0.2756 -0.4278
   19SM24   C25 2800   0.950   1.899   7.654  0.6718  0.3419  0.0700
   19SM24   H50 2801   0.931   1.801   7.696  1.6187 -0.0628 -0.4452
   19SM24   H51 2802   1.057   1.916   7.663  0.2364  3.0124  0.8519
   19SM24   C26 2803   0.905   1.919   7.506  0.3844 -0.4147 -1.0436
   19SM24   H52 2804   0.989   1.897   7.440  1.4256  1.1446 -0.2679
   19SM24   H53 2805   0.896   2.027   7.496  0.2526 -0.5327 -2.2906
   19SM24   C27 2806   0.776   1.855   7.460  0.4405  0.3009 -0.6785
   19SM24   H54 2807   0.694   1.907   7.510  0.1456 -0.6325 -0.1841
   19SM24   H55 2808   0.780   1.752   7.495  0.5997  0.1703 -1.0836
   19SM24   C28 2809   0.756   1.870   7.305 -0.7066 -0.6531 -0.5436
   19SM24   H56 2810   0.818   1.813   7.236 -0.8193 -0.1257 -1.0883
   19SM24   H57 2811   0.782   1.974   7.285  0.6158 -1.0235 -0.8127
   19SM24   C29 2812   0.612   1.843   7.268  0.1708 -0.6227  0.5227
   19SM24   H58 2813   0.555   1.933   7.289 -2.0638 -1.8626 -0.1232
   19SM24   H59 2814   0.570   1.763   7.329  0.4705  0.1183  1.7208
   19SM24   C30 2815   0.594   1.794   7.120  0.4124  0.7954 -0.5143
   19SM24   H60 2816   0.490   1.762   7.115  0.9060 -1.0798  0.7890
   19SM24   H61 2817   0.666   1.714   7.103  0.7233  0.8171  0.6614
   19SM24   C31 2818   0.595   1.914   7.013 -0.0227 -0.3078  0.1288
   19SM24   H62 2819   0.679   1.970   7.052 -1.1029 -0.0226  2.1562
   19SM24   H63 2820   0.503   1.972   7.021  0.7145  0.9706 -0.5734
   19SM24   C32 2821   0.616   1.863   6.867 -0.2743 -0.4025 -0.0516
   19SM24   H64 2822   0.531   1.805   6.831  0.8479 -2.7585  0.9832
   19SM24   H65 2823   0.696   1.788   6.864  0.7578  0.7047 -1.3449
   19SM24   C33 2824   0.634   1.975   6.773 -0.0246 -0.5021  0.3429
   19SM24   H66 2825   0.726   2.032   6.786 -0.3718  0.7837 -2.4066
   19SM24   H67 2826   0.559   2.052   6.791  1.1606  1.2867 -1.9966
   19SM24   C34 2827   0.619   1.918   6.634  0.2387  0.2163 -0.1408
   19SM24   H68 2828   0.515   1.888   6.626  0.6743 -1.2353 -0.4173
   19SM24   H69 2829   0.667   1.821   6.624 -0.3007 -0.3757  2.6293
   19SM24   C35 2830   0.662   2.008   6.511  0.2158 -1.1927  0.7714
   19SM24   H70 2831   0.761   2.049   6.530  0.7228 -2.3011  0.5109
   19SM24   H71 2832   0.596   2.095   6.517 -0.8350 -1.9038 -0.3069
   19SM24   C36 2833   0.652   1.943   6.368 -0.3608 -1.0689  0.2913
   19SM24   H72 2834   0.548   1.932   6.337 -0.5991  0.1412  0.6295
   19SM24   H73 2835   0.705   1.851   6.390 -0.9959 -0.8816  2.8300
   19SM24   C37 2836   0.734   2.016   6.259 -0.5672 -0.7502 -0.1214
   19SM24   H74 2837   0.837   2.044   6.283 -0.3200 -1.0182 -0.8564
   19SM24   H75 2838   0.689   2.116   6.257 -0.6607 -0.8129 -1.2531
   19SM24   C38 2839   0.736   1.949   6.124 -0.6324 -0.0891 -0.4385
   19SM24   H76 2840   0.633   1.936   6.090 -0.5796  0.1287 -0.6759
   19SM24   H77 2841   0.774   1.848   6.143  0.9665  0.4516 -0.6927
   19SM24   C39 2842   0.827   2.022   6.026  0.1065 -0.1057  0.0569
   19SM24   H78 2843   0.927   2.036   6.064  0.5901  1.2317 -1.6200
   19SM24   H79 2844   0.787   2.119   5.998  0.7528 -0.0381 -0.6675
   19SM24   C40 2845   0.848   1.940   5.886 -0.4392 -0.6237  0.2137
   19SM24   H80 2846   0.895   1.843   5.899  1.3238 -0.2224 -2.7942
   19SM24   H81 2847   0.745   1.923   5.854 -0.0615 -2.0323 -0.2785
   19SM24   C41 2848   0.888   2.049   5.777  0.3640 -0.1931  0.1575
   19SM24   H82 2849   0.806   2.117   5.755  0.2599 -0.0929  0.8637
   19SM24   H83 2850   0.972   2.104   5.821 -1.1526  0.6209  2.0846
   19SM24   C42 2851   0.936   1.980   5.643 -0.1441 -0.1803  0.0511
   19SM24   H84 2852   0.865   1.912   5.596  1.9660 -1.9611 -0.6801
   19SM24   H85 2853   1.022   1.918   5.669 -1.7762 -3.0079 -1.0412
   19SM24   C43 2854   0.979   2.082   5.528  0.2007  0.3725 -0.0531
   19SM24   H86 2855   1.062   2.046   5.468 -0.2045 -2.7618  1.1264
   19SM24   H87 2856   1.023   2.172   5.570 -0.8110  0.7675  0.1758
   19SM24   C44 2857   0.868   2.124   5.437  0.3904  0.0266  0.1351
   19SM24   H88 2858   0.813   2.037   5.401  1.7438 -1.5216  1.7205
   19SM24   H89 2859   0.800   2.185   5.495 -0.8622  1.1312 -2.4254
   19SM24   C45 2860   0.909   2.219   5.330 -0.5758 -0.2935  0.3545
   19SM24   H90 2861   0.977   2.295   5.370  1.5874 -1.5708 -0.7915
   19SM24   H91 2862   0.820   2.266   5.289 -1.4461 -0.9098  1.5226
   19SM24   C46 2863   0.978   2.153   5.218 -0.4039  0.0360 -0.0496
   19SM24   H92 2864   1.066   2.097   5.249 -1.0728 -1.3958 -0.6545
   19SM24   H93 2865   0.917   2.073   5.175  2.4747 -0.8589 -2.7348
   19SM24   C47 2866   1.011   2.253   5.110  0.2810  0.2787  0.3947
   19SM24   H94 2867   1.076   2.214   5.032 -1.7813 -0.3781 -1.0069
   19SM24   H95 2868   0.923   2.279   5.052 -0.2007  1.5239  1.6422
   19SM24   H96 2869   1.059   2.343   5.149  0.7962  0.4689 -0.6612
   20SM24    N1 2870   0.442   3.266   8.113  0.1343 -0.9098  0.1391
   20SM24    C1 2871   0.299   3.319   8.131 -0.1298 -0.4724 -0.2981
   20SM24    H1 2872   0.260   3.296   8.230  1.7242 -0.9419  0.3590
   20SM24    H2 2873   0.306   3.427   8.147 -1.5947 -0.4174  0.0362
   20SM24    C2 2874   0.445   3.124   8.148 -0.7467 -0.3405  0.4273
   20SM24    H3 2875   0.395   3.104   8.243  0.2384  1.5341  1.3714
   20SM24    H4 2876   0.406   3.058   8.071  0.6648  0.6136 -1.1405
   20SM24    H5 2877   0.548   3.096   8.170 -0.2911 -0.1801 -1.4469
   20SM24    C3 2878   0.495   3.276   7.972 -0.0520 -0.0621 -0.3954
   20SM24    H6 2879   0.599   3.244   7.960 -0.4939 -2.7178  2.2639
   20SM24    H7 2880   0.431   3.228   7.898  0.9056  1.1865 -2.0858
   20SM24    H8 2881   0.517   3.382   7.955 -0.2678  0.2233  1.0350
   20SM24    C4 2882   0.537   3.337   8.193 -0.5377 -0.5559 -0.2539
   20SM24    H9 2883   0.537   3.445   8.181 -2.3414 -0.4619  0.4186
   20SM24   H10 2884   0.526   3.320   8.300 -0.0725 -0.8330 -0.2465
   20SM24   H11 2885   0.641   3.322   8.164 -0.4039 -0.8639  0.3807
   20SM24    C5 2886   0.199   3.274   8.024 -0.0768 -0.2319 -0.4037
   20SM24   H12 2887   0.198   3.167   8.001  0.5067  0.2276 -2.6611
   20SM24   H13 2888   0.218   3.342   7.941  2.7005  0.1718  0.4938
   20SM24    P1 2889   5.923   3.193   8.144 -0.1533  0.0392  0.5008
   20SM24    O1 2890   5.811   3.261   8.211 -0.5749  0.1143 -0.6629
   20SM24    O2 2891   0.063   3.111   8.228  0.5525  0.4125 -0.1138
   20SM24    O3 2892   0.065   3.298   8.067 -0.5742 -0.3280  0.0066
   20SM24    O4 2893   5.868   3.105   8.019 -0.1595 -0.1947 -0.1539
   20SM24    C6 2894   5.779   3.157   7.923  0.2513 -0.1172  0.1173
   20SM24   H14 2895   5.697   3.086   7.908 -0.0052 -0.2336  2.0054
   20SM24   H15 2896   5.725   3.241   7.966  0.7776 -0.3807  1.2995
   20SM24    C7 2897   5.837   3.200   7.783  0.0896 -0.1248 -0.2703
   20SM24   H16 2898   5.919   3.268   7.805  0.2919 -0.4701  0.0565
   20SM24    N2 2899   5.730   3.274   7.706 -0.0195  0.3890 -0.8472
   20SM24    HN 2900   5.638   3.263   7.746  1.1342 -0.8840  1.5659
   20SM24    C8 2901   5.884   3.076   7.703 -0.3087  0.4528  0.3127
   20SM24   OSM 2902   5.770   2.992   7.681  0.4028  0.1312 -0.5134
   20SM24   HSM 2903   5.704   3.050   7.646  0.9201  1.0291 -0.0485
   20SM24   H17 2904   5.934   3.104   7.611 -1.1880 -2.0325 -0.9449
   20SM24    C9 2905   0.053   3.015   7.774  0.0271  0.4624  0.4315
   20SM24   H18 2906   0.035   2.993   7.878  2.3010  1.2458  1.0094
   20SM24   C10 2907   0.184   3.021   7.733  0.5689 -0.1381  0.1143
   20SM24   H19 2908   0.215   3.071   7.642 -1.1352  1.7431  0.5248
   20SM24   C11 2909   0.301   2.955   7.815  0.0119  0.3256  0.2294
   20SM24   H20 2910   0.263   2.897   7.899  1.8157 -0.3017  0.6248
   20SM24   H21 2911   0.356   3.041   7.854  0.1160 -0.0874  0.9972
   20SM24   C12 2912   0.378   2.860   7.718 -0.5085  0.1095  0.0703
   20SM24   H22 2913   0.317   2.777   7.682 -0.4546  0.2297 -0.2956
   20SM24   H23 2914   0.452   2.812   7.782 -0.1309 -0.9858 -1.1681
   20SM24   C13 2915   0.458   2.918   7.604  0.2048  0.0814  0.0357
   20SM24   H24 2916   0.529   2.836   7.592  0.6265  0.6407 -1.4088
   20SM24   H25 2917   0.507   3.009   7.636  0.4699  0.0123 -0.1738
   20SM24   C14 2918   0.395   2.937   7.469 -0.3615 -0.5875  0.1716
   20SM24   H26 2919   0.338   3.029   7.466  1.2932  0.5025  1.2573
   20SM24   H27 2920   0.325   2.854   7.455 -2.1646  1.0061 -0.4620
   20SM24   C15 2921   0.492   2.948   7.342 -0.4880  0.4447  0.0250
   20SM24   H28 2922   0.557   3.033   7.365 -1.7711  1.4987 -0.1484
   20SM24   H29 2923   0.435   2.971   7.251 -1.5133 -1.9257  0.0443
   20SM24   C16 2924   0.572   2.818   7.321  0.0084  0.0170 -0.1988
   20SM24   H30 2925   0.501   2.739   7.298  0.0362  0.0468 -0.3895
   20SM24   H31 2926   0.617   2.791   7.417 -1.8236  1.0582  0.9943
   20SM24   C17 2927   0.676   2.854   7.210  0.1481 -0.5803  0.0263
   20SM24   H32 2928   0.725   2.942   7.251  0.6697 -1.5624  1.5618
   20SM24   H33 2929   0.620   2.894   7.126  0.7576 -3.0516 -1.6067
   20SM24   C18 2930   0.767   2.733   7.167 -0.0347 -0.1398 -0.2297
   20SM24   H34 2931   0.803   2.688   7.259 -1.0350 -0.0726  0.1993
   20SM24   H34 2932   0.856   2.754   7.109  0.3484  0.1880  0.4763
   20SM24   C19 2933   0.679   2.635   7.088 -0.7180 -0.8314 -0.1421
   20SM24   H35 2934   0.642   2.678   6.995  0.4111  0.0316 -0.2121
   20SM24   H36 2935   0.593   2.612   7.151 -1.1438  1.3923  0.1295
   20SM24   C20 2936   0.758   2.504   7.055 -0.1292 -0.1500  0.2064
   20SM24   H37 2937   0.806   2.465   7.145  0.7490  0.7850  0.1617
   20SM24   H38 2938   0.848   2.534   7.001  0.3299 -0.0892  0.9817
   20SM24   C21 2939   0.678   2.396   6.976 -0.1278 -0.6780  0.4375
   20SM24   H39 2940   0.590   2.353   7.023 -0.3164  0.0869  0.7845
   20SM24   H40 2941   0.752   2.317   6.957  2.0636  1.4971 -0.3885
   20SM24   C22 2942   0.647   2.451   6.838  0.2663  0.6322  0.4269
   20SM24   H41 2943   0.741   2.484   6.795  0.8326  1.1993  2.0395
   20SM24   H42 2944   0.580   2.536   6.855 -0.8911 -0.0751 -0.5576
   20SM24   C23 2945   0.586   2.347   6.744 -0.7725 -0.2643 -0.7049
   20SM24   H43 2946   0.540   2.402   6.663  0.5510  0.2469 -1.1311
   20SM24   H44 2947   0.662   2.283   6.700  0.9756  0.1615  1.5507
   20SM24   H45 2948   0.526   2.273   6.796 -0.5972  0.7985  1.0544
   20SM24   C24 2949   5.742   3.342   7.596 -0.2545  0.4689  0.1616
   20SM24   O33 2950   5.845   3.356   7.531  0.3931  0.4158  0.3672
   20SM24   C25 2951   5.616   3.405   7.533  0.6007 -0.7278 -0.4004
   20SM24   H50 2952   5.643   3.487   7.467 -2.3903  0.2412 -0.4731
   20SM24   H51 2953   5.554   3.457   7.606  3.6416  1.4376  0.7736
   20SM24   C26 2954   5.537   3.309   7.449  0.3038  0.0274  0.1327
   20SM24   H52 2955   5.448   3.367   7.425 -0.2865 -0.6881  0.5779
   20SM24   H53 2956   5.502   3.223   7.506 -2.7091  0.8112 -0.4640
   20SM24   C27 2957   5.608   3.258   7.323  0.0376  0.8325  0.2932
   20SM24   H54 2958   5.670   3.172   7.348  3.1803  2.7645 -0.5433
   20SM24   H55 2959   5.679   3.335   7.295  2.5033 -1.1275  0.9838
   20SM24   C28 2960   5.511   3.218   7.210  0.2239  0.1997 -0.3920
   20SM24   H56 2961   5.447   3.298   7.175  0.5733 -0.5758 -2.9285
   20SM24   H57 2962   5.446   3.146   7.260 -0.0930 -0.1584 -1.2912
   20SM24   C29 2963   5.569   3.155   7.082  0.3645  0.2763 -0.5014
   20SM24   H58 2964   5.504   3.080   7.037 -1.0377  2.2761 -1.8907
   20SM24   H59 2965   5.651   3.095   7.121 -1.3426 -0.6918  1.7396
   20SM24   C30 2966   5.605   3.251   6.968 -0.0299 -0.4256  0.0873
   20SM24   H60 2967   5.675   3.321   7.013 -0.4624 -0.5403  0.9591
   20SM24   H61 2968   5.520   3.306   6.928  2.2615  0.7039 -3.4398
   20SM24   C31 2969   5.682   3.184   6.860  0.5186  0.7790 -0.2162
   20SM24   H62 2970   5.632   3.095   6.821 -0.2961  2.2400 -2.6278
   20SM24   H63 2971   5.776   3.151   6.904 -0.2313 -0.6552  0.3371
   20SM24   C32 2972   5.708   3.274   6.741  0.5289 -0.5718  0.1177
   20SM24   H64 2973   5.746   3.371   6.774  2.2076 -0.9673 -0.6190
   20SM24   H65 2974   5.611   3.299   6.697  0.2113 -0.7892  0.6964
   20SM24   C33 2975   5.797   3.199   6.638  0.6263  0.8936 -0.5162
   20SM24   H66 2976   5.773   3.094   6.624 -0.2685  1.2894 -2.1039
   20SM24   H67 2977   5.898   3.202   6.680 -0.4814  1.2599  2.2159
   20SM24   C34 2978   5.786   3.268   6.493  1.2865  0.1596 -0.2476
   20SM24   H68 2979   5.819   3.370   6.508  2.2499 -0.6027  3.0309
   20SM24   H69 2980   5.682   3.272   6.458  1.3905 -0.7724 -0.6751
   20SM24   C35 2981   5.863   3.201   6.385  0.7204  0.4468  0.1253
   20SM24   H70 2982   5.882   3.275   6.308 -0.9077 -1.3647 -2.0976
   20SM24   H71 2983   5.803   3.120   6.343  1.7578 -0.9094  1.1973
   20SM24   C36 2984   0.045   3.141   6.428  0.0835  1.1996 -0.4402
   20SM24   H72 2985   0.087   3.083   6.345 -1.6005 -0.4024 -0.2235
   20SM24   H73 2986   0.021   3.062   6.499 -1.9110  0.1831 -2.1737
   20SM24   C37 2987   0.146   3.236   6.492  0.1721 -0.3971 -0.2428
   20SM24   H74 2988   0.118   3.290   6.583 -0.2355 -0.9583 -0.0349
   20SM24   H75 2989   0.162   3.319   6.423 -1.1500  0.0162 -0.0671
   20SM24   C38 2990   0.269   3.160   6.530 -0.2965  0.0260  0.5609
   20SM24   H76 2991   0.318   3.135   6.436  0.8372  0.9341  0.9019
   20SM24   H77 2992   0.245   3.061   6.570  0.7857 -1.5448 -2.4962
   20SM24   C39 2993   0.381   3.231   6.613  0.3571 -0.5534  0.3532
   20SM24   H78 2994   0.394   3.337   6.591  2.3151 -0.4069  2.1178
   20SM24   H79 2995   0.471   3.177   6.586  1.2123  2.0501 -2.3005
   20SM24   C40 2996   0.367   3.197   6.764 -0.1040 -0.9619  0.3853
   20SM24   H80 2997   0.299   3.267   6.813  0.9525 -1.4489  2.6171
   20SM24   H81 2998   0.325   3.099   6.786  1.8153 -1.9175 -0.0894
   20SM24   C41 2999   0.507   3.213   6.839  0.1670  0.3265 -0.3732
   20SM24   H82 3000   0.590   3.174   6.779 -0.5967 -0.7136 -0.7673
   20SM24   H83 3001   0.537   3.316   6.855  0.0876  0.2059  0.6228
   20SM24   C42 3002   0.510   3.157   6.977  0.6053  0.4972 -0.3750
   20SM24   H84 3003   0.532   3.051   6.979 -1.2411  0.1044  0.2578
   20SM24   H85 3004   0.416   3.184   7.026  0.0584  0.0609 -1.1857
   20SM24   C43 3005   0.611   3.217   7.078  0.0070 -0.3566 -0.2107
   20SM24   H86 3006   0.591   3.177   7.177  0.5585  0.5251  0.2648
   20SM24   H87 3007   0.602   3.326   7.075 -0.2632 -0.2297  3.4199
   20SM24   C44 3008   0.750   3.161   7.053 -0.1899 -0.6748  0.8732
   20SM24   H88 3009   0.771   3.054   7.050 -0.4588 -0.8149  3.1151
   20SM24   H89 3010   0.772   3.185   6.950  2.5282 -0.4299  1.4821
   20SM24   C45 3011   0.847   3.225   7.162  0.2543 -0.6628 -0.5434
   20SM24   H90 3012   0.819   3.202   7.264  1.1556  2.1520  0.3870
   20SM24   H91 3013   0.839   3.334   7.156 -1.6555 -0.6009  2.4112
   20SM24   C46 3014   0.997   3.204   7.148 -0.2385  1.2522  0.1908
   20SM24   H92 3015   1.040   3.222   7.049 -1.0913 -0.6283 -0.5457
   20SM24   H93 3016   1.047   3.287   7.199  0.8713 -0.2055  1.4965
   20SM24   C47 3017   1.053   3.072   7.203  0.2057  0.0244  0.3159
   20SM24   H94 3018   1.006   2.985   7.158 -0.6510  0.8764 -0.4752
   20SM24   H95 3019   1.157   3.058   7.173  0.9253  3.7440  0.8057
   20SM24   H96 3020   1.031   3.056   7.309  1.3645  0.3298  0.6072
   21SM24    N1 3021   5.934   3.960   8.029  0.1344 -0.1550 -0.1108
   21SM24    C1 3022   5.832   4.029   7.944  0.1483  0.1568  0.2650
   21SM24    H1 3023   5.771   4.096   8.005  0.7899  0.5347  0.4957
   21SM24    H2 3024   5.871   4.092   7.864 -2.1672  0.0392 -1.0075
   21SM24    C2 3025   0.070   3.872   7.942 -0.9509 -0.1713 -0.9256
   21SM24    H3 3026   0.138   3.923   7.873  1.6224 -1.0802  0.8865
   21SM24    H4 3027   0.135   3.805   7.998 -2.0206 -0.6718 -0.2617
   21SM24    H5 3028   0.013   3.798   7.886 -0.1268 -1.6888  0.1918
   21SM24    C3 3029   0.072   4.061   8.099 -0.0531  0.2220 -0.6770
   21SM24    H6 3030   0.006   4.104   8.174 -1.1592 -0.4009 -1.2719
   21SM24    H7 3031   0.152   4.026   8.164 -0.3857  1.2183  0.2944
   21SM24    H8 3032   0.096   4.147   8.037 -0.3935  1.2211  0.5490
   21SM24    C4 3033   5.878   3.872   8.133  0.3839 -0.1772 -0.0812
   21SM24    H9 3034   5.943   3.856   8.219  1.7324 -1.0684 -1.2507
   21SM24   H10 3035   5.790   3.920   8.176  1.1032  0.7431  0.3929
   21SM24   H11 3036   5.848   3.776   8.092  1.9745 -1.9027  2.6612
   21SM24    C5 3037   5.735   3.935   7.872 -0.2926 -0.4102 -0.6358
   21SM24   H12 3038   5.681   3.869   7.940 -0.2180  1.8173  1.6520
   21SM24   H13 3039   5.793   3.877   7.800 -0.0948 -1.2838  0.2109
   21SM24    P1 3040   5.553   3.968   7.678 -0.4912 -0.0705 -0.0442
   21SM24    O1 3041   5.453   4.074   7.653  0.4242 -0.4676 -0.4803
   21SM24    O2 3042   5.507   3.827   7.706  0.0813 -0.3397  0.2265
   21SM24    O3 3043   5.635   4.020   7.809  0.3543 -0.6634  0.1221
   21SM24    O4 3044   5.653   3.974   7.556 -0.2044  0.0945  0.1922
   21SM24    C6 3045   5.720   4.097   7.528 -0.0749  0.0676 -0.5772
   21SM24   H14 3046   5.699   4.165   7.610  3.2827  1.9906 -1.2120
   21SM24   H15 3047   5.824   4.088   7.557 -0.5949  0.6044  1.5441
   21SM24    C7 3048   5.700   4.159   7.388 -0.0488  1.1415 -0.2643
   21SM24   H16 3049   5.744   4.088   7.318  0.3888 -0.7459  1.8632
   21SM24    N2 3050   5.775   4.289   7.379  0.4459  0.1270  0.1182
   21SM24    HN 3051   5.715   4.370   7.387  0.9777  0.5970 -0.4930
   21SM24    C8 3052   5.557   4.214   7.349 -0.3230 -0.4164 -0.6743
   21SM24   OSM 3053   5.497   4.285   7.458 -0.2024  0.2307  0.7841
   21SM24   HSM 3054   5.499   4.224   7.530 -2.0510  0.3049  0.9441
   21SM24   H17 3055   5.577   4.279   7.264  1.7105 -0.3843 -0.2118
   21SM24    C9 3056   5.466   4.107   7.294 -0.4317 -0.2397  0.1498
   21SM24   H18 3057   5.526   4.033   7.243 -1.1054 -0.4140 -0.3819
   21SM24   C10 3058   5.334   4.119   7.292 -0.6782  0.2704  0.0112
   21SM24   H19 3059   5.289   4.204   7.340  0.1609  0.8303 -0.1741
   21SM24   C11 3060   5.247   4.030   7.206  0.0196  0.1051 -0.0760
   21SM24   H20 3061   5.149   4.010   7.250 -0.2940 -1.0862 -1.2750
   21SM24   H21 3062   5.288   3.930   7.192 -1.1061 -0.5437  1.0860
   21SM24   C12 3063   5.199   4.095   7.076  0.5613 -0.0582  0.1872
   21SM24   H22 3064   5.179   4.200   7.097  0.6944 -0.0970  0.5122
   21SM24   H23 3065   5.104   4.046   7.052  0.1447 -0.3881  2.4363
   21SM24   C13 3066   5.296   4.074   6.963 -0.2327 -0.1276 -0.5134
   21SM24   H24 3067   5.322   3.972   6.938 -0.3640 -1.0803  2.9696
   21SM24   H25 3068   5.388   4.118   7.002 -0.8083  1.3754 -0.8052
   21SM24   C14 3069   5.237   4.141   6.836 -0.4647 -0.5771 -0.5002
   21SM24   H26 3070   5.207   4.241   6.865  0.1695 -1.2010  2.4705
   21SM24   H27 3071   5.140   4.101   6.808 -0.0291 -0.3899 -2.3626
   21SM24   C15 3072   5.340   4.145   6.717  0.0248  0.8190  0.0661
   21SM24   H28 3073   5.380   4.046   6.697  1.3485  1.3559  0.0567
   21SM24   H29 3074   5.425   4.209   6.738 -0.1572  1.0302  0.1674
   21SM24   C16 3075   5.285   4.203   6.584  0.2495 -0.2285 -0.2935
   21SM24   H30 3076   5.219   4.134   6.531 -0.4268  0.2477 -0.0796
   21SM24   H31 3077   5.379   4.194   6.531  0.3542  0.1093 -0.1697
   21SM24   C17 3078   5.234   4.350   6.595 -0.0474  0.0893 -0.2513
   21SM24   H32 3079   5.276   4.405   6.679  0.9462  2.2337 -2.0963
   21SM24   H33 3080   5.126   4.348   6.613 -0.2019  0.9246 -1.0684
   21SM24   C18 3081   5.259   4.423   6.461 -0.2017 -0.2166 -0.3038
   21SM24   H34 3082   5.181   4.386   6.395 -0.8318 -1.7429  1.2641
   21SM24   H34 3083   5.357   4.408   6.417  0.5103  1.6605  0.5780
   21SM24   C19 3084   5.253   4.571   6.471 -0.2735 -0.0129 -0.8127
   21SM24   H35 3085   5.155   4.607   6.502 -0.2680  0.1833 -1.0220
   21SM24   H36 3086   5.274   4.615   6.374  6.1205  2.3618  1.3653
   21SM24   C20 3087   5.350   4.631   6.562 -0.2364 -0.6412  0.4441
   21SM24   H37 3088   5.320   4.602   6.663 -1.5006 -0.5521  0.0938
   21SM24   H38 3089   5.350   4.740   6.552  2.1037 -0.8407 -2.6986
   21SM24   C21 3090   5.498   4.585   6.538 -0.3734  0.1520  0.2246
   21SM24   H39 3091   5.525   4.581   6.432 -1.1074  0.3573  0.0308
   21SM24   H40 3092   5.521   4.486   6.578 -1.0085 -0.2827 -0.4927
   21SM24   C22 3093   5.611   4.672   6.596 -0.3147  1.0359  0.2641
   21SM24   H41 3094   5.586   4.670   6.702 -1.3678 -0.7146  0.0061
   21SM24   H42 3095   5.597   4.773   6.556 -1.9756  0.5985 -0.3183
   21SM24   C23 3096   5.750   4.607   6.585 -0.4809  0.8959 -0.1696
   21SM24   H43 3097   5.824   4.683   6.610  0.8145 -0.0057 -1.1193
   21SM24   H44 3098   5.761   4.519   6.648  0.1158 -1.4306 -3.3801
   21SM24   H45 3099   5.778   4.568   6.487 -1.2442 -1.0561  0.3737
   21SM24   C24 3100   5.902   4.303   7.388 -0.2897 -0.4475 -0.0797
   21SM24   O33 3101   0.035   4.206   7.382  0.7428  0.1120  0.1376
   21SM24   C25 3102   0.008   4.449   7.400  0.8853 -0.8100  0.1983
   21SM24   H50 3103   5.945   4.476   7.505  1.4086 -1.0713  0.3208
   21SM24   H51 3104   5.879   4.514   7.358  0.1556 -1.6386  0.2429
   21SM24   C26 3105   0.138   4.470   7.319 -0.4200  0.3000 -0.3968
   21SM24   H52 3106   0.105   4.461   7.216 -1.0260  2.5606 -0.4349
   21SM24   H53 3107   0.204   4.386   7.340  0.8716  1.0767 -1.2477
   21SM24   C27 3108   0.208   4.602   7.347  0.1311 -0.0932 -0.4254
   21SM24   H54 3109   0.237   4.619   7.450  1.4855  1.5474 -1.0479
   21SM24   H55 3110   0.127   4.670   7.319  0.9233  1.1187  0.1953
   21SM24   C28 3111   0.339   4.627   7.283 -0.8114  0.4740  0.8112
   21SM24   H56 3112   0.396   4.535   7.295 -0.8453  0.0316 -1.9901
   21SM24   H57 3113   0.391   4.708   7.335  0.4457 -1.0995  2.0684
   21SM24   C29 3114   0.315   4.650   7.137  1.1903 -0.6681  0.8047
   21SM24   H58 3115   0.265   4.746   7.129 -0.8096 -1.7236  0.3460
   21SM24   H59 3116   0.242   4.577   7.102 -1.4544  0.9976  2.7081
   21SM24   C30 3117   0.439   4.658   7.052 -0.2144 -0.1320  1.0890
   21SM24   H60 3118   0.484   4.559   7.049 -1.9939 -0.9070 -1.6614
   21SM24   H61 3119   0.516   4.702   7.116 -0.6344  0.2209  1.3600
   21SM24   C31 3120   0.409   4.704   6.911 -0.4957 -0.0883  0.2477
   21SM24   H62 3121   0.408   4.813   6.917 -2.6282  0.0895 -2.4217
   21SM24   H63 3122   0.308   4.677   6.880 -0.2368 -1.2100  0.3697
   21SM24   C32 3123   0.523   4.665   6.810 -0.5238 -0.0136  0.1630
   21SM24   H64 3124   0.548   4.559   6.809  4.0560  0.9525 -0.3620
   21SM24   H65 3125   0.614   4.712   6.849 -1.6121  0.9790  1.5862
   21SM24   C33 3126   0.494   4.701   6.665 -0.6818 -0.4438 -0.0672
   21SM24   H66 3127   0.470   4.807   6.670  0.1019 -0.3287  2.1774
   21SM24   H67 3128   0.402   4.652   6.634 -1.5836  0.2885  1.4089
   21SM24   C34 3129   0.609   4.662   6.573 -0.1158  0.2408  0.2344
   21SM24   H68 3130   0.632   4.555   6.574 -0.9053  0.0668 -0.2297
   21SM24   H69 3131   0.699   4.711   6.610  1.1884 -0.9865 -1.2477
   21SM24   C35 3132   0.576   4.710   6.430 -0.5852 -0.3640  0.2150
   21SM24   H70 3133   0.555   4.816   6.443  1.5248 -0.0622  1.4768
   21SM24   H71 3134   0.482   4.659   6.410  0.0725 -0.9950 -1.3484
   21SM24   C36 3135   0.684   4.688   6.313 -0.2667 -0.0441 -0.2680
   21SM24   H72 3136   0.715   4.584   6.318 -0.9953 -0.2387  0.3615
   21SM24   H73 3137   0.775   4.745   6.331 -1.5007  2.4238 -1.6228
   21SM24   C37 3138   0.618   4.718   6.179 -0.7340  0.3178  0.3772
   21SM24   H74 3139   0.557   4.808   6.190  3.3194  3.2312  0.3753
   21SM24   H75 3140   0.558   4.631   6.154 -0.4713  0.3442 -0.3804
   21SM24   C38 3141   0.736   4.736   6.078 -0.3242  0.2332 -0.0041
   21SM24   H76 3142   0.694   4.750   5.978  3.1099 -3.2946 -2.0370
   21SM24   H77 3143   0.787   4.641   6.067  0.4171  0.5334  0.7414
   21SM24   C39 3144   0.832   4.857   6.093 -0.7112 -0.6586 -0.2411
   21SM24   H78 3145   0.908   4.834   6.168 -0.8752  0.2200  0.1986
   21SM24   H79 3146   0.783   4.949   6.125  0.4665 -0.4420  0.9673
   21SM24   C40 3147   0.927   4.893   5.971 -0.6148 -0.3560  0.1748
   21SM24   H80 3148   0.972   4.798   5.942 -1.9177 -1.0001  0.2143
   21SM24   H81 3149   0.878   4.933   5.882  1.5869 -0.1023 -0.9745
   21SM24   C41 3150   1.036   5.002   6.001  0.0755  0.3653 -0.5727
   21SM24   H82 3151   0.993   5.098   6.029  1.1338 -0.2407  3.4703
   21SM24   H83 3152   1.090   4.962   6.087 -1.9226 -3.9878 -1.1862
   21SM24   C42 3153   1.138   5.023   5.886  0.0623  0.0834 -0.3311
   21SM24   H84 3154   1.087   5.038   5.790  1.0942  1.1625 -0.7245
   21SM24   H85 3155   1.172   4.920   5.872  0.6122  0.1146  0.7495
   21SM24   C43 3156   1.255   5.123   5.905 -0.4725 -0.2103  0.4769
   21SM24   H86 3157   1.315   5.120   5.814 -2.1386 -1.1952 -0.6496
   21SM24   H87 3158   1.317   5.088   5.987  1.2045  2.0203  0.2001
   21SM24   C44 3159   1.209   5.271   5.943  0.4417  0.4255 -0.4512
   21SM24   H88 3160   1.113   5.288   5.894 -0.6253 -0.2286  1.3481
   21SM24   H89 3161   1.197   5.273   6.051  0.4253  1.7360 -0.4754
   21SM24   C45 3162   1.316   5.373   5.909  0.3171 -0.3387  0.5742
   21SM24   H90 3163   1.330   5.361   5.802  0.7372  1.7075  0.3695
   21SM24   H91 3164   1.409   5.343   5.957  1.0394 -0.6971 -1.0120
   21SM24   C46 3165   1.287   5.521   5.948  0.2992  0.1413  0.3879
   21SM24   H92 3166   1.301   5.528   6.056 -2.8588  1.2565  0.7885
   21SM24   H93 3167   1.371   5.583   5.918 -1.0344  2.0825  0.5569
   21SM24   C47 3168   1.162   5.588   5.891 -0.3933  0.0829  0.1921
   21SM24   H94 3169   1.159   5.572   5.783  0.5317  0.6910  0.0745
   21SM24   H95 3170   1.074   5.546   5.940 -0.4015  1.3983  1.3574
   21SM24   H96 3171   1.165   5.697   5.893 -0.2872  0.0697  2.7619
   22SM24    N1 3172   1.345   3.619   8.043 -0.6890 -1.1929 -0.1578
   22SM24    C1 3173   1.252   3.729   8.093 -0.0944 -0.1254  0.7233
   22SM24    H1 3174   1.154   3.693   8.126  0.6283 -0.5568  2.4598
   22SM24    H2 3175   1.295   3.771   8.184  0.1318 -0.4868  0.7834
   22SM24    C2 3176   1.367   3.523   8.152 -0.4634  0.0998  0.0476
   22SM24    H3 3177   1.405   3.430   8.110 -1.0338  0.2374 -0.7673
   22SM24    H4 3178   1.436   3.550   8.232 -0.9546 -0.9389  0.8511
   22SM24    H5 3179   1.274   3.491   8.199  0.8458 -2.6597  0.8680
   22SM24    C3 3180   1.289   3.548   7.925 -0.0555 -0.1821  0.0124
   22SM24    H6 3181   1.362   3.479   7.884  1.2166  2.0710 -1.6759
   22SM24    H7 3182   1.197   3.494   7.950  0.0404 -0.6775 -0.6878
   22SM24    H8 3183   1.248   3.611   7.845 -0.3355 -0.5347 -0.1264
   22SM24    C4 3184   1.481   3.667   8.000 -0.3113  0.4957  0.1476
   22SM24    H9 3185   1.471   3.754   7.935  0.8983  0.5402  0.0044
   22SM24   H10 3186   1.536   3.696   8.090 -0.1145 -0.1353  0.2355
   22SM24   H11 3187   1.550   3.593   7.960  0.0276  1.3918 -0.9530
   22SM24    C5 3188   1.230   3.842   7.992  1.0177 -0.9175 -0.0663
   22SM24   H12 3189   1.175   3.799   7.909 -0.9681  0.9333  0.2420
   22SM24   H13 3190   1.326   3.891   7.972  0.3778 -0.1872 -1.3923
   22SM24    P1 3191   1.003   3.983   8.016  0.1519 -0.7247  0.0315
   22SM24    O1 3192   0.974   4.094   8.116  0.0888  0.1014 -0.7063
   22SM24    O2 3193   0.914   3.867   8.011 -0.6197  0.6090 -0.0282
   22SM24    O3 3194   1.149   3.935   8.062 -0.5163  0.7270  0.1551
   22SM24    O4 3195   1.007   4.027   7.861 -0.0508 -0.5585 -0.2330
   22SM24    C6 3196   1.080   4.140   7.827 -0.3851  0.1836  0.1226
   22SM24   H14 3197   1.017   4.220   7.866 -0.8972 -0.7728  1.3041
   22SM24   H15 3198   1.174   4.138   7.881  0.3895 -0.9567 -1.2351
   22SM24    C7 3199   1.122   4.146   7.679 -0.7003 -0.1726  1.0314
   22SM24   H16 3200   1.189   4.064   7.654 -2.3555 -1.0258 -0.8672
   22SM24    N2 3201   1.191   4.278   7.662 -0.2075  0.2390  0.4507
   22SM24    HN 3202   1.152   4.357   7.711 -0.1003  0.5224  0.0781
   22SM24    C8 3203   1.004   4.147   7.583  0.1284 -0.1068 -0.0193
   22SM24   OSM 3204   0.904   4.241   7.623  0.3213 -0.4738 -0.0293
   22SM24   HSM 3205   0.935   4.329   7.608 -0.9299 -0.4989 -3.0890
   22SM24   H17 3206   1.041   4.179   7.485 -0.9300  0.7441 -0.1476
   22SM24    C9 3207   0.936   4.009   7.559 -0.5089 -0.4072 -0.8691
   22SM24   H18 3208   0.891   3.961   7.644 -0.4525 -0.7894 -1.0509
   22SM24   C10 3209   0.935   3.943   7.438 -0.4721  0.1518 -0.1364
   22SM24   H19 3210   0.984   3.987   7.353 -0.6301 -2.1133 -1.4445
   22SM24   C11 3211   0.861   3.815   7.394  0.8240 -0.4768  0.2409
   22SM24   H20 3212   0.820   3.768   7.484 -0.6643  0.7529  0.2115
   22SM24   H21 3213   0.928   3.740   7.350  0.4543  0.4246 -1.8983
   22SM24   C12 3214   0.746   3.849   7.302  0.8623  0.6607  0.5279
   22SM24   H22 3215   0.796   3.894   7.216  2.6204  2.2495  2.3414
   22SM24   H23 3216   0.676   3.929   7.325  0.5914  0.3949  0.6357
   22SM24   C13 3217   0.655   3.725   7.266  0.3717  0.3107 -0.4394
   22SM24   H24 3218   0.566   3.732   7.329  0.5072  2.1140 -0.4079
   22SM24   H25 3219   0.691   3.630   7.304  0.0094  0.3948  0.1341
   22SM24   C14 3220   0.618   3.732   7.112 -0.4801 -0.3692  0.8318
   22SM24   H26 3221   0.565   3.637   7.104 -2.6352  0.8918 -0.1342
   22SM24   H27 3222   0.705   3.725   7.046 -0.2853  2.2718  0.7369
   22SM24   C15 3223   0.530   3.847   7.078  0.2319  0.6516 -0.6519
   22SM24   H28 3224   0.520   3.850   6.970  0.4192  2.1718 -0.6326
   22SM24   H29 3225   0.575   3.944   7.100  1.5233 -0.5198  2.2885
   22SM24   C16 3226   0.389   3.842   7.146  0.0732  0.3710  0.8910
   22SM24   H30 3227   0.384   3.809   7.250  2.0029 -0.7417  0.6534
   22SM24   H31 3228   0.329   3.770   7.091  0.7756 -0.1580  0.8059
   22SM24   C17 3229   0.328   3.983   7.139  0.4352 -0.5208  0.3847
   22SM24   H32 3230   0.408   4.050   7.170 -1.1414  3.0660 -2.8879
   22SM24   H33 3231   0.260   3.988   7.224 -1.3282  1.5992 -1.1271
   22SM24   C18 3232   0.264   4.027   7.008  0.3408 -0.2262  0.0361
   22SM24   H34 3233   0.179   3.962   6.984  0.0034 -0.0241  0.6768
   22SM24   H34 3234   0.331   4.020   6.922 -0.5607 -1.5185 -0.5824
   22SM24   C19 3235   0.200   4.162   7.022 -0.9143  0.3849  0.5515
   22SM24   H35 3236   0.278   4.227   7.062 -0.4341  0.2080 -0.1051
   22SM24   H36 3237   0.121   4.163   7.098 -0.1545  0.1341  1.3605
   22SM24   C20 3238   0.161   4.221   6.892  0.1560 -0.2288 -0.6657
   22SM24   H37 3239   0.082   4.158   6.849  0.5229 -1.1289 -0.0284
   22SM24   H38 3240   0.247   4.209   6.826  2.2919 -2.7968  2.4346
   22SM24   C21 3241   0.122   4.369   6.905  0.1049 -0.0593  0.0151
   22SM24   H39 3242   0.206   4.438   6.909  2.0073 -2.2561 -0.9464
   22SM24   H40 3243   0.065   4.393   6.995 -1.0270 -0.9353 -0.4606
   22SM24   C22 3244   0.040   4.413   6.790  0.3254 -0.9976 -0.2609
   22SM24   H41 3245   0.010   4.517   6.804 -1.3803 -1.4405 -0.4124
   22SM24   H42 3246   5.901   4.348   6.787  0.4603 -1.1945  0.0018
   22SM24   C23 3247   0.111   4.415   6.655  0.9504  0.1416 -0.3845
   22SM24   H43 3248   0.043   4.463   6.586  0.2777  0.2100  0.3204
   22SM24   H44 3249   0.205   4.471   6.653  0.5882  0.7026 -1.8504
   22SM24   H45 3250   0.127   4.313   6.620  2.2702  1.0767 -2.5523
   22SM24   C24 3251   1.265   4.313   7.556 -0.8400  0.2118  0.8946
   22SM24   O33 3252   1.318   4.228   7.479  0.3443 -0.4949 -0.0494
   22SM24   C25 3253   1.327   4.452   7.539 -0.3479  0.0054 -0.0397
   22SM24   H50 3254   1.434   4.444   7.519 -0.2033  1.0199  0.3110
   22SM24   H51 3255   1.320   4.504   7.634 -0.2321  1.6375 -0.8950
   22SM24   C26 3256   1.258   4.528   7.428  0.3209 -0.0304  0.1722
   22SM24   H52 3257   1.282   4.634   7.437  1.7606  0.1099 -4.4134
   22SM24   H53 3258   1.151   4.507   7.437  0.2061  0.0504 -1.0095
   22SM24   C27 3259   1.304   4.486   7.292 -0.5560  0.5135 -0.2486
   22SM24   H54 3260   1.283   4.383   7.263  0.8518  0.4326 -1.0192
   22SM24   H55 3261   1.412   4.495   7.287 -0.5509  0.8233  0.3334
   22SM24   C28 3262   1.250   4.564   7.173 -0.4090  1.6088 -0.7402
   22SM24   H56 3263   1.319   4.569   7.088 -0.3905  1.8864 -0.7092
   22SM24   H57 3264   1.246   4.665   7.214 -0.3052  0.9055  1.0269
   22SM24   C29 3265   1.117   4.533   7.110  0.2622  0.1713 -0.7244
   22SM24   H58 3266   1.036   4.532   7.183  1.3785 -1.0901  0.5036
   22SM24   H59 3267   1.115   4.436   7.060 -1.3972  0.7169 -1.7583
   22SM24   C30 3268   1.065   4.635   7.003 -0.0147 -0.3039 -0.1561
   22SM24   H60 3269   1.093   4.734   7.037 -1.5549 -0.8732  3.0282
   22SM24   H61 3270   0.956   4.643   7.003  0.1544  2.3935 -0.1535
   22SM24   C31 3271   1.110   4.594   6.862  0.7190 -0.4103 -0.9343
   22SM24   H62 3272   1.216   4.567   6.865  0.8481 -0.1076 -2.4434
   22SM24   H63 3273   1.128   4.686   6.805 -0.6645  0.7480  0.4474
   22SM24   C32 3274   1.014   4.485   6.796 -0.1346 -0.8406 -0.2819
   22SM24   H64 3275   0.914   4.526   6.807  0.2256 -0.4066  1.4530
   22SM24   H65 3276   0.998   4.393   6.851 -0.0029 -1.5874 -1.4581
   22SM24   C33 3277   1.045   4.439   6.654  0.0061 -0.0349 -0.1123
   22SM24   H66 3278   0.994   4.347   6.627  0.9328 -0.2008 -1.3143
   22SM24   H67 3279   1.150   4.412   6.636 -0.0654 -0.1875 -0.3076
   22SM24   C34 3280   1.004   4.545   6.558 -0.5436  0.0463  0.0686
   22SM24   H68 3281   1.021   4.649   6.586  0.5455 -0.2533  0.5277
   22SM24   H69 3282   0.895   4.539   6.547 -0.7793  1.0607  1.6462
   22SM24   C35 3283   1.071   4.512   6.425 -0.2657  0.0256 -0.0946
   22SM24   H70 3284   1.024   4.431   6.369  0.5028  1.5213 -2.9719
   22SM24   H71 3285   1.176   4.487   6.441 -0.6554 -1.9644 -0.4405
   22SM24   C36 3286   1.072   4.637   6.337 -0.4420 -0.4640 -0.4133
   22SM24   H72 3287   1.099   4.723   6.399 -0.8889 -0.4675 -0.2102
   22SM24   H73 3288   0.972   4.661   6.298 -0.7769  0.9935  1.2847
   22SM24   C37 3289   1.155   4.630   6.215  0.5744  0.0446 -0.7344
   22SM24   H74 3290   1.137   4.718   6.154  0.1341  0.7843  0.4556
   22SM24   H75 3291   1.115   4.549   6.154  2.1659 -0.1915 -1.4939
   22SM24   C38 3292   1.303   4.616   6.242 -0.5521 -0.4282 -0.4285
   22SM24   H76 3293   1.322   4.517   6.282  0.0364 -0.0762  0.1804
   22SM24   H77 3294   1.318   4.685   6.325  1.4281 -1.9405  0.5027
   22SM24   C39 3295   1.396   4.644   6.124  0.4257 -0.4794  0.7236
   22SM24   H78 3296   1.498   4.633   6.162  1.6975  0.9820 -2.0800
   22SM24   H79 3297   1.399   4.748   6.089 -0.1166 -0.5380  0.5067
   22SM24   C40 3298   1.376   4.550   6.003  0.1012 -0.4145  0.6264
   22SM24   H80 3299   1.274   4.561   5.967  0.7793  2.0693 -0.6389
   22SM24   H81 3300   1.436   4.589   5.921 -1.8840  2.1627  0.3530
   22SM24   C41 3301   1.402   4.407   6.038 -0.2915  0.8913 -0.6885
   22SM24   H82 3302   1.505   4.394   6.070 -0.1255  0.2286 -1.4874
   22SM24   H83 3303   1.340   4.375   6.122  1.4236  0.3899  0.3929
   22SM24   C42 3304   1.364   4.312   5.926  0.5856  0.3056  1.0500
   22SM24   H84 3305   1.395   4.361   5.833  0.0325  2.6152  2.0644
   22SM24   H85 3306   1.255   4.314   5.920  0.6719  2.0803 -0.1506
   22SM24   C43 3307   1.428   4.173   5.939 -0.1006  0.2060  0.5573
   22SM24   H86 3308   1.387   4.122   6.026  0.4560  0.4889  0.9900
   22SM24   H87 3309   1.536   4.187   5.941  0.0969 -1.3785  1.0613
   22SM24   C44 3310   1.405   4.083   5.816  0.2566  0.2459 -0.0888
   22SM24   H88 3311   1.297   4.076   5.804  0.2697  2.1849 -1.6444
   22SM24   H89 3312   1.439   4.135   5.727  1.5783 -1.3790 -0.5561
   22SM24   C45 3313   1.476   3.949   5.835  0.4963 -0.0769  0.4239
   22SM24   H90 3314   1.445   3.896   5.924 -3.0890  1.3223  0.0875
   22SM24   H91 3315   1.582   3.975   5.846  0.5644 -0.8679  1.7403
   22SM24   C46 3316   1.473   3.863   5.712  1.0818 -0.0883  0.6170
   22SM24   H92 3317   1.367   3.846   5.689  0.5470  1.8291  1.5336
   22SM24   H93 3318   1.506   3.924   5.628  0.8458 -2.3668 -1.1650
   22SM24   C47 3319   1.556   3.742   5.712 -0.4355  0.8619 -0.8541
   22SM24   H94 3320   1.535   3.683   5.801  0.4175 -1.5301 -2.1884
   22SM24   H95 3321   1.553   3.669   5.631  2.2611 -1.8403  1.3509
   22SM24   H96 3322   1.664   3.752   5.721 -0.4977  0.5131  0.3769
   23SM24    N1 3323   0.463   5.241   8.933  0.0006 -0.4768 -0.0467
   23SM24    C1 3324   0.482   5.138   8.829  0.0849  0.2078  0.4118
   23SM24    H1 3325   0.572   5.156   8.770  1.3177 -4.1606  0.8385
   23SM24    H2 3326   0.511   5.044   8.875 -1.9874 -0.3588  0.5804
   23SM24    C2 3327   0.598   5.272   8.985 -0.2566  0.1835  0.5457
   23SM24    H3 3328   0.651   5.186   9.024 -1.9382  0.0869  2.7000
   23SM24    H4 3329   0.656   5.311   8.901  0.4746 -2.5881 -0.2810
   23SM24    H5 3330   0.601   5.355   9.056  0.5559 -0.1650  0.9253
   23SM24    C3 3331   0.397   5.370   8.896  0.5314  0.1746  0.4213
   23SM24    H6 3332   0.443   5.408   8.804  1.8795 -0.1606  0.9453
   23SM24    H7 3333   0.290   5.349   8.890  0.9058 -1.6842 -0.0307
   23SM24    H8 3334   0.418   5.454   8.963 -0.0261  2.5265 -2.2216
   23SM24    C4 3335   0.375   5.189   9.041 -0.3869 -0.0570 -0.2012
   23SM24    H9 3336   0.428   5.109   9.093  2.3458  1.4717 -0.5555
   23SM24   H10 3337   0.351   5.267   9.113  0.9895  0.4895 -0.3194
   23SM24   H11 3338   0.278   5.154   9.004 -1.0291  1.1899  0.2652
   23SM24    C5 3339   0.359   5.120   8.740 -0.8177  0.9093 -1.1006
   23SM24   H12 3340   0.321   5.211   8.693  1.0362  1.2472 -1.9778
   23SM24   H13 3341   0.277   5.082   8.801 -0.5395  0.3279 -1.0857
   23SM24    P1 3342   0.290   4.934   8.558  0.1147  0.1233 -0.0026
   23SM24    O1 3343   0.224   4.837   8.652 -0.6331 -0.2445  0.6223
   23SM24    O2 3344   0.352   4.869   8.439  0.2206  0.0475  0.1626
   23SM24    O3 3345   0.394   5.026   8.633 -0.2562 -0.1736 -0.2802
   23SM24    O4 3346   0.174   5.027   8.504  0.1747 -0.0651 -0.4789
   23SM24    C6 3347   0.192   5.148   8.426  0.6267 -0.2537  0.2684
   23SM24   H14 3348   0.126   5.229   8.456  2.2020  1.4457 -0.7780
   23SM24   H15 3349   0.289   5.189   8.455  0.3476  2.2404 -2.1242
   23SM24    C7 3350   0.195   5.125   8.268  0.2547  0.0622  0.4089
   23SM24   H16 3351   0.294   5.086   8.248  0.3116 -0.7582  2.1854
   23SM24    N2 3352   0.187   5.262   8.209  1.0633  0.5444 -0.3276
   23SM24    HN 3353   0.191   5.337   8.277  0.8931 -1.8532  2.4143
   23SM24    C8 3354   0.096   5.015   8.222 -0.3099  0.7136  0.2359
   23SM24   OSM 3355   0.148   4.888   8.246  0.1356  0.3371 -0.2866
   23SM24   HSM 3356   0.214   4.894   8.314  1.1582 -0.0687 -1.2213
   23SM24   H17 3357   0.006   5.023   8.284 -0.5839  0.4266 -0.1225
   23SM24    C9 3358   0.031   5.013   8.087  0.0004 -0.0951  0.4740
   23SM24   H18 3359   0.087   5.053   8.003 -0.5399  0.0749  0.1905
   23SM24   C10 3360   5.860   4.959   8.065  0.2389 -0.4172  0.0147
   23SM24   H19 3361   5.800   4.933   8.151 -0.7532 -1.7342 -1.0395
   23SM24   C11 3362   5.795   4.953   7.931 -0.3603  1.0134 -0.6695
   23SM24   H20 3363   5.749   4.854   7.933  1.1568  0.2948 -1.4264
   23SM24   H21 3364   5.862   4.969   7.847  0.2902 -0.2615 -0.4110
   23SM24   C12 3365   5.672   5.043   7.944  0.0942 -0.9022  0.2062
   23SM24   H22 3366   5.706   5.146   7.947 -0.0676 -0.8342 -0.1537
   23SM24   H23 3367   5.616   5.013   8.032 -1.1506  0.0914 -0.2213
   23SM24   C13 3368   5.575   5.025   7.824  0.0604  0.1319 -0.4029
   23SM24   H24 3369   5.489   5.090   7.837  0.4237  0.4464  0.4643
   23SM24   H25 3370   5.535   4.924   7.821  2.2360 -0.7513 -0.6926
   23SM24   C14 3371   5.632   5.066   7.684  0.6097 -0.0300 -0.8733
   23SM24   H26 3372   5.722   5.011   7.653  0.2518 -1.4784  0.5898
   23SM24   H27 3373   5.676   5.166   7.686 -0.1512  0.3334 -1.9534
   23SM24   C15 3374   5.530   5.056   7.571 -0.0847  0.3343 -0.0235
   23SM24   H28 3375   5.475   5.150   7.572 -1.0337 -0.2196  0.6843
   23SM24   H29 3376   5.468   4.967   7.578  0.4901 -0.1154 -0.6262
   23SM24   C16 3377   5.597   5.060   7.437 -0.0202  0.4083 -0.0811
   23SM24   H30 3378   5.652   5.154   7.437 -0.8853  0.9405 -1.3597
   23SM24   H31 3379   5.512   5.073   7.369  0.0581 -0.3901 -0.3379
   23SM24   C17 3380   5.662   4.931   7.397  0.6953 -0.2456 -0.7040
   23SM24   H32 3381   5.606   4.838   7.406  3.8229 -1.9143  2.8352
   23SM24   H33 3382   5.747   4.911   7.463 -1.2292  2.2032  2.6351
   23SM24   C18 3383   5.715   4.938   7.255  0.1311  0.5468 -0.5892
   23SM24   H34 3384   5.807   4.995   7.239  0.6558  0.1588  0.9444
   23SM24   H34 3385   5.646   4.990   7.188 -4.0859 -1.3073  2.1750
   23SM24   C19 3386   5.756   4.795   7.200 -0.7084 -0.1725  0.2950
   23SM24   H35 3387   5.775   4.728   7.283 -1.5143 -0.3866  0.3036
   23SM24   H36 3388   5.843   4.789   7.134 -2.5357  0.9655 -2.2909
   23SM24   C20 3389   5.637   4.728   7.128 -1.1050 -0.3818  0.3501
   23SM24   H37 3390   5.607   4.772   7.033  1.4737  2.0113  0.5686
   23SM24   H38 3391   5.560   4.720   7.206 -1.9837 -1.5507 -0.6173
   23SM24   C21 3392   5.674   4.580   7.077  0.3077 -0.2021 -0.0947
   23SM24   H39 3393   5.727   4.529   7.157  0.7679  1.2266  0.5361
   23SM24   H40 3394   5.753   4.600   7.005 -0.2919  1.9152 -0.2094
   23SM24   C22 3395   5.563   4.490   7.033 -0.4033  0.0795  0.3859
   23SM24   H41 3396   5.506   4.544   6.957  0.4129  0.8837  0.3312
   23SM24   H42 3397   5.490   4.463   7.109 -1.2008 -0.3661 -0.5345
   23SM24   C23 3398   5.615   4.366   6.969  0.0072 -0.4869 -0.0728
   23SM24   H43 3399   5.681   4.392   6.886 -0.0230 -1.0442 -0.2720
   23SM24   H44 3400   5.683   4.317   7.039  0.1560  1.2473  1.0173
   23SM24   H45 3401   5.533   4.309   6.926 -0.3273 -0.7154  0.8605
   23SM24   C24 3402   0.194   5.301   8.080 -0.3288 -0.0516  0.2483
   23SM24   O33 3403   0.244   5.234   7.991 -0.6571  0.3183 -0.1837
   23SM24   C25 3404   0.204   5.451   8.058 -0.0780 -0.3433 -0.1772
   23SM24   H50 3405   0.135   5.509   8.119  1.8310  1.9462 -0.0877
   23SM24   H51 3406   0.172   5.454   7.954 -0.0358 -1.2781 -0.2235
   23SM24   C26 3407   0.346   5.505   8.076 -0.3785  0.7470  0.4239
   23SM24   H52 3408   0.419   5.429   8.050  0.3382  2.7337 -3.6398
   23SM24   H53 3409   0.357   5.518   8.184  0.8428  2.3713  0.1064
   23SM24   C27 3410   0.385   5.642   8.008 -0.0988  0.6938  0.6248
   23SM24   H54 3411   0.493   5.653   8.001 -0.0835  0.3216  0.2045
   23SM24   H55 3412   0.360   5.725   8.073  1.3040  1.4559  0.2116
   23SM24   C28 3413   0.327   5.652   7.866  0.2000 -0.5493 -0.1798
   23SM24   H56 3414   0.220   5.633   7.872  0.2227 -0.7273 -0.3212
   23SM24   H57 3415   0.370   5.576   7.800  0.8103 -0.1683 -0.2293
   23SM24   C29 3416   0.355   5.786   7.802 -0.4183  0.3829  0.0643
   23SM24   H58 3417   0.463   5.794   7.790 -0.5553  0.8734 -0.9466
   23SM24   H59 3418   0.326   5.858   7.878  0.0372  1.1906 -0.5158
   23SM24   C30 3419   0.283   5.804   7.667  0.2916 -0.7546 -0.2702
   23SM24   H60 3420   0.317   5.729   7.595  0.7174 -0.9352  0.1128
   23SM24   H61 3421   0.308   5.901   7.626  0.8250  0.5789  3.0650
   23SM24   C31 3422   0.137   5.798   7.679 -0.3962  0.4190  0.7280
   23SM24   H62 3423   0.101   5.879   7.742 -0.9369  0.5855  0.2071
   23SM24   H63 3424   0.096   5.708   7.725 -3.3313  0.6608 -1.3017
   23SM24   C32 3425   0.075   5.818   7.535 -0.7686  0.5475 -0.3813
   23SM24   H64 3426   0.102   5.731   7.475 -1.9296 -0.3417  0.3642
   23SM24   H65 3427   0.125   5.903   7.489  2.0826 -1.1781 -0.5858
   23SM24   C33 3428   5.872   5.829   7.537  0.0994  0.4783 -0.3520
   23SM24   H66 3429   5.832   5.925   7.571  0.1474  0.4874 -0.3230
   23SM24   H67 3430   5.852   5.758   7.616  0.4580  0.3346 -0.3884
   23SM24   C34 3431   5.805   5.773   7.415 -0.3930 -0.4439 -0.4970
   23SM24   H68 3432   5.696   5.784   7.417 -0.4522 -0.9864 -0.5398
   23SM24   H69 3433   5.819   5.665   7.410  1.1548 -0.2706  0.0049
   23SM24   C35 3434   5.862   5.839   7.283  0.1349  0.0838  0.1349
   23SM24   H70 3435   0.009   5.805   7.244 -0.8578 -0.9978 -1.4255
   23SM24   H71 3436   5.877   5.945   7.305 -0.8986  0.2829 -0.0868
   23SM24   C36 3437   5.748   5.831   7.176 -0.1164 -0.5199  0.6330
   23SM24   H72 3438   5.671   5.903   7.207 -0.5148 -0.3900 -0.6176
   23SM24   H73 3439   5.696   5.735   7.182 -0.6251 -0.2877  0.0260
   23SM24   C37 3440   5.789   5.849   7.031  0.1361  0.7160 -0.3399
   23SM24   H74 3441   5.705   5.812   6.972 -0.4832  0.6434  0.5670
   23SM24   H75 3442   5.875   5.786   7.012  2.4646  3.3237  1.1296
   23SM24   C38 3443   5.824   0.040   6.991 -0.3028 -0.1841 -0.6241
   23SM24   H76 3444   5.909   0.070   7.052 -1.4007 -0.4830  1.0924
   23SM24   H77 3445   5.747   0.110   7.023 -2.8625 -2.6849 -1.1473
   23SM24   C39 3446   5.850   0.069   6.840  0.4477 -1.1487  0.2786
   23SM24   H78 3447   5.775   0.016   6.781  0.2582 -2.5903  1.7984
   23SM24   H79 3448   5.948   0.035   6.807  2.6271  3.1773  1.8247
   23SM24   C40 3449   5.854   0.226   6.822  0.8634 -0.1027  0.7905
   23SM24   H80 3450   5.765   0.264   6.872 -1.3743 -3.8203 -0.1278
   23SM24   H81 3451   5.932   0.265   6.888  3.2559  0.3689 -2.1776
   23SM24   C41 3452   5.905   0.265   6.678 -1.2173  0.0547 -0.3581
   23SM24   H82 3453   0.031   0.200   6.634 -1.2701  0.4121 -0.9897
   23SM24   H83 3454   5.828   0.237   6.605  0.2859 -3.3966 -0.6921
   23SM24   C42 3455   0.018   0.408   6.667  0.2072 -0.1969  0.0015
   23SM24   H84 3456   0.118   0.425   6.706  1.2762  0.8009 -3.0219
   23SM24   H85 3457   5.898   0.478   6.715  0.5944 -0.8647  1.5469
   23SM24   C43 3458   0.032   0.451   6.517 -0.2522 -0.9912 -0.4526
   23SM24   H86 3459   5.883   0.447   6.471  0.6476 -2.2453 -2.3418
   23SM24   H87 3460   0.071   0.370   6.456  3.4821  0.0911  0.3573
   23SM24   C44 3461   0.114   0.589   6.515 -0.3482 -0.2863  0.2058
   23SM24   H88 3462   0.092   0.633   6.417  3.6762 -0.0881 -0.7198
   23SM24   H89 3463   0.089   0.656   6.597 -0.6290 -0.3883  0.2031
   23SM24   C45 3464   0.268   0.575   6.516  0.2186 -0.3604 -0.3935
   23SM24   H90 3465   0.308   0.490   6.461 -0.5357  1.3618 -3.7408
   23SM24   H91 3466   0.307   0.555   6.616  0.7282  3.4722  0.2523
   23SM24   C46 3467   0.333   0.703   6.452 -0.5980 -0.1828  0.2349
   23SM24   H92 3468   0.282   0.791   6.492  0.6870  0.2255  1.0100
   23SM24   H93 3469   0.435   0.716   6.489 -0.6355  0.7846  0.0068
   23SM24   C47 3470   0.342   0.713   6.291  0.1140 -0.5146 -0.1907
   23SM24   H94 3471   0.415   0.638   6.260 -0.0354 -0.1887 -1.3218
   23SM24   H95 3472   0.251   0.690   6.236  1.0467  0.7281 -2.3082
   23SM24   H96 3473   0.381   0.812   6.268  2.1718 -1.7551 -2.2831
   24SM24    N1 3474   1.721   1.014   8.311  0.4149  0.3261  0.5290
   24SM24    C1 3475   1.672   1.153   8.302  0.1742  0.2951  0.5942
   24SM24    H1 3476   1.637   1.185   8.400  0.3376 -1.4090  1.2392
   24SM24    H2 3477   1.747   1.220   8.261  1.1198 -1.1022 -0.0047
   24SM24    C2 3478   1.725   0.943   8.185 -0.1358  0.2212  1.0103
   24SM24    H3 3479   1.752   1.010   8.103 -0.1268 -0.5554  0.3682
   24SM24    H4 3480   1.785   0.852   8.182 -2.1844 -1.1494  0.3959
   24SM24    H5 3481   1.624   0.903   8.167  0.0702  1.4271 -3.3836
   24SM24    C3 3482   1.864   1.018   8.358 -0.2031  0.2737 -0.2115
   24SM24    H6 3483   1.901   0.922   8.395 -2.8283 -1.0013 -0.7849
   24SM24    H7 3484   1.927   1.075   8.290  0.3920 -0.7194 -0.4923
   24SM24    H8 3485   1.869   1.077   8.450  0.8620  2.3701 -1.5720
   24SM24    C4 3486   1.644   0.935   8.416  0.3606 -0.8436 -0.0814
   24SM24    H9 3487   1.694   0.838   8.414  0.6059 -0.7949  2.0769
   24SM24   H10 3488   1.659   0.983   8.513 -0.8109 -1.0272  0.1962
   24SM24   H11 3489   1.538   0.932   8.393  0.5504 -0.5592 -1.0101
   24SM24    C5 3490   1.561   1.183   8.203  0.3399 -0.8657  0.5619
   24SM24   H12 3491   1.472   1.125   8.228 -0.8812  1.1972  1.1753
   24SM24   H13 3492   1.591   1.167   8.100 -0.7631 -0.4372  0.1718
   24SM24    P1 3493   1.389   1.363   8.122 -0.1181  0.0473 -0.4421
   24SM24    O1 3494   1.419   1.509   8.099 -0.5210  0.3437  0.0945
   24SM24    O2 3495   1.267   1.328   8.199 -0.4084 -0.5613 -0.0130
   24SM24    O3 3496   1.519   1.313   8.208  0.4869 -0.2299  0.4272
   24SM24    O4 3497   1.393   1.292   7.983 -0.6372  0.0837  0.6235
   24SM24    C6 3498   1.501   1.298   7.898 -1.1919 -0.3363 -0.6921
   24SM24   H14 3499   1.586   1.351   7.940 -1.0074 -0.9084 -0.3376
   24SM24   H15 3500   1.546   1.198   7.894 -1.3724 -0.4136 -0.8458
   24SM24    C7 3501   1.475   1.353   7.757  0.4939  0.1083  0.2579
   24SM24   H16 3502   1.415   1.296   7.687  1.7347 -1.3592  0.3607
   24SM24    N2 3503   1.603   1.346   7.682 -0.2973 -0.2867  1.0079
   24SM24    HN 3504   1.641   1.439   7.681  0.1145 -0.4581 -0.1631
   24SM24    C8 3505   1.411   1.495   7.739 -0.2907 -0.3448 -0.4208
   24SM24   OSM 3506   1.479   1.595   7.815  0.4082 -0.7132  0.2371
   24SM24   HSM 3507   1.460   1.574   7.905 -0.9442 -3.3738 -0.6191
   24SM24   H17 3508   1.417   1.519   7.633 -0.0771 -0.6492 -0.4799
   24SM24    C9 3509   1.271   1.495   7.779 -0.0775  0.3860  0.4488
   24SM24   H18 3510   1.242   1.476   7.881  0.3212  6.4311  1.9323
   24SM24   C10 3511   1.162   1.511   7.699  0.0105 -0.0239  0.0803
   24SM24   H19 3512   1.186   1.526   7.595 -0.4327  0.8890  0.0925
   24SM24   C11 3513   1.019   1.515   7.744 -0.4983  0.2984 -0.9561
   24SM24   H20 3514   0.994   1.619   7.763 -0.2621  0.0169  0.9410
   24SM24   H21 3515   1.009   1.459   7.837  0.5600  1.7871  0.0654
   24SM24   C12 3516   0.933   1.455   7.636  0.6334  0.8291  0.2595
   24SM24   H22 3517   0.949   1.347   7.633  0.4028  0.7671  1.1990
   24SM24   H23 3518   0.965   1.501   7.543 -0.0672 -2.2016 -1.5674
   24SM24   C13 3519   0.779   1.490   7.652  0.2021  0.2252  1.5311
   24SM24   H24 3520   0.772   1.599   7.663 -2.1601  0.2738 -0.2731
   24SM24   H25 3521   0.743   1.438   7.740 -0.9425 -0.3752  0.7212
   24SM24   C14 3522   0.703   1.451   7.524  0.1156 -0.8680  0.2012
   24SM24   H26 3523   0.702   1.349   7.486  1.2360 -0.5713 -0.6800
   24SM24   H27 3524   0.758   1.502   7.445  1.6179 -0.9479  1.1793
   24SM24   C15 3525   0.556   1.504   7.522  0.3535  0.3594  0.1015
   24SM24   H28 3526   0.547   1.612   7.536  1.1725  0.8786 -3.0330
   24SM24   H29 3527   0.505   1.453   7.604  3.0480 -1.0941  0.9542
   24SM24   C16 3528   0.504   1.485   7.387 -0.5478 -0.2156  0.2863
   24SM24   H30 3529   0.509   1.381   7.356  0.8050 -0.3681  0.9997
   24SM24   H31 3530   0.568   1.536   7.315  2.5450 -1.2956  2.2117
   24SM24   C17 3531   0.360   1.539   7.371 -0.6022 -0.5276 -0.6319
   24SM24   H32 3532   0.372   1.647   7.380 -2.4227 -0.3086 -0.7448
   24SM24   H33 3533   0.290   1.498   7.444  1.2797 -2.2166  0.2633
   24SM24   C18 3534   0.302   1.509   7.228 -0.2130  0.6964  0.0897
   24SM24   H34 3535   0.288   1.402   7.215  0.1972  0.6988 -0.3647
   24SM24   H34 3536   0.384   1.539   7.163  1.3395  1.6344  2.3907
   24SM24   C19 3537   0.171   1.579   7.205  0.2533 -0.2648  0.6473
   24SM24   H35 3538   0.200   1.677   7.243  0.7755 -0.4710  0.7909
   24SM24   H36 3539   0.089   1.547   7.269 -1.4436 -0.4212 -1.5709
   24SM24   C20 3540   0.127   1.587   7.054  0.3994 -0.5446  0.0294
   24SM24   H37 3541   0.037   1.648   7.055  1.0787  0.5053 -1.5045
   24SM24   H38 3542   0.087   1.491   7.024 -1.7089 -0.2158  1.6516
   24SM24   C21 3543   0.223   1.639   6.947  0.1023 -0.2361  0.1784
   24SM24   H39 3544   0.307   1.573   6.924  0.8079  1.1054 -1.2024
   24SM24   H40 3545   0.269   1.727   6.993  0.1068  0.3910 -1.0074
   24SM24   C22 3546   0.143   1.674   6.821 -0.1501 -0.1838 -0.9344
   24SM24   H41 3547   0.046   1.715   6.848 -0.0577 -0.3308 -0.3704
   24SM24   H42 3548   0.125   1.583   6.764 -1.4051  1.7202 -3.6886
   24SM24   C23 3549   0.223   1.770   6.730  0.0314  0.1974 -0.0646
   24SM24   H43 3550   0.174   1.775   6.632  0.0775 -1.8505 -0.2215
   24SM24   H44 3551   0.232   1.874   6.760 -3.1712  0.2480  0.9856
   24SM24   H45 3552   0.329   1.748   6.721  0.4794  3.1338 -2.4290
   24SM24   C24 3553   1.670   1.232   7.657 -0.3570 -0.4388  0.3542
   24SM24   O33 3554   1.620   1.120   7.663 -0.3129 -0.1528  0.3574
   24SM24   C25 3555   1.809   1.245   7.595 -0.3416 -0.2707  0.0079
   24SM24   H50 3556   1.847   1.143   7.592  1.0470  0.2380  0.0277
   24SM24   H51 3557   1.878   1.304   7.654  0.2506  0.7203 -1.6361
   24SM24   C26 3558   1.809   1.293   7.439  0.7284  0.1410  0.4922
   24SM24   H52 3559   1.737   1.371   7.415 -0.1728 -1.2504 -1.5176
   24SM24   H53 3560   1.772   1.206   7.384  0.0388 -0.3932  1.7891
   24SM24   C27 3561   1.950   1.334   7.384 -0.7637  0.4397  0.2996
   24SM24   H54 3562   2.018   1.250   7.402  1.5280  1.5261 -2.6790
   24SM24   H55 3563   1.987   1.424   7.434 -2.1207  1.6191 -0.7884
   24SM24   C28 3564   1.950   1.359   7.236 -0.6001 -0.8100 -0.6191
   24SM24   H56 3565   1.887   1.278   7.199 -3.4462  1.3555 -0.6338
   24SM24   H57 3566   2.048   1.349   7.189  0.1981 -1.3649  1.1241
   24SM24   C29 3567   1.897   1.497   7.194 -0.0543  0.2622 -0.0034
   24SM24   H58 3568   1.955   1.539   7.112 -0.2325 -1.0236 -0.8052
   24SM24   H59 3569   1.905   1.561   7.282  0.0628 -2.5894  2.1220
   24SM24   C30 3570   1.750   1.493   7.154  0.1579 -0.0278 -0.3746
   24SM24   H60 3571   1.682   1.499   7.238  0.3040  2.0618 -0.3901
   24SM24   H61 3572   1.726   1.390   7.125 -2.6785  0.5542 -0.2306
   24SM24   C31 3573   1.719   1.603   7.045  1.0017  0.6373  0.6591
   24SM24   H62 3574   1.812   1.616   6.989  1.0749  0.8268  0.8196
   24SM24   H63 3575   1.716   1.702   7.090 -1.0106  0.4437  0.9602
   24SM24   C32 3576   1.598   1.568   6.957 -0.2838 -0.3358  0.2194
   24SM24   H64 3577   1.508   1.586   7.016  0.9284 -0.0703  2.0388
   24SM24   H65 3578   1.605   1.460   6.947 -0.2501 -0.2775 -0.3960
   24SM24   C33 3579   1.585   1.635   6.820  0.2042  0.2854 -0.1611
   24SM24   H66 3580   1.610   1.741   6.815  0.8020  0.1903  0.6525
   24SM24   H67 3581   1.483   1.633   6.781 -0.0645  0.3853  0.5160
   24SM24   C34 3582   1.668   1.556   6.718  0.3096  0.9211  0.3461
   24SM24   H68 3583   1.618   1.461   6.700  0.6996  0.8380 -0.3095
   24SM24   H69 3584   1.764   1.532   6.764 -0.3825  2.0734  2.4680
   24SM24   C35 3585   1.684   1.633   6.590 -0.5293 -0.2574 -0.1119
   24SM24   H70 3586   1.689   1.738   6.618  1.2995 -0.0148 -1.2725
   24SM24   H71 3587   1.594   1.621   6.529  0.1454  1.0195 -1.3698
   24SM24   C36 3588   1.793   1.589   6.501 -0.3796  0.3481  0.1877
   24SM24   H72 3589   1.891   1.578   6.549 -0.5496  0.7136  0.6207
   24SM24   H73 3590   1.808   1.673   6.434 -0.8581  1.3677  1.3434
   24SM24   C37 3591   1.756   1.453   6.421 -0.1683 -0.1046  0.4246
   24SM24   H74 3592   1.675   1.483   6.355  0.9703  2.6816  0.2058
   24SM24   H75 3593   1.737   1.373   6.492  1.1755 -0.7519  0.0892
   24SM24   C38 3594   1.875   1.410   6.326 -0.0944 -0.2591 -0.4261
   24SM24   H76 3595   1.852   1.305   6.309 -1.1775  0.2227 -2.0933
   24SM24   H77 3596   1.975   1.411   6.369 -0.3563  1.5526  0.1562
   24SM24   C39 3597   1.877   1.487   6.189  0.0274  0.0069  0.0946
   24SM24   H78 3598   1.889   1.594   6.203 -0.2458  0.3532 -2.1854
   24SM24   H79 3599   1.781   1.476   6.140  0.8034 -2.2061 -1.0033
   24SM24   C40 3600   1.982   1.426   6.095  0.3495 -0.0070 -0.4852
   24SM24   H80 3601   2.085   1.442   6.126  0.0337 -0.9105  1.1320
   24SM24   H81 3602   1.973   1.319   6.075 -0.1943  0.0714 -0.6578
   24SM24   C41 3603   1.978   1.488   5.952  0.0975 -0.2756  0.4333
   24SM24   H82 3604   1.883   1.465   5.903  0.8437  2.9689 -2.8057
   24SM24   H83 3605   1.970   1.594   5.976  0.2216 -0.1601 -0.0175
   24SM24   C42 3606   2.096   1.461   5.867  0.3521 -0.2854 -0.3377
   24SM24   H84 3607   2.097   1.352   5.859 -2.2798 -0.6754  3.3219
   24SM24   H85 3608   2.181   1.505   5.920 -0.1035 -0.4154  0.5235
   24SM24   C43 3609   2.094   1.517   5.729 -0.2990 -0.1634  0.2244
   24SM24   H86 3610   2.199   1.531   5.703 -0.1387  0.2921  1.1151
   24SM24   H87 3611   2.063   1.621   5.739 -1.1314 -0.3634 -0.2314
   24SM24   C44 3612   2.030   1.436   5.612  0.3593  0.1950 -0.3242
   24SM24   H88 3613   2.077   1.338   5.618 -0.4949 -0.2401 -0.6402
   24SM24   H89 3614   1.925   1.417   5.632  0.6329 -2.3970 -1.1325
   24SM24   C45 3615   2.052   1.505   5.481  0.4231  0.1780  0.5099
   24SM24   H90 3616   2.157   1.495   5.454  0.9934  0.4836  2.5329
   24SM24   H91 3617   2.034   1.610   5.505 -0.0797 -0.2331  1.9781
   24SM24   C46 3618   1.949   1.464   5.376 -0.3203 -0.7546  0.0743
   24SM24   H92 3619   1.847   1.484   5.408 -0.2296 -0.3981  0.1451
   24SM24   H93 3620   1.967   1.539   5.299  0.9643 -0.7547  0.3589
   24SM24   C47 3621   1.965   1.320   5.337  0.1934 -0.2772  0.4031
   24SM24   H94 3622   1.936   1.252   5.418 -0.6096 -0.3971  0.0295
   24SM24   H95 3623   1.898   1.295   5.254 -1.3183  3.8688  0.2772
   24SM24   H96 3624   2.064   1.292   5.301  0.4067  1.8096 -0.7114
   25SM24    N1 3625   5.694   4.422   8.481  0.2639  0.2467 -0.0252
   25SM24    C1 3626   5.772   4.380   8.364 -0.0149  0.0443  0.0709
   25SM24    H1 3627   5.862   4.437   8.343 -0.1840 -0.6427 -2.8090
   25SM24    H2 3628   5.810   4.280   8.385  0.7304  0.0647 -1.1440
   25SM24    C2 3629   5.595   4.318   8.521  0.2032  0.2509  0.0920
   25SM24    H3 3630   5.568   4.333   8.625  0.4124  0.9537  0.0464
   25SM24    H4 3631   5.501   4.325   8.467 -0.4833 -0.0383  1.2339
   25SM24    H5 3632   5.624   4.213   8.513 -0.7320  0.0851 -1.2977
   25SM24    C3 3633   5.790   4.443   8.598 -0.6700 -0.4325 -0.0881
   25SM24    H6 3634   5.871   4.513   8.580 -0.4875 -1.0173 -1.6954
   25SM24    H7 3635   5.742   4.475   8.690 -0.7735 -0.3895 -0.1550
   25SM24    H8 3636   5.826   4.344   8.627  2.0238  0.6008  0.2200
   25SM24    C4 3637   5.618   4.549   8.460  0.1224 -0.4828 -0.2349
   25SM24    H9 3638   5.547   4.554   8.377 -0.4426 -0.6874  0.2363
   25SM24   H10 3639   5.563   4.573   8.551 -2.3981  0.3122 -1.8954
   25SM24   H11 3640   5.683   4.631   8.429 -1.2394  0.4938 -0.6131
   25SM24    C5 3641   5.686   4.346   8.236 -0.8192 -0.2174 -0.6696
   25SM24   H12 3642   5.632   4.434   8.201 -1.2727 -1.3453 -2.9357
   25SM24   H13 3643   5.620   4.263   8.261  1.0633 -1.3554  0.5740
   25SM24    P1 3644   5.825   4.417   8.025 -0.5412  0.1513  0.1220
   25SM24    O1 3645   5.873   4.357   7.896  0.2324 -0.1461  0.0592
   25SM24    O2 3646   5.924   4.498   8.105  0.0952 -0.4853 -0.8200
   25SM24    O3 3647   5.763   4.310   8.119  0.5072  0.0529 -0.1553
   25SM24    O4 3648   5.705   4.517   7.991 -0.0245  0.0497 -0.1260
   25SM24    C6 3649   5.600   4.482   7.908 -0.0145  0.8328 -0.0652
   25SM24   H14 3650   5.617   4.380   7.873 -2.0841 -0.2054  1.7939
   25SM24   H15 3651   5.505   4.487   7.961  0.7187  0.9334  1.2564
   25SM24    C7 3652   5.582   4.565   7.782 -0.4971  0.3379  0.5252
   25SM24   H16 3653   5.563   4.669   7.808  1.0491  0.9361 -0.6134
   25SM24    N2 3654   5.466   4.503   7.710  0.0579  0.4445  0.4513
   25SM24    HN 3655   5.497   4.448   7.632  2.8488 -0.6663  2.2648
   25SM24    C8 3656   5.708   4.564   7.689  0.4402  0.9562 -0.2270
   25SM24   OSM 3657   5.744   4.428   7.665 -0.7155 -0.3120  0.1842
   25SM24   HSM 3658   5.797   4.400   7.738  1.1355  1.4977 -0.4234
   25SM24   H17 3659   5.681   4.613   7.595  1.1135 -1.3236 -1.6380
   25SM24    C9 3660   5.828   4.648   7.734 -0.2848  0.8016 -0.5213
   25SM24   H18 3661   5.866   4.630   7.833 -2.5213  1.5013  0.4985
   25SM24   C10 3662   5.894   4.726   7.645 -0.6671  0.2403 -0.1834
   25SM24   H19 3663   5.864   4.733   7.542  1.1416  2.9937 -0.5594
   25SM24   C11 3664   0.080   4.792   7.685  0.6173 -0.8044  0.1453
   25SM24   H20 3665   0.157   4.715   7.687 -0.4620 -1.9014  1.8642
   25SM24   H21 3666   0.070   4.812   7.792 -0.5688 -0.3747 -0.0387
   25SM24   C12 3667   0.127   4.914   7.603  0.4439  0.0365  0.3684
   25SM24   H22 3668   0.046   4.985   7.587  1.8625  1.3483 -1.1385
   25SM24   H23 3669   0.157   4.875   7.506  0.7938 -0.8141  0.8092
   25SM24   C13 3670   0.255   4.993   7.641  0.6240 -1.0369 -0.7268
   25SM24   H24 3671   0.343   4.929   7.656  1.3568  0.1642  0.2115
   25SM24   H25 3672   0.249   5.031   7.743 -1.7990 -0.1017 -1.1833
   25SM24   C14 3673   0.290   5.094   7.525 -0.2222  0.2635  0.6883
   25SM24   H26 3674   0.344   5.184   7.553  0.2451 -0.2518  1.4366
   25SM24   H27 3675   0.203   5.150   7.490 -0.1074  0.4870  0.7570
   25SM24   C15 3676   0.349   5.025   7.404  0.5141  0.3638  0.1415
   25SM24   H28 3677   0.268   4.984   7.343  1.4078  0.7022 -1.3086
   25SM24   H29 3678   0.408   4.945   7.446 -0.8275 -1.7743 -1.8897
   25SM24   C16 3679   0.436   5.127   7.321 -0.1785  0.7282 -0.4751
   25SM24   H30 3680   0.508   5.179   7.383 -1.8176  1.0750  1.1902
   25SM24   H31 3681   0.369   5.204   7.283  2.2727  3.7026  1.0333
   25SM24   C17 3682   0.518   5.052   7.212 -0.8001 -0.0081 -0.4154
   25SM24   H32 3683   0.454   5.005   7.137 -0.6418 -1.2352  0.2171
   25SM24   H33 3684   0.557   4.971   7.273 -1.4584 -0.2476 -0.2983
   25SM24   C18 3685   0.628   5.133   7.159  0.6374  0.2124 -0.0021
   25SM24   H34 3686   0.699   5.060   7.119 -0.2244 -1.2316  1.0870
   25SM24   H34 3687   0.685   5.179   7.239  0.9557  0.1419 -0.1875
   25SM24   C19 3688   0.580   5.252   7.075  0.3355 -0.1558 -0.3799
   25SM24   H35 3689   0.669   5.304   7.039  2.8021 -2.3743  2.2860
   25SM24   H36 3690   0.520   5.311   7.144 -0.1353 -1.8739  0.7260
   25SM24   C20 3691   0.500   5.214   6.950  0.7494 -0.0542  0.7504
   25SM24   H37 3692   0.394   5.197   6.966  0.5180  1.1342  0.5064
   25SM24   H38 3693   0.534   5.120   6.905 -0.1416 -0.0307  0.0204
   25SM24   C21 3694   0.500   5.327   6.850  0.4266  0.2753  0.3408
   25SM24   H39 3695   0.597   5.376   6.844  1.0477 -1.0987 -1.1471
   25SM24   H40 3696   0.431   5.404   6.883  0.2928  0.3227 -0.0422
   25SM24   C22 3697   0.463   5.283   6.707  0.5947 -0.7944 -0.2788
   25SM24   H41 3698   0.363   5.242   6.714  0.3337  0.0849  1.7074
   25SM24   H42 3699   0.519   5.198   6.668  2.3282  0.3889 -0.4787
   25SM24   C23 3700   0.478   5.389   6.602 -0.4727  0.7547  0.4822
   25SM24   H43 3701   0.443   5.352   6.506 -1.7744  2.4829  0.2694
   25SM24   H44 3702   0.414   5.474   6.625 -3.3017 -0.8004 -1.3426
   25SM24   H45 3703   0.579   5.427   6.585  0.3097 -0.9638  1.1395
   25SM24   C24 3704   5.339   4.510   7.753  0.0531  0.1517 -0.3263
   25SM24   O33 3705   5.302   4.596   7.841 -0.4658 -0.1867  0.5677
   25SM24   C25 3706   5.231   4.448   7.671  0.3383  0.6627 -0.1423
   25SM24   H50 3707   5.156   4.424   7.746 -0.6989  0.6673 -1.1681
   25SM24   H51 3708   5.268   4.350   7.639 -0.2027  0.1184  0.9052
   25SM24   C26 3709   5.175   4.523   7.553  0.4663  0.1053  0.0261
   25SM24   H52 3710   5.177   4.629   7.575  2.4302 -0.5100  3.1305
   25SM24   H53 3711   5.071   4.491   7.544 -0.2540  2.3029  0.3089
   25SM24   C27 3712   5.257   4.508   7.426  0.1024  0.3655 -0.0063
   25SM24   H54 3713   5.255   4.401   7.403  2.4665  0.9002 -3.0641
   25SM24   H55 3714   5.356   4.553   7.437 -0.9093  2.3016  1.2960
   25SM24   C28 3715   5.211   4.587   7.307 -0.1640  0.3635  0.6861
   25SM24   H56 3716   5.286   4.596   7.229 -0.2648  1.4081  0.7005
   25SM24   H57 3717   5.178   4.688   7.333 -1.8858  0.1968 -0.7830
   25SM24   C29 3718   5.092   4.523   7.237 -0.6043  0.2286 -0.9806
   25SM24   H58 3719   5.017   4.485   7.305 -0.4019 -1.1260 -1.4965
   25SM24   H59 3720   5.136   4.439   7.182 -1.1851 -2.0653  1.9708
   25SM24   C30 3721   5.020   4.614   7.143  0.2109 -0.2604  0.5203
   25SM24   H60 3722   5.101   4.636   7.073  0.6271  1.7599  1.5924
   25SM24   H61 3723   5.003   4.714   7.182  3.5056  0.2662  0.7777
   25SM24   C31 3724   4.885   4.547   7.110 -0.7857 -0.7812 -0.1921
   25SM24   H62 3725   4.825   4.560   7.200 -1.9982 -0.8517 -0.9842
   25SM24   H63 3726   4.901   4.445   7.076 -1.1745 -0.3318 -1.7570
   25SM24   C32 3727   4.829   4.627   6.995 -0.1615 -0.5972 -0.1752
   25SM24   H64 3728   4.803   4.726   7.032 -2.0245 -0.8764 -0.7023
   25SM24   H65 3729   4.736   4.575   6.973 -1.1257  1.2952 -0.6570
   25SM24   C33 3730   4.918   4.638   6.871 -0.3933 -0.5895  0.2250
   25SM24   H66 3731   4.968   4.543   6.858  0.5409 -0.1029  0.2327
   25SM24   H67 3732   4.996   4.712   6.891 -1.1452  0.2913 -0.0635
   25SM24   C34 3733   4.841   4.691   6.750  0.0352 -0.3647  0.2149
   25SM24   H68 3734   4.812   4.794   6.771  1.2590  0.2087 -0.7941
   25SM24   H69 3735   4.751   4.631   6.736  0.3782 -0.8002 -0.1203
   25SM24   C35 3736   4.917   4.691   6.614  0.2989 -0.1644  0.3969
   25SM24   H70 3737   4.961   4.596   6.584 -1.1335 -0.3273 -1.2473
   25SM24   H71 3738   4.997   4.762   6.636 -0.2838  0.6619 -0.1084
   25SM24   C36 3739   4.824   4.728   6.496  0.7187  0.2248  0.9218
   25SM24   H72 3740   4.776   4.825   6.507  2.5400  1.2635 -0.0216
   25SM24   H73 3741   4.743   4.655   6.491  1.4338 -0.5058 -0.5368
   25SM24   C37 3742   4.900   4.740   6.361 -0.1297 -0.0328 -0.2576
   25SM24   H74 3743   4.963   4.651   6.353 -0.0773  0.1162 -1.7220
   25SM24   H75 3744   4.965   4.827   6.356  1.2528 -0.9241  1.5509
   25SM24   C38 3745   4.803   4.730   6.240  0.2037  0.6099 -0.2695
   25SM24   H76 3746   4.723   4.803   6.253  0.3496  1.2452 -2.8501
   25SM24   H77 3747   4.757   4.632   6.255 -2.3732  1.6408 -1.1103
   25SM24   C39 3748   4.864   4.755   6.106  0.4215 -0.4234 -0.0713
   25SM24   H78 3749   4.946   4.684   6.098 -0.7096 -1.7110 -0.3197
   25SM24   H79 3750   4.919   4.849   6.095 -2.0783  1.0178 -0.6404
   25SM24   C40 3751   4.761   4.718   6.000 -0.9971 -0.2595 -0.1878
   25SM24   H80 3752   4.806   4.710   5.902 -0.0919 -0.4687  0.2384
   25SM24   H81 3753   4.721   4.620   6.026 -0.2403 -0.4857  0.1203
   25SM24   C41 3754   4.648   4.826   5.984 -0.0884 -1.0352 -0.2853
   25SM24   H82 3755   4.618   4.845   6.087  1.0853 -2.5781  0.3629
   25SM24   H83 3756   4.687   4.914   5.934  0.1253 -2.5993 -2.9946
   25SM24   C42 3757   4.536   4.788   5.886  0.4840  0.0283 -0.8499
   25SM24   H84 3758   4.500   4.687   5.906 -1.5751  0.9989  0.4823
   25SM24   H85 3759   4.582   4.785   5.787  1.8680  1.2401 -0.2526
   25SM24   C43 3760   4.423   4.890   5.877 -0.1921  0.0985  1.2659
   25SM24   H86 3761   4.468   4.986   5.853  0.2578 -0.7552 -1.5452
   25SM24   H87 3762   4.365   4.901   5.969 -0.3675  0.6895  1.0894
   25SM24   C44 3763   4.314   4.860   5.765 -0.4417  0.0731 -0.1060
   25SM24   H88 3764   4.248   4.944   5.745  0.7310  0.9720 -0.2908
   25SM24   H89 3765   4.364   4.843   5.669 -0.8430  1.2621 -0.5358
   25SM24   C45 3766   4.219   4.744   5.799 -0.1559 -0.6332 -0.1721
   25SM24   H90 3767   4.151   4.789   5.871  0.6677  0.4910 -0.0864
   25SM24   H91 3768   4.278   4.672   5.854  0.5643 -2.1940 -2.8768
   25SM24   C46 3769   4.137   4.686   5.685 -0.4511  0.0789  0.1998
   25SM24   H92 3770   4.096   4.777   5.641 -0.6209  0.2163  0.6301
   25SM24   H93 3771   4.208   4.643   5.616  0.2402 -0.0153  0.9572
   25SM24   C47 3772   4.025   4.589   5.732  0.0243  0.0651 -0.4177
   25SM24   H94 3773   4.065   4.491   5.759  1.3147  0.7651  0.2608
   25SM24   H95 3774   3.961   4.628   5.810  0.9860  0.6141  0.1126
   25SM24   H96 3775   3.950   4.562   5.658  2.8485 -3.1136 -2.3076
   26SM24    N1 3776   0.435   1.827   8.533 -0.2788  0.5149  0.4660
   26SM24    C1 3777   0.360   1.698   8.494 -0.9303  0.4548  0.7840
   26SM24    H1 3778   0.366   1.631   8.579 -1.6537 -1.4361 -0.6159
   26SM24    H2 3779   0.252   1.708   8.479 -0.7569  0.4036 -0.5598
   26SM24    C2 3780   0.427   1.931   8.431 -0.2749 -0.7557 -0.3109
   26SM24    H3 3781   0.477   2.024   8.461 -2.3006  0.0904  0.5002
   26SM24    H4 3782   0.484   1.917   8.339  0.4463 -2.0092  0.3107
   26SM24    H5 3783   0.326   1.962   8.406  0.2953  1.6193  0.1998
   26SM24    C3 3784   0.374   1.879   8.656 -0.3183  0.2352 -0.3263
   26SM24    H6 3785   0.436   1.957   8.700  0.7804 -0.5338 -0.4938
   26SM24    H7 3786   0.287   1.943   8.640 -0.7364  0.0649  1.1223
   26SM24    H8 3787   0.345   1.806   8.732  1.1169 -1.2389 -1.1880
   26SM24    C4 3788   0.574   1.776   8.562  0.1525 -0.3671 -0.6229
   26SM24    H9 3789   0.595   1.681   8.611  0.7802 -0.1421 -0.4530
   26SM24   H10 3790   0.635   1.772   8.471 -0.7656 -2.5292 -1.1727
   26SM24   H11 3791   0.613   1.851   8.631  0.4589 -2.0233  1.0456
   26SM24    C5 3792   0.409   1.632   8.364 -0.7805  0.3179 -0.4171
   26SM24   H12 3793   0.517   1.620   8.357 -0.8599  0.3403 -1.9300
   26SM24   H13 3794   0.378   1.703   8.287 -1.0139 -2.0381 -2.5844
   26SM24    P1 3795   0.362   1.428   8.227 -0.1756  0.2642  0.1479
   26SM24    O1 3796   0.242   1.337   8.230  0.2765  0.1801  0.4662
   26SM24    O2 3797   0.495   1.362   8.230  0.8787  0.0817 -0.1066
   26SM24    O3 3798   0.343   1.513   8.356  0.1093  0.0741 -0.2346
   26SM24    O4 3799   0.350   1.512   8.094 -0.0154 -0.0437  0.0051
   26SM24    C6 3800   0.225   1.558   8.039 -0.0187 -0.3996  0.5099
   26SM24   H14 3801   0.138   1.514   8.087 -0.5058 -1.0906 -0.9725
   26SM24   H15 3802   0.225   1.665   8.056  1.2609  0.0892 -2.2885
   26SM24    C7 3803   0.222   1.548   7.883  0.3757 -0.0319 -0.0861
   26SM24   H16 3804   0.314   1.585   7.838  0.8201  1.5976  2.0668
   26SM24    N2 3805   0.114   1.630   7.827  0.1182  0.2272 -0.5366
   26SM24    HN 3806   0.041   1.639   7.896  1.5824  2.2343  0.7874
   26SM24    C8 3807   0.199   1.408   7.827  0.2575 -0.2200  0.3722
   26SM24   OSM 3808   0.075   1.363   7.859 -0.1635 -0.6967  0.6610
   26SM24   HSM 3809   0.083   1.302   7.931  0.5551  0.8480  1.9242
   26SM24   H17 3810   0.195   1.412   7.718 -0.1139 -0.0860  0.3901
   26SM24    C9 3811   0.302   1.305   7.866 -0.1336 -0.3921 -0.4506
   26SM24   H18 3812   0.325   1.311   7.971 -0.6172  0.1607 -0.3766
   26SM24   C10 3813   0.361   1.220   7.781 -0.4400 -0.2925  0.3503
   26SM24   H19 3814   0.323   1.219   7.679 -0.8962 -4.1166  0.4843
   26SM24   C11 3815   0.476   1.130   7.795 -0.5595  0.0453 -0.3423
   26SM24   H20 3816   0.447   1.030   7.827  1.0209 -0.0996  0.7073
   26SM24   H21 3817   0.527   1.177   7.879  1.3708  0.3699 -1.6653
   26SM24   C12 3818   0.565   1.136   7.669  0.1165 -0.3441 -0.8094
   26SM24   H22 3819   0.603   1.238   7.669 -0.7819 -0.0083 -0.6252
   26SM24   H23 3820   0.503   1.125   7.580  0.7632  2.5660 -1.6623
   26SM24   C13 3821   0.679   1.030   7.665 -0.3976 -0.2953 -0.5561
   26SM24   H24 3822   0.628   0.934   7.669 -0.5558 -0.3030 -2.4571
   26SM24   H25 3823   0.743   1.037   7.753 -2.0069  1.2949  0.5272
   26SM24   C14 3824   0.762   1.025   7.532 -0.5996 -0.1907  0.1775
   26SM24   H26 3825   0.831   1.108   7.516 -0.4156 -0.6068 -1.1799
   26SM24   H27 3826   0.672   1.028   7.471 -1.5976  3.0066  1.6930
   26SM24   C15 3827   0.839   0.886   7.530  0.0940 -0.1493  1.0920
   26SM24   H28 3828   0.778   0.796   7.521 -1.1950  0.8144 -0.0660
   26SM24   H29 3829   0.890   0.878   7.625  1.1415 -2.9392  0.3522
   26SM24   C16 3830   0.945   0.863   7.425  0.6219  0.0770  0.4200
   26SM24   H30 3831   0.982   0.762   7.446 -0.3527 -0.2812  0.4840
   26SM24   H31 3832   1.026   0.932   7.444  0.4772  0.3697 -0.0175
   26SM24   C17 3833   0.907   0.862   7.276 -0.8402  1.0374  0.4412
   26SM24   H32 3834   0.867   0.954   7.235 -0.3708  0.4733 -1.3279
   26SM24   H33 3835   0.820   0.797   7.271 -2.2224  2.8227  1.0089
   26SM24   C18 3836   1.014   0.820   7.182  0.4236  0.3917 -0.0733
   26SM24   H34 3837   1.076   0.734   7.210  0.9190  0.5875 -0.5573
   26SM24   H34 3838   1.088   0.897   7.160 -0.0996  0.9896  0.2511
   26SM24   C19 3839   0.951   0.778   7.042 -0.1618  0.1782  0.4480
   26SM24   H35 3840   0.890   0.690   7.059 -0.2677 -0.1131 -1.3465
   26SM24   H36 3841   1.032   0.756   6.973 -0.9394 -0.9876 -0.1082
   26SM24   C20 3842   0.861   0.882   6.975  0.3492 -0.1081 -0.6227
   26SM24   H37 3843   0.871   0.975   7.031  1.9842 -0.7512  0.2077
   26SM24   H38 3844   0.757   0.859   6.995  0.7341 -1.1002  0.3212
   26SM24   C21 3845   0.878   0.888   6.825 -0.3120 -0.4797  0.5581
   26SM24   H39 3846   0.792   0.939   6.783  1.6941 -0.0714 -3.2471
   26SM24   H40 3847   0.894   0.784   6.796 -0.4046 -0.0075 -1.2500
   26SM24   C22 3848   1.001   0.970   6.780  0.2744  0.4997  0.3803
   26SM24   H41 3849   1.090   0.943   6.837  1.1107 -1.1924 -1.6524
   26SM24   H42 3850   0.999   1.077   6.798  1.1949  0.5289  0.3348
   26SM24   C23 3851   1.045   0.945   6.634 -0.5580 -0.4641 -0.2111
   26SM24   H43 3852   1.154   0.945   6.633 -0.5456  0.4731  0.1447
   26SM24   H44 3853   1.009   0.848   6.601 -3.6533  0.7840 -0.6768
   26SM24   H45 3854   0.993   1.016   6.569  2.3135 -0.6770 -2.8749
   26SM24   C24 3855   0.092   1.669   7.697 -0.2191 -0.0336 -0.5780
   26SM24   O33 3856   0.181   1.674   7.609  0.1088  0.3330  0.0156
   26SM24   C25 3857   5.914   1.754   7.669 -0.2494  1.0751 -0.1263
   26SM24   H50 3858   5.942   1.856   7.644  1.1755  1.2025  1.8749
   26SM24   H51 3859   5.861   1.753   7.764 -1.4245 -1.3274 -0.7643
   26SM24   C26 3860   5.836   1.685   7.556 -0.3121  0.3242  0.2362
   26SM24   H52 3861   5.796   1.588   7.582  0.3461 -0.2283 -0.7823
   26SM24   H53 3862   5.907   1.652   7.480 -1.5612  2.4209 -1.8983
   26SM24   C27 3863   5.729   1.775   7.499  0.2811 -0.3830  0.2526
   26SM24   H54 3864   5.775   1.856   7.443 -0.7141  2.2402  3.0842
   26SM24   H55 3865   5.666   1.829   7.571 -0.2726 -2.1378  1.1114
   26SM24   C28 3866   5.634   1.704   7.406 -0.6481  0.3960 -0.6906
   26SM24   H56 3867   5.577   1.785   7.361  0.2666  1.3824 -0.0874
   26SM24   H57 3868   5.565   1.642   7.463  0.5919 -0.2569  0.1235
   26SM24   C29 3869   5.695   1.620   7.296 -0.0451 -0.2382  0.2988
   26SM24   H58 3870   5.765   1.552   7.344  0.3721 -1.2926 -1.7459
   26SM24   H59 3871   5.754   1.687   7.233 -0.4616 -1.0419 -0.9646
   26SM24   C30 3872   5.581   1.544   7.213  0.1413 -0.4463  0.5576
   26SM24   H60 3873   5.502   1.615   7.188 -0.2238 -0.1637  2.3938
   26SM24   H61 3874   5.533   1.473   7.281 -0.2153  0.6431  1.4765
   26SM24   C31 3875   5.628   1.466   7.093  0.3104  0.8816 -0.9417
   26SM24   H62 3876   5.539   1.405   7.078  1.5227 -1.3699  0.7175
   26SM24   H63 3877   5.700   1.388   7.120 -1.1756  0.4875  2.0620
   26SM24   C32 3878   5.661   1.550   6.962  0.4935  0.0423 -0.2702
   26SM24   H64 3879   5.750   1.612   6.975 -0.2244  0.8464  0.9589
   26SM24   H65 3880   5.567   1.604   6.948  0.2204 -0.4415 -0.3001
   26SM24   C33 3881   5.672   1.460   6.841 -0.3277  0.0808  0.5740
   26SM24   H66 3882   5.574   1.414   6.823 -0.3565  0.8094 -1.2768
   26SM24   H67 3883   5.735   1.375   6.866  0.6141  0.1009 -1.6181
   26SM24   C34 3884   5.713   1.536   6.715  0.7424  0.0386 -0.3604
   26SM24   H68 3885   5.751   1.636   6.738 -2.6557  1.2042  0.4944
   26SM24   H69 3886   5.630   1.544   6.645 -0.2345  3.1843  1.0719
   26SM24   C35 3887   5.823   1.466   6.638  0.1959 -0.7054  0.3274
   26SM24   H70 3888   5.815   1.358   6.644 -0.9479 -0.5881  0.9199
   26SM24   H71 3889   5.923   1.476   6.682 -0.4808  1.4308  1.4183
   26SM24   C36 3890   5.814   1.511   6.495  0.0608  0.2778 -0.3509
   26SM24   H72 3891   5.836   1.617   6.481  1.1716  0.0113 -0.6953
   26SM24   H73 3892   5.716   1.494   6.450 -1.1809  2.4463  1.4267
   26SM24   C37 3893   5.924   1.435   6.409 -0.6817 -0.3971  0.0951
   26SM24   H74 3894   0.074   1.458   6.447 -1.3206  2.5845  0.0277
   26SM24   H75 3895   5.924   1.471   6.306 -0.4190 -0.9332 -0.0964
   26SM24   C38 3896   5.900   1.283   6.396 -0.3588  1.0584 -0.2518
   26SM24   H76 3897   5.800   1.269   6.354 -0.0451  0.1680 -0.7103
   26SM24   H77 3898   5.893   1.241   6.496 -0.8369  0.9461 -0.3269
   26SM24   C39 3899   0.060   1.211   6.309  0.4484 -0.2270  0.0225
   26SM24   H78 3900   0.086   1.267   6.219 -0.7345 -1.5535 -1.1613
   26SM24   H79 3901   0.011   1.121   6.273 -1.8806  0.9549  0.1413
   26SM24   C40 3902   0.183   1.152   6.381 -0.1575 -0.3025 -0.6668
   26SM24   H80 3903   0.234   1.232   6.437  1.5247 -2.1136  0.4581
   26SM24   H81 3904   0.154   1.084   6.461 -1.5977  2.2606  1.0682
   26SM24   C41 3905   0.283   1.088   6.287  0.1575 -0.2328 -0.1502
   26SM24   H82 3906   0.357   1.033   6.347  1.4911  1.9036  0.2394
   26SM24   H83 3907   0.231   1.018   6.223 -1.5549  1.8013 -1.0085
   26SM24   C42 3908   0.364   1.187   6.202 -0.4767  0.0490  0.0181
   26SM24   H84 3909   0.409   1.250   6.279  1.4762 -1.6025  0.2403
   26SM24   H85 3910   0.310   1.245   6.127  1.3371  1.0703 -0.5289
   26SM24   C43 3911   0.488   1.124   6.137  0.7576  0.5974 -0.0992
   26SM24   H86 3912   0.519   1.039   6.198  3.1011  1.4329 -0.0909
   26SM24   H87 3913   0.569   1.197   6.128  0.1928  1.5521  2.1905
   26SM24   C44 3914   0.464   1.055   6.006  0.2298  0.4532  0.0526
   26SM24   H88 3915   0.559   1.010   5.978  0.0697 -0.6295  1.2121
   26SM24   H89 3916   0.389   0.979   6.026  0.7092  0.7010  3.1142
   26SM24   C45 3917   0.413   1.138   5.882 -0.7742 -0.1629 -0.4934
   26SM24   H90 3918   0.307   1.162   5.887 -0.8918 -0.6305 -0.6423
   26SM24   H91 3919   0.415   1.069   5.797 -0.5581 -0.9310  0.1278
   26SM24   C46 3920   0.502   1.269   5.865 -0.8654  0.1931 -0.6005
   26SM24   H92 3921   0.454   1.332   5.790 -0.9865  1.6694  0.6881
   26SM24   H93 3922   0.493   1.331   5.954 -1.6020 -0.3654 -0.2834
   26SM24   C47 3923   0.649   1.232   5.837  0.8772 -0.3460  0.0813
   26SM24   H94 3924   0.699   1.188   5.923  1.0915 -3.6283 -1.6364
   26SM24   H95 3925   0.655   1.167   5.749  1.3066 -0.6310  0.3225
   26SM24   H96 3926   0.704   1.320   5.803 -0.9346  0.4420 -0.9036
   27SM24    N1 3927   1.767   2.144   8.554 -0.0900  0.4138  0.3368
   27SM24    C1 3928   1.780   2.280   8.478 -0.0653  0.4840 -0.7101
   27SM24    H1 3929   1.779   2.362   8.549  3.6331  0.3274 -0.3512
   27SM24    H2 3930   1.880   2.285   8.434 -0.0546 -2.1368 -1.0517
   27SM24    C2 3931   1.755   2.040   8.454  0.3229 -0.1057 -0.2731
   27SM24    H3 3932   1.836   2.022   8.383  1.6745 -0.7875  1.4016
   27SM24    H4 3933   1.769   1.943   8.503 -0.9262  0.3711  1.0491
   27SM24    H5 3934   1.658   2.040   8.406  0.9362 -0.6406 -1.5578
   27SM24    C3 3935   1.890   2.111   8.642  0.4777  0.3107  0.5678
   27SM24    H6 3936   1.983   2.103   8.585  1.0748  1.1242  1.4061
   27SM24    H7 3937   1.910   2.177   8.727  0.7064  2.0393 -0.7980
   27SM24    H8 3938   1.882   2.013   8.689 -0.3616  0.5855  1.0141
   27SM24    C4 3939   1.659   2.149   8.652  0.1428  0.4671 -0.5629
   27SM24    H9 3940   1.673   2.225   8.730  0.2513 -2.3346  2.2421
   27SM24   H10 3941   1.569   2.173   8.595 -0.8923 -1.2270  0.3101
   27SM24   H11 3942   1.635   2.053   8.697  1.3853  0.2426 -0.3795
   27SM24    C5 3943   1.661   2.325   8.386  0.3502  0.9886  0.1079
   27SM24   H12 3944   1.563   2.341   8.432  0.8265 -2.2367  2.4264
   27SM24   H13 3945   1.631   2.255   8.309  2.2095  0.8034 -0.4645
   27SM24    P1 3946   1.595   2.534   8.253 -0.3885  0.3869  0.3364
   27SM24    O1 3947   1.672   2.643   8.188 -0.2683  0.2085 -0.1390
   27SM24    O2 3948   1.482   2.574   8.331 -1.0202  0.1607  0.1519
   27SM24    O3 3949   1.699   2.441   8.323 -0.6714  0.4484 -0.6329
   27SM24    O4 3950   1.540   2.447   8.129 -0.3521 -0.2036 -0.0517
   27SM24    C6 3951   1.628   2.417   8.026 -0.0922 -0.1513 -0.1078
   27SM24   H14 3952   1.725   2.465   8.036 -0.1519 -0.4136  1.8471
   27SM24   H15 3953   1.644   2.309   8.029 -0.1292 -0.1415  0.5276
   27SM24    C7 3954   1.567   2.466   7.892 -0.1665  0.8824  0.0384
   27SM24   H16 3955   1.475   2.413   7.866  0.8540 -0.0369 -1.7951
   27SM24    N2 3956   1.667   2.436   7.779  0.6640 -1.3040  0.0770
   27SM24    HN 3957   1.698   2.528   7.749  0.6754 -0.9184  1.2238
   27SM24    C8 3958   1.532   2.614   7.887  0.4827 -0.2918 -0.2699
   27SM24   OSM 3959   1.643   2.707   7.914  0.6091 -0.4623 -0.1873
   27SM24   HSM 3960   1.659   2.695   8.007 -0.1230  0.6052  0.0897
   27SM24   H17 3961   1.513   2.640   7.782  0.5609  1.5622  0.1525
   27SM24    C9 3962   1.402   2.666   7.960  0.4746 -0.2923 -0.0676
   27SM24   H18 3963   1.351   2.582   8.005 -0.3967 -1.4434 -3.0771
   27SM24   C10 3964   1.362   2.792   7.968  0.0228  0.6632  0.3348
   27SM24   H19 3965   1.420   2.864   7.913 -0.0505  1.0140  0.7076
   27SM24   C11 3966   1.222   2.844   8.011  0.3212  0.2112  0.0456
   27SM24   H20 3967   1.241   2.891   8.107 -1.6083 -1.9083  1.5064
   27SM24   H21 3968   1.159   2.761   8.044  1.9583 -1.4175 -0.8063
   27SM24   C12 3969   1.166   2.925   7.901  0.0150  0.2103 -0.2212
   27SM24   H22 3970   1.172   2.857   7.817  0.9571  0.1270 -0.0950
   27SM24   H23 3971   1.226   3.011   7.872  0.3207  0.5420  1.3496
   27SM24   C13 3972   1.017   2.966   7.918 -0.0085  0.1047  1.1492
   27SM24   H24 3973   0.998   3.032   8.002  1.2616  2.9192 -0.7174
   27SM24   H25 3974   0.958   2.874   7.925  1.4770 -0.9018  0.8226
   27SM24   C14 3975   0.948   3.021   7.790  0.3068  0.2876 -0.6293
   27SM24   H26 3976   1.006   3.111   7.768  0.2651  0.6590  0.7657
   27SM24   H27 3977   0.845   3.047   7.811  0.2818  0.4917 -0.9932
   27SM24   C15 3978   0.950   2.943   7.655  0.0183  0.1914  0.1139
   27SM24   H28 3979   1.050   2.932   7.611 -0.8037  0.6909 -1.9660
   27SM24   H29 3980   0.904   3.003   7.576 -0.3422 -0.4263 -0.1505
   27SM24   C16 3981   0.893   2.797   7.667  0.1701 -0.2208  0.1724
   27SM24   H30 3982   0.785   2.799   7.675 -0.0005 -2.1095 -1.2286
   27SM24   H31 3983   0.939   2.759   7.758  0.2572  0.8962  0.6005
   27SM24   C17 3984   0.926   2.703   7.554 -0.1707  0.6117 -0.4752
   27SM24   H32 3985   1.033   2.684   7.548  0.1342  1.7538  1.0547
   27SM24   H33 3986   0.894   2.738   7.456  0.8187  1.2659 -0.5795
   27SM24   C18 3987   0.864   2.563   7.568  0.2773  0.0518 -0.0249
   27SM24   H34 3988   0.756   2.568   7.575  0.2665 -1.1583  0.8622
   27SM24   H34 3989   0.897   2.513   7.660 -2.2783  0.5286  1.1905
   27SM24   C19 3990   0.897   2.472   7.447 -0.5438 -0.7185 -0.0931
   27SM24   H35 3991   1.002   2.491   7.428 -0.2010 -1.6573  0.8198
   27SM24   H36 3992   0.847   2.510   7.358 -3.8121  0.3534  2.0900
   27SM24   C20 3993   0.874   2.331   7.494  0.5078  0.2929  0.7499
   27SM24   H37 3994   0.936   2.306   7.580  0.4401 -1.5283  0.2777
   27SM24   H38 3995   0.922   2.269   7.418 -0.9242  0.1640 -0.0692
   27SM24   C21 3996   0.726   2.283   7.498  0.0449  0.0581 -0.7383
   27SM24   H39 3997   0.670   2.343   7.570  1.5181  3.1659 -2.0978
   27SM24   H40 3998   0.716   2.181   7.535  0.7862  0.3748  0.3331
   27SM24   C22 3999   0.654   2.288   7.361  0.1679 -0.3532 -0.6597
   27SM24   H41 4000   0.730   2.289   7.284  0.6421  1.3288 -0.1875
   27SM24   H42 4001   0.614   2.389   7.354  2.0178  0.5448  1.1159
   27SM24   C23 4002   0.542   2.196   7.333 -0.3386  0.7253 -0.2203
   27SM24   H43 4003   0.546   2.123   7.414  2.4606  0.4090 -0.5916
   27SM24   H44 4004   0.444   2.240   7.349  0.7879  2.1637  3.2296
   27SM24   H45 4005   0.534   2.152   7.234 -1.2937 -1.3899  0.7754
   27SM24   C24 4006   1.720   2.313   7.747  0.9709 -0.1637  0.8642
   27SM24   O33 4007   1.691   2.210   7.817 -0.4607  0.1642 -0.2938
   27SM24   C25 4008   1.831   2.301   7.652 -0.7969  0.2309 -0.3425
   27SM24   H50 4009   1.885   2.207   7.661  0.0971  0.9447  2.2798
   27SM24   H51 4010   1.904   2.376   7.684 -0.1347 -0.0463 -1.1992
   27SM24   C26 4011   1.790   2.324   7.508 -0.1277 -0.2901  0.4459
   27SM24   H52 4012   1.885   2.327   7.455 -1.5460  0.6147 -2.1511
   27SM24   H53 4013   1.741   2.421   7.503 -0.2268 -0.3478  0.2682
   27SM24   C27 4014   1.713   2.212   7.435 -0.2172  0.6733  0.0983
   27SM24   H54 4015   1.620   2.177   7.480  0.1164  0.2403  0.4621
   27SM24   H55 4016   1.771   2.120   7.431 -1.6729 -0.2507 -0.4901
   27SM24   C28 4017   1.675   2.247   7.287  0.0122 -0.2306  0.2987
   27SM24   H56 4018   1.764   2.251   7.224  0.5849  0.8840  1.1578
   27SM24   H57 4019   1.618   2.340   7.288  0.9222  0.3281  1.9279
   27SM24   C29 4020   1.595   2.136   7.224 -0.3113 -0.5097  0.1105
   27SM24   H58 4021   1.505   2.122   7.284 -0.4803 -0.8141 -0.2142
   27SM24   H59 4022   1.654   2.046   7.239  1.5610  0.7140  0.3039
   27SM24   C30 4023   1.569   2.149   7.079 -0.0429  0.0622 -0.5965
   27SM24   H60 4024   1.672   2.158   7.044  1.0956  0.3893  2.6231
   27SM24   H61 4025   1.529   2.248   7.056 -1.5410 -0.8237 -1.8727
   27SM24   C31 4026   1.490   2.032   7.021  0.4997  0.3508 -0.3915
   27SM24   H62 4027   1.417   2.011   7.099  1.9512  2.9503  1.7481
   27SM24   H63 4028   1.553   1.944   7.013 -0.5945 -0.3288 -1.7879
   27SM24   C32 4029   1.413   2.053   6.883  0.1098  0.3568 -0.2200
   27SM24   H64 4030   1.362   2.149   6.885  0.6708  0.6454  0.8482
   27SM24   H65 4031   1.333   1.978   6.880  1.0143 -0.6504  0.5067
   27SM24   C33 4032   1.508   2.039   6.764 -0.7547 -0.9225 -0.1969
   27SM24   H66 4033   1.537   1.934   6.761 -0.6179 -0.8584 -2.0152
   27SM24   H67 4034   1.602   2.093   6.777 -1.6682  0.5960  0.1963
   27SM24   C34 4035   1.436   2.070   6.634 -0.5351  0.1662 -0.0756
   27SM24   H68 4036   1.338   2.022   6.641 -0.1531 -0.8618 -1.5876
   27SM24   H69 4037   1.484   2.029   6.545 -1.4841  1.9101 -1.4398
   27SM24   C35 4038   1.441   2.214   6.605 -0.0272  0.4565  0.4006
   27SM24   H70 4039   1.370   2.263   6.672  0.2812 -1.0070  1.8353
   27SM24   H71 4040   1.398   2.231   6.506 -1.1917  2.0140  1.1562
   27SM24   C36 4041   1.571   2.291   6.604 -0.3698  0.1255 -0.2513
   27SM24   H72 4042   1.611   2.315   6.703  0.6011  1.7735 -1.0246
   27SM24   H73 4043   1.547   2.391   6.567 -2.0575 -0.1702  0.0074
   27SM24   C37 4044   1.670   2.218   6.514 -0.4932  0.1039 -0.7764
   27SM24   H74 4045   1.622   2.190   6.420 -0.5625 -0.5384 -0.5551
   27SM24   H75 4046   1.702   2.120   6.550 -0.3193  1.2109  2.2837
   27SM24   C38 4047   1.798   2.291   6.500 -0.3800  0.5091 -0.6321
   27SM24   H76 4048   1.854   2.287   6.594 -1.0309  0.5595 -0.2366
   27SM24   H77 4049   1.789   2.397   6.477 -0.6861  0.9315  1.3068
   27SM24   C39 4050   1.881   2.231   6.381  0.0840  0.1904  0.1934
   27SM24   H78 4051   1.815   2.233   6.294  1.4152  2.0921 -0.8200
   27SM24   H79 4052   1.884   2.123   6.396  1.2347  0.4941  2.2530
   27SM24   C40 4053   2.009   2.307   6.363  0.1415  0.4446  0.0003
   27SM24   H80 4054   1.995   2.415   6.372 -2.0929  0.6187 -4.1176
   27SM24   H81 4055   2.078   2.272   6.439  0.6636  0.1573 -0.5955
   27SM24   C41 4056   2.070   2.279   6.229 -0.3565  0.3325 -0.9243
   27SM24   H82 4057   2.082   2.170   6.224  1.3278  0.4954 -0.4179
   27SM24   H83 4058   1.994   2.294   6.151  0.1316  0.8525 -1.2988
   27SM24   C42 4059   2.204   2.342   6.194 -0.3851  0.3234  0.5412
   27SM24   H84 4060   2.274   2.320   6.274  0.5739  3.6079  0.6675
   27SM24   H85 4061   2.194   2.451   6.198 -2.4279  0.1115  2.6893
   27SM24   C43 4062   2.247   2.296   6.055  0.5394  0.5063 -0.5354
   27SM24   H86 4063   2.291   2.196   6.067 -1.6333 -0.2911  1.1250
   27SM24   H87 4064   2.326   2.361   6.017  1.9056  0.3408  1.8828
   27SM24   C44 4065   2.141   2.285   5.941 -0.1935 -0.2697 -0.1220
   27SM24   H88 4066   2.077   2.197   5.946 -0.4766 -0.0037  1.0132
   27SM24   H89 4067   2.066   2.363   5.954  2.3167  2.2245  0.0126
   27SM24   C45 4068   2.218   2.290   5.804 -0.5331  0.3219 -0.3506
   27SM24   H90 4069   2.295   2.213   5.804  0.0887  0.9375 -1.3763
   27SM24   H91 4070   2.276   2.382   5.796  0.1960  0.0166  1.1296
   27SM24   C46 4071   2.125   2.267   5.689  1.0069  0.5415  0.5667
   27SM24   H92 4072   2.073   2.175   5.716 -0.8386  1.2955 -0.3052
   27SM24   H93 4073   2.055   2.351   5.678 -0.2029 -0.4464  0.5800
   27SM24   C47 4074   2.200   2.243   5.565  0.2507  0.4167  0.7027
   27SM24   H94 4075   2.256   2.335   5.547  2.6186 -0.9206  1.0157
   27SM24   H95 4076   2.267   2.158   5.574  1.6559  1.3749 -0.6236
   27SM24   H96 4077   2.130   2.223   5.484 -0.2121 -0.4229  1.3000
   28SM24    N1 4078   2.189   3.481   8.456  0.5342 -0.0985  0.5665
   28SM24    C1 4079   2.092   3.570   8.380 -0.1536  0.2732 -0.8276
   28SM24    H1 4080   1.993   3.539   8.412  1.3796 -1.0020  3.0283
   28SM24    H2 4081   2.104   3.671   8.418  1.4973 -0.3055  0.2749
   28SM24    C2 4082   2.141   3.458   8.594 -0.4446  0.1035 -0.2083
   28SM24    H3 4083   2.145   3.550   8.652  0.4897 -1.6424  2.5950
   28SM24    H4 4084   2.039   3.420   8.590  0.2859 -1.9431 -0.2737
   28SM24    H5 4085   2.209   3.389   8.645  0.2373  1.9548  1.4549
   28SM24    C3 4086   2.191   3.338   8.391  0.4049  0.5042 -0.6759
   28SM24    H6 4087   2.227   3.252   8.448 -0.1027  2.0409  2.0886
   28SM24    H7 4088   2.091   3.299   8.371 -0.3570  1.4096  1.2076
   28SM24    H8 4089   2.236   3.334   8.292  0.6348 -2.7614 -0.5057
   28SM24    C4 4090   2.325   3.540   8.461 -0.4039  0.0112 -0.1321
   28SM24    H9 4091   2.331   3.641   8.504 -0.5391 -0.1605  0.2927
   28SM24   H10 4092   2.396   3.475   8.512  1.0665  1.0063 -0.8543
   28SM24   H11 4093   2.370   3.563   8.365  1.3908  2.2399  1.1775
   28SM24    C5 4094   2.091   3.565   8.224 -0.0393  0.5984 -0.1046
   28SM24   H12 4095   2.054   3.470   8.184  0.0938 -0.1726  1.5467
   28SM24   H13 4096   2.195   3.586   8.200  0.1926 -0.9019 -0.4945
   28SM24    P1 4097   1.913   3.666   8.058 -0.0507  0.2816 -0.1998
   28SM24    O1 4098   1.836   3.792   8.061  0.1170 -0.2314  0.0316
   28SM24    O2 4099   1.851   3.531   8.045 -0.1418  0.5051  0.7889
   28SM24    O3 4100   2.004   3.665   8.192 -0.3361 -0.1842 -0.4660
   28SM24    O4 4101   2.000   3.682   7.925 -0.3589  0.6136  0.1585
   28SM24    C6 4102   2.083   3.571   7.883  0.6155  0.1939 -0.2707
   28SM24   H14 4103   2.160   3.620   7.823 -0.7835  1.3654 -1.1541
   28SM24   H15 4104   2.120   3.524   7.974 -1.4974  0.0102  0.5127
   28SM24    C7 4105   2.006   3.468   7.791  0.2703 -0.0985 -0.6634
   28SM24   H16 4106   1.924   3.418   7.842  1.3906  1.5228  2.8912
   28SM24    N2 4107   2.098   3.356   7.748  0.0459  0.1206 -1.0215
   28SM24    HN 4108   2.069   3.259   7.755  0.6555  0.1967  3.9572
   28SM24    C8 4109   1.943   3.531   7.667 -0.4531  0.0121  0.2638
   28SM24   OSM 4110   2.021   3.602   7.579  0.5578 -0.7736  0.2002
   28SM24   HSM 4111   2.099   3.549   7.577  0.4859 -0.9068  0.8817
   28SM24   H17 4112   1.929   3.445   7.601  3.5895 -2.3569  2.3544
   28SM24    C9 4113   1.821   3.609   7.697  0.0820 -0.1270 -0.2801
   28SM24   H18 4114   1.820   3.691   7.767  0.8607  0.1748 -0.6116
   28SM24   C10 4115   1.700   3.601   7.632 -0.3018  0.2679 -0.4087
   28SM24   H19 4116   1.682   3.534   7.549  0.9239 -0.4093 -0.1541
   28SM24   C11 4117   1.567   3.665   7.667 -0.0907 -0.0310 -0.6738
   28SM24   H20 4118   1.582   3.744   7.741 -2.0439 -0.3949  0.1531
   28SM24   H21 4119   1.503   3.593   7.718 -1.8062  2.2104  0.3941
   28SM24   C12 4120   1.494   3.707   7.544  0.6072  0.2275  0.2020
   28SM24   H22 4121   1.508   3.631   7.467 -0.7638  0.6790 -0.5069
   28SM24   H23 4122   1.542   3.794   7.498 -2.8185  2.4286  0.6196
   28SM24   C13 4123   1.342   3.742   7.550  0.3244 -0.1887  0.0834
   28SM24   H24 4124   1.327   3.832   7.610  0.8142 -0.5291  0.7083
   28SM24   H25 4125   1.289   3.664   7.605 -3.5205  0.6197 -2.2417
   28SM24   C14 4126   1.277   3.768   7.410 -0.0170 -0.1836  0.2685
   28SM24   H26 4127   1.169   3.761   7.420 -0.0745  0.5331  0.1606
   28SM24   H27 4128   1.304   3.685   7.344 -0.5935  0.8655 -1.3293
   28SM24   C15 4129   1.323   3.901   7.352 -0.5065 -0.0235 -0.7754
   28SM24   H28 4130   1.430   3.905   7.333 -0.0364 -0.4761  1.5992
   28SM24   H29 4131   1.287   3.985   7.411  0.3616 -1.0850  1.3254
   28SM24   C16 4132   1.260   3.911   7.211  0.0531  0.7805  0.4434
   28SM24   H30 4133   1.153   3.900   7.231 -0.2860  1.5679 -0.9264
   28SM24   H31 4134   1.280   3.827   7.145 -0.9350  2.5389 -2.1486
   28SM24   C17 4135   1.273   4.053   7.151  0.7100 -0.6658  0.3662
   28SM24   H32 4136   1.375   4.090   7.139  0.3264  1.0673  2.0690
   28SM24   H33 4137   1.239   4.128   7.224 -1.3783 -1.2787  0.0480
   28SM24   C18 4138   1.199   4.061   7.015 -0.3182  0.2192 -0.4303
   28SM24   H34 4139   1.257   3.989   6.956  2.0174 -0.6888  2.8284
   28SM24   H34 4140   1.212   4.155   6.961 -0.7300  0.3101 -0.3715
   28SM24   C19 4141   1.061   3.993   7.019 -0.2859  0.2642  0.3087
   28SM24   H35 4142   1.000   4.043   7.094  0.6087  0.1867  1.0928
   28SM24   H36 4143   1.061   3.889   7.051 -1.8602 -0.3335 -1.4866
   28SM24   C20 4144   0.982   4.013   6.890  0.4525  0.5612  0.1615
   28SM24   H37 4145   0.980   4.119   6.865 -3.9017  0.3690 -0.7364
   28SM24   H38 4146   0.877   3.989   6.910  1.0567 -1.4848  1.0153
   28SM24   C21 4147   1.012   3.913   6.777 -0.2309 -0.6169  0.2333
   28SM24   H39 4148   1.013   3.814   6.822 -1.2224 -0.4939  0.5439
   28SM24   H40 4149   1.114   3.938   6.748  0.4206 -2.9746  0.4514
   28SM24   C22 4150   0.920   3.917   6.656  0.4584 -0.5971 -0.2832
   28SM24   H41 4151   0.821   3.877   6.676  0.7196 -0.6638  0.9208
   28SM24   H42 4152   0.957   3.848   6.580 -0.8948 -0.1039 -1.3977
   28SM24   C23 4153   0.924   4.058   6.594 -0.1451 -0.3272 -0.1015
   28SM24   H43 4154   0.856   4.131   6.636 -0.9132 -1.2910  0.3524
   28SM24   H44 4155   1.030   4.085   6.588 -0.6802  1.7394 -0.3043
   28SM24   H45 4156   0.900   4.057   6.487 -1.3903  0.7662  0.1611
   28SM24   C24 4157   2.215   3.371   7.692 -0.1744  0.0178  0.2927
   28SM24   O33 4158   2.245   3.481   7.637  0.5069  0.1334 -0.0714
   28SM24   C25 4159   2.312   3.249   7.676 -0.8294  0.2139  0.5600
   28SM24   H50 4160   2.269   3.175   7.608 -2.5147  1.8508 -0.1792
   28SM24   H51 4161   2.333   3.199   7.771  1.4106 -0.4328 -0.2310
   28SM24   C26 4162   2.453   3.288   7.621  0.3896 -0.2741  0.1641
   28SM24   H52 4163   2.498   3.365   7.683  0.1949 -0.1236  0.1225
   28SM24   H53 4164   2.435   3.339   7.526  0.7860 -2.2889 -1.0296
   28SM24   C27 4165   2.546   3.173   7.591  0.2827  0.1895 -0.1198
   28SM24   H54 4166   2.493   3.103   7.527 -1.6759  0.9260  0.6717
   28SM24   H55 4167   2.552   3.122   7.687  1.5170  1.1644  0.3365
   28SM24   C28 4168   2.676   3.206   7.525  0.3759 -0.4900  0.5151
   28SM24   H56 4169   2.742   3.122   7.549 -0.0095 -0.7437  0.7060
   28SM24   H57 4170   2.724   3.289   7.577 -0.0099  0.7770 -1.1233
   28SM24   C29 4171   2.669   3.238   7.377 -0.5956  0.3681 -0.1459
   28SM24   H58 4172   2.599   3.320   7.366 -0.9932  0.0779  0.1950
   28SM24   H59 4173   2.631   3.156   7.315 -0.0501 -0.3188  0.4241
   28SM24   C30 4174   2.806   3.283   7.316  0.2784  0.4254  0.4690
   28SM24   H60 4175   2.889   3.225   7.357 -0.9484 -1.1140  0.8178
   28SM24   H61 4176   2.814   3.388   7.343  0.5026  0.0610  1.8952
   28SM24   C31 4177   2.815   3.269   7.166 -0.2460 -0.0819  0.6864
   28SM24   H62 4178   2.814   3.162   7.147  2.8643  0.1066 -0.8105
   28SM24   H63 4179   2.914   3.296   7.129  0.8347 -3.1742  1.2103
   28SM24   C32 4180   2.695   3.340   7.097 -0.4146  0.2179  0.1402
   28SM24   H64 4181   2.680   3.434   7.151  2.6952  0.3541  0.8457
   28SM24   H65 4182   2.602   3.286   7.109  1.1373 -2.2866  1.1511
   28SM24   C33 4183   2.723   3.365   6.951 -0.3708  0.0735 -0.4275
   28SM24   H66 4184   2.689   3.285   6.885  4.6415 -0.6671 -2.3138
   28SM24   H67 4185   2.829   3.377   6.928  0.4884  1.0400  3.6169
   28SM24   C34 4186   2.658   3.496   6.903 -0.2081 -0.4588  0.2239
   28SM24   H68 4187   2.654   3.577   6.976  0.3830 -0.9985  0.8541
   28SM24   H69 4188   2.553   3.468   6.911 -0.3752 -0.1478 -0.7157
   28SM24   C35 4189   2.704   3.547   6.770  0.2165 -0.8506 -0.0660
   28SM24   H70 4190   2.750   3.472   6.707  0.5429 -2.3115  1.8521
   28SM24   H71 4191   2.780   3.623   6.789 -0.7075  0.3510 -1.0421
   28SM24   C36 4192   2.607   3.628   6.679 -0.8796  0.2511 -0.3008
   28SM24   H72 4193   2.564   3.715   6.727 -0.5054  0.4429 -0.3112
   28SM24   H73 4194   2.520   3.566   6.655 -0.6929 -0.3898  0.6833
   28SM24   C37 4195   2.688   3.679   6.557 -0.3188  0.4023 -0.3494
   28SM24   H74 4196   2.728   3.604   6.489  1.0414  0.5621  0.2364
   28SM24   H75 4197   2.780   3.728   6.590  0.7635 -1.9314  0.2346
   28SM24   C38 4198   2.617   3.779   6.465 -0.0278 -0.0057  0.4567
   28SM24   H76 4199   2.559   3.851   6.523 -0.1835  0.7969 -0.6702
   28SM24   H77 4200   2.540   3.734   6.403  0.3489  0.1575 -0.1335
   28SM24   C39 4201   2.714   3.857   6.360 -0.6954 -0.1084  0.2938
   28SM24   H78 4202   2.801   3.898   6.411  1.5509 -0.5937 -2.9924
   28SM24   H79 4203   2.653   3.939   6.322  2.3981  1.5705 -1.2894
   28SM24   C40 4204   2.784   3.768   6.251 -0.7345 -0.3407 -0.0907
   28SM24   H80 4205   2.865   3.715   6.302 -1.1915 -0.3052  0.6819
   28SM24   H81 4206   2.719   3.698   6.199  0.8473 -1.5750 -0.4556
   28SM24   C41 4207   2.840   3.852   6.138  0.9012  0.2987 -0.2785
   28SM24   H82 4208   2.768   3.906   6.076  0.4459  0.0362  0.0245
   28SM24   H83 4209   2.905   3.927   6.183 -0.0451  1.7446 -1.2533
   28SM24   C42 4210   2.917   3.768   6.033 -0.5952  0.2873 -0.0118
   28SM24   H84 4211   2.849   3.693   5.991  0.5240 -1.4652  1.2085
   28SM24   H85 4212   2.982   3.707   6.096 -0.3971  0.0651 -0.4305
   28SM24   C43 4213   3.003   3.849   5.934  0.8067  0.5958  0.8453
   28SM24   H86 4214   3.071   3.778   5.887 -0.0688  1.0502 -1.1771
   28SM24   H87 4215   3.062   3.921   5.992  1.5350  1.3041 -0.7217
   28SM24   C44 4216   2.924   3.909   5.826 -0.3021  0.1077  1.3017
   28SM24   H88 4217   2.868   3.826   5.782  0.2755  1.6212 -2.5371
   28SM24   H89 4218   2.848   3.979   5.860 -0.7003 -0.4584  1.5910
   28SM24   C45 4219   3.003   3.963   5.705  0.1794  0.2586  0.2457
   28SM24   H90 4220   2.940   4.008   5.629 -1.4890 -2.9214 -0.3368
   28SM24   H91 4221   3.053   3.877   5.661  1.1837  0.3674  1.1379
   28SM24   C46 4222   3.113   4.066   5.737  0.6148  0.2055 -0.0822
   28SM24   H92 4223   3.087   4.146   5.807 -0.4758 -0.8352  0.7243
   28SM24   H93 4224   3.190   4.009   5.788 -0.0802 -0.7660 -0.1128
   28SM24   C47 4225   3.169   4.133   5.611  0.2204  0.0681  0.6722
   28SM24   H94 4226   3.211   4.063   5.539 -2.4115 -0.5775 -0.3180
   28SM24   H95 4227   3.088   4.188   5.564  1.6781  2.1148  0.5047
   28SM24   H96 4228   3.244   4.205   5.641  0.4502  1.0967 -2.2578
   29SM24    N1 4229   1.216   5.645   7.944  0.1122  0.1135  0.4686
   29SM24    C1 4230   1.337   5.562   7.973  0.9532 -0.6673  0.3286
   29SM24    H1 4231   1.381   5.544   7.875  1.0698  1.4218 -0.0241
   29SM24    H2 4232   1.412   5.616   8.031  1.7544 -0.5540 -0.7948
   29SM24    C2 4233   1.136   5.588   7.830  0.0029  0.2182 -0.1279
   29SM24    H3 4234   1.192   5.593   7.737 -0.4256  2.3254 -0.2924
   29SM24    H4 4235   1.115   5.481   7.825  1.5137 -0.1024 -0.1417
   29SM24    H5 4236   1.040   5.636   7.815  0.2571  0.5265 -0.7797
   29SM24    C3 4237   1.123   5.660   8.059 -0.1063  0.4693 -0.1929
   29SM24    H6 4238   1.169   5.694   8.151 -0.5570  1.8539 -0.4644
   29SM24    H7 4239   1.041   5.730   8.044 -1.5429 -1.2004 -0.3129
   29SM24    H8 4240   1.079   5.561   8.069  0.5815  0.2577  0.7447
   29SM24    C4 4241   1.263   5.777   7.899  0.1073  0.1862  0.6366
   29SM24    H9 4242   1.182   5.836   7.855  1.2721  0.4531 -1.2027
   29SM24   H10 4243   1.312   5.831   7.981  0.3073  0.2446  0.4798
   29SM24   H11 4244   1.329   5.762   7.814  0.7224 -0.4339  1.2146
   29SM24    C5 4245   1.310   5.426   8.047  0.5158 -0.5484  0.3022
   29SM24   H12 4246   1.249   5.360   7.985  2.1867 -0.5278 -1.4118
   29SM24   H13 4247   1.264   5.426   8.146  0.0299 -1.2898  0.0819
   29SM24    P1 4248   1.434   5.194   8.049 -0.2015 -0.0475  0.2800
   29SM24    O1 4249   1.307   5.137   8.106 -0.4847  0.1094 -0.1626
   29SM24    O2 4250   1.562   5.139   8.096 -0.2724  0.3155 -0.3749
   29SM24    O3 4251   1.434   5.356   8.064 -0.7095 -0.4668 -0.2195
   29SM24    O4 4252   1.439   5.181   7.891 -0.0082 -0.5901  0.3488
   29SM24    C6 4253   1.551   5.226   7.822 -0.4590 -0.4846  0.3307
   29SM24   H14 4254   1.596   5.316   7.863  1.5272 -0.5287 -1.6755
   29SM24   H15 4255   1.630   5.152   7.837  0.0316 -0.0025  0.1228
   29SM24    C7 4256   1.521   5.249   7.670  0.7936  0.3119  0.2094
   29SM24   H16 4257   1.483   5.150   7.642  0.2206 -0.5588  3.8775
   29SM24    N2 4258   1.647   5.282   7.598  0.6010  0.1198  0.3775
   29SM24    HN 4259   1.652   5.369   7.548  0.4029 -0.4758 -0.6899
   29SM24    C8 4260   1.419   5.355   7.621 -0.1472 -0.3499  0.0490
   29SM24   OSM 4261   1.452   5.483   7.665  0.1587 -0.4464 -0.1010
   29SM24   HSM 4262   1.545   5.500   7.661  0.4676 -2.1589 -0.3985
   29SM24   H17 4263   1.438   5.375   7.515  1.7541  0.0281  0.4332
   29SM24    C9 4264   1.269   5.319   7.632 -0.1711  0.7753 -0.8015
   29SM24   H18 4265   1.236   5.253   7.711  1.1729  0.4387 -0.5017
   29SM24   C10 4266   1.174   5.356   7.540 -0.1604 -0.1659 -0.9742
   29SM24   H19 4267   1.202   5.418   7.456  1.0923  0.9432  0.2291
   29SM24   C11 4268   1.033   5.314   7.537  0.7237  0.1562 -0.9043
   29SM24   H20 4269   1.015   5.240   7.616  0.8943 -0.9279 -1.8632
   29SM24   H21 4270   1.018   5.261   7.443  1.9182 -1.3526 -0.2738
   29SM24   C12 4271   0.927   5.430   7.541 -0.4587 -0.4031 -0.1924
   29SM24   H22 4272   0.945   5.492   7.453 -1.1822  1.1433  0.7362
   29SM24   H23 4273   0.937   5.493   7.629  0.8128 -1.4823  0.4416
   29SM24   C13 4274   0.779   5.390   7.526 -0.1068 -0.4658  0.3022
   29SM24   H24 4275   0.739   5.355   7.622  2.0165  0.1985  1.4558
   29SM24   H25 4276   0.773   5.308   7.455 -2.0157  2.3829 -2.9326
   29SM24   C14 4277   0.695   5.512   7.482  0.0598 -0.9641 -0.1314
   29SM24   H26 4278   0.742   5.563   7.398  2.1062 -0.1589  1.4362
   29SM24   H27 4279   0.680   5.593   7.554 -1.8972 -1.4174  0.0029
   29SM24   C15 4280   0.555   5.471   7.447  0.0633 -0.2826  0.4027
   29SM24   H28 4281   0.526   5.417   7.537 -0.2434  0.4908  0.7741
   29SM24   H29 4282   0.550   5.394   7.370 -1.4830 -2.9236  3.0502
   29SM24   C16 4283   0.460   5.586   7.422  0.4877  0.0257 -0.0625
   29SM24   H30 4284   0.473   5.679   7.477 -2.1386  0.0576  0.5738
   29SM24   H31 4285   0.368   5.536   7.453  0.9169  0.5963  2.2570
   29SM24   C17 4286   0.442   5.620   7.273 -0.1103  0.9438 -0.3040
   29SM24   H32 4287   0.398   5.531   7.228  1.7191  0.3809 -1.0395
   29SM24   H33 4288   0.542   5.630   7.229  0.8406  1.2664  1.8634
   29SM24   C18 4289   0.355   5.744   7.246 -0.1849  0.0440 -0.1429
   29SM24   H34 4290   0.400   5.826   7.303 -1.7042  0.8565 -0.1010
   29SM24   H34 4291   0.257   5.732   7.291 -0.2632  0.4491 -0.2023
   29SM24   C19 4292   0.338   5.789   7.101 -0.2052  0.2749 -0.0094
   29SM24   H35 4293   0.434   5.810   7.053  0.7097 -1.1499  1.1715
   29SM24   H36 4294   0.287   5.885   7.104  0.0164  0.3473  1.8075
   29SM24   C20 4295   0.265   5.684   7.010 -0.1690 -0.9569 -0.0183
   29SM24   H37 4296   0.170   5.669   7.062 -0.3304 -1.0151 -0.3279
   29SM24   H38 4297   0.312   5.585   7.010 -0.2240 -0.9844 -0.3016
   29SM24   C21 4298   0.251   5.734   6.861  0.3818  0.5254 -1.0017
   29SM24   H39 4299   0.347   5.760   6.816  0.6301  1.6523  0.1164
   29SM24   H40 4300   0.184   5.819   6.862 -0.9712 -0.4355  3.5009
   29SM24   C22 4301   0.182   5.619   6.784  0.2379 -0.2759  0.0229
   29SM24   H41 4302   0.083   5.601   6.826 -0.3140  0.5552 -0.8844
   29SM24   H42 4303   0.234   5.524   6.767  2.3127  0.9228 -0.5152
   29SM24   C23 4304   0.143   5.663   6.640 -0.4584  0.0775  0.4206
   29SM24   H43 4305   0.233   5.671   6.579  1.8209  1.1608  3.7358
   29SM24   H44 4306   0.089   5.589   6.583  2.7707 -1.5714 -0.6495
   29SM24   H45 4307   0.098   5.762   6.645  0.2262  0.4780 -1.1597
   29SM24   C24 4308   1.752   5.206   7.579 -0.3655 -0.1340 -0.3186
   29SM24   O33 4309   1.775   5.087   7.624  0.5499 -0.2435  0.1826
   29SM24   C25 4310   1.852   5.250   7.472  0.0481 -0.1160 -0.2821
   29SM24   H50 4311   1.953   5.222   7.502  0.5494 -0.0736 -1.8884
   29SM24   H51 4312   1.846   5.358   7.460  0.8011  0.0917  1.1978
   29SM24   C26 4313   1.850   5.179   7.338  0.6094 -0.3696 -0.0258
   29SM24   H52 4314   1.749   5.176   7.297  0.9076  2.2648 -1.0589
   29SM24   H53 4315   1.860   5.071   7.347 -1.2889 -0.4015  2.1276
   29SM24   C27 4316   1.957   5.219   7.239  0.1839 -0.6218 -0.1352
   29SM24   H54 4317   1.971   5.142   7.164  0.1711 -0.0472 -0.7245
   29SM24   H55 4318   2.054   5.232   7.287 -0.9116  2.2449  1.3976
   29SM24   C28 4319   1.923   5.351   7.167 -0.4734  0.1835  0.2397
   29SM24   H56 4320   1.901   5.428   7.241 -3.6596 -2.8902  2.6871
   29SM24   H57 4321   1.831   5.325   7.114 -0.7766  1.6412  0.0228
   29SM24   C29 4322   2.029   5.385   7.067 -0.7095 -0.0960  0.3855
   29SM24   H58 4323   2.085   5.299   7.031  0.4156  0.6340  0.3783
   29SM24   H59 4324   2.107   5.444   7.114 -2.5730  5.2029 -2.6485
   29SM24   C30 4325   1.976   5.459   6.951  0.2815 -0.4627  0.2314
   29SM24   H60 4326   2.047   5.534   6.916 -1.0540  0.6224 -0.1977
   29SM24   H61 4327   1.905   5.527   6.999  0.2191 -1.2162  1.2325
   29SM24   C31 4328   1.910   5.376   6.842  0.0402  0.0621 -0.1289
   29SM24   H62 4329   1.828   5.319   6.886 -1.3065  1.0848 -1.2567
   29SM24   H63 4330   1.989   5.309   6.807 -2.1337 -2.0577 -1.1566
   29SM24   C32 4331   1.835   5.452   6.719 -0.5148  0.2217  0.1426
   29SM24   H64 4332   1.752   5.507   6.762 -0.4884  0.0366  0.4370
   29SM24   H65 4333   1.792   5.383   6.647 -2.0491  2.1796 -0.8715
   29SM24   C33 4334   1.914   5.562   6.647  0.1177 -0.4992  0.4097
   29SM24   H66 4335   1.966   5.623   6.722  1.3167 -1.2498  0.2118
   29SM24   H67 4336   1.836   5.622   6.602  0.9446 -0.5089 -1.0841
   29SM24   C34 4337   2.007   5.523   6.528 -0.2939  0.2536  1.1555
   29SM24   H68 4338   2.074   5.439   6.544 -0.6708 -0.5071 -1.1173
   29SM24   H69 4339   2.082   5.601   6.510 -1.8190  1.7546  1.1432
   29SM24   C35 4340   1.921   5.480   6.405 -0.0309  0.2324 -0.3001
   29SM24   H70 4341   1.884   5.572   6.360 -0.2557  0.1669 -0.2531
   29SM24   H71 4342   1.835   5.419   6.432  0.2853  0.0177  0.2294
   29SM24   C36 4343   1.995   5.402   6.296  0.2080 -0.2142  0.3153
   29SM24   H72 4344   2.004   5.301   6.335  0.6999 -0.4858 -0.4981
   29SM24   H73 4345   2.095   5.423   6.260  0.3366  2.4729  2.1103
   29SM24   C37 4346   1.910   5.381   6.170  0.0799 -0.7575 -0.0168
   29SM24   H74 4347   1.814   5.342   6.203  0.0401  0.4331  1.3222
   29SM24   H75 4348   1.959   5.301   6.115  1.0607  0.1082 -0.4290
   29SM24   C38 4349   1.909   5.506   6.072  0.1212 -0.1722 -0.1211
   29SM24   H76 4350   2.009   5.544   6.051 -0.6016  1.6803 -0.2507
   29SM24   H77 4351   1.860   5.588   6.124  0.8501  1.1382 -1.4435
   29SM24   C39 4352   1.839   5.481   5.941 -0.1974  0.4599 -0.7811
   29SM24   H78 4353   1.747   5.426   5.955  0.3944  0.2351  2.7408
   29SM24   H79 4354   1.908   5.411   5.892 -0.7590  0.2806 -1.3219
   29SM24   C40 4355   1.798   5.597   5.853  0.1464  0.0264  0.1883
   29SM24   H80 4356   1.882   5.662   5.830 -1.1532  1.0712 -1.7439
   29SM24   H81 4357   1.756   5.553   5.763  0.2437 -3.1299  1.6263
   29SM24   C41 4358   1.689   5.684   5.916 -0.0415  0.6659  0.3302
   29SM24   H82 4359   1.595   5.636   5.945  0.3973 -0.3034  0.1690
   29SM24   H83 4360   1.730   5.706   6.014 -1.1399  1.4508  0.6219
   29SM24   C42 4361   1.665   5.810   5.838  0.5634  0.6782 -0.4537
   29SM24   H84 4362   1.617   5.780   5.745  1.2579 -0.1725 -0.5409
   29SM24   H85 4363   1.756   5.865   5.816  1.3989 -0.0148  1.2020
   29SM24   C43 4364   1.564   5.906   5.913 -0.9020 -0.0302 -0.1578
   29SM24   H86 4365   1.592   5.913   6.018 -0.7935  0.7889 -0.2315
   29SM24   H87 4366   1.463   5.865   5.913 -1.0477  0.3054  1.2050
   29SM24   C44 4367   1.559   0.094   5.851 -0.4190  0.4493  1.1166
   29SM24   H88 4368   1.646   0.155   5.876  0.4746 -0.4428  0.2493
   29SM24   H89 4369   1.562   0.080   5.743  1.9133 -0.7668  1.3203
   29SM24   C45 4370   1.424   0.161   5.896  0.2601  1.0083 -0.3355
   29SM24   H90 4371   1.441   0.211   5.991 -2.1231  2.8735 -0.8596
   29SM24   H91 4372   1.345   0.087   5.908  1.1447  0.0844 -0.0263
   29SM24   C46 4373   1.376   0.264   5.793  0.3115 -0.2895 -0.4712
   29SM24   H92 4374   1.446   0.346   5.781 -1.5250  1.4451  0.5191
   29SM24   H93 4375   1.353   0.224   5.694  0.5372 -1.2429 -0.1451
   29SM24   C47 4376   1.241   0.333   5.838  0.2357  0.8145 -0.0953
   29SM24   H94 4377   1.155   0.266   5.834 -0.2048  1.3553  0.0679
   29SM24   H95 4378   1.247   0.383   5.934 -0.7415  1.5415 -0.3969
   29SM24   H96 4379   1.197   0.408   5.772 -3.8797 -1.6724 -0.4072
   30SM24    N1 4380   2.620   1.343   8.328 -0.1916  0.3520  0.3222
   30SM24    C1 4381   2.486   1.282   8.318 -0.5444 -0.0303  0.3359
   30SM24    H1 4382   2.475   1.240   8.218 -0.3725  1.8169 -0.4756
   30SM24    H2 4383   2.488   1.204   8.395 -0.5725 -1.7881 -1.4012
   30SM24    C2 4384   2.621   1.444   8.219 -0.0886 -0.3817 -0.3211
   30SM24    H3 4385   2.597   1.404   8.120  0.5318 -1.9355  0.1399
   30SM24    H4 4386   2.562   1.534   8.235  1.6815  0.6059  0.7699
   30SM24    H5 4387   2.723   1.481   8.205 -0.2132 -0.5165 -1.6613
   30SM24    C3 4388   2.637   1.410   8.452  0.1841 -0.5396  0.1800
   30SM24    H6 4389   2.662   1.340   8.533 -0.6359  1.5441  2.2950
   30SM24    H7 4390   2.724   1.476   8.459 -1.1391  1.1555  1.0102
   30SM24    H8 4391   2.557   1.482   8.470  0.2467 -0.7468  1.3220
   30SM24    C4 4392   2.733   1.251   8.307 -0.9707 -0.2360  0.4004
   30SM24    H9 4393   2.733   1.216   8.204  2.2662  1.1859 -0.1659
   30SM24   H10 4394   2.821   1.316   8.312  0.2642 -1.8390  0.1434
   30SM24   H11 4395   2.743   1.157   8.362 -3.4580  0.1895  1.6171
   30SM24    C5 4396   2.355   1.359   8.329  0.8102 -0.0344  0.2738
   30SM24   H12 4397   2.363   1.441   8.259 -0.0789 -0.8621 -0.8189
   30SM24   H13 4398   2.331   1.394   8.430  0.0533 -3.0230  1.1937
   30SM24    P1 4399   2.136   1.341   8.195  0.2758 -0.1741  0.0720
   30SM24    O1 4400   2.066   1.449   8.273 -0.0238  0.0944  0.1513
   30SM24    O2 4401   2.057   1.230   8.148 -0.5246  0.3521  0.3205
   30SM24    O3 4402   2.244   1.277   8.291 -0.0134 -0.1760  0.2727
   30SM24    O4 4403   2.204   1.398   8.065 -0.5600 -0.0602  0.2814
   30SM24    C6 4404   2.268   1.311   7.984  0.0649 -0.1398 -0.3950
   30SM24   H14 4405   2.360   1.353   7.944  0.4655 -1.5478 -0.9832
   30SM24   H15 4406   2.317   1.240   8.050  0.7996  1.1011  0.4299
   30SM24    C7 4407   2.188   1.269   7.856  0.4120  0.3967 -0.0671
   30SM24   H16 4408   2.095   1.229   7.897  0.4521 -0.4031 -0.7444
   30SM24    N2 4409   2.265   1.156   7.793  0.1724 -1.0146 -0.3932
   30SM24    HN 4410   2.359   1.153   7.829 -0.0953  0.2366  0.4823
   30SM24    C8 4411   2.159   1.379   7.748  0.2544 -0.2757  0.0745
   30SM24   OSM 4412   2.277   1.442   7.700 -0.4688 -0.4303  0.6979
   30SM24   HSM 4413   2.345   1.379   7.686  1.1018  1.2687  0.5068
   30SM24   H17 4414   2.109   1.332   7.663  2.3179  0.5204 -1.6242
   30SM24    C9 4415   2.080   1.494   7.805  0.0629 -0.0764  0.2268
   30SM24   H18 4416   2.106   1.542   7.899 -0.3101  1.0909 -0.2501
   30SM24   C10 4417   1.972   1.557   7.750  0.0656 -0.3344 -0.8054
   30SM24   H19 4418   1.932   1.532   7.652  1.7639 -0.5644 -1.4534
   30SM24   C11 4419   1.914   1.675   7.814 -0.0874  0.4192  0.5517
   30SM24   H20 4420   1.945   1.672   7.919  2.2107  0.1680 -0.0939
   30SM24   H21 4421   1.812   1.641   7.829 -0.4393  0.2782 -1.9410
   30SM24   C12 4422   1.925   1.808   7.739  0.4148 -0.3662 -0.0635
   30SM24   H22 4423   2.030   1.822   7.714  0.7652  0.0389  1.5449
   30SM24   H23 4424   1.909   1.883   7.816 -2.5723  0.2318 -1.1930
   30SM24   C13 4425   1.839   1.829   7.619  0.1094 -0.1616 -0.3878
   30SM24   H24 4426   1.873   1.748   7.555 -0.4286 -0.3141 -0.4818
   30SM24   H25 4427   1.858   1.927   7.574 -0.1778 -0.2843 -0.7687
   30SM24   C14 4428   1.690   1.819   7.638 -0.4248 -0.3690 -0.3713
   30SM24   H26 4429   1.665   1.893   7.714 -1.0018 -1.0987  0.1423
   30SM24   H27 4430   1.662   1.724   7.682 -1.1946 -0.0934 -0.2527
   30SM24   C15 4431   1.627   1.865   7.506  0.4214  0.2225 -0.1100
   30SM24   H28 4432   1.703   1.881   7.430  0.5611  0.8761  0.1601
   30SM24   H29 4433   1.564   1.953   7.519  0.0547 -0.0341 -0.1427
   30SM24   C16 4434   1.522   1.773   7.458 -0.3622  0.9320 -0.0241
   30SM24   H30 4435   1.452   1.754   7.540  2.0729 -0.1944  1.8595
   30SM24   H31 4436   1.564   1.675   7.436  0.7018  0.9499  1.8658
   30SM24   C17 4437   1.444   1.826   7.342  0.6819  0.1889  0.8870
   30SM24   H32 4438   1.513   1.840   7.259 -0.8684  0.5051 -0.3778
   30SM24   H33 4439   1.405   1.926   7.359  0.7680  0.4835 -0.5632
   30SM24   C18 4440   1.331   1.744   7.283  0.3684 -0.4197 -0.3624
   30SM24   H34 4441   1.353   1.638   7.267 -0.0266 -0.5215 -0.2459
   30SM24   H34 4442   1.317   1.784   7.182 -0.3215 -2.4323 -1.0885
   30SM24   C19 4443   1.207   1.743   7.378 -0.1720  0.0221 -0.1105
   30SM24   H35 4444   1.191   1.845   7.415  0.5502 -0.9449  2.9893
   30SM24   H36 4445   1.229   1.685   7.467 -0.7246 -0.3736 -0.2287
   30SM24   C20 4446   1.077   1.683   7.319  0.4545 -0.0729  0.6516
   30SM24   H37 4447   1.039   1.755   7.247  1.3506  0.8198  1.0517
   30SM24   H38 4448   0.996   1.678   7.392 -0.4890 -0.1062 -0.3968
   30SM24   C21 4449   1.100   1.539   7.255 -0.2878  0.2278 -0.0966
   30SM24   H39 4450   1.148   1.482   7.335  0.3625  1.4090  0.3793
   30SM24   H40 4451   1.158   1.557   7.165  0.0938  1.2507  0.3460
   30SM24   C22 4452   0.963   1.482   7.221  0.1207  0.7244  0.9032
   30SM24   H41 4453   0.897   1.563   7.189  1.0644  0.6361 -1.3203
   30SM24   H42 4454   0.921   1.447   7.315  0.2665 -1.6338  0.1214
   30SM24   C23 4455   0.952   1.361   7.120  0.1583  0.6417  0.3954
   30SM24   H43 4456   0.846   1.336   7.111  0.2705  1.0715 -2.3005
   30SM24   H44 4457   0.979   1.395   7.021  3.1914 -0.1776  0.8898
   30SM24   H45 4458   1.017   1.275   7.138 -0.9967 -0.1360  0.9090
   30SM24   C24 4459   2.220   1.083   7.694 -0.1421 -0.1461  0.2034
   30SM24   O33 4460   2.098   1.082   7.656 -0.1136  0.2664 -0.2232
   30SM24   C25 4461   2.321   0.980   7.638 -0.0325  0.3250 -0.0393
   30SM24   H50 4462   2.345   0.896   7.703  0.0940 -1.6481 -2.5462
   30SM24   H51 4463   2.416   1.033   7.635  0.1941 -0.0609  0.3320
   30SM24   C26 4464   2.285   0.922   7.499  1.0205  0.3495  0.3305
   30SM24   H52 4465   2.189   0.873   7.512 -0.2423  2.3911 -1.1175
   30SM24   H53 4466   2.358   0.843   7.477  1.0895  0.4479  0.2041
   30SM24   C27 4467   2.278   1.018   7.379  0.1516  0.0904 -0.9508
   30SM24   H54 4468   2.368   1.078   7.389 -0.0531  0.2298  0.1267
   30SM24   H55 4469   2.190   1.083   7.384  0.5905  0.7103 -1.2818
   30SM24   C28 4470   2.258   0.952   7.247 -0.6626  0.1869 -0.2240
   30SM24   H56 4471   2.149   0.952   7.249 -0.7044 -2.3675 -0.2457
   30SM24   H57 4472   2.297   0.851   7.258 -0.1779  0.5083  0.9951
   30SM24   C29 4473   2.320   1.023   7.127 -0.4110  0.3311 -0.9582
   30SM24   H58 4474   2.429   1.011   7.133 -0.3644  0.9879 -0.4777
   30SM24   H59 4475   2.303   1.131   7.129  1.3460  0.5909  1.1366
   30SM24   C30 4476   2.286   0.946   7.003 -0.0684  0.1493  0.1312
   30SM24   H60 4477   2.177   0.944   6.996 -0.0391 -1.6848  0.0187
   30SM24   H61 4478   2.318   0.843   7.009  0.7442  0.2675 -1.9300
   30SM24   C31 4479   2.331   1.001   6.868 -0.7473  0.1475  1.3435
   30SM24   H62 4480   2.279   1.097   6.864 -0.2443  0.3860  0.5364
   30SM24   H63 4481   2.287   0.936   6.792 -2.0651 -1.1887  3.2024
   30SM24   C32 4482   2.482   1.021   6.860 -0.1339 -0.0134  0.0125
   30SM24   H64 4483   2.548   0.935   6.846  1.8248  1.5371 -0.5167
   30SM24   H65 4484   2.530   1.050   6.954 -1.9319 -0.3793  1.0677
   30SM24   C33 4485   2.525   1.124   6.754 -0.7911  0.1141 -0.4055
   30SM24   H66 4486   2.477   1.220   6.771 -0.4571  0.1061  0.6298
   30SM24   H67 4487   2.488   1.083   6.660 -3.0828 -0.2532  0.6231
   30SM24   C34 4488   2.682   1.141   6.752 -0.3978 -0.1494  0.8514
   30SM24   H68 4489   2.722   1.169   6.849  1.0771  0.4382  0.0968
   30SM24   H69 4490   2.700   1.232   6.694 -0.4300 -1.6364 -1.5397
   30SM24   C35 4491   2.772   1.028   6.694  0.1059  0.0989 -0.1850
   30SM24   H70 4492   2.720   0.978   6.612 -2.7621  0.5001  1.3106
   30SM24   H71 4493   2.778   0.948   6.767  2.1021  1.5967  1.3443
   30SM24   C36 4494   2.912   1.073   6.658  0.0212  0.4414 -0.5620
   30SM24   H72 4495   2.961   1.111   6.747  0.2439 -0.5044 -0.2678
   30SM24   H73 4496   2.902   1.164   6.599  3.5457  0.7593 -0.7703
   30SM24   C37 4497   2.998   0.967   6.583  0.0179  0.4029 -0.8982
   30SM24   H74 4498   2.971   0.870   6.625  0.6774  0.1340 -1.0887
   30SM24   H75 4499   3.100   1.001   6.603 -0.7148  0.5065  2.9806
   30SM24   C38 4500   2.967   0.959   6.429  0.3558  0.2005 -0.4353
   30SM24   H76 4501   2.861   0.939   6.417  0.4301  0.7238 -2.0797
   30SM24   H77 4502   3.037   0.883   6.395 -1.2373  0.2654 -4.0831
   30SM24   C39 4503   2.988   1.086   6.352 -0.9019  0.7111  0.1848
   30SM24   H78 4504   2.933   1.175   6.382 -0.8920  0.6196  0.4809
   30SM24   H79 4505   2.949   1.058   6.254 -0.5087  1.5785 -0.2296
   30SM24   C40 4506   3.135   1.120   6.333 -0.2042 -1.0958  0.8662
   30SM24   H80 4507   3.178   1.151   6.428  0.8634  0.0937  0.0152
   30SM24   H81 4508   3.197   1.035   6.304  0.5169 -1.0078  2.1051
   30SM24   C41 4509   3.161   1.228   6.225 -0.0806 -0.7281  0.6003
   30SM24   H82 4510   3.087   1.205   6.149  0.9035 -0.9359 -0.2966
   30SM24   H83 4511   3.140   1.328   6.262  1.1287  0.3318 -1.5095
   30SM24   C42 4512   3.297   1.212   6.161  0.0913  0.3305  0.1923
   30SM24   H84 4513   3.315   1.292   6.089  0.1635 -1.5438 -1.9283
   30SM24   H85 4514   3.323   1.119   6.111 -1.3973 -1.0211  1.8715
   30SM24   C43 4515   3.413   1.232   6.267  0.0836 -0.0561  0.3937
   30SM24   H86 4516   3.397   1.177   6.359  0.4307 -0.8105  0.0066
   30SM24   H87 4517   3.409   1.335   6.302 -1.6098  0.0402 -0.0713
   30SM24   C44 4518   3.554   1.223   6.212 -0.0484 -0.3680  0.1834
   30SM24   H88 4519   3.575   1.119   6.190  0.2009  0.0003 -1.3312
   30SM24   H89 4520   3.557   1.275   6.117  2.4081  0.1252  0.4962
   30SM24   C45 4521   3.659   1.294   6.291 -0.1043  0.2981 -0.4194
   30SM24   H90 4522   3.654   1.268   6.397 -2.2857 -1.1285 -0.8288
   30SM24   H91 4523   3.642   1.402   6.290 -1.5333  0.1166  1.1685
   30SM24   C46 4524   3.802   1.272   6.229  0.0112 -0.4598  0.2555
   30SM24   H92 4525   3.826   1.168   6.208 -0.8181 -0.0858 -2.9113
   30SM24   H93 4526   3.818   1.321   6.133 -1.5768  0.9500  0.6904
   30SM24   C47 4527   3.907   1.327   6.326 -0.9817  0.0451  1.2521
   30SM24   H94 4528   3.889   1.433   6.341  0.0311  0.2066  1.3915
   30SM24   H95 4529   3.899   1.278   6.423  0.1007 -2.2757  0.2210
   30SM24   H96 4530   4.008   1.315   6.287 -1.2690 -0.8975  0.7706
   31SM24    N1 4531   2.717   2.885   8.154  0.7924 -0.4604  0.1250
   31SM24    C1 4532   2.770   2.744   8.130 -0.2894  0.0117 -0.4487
   31SM24    H1 4533   2.807   2.736   8.028  1.8136  2.7647  0.0218
   31SM24    H2 4534   2.854   2.727   8.197  0.5852 -0.2665 -1.6108
   31SM24    C2 4535   2.673   2.896   8.295  1.1756 -0.4896  0.1830
   31SM24    H3 4536   2.754   2.853   8.353  1.5226  0.2508  0.2655
   31SM24    H4 4537   2.659   2.999   8.331 -1.2120 -1.2440  1.5271
   31SM24    H5 4538   2.578   2.848   8.319  2.1600 -2.2685  0.5710
   31SM24    C3 4539   2.836   2.973   8.137 -0.8006  0.3300  0.1813
   31SM24    H6 4540   2.816   3.079   8.151  1.5226  0.9663 -1.0185
   31SM24    H7 4541   2.910   2.957   8.215 -0.2052 -0.7549 -0.5985
   31SM24    H8 4542   2.876   2.945   8.039  0.1098 -0.5742  0.8048
   31SM24    C4 4543   2.608   2.929   8.061  0.0647 -0.1741  0.6172
   31SM24    H9 4544   2.562   3.021   8.098  0.6524 -0.3836  1.8953
   31SM24   H10 4545   2.650   2.957   7.964  0.4568  1.4474  1.2360
   31SM24   H11 4546   2.530   2.854   8.046 -1.0901  1.1269 -0.0136
   31SM24    C5 4547   2.657   2.637   8.139  0.2619  0.8682 -0.1403
   31SM24   H12 4548   2.595   2.640   8.050  1.5982 -3.3489 -1.3103
   31SM24   H13 4549   2.597   2.645   8.230  1.8049  1.0789  0.8850
   31SM24    P1 4550   2.624   2.368   8.103 -0.3611  0.1815 -0.0355
   31SM24    O1 4551   2.522   2.361   8.210  0.3709  0.0770  0.4442
   31SM24    O2 4552   2.716   2.254   8.095 -0.0480  0.0372 -0.0905
   31SM24    O3 4553   2.716   2.507   8.130  0.3488  0.1742 -0.4821
   31SM24    O4 4554   2.556   2.362   7.953  0.2192  0.2652 -0.0880
   31SM24    C6 4555   2.628   2.396   7.839 -0.6234  0.6543 -0.1014
   31SM24   H14 4556   2.564   2.454   7.773 -1.2918  0.3175  0.2383
   31SM24   H15 4557   2.713   2.453   7.874  0.8007 -2.9754  2.7342
   31SM24    C7 4558   2.700   2.282   7.758 -0.0092 -1.0311 -0.1517
   31SM24   H16 4559   2.771   2.224   7.817 -0.8408 -0.8657  1.0104
   31SM24    N2 4560   2.781   2.344   7.651 -0.3065  0.1528 -0.2115
   31SM24    HN 4561   2.758   2.442   7.640  0.5021  0.4948  1.0093
   31SM24    C8 4562   2.595   2.188   7.700 -0.5555 -0.7238 -0.0007
   31SM24   OSM 4563   2.642   2.062   7.666 -0.1029 -0.0923 -0.0227
   31SM24   HSM 4564   2.688   2.062   7.584 -0.4848 -0.1833 -0.2386
   31SM24   H17 4565   2.525   2.172   7.782 -1.8026 -3.0229 -1.4696
   31SM24    C9 4566   2.526   2.246   7.575 -0.3484  0.6140  0.6751
   31SM24   H18 4567   2.586   2.292   7.498  0.2027 -0.0517  0.6974
   31SM24   C10 4568   2.395   2.248   7.558  0.1765 -0.5067  0.3697
   31SM24   H19 4569   2.321   2.209   7.627  0.1833  0.3937  0.8853
   31SM24   C11 4570   2.321   2.314   7.443  0.1144  0.2840 -0.5434
   31SM24   H20 4571   2.265   2.233   7.396  0.5352  0.5298 -1.4952
   31SM24   H21 4572   2.389   2.355   7.368 -0.0478  0.9884 -0.3104
   31SM24   C12 4573   2.226   2.424   7.484  1.0019 -0.1829  0.0360
   31SM24   H22 4574   2.282   2.506   7.530 -0.7720  0.9485  0.2476
   31SM24   H23 4575   2.158   2.383   7.558 -0.0823 -1.6162 -1.7135
   31SM24   C13 4576   2.150   2.481   7.361 -0.4658  0.4941 -0.1802
   31SM24   H24 4577   2.118   2.391   7.307 -2.3552  0.3661  1.0992
   31SM24   H25 4578   2.225   2.537   7.306 -2.4051  3.1786 -0.1798
   31SM24   C14 4579   2.029   2.565   7.387  0.1501  0.2927 -0.5364
   31SM24   H26 4580   2.062   2.666   7.412  3.4856 -0.7928 -0.3342
   31SM24   H27 4581   1.981   2.532   7.480 -0.6023  0.2195 -0.9425
   31SM24   C15 4582   1.911   2.561   7.288 -0.2127  0.4299  0.1525
   31SM24   H28 4583   1.817   2.582   7.339  0.4812 -1.7162  2.4105
   31SM24   H29 4584   1.897   2.470   7.230  3.8315 -0.4043  0.3138
   31SM24   C16 4585   1.933   2.664   7.177 -0.0295 -0.1858 -0.3145
   31SM24   H30 4586   2.028   2.645   7.128 -0.2009  1.9011 -1.5445
   31SM24   H31 4587   1.934   2.764   7.221  2.4069 -0.3486  0.0663
   31SM24   C17 4588   1.822   2.654   7.073 -0.1317 -0.3746  1.3078
   31SM24   H32 4589   1.732   2.707   7.105 -1.6943 -1.6807 -0.7982
   31SM24   H33 4590   1.788   2.551   7.064  1.1899 -0.7333  0.2826
   31SM24   C18 4591   1.861   2.705   6.933  0.1178  0.5713  0.5033
   31SM24   H34 4592   1.945   2.640   6.909 -0.5934  0.6293 -2.3021
   31SM24   H34 4593   1.890   2.809   6.922  0.2837  0.3285 -1.5322
   31SM24   C19 4594   1.745   2.680   6.836  0.0610  0.3046 -0.0785
   31SM24   H35 4595   1.666   2.752   6.858  1.0092  1.9928 -2.0126
   31SM24   H36 4596   1.686   2.591   6.861  1.3435 -1.4957 -3.1364
   31SM24   C20 4597   1.773   2.723   6.688  0.0802 -0.0619  0.6467
   31SM24   H37 4598   1.859   2.668   6.650  0.5626  1.0745  0.0815
   31SM24   H38 4599   1.832   2.814   6.671 -2.1678  1.3748  0.2838
   31SM24   C21 4600   1.652   2.707   6.605 -0.0812 -0.4397 -0.0574
   31SM24   H39 4601   1.582   2.789   6.626 -1.1213 -0.8151 -1.9957
   31SM24   H40 4602   1.602   2.611   6.618 -1.6225  0.3381 -0.0986
   31SM24   C22 4603   1.688   2.706   6.458  0.3777 -0.0346  0.1035
   31SM24   H41 4604   1.761   2.626   6.445 -1.4815 -1.6440 -0.7605
   31SM24   H42 4605   1.745   2.798   6.444  0.7506 -0.2252  0.3463
   31SM24   C23 4606   1.568   2.699   6.363 -0.4695  0.2105 -0.4187
   31SM24   H43 4607   1.537   2.595   6.365  0.0379  0.0617 -0.2185
   31SM24   H44 4608   1.490   2.758   6.412 -1.2833 -0.3397 -1.0505
   31SM24   H45 4609   1.586   2.727   6.259  4.3908 -0.9622 -0.0157
   31SM24   C24 4610   2.869   2.286   7.567  0.8283  0.2776 -0.0613
   31SM24   O33 4611   2.891   2.164   7.551 -0.1866  0.0023  0.3310
   31SM24   C25 4612   2.961   2.373   7.486 -0.2894 -0.2514  0.3383
   31SM24   H50 4613   3.063   2.343   7.509 -0.1294 -0.1542 -0.2634
   31SM24   H51 4614   2.952   2.478   7.513 -0.7466  0.2620 -1.7846
   31SM24   C26 4615   2.938   2.357   7.338  0.5159  0.4872 -0.0715
   31SM24   H52 4616   2.963   2.255   7.312 -2.9095 -0.7242  1.1623
   31SM24   H53 4617   3.013   2.427   7.300  2.1830 -1.2561 -0.0661
   31SM24   C27 4618   2.798   2.383   7.282  0.6811  0.2512 -0.2674
   31SM24   H54 4619   2.748   2.468   7.328 -0.5255 -1.2788  1.3103
   31SM24   H55 4620   2.733   2.296   7.291  1.9888 -0.6621  0.6609
   31SM24   C28 4621   2.799   2.429   7.140  0.5093  0.4231  0.2273
   31SM24   H56 4622   2.836   2.532   7.140 -2.1618  1.4391  2.1134
   31SM24   H57 4623   2.695   2.438   7.109  0.2560  1.0278  1.2354
   31SM24   C29 4624   2.865   2.343   7.038 -0.2337 -0.4831  0.3925
   31SM24   H58 4625   2.814   2.250   7.013 -0.5933 -0.1369 -0.1510
   31SM24   H59 4626   2.958   2.316   7.089  0.6848  2.5277  0.4102
   31SM24   C30 4627   2.889   2.416   6.901 -0.3730 -0.4522  0.5302
   31SM24   H60 4628   2.944   2.508   6.923 -0.3237 -0.2801 -0.2649
   31SM24   H61 4629   2.789   2.443   6.866 -1.0377  0.3875  2.9513
   31SM24   C31 4630   2.948   2.330   6.790  0.3718  0.4979 -0.0768
   31SM24   H62 4631   2.914   2.228   6.807  1.1678  0.5860  2.2100
   31SM24   H63 4632   3.054   2.309   6.809 -0.4420 -3.3113  0.6429
   31SM24   C32 4633   2.933   2.388   6.646 -0.3514  0.3165  0.5692
   31SM24   H64 4634   2.993   2.320   6.586  1.5982  2.8119 -0.4178
   31SM24   H65 4635   2.971   2.489   6.627 -1.5157  0.6240 -0.1678
   31SM24   C33 4636   2.784   2.399   6.580  0.6791  0.2383  0.4259
   31SM24   H66 4637   2.795   2.448   6.484  2.8136  0.6542  0.8681
   31SM24   H67 4638   2.727   2.463   6.647  0.8113 -1.5609  2.3077
   31SM24   C34 4639   2.717   2.267   6.554  0.2716  0.5881  0.1174
   31SM24   H68 4640   2.726   2.207   6.644 -2.6405 -2.4447 -1.5136
   31SM24   H69 4641   2.768   2.222   6.469 -0.5656  0.3047 -0.2531
   31SM24   C35 4642   2.572   2.273   6.526  0.2340  0.3642  0.9126
   31SM24   H70 4643   2.559   2.362   6.465  1.6261  0.5944  0.9430
   31SM24   H71 4644   2.520   2.306   6.616 -1.4522 -0.2528  0.1935
   31SM24   C36 4645   2.510   2.146   6.466  0.3821 -0.0139  0.4131
   31SM24   H72 4646   2.536   2.136   6.361  0.2740 -0.2255  0.4061
   31SM24   H73 4647   2.402   2.155   6.471  0.1928 -1.3724 -0.8102
   31SM24   C37 4648   2.550   2.018   6.539 -0.6086  0.1143  0.0751
   31SM24   H74 4649   2.528   2.031   6.645  0.8905 -0.7283  0.4940
   31SM24   H75 4650   2.658   2.027   6.536 -0.3825 -1.8866  1.2844
   31SM24   C38 4651   2.502   1.889   6.470 -0.5748 -0.8158 -0.3468
   31SM24   H76 4652   2.509   1.903   6.362 -0.4802 -1.7205 -0.4574
   31SM24   H77 4653   2.395   1.881   6.493 -0.1286 -1.3990  1.6041
   31SM24   C39 4654   2.572   1.765   6.512  0.6963 -0.1206 -1.0036
   31SM24   H78 4655   2.669   1.768   6.464  0.2126 -0.6363 -2.0364
   31SM24   H79 4656   2.517   1.675   6.485 -0.8782  0.0444  1.4883
   31SM24   C40 4657   2.598   1.770   6.669  0.1280 -0.0026 -0.3805
   31SM24   H80 4658   2.652   1.860   6.696  0.0633  0.5987 -2.1370
   31SM24   H81 4659   2.508   1.781   6.729 -0.0783  0.8301 -0.8257
   31SM24   C41 4660   2.693   1.659   6.705  0.1782 -0.6144 -0.4463
   31SM24   H82 4661   2.658   1.559   6.678 -1.4288  0.2982 -1.8067
   31SM24   H83 4662   2.782   1.681   6.647 -1.6570  2.3775 -2.1881
   31SM24   C42 4663   2.725   1.663   6.859  0.6542 -0.4540  0.3112
   31SM24   H84 4664   2.735   1.560   6.894  0.4266 -1.0872 -1.4208
   31SM24   H85 4665   2.652   1.715   6.920 -0.0428 -1.4908  0.3803
   31SM24   C43 4666   2.859   1.731   6.882 -0.3226  0.1799  0.1161
   31SM24   H86 4667   2.850   1.829   6.836 -0.7260 -0.5028 -1.2877
   31SM24   H87 4668   2.937   1.675   6.830 -2.9755 -0.6256 -3.0843
   31SM24   C44 4669   2.888   1.747   7.024  0.2989 -0.0166 -0.1934
   31SM24   H88 4670   2.815   1.805   7.080  0.6206 -1.4612  1.7806
   31SM24   H89 4671   2.890   1.647   7.067  0.8750 -0.4078 -1.1256
   31SM24   C45 4672   3.030   1.807   7.050  0.0056 -0.2456  0.5019
   31SM24   H90 4673   3.050   1.886   6.977 -1.2808  0.8645  1.3299
   31SM24   H91 4674   3.103   1.726   7.039 -0.5536 -0.4732 -1.6618
   31SM24   C46 4675   3.041   1.865   7.192  0.1135  0.3311  0.2639
   31SM24   H92 4676   2.992   1.799   7.263  0.6052 -1.0464 -0.6534
   31SM24   H93 4677   3.139   1.863   7.241 -0.2122  3.3703  1.1502
   31SM24   C47 4678   2.972   2.001   7.207 -0.4079 -0.6866  0.2392
   31SM24   H94 4679   2.957   2.037   7.309 -0.4123  0.5868 -0.1972
   31SM24   H95 4680   3.032   2.075   7.154 -1.7739  0.4315  0.2215
   31SM24   H96 4681   2.873   1.998   7.162  0.4541 -1.6214 -1.6614
   32SM24    N1 4682   3.367   3.566   8.183  0.4685  0.1586 -0.0936
   32SM24    C1 4683   3.360   3.418   8.166  0.6681  0.3420 -0.2803
   32SM24    H1 4684   3.314   3.383   8.074  0.3899  2.3050 -0.9116
   32SM24    H2 4685   3.457   3.368   8.164 -0.5858 -2.0988 -2.7359
   32SM24    C2 4686   3.240   3.638   8.198  0.3882  0.2135  0.0122
   32SM24    H3 4687   3.170   3.615   8.117  0.2274  2.0469 -0.3965
   32SM24    H4 4688   3.196   3.616   8.296 -2.6618  2.9855 -0.6323
   32SM24    H5 4689   3.264   3.744   8.204  0.2524  0.4315 -2.5416
   32SM24    C3 4690   3.463   3.606   8.287 -0.4147  0.1044 -0.2046
   32SM24    H6 4691   3.556   3.551   8.271 -0.7876 -0.8632  0.8754
   32SM24    H7 4692   3.479   3.713   8.302  0.6840 -0.1354  0.3576
   32SM24    H8 4693   3.430   3.566   8.383 -0.0218  2.3697  0.9162
   32SM24    C4 4694   3.427   3.603   8.050 -0.5520 -0.3220 -0.3351
   32SM24    H9 4695   3.448   3.710   8.055 -1.1431 -0.1865 -0.5971
   32SM24   H10 4696   3.526   3.562   8.031 -1.1804 -1.6814 -0.7153
   32SM24   H11 4697   3.379   3.578   7.956 -0.1224  0.2175 -0.6981
   32SM24    C5 4698   3.282   3.349   8.277  0.2308 -0.0911  0.3291
   32SM24   H12 4699   3.173   3.357   8.274  0.0426 -2.3396 -0.1519
   32SM24   H13 4700   3.312   3.381   8.377  1.5938 -0.4812  0.0596
   32SM24    P1 4701   3.184   3.099   8.244  0.1334 -0.1391 -0.0527
   32SM24    O1 4702   3.090   3.124   8.359 -0.1457  0.3224  0.4531
   32SM24    O2 4703   3.237   2.968   8.218 -0.0335 -0.0689 -0.2774
   32SM24    O3 4704   3.306   3.209   8.255 -0.3075  0.2907  0.1267
   32SM24    O4 4705   3.096   3.139   8.120 -0.0087  0.1017 -0.3482
   32SM24    C6 4706   3.138   3.101   7.985 -0.0818  0.3588  0.5945
   32SM24   H14 4707   3.245   3.122   7.973 -0.4785  1.4112 -1.3543
   32SM24   H15 4708   3.110   2.997   7.974  1.0739  0.1443 -0.4701
   32SM24    C7 4709   3.051   3.193   7.896  0.2482  0.1311  0.9071
   32SM24   H16 4710   2.946   3.169   7.913  0.0854  1.3953  1.6670
   32SM24    N2 4711   3.073   3.150   7.757 -0.5904 -0.5530 -0.4485
   32SM24    HN 4712   3.134   3.210   7.704 -0.2621  0.1455  0.7108
   32SM24    C8 4713   3.074   3.345   7.908 -0.2978  0.2764  0.4623
   32SM24   OSM 4714   3.041   3.400   8.035  0.0728 -0.6635  0.6578
   32SM24   HSM 4715   3.047   3.336   8.105 -0.2771 -1.3722  0.0430
   32SM24   H17 4716   3.182   3.358   7.895 -0.1930 -1.8003 -0.9485
   32SM24    C9 4717   3.003   3.420   7.806  1.0920  0.5588  0.2027
   32SM24   H18 4718   2.903   3.382   7.790  0.8304  0.3805  2.1811
   32SM24   C10 4719   3.052   3.517   7.730  0.2765  0.8151  0.5900
   32SM24   H19 4720   3.155   3.545   7.744  0.9831 -0.3581 -1.9218
   32SM24   C11 4721   2.970   3.580   7.616 -0.0188 -0.1951 -1.3994
   32SM24   H20 4722   2.956   3.687   7.634  2.5076  0.0359 -0.5367
   32SM24   H21 4723   2.867   3.545   7.619 -0.1321  0.1925  0.8473
   32SM24   C12 4724   3.027   3.556   7.473  0.2492  0.3332  0.2652
   32SM24   H22 4725   3.004   3.452   7.448 -0.2166 -0.0269  2.0688
   32SM24   H23 4726   3.135   3.573   7.475  0.3089  0.0237 -0.1132
   32SM24   C13 4727   2.959   3.650   7.382  0.0973  0.1118  0.2116
   32SM24   H24 4728   2.962   3.755   7.412 -2.0689  0.3586 -0.3800
   32SM24   H25 4729   2.856   3.616   7.378  0.0923  0.1914 -0.3476
   32SM24   C14 4730   3.002   3.623   7.233 -0.4582 -0.0506 -0.1242
   32SM24   H26 4731   3.008   3.515   7.221  0.8824  0.2829 -2.9948
   32SM24   H27 4732   3.104   3.661   7.227 -0.6390  0.8438  1.9899
   32SM24   C15 4733   2.911   3.682   7.123  0.4240  0.5389  0.2975
   32SM24   H28 4734   2.811   3.641   7.133  0.4152  0.9064  1.9197
   32SM24   H29 4735   2.956   3.648   7.029  0.7423 -1.0980  1.0299
   32SM24   C16 4736   2.905   3.843   7.121 -0.4013  0.6764  0.0552
   32SM24   H30 4737   3.006   3.881   7.129  0.2988 -0.8825 -1.1449
   32SM24   H31 4738   2.870   3.875   7.220  1.4265 -0.3683  1.0585
   32SM24   C17 4739   2.850   3.910   6.997  0.5864  0.2904 -0.3722
   32SM24   H32 4740   2.777   3.850   6.943 -0.0785  1.6639 -1.0027
   32SM24   H33 4741   2.932   3.916   6.925  2.4869 -1.5546  1.5290
   32SM24   C18 4742   2.777   4.043   7.029 -0.3197 -0.1233  0.1140
   32SM24   H34 4743   2.849   4.119   7.057 -1.7210  1.0913  0.5097
   32SM24   H34 4744   2.711   4.041   7.117  1.9758  2.4150  1.9708
   32SM24   C19 4745   2.697   4.094   6.905  0.0887 -0.9367 -0.8598
   32SM24   H35 4746   2.633   4.168   6.953  0.5667 -1.3098  0.3819
   32SM24   H36 4747   2.625   4.030   6.855 -2.1372  0.3308  0.6253
   32SM24   C20 4748   2.782   4.148   6.793 -0.1375 -0.0253  0.0460
   32SM24   H37 4749   2.861   4.075   6.776 -1.2166 -1.2173  0.1444
   32SM24   H38 4750   2.840   4.233   6.831  0.7608 -0.1647 -0.9911
   32SM24   C21 4751   2.712   4.185   6.670 -0.7147 -0.0605 -0.3121
   32SM24   H39 4752   2.660   4.103   6.619  2.1168 -2.8062  1.0809
   32SM24   H40 4753   2.792   4.205   6.599 -0.5766 -1.7022 -0.6359
   32SM24   C22 4754   2.622   4.309   6.694  0.3280  0.6140 -0.5176
   32SM24   H41 4755   2.673   4.389   6.747  0.3228 -1.0908  2.1495
   32SM24   H42 4756   2.540   4.294   6.763 -0.5880  3.6119 -0.8982
   32SM24   C23 4757   2.566   4.356   6.562 -0.2452 -0.0877 -0.4406
   32SM24   H43 4758   2.560   4.272   6.493  1.5215 -0.4218 -0.2144
   32SM24   H44 4759   2.469   4.404   6.577 -0.6359 -0.2877 -2.1937
   32SM24   H45 4760   2.628   4.436   6.523 -0.7779  0.4188 -0.2527
   32SM24   C24 4761   3.052   3.028   7.710  0.4726 -0.1896 -0.3114
   32SM24   O33 4762   2.957   2.963   7.761  0.9147 -0.3373  0.2462
   32SM24   C25 4763   3.050   3.008   7.557 -0.7266  0.8758 -0.1365
   32SM24   H50 4764   3.136   3.055   7.510 -0.8490  0.9293 -0.3096
   32SM24   H51 4765   2.953   3.048   7.526 -1.3662  0.7711  1.6620
   32SM24   C26 4766   3.043   2.855   7.518  0.5523  0.3230  0.5446
   32SM24   H52 4767   2.944   2.818   7.544  0.4298  0.3547  0.1297
   32SM24   H53 4768   3.116   2.798   7.576  2.5236  1.6384 -0.5779
   32SM24   C27 4769   3.068   2.822   7.370 -1.1649 -0.1252  0.3380
   32SM24   H54 4770   3.041   2.719   7.348  1.6254 -1.1638  1.5712
   32SM24   H55 4771   3.177   2.819   7.366 -1.0609  0.7172  2.1057
   32SM24   C28 4772   3.011   2.907   7.253 -0.1520  0.0938  0.1833
   32SM24   H56 4773   3.062   3.003   7.249 -0.3238  0.1725 -0.1975
   32SM24   H57 4774   2.904   2.923   7.271  0.1312  0.6783  1.4172
   32SM24   C29 4775   3.012   2.837   7.117  0.0061 -0.3914  0.0917
   32SM24   H58 4776   2.948   2.748   7.116 -0.4356 -0.0740 -0.1487
   32SM24   H59 4777   3.109   2.788   7.104 -0.6019 -1.3890 -0.7736
   32SM24   C30 4778   2.971   2.920   6.995  0.2511 -0.4551  0.7345
   32SM24   H60 4779   2.871   2.958   7.015  0.9973  0.1863  3.5320
   32SM24   H61 4780   2.943   2.862   6.907 -1.0285 -0.1311  0.9127
   32SM24   C31 4781   3.072   3.021   6.944 -0.3097  0.0969 -0.1499
   32SM24   H62 4782   3.145   2.979   6.874  0.4231  3.1231 -1.2719
   32SM24   H63 4783   3.127   3.052   7.033  1.5685 -1.4303 -0.7341
   32SM24   C32 4784   3.001   3.145   6.879 -0.2170  0.1813  0.0630
   32SM24   H64 4785   3.063   3.233   6.890 -1.3948  1.0596 -0.2213
   32SM24   H65 4786   2.903   3.157   6.926 -0.7041 -1.9526 -0.3473
   32SM24   C33 4787   2.981   3.116   6.727 -0.6803  0.7299 -0.5639
   32SM24   H66 4788   2.922   3.028   6.701  0.2833 -0.5861  1.4910
   32SM24   H67 4789   3.079   3.114   6.678 -0.1804  0.3029  0.4247
   32SM24   C34 4790   2.914   3.234   6.661 -0.0958 -0.2186  0.8587
   32SM24   H68 4791   2.938   3.333   6.701 -1.2116  0.7481 -0.7564
   32SM24   H69 4792   2.807   3.224   6.679  0.3369 -0.7081  3.3723
   32SM24   C35 4793   2.947   3.227   6.509 -0.3897  0.0146  0.1489
   32SM24   H70 4794   2.931   3.124   6.480  4.2186 -0.8375  0.2687
   32SM24   H71 4795   3.053   3.247   6.494 -0.1340 -1.4770 -0.0796
   32SM24   C36 4796   2.862   3.332   6.428 -0.8779 -0.2485  0.1973
   32SM24   H72 4797   2.876   3.436   6.460 -0.1517  0.7095 -3.0198
   32SM24   H73 4798   2.760   3.296   6.425 -0.8109 -0.5519  1.3901
   32SM24   C37 4799   2.914   3.342   6.278 -0.7718 -0.4297 -0.1084
   32SM24   H74 4800   3.000   3.409   6.272 -1.6062  0.4799 -2.6366
   32SM24   H75 4801   2.844   3.407   6.224 -0.8973  1.2322  1.9925
   32SM24   C38 4802   2.929   3.211   6.201 -0.3171 -0.3401 -0.8391
   32SM24   H76 4803   2.837   3.160   6.171  0.0014 -1.9124  0.8069
   32SM24   H77 4804   2.986   3.137   6.257  0.8083  0.0680 -1.4405
   32SM24   C39 4805   3.015   3.247   6.072  0.5821 -0.3020 -0.7404
   32SM24   H78 4806   3.023   3.162   6.004  0.1686 -2.2038  1.5237
   32SM24   H79 4807   3.118   3.266   6.102  0.1663 -1.5379  1.6036
   32SM24   C40 4808   2.957   3.355   5.987  0.5168 -0.1897 -0.0207
   32SM24   H80 4809   2.860   3.317   5.954  1.3558 -2.9452  0.5826
   32SM24   H81 4810   2.932   3.451   6.030 -0.3120 -0.4996  0.2053
   32SM24   C41 4811   3.033   3.378   5.857 -0.2286  0.1103 -0.2148
   32SM24   H82 4812   3.018   3.292   5.792 -2.6756  1.6710 -1.8069
   32SM24   H83 4813   2.976   3.456   5.806 -2.2205 -1.4077 -0.3672
   32SM24   C42 4814   3.184   3.427   5.867 -0.0250 -0.0496 -0.1977
   32SM24   H84 4815   3.206   3.502   5.944  0.4038 -0.1419 -0.2279
   32SM24   H85 4816   3.198   3.480   5.772  2.4287  1.9158  1.1860
   32SM24   C43 4817   3.283   3.306   5.866  0.2520  0.1833 -0.5255
   32SM24   H86 4818   3.252   3.239   5.786 -1.5661 -1.0608  1.1729
   32SM24   H87 4819   3.285   3.253   5.961  0.2128  1.0371 -0.0371
   32SM24   C44 4820   3.426   3.361   5.836 -0.2310 -0.4036 -0.1886
   32SM24   H88 4821   3.417   3.438   5.759 -0.5241  0.2877  0.5316
   32SM24   H89 4822   3.468   3.399   5.929  1.2093 -1.8634 -0.2231
   32SM24   C45 4823   3.527   3.258   5.782 -0.6824  0.0526 -0.1734
   32SM24   H90 4824   3.542   3.184   5.861  0.7575 -0.7591 -1.1818
   32SM24   H91 4825   3.623   3.306   5.766 -0.4616 -0.3168  0.0232
   32SM24   C46 4826   3.484   3.181   5.651 -0.1614 -0.9634  0.5846
   32SM24   H92 4827   3.569   3.130   5.605  1.0873  0.6706  1.0248
   32SM24   H93 4828   3.417   3.101   5.684  0.8403 -3.3068 -2.8222
   32SM24   C47 4829   3.413   3.261   5.540 -0.2048  0.5403 -0.7368
   32SM24   H94 4830   3.486   3.313   5.478  0.2783  2.0351  1.0336
   32SM24   H95 4831   3.370   3.186   5.474  2.6486  0.5907 -2.7422
   32SM24   H96 4832   3.342   3.329   5.586 -0.4002  0.8357 -1.4778
   33SM24    N1 4833   1.943   2.809   8.488 -0.4238  0.0271  0.1496
   33SM24    C1 4834   1.917   2.897   8.369  0.2405 -0.1794 -0.0241
   33SM24    H1 4835   1.938   2.838   8.280 -3.5531 -2.1954  0.2998
   33SM24    H2 4836   1.811   2.923   8.363 -0.4585 -2.6164  1.0812
   33SM24    C2 4837   1.876   2.864   8.606  0.4391  0.6197 -0.1259
   33SM24    H3 4838   1.926   2.842   8.701  1.8350 -0.7403 -1.1346
   33SM24    H4 4839   1.874   2.972   8.598 -1.3962  0.8887  3.2011
   33SM24    H5 4840   1.768   2.849   8.614  0.2198  2.1396 -0.2291
   33SM24    C3 4841   1.864   2.681   8.464  0.1022 -0.1793  0.4251
   33SM24    H6 4842   1.906   2.617   8.387  0.8285 -0.4002  0.9906
   33SM24    H7 4843   1.867   2.612   8.549 -2.2226 -1.6824 -0.6509
   33SM24    H8 4844   1.758   2.687   8.443 -0.2056 -2.6350  1.0639
   33SM24    C4 4845   2.085   2.783   8.523 -0.1446 -0.6324  0.8418
   33SM24    H9 4846   2.126   2.871   8.573  1.8709 -0.6433 -0.7083
   33SM24   H10 4847   2.095   2.697   8.590 -0.0602 -1.9595 -0.8461
   33SM24   H11 4848   2.159   2.766   8.444 -1.8902 -2.6806 -0.4093
   33SM24    C5 4849   2.006   3.030   8.347 -0.8440 -0.1729  0.2991
   33SM24   H12 4850   2.112   3.014   8.365 -0.9376 -2.0581 -0.7051
   33SM24   H13 4851   1.967   3.107   8.413 -2.0525 -1.7639  1.4849
   33SM24    P1 4852   2.109   3.073   8.107 -0.0045 -0.1787  0.3129
   33SM24    O1 4853   2.240   3.055   8.171 -0.1422 -0.0517 -0.0518
   33SM24    O2 4854   2.087   3.178   8.004  0.1483  0.2901 -0.4140
   33SM24    O3 4855   1.995   3.094   8.220  0.1527 -0.2338 -0.4198
   33SM24    O4 4856   2.060   2.940   8.050 -0.2623  0.4684 -0.0899
   33SM24    C6 4857   1.933   2.932   7.983 -0.3442  0.0071 -0.1624
   33SM24   H14 4858   1.890   2.832   7.994 -0.9929  0.4161  1.1714
   33SM24   H15 4859   1.865   3.008   8.021 -1.2800 -0.3662 -1.0658
   33SM24    C7 4860   1.929   2.957   7.835  0.5815  0.3814  0.6866
   33SM24   H16 4861   1.972   3.053   7.809  0.6590 -0.4987 -2.7423
   33SM24    N2 4862   1.784   2.963   7.786  0.0090  0.6522  0.5029
   33SM24    HN 4863   1.710   2.941   7.851  0.4498  0.3795  0.9125
   33SM24    C8 4864   1.998   2.852   7.739  0.2518  0.1977  0.1455
   33SM24   OSM 4865   1.922   2.730   7.733 -0.9203 -0.2821 -0.0401
   33SM24   HSM 4866   1.843   2.742   7.783 -0.8676 -0.2428  0.0366
   33SM24   H17 4867   2.007   2.893   7.638 -0.4997  1.8707  0.7290
   33SM24    C9 4868   2.139   2.813   7.783 -0.1086 -0.2950 -0.6397
   33SM24   H18 4869   2.141   2.764   7.879  1.4541 -1.7633 -1.4088
   33SM24   C10 4870   2.249   2.835   7.715 -0.8677 -0.4299  0.4633
   33SM24   H19 4871   2.234   2.878   7.617 -0.8839  0.9214  1.0459
   33SM24   C11 4872   2.392   2.809   7.767 -0.3388 -0.3199 -0.8638
   33SM24   H20 4873   2.386   2.757   7.862 -1.2084  1.6277  0.1851
   33SM24   H21 4874   2.435   2.908   7.783 -1.2805 -0.1164  0.4984
   33SM24   C12 4875   2.472   2.720   7.675 -0.0736  0.1434 -0.0230
   33SM24   H22 4876   2.454   2.614   7.695 -1.8057 -0.1964 -3.1312
   33SM24   H23 4877   2.579   2.737   7.691 -0.5455  4.1857 -0.6212
   33SM24   C13 4878   2.453   2.745   7.522  0.5117 -0.6670  0.5318
   33SM24   H24 4879   2.499   2.844   7.516 -0.5073 -0.3250 -2.4000
   33SM24   H25 4880   2.349   2.753   7.490  1.0945  1.5665 -0.8928
   33SM24   C14 4881   2.529   2.647   7.431 -0.4905  0.1640 -0.4980
   33SM24   H26 4882   2.498   2.543   7.442  1.3973 -0.1377  2.3897
   33SM24   H27 4883   2.632   2.642   7.466 -0.3679  0.8212 -0.7477
   33SM24   C15 4884   2.525   2.695   7.287  0.5416 -0.4756  0.3957
   33SM24   H28 4885   2.424   2.689   7.246  1.2008  0.0977 -1.3995
   33SM24   H29 4886   2.586   2.628   7.227 -0.5441 -1.5651  0.4880
   33SM24   C16 4887   2.589   2.828   7.250  0.0522 -0.0950 -0.5570
   33SM24   H30 4888   2.698   2.827   7.253  0.0420  1.9282  1.4511
   33SM24   H31 4889   2.544   2.909   7.307 -0.7549 -1.8295  1.3177
   33SM24   C17 4890   2.560   2.866   7.108 -0.5923  0.2638  0.1430
   33SM24   H32 4891   2.610   2.962   7.097 -1.7884  0.9588  0.6908
   33SM24   H33 4892   2.453   2.885   7.106 -0.2388  2.3273  0.0166
   33SM24   C18 4893   2.608   2.769   6.997  0.1741 -0.2025 -0.4962
   33SM24   H34 4894   2.532   2.691   6.985  1.2367 -1.2473 -0.5855
   33SM24   H34 4895   2.701   2.717   7.019  1.8307  1.9145 -2.2900
   33SM24   C19 4896   2.624   2.843   6.868  0.0813  0.2271 -0.8336
   33SM24   H35 4897   2.698   2.921   6.886  0.8195 -0.9482  1.4351
   33SM24   H36 4898   2.531   2.894   6.846 -0.0312  0.4945  0.2123
   33SM24   C20 4899   2.662   2.748   6.751  0.1696 -1.1181 -0.4304
   33SM24   H37 4900   2.587   2.672   6.728 -0.7424 -0.5752  0.7567
   33SM24   H38 4901   2.737   2.679   6.790 -1.4601 -2.6355  0.0937
   33SM24   C21 4902   2.727   2.821   6.629 -0.3045 -0.4019  0.3893
   33SM24   H39 4903   2.728   2.749   6.547  1.7664 -0.1312  0.1523
   33SM24   H40 4904   2.834   2.840   6.640 -0.8617  2.6405  0.9689
   33SM24   C22 4905   2.669   2.957   6.585  0.0252 -0.5675  0.4757
   33SM24   H41 4906   2.730   3.010   6.512 -2.1758 -1.2157 -1.8937
   33SM24   H42 4907   2.679   3.028   6.668 -2.5455  0.3716  0.0331
   33SM24   C23 4908   2.519   2.940   6.545  0.1667  0.0799 -0.2110
   33SM24   H43 4909   2.482   3.043   6.536  0.0328 -0.1258 -2.3247
   33SM24   H44 4910   2.506   2.903   6.443 -0.9741 -0.5501  0.1526
   33SM24   H45 4911   2.461   2.894   6.625 -1.9948  1.3987 -0.9667
   33SM24   C24 4912   1.745   3.006   7.669 -0.0783  0.5329  0.6448
   33SM24   O33 4913   1.814   3.054   7.582  0.2433  0.5063  0.3816
   33SM24   C25 4914   1.598   3.005   7.644  1.0372 -0.4609  0.0310
   33SM24   H50 4915   1.566   3.090   7.583 -2.2500 -0.5734  1.4882
   33SM24   H51 4916   1.544   3.008   7.739  0.0030 -3.7464 -0.4074
   33SM24   C26 4917   1.550   2.876   7.569  0.0986 -0.2579  0.1877
   33SM24   H52 4918   1.588   2.789   7.623  2.1189  2.0731  2.6670
   33SM24   H53 4919   1.596   2.865   7.471  2.9235 -0.4718  1.4697
   33SM24   C27 4920   1.396   2.870   7.551  0.5546  0.1105 -0.5454
   33SM24   H54 4921   1.358   2.947   7.483  0.7108  1.2610  0.6257
   33SM24   H55 4922   1.348   2.882   7.648  1.2394  5.3110 -0.6886
   33SM24   C28 4923   1.333   2.736   7.492 -0.0101  0.3389 -0.5273
   33SM24   H56 4924   1.260   2.694   7.562 -0.1489 -0.2133 -0.9955
   33SM24   H57 4925   1.422   2.674   7.486  0.1311  0.4468  0.4150
   33SM24   C29 4926   1.280   2.739   7.348  0.0036 -0.4395 -0.3230
   33SM24   H58 4927   1.352   2.806   7.302  0.9791 -0.0614  1.7377
   33SM24   H59 4928   1.189   2.799   7.351  0.6032  0.5326 -1.0908
   33SM24   C30 4929   1.273   2.610   7.262 -0.4978  0.1757  0.0674
   33SM24   H60 4930   1.201   2.544   7.309  1.0792 -0.8624  1.0804
   33SM24   H61 4931   1.370   2.567   7.289 -0.3415  0.3359 -0.2379
   33SM24   C31 4932   1.233   2.642   7.116  0.3694 -0.0673 -0.1926
   33SM24   H62 4933   1.136   2.692   7.112 -0.7972 -2.2139  0.2766
   33SM24   H63 4934   1.226   2.551   7.056 -1.3956 -1.6868  2.3715
   33SM24   C32 4935   1.338   2.726   7.029 -0.6760 -0.2967 -0.7550
   33SM24   H64 4936   1.436   2.699   7.069 -0.4615  0.9804 -0.3970
   33SM24   H65 4937   1.324   2.828   7.064  0.8771 -0.5981  0.8433
   33SM24   C33 4938   1.323   2.713   6.878 -0.4906  0.0661 -0.3217
   33SM24   H66 4939   1.370   2.795   6.824 -0.9473 -0.4591 -1.5492
   33SM24   H67 4940   1.214   2.715   6.868 -0.6732 -0.8851  1.2321
   33SM24   C34 4941   1.340   2.575   6.812 -0.1993  0.4285 -0.6563
   33SM24   H68 4942   1.275   2.498   6.856  1.8738 -0.5304  0.7933
   33SM24   H69 4943   1.443   2.549   6.833 -0.2840  2.1124  2.1513
   33SM24   C35 4944   1.312   2.569   6.661  0.0738  0.8750  0.7111
   33SM24   H70 4945   1.333   2.469   6.625  1.6682  1.6988 -0.7746
   33SM24   H71 4946   1.362   2.644   6.599  1.7324 -1.1665 -0.4900
   33SM24   C36 4947   1.168   2.597   6.626  0.0398  0.0091  0.3820
   33SM24   H72 4948   1.140   2.696   6.662 -0.7633  1.1608 -3.2189
   33SM24   H73 4949   1.099   2.520   6.658 -0.3850 -0.4401 -1.5460
   33SM24   C37 4950   1.140   2.602   6.476 -0.1258  0.6203  0.0353
   33SM24   H74 4951   1.197   2.521   6.431 -1.5750  2.2355 -5.0482
   33SM24   H75 4952   1.184   2.695   6.439  0.7964  0.6760  1.2160
   33SM24   C38 4953   0.990   2.591   6.442 -0.2363 -0.1289 -0.0824
   33SM24   H76 4954   0.963   2.486   6.453  3.6458 -1.0736  1.0137
   33SM24   H77 4955   0.986   2.616   6.336  1.3215 -2.3237 -0.6916
   33SM24   C39 4956   0.889   2.692   6.504  0.4687  1.1811 -0.0212
   33SM24   H78 4957   0.904   2.797   6.480  1.4827  1.2021  0.7089
   33SM24   H79 4958   0.903   2.702   6.611  0.6274 -0.7963  0.1592
   33SM24   C40 4959   0.743   2.647   6.477  0.0880 -0.3767  0.2169
   33SM24   H80 4960   0.746   2.545   6.514  1.3006  0.2932  2.0307
   33SM24   H81 4961   0.675   2.701   6.543 -0.2153  0.1249 -0.4969
   33SM24   C41 4962   0.694   2.667   6.334 -0.4232 -0.3591 -0.0271
   33SM24   H82 4963   0.635   2.757   6.320  0.1611 -0.1865 -1.4502
   33SM24   H83 4964   0.784   2.664   6.273  0.3297  1.9292  0.9309
   33SM24   C42 4965   0.591   2.557   6.299 -0.5539  0.3717 -0.5893
   33SM24   H84 4966   0.496   2.593   6.339 -0.8176 -1.2922  0.3407
   33SM24   H85 4967   0.601   2.462   6.351 -1.6079 -0.2028 -1.4103
   33SM24   C43 4968   0.588   2.522   6.149  0.1349 -0.0571  0.5762
   33SM24   H86 4969   0.595   2.616   6.094  1.5354 -0.5471 -0.1012
   33SM24   H87 4970   0.494   2.475   6.122  0.1925  1.0967 -1.7949
   33SM24   C44 4971   0.714   2.438   6.112 -0.1219  0.0706 -0.5734
   33SM24   H88 4972   0.804   2.490   6.147  1.1668 -2.0590 -0.6914
   33SM24   H89 4973   0.694   2.349   6.172 -2.1073  2.1647  2.0141
   33SM24   C45 4974   0.728   2.396   5.962  0.4750  0.5361  0.7095
   33SM24   H90 4975   0.652   2.325   5.930  1.8754 -1.0134  0.7124
   33SM24   H91 4976   0.825   2.347   5.951  0.1543 -0.5081  2.2841
   33SM24   C46 4977   0.754   2.518   5.864  0.0040  0.4459 -0.9475
   33SM24   H92 4978   0.667   2.583   5.867 -1.0533 -1.0030  0.8072
   33SM24   H93 4979   0.847   2.571   5.884  0.6065 -0.9066 -0.1206
   33SM24   C47 4980   0.774   2.474   5.721  0.2236  0.5444  0.1782
   33SM24   H94 4981   0.831   2.547   5.663  0.1071 -1.2471 -2.3107
   33SM24   H95 4982   0.830   2.381   5.712  3.4114  2.4937 -1.2651
   33SM24   H96 4983   0.680   2.468   5.665  0.3064 -0.3902  0.1354
   34SM24    N1 4984   2.355   4.521   8.088  0.2869  0.4153 -0.6459
   34SM24    C1 4985   2.443   4.401   8.096 -0.2266 -0.6873  0.2504
   34SM24    H1 4986   2.484   4.395   8.197 -0.7831  1.0467  0.6037
   34SM24    H2 4987   2.380   4.313   8.084 -0.6827 -0.2565 -0.6068
   34SM24    C2 4988   2.430   4.637   8.136 -0.2200 -0.6127  0.3572
   34SM24    H3 4989   2.514   4.661   8.070 -0.3317 -0.7229  0.1725
   34SM24    H4 4990   2.377   4.732   8.131 -0.1234 -0.5704  0.0633
   34SM24    H5 4991   2.471   4.620   8.235 -0.2892 -0.0820  0.4821
   34SM24    C3 4992   2.309   4.561   7.956 -0.0916  0.3858 -0.1650
   34SM24    H6 4993   2.244   4.648   7.958  0.5005  0.8195  0.6917
   34SM24    H7 4994   2.400   4.575   7.897  0.0285  0.3271  0.0034
   34SM24    H8 4995   2.252   4.476   7.919 -1.4637  0.4392  1.7677
   34SM24    C4 4996   2.234   4.503   8.174 -0.5612  1.0638  0.3695
   34SM24    H9 4997   2.251   4.470   8.276 -3.5781  0.8749  0.8573
   34SM24   H10 4998   2.179   4.597   8.184 -1.6725  0.3961  0.5617
   34SM24   H11 4999   2.167   4.427   8.133 -0.6429  1.9431 -1.1584
   34SM24    C5 5000   2.562   4.381   7.990 -0.1152 -0.3787 -0.1580
   34SM24   H12 5001   2.622   4.472   7.988 -1.8555  0.7654 -0.9990
   34SM24   H13 5002   2.531   4.377   7.886 -1.4952  0.3410  0.2096
   34SM24    P1 5003   2.608   4.114   7.970  0.1271 -0.3229  0.5144
   34SM24    O1 5004   2.477   4.078   8.027 -0.2356 -0.2887 -0.6616
   34SM24    O2 5005   2.726   4.028   7.986 -0.1412 -0.4765  0.3131
   34SM24    O3 5006   2.642   4.266   8.021 -0.1481 -0.1790 -0.3835
   34SM24    O4 5007   2.576   4.132   7.813  0.2796 -0.2481 -0.6375
   34SM24    C6 5008   2.674   4.178   7.724 -0.1251  0.5408 -0.0307
   34SM24   H14 5009   2.624   4.240   7.650  0.0177  0.3418 -0.2936
   34SM24   H15 5010   2.737   4.254   7.772 -0.1601  0.6701 -0.1860
   34SM24    C7 5011   2.767   4.073   7.672 -0.4213  0.6090  0.4621
   34SM24   H16 5012   2.777   3.990   7.741 -1.3326  0.9227  0.9825
   34SM24    N2 5013   2.895   4.140   7.629  0.2711 -0.1966  0.1335
   34SM24    HN 5014   2.901   4.240   7.627 -2.1405 -0.0077  1.1479
   34SM24    C8 5015   2.718   4.024   7.531 -0.6239 -0.5238  1.0616
   34SM24   OSM 5016   2.686   4.127   7.443  0.2569 -0.1887  1.2767
   34SM24   HSM 5017   2.766   4.176   7.429 -0.0108 -0.0794  0.0711
   34SM24   H17 5018   2.800   3.971   7.483 -0.5501  0.9304 -0.4957
   34SM24    C9 5019   2.596   3.933   7.546  0.6301  0.1992 -0.7703
   34SM24   H18 5020   2.512   3.984   7.591  0.6754 -0.7281  0.3933
   34SM24   C10 5021   2.600   3.803   7.520  0.3678  0.6010 -0.0643
   34SM24   H19 5022   2.684   3.758   7.468 -0.5372 -3.0207  1.4784
   34SM24   C11 5023   2.483   3.712   7.545  0.9801  0.2388  0.3290
   34SM24   H20 5024   2.400   3.770   7.584 -0.1341  0.1101 -1.8102
   34SM24   H21 5025   2.509   3.633   7.615 -0.2980  0.8448  1.5058
   34SM24   C12 5026   2.442   3.638   7.419  0.0005  0.5789 -0.3691
   34SM24   H22 5027   2.364   3.568   7.448  0.6826 -0.4884 -1.0971
   34SM24   H23 5028   2.520   3.566   7.398 -1.3726 -1.3190  0.8399
   34SM24   C13 5029   2.401   3.717   7.293  0.9797  0.8298  0.2654
   34SM24   H24 5030   2.480   3.784   7.260  0.5387  1.5947  0.7451
   34SM24   H25 5031   2.314   3.779   7.316  1.0501  0.8803  0.3975
   34SM24   C14 5032   2.372   3.605   7.186  0.4228  0.2610  0.2657
   34SM24   H26 5033   2.299   3.534   7.225  0.2572  0.7188  0.7944
   34SM24   H27 5034   2.462   3.560   7.144 -0.3600 -0.9012 -0.2103
   34SM24   C15 5035   2.288   3.674   7.072  0.5529 -0.7000  0.1914
   34SM24   H28 5036   2.191   3.713   7.102  0.5989 -0.7404  0.3946
   34SM24   H29 5037   2.256   3.593   7.006  1.7565 -0.4211 -0.7579
   34SM24   C16 5038   2.372   3.772   6.988 -0.0044  0.0815 -0.1484
   34SM24   H30 5039   2.466   3.732   6.949 -0.2661 -0.2093 -0.4822
   34SM24   H31 5040   2.400   3.857   7.050  3.2625 -0.2023 -1.1513
   34SM24   C17 5041   2.292   3.831   6.874 -0.2683 -0.1793 -0.2378
   34SM24   H32 5042   2.357   3.887   6.808  1.4320  0.1312  1.6600
   34SM24   H33 5043   2.217   3.900   6.913 -2.1050 -2.6669  0.8099
   34SM24   C18 5044   2.210   3.738   6.785  0.4646 -0.7111 -0.5252
   34SM24   H34 5045   2.127   3.707   6.849  0.9618  0.6945  0.8417
   34SM24   H34 5046   2.272   3.653   6.756  2.5240  0.1729  1.1718
   34SM24   C19 5047   2.163   3.809   6.659 -0.2774 -0.2689  0.3657
   34SM24   H35 5048   2.101   3.890   6.697 -2.0204 -1.9085  1.1006
   34SM24   H36 5049   2.093   3.741   6.611 -1.2613 -0.7335  2.3956
   34SM24   C20 5050   2.281   3.843   6.572 -0.2246 -0.5742 -0.6083
   34SM24   H37 5051   2.340   3.752   6.559 -0.7264 -0.7625 -1.6201
   34SM24   H38 5052   2.344   3.916   6.623 -1.9615 -0.3833  1.3168
   34SM24   C21 5053   2.239   3.911   6.447  0.5283  0.2099 -0.9772
   34SM24   H39 5054   2.326   3.945   6.390  0.5835 -1.1896 -1.7806
   34SM24   H40 5055   2.165   3.988   6.464 -1.1939 -1.5814 -0.1540
   34SM24   C22 5056   2.172   3.799   6.357 -0.3173  0.1572  0.4025
   34SM24   H41 5057   2.124   3.851   6.273 -2.1265 -2.0419  0.0000
   34SM24   H42 5058   2.084   3.749   6.397 -0.6913  0.1071 -0.4520
   34SM24   C23 5059   2.278   3.696   6.300  0.3297  0.2068  0.1366
   34SM24   H43 5060   2.351   3.762   6.253  0.2800 -1.2829 -2.1176
   34SM24   H44 5061   2.320   3.627   6.372  0.6262  2.3213  2.0308
   34SM24   H45 5062   2.246   3.631   6.219 -1.2855  1.4787 -0.2719
   34SM24   C24 5063   3.007   4.073   7.602  0.0848 -0.5062  0.4015
   34SM24   O33 5064   3.015   3.950   7.617  0.0182 -0.0238 -0.1807
   34SM24   C25 5065   3.131   4.148   7.564  0.3369  0.1138 -0.7396
   34SM24   H50 5066   3.216   4.080   7.553  2.1124  1.8827  1.5011
   34SM24   H51 5067   3.149   4.210   7.652 -2.7193 -0.0880  0.0679
   34SM24   C26 5068   3.126   4.226   7.433  0.0596  0.1244 -0.2931
   34SM24   H52 5069   3.054   4.306   7.450  2.6260  2.7769 -1.3060
   34SM24   H53 5070   3.092   4.159   7.354 -0.4237 -0.3296  0.3029
   34SM24   C27 5071   3.270   4.284   7.395 -0.0627  0.3996  0.8406
   34SM24   H54 5072   3.348   4.212   7.370 -0.9590 -0.7655  1.3288
   34SM24   H55 5073   3.301   4.330   7.488  1.4134 -1.1578  1.1462
   34SM24   C28 5074   3.246   4.381   7.280  0.1594 -0.8137  0.0903
   34SM24   H56 5075   3.330   4.450   7.272 -0.1440 -0.5250 -0.6324
   34SM24   H57 5076   3.157   4.442   7.287 -0.0698 -1.0907 -0.3368
   34SM24   C29 5077   3.227   4.303   7.149  0.4422 -0.5458 -0.0673
   34SM24   H58 5078   3.135   4.247   7.137 -0.5209  1.2632 -1.5203
   34SM24   H59 5079   3.304   4.228   7.134  0.6630 -0.2919 -0.2145
   34SM24   C30 5080   3.235   4.400   7.026 -0.6132 -0.5945 -0.8032
   34SM24   H60 5081   3.331   4.449   7.010 -0.4155 -1.2916 -1.8185
   34SM24   H61 5082   3.180   4.491   7.050  2.0563  1.8830 -3.6516
   34SM24   C31 5083   3.165   4.352   6.900  0.1045  0.1706  0.9095
   34SM24   H62 5084   3.069   4.306   6.926  0.7855 -1.7315  0.1759
   34SM24   H63 5085   3.223   4.269   6.859  1.2930 -0.3907  3.6025
   34SM24   C32 5086   3.142   4.457   6.794 -0.2614  0.0311 -0.4735
   34SM24   H64 5087   3.234   4.513   6.778 -0.8388  0.3339 -2.8825
   34SM24   H65 5088   3.063   4.524   6.831  1.3669  0.0887  3.1297
   34SM24   C33 5089   3.096   4.396   6.663 -1.1745  0.0200  0.6468
   34SM24   H66 5090   3.013   4.327   6.672 -1.0051 -0.2435  0.2228
   34SM24   H67 5091   3.172   4.323   6.635 -1.8572 -0.2480 -0.5404
   34SM24   C34 5092   3.092   4.496   6.547  0.6913  0.4599  0.7198
   34SM24   H68 5093   3.099   4.448   6.450  1.7864 -0.0974  1.0596
   34SM24   H69 5094   3.166   4.574   6.562 -1.9947  3.2756 -0.2119
   34SM24   C35 5095   2.959   4.580   6.552 -0.1047 -0.2099 -0.0172
   34SM24   H70 5096   2.987   4.659   6.621 -0.8814 -0.9780  1.1908
   34SM24   H71 5097   2.876   4.530   6.602 -0.7993 -0.1106 -1.0518
   34SM24   C36 5098   2.914   4.647   6.427  0.0055 -0.8651 -0.5257
   34SM24   H72 5099   2.805   4.657   6.425 -0.0836 -1.8979 -1.5777
   34SM24   H73 5100   2.924   4.574   6.346 -0.9201 -2.3115  0.6377
   34SM24   C37 5101   2.986   4.774   6.393  0.1535  0.5135 -0.0399
   34SM24   H74 5102   3.090   4.765   6.425 -0.0836 -0.9660  0.3829
   34SM24   H75 5103   2.940   4.853   6.452  0.5661  0.7347 -0.0163
   34SM24   C38 5104   2.996   4.811   6.250 -0.0983 -0.3451  1.1455
   34SM24   H76 5105   3.026   4.915   6.245 -0.0652 -0.4236 -1.1821
   34SM24   H77 5106   2.897   4.808   6.205  1.0245  2.0981 -1.7129
   34SM24   C39 5107   3.100   4.722   6.178  0.5847 -0.0875  0.5173
   34SM24   H78 5108   3.064   4.619   6.187 -1.1340  0.4469 -0.1046
   34SM24   H79 5109   3.196   4.729   6.229  0.6849  0.8930  0.1978
   34SM24   C40 5110   3.103   4.751   6.030  0.5723  0.0864  0.3814
   34SM24   H80 5111   3.001   4.748   5.993  0.0280  1.9324  1.6718
   34SM24   H81 5112   3.145   4.850   6.011 -1.9105  0.7810 -1.6997
   34SM24   C41 5113   3.196   4.660   5.946  0.1415  1.3290  0.3339
   34SM24   H82 5114   3.300   4.673   5.976  0.9757  1.8267 -2.5504
   34SM24   H83 5115   3.169   4.555   5.961  0.1307  1.6064  2.2789
   34SM24   C42 5116   3.189   4.687   5.798 -0.3143  1.1374 -0.3821
   34SM24   H84 5117   3.242   4.782   5.785  1.5311  0.1090 -0.5365
   34SM24   H85 5118   3.090   4.719   5.767 -0.7269 -1.0407 -1.3806
   34SM24   C43 5119   3.249   4.571   5.705  0.2839  0.3076  0.2237
   34SM24   H86 5120   3.216   4.476   5.748  0.4450  0.8925  1.6517
   34SM24   H87 5121   3.358   4.581   5.704  0.1218  2.6000  1.9438
   34SM24   C44 5122   3.182   4.597   5.572  0.3576 -0.6434  0.3682
   34SM24   H88 5123   3.075   4.579   5.579  0.4153 -0.7955  0.8778
   34SM24   H89 5124   3.201   4.700   5.542  0.7102  0.3377  3.8269
   34SM24   C45 5125   3.241   4.502   5.474  0.3180 -0.1672 -0.3607
   34SM24   H90 5126   3.216   4.402   5.510  2.0705  0.4955  2.8927
   34SM24   H91 5127   3.348   4.522   5.483  0.2452  0.6867 -1.3202
   34SM24   C46 5128   3.184   4.520   5.334  0.1330  0.0797 -0.1758
   34SM24   H92 5129   3.078   4.506   5.354  0.8875 -0.8795  3.3323
   34SM24   H93 5130   3.212   4.619   5.297 -1.8731  0.1223 -1.6730
   34SM24   C47 5131   3.211   4.413   5.226  0.1527 -0.6358 -0.1152
   34SM24   H94 5132   3.319   4.418   5.214 -0.1143 -0.6618 -2.8301
   34SM24   H95 5133   3.194   4.311   5.261  0.6222 -1.2366 -1.5861
   34SM24   H96 5134   3.159   4.445   5.135 -0.0983 -0.6055  0.0347
   35SM24    N1 5135   2.152   4.027   7.762  0.5153  0.3274  0.1771
   35SM24    C1 5136   2.011   4.074   7.788  0.5639  0.2398 -0.3598
   35SM24    H1 5137   1.951   4.098   7.701 -0.8680  0.6906  0.7308
   35SM24    H2 5138   1.957   3.992   7.835 -2.3410  1.7617 -0.9155
   35SM24    C2 5139   2.160   3.941   7.643 -0.0367 -0.1848  0.5074
   35SM24    H3 5140   2.143   3.834   7.655  0.4187 -0.3940 -0.6058
   35SM24    H4 5141   2.084   3.972   7.571 -0.4456 -0.0296  1.0080
   35SM24    H5 5142   2.257   3.945   7.593  0.3335 -1.4569  1.0838
   35SM24    C3 5143   2.244   4.145   7.717  0.2216 -0.7253  0.2546
   35SM24    H6 5144   2.345   4.114   7.687 -0.1479 -0.7626 -0.9844
   35SM24    H7 5145   2.206   4.201   7.632  1.6064  0.3608  0.3174
   35SM24    H8 5146   2.255   4.216   7.799  0.7139 -1.3891  0.7801
   35SM24    C4 5147   2.224   3.962   7.875 -0.3090 -0.0139  0.6825
   35SM24    H9 5148   2.177   3.864   7.887 -1.2182 -0.0799 -2.8702
   35SM24   H10 5149   2.327   3.935   7.855 -0.5813 -0.7934  0.2817
   35SM24   H11 5150   2.216   4.020   7.967 -0.0784 -0.8963  1.2644
   35SM24    C5 5151   2.005   4.197   7.877 -0.1219 -0.3301  0.4034
   35SM24   H12 5152   2.031   4.289   7.825 -0.5812  0.1017  0.9288
   35SM24   H13 5153   2.065   4.189   7.968 -0.3031  3.2943  0.9135
   35SM24    P1 5154   1.812   4.354   7.922 -0.2031 -0.1023 -0.0523
   35SM24    O1 5155   1.901   4.442   7.999 -0.1183 -0.0376  0.2942
   35SM24    O2 5156   1.670   4.348   7.971  0.2729  0.0009 -0.0411
   35SM24    O3 5157   1.874   4.206   7.916 -0.1050  0.3635 -0.3197
   35SM24    O4 5158   1.805   4.427   7.775 -0.2786 -0.3193 -1.1427
   35SM24    C6 5159   1.732   4.370   7.675 -0.3263  0.6660 -0.0514
   35SM24   H14 5160   1.749   4.262   7.678 -0.6781  0.5985 -0.4329
   35SM24   H15 5161   1.626   4.392   7.689 -0.6920 -0.8954 -0.1553
   35SM24    C7 5162   1.766   4.421   7.536  0.1975  0.4856  0.5176
   35SM24   H16 5163   1.727   4.522   7.526 -0.5908  0.0262 -1.1354
   35SM24    N2 5164   1.698   4.340   7.426  0.1727 -0.1485 -0.4591
   35SM24    HN 5165   1.662   4.252   7.460  1.6686 -0.5882  0.0075
   35SM24    C8 5166   1.922   4.428   7.494 -0.1600  0.4616  1.2483
   35SM24   OSM 5167   1.972   4.296   7.524  0.1461 -0.0270  0.1591
   35SM24   HSM 5168   1.925   4.232   7.473 -0.8654 -1.1849  2.4426
   35SM24   H17 5169   1.927   4.464   7.391 -1.2461  0.2159  1.1065
   35SM24    C9 5170   2.014   4.516   7.577 -0.2074  0.0163  0.2542
   35SM24   H18 5171   2.017   4.480   7.679  1.5804  0.2467  0.3084
   35SM24   C10 5172   2.090   4.616   7.526  0.6661  0.1226  1.0930
   35SM24   H19 5173   2.077   4.649   7.425  0.4414  2.0026  1.7193
   35SM24   C11 5174   2.200   4.684   7.608 -0.3634 -0.3095 -0.3652
   35SM24   H20 5175   2.243   4.617   7.682  0.1944  0.8966  0.4220
   35SM24   H21 5176   2.154   4.769   7.657 -2.5515 -1.0811 -1.0394
   35SM24   C12 5177   2.308   4.744   7.522  0.2537  0.0846 -0.0531
   35SM24   H22 5178   2.378   4.674   7.477  1.9335  0.6460  1.6022
   35SM24   H23 5179   2.374   4.798   7.590  2.0954 -0.3691 -1.4282
   35SM24   C13 5180   2.260   4.852   7.411  0.2130 -0.2346  0.1454
   35SM24   H24 5181   2.213   4.938   7.458 -2.3076 -0.7290 -1.4017
   35SM24   H25 5182   2.183   4.815   7.344  0.9233  0.5769 -1.1355
   35SM24   C14 5183   2.379   4.899   7.333 -0.0676 -0.5666 -0.3250
   35SM24   H26 5184   2.439   4.812   7.305  1.4161  0.1780  0.4690
   35SM24   H27 5185   2.436   4.959   7.403 -0.0522  0.0612 -0.8708
   35SM24   C15 5186   2.356   4.989   7.208  0.0289 -0.2299  0.1256
   35SM24   H28 5187   2.452   5.032   7.180 -0.6003  0.2839 -1.2775
   35SM24   H29 5188   2.297   5.071   7.249 -0.7501 -0.7060 -0.0375
   35SM24   C16 5189   2.271   4.916   7.099 -0.5084 -0.8359  0.0819
   35SM24   H30 5190   2.179   4.879   7.145 -0.7010 -0.4241  0.0305
   35SM24   H31 5191   2.316   4.821   7.068  1.2307  0.0775 -0.2351
   35SM24   C17 5192   2.230   5.014   6.974 -0.1957  0.6358  0.5540
   35SM24   H32 5193   2.311   5.078   6.940  0.7192 -1.7512 -1.9170
   35SM24   H33 5194   2.161   5.086   7.018  1.8792  1.2701  2.9139
   35SM24   C18 5195   2.166   4.930   6.864  0.0184  0.9693 -0.3749
   35SM24   H34 5196   2.088   4.862   6.899  0.1805 -0.0535 -1.9106
   35SM24   H34 5197   2.238   4.862   6.819  1.4393  2.2042  0.0190
   35SM24   C19 5198   2.111   5.010   6.750 -0.9518  0.5559 -0.1999
   35SM24   H35 5199   2.037   5.080   6.790 -2.9026 -0.8180 -1.3083
   35SM24   H36 5200   2.052   4.938   6.693  1.0871 -2.6956  1.6750
   35SM24   C20 5201   2.218   5.074   6.662 -0.5214  0.2556 -0.0794
   35SM24   H37 5202   2.298   5.003   6.641  0.2599  1.3868 -1.0430
   35SM24   H38 5203   2.253   5.155   6.727 -0.5959  0.3051 -0.0983
   35SM24   C21 5204   2.161   5.144   6.524 -0.5539  0.0394 -0.4529
   35SM24   H39 5205   2.215   5.237   6.506 -2.0599  1.2129  0.9512
   35SM24   H40 5206   2.057   5.169   6.546 -0.4819  1.2888 -1.4851
   35SM24   C22 5207   2.168   5.045   6.402  0.3574 -0.2059 -0.4051
   35SM24   H41 5208   2.271   5.050   6.366  0.5532 -0.9160  0.0455
   35SM24   H42 5209   2.111   5.091   6.321 -0.5402 -0.7392 -0.0896
   35SM24   C23 5210   2.123   4.901   6.421 -0.3145 -0.1745  0.5031
   35SM24   H43 5211   2.204   4.850   6.474 -0.7683 -1.1357  0.2943
   35SM24   H44 5212   2.039   4.879   6.487 -0.3583  0.5201  0.6772
   35SM24   H45 5213   2.109   4.845   6.328 -1.6787  2.2608 -0.7977
   35SM24   C24 5214   1.689   4.372   7.294  0.3576 -0.2822  0.2313
   35SM24   O33 5215   1.722   4.484   7.260  0.7310  0.1508  0.4704
   35SM24   C25 5216   1.667   4.256   7.193 -0.2924  0.0929 -0.6811
   35SM24   H50 5217   1.569   4.211   7.209 -0.6553  0.9223 -0.5156
   35SM24   H51 5218   1.745   4.184   7.217  1.1988  0.9361 -2.8056
   35SM24   C26 5219   1.675   4.293   7.040  0.0744 -0.1109  0.6035
   35SM24   H52 5220   1.760   4.346   6.997 -1.9199  1.0723 -2.0151
   35SM24   H53 5221   1.591   4.361   7.036 -0.3634 -0.7348 -1.1989
   35SM24   C27 5222   1.627   4.182   6.944 -0.4036 -0.4644  0.1027
   35SM24   H54 5223   1.563   4.111   6.996 -0.9720  0.9231  1.3281
   35SM24   H55 5224   1.709   4.116   6.917  1.6128  1.9476  0.1366
   35SM24   C28 5225   1.556   4.240   6.824 -0.0681 -0.3523 -0.6823
   35SM24   H56 5226   1.619   4.314   6.775  0.5662 -0.3274  0.1680
   35SM24   H57 5227   1.462   4.288   6.851 -0.4235 -1.3624 -0.0786
   35SM24   C29 5228   1.524   4.133   6.723 -0.4055  0.4804  0.5326
   35SM24   H58 5229   1.473   4.045   6.764 -1.1034 -0.5450 -2.3287
   35SM24   H59 5230   1.615   4.106   6.669 -0.7555  2.6848 -1.2103
   35SM24   C30 5231   1.438   4.186   6.611  0.1602  0.3533  0.0356
   35SM24   H60 5232   1.477   4.275   6.562 -1.2387  1.7805  1.4410
   35SM24   H61 5233   1.346   4.219   6.660 -0.0333 -0.5619  0.2876
   35SM24   C31 5234   1.413   4.082   6.504 -0.1252  0.8729  0.3690
   35SM24   H62 5235   1.384   3.986   6.547 -0.2039  0.5891 -0.3026
   35SM24   H63 5236   1.500   4.057   6.443 -0.8497 -1.8594  0.3780
   35SM24   C32 5237   1.304   4.129   6.409  0.9197  0.2407 -0.3939
   35SM24   H64 5238   1.336   4.213   6.347  3.4611 -2.2027 -2.5166
   35SM24   H65 5239   1.210   4.158   6.457  1.8046  1.4300  0.6437
   35SM24   C33 5240   1.256   4.020   6.313 -0.4298  0.0442  0.0416
   35SM24   H66 5241   1.223   3.934   6.373 -0.4494 -0.0153 -0.0551
   35SM24   H67 5242   1.338   3.994   6.247  0.7548  2.0026  0.7102
   35SM24   C34 5243   1.134   4.068   6.235  0.2491  0.1792  0.3476
   35SM24   H68 5244   1.152   4.161   6.182 -0.4070 -0.1461 -0.4621
   35SM24   H69 5245   1.062   4.093   6.314  0.7503 -0.1403  0.9122
   35SM24   C35 5246   1.104   3.968   6.129  0.2964  0.1395  0.0429
   35SM24   H70 5247   1.194   3.955   6.069  0.8452 -0.4326  0.9626
   35SM24   H71 5248   1.038   4.010   6.053 -0.1161  1.9633  1.3883
   35SM24   C36 5249   1.056   3.824   6.163  0.3838 -0.4614 -0.0655
   35SM24   H72 5250   1.140   3.767   6.202 -0.3807  0.7904  3.5425
   35SM24   H73 5251   1.032   3.783   6.065 -1.4916  2.2628 -0.8166
   35SM24   C37 5252   0.938   3.827   6.268  0.2648  0.3286  0.7535
   35SM24   H74 5253   0.870   3.900   6.223 -0.1720 -0.3434  0.3042
   35SM24   H75 5254   0.981   3.865   6.360  0.0384  0.2522  0.8936
   35SM24   C38 5255   0.870   3.687   6.286 -0.0312 -0.5549  0.2852
   35SM24   H76 5256   0.950   3.619   6.316  1.4920  0.6671 -0.8994
   35SM24   H77 5257   0.831   3.640   6.195 -3.6819  1.6401  0.6191
   35SM24   C39 5258   0.753   3.680   6.382  0.4655  0.3798  0.1700
   35SM24   H78 5259   0.666   3.733   6.343  0.3167  0.0729  0.0822
   35SM24   H79 5260   0.791   3.723   6.474  2.2840 -0.5746 -0.1153
   35SM24   C40 5261   0.713   3.542   6.429  0.3842 -0.8293  0.4124
   35SM24   H80 5262   0.684   3.490   6.339 -4.5797  0.4864  1.1234
   35SM24   H81 5263   0.800   3.485   6.461 -0.1035 -2.3578 -0.9503
   35SM24   C41 5264   0.609   3.531   6.541 -0.1119 -0.0458 -0.4066
   35SM24   H82 5265   0.522   3.594   6.529  0.0785 -0.1631 -2.5253
   35SM24   H83 5266   0.575   3.427   6.535 -1.4025  0.4062 -0.9385
   35SM24   C42 5267   0.668   3.559   6.683  0.0396 -0.1951  0.3560
   35SM24   H84 5268   0.588   3.533   6.753  1.4417 -0.3592  1.9025
   35SM24   H85 5269   0.678   3.667   6.687 -1.1983 -0.1044  1.3295
   35SM24   C43 5270   0.806   3.495   6.711 -0.2993  0.2945 -0.5118
   35SM24   H86 5271   0.887   3.540   6.653 -0.3399  2.2659  0.9038
   35SM24   H87 5272   0.808   3.388   6.692  0.5876  0.1521  0.3025
   35SM24   C44 5273   0.846   3.526   6.857 -0.7774 -0.2702  0.3636
   35SM24   H88 5274   0.824   3.632   6.866  1.0304  0.1889 -0.2498
   35SM24   H89 5275   0.782   3.462   6.918  1.1192 -2.3752  0.2215
   35SM24   C45 5276   0.997   3.510   6.895 -0.3020 -0.4059 -0.4829
   35SM24   H90 5277   1.070   3.544   6.822 -0.5398  1.1530 -0.0246
   35SM24   H91 5278   1.017   3.403   6.902  1.4508 -0.0105  1.4383
   35SM24   C46 5279   1.034   3.568   7.028  0.0647  0.5394  0.5255
   35SM24   H92 5280   1.028   3.677   7.021  0.1920  0.5800  1.0798
   35SM24   H93 5281   0.948   3.528   7.082 -0.2369  1.9478  1.1167
   35SM24   C47 5282   1.173   3.534   7.079 -0.0942 -1.2794 -0.5962
   35SM24   H94 5283   1.190   3.591   7.171 -2.8790  0.5392 -1.1449
   35SM24   H95 5284   1.180   3.425   7.080  1.7417 -1.1926  1.4136
   35SM24   H96 5285   1.248   3.570   7.009 -0.5735  1.6347  0.3297
   36SM24    N1 5286   1.292   5.936   8.622  0.7098  0.3180 -0.8431
   36SM24    C1 5287   1.177   0.045   8.537 -0.2618 -0.2202 -0.0086
   36SM24    H1 5288   1.078   0.012   8.569 -0.2311 -0.7818 -0.4880
   36SM24    H2 5289   1.178   0.154   8.544  2.5196 -0.2034 -0.2107
   36SM24    C2 5290   1.428   0.024   8.574  0.6008  0.6438 -0.3245
   36SM24    H3 5291   1.463   5.928   8.481  2.6655  1.3299  0.0833
   36SM24    H4 5292   1.449   0.130   8.584 -1.1338  0.8815  1.0130
   36SM24    H5 5293   1.502   5.938   8.648  0.6564  1.5380  0.0477
   36SM24    C3 5294   1.271   0.037   8.763  0.1012 -0.0626 -1.1172
   36SM24    H6 5295   1.347   5.945   8.830  0.2259  4.5088  1.7490
   36SM24    H7 5296   1.281   0.146   8.765 -1.3041  0.0544  0.5567
   36SM24    H8 5297   1.179   0.011   8.816  1.3497 -0.7925  0.7591
   36SM24    C4 5298   1.267   5.788   8.615 -0.1776 -0.3585  0.0171
   36SM24    H9 5299   1.165   5.751   8.621  0.7299 -3.1011 -0.6881
   36SM24   H10 5300   1.301   5.745   8.521 -3.1403  0.5200 -1.5415
   36SM24   H11 5301   1.328   5.737   8.689  0.6964 -0.0140 -0.4499
   36SM24    C5 5302   1.192   0.024   8.391 -0.2326  0.2078 -0.9296
   36SM24   H12 5303   1.197   5.867   8.367 -1.0862 -0.2661  0.9620
   36SM24   H13 5304   1.279   0.074   8.349 -0.7808  1.0734 -1.0451
   36SM24    P1 5305   0.983   0.064   8.231  0.0243 -0.1892 -0.0392
   36SM24    O1 5306   0.882   0.164   8.216 -0.2428  0.0450  0.0258
   36SM24    O2 5307   0.941   5.882   8.272  0.4732  0.5743  0.8006
   36SM24    O3 5308   1.080   0.096   8.350 -0.1287  0.0855 -0.0015
   36SM24    O4 5309   1.060   0.044   8.097  0.1276  0.1002 -0.2170
   36SM24    C6 5310   1.135   0.149   8.048  0.3396  0.1044  0.6385
   36SM24   H14 5311   1.151   0.236   8.112  1.5161 -0.9165  1.7389
   36SM24   H15 5312   1.232   0.101   8.049  0.6723  0.7069 -0.7615
   36SM24    C7 5313   1.084   0.193   7.909  0.5212  0.2565  0.4033
   36SM24   H16 5314   1.063   0.099   7.859  0.3634  1.2897 -1.4987
   36SM24    N2 5315   1.194   0.261   7.839 -0.3806  0.5334 -0.4740
   36SM24    HN 5316   1.200   0.360   7.860  0.1735  0.7801 -1.7615
   36SM24    C8 5317   0.962   0.287   7.902  0.5521  0.2404  0.7863
   36SM24   OSM 5318   0.841   0.227   7.946  0.3144 -0.3741  0.2228
   36SM24   HSM 5319   0.854   0.192   8.033  0.6260 -0.5223  0.1196
   36SM24   H17 5320   0.990   0.369   7.968  1.1150  1.2657 -0.6815
   36SM24    C9 5321   0.926   0.341   7.767 -0.3339  0.8498 -0.8355
   36SM24   H18 5322   0.909   0.269   7.689  0.1486 -1.6719  1.3215
   36SM24   C10 5323   0.909   0.473   7.737  0.1587  0.2264 -0.9316
   36SM24   H19 5324   0.927   0.552   7.808  2.1456 -0.6895 -0.3945
   36SM24   C11 5325   0.881   0.519   7.594 -0.3670  0.0394 -0.8272
   36SM24   H20 5326   0.956   0.597   7.586  0.5735 -0.6942  0.7364
   36SM24   H21 5327   0.787   0.575   7.594 -1.1553 -1.1949  1.9633
   36SM24   C12 5328   0.875   0.423   7.479  0.3237 -0.6332  0.5104
   36SM24   H22 5329   0.781   0.369   7.481  0.1077 -0.2978 -0.4659
   36SM24   H23 5330   0.957   0.353   7.493  0.8234 -0.9419 -3.4545
   36SM24   C13 5331   0.899   0.482   7.343 -0.1653  0.0357 -0.5045
   36SM24   H24 5332   1.006   0.497   7.327 -0.4593  0.0776 -2.6360
   36SM24   H25 5333   0.845   0.576   7.342  0.0300  0.2366  2.5650
   36SM24   C14 5334   0.828   0.399   7.238 -0.1203 -0.5542  0.4428
   36SM24   H26 5335   0.861   0.432   7.139 -2.2803 -1.7746 -0.7360
   36SM24   H27 5336   0.719   0.407   7.239 -0.1695  0.0724 -2.7924
   36SM24   C15 5337   0.865   0.249   7.233  0.4685 -0.1938 -0.5070
   36SM24   H28 5338   0.826   0.187   7.313 -0.4624 -0.0255 -0.8188
   36SM24   H29 5339   0.974   0.246   7.235  0.4666 -0.6268 -1.0520
   36SM24   C16 5340   0.797   0.195   7.108  0.1833 -0.7137 -0.2335
   36SM24   H30 5341   0.828   0.251   7.020  0.3907 -1.7340 -0.8263
   36SM24   H31 5342   0.690   0.208   7.123  0.3503  0.8132 -0.2693
   36SM24   C17 5343   0.824   0.049   7.077  0.2016  0.2548 -0.4665
   36SM24   H32 5344   0.818   5.947   7.174  1.7164 -0.0375 -0.5207
   36SM24   H33 5345   0.923   0.026   7.040  1.3418  2.8807  0.8594
   36SM24   C18 5346   0.722   5.934   6.978 -0.1888  0.2116  0.3819
   36SM24   H34 5347   0.635   0.051   6.974 -1.2328 -1.0325  1.9182
   36SM24   H34 5348   0.693   5.836   7.015  0.1246 -0.5226 -1.2574
   36SM24   C19 5349   0.780   5.925   6.837 -0.3577  0.4733 -0.6140
   36SM24   H35 5350   0.866   5.861   6.858 -0.4925  0.0105 -1.4393
   36SM24   H36 5351   0.824   0.072   6.807 -1.3353  1.4981  1.1962
   36SM24   C20 5352   0.688   5.855   6.743 -0.4605 -0.0103 -0.4186
   36SM24   H37 5353   0.590   5.899   6.758 -0.0941  0.7395 -0.1746
   36SM24   H38 5354   0.689   5.753   6.782 -0.4493  0.3293  0.4890
   36SM24   C21 5355   0.734   5.842   6.601  0.3542 -0.2733  0.3656
   36SM24   H39 5356   0.833   5.796   6.598  0.4253 -0.1498  0.7186
   36SM24   H40 5357   0.745   5.937   6.549  1.2336 -1.5891 -1.9108
   36SM24   C22 5358   0.634   5.757   6.525 -0.6749  0.5942  0.4322
   36SM24   H41 5359   0.542   5.815   6.521 -0.7425  0.3422 -2.2788
   36SM24   H42 5360   0.609   5.674   6.591  0.6479 -2.1234 -2.3660
   36SM24   C23 5361   0.674   5.705   6.385 -0.5670  0.2255  0.0049
   36SM24   H43 5362   0.577   5.679   6.342 -0.1646  0.5609 -1.1261
   36SM24   H44 5363   0.705   5.792   6.326 -1.2471  1.2490  1.1155
   36SM24   H45 5364   0.737   5.617   6.381  0.2733  0.8639 -1.5275
   36SM24   C24 5365   1.308   0.205   7.799  0.0793 -0.2828  0.1603
   36SM24   O33 5366   1.330   0.082   7.787 -0.1091 -0.0364 -0.1568
   36SM24   C25 5367   1.426   0.291   7.750 -0.0572  0.6790 -0.2613
   36SM24   H50 5368   1.515   0.257   7.802  0.8521 -1.5560 -3.1716
   36SM24   H51 5369   1.420   0.397   7.777 -0.2227  1.1792 -2.2029
   36SM24   C26 5370   1.452   0.268   7.601  0.0490  0.4093  0.0601
   36SM24   H52 5371   1.489   0.167   7.586 -0.1412  0.4698 -0.8303
   36SM24   H53 5372   1.536   0.332   7.570  0.2341  0.0984 -0.0816
   36SM24   C27 5373   1.331   0.284   7.509  0.2530 -0.6115 -0.0136
   36SM24   H54 5374   1.277   0.369   7.550  2.0917  0.6535 -0.1648
   36SM24   H55 5375   1.262   0.203   7.533 -0.3992  0.2500  1.1142
   36SM24   C28 5376   1.373   0.277   7.364  0.8284 -0.3539  0.4079
   36SM24   H56 5377   1.432   0.189   7.339 -0.8870 -1.5353  0.4479
   36SM24   H57 5378   1.442   0.360   7.346 -0.8308  1.2893  1.4355
   36SM24   C29 5379   1.259   0.279   7.256 -0.1988  0.1479 -0.5228
   36SM24   H58 5380   1.187   0.352   7.293 -1.1047 -0.8941 -0.1710
   36SM24   H59 5381   1.207   0.183   7.259 -0.6444  0.4428  2.0342
   36SM24   C30 5382   1.308   0.334   7.116  0.2110  0.6717 -0.1556
   36SM24   H60 5383   1.389   0.284   7.063 -1.0472 -0.5167 -1.0126
   36SM24   H61 5384   1.343   0.436   7.129 -1.1775  1.3238 -1.3819
   36SM24   C31 5385   1.195   0.340   7.014  0.6071 -0.1145  0.3420
   36SM24   H62 5386   1.112   0.383   7.070  0.0671 -1.6464  0.7641
   36SM24   H63 5387   1.162   0.242   6.980  1.4927  0.8285 -3.4273
   36SM24   C32 5388   1.222   0.433   6.887  0.0523 -0.4710  0.2415
   36SM24   H64 5389   1.282   0.383   6.811  2.5943  1.9779  0.5400
   36SM24   H65 5390   1.288   0.516   6.915 -0.9208  0.1107  0.8316
   36SM24   C33 5391   1.099   0.483   6.817 -0.0540 -0.2996 -0.1614
   36SM24   H66 5392   1.120   0.566   6.750 -1.3132  1.4485  1.5226
   36SM24   H67 5393   1.044   0.534   6.897 -0.3963  3.9667 -2.9453
   36SM24   C34 5394   1.012   0.380   6.747  0.0556 -0.4988 -0.0898
   36SM24   H68 5395   0.996   0.293   6.811 -0.3623 -0.2120  0.2031
   36SM24   H69 5396   1.063   0.328   6.666 -0.6908 -0.7621 -0.4004
   36SM24   C35 5397   0.887   0.447   6.696  0.7265 -0.6338  0.6456
   36SM24   H70 5398   0.843   0.391   6.613 -0.3967  1.3563 -0.1688
   36SM24   H71 5399   0.904   0.547   6.656 -1.2763 -0.9298 -1.0838
   36SM24   C36 5400   0.782   0.480   6.805 -0.0580  0.3552 -0.0415
   36SM24   H72 5401   0.830   0.538   6.883 -1.0894 -0.2293  1.0555
   36SM24   H73 5402   0.743   0.390   6.853 -0.5792 -0.7450 -2.4262
   36SM24   C37 5403   0.662   0.558   6.745  0.1959  0.0379 -0.5135
   36SM24   H74 5404   0.617   0.495   6.668  3.2459 -1.7976 -0.8805
   36SM24   H75 5405   0.707   0.647   6.700 -0.0346 -0.3568 -1.5538
   36SM24   C38 5406   0.554   0.579   6.855  0.2022 -0.1650  0.8838
   36SM24   H76 5407   0.593   0.582   6.956  0.9503  1.0020  0.5730
   36SM24   H77 5408   0.477   0.501   6.856  0.1262 -0.0852  1.3868
   36SM24   C39 5409   0.492   0.718   6.835  0.1151 -0.4053  0.6069
   36SM24   H78 5410   0.435   0.726   6.743  0.1759  1.2469  0.6825
   36SM24   H79 5411   0.573   0.790   6.826 -0.7759  0.3085 -1.8927
   36SM24   C40 5412   0.392   0.759   6.948  0.3326  0.3469  0.4259
   36SM24   H80 5413   0.437   0.765   7.047  0.9933  0.6673  0.1097
   36SM24   H81 5414   0.368   0.865   6.937 -1.0396  0.1719  1.6540
   36SM24   C41 5415   0.259   0.684   6.947  0.5343  0.7031 -0.4980
   36SM24   H82 5416   0.210   0.703   6.851 -2.2260  0.1192  0.7388
   36SM24   H83 5417   0.284   0.578   6.947  1.7937  0.9895  0.2334
   36SM24   C42 5418   0.168   0.724   7.067 -0.8778 -0.3840  0.0885
   36SM24   H84 5419   0.158   0.832   7.060  0.9094 -0.1817  0.2507
   36SM24   H85 5420   0.217   0.703   7.162 -0.0974  0.1948 -0.1803
   36SM24   C43 5421   0.036   0.651   7.064 -0.5105 -0.5054  0.1312
   36SM24   H86 5422   0.071   0.550   7.085 -0.6609 -1.0345 -2.0336
   36SM24   H87 5423   5.947   0.665   6.962  0.3055 -0.7781 -0.2178
   36SM24   C44 5424   5.905   0.710   7.180 -0.1103  0.2895  0.1058
   36SM24   H88 5425   0.029   0.717   7.260  0.9641  3.0639 -1.0504
   36SM24   H89 5426   5.875   0.815   7.177 -0.3714  0.2062 -0.3396
   36SM24   C45 5427   5.787   0.619   7.224 -0.0240  0.9145  1.1848
   36SM24   H90 5428   5.821   0.516   7.218 -0.9196  0.7637 -2.9540
   36SM24   H91 5429   5.708   0.631   7.149 -0.1151 -0.0379  1.1240
   36SM24   C46 5430   5.739   0.661   7.362  0.0466 -0.2865 -0.2546
   36SM24   H92 5431   5.668   0.586   7.397  0.3227 -0.3591  0.1571
   36SM24   H93 5432   5.811   0.662   7.444 -2.4365  0.2790  2.0005
   36SM24   C47 5433   5.681   0.797   7.358 -0.0943 -0.5018  0.7027
   36SM24   H94 5434   5.751   0.880   7.360 -1.6590  0.9927 -2.4462
   36SM24   H95 5435   5.619   0.815   7.270 -1.0385 -0.4750  1.3601
   36SM24   H96 5436   5.622   0.806   7.449 -1.3830 -0.1956 -0.1528
   37SM24    N1 5437   4.251   0.859   8.378 -0.4461  0.2854  0.6850
   37SM24    C1 5438   4.275   1.001   8.341 -0.6273 -0.0270 -0.2092
   37SM24    H1 5439   4.238   1.007   8.239 -3.0682  0.8816  0.6812
   37SM24    H2 5440   4.225   1.062   8.417  0.0617  1.6804 -1.0881
   37SM24    C2 5441   4.286   0.825   8.517  0.2803  0.3301 -0.0735
   37SM24    H3 5442   4.277   0.716   8.526  1.5949  0.1308 -1.0347
   37SM24    H4 5443   4.387   0.839   8.555  0.1839  1.9687 -0.3970
   37SM24    H5 5444   4.215   0.860   8.592  0.3203 -0.2982  0.2687
   37SM24    C3 5445   4.103   0.848   8.357 -0.2594  0.0320 -0.0187
   37SM24    H6 5446   4.048   0.929   8.404  0.5073  1.3488 -1.3338
   37SM24    H7 5447   4.075   0.856   8.252 -1.9903 -0.6589  0.3859
   37SM24    H8 5448   4.062   0.762   8.411 -0.9626  0.3450 -0.0544
   37SM24    C4 5449   4.296   0.754   8.278 -0.2557  0.1024 -0.2615
   37SM24    H9 5450   4.235   0.748   8.188 -0.0944  0.3397 -0.3876
   37SM24   H10 5451   4.401   0.768   8.252 -0.4525  0.1174 -1.0383
   37SM24   H11 5452   4.304   0.655   8.322  1.3746  0.2732 -0.1159
   37SM24    C5 5453   4.420   1.043   8.360 -0.0295  0.1386  0.2641
   37SM24   H12 5454   4.492   0.969   8.326  0.9665 -0.2005  2.9803
   37SM24   H13 5455   4.439   1.033   8.467  0.4263 -1.0536  0.0826
   37SM24    P1 5456   4.581   1.245   8.335  0.0689 -0.1123  0.0118
   37SM24    O1 5457   4.622   1.255   8.480 -0.6421 -0.0598 -0.0197
   37SM24    O2 5458   4.571   1.373   8.258 -0.0642  0.9371  0.2211
   37SM24    O3 5459   4.443   1.170   8.308  0.0412 -0.1421  0.1185
   37SM24    O4 5460   4.701   1.159   8.280 -0.4715  0.8104 -0.0735
   37SM24    C6 5461   4.688   1.109   8.144  0.0348  0.3355 -0.2736
   37SM24   H14 5462   4.744   1.016   8.154 -0.2748 -0.0424 -1.8897
   37SM24   H15 5463   4.590   1.067   8.124 -0.0991  0.1140  0.8402
   37SM24    C7 5464   4.747   1.204   8.040  0.3838 -0.1359 -0.3902
   37SM24   H16 5465   4.671   1.280   8.021  1.5158  1.5235  1.5031
   37SM24    N2 5466   4.767   1.135   7.911 -0.0527 -0.2709  0.0862
   37SM24    HN 5467   4.862   1.115   7.885  0.5792  0.7231  1.5709
   37SM24    C8 5468   4.884   1.265   8.085 -0.0160  0.7630 -0.2888
   37SM24   OSM 5469   4.879   1.361   8.187 -0.6045 -1.0516 -0.1482
   37SM24   HSM 5470   4.787   1.375   8.204 -0.4471 -0.7789  0.4668
   37SM24   H17 5471   4.956   1.194   8.126  0.3757 -0.2406 -2.6051
   37SM24    C9 5472   4.966   1.334   7.982  0.5143 -0.6165 -0.5344
   37SM24   H18 5473   4.914   1.415   7.933  0.7842  0.9045  1.5966
   37SM24   C10 5474   5.094   1.311   7.951  0.3191 -1.2886 -0.0588
   37SM24   H19 5475   5.159   1.243   8.005  0.7760 -0.3451  0.5898
   37SM24   C11 5476   5.168   1.398   7.856  1.0967  0.0267 -0.1079
   37SM24   H20 5477   5.246   1.451   7.911 -0.6862  1.5454  1.0551
   37SM24   H21 5478   5.096   1.466   7.811  1.3843  1.5891  1.6827
   37SM24   C12 5479   5.226   1.307   7.756 -0.2125  0.7538 -0.9891
   37SM24   H22 5480   5.147   1.287   7.683 -0.6412 -1.5821  0.0919
   37SM24   H23 5481   5.256   1.214   7.804 -1.9192  0.7080  0.0528
   37SM24   C13 5482   5.345   1.355   7.679 -0.0388  0.2774  0.0328
   37SM24   H24 5483   5.400   1.431   7.734 -0.5488 -0.1212  1.1047
   37SM24   H25 5484   5.306   1.415   7.597  2.7262 -0.9257 -2.2243
   37SM24   C14 5485   5.450   1.250   7.632  0.4779 -0.1796 -0.0969
   37SM24   H26 5486   5.393   1.198   7.555 -3.4564  0.2240  2.4107
   37SM24   H27 5487   5.478   1.189   7.717  0.6474  0.9001  0.6369
   37SM24   C15 5488   5.577   1.318   7.572  0.7010 -0.4909  0.0509
   37SM24   H28 5489   5.609   1.383   7.653  3.3767 -1.9528  0.2344
   37SM24   H29 5490   5.559   1.388   7.490  1.3060 -0.2846  0.0919
   37SM24   C16 5491   5.690   1.221   7.527  0.5006 -0.2014  0.2766
   37SM24   H30 5492   5.659   1.140   7.462 -3.0460  0.7253  0.7392
   37SM24   H31 5493   5.732   1.183   7.621 -1.9315  0.0353  1.4831
   37SM24   C17 5494   5.799   1.277   7.434  0.0956 -0.6355  0.1264
   37SM24   H32 5495   5.835   1.370   7.477 -1.5568 -0.6400  1.5829
   37SM24   H33 5496   5.766   1.313   7.337 -1.0521 -1.6542  0.1282
   37SM24   C18 5497   5.916   1.186   7.417 -0.1023 -0.7914 -0.5060
   37SM24   H34 5498   5.885   1.081   7.421 -1.2784 -0.3832  2.8938
   37SM24   H34 5499   0.028   1.192   7.507 -0.1263  0.4996 -0.5621
   37SM24   C19 5500   0.051   1.217   7.294  0.1283  0.5565 -0.1943
   37SM24   H35 5501   0.149   1.171   7.307  1.1547  2.3314 -1.4154
   37SM24   H36 5502   0.062   1.322   7.268 -1.0058  0.5823 -0.5906
   37SM24   C20 5503   5.937   1.149   7.174 -0.2982  0.2445  0.3845
   37SM24   H37 5504   5.849   1.204   7.142  0.5754  0.7228 -1.2511
   37SM24   H38 5505   5.893   1.051   7.193  0.8470 -0.3963 -0.1934
   37SM24   C21 5506   0.068   1.166   7.047 -0.4407 -0.2457  0.6275
   37SM24   H39 5507   0.162   1.113   7.061  0.8083  0.6922 -3.5640
   37SM24   H40 5508   0.107   1.268   7.037 -2.4084  0.4144 -0.5918
   37SM24   C22 5509   0.004   1.129   6.925 -0.1575  0.4170 -0.0976
   37SM24   H41 5510   5.888   1.208   6.889  2.5441  3.1466  0.7828
   37SM24   H42 5511   5.880   1.048   6.936 -0.4298  1.1007  4.1849
   37SM24   C23 5512   0.097   1.093   6.812  0.3158 -0.3031 -0.2466
   37SM24   H43 5513   0.170   1.171   6.794 -1.1228  0.7846 -1.4935
   37SM24   H44 5514   0.154   1.002   6.828  1.3848  0.4820  0.4564
   37SM24   H45 5515   0.033   1.095   6.724 -1.8473  1.3053  1.3005
   37SM24   C24 5516   4.670   1.073   7.848 -0.7913 -0.2296  0.1044
   37SM24   O33 5517   4.546   1.078   7.879  0.0407  0.7929  0.7137
   37SM24   C25 5518   4.701   1.000   7.720 -0.1875  0.3557  0.2997
   37SM24   H50 5519   4.660   0.902   7.740  0.5558 -0.3386 -1.4544
   37SM24   H51 5520   4.809   0.987   7.715 -0.1957  0.1888  0.5653
   37SM24   C26 5521   4.633   1.069   7.601  0.4989 -0.1123 -0.6207
   37SM24   H52 5522   4.648   1.176   7.608 -0.0131 -0.1536  1.4345
   37SM24   H53 5523   4.527   1.047   7.611  0.3529 -1.0303 -3.7826
   37SM24   C27 5524   4.679   1.030   7.458  0.5995  0.2469 -1.0829
   37SM24   H54 5525   4.611   1.076   7.386  0.7059 -1.0297 -2.0256
   37SM24   H55 5526   4.670   0.922   7.450  0.8769  0.2813 -1.9316
   37SM24   C28 5527   4.834   1.078   7.448  0.4688  0.1504  0.0281
   37SM24   H56 5528   4.899   0.996   7.477  1.7483  1.2950  0.4200
   37SM24   H57 5529   4.852   1.170   7.503 -0.6451  1.5653 -1.9040
   37SM24   C29 5530   4.858   1.086   7.300  0.4075  0.2668  0.3265
   37SM24   H58 5531   4.951   1.141   7.286  0.2202  0.3155 -0.7614
   37SM24   H59 5532   4.790   1.154   7.247  0.7080  0.7901  0.6012
   37SM24   C30 5533   4.879   0.940   7.251 -0.4345 -0.1784  0.6676
   37SM24   H60 5534   4.796   0.877   7.282  0.5931 -1.7866  0.2625
   37SM24   H61 5535   4.973   0.907   7.297  0.5330 -0.5224 -1.4699
   37SM24   C31 5536   4.880   0.938   7.097 -0.7453 -0.0678  0.2553
   37SM24   H62 5537   4.785   0.959   7.047 -0.4172  1.1801  0.1630
   37SM24   H63 5538   4.886   0.830   7.079 -1.5098 -0.4945  2.3964
   37SM24   C32 5539   5.001   1.016   7.039 -0.2175  0.2103 -0.3566
   37SM24   H64 5540   5.078   1.024   7.115 -0.4379  3.2818 -0.3675
   37SM24   H65 5541   4.969   1.120   7.022  2.4064  0.8756 -1.3919
   37SM24   C33 5542   5.060   0.946   6.920  0.0637  0.7352 -0.5380
   37SM24   H66 5543   5.115   0.858   6.955 -1.6946  0.2987  1.2429
   37SM24   H67 5544   5.129   1.016   6.873  1.0762 -0.8405 -1.4388
   37SM24   C34 5545   4.962   0.903   6.805  0.1967  0.2052 -0.0181
   37SM24   H68 5546   4.881   0.976   6.799  0.0767 -0.0118 -1.2333
   37SM24   H69 5547   4.911   0.807   6.817 -1.8931  1.3705  0.6854
   37SM24   C35 5548   5.039   0.887   6.674  0.1261  0.9279 -0.3210
   37SM24   H70 5549   5.105   0.800   6.681  0.9221  1.3637 -2.1991
   37SM24   H71 5550   5.095   0.976   6.648  0.8609  0.5601 -0.0313
   37SM24   C36 5551   4.929   0.854   6.560 -1.2082 -0.1598 -0.1595
   37SM24   H72 5552   4.866   0.943   6.565 -0.5796  0.2696  0.3744
   37SM24   H73 5553   4.864   0.773   6.592 -1.0239 -0.1363  0.2896
   37SM24   C37 5554   4.970   0.846   6.409  0.8276 -0.1991 -0.2484
   37SM24   H74 5555   5.051   0.773   6.400 -0.1317 -1.3655  0.4316
   37SM24   H75 5556   5.019   0.942   6.388  0.8290 -0.2449 -0.4515
   37SM24   C38 5557   4.859   0.828   6.306 -0.2619  0.5567 -0.3188
   37SM24   H76 5558   4.788   0.911   6.311  0.1893  0.8096  2.7788
   37SM24   H77 5559   4.810   0.737   6.339  1.5709 -1.4877 -2.9804
   37SM24   C39 5560   4.915   0.807   6.161  0.3290 -0.2004  0.0553
   37SM24   H78 5561   4.996   0.735   6.173 -0.4245 -1.0902 -0.2548
   37SM24   H79 5562   4.960   0.897   6.119  2.0128  0.4061  2.9342
   37SM24   C40 5563   4.820   0.756   6.051 -0.0349 -0.9099  0.1629
   37SM24   H80 5564   4.872   0.781   5.959  0.2716 -1.4162  0.1909
   37SM24   H81 5565   4.808   0.647   6.059 -3.2215 -0.4545  3.4039
   37SM24   C41 5566   4.680   0.823   6.061 -0.2131  0.6454 -0.5527
   37SM24   H82 5567   4.619   0.781   6.141  0.5513 -0.2545 -0.4355
   37SM24   H83 5568   4.682   0.932   6.067  2.3985  0.6040 -0.2895
   37SM24   C42 5569   4.602   0.801   5.926 -0.2775  0.1542 -0.1968
   37SM24   H84 5570   4.602   0.693   5.911  0.4365  0.4543 -2.4587
   37SM24   H85 5571   4.653   0.840   5.839  1.0785 -0.9914  0.0654
   37SM24   C43 5572   4.451   0.842   5.932  0.3551  0.4762  0.2382
   37SM24   H86 5573   4.434   0.947   5.956 -1.6327  0.0123  0.9338
   37SM24   H87 5574   4.415   0.794   6.023  1.5743 -0.5290  0.2052
   37SM24   C44 5575   4.373   0.803   5.808  0.2954 -0.5547 -0.6188
   37SM24   H88 5576   4.399   0.854   5.715 -1.4448 -0.5085 -1.1051
   37SM24   H89 5577   4.392   0.698   5.787  0.3809 -0.4234 -1.2089
   37SM24   C45 5578   4.227   0.847   5.825 -0.9016  0.8713  0.1400
   37SM24   H90 5579   4.175   0.827   5.731 -2.2490 -1.6089  1.3635
   37SM24   H91 5580   4.219   0.954   5.842 -1.1460  1.0211 -0.8971
   37SM24   C46 5581   4.152   0.780   5.946  0.0005  0.5897  0.0677
   37SM24   H92 5582   4.156   0.671   5.950 -2.8984  0.5131  2.3535
   37SM24   H93 5583   4.186   0.812   6.045 -1.6204 -0.5257  1.0190
   37SM24   C47 5584   4.001   0.808   5.936  0.5235 -0.1848  0.1608
   37SM24   H94 5585   3.978   0.914   5.941 -0.6648 -0.3300 -1.8279
   37SM24   H95 5586   3.960   0.764   5.845 -0.7617  0.1407  0.5726
   37SM24   H96 5587   3.944   0.760   6.016 -0.3347 -0.9475 -0.8807
   38SM24    N1 5588   3.088   2.414   8.232 -0.3081  0.4817 -0.4111
   38SM24    C1 5589   3.097   2.266   8.268 -0.3042 -0.1552  0.4914
   38SM24    H1 5590   3.084   2.240   8.373  1.7950 -0.3321  0.7320
   38SM24    H2 5591   3.019   2.210   8.216 -1.2027  2.6101 -1.2682
   38SM24    C2 5592   2.972   2.457   8.313 -0.8215 -0.2984 -0.0788
   38SM24    H3 5593   2.975   2.566   8.323 -0.6870 -0.2247 -0.8790
   38SM24    H4 5594   2.877   2.430   8.267  0.6978 -2.2114 -2.1914
   38SM24    H5 5595   2.973   2.417   8.414  0.5051 -1.6297 -0.6094
   38SM24    C3 5596   3.206   2.495   8.273  0.2829 -0.6628 -0.0323
   38SM24    H6 5597   3.298   2.479   8.219 -0.2159  1.0587 -1.4236
   38SM24    H7 5598   3.195   2.603   8.270  0.2678 -0.5490  2.6223
   38SM24    H8 5599   3.224   2.480   8.380  1.7257 -1.8375 -0.4255
   38SM24    C4 5600   3.072   2.445   8.091  0.1161 -0.1631  0.5587
   38SM24    H9 5601   2.989   2.387   8.049  1.3650 -1.5308 -0.0825
   38SM24   H10 5602   3.057   2.551   8.072  1.1948 -0.0110  0.5082
   38SM24   H11 5603   3.161   2.414   8.035 -0.5097  2.4024 -2.0028
   38SM24    C5 5604   3.232   2.200   8.217 -0.4607  0.5282 -0.5455
   38SM24   H12 5605   3.313   2.210   8.290 -0.2873 -3.4149 -0.0429
   38SM24   H13 5606   3.268   2.238   8.122  0.1309 -2.8659 -1.7735
   38SM24    P1 5607   3.330   1.965   8.183  0.1779 -0.4351  0.3806
   38SM24    O1 5608   3.277   1.822   8.161 -0.0029  0.0831 -0.2670
   38SM24    O2 5609   3.418   1.984   8.300  0.6911 -0.2873 -0.2173
   38SM24    O3 5610   3.213   2.060   8.197 -0.3412 -0.4836  0.1081
   38SM24    O4 5611   3.404   2.018   8.052 -0.0815 -0.2681  0.0935
   38SM24    C6 5612   3.345   2.010   7.925 -1.2318 -0.1554  0.1716
   38SM24   H14 5613   3.238   2.001   7.942 -1.1826  0.8982  1.1206
   38SM24   H15 5614   3.354   2.115   7.893  0.9269 -0.1527  0.7077
   38SM24    C7 5615   3.399   1.915   7.816  1.1733  0.1930  0.4657
   38SM24   H16 5616   3.508   1.921   7.812  1.1326 -0.1445 -1.9031
   38SM24    N2 5617   3.359   1.957   7.678  0.5130  0.1067 -0.2570
   38SM24    HN 5618   3.292   1.901   7.627  1.1485 -0.9985  0.0905
   38SM24    C8 5619   3.373   1.772   7.855 -0.3858  0.1225  0.6379
   38SM24   OSM 5620   3.432   1.721   7.966  0.2450 -0.1037 -0.1865
   38SM24   HSM 5621   3.374   1.750   8.035  0.7679 -0.1437  0.2686
   38SM24   H17 5622   3.266   1.754   7.859 -0.4401  0.7568  2.4187
   38SM24    C9 5623   3.420   1.674   7.745 -0.3885  0.0102 -0.4600
   38SM24   H18 5624   3.527   1.666   7.736 -0.3996 -1.6260  0.6569
   38SM24   C10 5625   3.339   1.607   7.655  0.0307  0.6395 -0.3195
   38SM24   H19 5626   3.231   1.608   7.653  0.0313 -0.1612 -1.6625
   38SM24   C11 5627   3.405   1.510   7.564 -0.6767 -0.5042  0.0292
   38SM24   H20 5628   3.376   1.409   7.592 -0.5827 -0.0588  1.7426
   38SM24   H21 5629   3.514   1.513   7.567 -0.7114  1.2088 -0.0435
   38SM24   C12 5630   3.358   1.542   7.421  0.0937  0.4376  0.7823
   38SM24   H22 5631   3.364   1.645   7.386 -1.4174 -0.4600 -2.2079
   38SM24   H23 5632   3.255   1.508   7.409  0.4693  0.3854 -2.5249
   38SM24   C13 5633   3.436   1.460   7.326  0.6223 -0.1682 -0.2105
   38SM24   H24 5634   3.411   1.360   7.361 -0.1489 -0.2877 -1.0685
   38SM24   H25 5635   3.543   1.477   7.339  0.2399  0.3724  2.5490
   38SM24   C14 5636   3.389   1.487   7.182 -0.3421  0.1822 -0.5642
   38SM24   H26 5637   3.430   1.586   7.163  0.1531 -0.1919 -1.4451
   38SM24   H27 5638   3.280   1.493   7.179 -0.3871  0.7548  1.5717
   38SM24   C15 5639   3.445   1.384   7.089 -0.2704  0.0589  0.0266
   38SM24   H28 5640   3.401   1.290   7.121  0.1177 -0.0716  0.1765
   38SM24   H29 5641   3.553   1.374   7.082 -0.3323 -0.9836  0.4960
   38SM24   C16 5642   3.413   1.414   6.942 -0.5021  0.0863  0.5498
   38SM24   H30 5643   3.473   1.348   6.880 -0.4571 -0.1488  0.8415
   38SM24   H31 5644   3.436   1.515   6.909  3.0689 -1.2195 -1.2902
   38SM24   C17 5645   3.264   1.391   6.920  0.1387 -0.3684  0.4467
   38SM24   H32 5646   3.203   1.460   6.979 -0.8862 -0.1057 -0.8985
   38SM24   H33 5647   3.248   1.286   6.945  0.2176  0.8018  6.1632
   38SM24   C18 5648   3.225   1.410   6.779 -0.3317  0.0867 -0.5650
   38SM24   H34 5649   3.123   1.372   6.766 -1.0103  2.0479 -1.2391
   38SM24   H34 5650   3.294   1.351   6.718 -0.5683  0.2564 -1.0043
   38SM24   C19 5651   3.236   1.562   6.737  0.4071 -0.3346  0.8310
   38SM24   H35 5652   3.339   1.589   6.711  0.5060  0.4286  1.9635
   38SM24   H36 5653   3.216   1.628   6.821 -2.3846  2.0901 -1.6478
   38SM24   C20 5654   3.140   1.599   6.618  0.2711 -0.7965 -0.1104
   38SM24   H37 5655   3.138   1.708   6.613 -1.0484 -0.8183 -0.3025
   38SM24   H38 5656   3.036   1.570   6.637  0.2415 -0.6991 -0.1203
   38SM24   C21 5657   3.184   1.542   6.486  0.1823  0.4436 -0.0166
   38SM24   H39 5658   3.191   1.434   6.497 -1.9385  0.3692  0.8811
   38SM24   H40 5659   3.288   1.566   6.465  0.1189 -1.4060 -2.7673
   38SM24   C22 5660   3.087   1.591   6.369  0.2363 -0.1010  0.2182
   38SM24   H41 5661   3.128   1.560   6.273 -2.1142 -1.3687 -0.4148
   38SM24   H42 5662   3.084   1.699   6.370 -0.1381 -0.1036 -0.4976
   38SM24   C23 5663   2.943   1.537   6.381  0.0618 -0.4696 -0.3344
   38SM24   H43 5664   2.945   1.429   6.396 -0.0580 -0.2862  1.0132
   38SM24   H44 5665   2.886   1.565   6.470  0.6037 -3.0039  0.8344
   38SM24   H45 5666   2.886   1.553   6.289 -1.3745  0.7981  0.7443
   38SM24   C24 5667   3.383   2.076   7.625 -0.0366 -0.3081 -0.3140
   38SM24   O33 5668   3.441   2.176   7.677  0.5174  0.3160 -0.0936
   38SM24   C25 5669   3.325   2.102   7.484 -0.3493 -0.3687  0.2132
   38SM24   H50 5670   3.216   2.094   7.483 -0.3627 -0.5471  2.2765
   38SM24   H51 5671   3.376   2.029   7.421 -0.3340  1.2440 -1.7138
   38SM24   C26 5672   3.372   2.233   7.420 -0.0733  0.0452  0.6945
   38SM24   H52 5673   3.480   2.235   7.402 -0.1238  2.6322  0.3939
   38SM24   H53 5674   3.361   2.322   7.482 -0.4533  1.2594 -1.0687
   38SM24   C27 5675   3.310   2.247   7.282 -0.6801  0.3177 -0.0167
   38SM24   H54 5676   3.201   2.247   7.286 -0.7160 -0.5544 -0.6485
   38SM24   H55 5677   3.342   2.160   7.223  1.0926  0.2307  1.0355
   38SM24   C28 5678   3.362   2.379   7.227  0.1617  0.1919 -0.6491
   38SM24   H56 5679   3.469   2.382   7.206  0.1749 -0.2774 -0.6509
   38SM24   H57 5680   3.335   2.458   7.297 -0.1388 -0.9142  0.5116
   38SM24   C29 5681   3.293   2.397   7.089  0.3234 -1.3301  0.0619
   38SM24   H58 5682   3.186   2.387   7.101 -0.1279  3.5687  1.2679
   38SM24   H59 5683   3.315   2.315   7.020 -0.6181 -0.1062 -1.7313
   38SM24   C30 5684   3.339   2.534   7.026  0.6052  0.5215 -0.1495
   38SM24   H60 5685   3.429   2.513   6.967  1.1899  2.2555  0.0689
   38SM24   H61 5686   3.357   2.614   7.098  0.0812  0.2719  0.2559
   38SM24   C31 5687   3.242   2.568   6.911  0.1721 -0.4293 -0.9785
   38SM24   H62 5688   3.152   2.612   6.954  0.5735 -0.7391  0.1897
   38SM24   H63 5689   3.222   2.477   6.854 -0.2611  0.2005 -1.8429
   38SM24   C32 5690   3.296   2.668   6.807 -0.4020  0.6572 -0.5432
   38SM24   H64 5691   3.381   2.618   6.761  1.4388  1.8993  1.4104
   38SM24   H65 5692   3.321   2.756   6.866  2.1559  1.5817 -2.9160
   38SM24   C33 5693   3.189   2.718   6.708  1.2667  0.2902 -0.1679
   38SM24   H66 5694   3.108   2.775   6.755  2.1989 -0.2505  2.1458
   38SM24   H67 5695   3.151   2.633   6.651 -0.2494 -1.5012  3.3568
   38SM24   C34 5696   3.249   2.816   6.605  0.2144  1.1424 -0.1404
   38SM24   H68 5697   3.344   2.774   6.571 -0.5100  0.3527 -1.2528
   38SM24   H69 5698   3.270   2.911   6.653  0.3873  1.9727 -1.7994
   38SM24   C35 5699   3.164   2.848   6.473 -0.1672 -0.5392 -0.4188
   38SM24   H70 5700   3.066   2.892   6.490  0.6496  1.1286  0.0312
   38SM24   H71 5701   3.142   2.752   6.425 -1.0255 -0.2812 -0.5449
   38SM24   C36 5702   3.259   2.937   6.386  0.1902 -0.4224 -0.6510
   38SM24   H72 5703   3.362   2.931   6.420  0.4453  0.4393 -1.2437
   38SM24   H73 5704   3.231   3.039   6.413 -2.8894 -1.9762  2.4060
   38SM24   C37 5705   3.244   2.892   6.239 -0.3420  0.2873  0.3459
   38SM24   H74 5706   3.137   2.892   6.218 -1.5183 -1.0637  5.6553
   38SM24   H75 5707   3.266   2.787   6.222  2.1155  0.7621  0.4559
   38SM24   C38 5708   3.315   2.981   6.140  0.1446  0.4167 -0.2057
   38SM24   H76 5709   3.263   3.077   6.139  1.0994  0.9277 -1.5231
   38SM24   H77 5710   3.311   2.935   6.041  0.1785  0.6353 -0.3088
   38SM24   C39 5711   3.464   3.026   6.175  0.4692 -0.0109 -0.0248
   38SM24   H78 5712   3.475   3.094   6.258  3.1594 -0.3749 -0.0333
   38SM24   H79 5713   3.512   3.078   6.092 -0.4548 -1.0202 -1.2205
   38SM24   C40 5714   3.552   2.906   6.213  1.0657  0.3286  0.6907
   38SM24   H80 5715   3.500   2.836   6.278 -0.4612 -0.6498 -1.5449
   38SM24   H81 5716   3.576   2.846   6.125 -0.4701 -1.4179  1.4402
   38SM24   C41 5717   3.684   2.950   6.278 -0.0159 -0.3745 -0.0152
   38SM24   H82 5718   3.753   2.996   6.206  1.7429 -0.4726  1.5709
   38SM24   H83 5719   3.671   3.026   6.355 -0.5331 -0.1201 -0.3462
   38SM24   C42 5720   3.765   2.844   6.354 -0.0157  0.2256  0.2060
   38SM24   H84 5721   3.813   2.780   6.281 -0.4575 -1.0566  1.0271
   38SM24   H85 5722   3.705   2.773   6.411 -2.0758  0.7719 -1.2213
   38SM24   C43 5723   3.859   2.907   6.452 -0.4137 -0.2635 -0.1179
   38SM24   H86 5724   3.805   2.960   6.530  1.3192 -0.9473  1.6125
   38SM24   H87 5725   3.921   2.987   6.413 -1.0604  0.4156  0.2432
   38SM24   C44 5726   3.971   2.816   6.515  0.5608 -0.2715  0.2282
   38SM24   H88 5727   3.933   2.720   6.548  0.9451  0.0857  1.7448
   38SM24   H89 5728   4.048   2.791   6.441 -0.3962  1.0831 -1.2746
   38SM24   C45 5729   4.026   2.880   6.640  0.6085 -1.0723  0.5241
   38SM24   H90 5730   3.956   2.859   6.721  1.2647 -1.4756  0.9923
   38SM24   H91 5731   4.027   2.989   6.638 -2.1235 -0.9863  1.5769
   38SM24   C46 5732   4.162   2.813   6.675 -0.2664  0.3033 -0.3091
   38SM24   H92 5733   4.170   2.709   6.642 -0.6792 -0.5151  2.0806
   38SM24   H93 5734   4.238   2.863   6.615 -0.7465 -1.5099 -2.4873
   38SM24   C47 5735   4.192   2.822   6.831 -0.0778 -0.2933 -0.3068
   38SM24   H94 5736   4.298   2.800   6.839 -0.1711 -1.3400 -1.8453
   38SM24   H95 5737   4.166   2.919   6.875 -1.9726 -0.1861 -1.5951
   38SM24   H96 5738   4.138   2.752   6.894 -1.0724  1.0727  0.3929
   39SM24    N1 5739   3.535   4.133   8.254 -1.5245 -0.0735 -0.1459
   39SM24    C1 5740   3.568   3.986   8.254 -0.5953  0.2461 -0.2536
   39SM24    H1 5741   3.604   3.945   8.348  0.1069  1.4517  0.0183
   39SM24    H2 5742   3.474   3.937   8.229 -0.1124  0.2124 -2.0898
   39SM24    C2 5743   3.652   4.220   8.293 -0.1497  0.1019  0.3752
   39SM24    H3 5744   3.702   4.170   8.376 -0.0918  0.1471  0.3678
   39SM24    H4 5745   3.722   4.219   8.211  1.6991  0.3007  1.9137
   39SM24    H5 5746   3.636   4.327   8.308  0.5112  0.4379 -1.3236
   39SM24    C3 5747   3.481   4.184   8.131 -0.0077  0.2896 -0.2545
   39SM24    H6 5748   3.379   4.158   8.101  0.1205 -0.5505  0.0060
   39SM24    H7 5749   3.484   4.292   8.124  1.2974  0.4163  2.0852
   39SM24    H8 5750   3.545   4.166   8.044 -1.7365 -0.2382 -1.4517
   39SM24    C4 5751   3.437   4.150   8.367 -0.6490 -0.7811  0.5860
   39SM24    H9 5752   3.481   4.128   8.465 -1.2239 -1.7404  0.6340
   39SM24   H10 5753   3.407   4.254   8.357 -0.5982 -1.0711 -3.4794
   39SM24   H11 5754   3.344   4.094   8.364 -0.5954 -0.9210  1.3761
   39SM24    C5 5755   3.671   3.935   8.163  0.8329  0.2388  0.0778
   39SM24   H12 5756   3.764   3.985   8.189  0.2265  1.1189  0.5772
   39SM24   H13 5757   3.654   3.969   8.061 -0.6385  1.7977  0.8099
   39SM24    P1 5758   3.812   3.722   8.125 -0.2109  0.1805  0.1248
   39SM24    O1 5759   3.794   3.575   8.160 -0.2899 -0.0672 -0.1167
   39SM24    O2 5760   3.916   3.793   8.194 -0.3751  0.1999  0.6706
   39SM24    O3 5761   3.671   3.798   8.164 -0.2769  0.4150  0.7356
   39SM24    O4 5762   3.836   3.743   7.971  0.0746  0.0824 -0.1842
   39SM24    C6 5763   3.747   3.698   7.874 -0.7267 -0.4100 -0.1433
   39SM24   H14 5764   3.771   3.592   7.867  1.4585  0.0018  0.4748
   39SM24   H15 5765   3.641   3.702   7.895 -0.8124 -1.5689 -0.3076
   39SM24    C7 5766   3.782   3.783   7.751 -0.3841 -0.5621 -0.4153
   39SM24   H16 5767   3.761   3.888   7.774 -1.5889 -1.2007  1.5549
   39SM24    N2 5768   3.696   3.743   7.641 -0.0960 -0.2596 -0.4104
   39SM24    HN 5769   3.734   3.662   7.596  0.0080 -0.1940 -0.4425
   39SM24    C8 5770   3.928   3.765   7.701  0.5586 -0.0674 -0.8241
   39SM24   OSM 5771   4.029   3.800   7.790 -0.1182  0.7102  0.0769
   39SM24   HSM 5772   3.985   3.797   7.873 -0.2805 -1.8452 -0.0723
   39SM24   H17 5773   3.945   3.660   7.674  0.4708  0.4066 -2.7595
   39SM24    C9 5774   3.962   3.832   7.574  1.2460 -0.6789 -0.6379
   39SM24   H18 5775   3.898   3.915   7.548 -1.3026 -1.0745  3.9107
   39SM24   C10 5776   4.072   3.795   7.501 -0.0819 -0.0356 -0.5351
   39SM24   H19 5777   4.121   3.703   7.526 -0.4251 -0.1969 -0.4451
   39SM24   C11 5778   4.113   3.858   7.370  0.1957  0.3082 -0.2521
   39SM24   H20 5779   4.216   3.893   7.381 -0.4755  2.1303  0.3246
   39SM24   H21 5780   4.046   3.938   7.338 -0.8530 -1.3155 -2.2100
   39SM24   C12 5781   4.107   3.749   7.268 -0.2970  0.3385  0.2377
   39SM24   H22 5782   4.013   3.744   7.213 -0.6090  0.4469  0.7549
   39SM24   H23 5783   4.135   3.655   7.315  0.3846  0.8426  0.8525
   39SM24   C13 5784   4.216   3.774   7.171 -0.3538 -0.3196 -0.4263
   39SM24   H24 5785   4.307   3.760   7.229  0.2972 -0.2601 -1.4277
   39SM24   H25 5786   4.208   3.873   7.127 -3.2673 -1.1425 -1.8911
   39SM24   C14 5787   4.219   3.675   7.051 -0.2266 -0.2259  0.3586
   39SM24   H26 5788   4.123   3.669   6.999  0.0830 -0.5863 -0.1787
   39SM24   H27 5789   4.230   3.577   7.096  0.8706  0.6458  2.0193
   39SM24   C15 5790   4.347   3.707   6.961 -0.6617  0.5179 -0.6095
   39SM24   H28 5791   4.444   3.675   7.000 -1.2671 -0.4084  0.1755
   39SM24   H29 5792   4.353   3.814   6.947  0.1150  0.4011 -1.1469
   39SM24   C16 5793   4.352   3.642   6.815 -0.6919  0.3187  0.2909
   39SM24   H30 5794   4.390   3.540   6.813 -2.0087 -0.2691  2.8619
   39SM24   H31 5795   4.430   3.706   6.772  1.4693 -1.8967  0.8035
   39SM24   C17 5796   4.214   3.650   6.739  0.1013 -0.3636  0.1583
   39SM24   H32 5797   4.170   3.748   6.752 -1.4882 -0.9907 -0.3476
   39SM24   H33 5798   4.156   3.573   6.789  1.2253 -1.7095 -0.5680
   39SM24   C18 5799   4.231   3.622   6.589 -0.4925  1.1684 -0.1294
   39SM24   H34 5800   4.292   3.534   6.571 -1.0720  0.8040 -0.3286
   39SM24   H34 5801   4.294   3.704   6.555  0.7528  0.5157  0.5614
   39SM24   C19 5802   4.103   3.605   6.511  0.1216 -0.6547 -0.2970
   39SM24   H35 5803   4.134   3.576   6.411  2.8218  1.9565 -0.2937
   39SM24   H36 5804   4.052   3.700   6.503 -1.3668 -1.2182  1.9225
   39SM24   C20 5805   4.009   3.499   6.552  0.1961  0.0295  0.3288
   39SM24   H37 5806   3.939   3.488   6.469 -0.0912 -1.1674  0.7176
   39SM24   H38 5807   3.944   3.545   6.627  0.2600 -1.1673  1.1368
   39SM24   C21 5808   4.047   3.355   6.590 -0.4184 -0.0849  0.5418
   39SM24   H39 5809   3.959   3.301   6.625  0.1828 -1.7470 -0.4365
   39SM24   H40 5810   4.120   3.358   6.670 -2.2714 -1.3632  2.3319
   39SM24   C22 5811   4.124   3.277   6.479  0.3493  0.5200  0.7418
   39SM24   H41 5812   4.158   3.182   6.522  1.0746  0.5464  0.2343
   39SM24   H42 5813   4.202   3.336   6.432  1.3359 -1.1470  0.2315
   39SM24   C23 5814   4.026   3.250   6.359 -0.1526  0.0779 -0.4662
   39SM24   H43 5815   4.002   3.346   6.315  2.5466  0.6668 -0.7638
   39SM24   H44 5816   4.082   3.193   6.284  0.7086  2.0527 -1.3564
   39SM24   H45 5817   3.943   3.192   6.400 -2.1517  1.8896 -1.8411
   39SM24   C24 5818   3.568   3.769   7.640 -0.1240 -0.6904 -0.2014
   39SM24   O33 5819   3.521   3.850   7.719 -0.3951 -0.0635 -0.4227
   39SM24   C25 5820   3.478   3.694   7.548  0.0619  0.9212 -0.3141
   39SM24   H50 5821   3.392   3.650   7.599  1.3832  0.1333  1.2743
   39SM24   H51 5822   3.534   3.618   7.493  2.4472  1.7068  1.0091
   39SM24   C26 5823   3.413   3.792   7.448 -0.2030  0.0926  0.8387
   39SM24   H52 5824   3.453   3.892   7.459  0.8074 -0.1081 -0.8397
   39SM24   H53 5825   3.308   3.812   7.466 -0.3630  0.2130 -0.2352
   39SM24   C27 5826   3.422   3.762   7.298 -0.3149  0.1594  0.0137
   39SM24   H54 5827   3.365   3.671   7.281 -0.5918  0.6998 -2.0699
   39SM24   H55 5828   3.524   3.742   7.264  1.3087  2.4945  3.2025
   39SM24   C28 5829   3.375   3.881   7.205 -0.8492 -0.1584 -0.2298
   39SM24   H56 5830   3.455   3.955   7.202 -0.1640 -0.8452  0.7773
   39SM24   H57 5831   3.301   3.944   7.253  0.1739  0.3463  0.7195
   39SM24   C29 5832   3.334   3.828   7.071  0.4218  0.1895 -0.5284
   39SM24   H58 5833   3.270   3.746   7.104 -0.4510  1.3944  0.8076
   39SM24   H59 5834   3.428   3.793   7.026  0.5221 -2.0933  1.3336
   39SM24   C30 5835   3.276   3.938   6.979  0.0993  0.2796  0.5315
   39SM24   H60 5836   3.353   4.011   6.958 -0.4023  1.3691  2.3864
   39SM24   H61 5837   3.196   3.983   7.039 -1.3679 -1.9105  0.3138
   39SM24   C31 5838   3.211   3.877   6.848  0.4194 -0.4412  0.3052
   39SM24   H62 5839   3.122   3.820   6.876 -1.8115  2.7677  0.0716
   39SM24   H63 5840   3.281   3.827   6.782  0.4894 -0.8824  0.7105
   39SM24   C32 5841   3.154   4.000   6.771 -0.8124 -0.1711  0.9749
   39SM24   H64 5842   3.219   4.087   6.762 -0.5249 -0.5390 -0.5574
   39SM24   H65 5843   3.069   4.035   6.831  0.1093  2.0004  1.0407
   39SM24   C33 5844   3.091   3.963   6.636  0.1661  0.3616  0.0914
   39SM24   H66 5845   3.049   4.049   6.584  0.3134 -0.0031 -0.6355
   39SM24   H67 5846   3.012   3.893   6.662  0.8031  0.8342  3.5032
   39SM24   C34 5847   3.184   3.903   6.536  0.1780 -0.3549  0.8861
   39SM24   H68 5848   3.193   3.800   6.571 -0.1689 -0.2450  1.3075
   39SM24   H69 5849   3.283   3.949   6.536  1.3674 -2.7742 -0.5578
   39SM24   C35 5850   3.124   3.899   6.398  1.3914 -0.0359 -0.1384
   39SM24   H70 5851   3.101   3.995   6.351 -0.5246  0.3098  1.4369
   39SM24   H71 5852   3.024   3.858   6.414  1.7086 -0.4748  0.7283
   39SM24   C36 5853   3.203   3.817   6.294  0.5527 -0.2984 -0.2079
   39SM24   H72 5854   3.146   3.831   6.202  1.6549  1.0435 -0.7118
   39SM24   H73 5855   3.190   3.711   6.316 -1.4090 -0.5681 -2.4927
   39SM24   C37 5856   3.351   3.866   6.278 -0.4434  0.0570 -0.1615
   39SM24   H74 5857   3.412   3.830   6.360 -1.6940 -0.6440  0.4798
   39SM24   H75 5858   3.347   3.975   6.272 -2.6538 -0.0043 -0.0709
   39SM24   C38 5859   3.413   3.824   6.143  0.1500 -0.0966  0.1061
   39SM24   H76 5860   3.371   3.880   6.060 -2.3614 -2.1159 -0.0240
   39SM24   H77 5861   3.376   3.723   6.125  1.3717 -0.8315  1.5676
   39SM24   C39 5862   3.562   3.844   6.122  0.1676  0.1071 -0.0078
   39SM24   H78 5863   3.589   3.819   6.020 -0.0256  1.6468 -0.4434
   39SM24   H79 5864   3.624   3.779   6.184 -1.0920 -1.2616 -0.1246
   39SM24   C40 5865   3.595   3.990   6.145 -0.1617  0.1586  0.3704
   39SM24   H80 5866   3.510   4.056   6.128 -1.3189 -1.2606  0.5741
   39SM24   H81 5867   3.623   3.991   6.251  0.5852 -1.2256  0.1960
   39SM24   C41 5868   3.712   4.029   6.060 -0.0376  0.4510  0.3616
   39SM24   H82 5869   3.791   3.954   6.063 -0.1243  0.3690  0.6773
   39SM24   H83 5870   3.675   4.045   5.958  0.4842 -0.2859  0.0569
   39SM24   C42 5871   3.757   4.167   6.118 -0.5163  0.7696  0.3770
   39SM24   H84 5872   3.781   4.162   6.224  0.6915 -0.6641  0.0446
   39SM24   H85 5873   3.669   4.231   6.114 -0.3789  0.8526 -2.9307
   39SM24   C43 5874   3.862   4.241   6.039 -0.9542  0.8436  0.3243
   39SM24   H86 5875   3.869   4.346   6.070  2.3889  1.0845 -1.0082
   39SM24   H87 5876   3.832   4.238   5.934  0.0796 -1.3288  0.0723
   39SM24   C44 5877   4.004   4.185   6.065  0.3556  0.6368  0.5751
   39SM24   H88 5878   4.026   4.196   6.171 -0.2788  2.4946  0.5242
   39SM24   H89 5879   4.007   4.079   6.039 -0.1647  0.2134  2.1986
   39SM24   C45 5880   4.103   4.271   5.981  0.1999 -0.1031 -0.5730
   39SM24   H90 5881   4.107   4.377   6.009  0.8288 -0.4724  0.7870
   39SM24   H91 5882   4.078   4.268   5.875  0.1877 -4.5598 -0.5092
   39SM24   C46 5883   4.244   4.230   6.009  0.3198  0.3240  0.0476
   39SM24   H92 5884   4.283   4.247   6.110  2.9876 -0.4857 -0.7806
   39SM24   H93 5885   4.240   4.121   6.000  0.9122  0.4022 -1.3077
   39SM24   C47 5886   4.332   4.270   5.896  0.0100 -0.4823  0.0975
   39SM24   H94 5887   4.355   4.375   5.883  0.8457 -0.8864 -1.9435
   39SM24   H95 5888   4.432   4.225   5.903 -0.4400 -1.7759 -1.3465
   39SM24   H96 5889   4.290   4.254   5.797  2.6003  2.4983 -1.5532
   40SM24    N1 5890   4.224   3.398   7.934 -0.0440  0.4656 -0.1930
   40SM24    C1 5891   4.128   3.305   7.864  0.7077  0.2424  0.2937
   40SM24    H1 5892   4.167   3.278   7.765 -0.0984  0.8507 -0.1946
   40SM24    H2 5893   4.117   3.213   7.921  2.3329  0.0811  0.3710
   40SM24    C2 5894   4.361   3.334   7.942 -0.8323 -0.2422 -0.3452
   40SM24    H3 5895   4.446   3.396   7.970 -1.6734  0.7542  0.0757
   40SM24    H4 5896   4.366   3.251   8.011  0.7484  0.2043  0.0940
   40SM24    H5 5897   4.404   3.297   7.849  0.7728 -0.5266  0.5001
   40SM24    C3 5898   4.255   3.505   7.842  0.6926 -0.1445  0.1162
   40SM24    H6 5899   4.300   3.469   7.750  1.0943 -1.1013  0.6826
   40SM24    H7 5900   4.163   3.554   7.809  1.4724  0.0252 -1.8269
   40SM24    H8 5901   4.319   3.586   7.878  0.0562  0.1997  0.4894
   40SM24    C4 5902   4.177   3.435   8.068  0.1468 -0.3050 -0.5477
   40SM24    H9 5903   4.122   3.528   8.068 -0.1772 -0.4495 -4.1244
   40SM24   H10 5904   4.131   3.353   8.123  1.6351  0.3218  1.7509
   40SM24   H11 5905   4.257   3.464   8.137  1.0340 -1.4525 -1.0626
   40SM24    C5 5906   3.986   3.358   7.861  0.2387 -0.3681  0.1735
   40SM24   H12 5907   3.987   3.451   7.803 -2.7709 -1.0576 -1.0636
   40SM24   H13 5908   3.934   3.350   7.956  1.6358 -1.6474  0.8601
   40SM24    P1 5909   3.773   3.310   7.703 -0.2711  0.0125  0.3818
   40SM24    O1 5910   3.686   3.359   7.806  0.1175  0.1671 -0.2711
   40SM24    O2 5911   3.720   3.193   7.635 -0.0098  0.4870 -0.3181
   40SM24    O3 5912   3.917   3.279   7.766 -0.0628 -0.2072  0.6083
   40SM24    O4 5913   3.802   3.423   7.604 -0.2145 -0.4199  1.0596
   40SM24    C6 5914   3.910   3.418   7.511 -0.0234 -0.7665  0.4022
   40SM24   H14 5915   3.917   3.513   7.458 -0.1456 -0.6170  0.6471
   40SM24   H15 5916   4.005   3.431   7.563  1.1247 -0.6783 -1.6492
   40SM24    C7 5917   3.891   3.312   7.400 -0.4331  0.8955  0.4943
   40SM24   H16 5918   3.876   3.213   7.441  0.2156  1.0087  1.0165
   40SM24    N2 5919   4.027   3.301   7.333  0.3293  0.0311 -0.8252
   40SM24    HN 5920   4.088   3.379   7.353 -1.7143  1.0379  1.8609
   40SM24    C8 5921   3.781   3.327   7.301  0.3564  0.7522 -0.8035
   40SM24   OSM 5922   3.755   3.199   7.232 -0.9274 -0.4042  0.1626
   40SM24   HSM 5923   3.838   3.175   7.194 -2.0554 -0.2645 -2.4417
   40SM24   H17 5924   3.687   3.334   7.355  0.4404  2.4421 -0.8383
   40SM24    C9 5925   3.800   3.439   7.200 -0.6470 -0.7379 -0.8732
   40SM24   H18 5926   3.789   3.534   7.249  1.7768 -1.1295  0.5497
   40SM24   C10 5927   3.839   3.434   7.074  0.3847  0.4993 -0.3088
   40SM24   H19 5928   3.860   3.337   7.030  1.7474  1.2083 -1.2571
   40SM24   C11 5929   3.846   3.562   7.002 -0.5628  0.2357 -0.4880
   40SM24   H20 5930   3.932   3.560   6.935 -1.0700 -2.1742 -1.1028
   40SM24   H21 5931   3.879   3.642   7.070 -0.9740 -0.2186  0.2540
   40SM24   C12 5932   3.716   3.590   6.925 -0.0856  0.1783  0.1185
   40SM24   H22 5933   3.634   3.575   6.996  0.5378 -1.6064  0.5023
   40SM24   H23 5934   3.699   3.513   6.850  0.2217  1.3210 -1.1380
   40SM24   C13 5935   3.707   3.730   6.862 -0.4259 -0.7313 -0.4774
   40SM24   H24 5936   3.805   3.757   6.822 -0.9804  2.4685  0.1617
   40SM24   H25 5937   3.715   3.803   6.943  0.1598 -2.3212  0.9139
   40SM24   C14 5938   3.595   3.761   6.766  0.2310  0.3543  0.0492
   40SM24   H26 5939   3.502   3.756   6.822  1.9181 -2.7343  2.7376
   40SM24   H27 5940   3.596   3.698   6.677  0.5372  1.2032 -0.5570
   40SM24   C15 5941   3.605   3.900   6.722  0.0647  0.3841  0.1129
   40SM24   H28 5942   3.608   3.957   6.814 -1.3497 -0.1276  0.4757
   40SM24   H29 5943   3.512   3.917   6.669  0.4258 -1.5785 -1.2305
   40SM24   C16 5944   3.718   3.951   6.630 -0.9360  0.4124  0.1003
   40SM24   H30 5945   3.800   3.983   6.694 -0.5875 -2.8404  1.3754
   40SM24   H31 5946   3.696   4.049   6.588  0.4106  0.3242 -0.8313
   40SM24   C17 5947   3.763   3.866   6.506  0.1258 -0.3664 -0.2130
   40SM24   H32 5948   3.678   3.842   6.442 -1.0587  0.1195  1.1496
   40SM24   H33 5949   3.791   3.772   6.551 -0.5348 -0.4363  0.0640
   40SM24   C18 5950   3.872   3.940   6.423  0.2585  0.4637  0.1989
   40SM24   H34 5951   3.962   3.955   6.483 -0.4276  1.0760  1.0903
   40SM24   H34 5952   3.841   4.040   6.395 -0.3755 -0.3557 -2.0705
   40SM24   C19 5953   3.925   3.851   6.309 -0.0473 -0.2714 -0.1028
   40SM24   H35 5954   3.869   3.843   6.216  1.1678  0.9083 -0.9541
   40SM24   H36 5955   3.929   3.743   6.328  0.4924 -0.5333 -1.6285
   40SM24   C20 5956   4.069   3.889   6.275 -0.1428 -0.5375 -1.1847
   40SM24   H37 5957   4.136   3.858   6.355 -1.0488 -0.8220 -0.5281
   40SM24   H38 5958   4.093   3.993   6.255  0.9353 -0.5834 -0.1912
   40SM24   C21 5959   4.126   3.824   6.150  0.0202  0.0663  0.3917
   40SM24   H39 5960   4.076   3.870   6.064  2.0259 -0.9773 -1.3677
   40SM24   H40 5961   4.095   3.720   6.147 -2.3969  0.6000  3.9089
   40SM24   C22 5962   4.277   3.840   6.122  0.5679  0.0132 -0.4906
   40SM24   H41 5963   4.342   3.789   6.192 -0.7984 -0.4010  0.4938
   40SM24   H42 5964   4.310   3.944   6.123 -0.8557  0.4737 -0.3770
   40SM24   C23 5965   4.309   3.772   5.996 -0.5988  0.2242 -0.7609
   40SM24   H43 5966   4.416   3.755   5.986 -0.1197  2.0603  0.8610
   40SM24   H44 5967   4.251   3.683   5.973 -1.3050  0.1200  1.3062
   40SM24   H45 5968   4.286   3.835   5.910 -1.0493 -0.6999 -1.3199
   40SM24   C24 5969   4.069   3.209   7.245 -0.1942  1.2395 -0.4950
   40SM24   O33 5970   4.005   3.111   7.214 -0.2534  0.2006  0.3596
   40SM24   C25 5971   4.190   3.257   7.172 -0.7546  0.4005  0.3490
   40SM24   H50 5972   4.277   3.227   7.231 -1.3614 -0.5239  0.8000
   40SM24   H51 5973   4.200   3.365   7.167 -0.2706  0.2767 -1.6412
   40SM24   C26 5974   4.218   3.188   7.038 -0.4203 -0.3885 -0.0189
   40SM24   H52 5975   4.129   3.196   6.976  0.6394  0.8966 -1.4304
   40SM24   H53 5976   4.217   3.079   7.041  1.3084 -0.4123  0.4457
   40SM24   C27 5977   4.348   3.240   6.975 -0.9856  0.2843  0.7756
   40SM24   H54 5978   4.422   3.281   7.044  1.9269 -0.3274 -1.8700
   40SM24   H55 5979   4.317   3.319   6.905  2.0259  0.8732  0.0148
   40SM24   C28 5980   4.419   3.124   6.901  0.8040  1.2336 -0.8125
   40SM24   H56 5981   4.352   3.056   6.848  0.7382  0.0922  0.6808
   40SM24   H57 5982   4.471   3.060   6.972  0.3821  1.1698 -0.5573
   40SM24   C29 5983   4.515   3.181   6.800  0.2499 -0.2480 -0.0954
   40SM24   H58 5984   4.566   3.095   6.756  1.0625 -0.3985  1.1331
   40SM24   H59 5985   4.601   3.235   6.840  1.2431 -0.7707 -1.4798
   40SM24   C30 5986   4.464   3.260   6.679 -0.1020  0.0106 -0.5913
   40SM24   H60 5987   4.440   3.360   6.716 -1.2592  0.2295 -1.9029
   40SM24   H61 5988   4.366   3.221   6.654 -0.2821  1.0038 -1.5175
   40SM24   C31 5989   4.558   3.255   6.563  0.1028 -0.2688 -0.6338
   40SM24   H62 5990   4.596   3.154   6.553 -3.3452 -1.4683 -2.5732
   40SM24   H63 5991   4.653   3.303   6.586 -0.0626 -0.9807  1.6928
   40SM24   C32 5992   4.499   3.308   6.438  0.5549 -0.0254  0.3103
   40SM24   H64 5993   4.463   3.410   6.454  1.4852  0.5584 -1.2403
   40SM24   H65 5994   4.409   3.254   6.409  0.0876  1.2047 -0.6061
   40SM24   C33 5995   4.599   3.307   6.323 -0.0739  0.2293  0.6501
   40SM24   H66 5996   4.691   3.361   6.346  1.3779 -1.7438 -0.2577
   40SM24   H67 5997   4.554   3.358   6.238  0.4782 -0.8722 -0.3165
   40SM24   C34 5998   4.638   3.164   6.273  0.2379  0.0728  0.4036
   40SM24   H68 5999   4.559   3.089   6.280 -0.0393  0.4900  2.1122
   40SM24   H69 6000   4.707   3.124   6.346 -0.3113  1.7212  1.8684
   40SM24   C35 6001   4.685   3.157   6.128  0.0180 -0.5280 -0.3607
   40SM24   H70 6002   4.772   3.222   6.117  0.0601 -0.6297 -0.6372
   40SM24   H71 6003   4.612   3.187   6.054 -0.0160  2.4429  0.7774
   40SM24   C36 6004   4.737   3.013   6.114 -0.2001 -0.4401  0.7924
   40SM24   H72 6005   4.662   2.935   6.129  2.5569 -2.9156  2.1162
   40SM24   H73 6006   4.827   2.994   6.172  1.8511  1.5731 -1.6101
   40SM24   C37 6007   4.789   2.983   5.978 -0.1293 -0.2112 -0.3056
   40SM24   H74 6008   4.863   3.060   5.954 -0.9481  1.1886  1.5602
   40SM24   H75 6009   4.703   2.982   5.911 -0.3020 -0.4238 -0.0790
   40SM24   C38 6010   4.861   2.841   5.962  0.1793  0.2935 -0.9634
   40SM24   H76 6011   4.908   2.803   6.053 -0.7717  0.2652 -0.4704
   40SM24   H77 6012   4.927   2.847   5.876 -0.3534 -1.9756 -1.5617
   40SM24   C39 6013   4.759   2.721   5.943  0.9166  0.1912  0.5128
   40SM24   H78 6014   4.703   2.741   5.851 -0.4357  1.7937  1.6424
   40SM24   H79 6015   4.680   2.718   6.018  1.0836  2.3212  0.7869
   40SM24   C40 6016   4.819   2.583   5.933 -0.1647 -0.5377  0.2412
   40SM24   H80 6017   4.876   2.542   6.016  1.0347  1.7585  0.5819
   40SM24   H81 6018   4.736   2.515   5.911 -0.6938  0.9431 -2.6134
   40SM24   C41 6019   4.912   2.563   5.811  0.0663 -1.1300  0.0378
   40SM24   H82 6020   4.879   2.611   5.719 -1.2206 -0.0770  1.0461
   40SM24   H83 6021   5.010   2.605   5.834  0.5260 -2.4135  0.4995
   40SM24   C42 6022   4.939   2.408   5.791 -0.0100 -0.5031 -0.3742
   40SM24   H84 6023   4.992   2.367   5.877 -1.0916 -1.1784 -0.0201
   40SM24   H85 6024   5.008   2.394   5.707  1.7724  1.3555  0.7248
   40SM24   C43 6025   4.822   2.317   5.749  0.7661  0.2524  0.1495
   40SM24   H86 6026   4.762   2.361   5.670  0.6488 -0.1209  0.0271
   40SM24   H87 6027   4.754   2.300   5.833  0.5893  1.2246  0.2176
   40SM24   C44 6028   4.867   2.188   5.682  0.1939 -0.8437  0.1591
   40SM24   H88 6029   4.932   2.206   5.596  0.1364  0.1878  0.3270
   40SM24   H89 6030   4.932   2.150   5.760 -1.1642  0.2735  1.8527
   40SM24   C45 6031   4.760   2.086   5.641 -0.5756  0.0863  0.8191
   40SM24   H90 6032   4.691   2.071   5.724 -2.9666 -0.6013 -1.2316
   40SM24   H91 6033   4.814   1.994   5.622  2.3275  2.2133 -1.7953
   40SM24   C46 6034   4.684   2.130   5.514  0.3091 -0.0678  1.3885
   40SM24   H92 6035   4.620   2.048   5.480  0.5136 -0.3923  1.7808
   40SM24   H93 6036   4.630   2.223   5.533  0.2873  0.1350  0.3668
   40SM24   C47 6037   4.760   2.142   5.375 -0.8650 -0.6126  0.1729
   40SM24   H94 6038   4.695   2.133   5.288 -0.6307 -3.0843  0.2276
   40SM24   H95 6039   4.816   2.235   5.370 -0.6670 -0.6944  0.7472
   40SM24   H96 6040   4.838   2.065   5.372  0.9770  1.2254 -0.5876
   41SM24    N1 6041   4.169   4.939   8.240 -0.5618  0.2206 -0.5661
   41SM24    C1 6042   4.063   4.858   8.180 -0.3696 -0.3535  0.4154
   41SM24    H1 6043   4.107   4.777   8.122 -0.3704 -1.4037  1.8449
   41SM24    H2 6044   4.012   4.802   8.259 -0.7192  1.4335  1.4914
   41SM24    C2 6045   4.226   4.856   8.348  0.1340  0.8453 -0.4340
   41SM24    H3 6046   4.309   4.907   8.397  0.3694 -2.3887  2.7338
   41SM24    H4 6047   4.154   4.827   8.425  0.9305  0.0528  0.0252
   41SM24    H5 6048   4.261   4.763   8.304 -1.0082  0.6038 -0.8494
   41SM24    C3 6049   4.270   4.960   8.141  0.8537 -0.6732  0.0341
   41SM24    H6 6050   4.230   5.003   8.049 -1.4098 -1.5397  0.5791
   41SM24    H7 6051   4.354   5.022   8.172  1.0475 -2.4112  3.1001
   41SM24    H8 6052   4.323   4.869   8.116  1.4791 -0.0240 -1.0402
   41SM24    C4 6053   4.138   5.076   8.300 -0.2557 -0.0129  0.3504
   41SM24    H9 6054   4.051   5.065   8.366  0.7591  1.0416  1.8868
   41SM24   H10 6055   4.207   5.125   8.369 -1.0228  1.6102 -0.0093
   41SM24   H11 6056   4.109   5.150   8.226  3.3224  3.6129  2.3978
   41SM24    C5 6057   3.946   4.918   8.101  0.2544  0.1924 -0.5192
   41SM24   H12 6058   3.977   4.980   8.017  1.5845  0.2687  0.0218
   41SM24   H13 6059   3.872   4.972   8.160 -0.9575  0.5844 -2.3335
   41SM24    P1 6060   3.736   4.803   7.986  0.5947 -0.0795 -0.1723
   41SM24    O1 6061   3.651   4.901   8.054 -0.2962 -0.1354  0.2212
   41SM24    O2 6062   3.684   4.665   7.989 -0.3854 -0.2429  0.4797
   41SM24    O3 6063   3.874   4.805   8.054 -0.0348 -0.3716  0.3332
   41SM24    O4 6064   3.746   4.858   7.831  0.0318  0.3648 -0.1933
   41SM24    C6 6065   3.774   4.984   7.785  0.2174  0.5221  0.2438
   41SM24   H14 6066   3.768   5.052   7.869  1.6952 -0.0574  0.8351
   41SM24   H15 6067   3.877   4.982   7.748  0.1905  2.3539  0.0381
   41SM24    C7 6068   3.697   5.048   7.665 -0.1793  0.1846  0.9155
   41SM24   H16 6069   3.702   4.986   7.575 -1.9838  0.8876  0.3018
   41SM24    N2 6070   3.751   5.180   7.625  0.0520 -0.0058 -0.2710
   41SM24    HN 6071   3.702   5.262   7.660 -1.3310 -0.5868 -0.8024
   41SM24    C8 6072   3.545   5.066   7.689 -0.2317  1.0128 -0.0358
   41SM24   OSM 6073   3.518   5.138   7.809 -0.0304  0.0880 -0.2505
   41SM24   HSM 6074   3.565   5.219   7.819 -0.5833  0.2170  1.4699
   41SM24   H17 6075   3.499   5.123   7.608 -1.8212 -0.5879 -0.2922
   41SM24    C9 6076   3.474   4.930   7.683  0.5935  0.6502 -0.4791
   41SM24   H18 6077   3.530   4.857   7.739 -1.2028 -1.4175 -1.2892
   41SM24   C10 6078   3.361   4.898   7.619 -0.3163 -0.0536  0.4004
   41SM24   H19 6079   3.310   4.977   7.566 -2.7730 -1.0207  1.2586
   41SM24   C11 6080   3.293   4.753   7.616  0.0388 -0.1007 -0.1246
   41SM24   H20 6081   3.228   4.754   7.703  0.6855 -0.9603  0.3833
   41SM24   H21 6082   3.374   4.682   7.633 -1.6302 -1.6072  1.6784
   41SM24   C12 6083   3.217   4.727   7.487  0.5143  0.1019  0.2391
   41SM24   H22 6084   3.132   4.795   7.499  0.5002  0.5635 -2.2882
   41SM24   H23 6085   3.173   4.628   7.492  1.9242 -0.5652 -0.4967
   41SM24   C13 6086   3.282   4.760   7.353 -0.2407 -0.1446 -0.1548
   41SM24   H24 6087   3.371   4.702   7.331  0.5390  1.1747 -0.5528
   41SM24   H25 6088   3.323   4.861   7.350 -0.4541 -0.0653 -0.4349
   41SM24   C14 6089   3.192   4.756   7.225  0.1426  0.2288 -0.6218
   41SM24   H26 6090   3.098   4.810   7.229 -0.3265 -0.6586  0.5346
   41SM24   H27 6091   3.140   4.660   7.224  0.1005  0.2376  0.4476
   41SM24   C15 6092   3.272   4.801   7.101 -0.1114  0.5762 -0.9186
   41SM24   H28 6093   3.343   4.721   7.078 -0.9329 -0.7025  0.8209
   41SM24   H29 6094   3.326   4.887   7.138 -0.4737  0.5961 -0.4274
   41SM24   C16 6095   3.187   4.833   6.977  0.3002  0.9446  0.2294
   41SM24   H30 6096   3.113   4.904   7.012  0.6346  1.5672 -0.2978
   41SM24   H31 6097   3.133   4.743   6.949 -0.8217  1.6423  0.1441
   41SM24   C17 6098   3.248   4.896   6.851  0.1933 -0.2996 -0.0142
   41SM24   H32 6099   3.285   4.997   6.868  2.5690 -0.8418 -1.7416
   41SM24   H33 6100   3.173   4.898   6.771 -0.2676  0.3971  0.4249
   41SM24   C18 6101   3.372   4.808   6.794 -0.0286 -0.6330  0.1675
   41SM24   H34 6102   3.334   4.707   6.811 -2.2019 -0.2335 -1.9311
   41SM24   H34 6103   3.460   4.836   6.851 -1.4386  0.4935  1.8644
   41SM24   C19 6104   3.399   4.828   6.649 -0.1041 -0.1903 -0.2306
   41SM24   H35 6105   3.413   4.935   6.631  2.7196 -0.6997 -1.2896
   41SM24   H36 6106   3.312   4.812   6.586 -1.7997  1.4357  1.6081
   41SM24   C20 6107   3.531   4.751   6.611  0.0733 -0.7566  0.1168
   41SM24   H37 6108   3.535   4.646   6.641 -2.7226 -0.1276  2.8887
   41SM24   H38 6109   3.619   4.794   6.661 -0.5140  0.3682  0.1910
   41SM24   C21 6110   3.544   4.757   6.454 -0.4844  0.5253  0.5680
   41SM24   H39 6111   3.552   4.862   6.427 -2.5319  0.6183  0.2743
   41SM24   H40 6112   3.462   4.711   6.398 -0.6187  0.1476  1.0701
   41SM24   C22 6113   3.675   4.688   6.410  0.1952 -0.0950 -0.1544
   41SM24   H41 6114   3.676   4.587   6.453 -1.3557  0.5993  1.6161
   41SM24   H42 6115   3.768   4.733   6.444 -0.5640  1.2017  0.2305
   41SM24   C23 6116   3.692   4.683   6.266  0.4698  0.1049 -0.6719
   41SM24   H43 6117   3.794   4.646   6.253  1.3068  1.4605  1.8057
   41SM24   H44 6118   3.625   4.614   6.215 -0.2224 -1.0401  1.7452
   41SM24   H45 6119   3.684   4.779   6.214 -0.0238  1.1062  1.1959
   41SM24   C24 6120   3.875   5.198   7.576  0.0245  0.3439  0.3291
   41SM24   O33 6121   3.947   5.100   7.543  0.3214  0.1001 -0.1509
   41SM24   C25 6122   3.898   5.326   7.500  0.0606  0.6515 -0.9605
   41SM24   H50 6123   3.871   5.420   7.548 -1.0358  0.2990 -0.8667
   41SM24   H51 6124   3.851   5.323   7.402  0.3767 -1.7035 -1.0827
   41SM24   C26 6125   4.049   5.338   7.457 -0.1233 -1.0861  0.1483
   41SM24   H52 6126   4.059   5.278   7.367 -2.9139 -0.3433 -0.7003
   41SM24   H53 6127   4.124   5.298   7.526  2.7274  0.5611 -1.8771
   41SM24   C27 6128   4.096   5.481   7.412 -0.4970  0.0046  0.5226
   41SM24   H54 6129   4.192   5.478   7.360 -1.0564 -0.2583 -0.5283
   41SM24   H55 6130   4.124   5.551   7.490  0.9039 -0.4063  0.4031
   41SM24   C28 6131   3.995   5.542   7.318 -0.1909 -0.3367 -0.7944
   41SM24   H56 6132   4.028   5.642   7.293 -0.3769  0.4474  1.9587
   41SM24   H57 6133   3.903   5.564   7.371  0.6488  3.1818 -0.7189
   41SM24   C29 6134   3.961   5.472   7.189  0.3070 -0.6999  0.2178
   41SM24   H58 6135   3.915   5.376   7.209 -1.1530 -0.2210 -0.7493
   41SM24   H59 6136   4.051   5.441   7.136  1.1504  1.2735  0.4243
   41SM24   C30 6137   3.867   5.543   7.098  0.2658  0.0428 -0.6203
   41SM24   H60 6138   3.895   5.643   7.067  2.3177 -0.1039  0.6219
   41SM24   H61 6139   3.769   5.538   7.145  1.7351  0.6761  2.6240
   41SM24   C31 6140   3.851   5.463   6.968 -0.5856 -1.2192 -0.2682
   41SM24   H62 6141   3.820   5.360   6.984 -0.6880 -1.1474 -0.0132
   41SM24   H63 6142   3.944   5.463   6.910 -0.4751 -2.2261 -0.1095
   41SM24   C32 6143   3.744   5.542   6.884  0.6749 -0.1124 -0.3573
   41SM24   H64 6144   3.774   5.528   6.780 -2.5657  1.3601 -1.5546
   41SM24   H65 6145   3.748   5.650   6.898  2.4304 -0.4787  2.3004
   41SM24   C33 6146   3.596   5.505   6.918 -0.5511 -0.5798  0.6441
   41SM24   H66 6147   3.571   5.564   7.005 -0.7756 -0.5963  0.5914
   41SM24   H67 6148   3.590   5.402   6.953  0.3835 -0.0056  2.5681
   41SM24   C34 6149   3.501   5.531   6.796  0.0093  0.5787  0.9301
   41SM24   H68 6150   3.511   5.629   6.748  0.3138  0.5298  0.8873
   41SM24   H69 6151   3.399   5.523   6.833 -0.5173  0.5615 -0.4756
   41SM24   C35 6152   3.533   5.449   6.668  0.0452  0.1925  0.7062
   41SM24   H70 6153   3.564   5.347   6.692 -1.9829 -0.2916  1.3068
   41SM24   H71 6154   3.610   5.490   6.602  0.2523 -1.7108 -0.2780
   41SM24   C36 6155   3.406   5.447   6.584  0.0760  0.0218 -0.5147
   41SM24   H72 6156   3.373   5.550   6.571 -2.5786 -0.7933 -0.6429
   41SM24   H73 6157   3.333   5.404   6.653  0.0615  1.2422  0.2582
   41SM24   C37 6158   3.438   5.367   6.460 -0.0085 -0.4799 -0.8117
   41SM24   H74 6159   3.339   5.338   6.424 -0.8637 -0.9481  1.8542
   41SM24   H75 6160   3.488   5.274   6.484  0.7741 -0.1216 -1.0365
   41SM24   C38 6161   3.496   5.447   6.347 -0.3141  0.6257 -0.7113
   41SM24   H76 6162   3.589   5.492   6.383  0.2451 -0.5010 -0.7269
   41SM24   H77 6163   3.422   5.523   6.323  0.1049  1.7167  1.2790
   41SM24   C39 6164   3.536   5.352   6.235  0.8365  0.2179  0.2707
   41SM24   H78 6165   3.451   5.285   6.220  0.8942 -0.3443  2.2131
   41SM24   H79 6166   3.601   5.277   6.281 -0.0954 -0.2111  0.9308
   41SM24   C40 6167   3.593   5.410   6.105 -0.2758  0.5741 -0.1563
   41SM24   H80 6168   3.618   5.322   6.047  1.0169  0.7821  0.0616
   41SM24   H81 6169   3.522   5.466   6.046 -1.0806 -0.5193 -0.2293
   41SM24   C41 6170   3.714   5.492   6.135 -0.5675 -0.3369 -0.4958
   41SM24   H82 6171   3.673   5.580   6.185 -0.2829  0.6551 -1.9812
   41SM24   H83 6172   3.776   5.435   6.204 -2.8913  0.2393  2.1419
   41SM24   C42 6173   3.796   5.543   6.011 -0.3290 -0.3279 -0.3539
   41SM24   H84 6174   3.733   5.565   5.925  0.7114  1.0820 -0.7628
   41SM24   H85 6175   3.857   5.459   5.978 -2.0774 -1.9435  0.4025
   41SM24   C43 6176   3.879   5.665   6.017  0.7809 -0.0118 -0.0387
   41SM24   H86 6177   3.942   5.668   6.106 -0.8263  1.4652  1.0967
   41SM24   H87 6178   3.820   5.756   6.027 -1.3834 -1.1040 -2.4415
   41SM24   C44 6179   3.962   5.677   5.886 -0.5675 -0.0499 -0.1140
   41SM24   H88 6180   4.037   5.600   5.872 -0.3301 -0.1771  1.8019
   41SM24   H89 6181   3.901   5.661   5.797 -0.1421 -4.4362  0.2773
   41SM24   C45 6182   4.044   5.805   5.877  0.1595 -0.6730  0.4888
   41SM24   H90 6183   4.117   5.793   5.796  0.9759  0.0460  1.1133
   41SM24   H91 6184   4.101   5.837   5.964 -0.7190  0.2036  0.7378
   41SM24   C46 6185   3.953   5.922   5.835 -0.5734  0.0589  0.3558
   41SM24   H92 6186   3.895   5.886   5.749  1.6814 -0.3095 -1.0558
   41SM24   H93 6187   3.880   5.938   5.915  0.2244 -0.2818  1.1560
   41SM24   C47 6188   4.031   0.101   5.805  0.1201  0.1017  0.0265
   41SM24   H94 6189   4.103   0.122   5.884  1.0447 -1.4111 -0.4078
   41SM24   H95 6190   4.085   0.087   5.711 -0.5374  2.8084 -0.8051
   41SM24   H96 6191   3.949   0.173   5.800 -1.4283 -1.6441  0.0264
   42SM24    N1 6192   3.163   1.370   8.070 -0.1579 -0.0821  0.0369
   42SM24    C1 6193   3.019   1.346   8.099 -0.6794 -0.2790  0.3784
   42SM24    H1 6194   2.981   1.245   8.111  1.1115 -1.1991 -1.3937
   42SM24    H2 6195   2.983   1.397   8.188 -1.7578  0.9173 -0.7097
   42SM24    C2 6196   3.170   1.512   8.090  0.8664 -0.9187  0.5807
   42SM24    H3 6197   3.273   1.548   8.093  0.0757  1.4391 -0.1759
   42SM24    H4 6198   3.132   1.575   8.010 -0.4107 -1.7434  0.5298
   42SM24    H5 6199   3.130   1.545   8.186  2.0959  0.9492  0.4864
   42SM24    C3 6200   3.233   1.303   8.186 -0.1252  0.1716 -0.1852
   42SM24    H6 6201   3.336   1.336   8.183 -0.0002  0.0741  2.3311
   42SM24    H7 6202   3.202   1.330   8.287  0.1538  0.6842 -0.2347
   42SM24    H8 6203   3.229   1.194   8.177  0.7520 -0.1804  3.2777
   42SM24    C4 6204   3.197   1.314   7.941 -0.4148  0.1510 -0.0770
   42SM24    H9 6205   3.171   1.208   7.933 -0.1727  0.1448 -0.8364
   42SM24   H10 6206   3.169   1.380   7.859  0.9751  0.6514 -0.1539
   42SM24   H11 6207   3.305   1.327   7.930 -0.5184  0.9602 -0.1451
   42SM24    C5 6208   2.926   1.398   7.990  0.3034 -0.2791  1.0841
   42SM24   H12 6209   2.968   1.380   7.891  0.2521 -0.6453  1.1258
   42SM24   H13 6210   2.909   1.504   8.005 -0.9758 -0.2992 -0.1663
   42SM24    P1 6211   2.756   1.230   7.881  0.2519 -0.4219 -0.2886
   42SM24    O1 6212   2.608   1.220   7.889 -0.1246 -0.0921 -0.2141
   42SM24    O2 6213   2.831   1.103   7.911 -0.0532 -0.4235 -0.4586
   42SM24    O3 6214   2.803   1.334   8.001 -0.0391 -0.8283 -0.1845
   42SM24    O4 6215   2.804   1.282   7.739  0.5663  0.0384  0.0575
   42SM24    C6 6216   2.774   1.408   7.682  0.8210 -0.7439  0.8974
   42SM24   H14 6217   2.707   1.466   7.745  1.8338  3.3169 -1.4972
   42SM24   H15 6218   2.862   1.473   7.670 -0.4342  0.9482  0.6439
   42SM24    C7 6219   2.710   1.400   7.541 -0.0781  0.4770  0.0854
   42SM24   H16 6220   2.789   1.398   7.466  0.5672 -0.5096  0.7867
   42SM24    N2 6221   2.632   1.526   7.517  0.5986 -0.2323 -0.3845
   42SM24    HN 6222   2.532   1.526   7.529  0.7541 -0.5285  1.0372
   42SM24    C8 6223   2.603   1.289   7.524  0.1169  0.1755  0.2233
   42SM24   OSM 6224   2.510   1.277   7.628 -0.3419 -0.1389 -0.0121
   42SM24   HSM 6225   2.551   1.269   7.713 -0.8619 -1.2220  0.1556
   42SM24   H17 6226   2.555   1.318   7.431  0.1151  1.7519  0.6970
   42SM24    C9 6227   2.666   1.157   7.480 -0.5658 -0.0328  0.0550
   42SM24   H18 6228   2.731   1.118   7.557  0.4705  0.7637 -0.3975
   42SM24   C10 6229   2.635   1.079   7.379 -0.0912 -0.3043  1.3187
   42SM24   H19 6230   2.562   1.120   7.311 -1.0266 -1.8844  1.3377
   42SM24   C11 6231   2.702   0.946   7.355 -0.6602  0.9905 -0.0791
   42SM24   H20 6232   2.619   0.875   7.350 -0.2540  0.3802  1.3918
   42SM24   H21 6233   2.760   0.908   7.440 -0.4810 -0.6277 -0.9044
   42SM24   C12 6234   2.795   0.945   7.235 -1.0839 -0.1146 -0.7313
   42SM24   H22 6235   2.870   1.023   7.247 -2.0221  0.5534  0.9292
   42SM24   H23 6236   2.741   0.970   7.143 -0.1056 -0.8398 -1.5245
   42SM24   C13 6237   2.883   0.823   7.214  0.0351 -0.1323  0.6220
   42SM24   H24 6238   2.959   0.819   7.291 -0.9333 -1.6826  1.5289
   42SM24   H25 6239   2.945   0.826   7.124 -1.4257  0.5436 -0.3866
   42SM24   C14 6240   2.808   0.688   7.225 -0.2857 -0.1034  0.0231
   42SM24   H26 6241   2.755   0.658   7.316 -1.0155 -2.7448 -1.2259
   42SM24   H27 6242   2.878   0.605   7.216  0.5185  0.7950 -2.2428
   42SM24   C15 6243   2.702   0.674   7.114 -0.7915  0.0122  0.2483
   42SM24   H28 6244   2.636   0.760   7.122  1.1442  1.5534  0.1699
   42SM24   H29 6245   2.639   0.589   7.140 -1.3457  0.6296  0.9446
   42SM24   C16 6246   2.767   0.657   6.975 -0.5695 -0.1375  0.4690
   42SM24   H30 6247   2.819   0.562   6.964  0.3204  0.3690  0.1973
   42SM24   H31 6248   2.830   0.745   6.957 -0.8784 -0.4673 -2.5671
   42SM24   C17 6249   2.659   0.640   6.869  0.3304 -0.0374 -0.0603
   42SM24   H32 6250   2.584   0.719   6.872 -0.6112 -0.8607 -1.3941
   42SM24   H33 6251   2.594   0.556   6.894  0.5079 -0.9787 -2.5611
   42SM24   C18 6252   2.705   0.618   6.723  0.5438  0.5148  0.1719
   42SM24   H34 6253   2.772   0.532   6.718 -0.2936 -0.1425  0.0461
   42SM24   H34 6254   2.766   0.704   6.695  0.9120  0.5505  1.0916
   42SM24   C19 6255   2.588   0.625   6.619 -0.7103 -0.2494  0.4197
   42SM24   H35 6256   2.531   0.713   6.652  1.2756  0.7310  1.3096
   42SM24   H36 6257   2.512   0.547   6.623  0.0778 -1.0893 -0.9559
   42SM24   C20 6258   2.642   0.644   6.477  0.3856 -0.3302 -0.2234
   42SM24   H37 6259   2.704   0.560   6.447  0.7707 -0.2056  0.2277
   42SM24   H38 6260   2.696   0.739   6.472  0.0760 -0.0647  1.3654
   42SM24   C21 6261   2.536   0.668   6.373  0.5129 -0.5247 -0.8653
   42SM24   H39 6262   2.456   0.738   6.399  0.4043 -0.3630 -1.6087
   42SM24   H40 6263   2.482   0.574   6.366 -0.6664  0.1713 -1.2975
   42SM24   C22 6264   2.605   0.720   6.246  0.4534  0.1490 -0.3699
   42SM24   H41 6265   2.547   0.703   6.155 -1.0827  0.2979  0.5598
   42SM24   H42 6266   2.700   0.675   6.220 -0.2108 -0.5992 -1.5638
   42SM24   C23 6267   2.612   0.870   6.255  0.0077  0.6375  0.0061
   42SM24   H43 6268   2.626   0.923   6.161 -1.9585  1.2031  0.0082
   42SM24   H44 6269   2.515   0.904   6.292 -0.8774 -1.8346  0.0792
   42SM24   H45 6270   2.691   0.914   6.316 -0.0719 -1.1140  1.4405
   42SM24   C24 6271   2.698   1.633   7.485  0.3521 -0.5901  0.0866
   42SM24   O33 6272   2.822   1.642   7.489  0.5657  0.6016  0.3269
   42SM24   C25 6273   2.613   1.763   7.465  0.1240 -0.1062  0.8568
   42SM24   H50 6274   2.573   1.800   7.560 -1.7031 -3.0098  1.2916
   42SM24   H51 6275   2.532   1.729   7.401  0.2268 -1.3356  1.3477
   42SM24   C26 6276   2.694   1.884   7.401  0.2917  0.5005 -0.7188
   42SM24   H52 6277   2.767   1.849   7.327  0.1793  2.1745 -1.6520
   42SM24   H53 6278   2.754   1.933   7.477 -0.2905 -0.3792  0.3255
   42SM24   C27 6279   2.619   1.986   7.322  0.0942 -0.2976  0.7169
   42SM24   H54 6280   2.682   2.073   7.304  0.5576 -0.0830  3.2100
   42SM24   H55 6281   2.543   2.021   7.393  1.5546  0.3761  1.9924
   42SM24   C28 6282   2.559   1.942   7.181  0.1916 -0.2407 -1.2872
   42SM24   H56 6283   2.513   1.844   7.196  2.4604 -1.0531  0.6153
   42SM24   H57 6284   2.620   1.914   7.094  0.1224 -2.5640 -0.6327
   42SM24   C29 6285   2.457   2.042   7.136 -1.0638 -0.3354 -0.3034
   42SM24   H58 6286   2.406   2.079   7.225  0.1768  0.9524 -0.1186
   42SM24   H59 6287   2.392   1.989   7.067 -0.8343 -2.1057  0.8220
   42SM24   C30 6288   2.520   2.165   7.071 -0.6531 -0.0133  0.5890
   42SM24   H60 6289   2.589   2.143   6.990  0.8784  3.8409  0.7351
   42SM24   H61 6290   2.574   2.222   7.146  0.6804  0.0714 -0.4348
   42SM24   C31 6291   2.407   2.261   7.020  0.4914  0.0674 -0.5009
   42SM24   H62 6292   2.448   2.357   6.986  2.1721  0.0217  1.3215
   42SM24   H63 6293   2.344   2.290   7.104  0.6662  0.0489 -0.3643
   42SM24   C32 6294   2.335   2.200   6.896  0.2367 -0.1617  0.1194
   42SM24   H64 6295   2.307   2.094   6.898 -2.5957  0.5546  0.9533
   42SM24   H65 6296   2.412   2.205   6.819 -1.0296 -0.1521 -1.1615
   42SM24   C33 6297   2.214   2.281   6.857 -0.1297  0.3006  0.0416
   42SM24   H66 6298   2.143   2.278   6.939  0.2260 -2.3077  0.3072
   42SM24   H67 6299   2.168   2.226   6.774  1.3840 -3.9564  1.8691
   42SM24   C34 6300   2.253   2.417   6.803  0.1443 -0.7984 -0.9502
   42SM24   H68 6301   2.327   2.415   6.722  0.8941  2.2247 -0.3740
   42SM24   H69 6302   2.274   2.474   6.893 -1.5719  2.8908 -2.7942
   42SM24   C35 6303   2.127   2.479   6.734 -0.1295  0.2356  0.0793
   42SM24   H70 6304   2.038   2.468   6.796  1.6419  0.9854  2.8351
   42SM24   H71 6305   2.099   2.424   6.644  1.1637  0.1906 -0.3030
   42SM24   C36 6306   2.143   2.628   6.689  0.1941  0.7106 -0.3462
   42SM24   H72 6307   2.243   2.663   6.717  0.6868 -0.1880 -0.9709
   42SM24   H73 6308   2.075   2.686   6.751  0.4835  2.9540 -2.0500
   42SM24   C37 6309   2.133   2.641   6.540 -0.6815 -0.4813  0.1845
   42SM24   H74 6310   2.056   2.573   6.504  0.3413 -0.8692 -1.3131
   42SM24   H75 6311   2.224   2.591   6.507 -0.3334 -0.9219  1.7686
   42SM24   C38 6312   2.112   2.787   6.495 -0.1106 -0.5668  0.2035
   42SM24   H76 6313   2.189   2.852   6.535  1.1785 -2.2395  0.4847
   42SM24   H77 6314   2.016   2.828   6.526 -0.2546 -0.0670 -0.8801
   42SM24   C39 6315   2.147   2.793   6.342 -0.5300  0.1734 -0.3036
   42SM24   H78 6316   2.113   2.703   6.291  0.6474 -0.5394  0.1491
   42SM24   H79 6317   2.253   2.773   6.328 -1.0635 -1.7838 -1.7948
   42SM24   C40 6318   2.101   2.918   6.261  0.2675  0.4131  0.3269
   42SM24   H80 6319   2.002   2.944   6.299 -0.5817 -0.0561 -1.4908
   42SM24   H81 6320   2.163   3.002   6.291  0.0042  0.8648 -0.3650
   42SM24   C41 6321   2.104   2.917   6.106  0.2355 -0.0144 -0.3062
   42SM24   H82 6322   2.007   2.892   6.063 -0.4060 -0.7532  1.5525
   42SM24   H83 6323   2.130   3.016   6.067 -0.4102  0.5756  0.7257
   42SM24   C42 6324   2.208   2.822   6.036  0.0728  0.7657 -1.0667
   42SM24   H84 6325   2.196   2.823   5.928  1.1577  2.4602 -1.1948
   42SM24   H85 6326   2.192   2.718   6.063  1.9913  0.5903 -0.5454
   42SM24   C43 6327   2.354   2.859   6.076 -0.1790  0.4265  0.8517
   42SM24   H86 6328   2.420   2.772   6.068  0.0100  0.6971 -0.8016
   42SM24   H87 6329   2.356   2.904   6.175 -2.4292  1.6693  0.3721
   42SM24   C44 6330   2.423   2.958   5.976 -0.1267  0.4496  0.4197
   42SM24   H88 6331   2.405   2.928   5.873  2.5387  0.1094  0.0132
   42SM24   H89 6332   2.372   3.055   5.978  0.4454  0.7608  0.1654
   42SM24   C45 6333   2.572   2.975   6.009  0.6416 -0.3955  0.3628
   42SM24   H90 6334   2.631   2.884   5.997  0.5217 -0.5525  0.9594
   42SM24   H91 6335   2.584   2.993   6.116 -2.4526 -2.0967  1.0620
   42SM24   C46 6336   2.635   3.095   5.940  0.0875  0.2962  0.2071
   42SM24   H92 6337   2.570   3.178   5.967 -0.1847 -0.7442  2.8921
   42SM24   H93 6338   2.733   3.122   5.981  0.0788  1.7719 -0.6904
   42SM24   C47 6339   2.646   3.081   5.781 -0.1369  0.5222  0.1163
   42SM24   H94 6340   2.702   3.165   5.741 -0.0826  0.7262  0.6127
   42SM24   H95 6341   2.694   2.987   5.754  2.6123  1.8783  0.1320
   42SM24   H96 6342   2.550   3.091   5.729  0.4022 -0.6831 -1.1325
   43SM24    N1 6343   3.734   1.166   7.819 -0.7305 -0.1571 -0.1235
   43SM24    C1 6344   3.785   1.043   7.746  0.4129 -0.3172 -0.4974
   43SM24    H1 6345   3.793   0.968   7.825 -0.5243 -0.0399 -0.1265
   43SM24    H2 6346   3.715   1.007   7.671  0.2642  0.2640 -0.6438
   43SM24    C2 6347   3.681   1.260   7.717  0.5590 -0.9154  0.0318
   43SM24    H3 6348   3.746   1.266   7.630 -0.4884  4.0004 -0.5819
   43SM24    H4 6349   3.580   1.228   7.690 -0.4880  1.8678  0.4274
   43SM24    H5 6350   3.681   1.359   7.763 -0.5868 -0.8064 -0.1938
   43SM24    C3 6351   3.621   1.120   7.908 -0.4101 -0.3975  0.5645
   43SM24    H6 6352   3.554   1.058   7.848 -0.5502 -0.4651  0.7905
   43SM24    H7 6353   3.650   1.047   7.984  1.2434 -2.1584 -1.6880
   43SM24    H8 6354   3.570   1.205   7.954  0.8236  0.7425 -0.1497
   43SM24    C4 6355   3.833   1.231   7.909 -0.1732 -0.3223  0.0783
   43SM24    H9 6356   3.859   1.177   8.000  0.3804 -1.8630 -0.9717
   43SM24   H10 6357   3.923   1.273   7.864 -1.9233  0.8184 -2.4602
   43SM24   H11 6358   3.796   1.327   7.945 -0.3904 -0.8677  1.3354
   43SM24    C5 6359   3.926   1.057   7.678 -0.2906  0.1898  0.5669
   43SM24   H12 6360   3.994   1.087   7.758  0.6896 -0.9808  0.1840
   43SM24   H13 6361   3.930   1.148   7.617  0.7544 -1.4266 -1.8536
   43SM24    P1 6362   4.112   0.894   7.581  0.1088 -0.1748 -0.2335
   43SM24    O1 6363   4.115   0.749   7.563 -0.4100  0.2448 -0.1217
   43SM24    O2 6364   4.202   0.952   7.674  0.7257 -0.1464 -0.2724
   43SM24    O3 6365   3.962   0.934   7.610  0.1175 -0.0820 -0.3165
   43SM24    O4 6366   4.144   0.944   7.430  0.6011  0.6289 -0.1658
   43SM24    C6 6367   4.162   1.076   7.391  0.0968  0.4687  0.8724
   43SM24   H14 6368   4.060   1.115   7.385  0.8894  2.6164  0.8072
   43SM24   H15 6369   4.213   1.131   7.470 -2.0066  1.5710  1.5104
   43SM24    C7 6370   4.238   1.078   7.260  0.4358  0.0547 -0.0437
   43SM24   H16 6371   4.338   1.038   7.279  1.2561  1.7937 -0.6143
   43SM24    N2 6372   4.237   1.221   7.209 -0.7491  0.6470 -0.3944
   43SM24    HN 6373   4.182   1.242   7.127  0.6065 -0.7261 -1.6753
   43SM24    C8 6374   4.170   0.994   7.157 -0.6637 -0.1610  0.2515
   43SM24   OSM 6375   4.186   0.857   7.193  0.1777 -0.1444 -0.1121
   43SM24   HSM 6376   4.110   0.841   7.246  1.9525 -4.0373  1.3631
   43SM24   H17 6377   4.063   1.015   7.152 -1.1584 -2.5302  0.0542
   43SM24    C9 6378   4.227   1.025   7.016  0.0203  0.1511 -0.4149
   43SM24   H18 6379   4.335   1.024   7.017  0.0485  1.8311 -0.2756
   43SM24   C10 6380   4.157   1.030   6.901  0.1658  0.9698 -0.2852
   43SM24   H19 6381   4.049   1.023   6.899  0.1765  0.8688 -0.6515
   43SM24   C11 6382   4.234   1.054   6.768  0.2000 -0.7252 -0.1216
   43SM24   H20 6383   4.172   1.004   6.693 -1.2953 -0.2870  0.8106
   43SM24   H21 6384   4.337   1.021   6.779 -0.2763 -2.2375 -0.0935
   43SM24   C12 6385   4.210   1.201   6.736  0.0468 -0.3815  0.2155
   43SM24   H22 6386   4.261   1.265   6.809  0.1057 -0.2802  0.0862
   43SM24   H23 6387   4.105   1.229   6.749  0.6593  2.2169 -0.0706
   43SM24   C13 6388   4.248   1.235   6.591  0.4516  0.2947 -0.7088
   43SM24   H24 6389   4.191   1.183   6.514 -0.6391 -0.5043  0.5957
   43SM24   H25 6390   4.353   1.214   6.572 -0.0549 -0.6135 -2.5590
   43SM24   C14 6391   4.236   1.391   6.562 -0.2201  0.1481 -0.3909
   43SM24   H26 6392   4.134   1.430   6.570 -0.4374 -0.5574  0.3365
   43SM24   H27 6393   4.259   1.411   6.457 -0.3267 -1.3953 -0.7285
   43SM24   C15 6394   4.335   1.473   6.647 -0.0698  0.5840 -0.3856
   43SM24   H28 6395   4.432   1.424   6.653  0.1924  1.1012 -0.3452
   43SM24   H29 6396   4.290   1.473   6.746 -1.0848  3.0679 -0.7942
   43SM24   C16 6397   4.358   1.613   6.607 -0.5978 -0.5208 -0.4984
   43SM24   H30 6398   4.263   1.665   6.599 -1.1245 -1.3268  0.4796
   43SM24   H31 6399   4.407   1.626   6.510  1.9080  0.0335  0.8122
   43SM24   C17 6400   4.439   1.691   6.715 -0.4294 -0.0627  0.2758
   43SM24   H32 6401   4.525   1.743   6.674 -0.8872 -0.6428 -1.4517
   43SM24   H33 6402   4.491   1.620   6.779  1.4343  1.4711  0.4891
   43SM24   C18 6403   4.356   1.775   6.812  0.1209  0.5234  0.2550
   43SM24   H34 6404   4.300   1.698   6.866  0.0371  0.1908 -0.2935
   43SM24   H34 6405   4.273   1.817   6.755  1.3491  0.2556 -1.8083
   43SM24   C19 6406   4.437   1.882   6.895  0.4406  0.2311 -0.2514
   43SM24   H35 6407   4.478   1.953   6.823 -2.0023  1.2159 -0.7341
   43SM24   H36 6408   4.511   1.834   6.959  0.8822  3.4251  1.7487
   43SM24   C20 6409   4.349   1.965   6.992 -0.1663  0.3462  0.7232
   43SM24   H37 6410   4.272   1.999   6.923  1.3123  0.7015 -0.8040
   43SM24   H38 6411   4.402   2.050   7.034  0.5106  0.0280  0.5273
   43SM24   C21 6412   4.290   1.878   7.101 -0.0582  0.2618 -0.4051
   43SM24   H39 6413   4.370   1.832   7.160 -1.6213 -1.5293  0.3668
   43SM24   H40 6414   4.233   1.794   7.062  0.0500 -1.6490  3.3780
   43SM24   C22 6415   4.197   1.953   7.197 -0.2706  0.0621  0.3246
   43SM24   H41 6416   4.130   1.875   7.235  1.8173 -3.7191 -3.3798
   43SM24   H42 6417   4.126   2.007   7.135  0.7431  0.3578 -0.5770
   43SM24   C23 6418   4.251   2.060   7.291 -1.0880 -0.8623 -0.0511
   43SM24   H43 6419   4.231   2.153   7.237 -0.9184 -1.6098 -1.4114
   43SM24   H44 6420   4.207   2.075   7.390  2.6510  0.2708  1.5710
   43SM24   H45 6421   4.357   2.046   7.312 -0.8581  1.8460  0.8761
   43SM24   C24 6422   4.314   1.309   7.276  0.0232 -0.3540  0.6821
   43SM24   O33 6423   4.392   1.273   7.368 -0.1278 -0.0284  0.3714
   43SM24   C25 6424   4.338   1.447   7.218 -0.1805  0.0153  0.1158
   43SM24   H50 6425   4.319   1.517   7.299  1.5618 -0.2709  0.7901
   43SM24   H51 6426   4.266   1.473   7.141  0.4320  1.7754  0.1123
   43SM24   C26 6427   4.484   1.462   7.159 -0.2867  0.2514 -0.1020
   43SM24   H52 6428   4.558   1.419   7.226 -1.1848  0.4370  1.0387
   43SM24   H53 6429   4.508   1.568   7.158  1.8184 -0.2027 -0.6515
   43SM24   C27 6430   4.509   1.405   7.018  0.1731  0.5966  0.2067
   43SM24   H54 6431   4.448   1.464   6.950  0.4334 -1.3489 -1.7793
   43SM24   H55 6432   4.467   1.305   7.001  0.0658  0.7264 -0.3012
   43SM24   C28 6433   4.658   1.427   6.987  0.2248 -0.1169  0.0064
   43SM24   H56 6434   4.710   1.425   7.083 -1.0182 -1.4478  0.6752
   43SM24   H57 6435   4.668   1.525   6.941 -1.6022 -0.7181 -1.7330
   43SM24   C29 6436   4.719   1.322   6.901 -0.4095 -0.1878  0.5384
   43SM24   H58 6437   4.701   1.230   6.957  1.7773 -1.2176 -0.4009
   43SM24   H59 6438   4.828   1.330   6.904 -0.0654 -3.6963  0.3497
   43SM24   C30 6439   4.679   1.313   6.757  0.0669  0.2632  0.2082
   43SM24   H60 6440   4.719   1.405   6.715  1.9583 -1.5419 -2.1139
   43SM24   H61 6441   4.570   1.312   6.756  0.0348  1.6304 -2.2746
   43SM24   C31 6442   4.730   1.188   6.681 -0.5554  0.3616  0.1183
   43SM24   H62 6443   4.706   1.098   6.739  1.4255  0.7061  1.5129
   43SM24   H63 6444   4.838   1.199   6.680 -0.4815 -0.3686 -0.9572
   43SM24   C32 6445   4.674   1.163   6.541 -0.4053 -0.1443  0.4468
   43SM24   H64 6446   4.566   1.148   6.531 -0.1180 -1.2195 -1.3024
   43SM24   H65 6447   4.713   1.074   6.492 -0.5837  0.6356 -1.1468
   43SM24   C33 6448   4.700   1.276   6.439 -0.1740 -0.0159 -0.6274
   43SM24   H66 6449   4.631   1.356   6.466  0.3504 -0.3739  1.9117
   43SM24   H67 6450   4.656   1.227   6.352 -2.2303  1.3512 -0.4087
   43SM24   C34 6451   4.840   1.327   6.421 -0.8519  0.3745 -0.4211
   43SM24   H68 6452   4.893   1.358   6.511 -3.2630 -1.9148  1.8349
   43SM24   H69 6453   4.843   1.405   6.345  1.1019  0.1990 -0.5435
   43SM24   C35 6454   4.940   1.221   6.361 -0.4879  0.0246  0.1162
   43SM24   H70 6455   4.915   1.127   6.410  1.1802 -0.6474 -0.2834
   43SM24   H71 6456   5.044   1.242   6.382  0.2668 -1.7493 -1.6215
   43SM24   C36 6457   4.915   1.208   6.214 -0.2257 -0.7156  0.0422
   43SM24   H72 6458   4.808   1.186   6.204 -0.7399  1.7115 -0.1150
   43SM24   H73 6459   4.972   1.130   6.165  1.7803  0.4291  0.5199
   43SM24   C37 6460   4.956   1.324   6.123 -0.8540  0.5546 -0.1123
   43SM24   H74 6461   5.063   1.344   6.121 -0.7584  0.0996  0.1923
   43SM24   H75 6462   4.901   1.414   6.151  2.7372  3.0065 -0.5430
   43SM24   C38 6463   4.919   1.297   5.973 -0.0163  0.4718 -0.5855
   43SM24   H76 6464   4.816   1.265   5.963  0.0001  0.7104 -1.5621
   43SM24   H77 6465   4.978   1.219   5.924  1.2283  1.5529 -0.8405
   43SM24   C39 6466   4.918   1.434   5.901 -0.2613 -0.3802  0.0485
   43SM24   H78 6467   5.010   1.490   5.915 -1.9022  2.6078 -0.6470
   43SM24   H79 6468   4.846   1.494   5.956 -0.9739 -1.6232  0.4956
   43SM24   C40 6469   4.878   1.432   5.754  0.0183 -0.0678 -0.1989
   43SM24   H80 6470   4.942   1.357   5.707  0.4788 -0.1864  0.6015
   43SM24   H81 6471   4.772   1.411   5.765  0.3018 -1.1979  0.4640
   43SM24   C41 6472   4.903   1.567   5.687 -0.1255 -0.3150  1.1137
   43SM24   H82 6473   4.858   1.649   5.742  0.2228  1.8756 -1.7315
   43SM24   H83 6474   5.010   1.583   5.676 -0.4061  0.1082 -1.1674
   43SM24   C42 6475   4.845   1.564   5.542  0.2472 -0.5723  0.2062
   43SM24   H84 6476   4.742   1.529   5.544  0.2524 -0.5719  0.6032
   43SM24   H85 6477   4.893   1.485   5.483 -0.9331 -1.2023  0.0787
   43SM24   C43 6478   4.841   1.705   5.489 -0.5304 -0.0012 -0.3915
   43SM24   H86 6479   4.940   1.752   5.489  0.2003 -1.4802 -1.5553
   43SM24   H87 6480   4.790   1.771   5.559 -1.9712 -0.8637 -0.6172
   43SM24   C44 6481   4.787   1.717   5.346  0.7864 -0.4494 -0.2805
   43SM24   H88 6482   4.694   1.660   5.337  0.7919 -0.4903 -0.0803
   43SM24   H89 6483   4.783   1.820   5.310  2.8173  0.2906  1.5115
   43SM24   C45 6484   4.878   1.650   5.246 -0.7287  0.1064  0.5706
   43SM24   H90 6485   4.880   1.542   5.259 -0.3307  0.0388 -0.0230
   43SM24   H91 6486   4.979   1.689   5.261  0.6061 -2.2978 -1.6878
   43SM24   C46 6487   4.845   1.677   5.100 -0.0076  0.1268  0.2896
   43SM24   H92 6488   4.836   1.586   5.041 -1.2810 -0.4048  1.2681
   43SM24   H93 6489   4.748   1.725   5.090  0.3928  0.9381  0.2872
   43SM24   C47 6490   4.936   1.776   5.026  0.1157 -0.4164  0.3551
   43SM24   H94 6491   4.934   1.867   5.085 -2.9667 -0.2689  0.1057
   43SM24   H95 6492   5.037   1.737   5.018 -0.0842 -1.1041  1.0632
   43SM24   H96 6493   4.910   1.807   4.925  0.0513  0.4272  0.6307
   44SM24    N1 6494   4.263   1.451   8.499  0.2214 -0.0888 -0.0269
   44SM24    C1 6495   4.209   1.421   8.367 -0.6181  1.2233 -0.0741
   44SM24    H1 6496   4.277   1.355   8.314 -2.3051 -0.4429 -0.2325
   44SM24    H2 6497   4.121   1.358   8.377  1.4297 -1.4498  2.0498
   44SM24    C2 6498   4.391   1.525   8.504  0.2826  0.6736  0.1615
   44SM24    H3 6499   4.397   1.614   8.443 -3.0742  0.7275 -0.1840
   44SM24    H4 6500   4.411   1.549   8.609 -0.9966 -0.6606  0.7397
   44SM24    H5 6501   4.473   1.459   8.475  0.7429  1.4307 -0.2640
   44SM24    C3 6502   4.171   1.538   8.574 -0.3201 -0.2707  0.0259
   44SM24    H6 6503   4.082   1.488   8.611 -0.2137 -1.3940 -1.2076
   44SM24    H7 6504   4.216   1.591   8.658 -0.7374  0.5198 -0.2440
   44SM24    H8 6505   4.148   1.624   8.510 -0.0254 -0.3710 -0.2194
   44SM24    C4 6506   4.284   1.325   8.579  0.5034  0.0046  0.1740
   44SM24    H9 6507   4.196   1.264   8.598  0.8600  0.3050  2.9611
   44SM24   H10 6508   4.358   1.263   8.528 -1.4595 -1.3833 -1.0555
   44SM24   H11 6509   4.324   1.345   8.678  1.7658 -0.5392 -0.2064
   44SM24    C5 6510   4.189   1.541   8.270 -0.0536 -0.4346  0.6214
   44SM24   H12 6511   4.263   1.620   8.277 -0.8903  0.3075  1.2552
   44SM24   H13 6512   4.095   1.579   8.310 -0.9418 -1.1828 -0.7036
   44SM24    P1 6513   4.092   1.567   8.036 -0.0652 -0.0633  0.0826
   44SM24    O1 6514   3.955   1.591   8.095 -0.2123 -0.6968 -0.2704
   44SM24    O2 6515   4.112   1.489   7.912  0.1159  0.8405 -0.0197
   44SM24    O3 6516   4.173   1.483   8.144 -0.0666  0.3538  0.5225
   44SM24    O4 6517   4.159   1.705   8.026  0.4273  0.5478  0.2529
   44SM24    C6 6518   4.269   1.729   7.947  0.9900  0.5227 -0.0992
   44SM24   H14 6519   4.312   1.820   7.990 -0.7509 -0.2165  3.4335
   44SM24   H15 6520   4.345   1.653   7.962 -0.6380 -1.1744 -0.3665
   44SM24    C7 6521   4.246   1.727   7.794  0.1207  0.0420  0.5857
   44SM24   H16 6522   4.214   1.631   7.754  0.8064  0.7540 -1.7204
   44SM24    N2 6523   4.380   1.736   7.732  0.3183 -0.6684 -0.1539
   44SM24    HN 6524   4.459   1.752   7.793 -0.2756 -0.2001  0.4945
   44SM24    C8 6525   4.158   1.839   7.740 -0.2549  1.5208 -0.8296
   44SM24   OSM 6526   4.191   1.965   7.808 -0.1102 -0.3084  0.0912
   44SM24   HSM 6527   4.263   1.993   7.754 -1.8495  1.9343 -1.1372
   44SM24   H17 6528   4.181   1.859   7.635 -0.4132 -0.7249 -1.3073
   44SM24    C9 6529   4.010   1.803   7.743 -0.7784 -0.1775 -0.0781
   44SM24   H18 6530   3.971   1.757   7.833 -0.0032 -0.1046  0.3009
   44SM24   C10 6531   3.923   1.839   7.644 -0.3750 -0.7097 -0.3239
   44SM24   H19 6532   3.947   1.893   7.554 -1.4158  0.0258 -0.1695
   44SM24   C11 6533   3.771   1.823   7.657  0.1156  0.1842  0.3072
   44SM24   H20 6534   3.721   1.915   7.688 -0.5408  0.3591 -1.2180
   44SM24   H21 6535   3.756   1.757   7.742  1.9171  1.4585  1.6367
   44SM24   C12 6536   3.700   1.768   7.534 -0.1244  0.6573 -0.2897
   44SM24   H22 6537   3.605   1.722   7.559 -0.0500  1.8364  2.3065
   44SM24   H23 6538   3.758   1.679   7.507 -0.9668  0.5876 -1.9754
   44SM24   C13 6539   3.686   1.873   7.421 -0.4426  0.3642  0.1812
   44SM24   H24 6540   3.781   1.920   7.397 -0.3128 -0.1585 -0.3422
   44SM24   H25 6541   3.608   1.944   7.446 -0.6223  1.0211 -2.0953
   44SM24   C14 6542   3.620   1.812   7.300 -0.4508 -0.5610  1.0017
   44SM24   H26 6543   3.521   1.772   7.322 -1.3971  0.5153 -1.1036
   44SM24   H27 6544   3.678   1.737   7.247  1.3864  1.6926 -0.2781
   44SM24   C15 6545   3.588   1.927   7.201 -0.4393 -0.2125  0.5721
   44SM24   H28 6546   3.683   1.968   7.166  1.0150 -2.2434  2.0319
   44SM24   H29 6547   3.537   2.015   7.238 -0.8280  0.0569 -0.5807
   44SM24   C16 6548   3.519   1.876   7.069 -0.3086  0.3177 -0.3531
   44SM24   H30 6549   3.431   1.820   7.100 -3.0963  4.2784 -0.7958
   44SM24   H31 6550   3.584   1.802   7.021 -0.3112 -0.4732  0.8258
   44SM24   C17 6551   3.463   1.985   6.979 -0.6538  0.3622 -0.6475
   44SM24   H32 6552   3.541   2.055   6.947  0.1165 -0.3869 -0.4505
   44SM24   H33 6553   3.383   2.031   7.037  0.6937  0.7985  0.9342
   44SM24   C18 6554   3.401   1.931   6.849 -0.3209 -0.3053 -0.0563
   44SM24   H34 6555   3.317   1.863   6.865 -0.9545  0.0086 -1.9222
   44SM24   H34 6556   3.478   1.861   6.815  0.1708 -0.3929  1.1837
   44SM24   C19 6557   3.353   2.029   6.740  0.4537 -0.3088 -0.5306
   44SM24   H35 6558   3.440   2.085   6.707  0.4674 -0.1121 -0.1723
   44SM24   H36 6559   3.290   2.105   6.787 -0.1886 -2.3385  2.0275
   44SM24   C20 6560   3.274   1.951   6.627  0.2838 -0.3744  0.0861
   44SM24   H37 6561   3.187   1.905   6.674  1.5054 -1.9631  0.8697
   44SM24   H38 6562   3.329   1.866   6.585  1.8822  0.0331  1.2582
   44SM24   C21 6563   3.227   2.048   6.510  0.4653  0.2915 -0.4020
   44SM24   H39 6564   3.303   2.076   6.438  1.0206 -0.4188 -0.0967
   44SM24   H40 6565   3.179   2.138   6.549  0.3167 -0.4353  1.1469
   44SM24   C22 6566   3.129   1.973   6.423  0.3464 -0.5591  0.3752
   44SM24   H41 6567   3.170   1.875   6.400  1.9739 -0.1731  1.5731
   44SM24   H42 6568   3.136   2.029   6.330  1.3963  1.7442  1.7912
   44SM24   C23 6569   2.987   1.959   6.492 -0.9406  0.7687 -0.2479
   44SM24   H43 6570   2.962   2.051   6.545 -1.5803  0.5644 -0.1775
   44SM24   H44 6571   2.908   1.939   6.420 -0.7680  1.3084 -0.5885
   44SM24   H45 6572   2.988   1.884   6.572 -2.6732  0.5316 -0.4117
   44SM24   C24 6573   4.412   1.720   7.605  0.2343  0.0463 -0.7275
   44SM24   O33 6574   4.322   1.723   7.511  0.2196 -0.2669 -0.2389
   44SM24   C25 6575   4.558   1.723   7.563 -0.9078  0.4832  0.5888
   44SM24   H50 6576   4.591   1.618   7.562 -2.9086 -0.1609  0.3082
   44SM24   H51 6577   4.615   1.771   7.642  0.3720  2.1251 -1.2975
   44SM24   C26 6578   4.584   1.770   7.415  0.4311 -0.1562  0.4416
   44SM24   H52 6579   4.559   1.876   7.415 -0.6233 -0.2971 -3.7240
   44SM24   H53 6580   4.509   1.732   7.345 -1.4226  1.7533  1.3233
   44SM24   C27 6581   4.727   1.764   7.356  0.2059  0.0590  0.1725
   44SM24   H54 6582   4.751   1.659   7.371  0.1864 -0.2795 -2.0091
   44SM24   H55 6583   4.804   1.826   7.402  0.9542 -0.8041  0.0855
   44SM24   C28 6584   4.717   1.792   7.213  0.1214  0.1601  0.1396
   44SM24   H56 6585   4.688   1.897   7.204  0.6174  0.2084 -0.9275
   44SM24   H57 6586   4.637   1.737   7.164  1.8962 -2.5592  0.1960
   44SM24   C29 6587   4.840   1.744   7.143 -0.3346  0.0037  0.4593
   44SM24   H58 6588   4.838   1.636   7.154 -2.0056 -0.0675 -0.3628
   44SM24   H59 6589   4.936   1.779   7.181  0.1180 -1.8197  1.0363
   44SM24   C30 6590   4.833   1.762   6.997  0.3107 -0.0164 -1.1264
   44SM24   H60 6591   4.844   1.869   6.980  0.0381  0.2779  0.4638
   44SM24   H61 6592   4.743   1.730   6.946 -0.6072  0.1303  0.3758
   44SM24   C31 6593   4.936   1.692   6.919 -0.6187 -0.0048 -0.4566
   44SM24   H62 6594   4.914   1.585   6.932  1.4546 -0.3542  0.3735
   44SM24   H63 6595   5.030   1.709   6.972 -1.3083  1.6182  0.2783
   44SM24   C32 6596   4.957   1.738   6.770  0.1657 -0.0747  0.4026
   44SM24   H64 6597   5.060   1.709   6.750  0.1182  0.8881 -1.3181
   44SM24   H65 6598   4.952   1.847   6.763 -0.1964  0.0025  1.7874
   44SM24   C33 6599   4.870   1.676   6.663  0.2789  0.7241  0.3688
   44SM24   H66 6600   4.767   1.696   6.692 -0.2844 -1.8072  0.2170
   44SM24   H67 6601   4.878   1.567   6.654  2.3581  0.8425  0.4357
   44SM24   C34 6602   4.886   1.743   6.530 -0.3030 -0.4115 -0.3853
   44SM24   H68 6603   4.988   1.728   6.494  0.2869  0.0266  1.0835
   44SM24   H69 6604   4.863   1.848   6.545 -1.0018 -0.8078  1.4570
   44SM24   C35 6605   4.800   1.695   6.420  0.7963 -0.1290  0.0552
   44SM24   H70 6606   4.704   1.670   6.465 -0.6132  0.4477 -2.5601
   44SM24   H71 6607   4.851   1.604   6.387  0.3659 -0.7135  0.9773
   44SM24   C36 6608   4.793   1.788   6.300  0.0748  0.1052 -0.1410
   44SM24   H72 6609   4.894   1.808   6.264 -0.0259 -0.9537 -1.0164
   44SM24   H73 6610   4.749   1.886   6.319 -4.0067 -1.4331 -1.2325
   44SM24   C37 6611   4.724   1.717   6.172 -0.0906  0.3456 -0.0394
   44SM24   H74 6612   4.786   1.636   6.133  1.4598  0.4619  2.0583
   44SM24   H75 6613   4.721   1.793   6.094 -0.2482 -0.4805 -0.8373
   44SM24   C38 6614   4.579   1.666   6.208  0.7592  0.1609 -0.3289
   44SM24   H76 6615   4.502   1.744   6.203 -0.1273 -0.6636  0.2546
   44SM24   H77 6616   4.563   1.630   6.310  1.0609  1.2555  0.1096
   44SM24   C39 6617   4.539   1.551   6.116  0.1825 -0.3440 -0.2147
   44SM24   H78 6618   4.440   1.520   6.150 -0.5018 -1.3152 -2.9441
   44SM24   H79 6619   4.605   1.466   6.132  0.0929  0.0704  2.6360
   44SM24   C40 6620   4.550   1.583   5.962 -0.0424 -0.3074  0.4217
   44SM24   H80 6621   4.656   1.603   5.943 -0.4668  0.2131 -1.4975
   44SM24   H81 6622   4.524   1.494   5.906  2.2228 -1.1665  0.6652
   44SM24   C41 6623   4.464   1.709   5.916  0.0219  0.4428  0.3570
   44SM24   H82 6624   4.362   1.673   5.904  0.3133 -1.3504  2.9414
   44SM24   H83 6625   4.458   1.788   5.990 -0.8528 -0.0274  0.7976
   44SM24   C42 6626   4.526   1.760   5.783  0.0389 -0.2953  0.7419
   44SM24   H84 6627   4.535   1.680   5.708  0.1405 -0.8870  1.3835
   44SM24   H85 6628   4.632   1.788   5.785 -0.6597  3.0307 -2.6533
   44SM24   C43 6629   4.439   1.876   5.724 -0.2923 -0.0433 -0.8855
   44SM24   H86 6630   4.491   1.933   5.647  0.4150 -0.3273 -0.6169
   44SM24   H87 6631   4.428   1.948   5.805 -0.0398  2.0323 -2.6562
   44SM24   C44 6632   4.294   1.848   5.685 -0.6650  0.3389 -0.3869
   44SM24   H88 6633   4.241   1.796   5.765 -0.3881 -1.1242 -1.1339
   44SM24   H89 6634   4.246   1.945   5.679  1.4644  1.5319  1.1977
   44SM24   C45 6635   4.273   1.782   5.551  0.5392 -0.1851  0.1768
   44SM24   H90 6636   4.346   1.700   5.548 -0.3806 -1.0397  0.7312
   44SM24   H91 6637   4.287   1.857   5.474  2.5725 -0.6768  0.0176
   44SM24   C46 6638   4.140   1.705   5.549 -0.4904 -0.5274 -0.2887
   44SM24   H92 6639   4.151   1.632   5.629 -3.1445 -1.6935 -0.9272
   44SM24   H93 6640   4.051   1.765   5.569 -1.8223 -1.7573 -2.3772
   44SM24   C47 6641   4.118   1.624   5.420 -0.2652 -0.5296  0.1960
   44SM24   H94 6642   4.035   1.555   5.436  0.1604 -0.6199  2.1223
   44SM24   H95 6643   4.098   1.702   5.347 -0.4349 -0.8662 -0.1246
   44SM24   H96 6644   4.206   1.570   5.384  0.7927 -0.4430  2.5908
   45SM24    N1 6645   3.934   2.859   7.647 -0.1602 -0.0548 -0.2044
   45SM24    C1 6646   4.007   2.978   7.590  0.2977 -0.3376  0.6835
   45SM24    H1 6647   4.030   2.965   7.484  0.8179  0.2870  0.7172
   45SM24    H2 6648   3.950   3.069   7.605 -1.2253 -1.5118  2.3161
   45SM24    C2 6649   3.891   2.876   7.792 -0.2163 -0.7481  0.0266
   45SM24    H3 6650   3.831   2.967   7.799 -1.2777 -1.3406 -1.0970
   45SM24    H4 6651   3.840   2.788   7.832 -0.1978 -1.5049 -1.5715
   45SM24    H5 6652   3.972   2.907   7.857  0.8302 -0.2786 -1.4630
   45SM24    C3 6653   3.804   2.844   7.576  0.1381  0.7411  0.0459
   45SM24    H6 6654   3.742   2.765   7.617  0.2699 -0.5629 -2.1656
   45SM24    H7 6655   3.753   2.940   7.582  2.8712  2.4628 -2.6321
   45SM24    H8 6656   3.819   2.835   7.468 -1.5090  1.6162 -0.2761
   45SM24    C4 6657   3.997   2.730   7.618  0.0094 -0.9703 -0.4194
   45SM24    H9 6658   3.938   2.646   7.654 -0.8496  0.2778  1.1687
   45SM24   H10 6659   4.020   2.701   7.516 -1.2939 -1.3793 -0.6044
   45SM24   H11 6660   4.096   2.722   7.665 -1.5648 -1.4526  2.9823
   45SM24    C5 6661   4.147   3.002   7.660  0.5239  0.2297  0.5802
   45SM24   H12 6662   4.210   2.915   7.641 -0.6508 -0.6919  0.8476
   45SM24   H13 6663   4.145   3.013   7.768  1.5460  2.8309  0.3864
   45SM24    P1 6664   4.367   3.132   7.572 -0.6557  0.0613 -0.0960
   45SM24    O1 6665   4.448   3.056   7.670  0.0129 -0.2115  0.7843
   45SM24    O2 6666   4.387   3.277   7.550 -0.0376  0.3227 -0.7387
   45SM24    O3 6667   4.210   3.116   7.606  0.8555 -0.4948  0.6505
   45SM24    O4 6668   4.373   3.063   7.424 -0.1035  0.3682  0.3491
   45SM24    C6 6669   4.408   2.926   7.401  0.7902 -0.5727  0.6628
   45SM24   H14 6670   4.457   2.878   7.485  0.3739 -0.9436  0.6949
   45SM24   H15 6671   4.310   2.879   7.392  1.4878 -1.8167 -0.7695
   45SM24    C7 6672   4.491   2.913   7.269 -0.5373 -0.1026 -0.0151
   45SM24   H16 6673   4.419   2.956   7.199 -0.3464 -0.7235 -0.6047
   45SM24    N2 6674   4.511   2.772   7.235  0.3665 -0.0244 -0.8441
   45SM24    HN 6675   4.604   2.735   7.235  0.1919 -0.5872  2.0340
   45SM24    C8 6676   4.631   2.977   7.264 -0.1524 -0.6873  0.1483
   45SM24   OSM 6677   4.738   2.923   7.336  0.6597  0.6704 -0.1497
   45SM24   HSM 6678   4.704   2.910   7.423  0.1810  2.2244 -0.0951
   45SM24   H17 6679   4.671   2.968   7.164  0.2556  0.3392  0.2149
   45SM24    C9 6680   4.635   3.121   7.294 -0.1336 -0.0669 -0.1897
   45SM24   H18 6681   4.634   3.136   7.401 -0.0077  0.7667 -0.3044
   45SM24   C10 6682   4.630   3.220   7.203 -0.4885 -0.0638  0.2621
   45SM24   H19 6683   4.624   3.204   7.097 -0.5518  2.0185 -0.0701
   45SM24   C11 6684   4.632   3.372   7.225  0.0221  0.2056 -0.0299
   45SM24   H20 6685   4.631   3.376   7.334  1.8459 -1.4446  0.0894
   45SM24   H21 6686   4.544   3.430   7.198 -0.4942 -1.0801 -1.1275
   45SM24   C12 6687   4.758   3.435   7.180 -0.2465 -0.0014  0.2597
   45SM24   H22 6688   4.841   3.388   7.232 -0.5281 -1.1171 -0.3002
   45SM24   H23 6689   4.755   3.541   7.207 -1.5994  0.3391 -1.1871
   45SM24   C13 6690   4.790   3.420   7.026 -0.0394 -0.1584 -0.1021
   45SM24   H24 6691   4.784   3.316   6.996 -4.1592  0.0295 -0.1590
   45SM24   H25 6692   4.889   3.462   7.006 -0.6341  0.1135 -2.6883
   45SM24   C14 6693   4.692   3.498   6.939 -0.0323  0.3542 -0.4768
   45SM24   H26 6694   4.681   3.596   6.986  0.5766 -0.3833  1.2411
   45SM24   H27 6695   4.591   3.456   6.930 -0.2298  0.7680 -0.2368
   45SM24   C15 6696   4.757   3.509   6.793 -0.2262  0.6273  0.5569
   45SM24   H28 6697   4.765   3.409   6.750  0.4613  1.7011 -1.8858
   45SM24   H29 6698   4.859   3.547   6.805  0.1842  0.2495 -1.5035
   45SM24   C16 6699   4.687   3.599   6.687 -0.1489 -0.7714  0.5530
   45SM24   H30 6700   4.659   3.695   6.730  0.3505 -0.2629 -0.2484
   45SM24   H31 6701   4.591   3.549   6.675  0.4204 -2.1118  1.4291
   45SM24   C17 6702   4.756   3.619   6.551  0.3753  0.3314 -0.1766
   45SM24   H32 6703   4.786   3.518   6.523 -1.6992 -0.6612  1.0308
   45SM24   H33 6704   4.847   3.675   6.575 -1.2185  2.5620  0.7685
   45SM24   C18 6705   4.675   3.676   6.431  0.3332 -0.4693  0.2101
   45SM24   H34 6706   4.643   3.779   6.450  1.3375 -0.5283  2.4266
   45SM24   H34 6707   4.585   3.616   6.421  1.8849 -2.3383 -3.2978
   45SM24   C19 6708   4.754   3.683   6.303 -0.2512 -0.3231 -0.2727
   45SM24   H35 6709   4.815   3.594   6.285 -0.4838 -0.4799 -0.2926
   45SM24   H36 6710   4.830   3.760   6.316  0.5538 -1.3139  1.0962
   45SM24   C20 6711   4.669   3.724   6.185 -0.3146  0.7472 -0.7060
   45SM24   H37 6712   4.628   3.823   6.202 -1.5868  0.2129 -0.6169
   45SM24   H38 6713   4.579   3.663   6.178  0.3419 -0.5587  1.4313
   45SM24   C21 6714   4.751   3.718   6.058  0.4806  0.5501  0.2720
   45SM24   H39 6715   4.834   3.788   6.069 -0.3788  1.3472  1.9638
   45SM24   H40 6716   4.683   3.749   5.979  0.2233  1.3587  0.7975
   45SM24   C22 6717   4.801   3.590   6.004 -0.3050 -0.1814 -0.7144
   45SM24   H41 6718   4.854   3.555   6.092 -1.8338  0.4022  0.4599
   45SM24   H42 6719   4.869   3.600   5.920  2.6679 -1.2893  1.4946
   45SM24   C23 6720   4.682   3.493   5.975 -1.2365 -0.5047 -0.0754
   45SM24   H43 6721   4.623   3.480   6.066  1.6702  1.6433  2.2275
   45SM24   H44 6722   4.619   3.538   5.898  1.8144  3.4523 -0.3998
   45SM24   H45 6723   4.723   3.400   5.935  0.7250 -0.4361  1.7127
   45SM24   C24 6724   4.414   2.685   7.215 -0.4429  0.1017 -0.5024
   45SM24   O33 6725   4.298   2.722   7.202 -0.1026 -0.6963 -0.1259
   45SM24   C25 6726   4.452   2.539   7.226 -0.6834 -0.0659  0.3020
   45SM24   H50 6727   4.502   2.521   7.321 -0.0572 -3.4668 -0.6068
   45SM24   H51 6728   4.515   2.523   7.139 -0.0486  1.7246  0.4099
   45SM24   C26 6729   4.335   2.435   7.205  0.2612 -0.1120  0.4740
   45SM24   H52 6730   4.271   2.426   7.293 -1.8711  3.4821 -0.6207
   45SM24   H53 6731   4.381   2.336   7.205 -0.7344 -0.5859  0.1405
   45SM24   C27 6732   4.252   2.433   7.082  0.2437 -0.4218  0.0185
   45SM24   H54 6733   4.162   2.493   7.093  0.9439  1.1030 -2.2167
   45SM24   H55 6734   4.225   2.329   7.064  1.1900 -0.2091 -2.9345
   45SM24   C28 6735   4.335   2.455   6.958  0.1779 -0.6746 -0.3441
   45SM24   H56 6736   4.418   2.384   6.961  1.0968  0.4391  0.8900
   45SM24   H57 6737   4.377   2.555   6.955  0.5469 -0.8128  0.0938
   45SM24   C29 6738   4.254   2.439   6.830  0.1835  0.2469 -0.1088
   45SM24   H58 6739   4.307   2.479   6.743 -0.5492  0.6792 -0.3669
   45SM24   H59 6740   4.162   2.498   6.831  0.0555  0.0476  0.0045
   45SM24   C30 6741   4.229   2.292   6.808  0.2997  0.3626  0.3273
   45SM24   H60 6742   4.155   2.245   6.873  1.0970 -2.0627 -0.4374
   45SM24   H61 6743   4.324   2.241   6.826 -0.6575 -0.7145  2.6569
   45SM24   C31 6744   4.186   2.267   6.661 -0.5743  0.6503  0.7459
   45SM24   H62 6745   4.232   2.327   6.582 -0.6337  1.3736  1.2546
   45SM24   H63 6746   4.080   2.283   6.644 -0.5912  0.2730  0.4704
   45SM24   C32 6747   4.217   2.123   6.611 -0.4787  0.3077 -0.0864
   45SM24   H64 6748   4.161   2.056   6.675 -2.5020  0.7589 -1.3274
   45SM24   H65 6749   4.324   2.122   6.631 -0.5203  2.0229  0.2780
   45SM24   C33 6750   4.175   2.104   6.461 -0.1047 -0.2364 -0.0484
   45SM24   H66 6751   4.225   2.162   6.383 -1.7342 -0.6735 -1.4615
   45SM24   H67 6752   4.068   2.123   6.451 -0.4776 -2.4370 -0.5395
   45SM24   C34 6753   4.210   1.962   6.411 -0.3267  0.1174 -0.6274
   45SM24   H68 6754   4.178   1.882   6.478 -1.1016 -0.1254 -1.2790
   45SM24   H69 6755   4.317   1.944   6.422 -0.0577  2.1916  0.2316
   45SM24   C35 6756   4.151   1.928   6.276 -0.0730  0.4611 -0.6057
   45SM24   H70 6757   4.193   1.997   6.202  1.5244  0.4573  0.2812
   45SM24   H71 6758   4.047   1.957   6.292 -0.0831 -0.1442  0.4448
   45SM24   C36 6759   4.173   1.778   6.240 -0.3728  0.5522 -0.5717
   45SM24   H72 6760   4.155   1.722   6.332  1.6011  0.2123 -0.3690
   45SM24   H73 6761   4.280   1.766   6.222 -0.0302  1.0476  1.1139
   45SM24   C37 6762   4.085   1.722   6.122 -0.6588 -0.8213 -0.3193
   45SM24   H74 6763   4.083   1.792   6.038 -2.5408 -2.2459 -1.4960
   45SM24   H75 6764   3.980   1.719   6.153 -0.4396  0.3947  0.5936
   45SM24   C38 6765   4.128   1.587   6.078  0.0568  0.6528  0.1076
   45SM24   H76 6766   4.116   1.509   6.153 -2.3948  1.4137  0.5471
   45SM24   H77 6767   4.236   1.589   6.063  0.3380 -2.2041  1.3775
   45SM24   C39 6768   4.061   1.536   5.944  0.2288  0.0714 -0.3655
   45SM24   H78 6769   4.056   1.618   5.872 -1.9724  0.0668 -0.2502
   45SM24   H79 6770   3.958   1.506   5.963  0.9496 -1.2448  1.5618
   45SM24   C40 6771   4.150   1.431   5.879  0.0281 -0.3443 -0.0663
   45SM24   H80 6772   4.241   1.474   5.835 -0.2551 -0.9863 -1.3069
   45SM24   H81 6773   4.184   1.356   5.951 -1.4307 -2.0672 -1.1203
   45SM24   C41 6774   4.066   1.348   5.781 -0.1685  0.0200  0.5111
   45SM24   H82 6775   4.006   1.287   5.848  0.7953 -2.5206 -0.8404
   45SM24   H83 6776   4.006   1.410   5.715 -1.5758 -0.4307  1.3643
   45SM24   C42 6777   4.157   1.252   5.699  0.3863 -0.3634 -0.8789
   45SM24   H84 6778   4.213   1.185   5.764  1.1225  1.2376  0.1538
   45SM24   H85 6779   4.217   1.313   5.631 -1.5121  1.1628 -1.2445
   45SM24   C43 6780   4.077   1.158   5.600 -0.4870  0.3440  0.2761
   45SM24   H86 6781   4.010   1.094   5.658 -1.7553  2.3706  1.0828
   45SM24   H87 6782   4.147   1.085   5.557 -1.5947  0.1307 -1.1955
   45SM24   C44 6783   4.004   1.241   5.492  0.1703  0.2710  0.1073
   45SM24   H88 6784   3.921   1.294   5.538 -0.1688  2.3267 -2.7226
   45SM24   H89 6785   4.069   1.324   5.463  1.0508 -0.0171  1.2188
   45SM24   C45 6786   3.958   1.164   5.368 -0.8473 -0.1719 -0.1719
   45SM24   H90 6787   3.892   1.082   5.395 -0.2858 -0.1158  1.4269
   45SM24   H91 6788   4.051   1.116   5.339  0.0103  0.2470  1.8145
   45SM24   C46 6789   3.892   1.250   5.258 -0.0189 -0.7930 -0.0297
   45SM24   H92 6790   3.815   1.311   5.304  0.8131  0.3027 -0.0824
   45SM24   H93 6791   3.972   1.316   5.224 -0.1316 -0.5480  0.1750
   45SM24   C47 6792   3.830   1.165   5.143 -0.6120  0.1741  0.8651
   45SM24   H94 6793   3.773   1.234   5.080  1.1683  1.7432  0.9309
   45SM24   H95 6794   3.906   1.121   5.079 -0.8195  0.7556  0.2061
   45SM24   H96 6795   3.756   1.092   5.176 -1.0192  0.1766 -0.0119
   46SM24    N1 6796   4.743   4.109   8.085 -0.3854 -0.4349  0.4728
   46SM24    C1 6797   4.636   4.191   8.142  0.5131 -0.4906 -0.3610
   46SM24    H1 6798   4.675   4.238   8.232  1.7236 -1.3874 -0.4078
   46SM24    H2 6799   4.604   4.266   8.069  0.2289  1.2181  1.4788
   46SM24    C2 6800   4.801   4.025   8.199 -0.3322  0.2321  0.3435
   46SM24    H3 6801   4.812   4.072   8.297 -2.5057  0.0644  0.6896
   46SM24    H4 6802   4.737   3.941   8.227 -0.2318  0.6192  1.7670
   46SM24    H5 6803   4.899   3.983   8.176 -0.7662 -1.6333  1.7590
   46SM24    C3 6804   4.709   4.024   7.967  0.4000 -0.4840 -0.2083
   46SM24    H6 6805   4.800   3.980   7.927  0.2135 -0.0130 -1.1819
   46SM24    H7 6806   4.653   3.934   7.993 -1.9533  1.8495  3.2873
   46SM24    H8 6807   4.673   4.068   7.874 -1.7090  1.4340  1.4614
   46SM24    C4 6808   4.856   4.199   8.043 -0.1116 -0.0443  0.1789
   46SM24    H9 6809   4.830   4.252   7.951 -0.9246  0.0456  0.4575
   46SM24   H10 6810   4.886   4.268   8.122  3.4067 -0.2748 -0.8657
   46SM24   H11 6811   4.951   4.149   8.020  1.4835  3.0235 -0.1823
   46SM24    C5 6812   4.504   4.117   8.178  0.1807 -0.0971 -0.8571
   46SM24   H12 6813   4.503   4.047   8.262  0.2918  1.0208  0.0847
   46SM24   H13 6814   4.478   4.052   8.094 -3.5970  2.3164 -1.7067
   46SM24    P1 6815   4.250   4.161   8.213  0.3650 -0.5889 -0.0253
   46SM24    O1 6816   4.161   4.284   8.228  0.4297  0.0268 -0.4990
   46SM24    O2 6817   4.254   4.053   8.318 -0.2522  0.2554 -0.1695
   46SM24    O3 6818   4.396   4.213   8.203  0.0675  0.5835  0.1738
   46SM24    O4 6819   4.228   4.090   8.076  0.1104  0.1058  0.1447
   46SM24    C6 6820   4.226   4.163   7.960 -0.1251 -0.6310 -0.2407
   46SM24   H14 6821   4.262   4.265   7.974 -1.8001 -0.3976  2.8288
   46SM24   H15 6822   4.304   4.108   7.907 -1.0082 -0.5690 -1.6205
   46SM24    C7 6823   4.087   4.162   7.898 -0.2461  0.3808 -0.0619
   46SM24   H16 6824   4.042   4.063   7.910  1.6356 -0.7586 -1.9340
   46SM24    N2 6825   4.103   4.148   7.752  0.0439  0.3043 -0.8560
   46SM24    HN 6826   4.068   4.060   7.717  1.6474 -0.7180  0.0508
   46SM24    C8 6827   3.978   4.273   7.926 -0.6265  0.3452 -0.1682
   46SM24   OSM 6828   3.937   4.260   8.055  0.4227  0.0210  0.2788
   46SM24   HSM 6829   4.017   4.271   8.103  1.8491 -0.3924 -1.9463
   46SM24   H17 6830   4.023   4.372   7.917 -0.5984  0.2414 -1.2770
   46SM24    C9 6831   3.864   4.254   7.824 -0.5365  0.1016  0.1402
   46SM24   H18 6832   3.814   4.159   7.817 -1.6836  0.5344  2.2719
   46SM24   C10 6833   3.827   4.344   7.727 -0.0105 -0.1699  0.0706
   46SM24   H19 6834   3.878   4.436   7.707 -2.1123  0.8840 -0.6427
   46SM24   C11 6835   3.725   4.308   7.626  1.0282 -0.7976 -0.0737
   46SM24   H20 6836   3.664   4.391   7.592  0.1511 -2.2259 -2.0990
   46SM24   H21 6837   3.658   4.238   7.676 -0.7316  0.4004 -0.7212
   46SM24   C12 6838   3.783   4.237   7.503 -0.9245 -0.3746 -0.7531
   46SM24   H22 6839   3.838   4.146   7.529 -2.6062 -1.0508  0.4760
   46SM24   H23 6840   3.849   4.304   7.447 -1.4717 -0.4570 -1.5050
   46SM24   C13 6841   3.677   4.193   7.402 -0.2467 -0.4030 -0.3659
   46SM24   H24 6842   3.626   4.278   7.357  0.3435 -0.7241 -1.6699
   46SM24   H25 6843   3.594   4.135   7.443 -1.5000  2.3788  1.1398
   46SM24   C14 6844   3.745   4.096   7.301  0.0175  0.3878  0.3209
   46SM24   H26 6845   3.664   4.060   7.238 -0.9039 -1.2164  2.3804
   46SM24   H27 6846   3.800   4.008   7.335  0.9940 -0.0038 -2.1747
   46SM24   C15 6847   3.847   4.160   7.204  0.6308 -0.1783  0.2018
   46SM24   H28 6848   3.939   4.183   7.257 -0.7735  1.3489  2.0285
   46SM24   H29 6849   3.806   4.252   7.161  1.1774  0.7667  1.6839
   46SM24   C16 6850   3.882   4.063   7.089 -0.1496 -0.3959  0.4900
   46SM24   H30 6851   3.810   4.085   7.011  1.7963  2.2818 -0.6530
   46SM24   H31 6852   3.884   3.962   7.129  1.8132 -0.9546 -0.9478
   46SM24   C17 6853   4.028   4.093   7.032 -0.3617 -0.3912 -0.3018
   46SM24   H32 6854   4.096   4.057   7.110  1.5785 -1.3513 -2.3518
   46SM24   H33 6855   4.037   4.201   7.039  0.0682 -0.4462  0.0317
   46SM24   C18 6856   4.066   4.015   6.903  0.5830  0.9593 -0.1324
   46SM24   H34 6857   3.980   4.010   6.836  1.0837  2.2059 -0.8981
   46SM24   H34 6858   4.081   3.911   6.933  0.0649  1.2671  1.2313
   46SM24   C19 6859   4.195   4.071   6.830 -0.4661  0.7131  0.2385
   46SM24   H35 6860   4.239   3.981   6.787  2.2254  1.7453  0.7155
   46SM24   H36 6861   4.273   4.116   6.892  0.0212  0.8694 -0.4762
   46SM24   C20 6862   4.159   4.164   6.715 -0.0811  0.3253  0.2730
   46SM24   H37 6863   4.110   4.108   6.635  1.8688 -1.8080  0.4972
   46SM24   H38 6864   4.248   4.207   6.669 -0.5463  2.1161  1.0097
   46SM24   C21 6865   4.066   4.281   6.760  0.8361  0.3603 -0.7055
   46SM24   H39 6866   4.111   4.318   6.852 -1.5667  3.4856 -0.7026
   46SM24   H40 6867   3.962   4.248   6.764  0.6378  0.8558 -1.4815
   46SM24   C22 6868   4.070   4.397   6.655 -0.0582  0.2805  0.5225
   46SM24   H41 6869   4.166   4.405   6.603  0.6508 -1.1827  1.5454
   46SM24   H42 6870   4.041   4.490   6.704 -1.9520 -0.2638  0.4815
   46SM24   C23 6871   3.965   4.376   6.544 -0.1214  0.0215 -0.1036
   46SM24   H43 6872   3.865   4.350   6.580 -0.1098 -0.6473 -0.5220
   46SM24   H44 6873   3.977   4.465   6.483  0.8941 -0.4546 -0.6189
   46SM24   H45 6874   3.986   4.294   6.474 -2.9519 -1.9900  1.2652
   46SM24   C24 6875   4.156   4.233   7.664 -0.7960 -0.4512 -0.1954
   46SM24   O33 6876   4.215   4.335   7.712  1.1944  0.2606 -0.5865
   46SM24   C25 6877   4.204   4.179   7.536  0.6246  0.0189 -0.0359
   46SM24   H50 6878   4.110   4.146   7.490  0.6118 -0.1050  0.0777
   46SM24   H51 6879   4.272   4.097   7.559 -0.6031 -0.8396  0.5826
   46SM24   C26 6880   4.257   4.277   7.431  0.0211  0.0109 -0.5190
   46SM24   H52 6881   4.322   4.351   7.479 -0.6866 -0.3030  0.9554
   46SM24   H53 6882   4.167   4.328   7.398 -0.8651  0.9273  3.0299
   46SM24   C27 6883   4.312   4.206   7.300  0.5321 -0.0182  0.3654
   46SM24   H54 6884   4.263   4.109   7.293 -1.8353  1.1703  0.1009
   46SM24   H55 6885   4.421   4.195   7.304  0.3860 -1.1597  1.5081
   46SM24   C28 6886   4.263   4.280   7.169 -0.4192 -0.0897  0.0035
   46SM24   H56 6887   4.158   4.299   7.191 -0.6143 -0.6750 -0.3947
   46SM24   H57 6888   4.269   4.210   7.086 -1.0812  0.7380 -0.7451
   46SM24   C29 6889   4.346   4.407   7.132  0.3462 -0.2613 -0.1343
   46SM24   H58 6890   4.453   4.388   7.139  0.7465  0.8075 -2.9958
   46SM24   H59 6891   4.319   4.484   7.204  0.9225  0.1459 -0.3524
   46SM24   C30 6892   4.298   4.461   6.998  0.4564 -0.2953  0.5434
   46SM24   H60 6893   4.192   4.487   6.999  0.6868  1.0241 -3.3161
   46SM24   H61 6894   4.290   4.371   6.937 -2.0397 -1.4145  2.3838
   46SM24   C31 6895   4.390   4.567   6.947 -0.2704 -0.2957  0.1448
   46SM24   H62 6896   4.487   4.523   6.927  0.2777  0.9766 -0.0902
   46SM24   H63 6897   4.411   4.643   7.022  2.2353 -0.8411  0.0368
   46SM24   C32 6898   4.348   4.628   6.809 -0.2283  0.5262  0.2343
   46SM24   H64 6899   4.265   4.574   6.762 -1.4672 -0.4594  3.4391
   46SM24   H65 6900   4.435   4.637   6.744  0.6548  2.1717  1.6108
   46SM24   C33 6901   4.300   4.773   6.838 -0.3087 -0.1333  0.4876
   46SM24   H66 6902   4.383   4.809   6.898  1.6264 -3.0486 -0.3421
   46SM24   H67 6903   4.207   4.779   6.893 -0.3319 -0.5730  0.4936
   46SM24   C34 6904   4.290   4.872   6.715  0.1534  0.1119 -0.2364
   46SM24   H68 6905   4.244   4.964   6.751  0.5176 -0.9639  3.1706
   46SM24   H69 6906   4.216   4.810   6.663  0.0981 -0.6616  0.7432
   46SM24   C35 6907   4.413   4.888   6.620  0.3779 -0.3472  0.0862
   46SM24   H70 6908   4.435   4.792   6.573 -1.5587  0.5043 -2.6822
   46SM24   H71 6909   4.498   4.926   6.676  0.9222 -1.3695 -0.0345
   46SM24   C36 6910   4.372   4.992   6.511  0.2861  0.1908  0.3573
   46SM24   H72 6911   4.343   5.087   6.557 -2.1072 -0.9233  1.2647
   46SM24   H73 6912   4.286   4.965   6.451  0.3284 -1.5786  1.0693
   46SM24   C37 6913   4.487   5.012   6.409  0.6420  0.4761 -0.1695
   46SM24   H74 6914   4.482   4.929   6.338 -0.1798  0.9200 -0.6282
   46SM24   H75 6915   4.587   5.016   6.452 -0.4507 -0.2128  2.5090
   46SM24   C38 6916   4.466   5.136   6.315  0.6268  0.0173  0.3000
   46SM24   H76 6917   4.483   5.234   6.361 -1.2410 -0.1639  1.4417
   46SM24   H77 6918   4.364   5.143   6.277  0.3851  0.6030  1.0247
   46SM24   C39 6919   4.567   5.133   6.193  0.5661 -0.1943 -0.2860
   46SM24   H78 6920   4.569   5.222   6.129  1.0095  0.9073  1.2336
   46SM24   H79 6921   4.545   5.042   6.138  2.2346 -0.9294  0.2311
   46SM24   C40 6922   4.709   5.118   6.237  0.1299 -0.2909 -0.2281
   46SM24   H80 6923   4.745   5.169   6.326 -0.8701 -1.1145  0.6657
   46SM24   H81 6924   4.717   5.011   6.257  0.3030 -0.1850  0.2663
   46SM24   C41 6925   4.796   5.164   6.114 -0.4864  0.3968  0.2006
   46SM24   H82 6926   4.786   5.098   6.028  1.4119  0.1487  0.1658
   46SM24   H83 6927   4.765   5.264   6.084 -1.5306  0.2496  0.7333
   46SM24   C42 6928   4.949   5.157   6.132  0.5293 -0.0505  0.3217
   46SM24   H84 6929   4.972   5.054   6.157  0.8298 -0.0149  0.1986
   46SM24   H85 6930   4.965   5.210   6.226  0.6450 -0.8985  0.7804
   46SM24   C43 6931   5.030   5.216   6.021  0.8979  0.1316 -0.2080
   46SM24   H86 6932   5.132   5.183   6.045  0.6817 -0.1572  0.3300
   46SM24   H87 6933   5.043   5.324   6.028  0.9165  0.2233 -1.5499
   46SM24   C44 6934   5.002   5.184   5.872  0.5833  0.2800  0.1683
   46SM24   H88 6935   4.902   5.216   5.842 -0.5104 -2.3080  0.8623
   46SM24   H89 6936   5.074   5.231   5.806 -0.4002  0.6146 -0.6836
   46SM24   C45 6937   4.999   5.033   5.836  0.2086 -0.0923  0.0116
   46SM24   H90 6938   4.955   5.025   5.736  2.7969 -1.5824 -1.0532
   46SM24   H91 6939   4.932   4.982   5.905  0.0431 -0.5639 -0.4903
   46SM24   C46 6940   5.137   4.963   5.831 -0.3079 -0.3423  0.8648
   46SM24   H92 6941   5.186   5.001   5.921  0.5744  1.3781 -0.2980
   46SM24   H93 6942   5.139   4.855   5.838 -1.5596 -0.3323  1.4113
   46SM24   C47 6943   5.218   5.007   5.703  0.5781 -0.2633 -0.4567
   46SM24   H94 6944   5.312   4.952   5.701  0.0837 -1.2872  2.0750
   46SM24   H95 6945   5.180   4.978   5.605 -0.6822 -3.3914  0.8958
   46SM24   H96 6946   5.252   5.111   5.711 -0.4834  0.1043 -0.6143
   47SM24    N1 6947   1.909   5.233   8.162 -0.5754 -0.6365 -0.1912
   47SM24    C1 6948   1.958   5.340   8.066 -0.0860  0.3066  0.0689
   47SM24    H1 6949   1.971   5.427   8.131 -0.4949  0.0255  0.5217
   47SM24    H2 6950   2.058   5.314   8.031  1.0885  3.5409  0.8316
   47SM24    C2 6951   1.881   5.102   8.091  0.0322 -0.1262 -0.3893
   47SM24    H3 6952   1.838   5.026   8.156  0.4467  1.3323  1.6546
   47SM24    H4 6953   1.805   5.121   8.015 -1.5200  0.0378  1.1693
   47SM24    H5 6954   1.968   5.061   8.041 -2.0038 -1.7706 -2.7422
   47SM24    C3 6955   2.018   5.196   8.251  0.0871  0.6436 -0.2079
   47SM24    H6 6956   2.049   5.285   8.305  0.0925  0.0827  0.7207
   47SM24    H7 6957   1.991   5.117   8.321 -0.6954 -0.2269 -1.4647
   47SM24    H8 6958   2.112   5.175   8.199 -0.6755 -0.1708 -1.3014
   47SM24    C4 6959   1.790   5.290   8.237  0.3196  0.1939 -0.1841
   47SM24    H9 6960   1.813   5.388   8.279 -0.1289  0.3092 -0.2121
   47SM24   H10 6961   1.714   5.309   8.161  2.3071  0.0156 -2.2852
   47SM24   H11 6962   1.745   5.222   8.308 -0.1797 -0.7333 -1.3703
   47SM24    C5 6963   1.864   5.394   7.948 -0.3410  0.5657  0.2943
   47SM24   H12 6964   1.769   5.429   7.988 -0.9160 -0.1293 -0.4511
   47SM24   H13 6965   1.859   5.308   7.881  2.6245  0.8365 -0.3612
   47SM24    P1 6966   1.871   5.571   7.749 -0.2030  0.3382 -0.0617
   47SM24    O1 6967   1.925   5.709   7.742  0.6464 -0.2875 -0.4974
   47SM24    O2 6968   1.727   5.555   7.758  0.0527  0.4414 -0.3261
   47SM24    O3 6969   1.933   5.503   7.880  0.0449 -0.0159  0.1193
   47SM24    O4 6970   1.927   5.484   7.635  0.4878 -0.0504  0.1685
   47SM24    C6 6971   2.065   5.490   7.606 -0.3891 -0.6980 -0.2881
   47SM24   H14 6972   2.130   5.540   7.678 -1.3385 -0.2278  0.2538
   47SM24   H15 6973   2.086   5.387   7.636 -1.2767 -0.4055  1.3851
   47SM24    C7 6974   2.090   5.523   7.454 -0.4467  0.1655  0.6233
   47SM24   H16 6975   2.038   5.448   7.395  0.4268 -0.1634  0.2685
   47SM24    N2 6976   2.240   5.528   7.428  0.1423  0.2907  0.2164
   47SM24    HN 6977   2.299   5.610   7.422  1.3808 -0.6838 -1.7249
   47SM24    C8 6978   2.036   5.663   7.428  0.1870  0.1032  0.2970
   47SM24   OSM 6979   2.075   5.754   7.528  0.4624 -0.6714 -0.3326
   47SM24   HSM 6980   2.022   5.744   7.606 -0.6859  1.2198 -0.8390
   47SM24   H17 6981   2.086   5.686   7.334  1.6721  0.1719  1.0980
   47SM24    C9 6982   1.891   5.680   7.408 -0.3438  0.2765  0.0333
   47SM24   H18 6983   1.821   5.641   7.481 -0.1643 -0.4473 -0.1803
   47SM24   C10 6984   1.843   5.739   7.302  0.2359 -0.5513 -0.3554
   47SM24   H19 6985   1.901   5.779   7.220 -0.4554  0.3866 -0.3988
   47SM24   C11 6986   1.695   5.745   7.280  0.6523 -0.2065  0.0819
   47SM24   H20 6987   1.647   5.811   7.353  0.7540  1.2141 -1.1138
   47SM24   H21 6988   1.648   5.648   7.295  1.1895 -0.2211  1.7758
   47SM24   C12 6989   1.657   5.792   7.140  0.0148 -0.6887  0.0543
   47SM24   H22 6990   1.703   5.717   7.076  0.8576 -0.3447  0.2500
   47SM24   H23 6991   1.706   5.889   7.125 -0.4356 -0.4253  0.2505
   47SM24   C13 6992   1.506   5.826   7.128  0.4430 -0.4504 -0.2719
   47SM24   H24 6993   1.481   5.885   7.215  1.4209 -0.8146  0.2638
   47SM24   H25 6994   1.457   5.729   7.137 -0.4482 -0.1613 -1.6999
   47SM24   C14 6995   1.470   5.898   6.999  0.2911 -0.3511  0.5331
   47SM24   H26 6996   1.509   5.841   6.915  1.3041 -1.3359  1.6567
   47SM24   H27 6997   1.509   0.051   6.997 -0.0472 -0.1867  1.7159
   47SM24   C15 6998   1.322   5.898   6.964 -0.4876  0.4623 -0.0898
   47SM24   H28 6999   1.265   0.004   7.039  0.2882  1.3991 -0.1627
   47SM24   H29 7000   1.284   5.796   6.957 -2.3250  1.1809 -0.8746
   47SM24   C16 7001   1.294   0.011   6.833  0.3953  0.9757  0.4573
   47SM24   H30 7002   1.339   0.110   6.820 -0.5809  1.4209  0.3658
   47SM24   H31 7003   1.189   0.040   6.823  0.6899  1.8611 -0.2064
   47SM24   C17 7004   1.333   5.859   6.717 -0.3930 -0.3039  0.6274
   47SM24   H32 7005   1.295   5.757   6.722  1.1499 -0.8526  1.7277
   47SM24   H33 7006   1.440   5.837   6.723 -0.4329 -1.2664 -1.8848
   47SM24   C18 7007   1.313   5.904   6.583  0.5351 -0.0888  0.4640
   47SM24   H34 7008   1.371   5.846   6.511 -2.5342 -0.5864 -1.6876
   47SM24   H34 7009   1.346   0.058   6.568 -2.0945  0.5952 -0.8606
   47SM24   C19 7010   1.170   5.888   6.523 -0.4175 -0.4003 -0.2875
   47SM24   H35 7011   1.091   5.946   6.570 -0.0101 -0.8616  0.9905
   47SM24   H36 7012   1.131   5.786   6.529  0.9042 -0.9645 -0.9544
   47SM24   C20 7013   1.166   5.917   6.372  0.4710  0.3503 -0.3596
   47SM24   H37 7014   1.230   5.848   6.316  0.1287 -0.3595  0.1307
   47SM24   H38 7015   1.200   0.067   6.341 -1.6069  0.7781 -1.3520
   47SM24   C21 7016   1.030   5.904   6.303 -0.4277 -0.6248 -0.2370
   47SM24   H39 7017   0.969   0.030   6.353 -2.6416 -1.4718 -1.6114
   47SM24   H40 7018   0.988   5.810   6.339  0.6000 -0.5214  1.2835
   47SM24   C22 7019   1.046   5.916   6.151 -0.1875  0.9487 -0.6304
   47SM24   H41 7020   1.133   5.861   6.114 -1.4010 -0.4791 -1.4236
   47SM24   H42 7021   1.064   0.073   6.133  0.6537  0.4825 -2.6089
   47SM24   C23 7022   0.917   5.868   6.086 -0.0825  0.5829  0.5057
   47SM24   H43 7023   0.825   5.915   6.121  0.3985  1.7723  0.2058
   47SM24   H44 7024   0.910   5.895   5.980  0.5929 -0.2494  0.2369
   47SM24   H45 7025   0.917   5.759   6.096  1.0920  0.5795  0.6010
   47SM24   C24 7026   2.305   5.409   7.440  0.3004 -0.2149  0.5086
   47SM24   O33 7027   2.263   5.299   7.465 -0.5427  0.4219 -0.3843
   47SM24   C25 7028   2.453   5.409   7.406 -0.1418  0.3188 -0.0186
   47SM24   H50 7029   2.502   5.369   7.495  0.0734  0.7796  0.0750
   47SM24   H51 7030   2.489   5.511   7.392 -0.6881  0.4989 -0.1005
   47SM24   C26 7031   2.487   5.322   7.281 -0.0539  0.3198  0.1218
   47SM24   H52 7032   2.453   5.222   7.306  1.4244 -0.5670 -1.3284
   47SM24   H53 7033   2.596   5.318   7.274 -0.1723 -0.8412 -1.2997
   47SM24   C27 7034   2.446   5.370   7.137 -0.2691  0.4003 -0.4436
   47SM24   H54 7035   2.343   5.405   7.129 -0.8088 -0.0607  3.2864
   47SM24   H55 7036   2.441   5.285   7.069 -2.5268 -0.2069  0.4187
   47SM24   C28 7037   2.533   5.478   7.073 -0.0537 -0.0839  0.2681
   47SM24   H56 7038   2.635   5.439   7.067  0.2362  0.7606 -0.3210
   47SM24   H57 7039   2.537   5.570   7.131 -0.0043 -1.7381  2.9547
   47SM24   C29 7040   2.481   5.510   6.936 -0.1270  0.0283  0.0333
   47SM24   H58 7041   2.380   5.550   6.942 -0.9317 -2.0760  1.1569
   47SM24   H59 7042   2.469   5.419   6.877  2.7955 -1.1174  1.1630
   47SM24   C30 7043   2.577   5.609   6.854  0.6266  0.0764  0.2847
   47SM24   H60 7044   2.664   5.547   6.829  0.3141 -0.7010  1.0925
   47SM24   H61 7045   2.597   5.693   6.920 -0.1239  0.3244  0.1908
   47SM24   C31 7046   2.527   5.664   6.720  0.6039 -0.0299 -0.0045
   47SM24   H62 7047   2.598   5.741   6.690  1.2472 -0.6576 -0.0837
   47SM24   H63 7048   2.439   5.721   6.751  0.4372  0.3752 -1.1991
   47SM24   C32 7049   2.514   5.552   6.614  0.3529  0.2581  0.2185
   47SM24   H64 7050   2.438   5.480   6.645  2.2145 -1.2704  1.4144
   47SM24   H65 7051   2.611   5.502   6.616  1.2702  1.8368 -2.6542
   47SM24   C33 7052   2.494   5.612   6.469  0.6976 -0.5077  0.0484
   47SM24   H66 7053   2.578   5.681   6.471  0.8035 -0.6249 -0.2689
   47SM24   H67 7054   2.398   5.663   6.456  0.1052 -1.1944  1.5770
   47SM24   C34 7055   2.520   5.515   6.357  0.4075 -0.0856 -0.3723
   47SM24   H68 7056   2.614   5.466   6.381  0.0955  0.8759  3.1017
   47SM24   H69 7057   2.536   5.564   6.261  1.2340 -2.2353 -1.3633
   47SM24   C35 7058   2.393   5.417   6.336  0.0245  1.2276 -0.2417
   47SM24   H70 7059   2.304   5.475   6.313 -1.5977 -0.7928  0.7639
   47SM24   H71 7060   2.386   5.361   6.429  1.6476 -0.7202 -1.2417
   47SM24   C36 7061   2.412   5.322   6.226 -0.3152  0.5396  0.4841
   47SM24   H72 7062   2.333   5.248   6.236  2.5024 -2.2993  3.0292
   47SM24   H73 7063   2.506   5.267   6.240 -0.5341  0.2098  0.6717
   47SM24   C37 7064   2.409   5.388   6.085  0.0320  0.1901 -0.7034
   47SM24   H74 7065   2.507   5.431   6.070  0.2448  0.6589  1.7381
   47SM24   H75 7066   2.348   5.478   6.093 -1.1979 -0.5995 -0.9421
   47SM24   C38 7067   2.356   5.304   5.969  0.2176  0.3742  0.0812
   47SM24   H76 7068   2.421   5.219   5.945 -0.7590 -0.8495  1.6800
   47SM24   H77 7069   2.353   5.367   5.880 -2.1617  0.6333  0.3225
   47SM24   C39 7070   2.214   5.237   5.986 -0.0304  0.2253 -0.8970
   47SM24   H78 7071   2.149   5.311   6.032 -0.3655  0.8011 -2.2848
   47SM24   H79 7072   2.212   5.144   6.043 -3.1444  0.5253 -0.4252
   47SM24   C40 7073   2.138   5.216   5.849  0.1861  0.3507 -0.4900
   47SM24   H80 7074   2.117   5.312   5.801 -1.4627  0.1422 -0.2062
   47SM24   H81 7075   2.196   5.148   5.787 -0.0534  0.3257 -0.6866
   47SM24   C41 7076   2.011   5.133   5.874  0.3346  0.2369 -0.1622
   47SM24   H82 7077   2.051   5.039   5.910 -0.6614  0.5404  1.8025
   47SM24   H83 7078   1.956   5.179   5.956  0.6207  0.9024 -0.3378
   47SM24   C42 7079   1.926   5.126   5.748  0.5083 -0.2146  0.5704
   47SM24   H84 7080   1.991   5.092   5.667 -0.1811 -1.2911  0.4481
   47SM24   H85 7081   1.878   5.221   5.727 -0.3266 -1.0091 -1.1653
   47SM24   C43 7082   1.823   5.015   5.772  0.9825  0.3002  0.3127
   47SM24   H86 7083   1.761   5.040   5.857  1.4893  4.0830 -0.3414
   47SM24   H87 7084   1.872   4.922   5.799 -3.4045 -1.4338  2.6534
   47SM24   C44 7085   1.730   4.991   5.651  0.7123  0.7717 -0.7046
   47SM24   H88 7086   1.685   5.087   5.624  1.1133  0.5657 -2.1524
   47SM24   H89 7087   1.784   4.961   5.561 -3.6681 -1.2699 -2.8258
   47SM24   C45 7088   1.630   4.888   5.685 -0.2263  0.0541  0.1385
   47SM24   H90 7089   1.574   4.904   5.777 -0.1764 -0.1599  0.2077
   47SM24   H91 7090   1.692   4.799   5.699 -0.9705 -0.3475  0.9177
   47SM24   C46 7091   1.531   4.868   5.571  0.1029 -0.6397 -0.3406
   47SM24   H92 7092   1.480   4.962   5.550 -2.2730 -1.6267  0.8572
   47SM24   H93 7093   1.574   4.832   5.478  1.5392 -0.7938  0.3761
   47SM24   C47 7094   1.423   4.773   5.618  0.1803 -0.0584 -0.2858
   47SM24   H94 7095   1.375   4.795   5.713  2.0166 -1.3870  0.9708
   47SM24   H95 7096   1.335   4.789   5.555 -0.6147  1.4131  1.1496
   47SM24   H96 7097   1.463   4.672   5.613  1.5746  0.4107  0.9731
   48SM24    N1 7098   1.924   0.081   8.360  0.1461 -0.2913 -0.2998
   48SM24    C1 7099   1.957   0.217   8.305 -0.5550  0.6425 -0.0613
   48SM24    H1 7100   1.857   0.257   8.288 -0.3363  0.8743 -0.8346
   48SM24    H2 7101   2.008   0.283   8.375 -0.7775  4.0207 -2.9816
   48SM24    C2 7102   1.861   0.107   8.490  0.0896 -0.0039 -0.7625
   48SM24    H3 7103   1.803   0.018   8.513  1.5644 -0.5122  1.1754
   48SM24    H4 7104   1.923   0.135   8.575 -0.1941  2.1589 -1.2418
   48SM24    H5 7105   1.794   0.192   8.480 -0.7717 -0.4389  1.0976
   48SM24    C3 7106   1.823   0.006   8.274 -0.2017  0.1242  0.1792
   48SM24    H6 7107   1.767   5.875   8.322 -0.3846  0.0099 -0.2237
   48SM24    H7 7108   1.750   0.065   8.218  0.9930  0.6185 -0.8732
   48SM24    H8 7109   1.879   5.913   8.191 -0.1335 -1.3041  0.9244
   48SM24    C4 7110   2.038   5.939   8.380 -0.3871  0.4422  0.4908
   48SM24    H9 7111   2.115   0.036   8.442 -0.1903 -0.2090  0.7270
   48SM24   H10 7112   2.003   5.850   8.432  1.3467  0.1043  1.1383
   48SM24   H11 7113   2.083   5.904   8.287 -1.7295 -2.4841  0.8908
   48SM24    C5 7114   2.037   0.204   8.180  0.0375 -0.0056  0.0605
   48SM24   H12 7115   1.983   0.143   8.107 -1.1160  0.9142  0.1367
   48SM24   H13 7116   2.133   0.154   8.191 -0.1800 -0.8920 -1.8308
   48SM24    P1 7117   2.178   0.399   8.075 -0.1842  0.1842 -0.0985
   48SM24    O1 7118   2.265   0.404   8.191  0.1138 -0.5505  0.6441
   48SM24    O2 7119   2.154   0.522   8.000  0.1395 -0.7664 -0.1577
   48SM24    O3 7120   2.037   0.331   8.118  0.1853  0.6475  0.0916
   48SM24    O4 7121   2.243   0.291   7.983 -0.8105 -0.2510 -0.1976
   48SM24    C6 7122   2.178   0.244   7.865 -0.4355  0.4469  0.1613
   48SM24   H14 7123   2.251   0.171   7.831  1.1317  2.6696 -1.4419
   48SM24   H15 7124   2.080   0.205   7.891  0.1932 -1.0570  0.2993
   48SM24    C7 7125   2.167   0.349   7.746  0.2209 -0.4204  0.5370
   48SM24   H16 7126   2.089   0.421   7.770  2.0922  1.0614  2.3539
   48SM24    N2 7127   2.124   0.275   7.623 -0.1031  0.5662 -0.0999
   48SM24    HN 7128   2.189   0.278   7.546  0.1135 -1.3946 -0.0129
   48SM24    C8 7129   2.309   0.415   7.708 -0.2591  0.6846  0.6583
   48SM24   OSM 7130   2.366   0.505   7.800 -0.4659  0.2205 -0.3963
   48SM24   HSM 7131   2.323   0.482   7.881 -1.5885  0.7960 -0.8243
   48SM24   H17 7132   2.386   0.338   7.710  0.5990  1.5191  0.2652
   48SM24    C9 7133   2.310   0.493   7.578 -0.6746  0.6714  0.4276
   48SM24   H18 7134   2.244   0.578   7.568  0.8307  1.9353  0.9263
   48SM24   C10 7135   2.390   0.464   7.469  0.4497  0.0389 -0.2487
   48SM24   H19 7136   2.449   0.373   7.470  0.9005  0.3260 -0.3980
   48SM24   C11 7137   2.371   0.544   7.342  0.6192  0.6001  0.3257
   48SM24   H20 7138   2.473   0.569   7.313 -0.0503  2.8654 -0.2473
   48SM24   H21 7139   2.324   0.639   7.367 -1.9965 -0.7967  0.9177
   48SM24   C12 7140   2.295   0.469   7.226  0.6544  0.9562  0.2553
   48SM24   H22 7141   2.191   0.451   7.255  1.1336  0.1877  1.5242
   48SM24   H23 7142   2.350   0.375   7.218 -1.7708 -0.3005 -2.3460
   48SM24   C13 7143   2.300   0.538   7.092 -0.5621  0.3182 -0.5876
   48SM24   H24 7144   2.403   0.553   7.062  0.9003 -1.0543  3.3687
   48SM24   H25 7145   2.271   0.640   7.119  1.8117  0.8569  0.0573
   48SM24   C14 7146   2.217   0.468   6.982  0.0677 -0.4836  1.2281
   48SM24   H26 7147   2.112   0.481   7.007 -0.2842  0.2014 -0.5773
   48SM24   H27 7148   2.242   0.362   6.982  0.2374 -0.4571 -0.2562
   48SM24   C15 7149   2.251   0.521   6.846  0.2785  0.2471  0.2537
   48SM24   H28 7150   2.358   0.513   6.826  0.3936  0.1050  0.9283
   48SM24   H29 7151   2.233   0.628   6.835  3.0922  0.7261 -0.1771
   48SM24   C16 7152   2.181   0.441   6.737  0.6384  0.7401  0.1710
   48SM24   H30 7153   2.135   0.353   6.780 -1.4298  0.9187 -1.5989
   48SM24   H31 7154   2.263   0.406   6.673  2.2044 -0.3567  2.6852
   48SM24   C17 7155   2.065   0.518   6.669 -0.1356 -0.8803 -0.4055
   48SM24   H32 7156   2.090   0.614   6.624  2.3455 -1.1179  0.4080
   48SM24   H33 7157   1.996   0.532   6.752  1.0155 -1.8566  0.7392
   48SM24   C18 7158   2.004   0.445   6.552 -0.0674 -0.4830  0.1967
   48SM24   H34 7159   1.902   0.477   6.531  0.8265  2.3205 -0.0336
   48SM24   H34 7160   1.991   0.342   6.585 -2.9244  0.0592  0.9202
   48SM24   C19 7161   2.084   0.467   6.430 -0.1462 -0.0496 -0.1971
   48SM24   H35 7162   2.188   0.442   6.454  0.7985  2.1760 -1.7869
   48SM24   H36 7163   2.068   0.573   6.407  0.3231 -0.0319 -0.4499
   48SM24   C20 7164   2.059   0.398   6.300 -0.3293 -0.5269  0.4319
   48SM24   H37 7165   2.049   0.290   6.311 -0.0465 -0.7593 -1.3672
   48SM24   H38 7166   2.137   0.421   6.227  0.5063 -2.2667  0.7565
   48SM24   C21 7167   1.928   0.427   6.229 -0.1065  0.5310  0.8250
   48SM24   H39 7168   1.937   0.531   6.195  3.4988  0.0786  0.2549
   48SM24   H40 7169   1.856   0.438   6.310  1.4241  1.3307  2.0836
   48SM24   C22 7170   1.886   0.337   6.109  0.5801 -0.3185  0.3274
   48SM24   H41 7171   1.974   0.291   6.063  0.9697 -0.0871  0.8318
   48SM24   H42 7172   1.847   0.403   6.033  0.0214 -2.3677 -1.2240
   48SM24   C23 7173   1.777   0.243   6.155 -0.0637 -0.1389 -0.2686
   48SM24   H43 7174   1.684   0.300   6.158  2.0794  3.4244  2.8774
   48SM24   H44 7175   1.760   0.160   6.087  0.1654  0.9027 -1.6351
   48SM24   H45 7176   1.799   0.218   6.259  1.0775  2.0220  0.0494
   48SM24   C24 7177   2.007   0.227   7.602  0.2745 -0.0236 -0.6815
   48SM24   O33 7178   1.932   0.210   7.697  0.0851  0.1308 -0.1870
   48SM24   C25 7179   1.977   0.153   7.471  0.5510  0.2961  0.2276
   48SM24   H50 7180   1.913   0.065   7.485 -0.9639  1.3448  0.0922
   48SM24   H51 7181   2.064   0.113   7.420 -0.2798 -1.7044  0.2972
   48SM24   C26 7182   1.901   0.244   7.372 -0.3303  1.1455 -0.3275
   48SM24   H52 7183   1.974   0.275   7.297 -0.4620 -2.6774 -2.1341
   48SM24   H53 7184   1.859   0.332   7.421  1.3530  2.7185 -1.6317
   48SM24   C27 7185   1.783   0.176   7.290  0.8335 -0.8424 -0.6813
   48SM24   H54 7186   1.709   0.141   7.363  0.8310 -0.6510 -0.5913
   48SM24   H55 7187   1.804   0.084   7.234  1.7106 -1.4124  0.5500
   48SM24   C28 7188   1.715   0.277   7.200  0.5375 -0.5169  0.2921
   48SM24   H56 7189   1.686   0.367   7.254  1.9302 -0.4386  0.9215
   48SM24   H57 7190   1.628   0.245   7.142  1.2006  0.9193 -1.5594
   48SM24   C29 7191   1.818   0.337   7.096 -0.2770 -0.5960 -0.3183
   48SM24   H58 7192   1.891   0.263   7.061 -1.4581 -0.5872 -2.9630
   48SM24   H59 7193   1.889   0.405   7.144 -0.3605 -0.9536  0.3162
   48SM24   C30 7194   1.746   0.409   6.978 -0.5805 -0.2805  0.1703
   48SM24   H60 7195   1.809   0.483   6.928  1.3190 -0.1725  2.6509
   48SM24   H61 7196   1.677   0.476   7.030 -1.7759 -1.1374 -0.2869
   48SM24   C31 7197   1.676   0.323   6.873  0.0799  0.2308 -0.1098
   48SM24   H62 7198   1.598   0.255   6.907  1.7110 -1.7147 -0.1293
   48SM24   H63 7199   1.754   0.253   6.841  1.3923  0.6901  1.9872
   48SM24   C32 7200   1.628   0.412   6.756  0.1031 -0.0399 -0.5626
   48SM24   H64 7201   1.714   0.454   6.703  1.2189 -0.4630  0.8636
   48SM24   H65 7202   1.557   0.484   6.795  1.0276 -0.3483  1.7794
   48SM24   C33 7203   1.537   0.318   6.667 -0.8045 -0.8184 -0.6874
   48SM24   H66 7204   1.470   0.261   6.732 -1.6801 -0.6779 -1.4615
   48SM24   H67 7205   1.603   0.243   6.625  1.6088  1.1323 -0.4704
   48SM24   C34 7206   1.479   0.396   6.545  0.2533 -0.1715 -0.0288
   48SM24   H68 7207   1.561   0.452   6.500 -1.6567  1.1023 -2.0460
   48SM24   H69 7208   1.396   0.458   6.580 -0.5680 -0.7397 -0.9217
   48SM24   C35 7209   1.418   0.309   6.442  0.6379  0.0979 -0.8743
   48SM24   H70 7210   1.323   0.261   6.467  2.0184 -0.9944  2.5802
   48SM24   H71 7211   1.488   0.227   6.432  1.6616  0.6980  1.0806
   48SM24   C36 7212   1.415   0.379   6.319  0.2002  0.2488 -0.0200
   48SM24   H72 7213   1.410   0.309   6.236 -0.7250  0.1076  0.1465
   48SM24   H73 7214   1.508   0.432   6.298 -0.6448  2.0201  0.6202
   48SM24   C37 7215   1.311   0.491   6.302 -0.2208 -0.1402  0.2987
   48SM24   H74 7216   1.342   0.554   6.218 -0.1986 -0.8932 -0.2567
   48SM24   H75 7217   1.301   0.551   6.393 -0.3144 -0.3622  0.4346
   48SM24   C38 7218   1.179   0.428   6.258 -0.2506  0.5802  0.1782
   48SM24   H76 7219   1.181   0.322   6.280 -0.4229  0.9425  1.9972
   48SM24   H77 7220   1.183   0.412   6.150  2.1407 -2.2213  0.6257
   48SM24   C39 7221   1.050   0.458   6.334 -1.2844 -0.5317 -0.7313
   48SM24   H78 7222   1.030   0.564   6.322 -1.1091 -0.2660  1.1077
   48SM24   H79 7223   1.070   0.447   6.441 -1.1461 -3.0852 -0.9885
   48SM24   C40 7224   0.930   0.376   6.285 -0.3370  0.2671 -0.3900
   48SM24   H80 7225   0.942   0.276   6.327 -0.6175  0.1891 -0.4977
   48SM24   H81 7226   0.834   0.413   6.321  0.0629  0.2617  0.7177
   48SM24   C41 7227   0.912   0.349   6.138 -0.3557  0.1980 -0.6261
   48SM24   H82 7228   0.989   0.280   6.103 -0.0147  0.1159  0.2562
   48SM24   H83 7229   0.828   0.281   6.121 -1.2169  1.2234 -0.5421
   48SM24   C42 7230   0.911   0.481   6.061  0.2105 -0.7003 -0.0020
   48SM24   H84 7231   1.005   0.536   6.061 -0.9337  1.2895 -0.9383
   48SM24   H85 7232   0.838   0.546   6.108 -0.0931 -0.4575 -0.7951
   48SM24   C43 7233   0.880   0.464   5.909  0.3353  0.0709 -0.3367
   48SM24   H86 7234   0.808   0.383   5.901 -1.1507  0.8242  4.1293
   48SM24   H87 7235   0.966   0.422   5.855  3.5838  1.1710  3.7271
   48SM24   C44 7236   0.839   0.588   5.828  0.8849 -0.7495 -0.0872
   48SM24   H88 7237   0.911   0.669   5.836 -1.8077  1.7638 -0.5195
   48SM24   H89 7238   0.820   0.553   5.726 -0.0796 -0.7255  0.0841
   48SM24   C45 7239   0.708   0.652   5.888  0.1623  0.4017  0.6050
   48SM24   H90 7240   0.704   0.738   5.822  1.8113 -0.2612 -0.4109
   48SM24   H91 7241   0.711   0.683   5.992 -1.4684  0.1579  0.7375
   48SM24   C46 7242   0.584   0.569   5.871 -0.5084  0.6318 -0.9974
   48SM24   H92 7243   0.552   0.550   5.769  0.1593 -0.0482 -1.0904
   48SM24   H93 7244   0.616   0.469   5.900 -0.3286  0.6348 -1.1839
   48SM24   C47 7245   0.471   0.596   5.974 -0.5148  1.0840  0.2646
   48SM24   H94 7246   0.511   0.647   6.062  0.8949  0.1949  0.1694
   48SM24   H95 7247   0.399   0.667   5.934 -1.6593 -0.8100 -1.1445
   48SM24   H96 7248   0.426   0.500   6.002  0.4668  1.0855  1.9256
   49CHOL    C1 7249   3.994   1.519   6.840 -0.0343  0.3798 -0.2178
   49CHOL   H11 7250   4.094   1.563   6.844 -0.7939  2.1146  0.1355
   49CHOL   H12 7251   3.982   1.453   6.753 -0.2552  0.8209 -0.5282
   49CHOL    C2 7252   3.990   1.440   6.972 -0.3270 -0.0463 -0.3234
   49CHOL   H21 7253   4.060   1.356   6.967  0.1327  0.2613  0.7916
   49CHOL   H22 7254   3.892   1.395   6.988 -0.9171  1.3219 -0.0361
   49CHOL    C3 7255   3.992   1.530   7.098 -0.6268 -0.1095  0.2240
   49CHOL   H31 7256   4.088   1.577   7.117  1.2489 -2.8476 -2.0691
   49CHOL    O3 7257   3.983   1.453   7.212  0.7392  0.1611 -0.8023
   49CHOL    H3 7258   4.033   1.483   7.286 -2.8019  1.0728  1.2937
   49CHOL    C4 7259   3.883   1.640   7.099 -0.2775 -0.0234  0.4186
   49CHOL   H41 7260   3.899   1.702   7.187  1.1315 -0.1199  0.2387
   49CHOL   H42 7261   3.788   1.587   7.100 -0.4076  0.2191  1.1907
   49CHOL    C5 7262   3.897   1.717   6.966  0.5519 -0.4628 -0.3821
   49CHOL    C6 7263   3.915   1.849   6.963 -0.2460 -0.3344  0.6837
   49CHOL   H61 7264   3.929   1.902   7.056 -2.3782  1.2375  0.1471
   49CHOL    C7 7265   3.920   1.939   6.840 -0.5547  0.6188 -0.0288
   49CHOL   H71 7266   4.023   1.956   6.808 -0.5884 -1.0328 -1.0674
   49CHOL   H72 7267   3.867   2.034   6.843 -1.7097 -0.0440  1.0078
   49CHOL    C8 7268   3.848   1.866   6.729 -0.0911 -0.2959 -0.0308
   49CHOL   H81 7269   3.746   1.855   6.765 -0.1377  0.3306  0.0440
   49CHOL    C9 7270   3.920   1.729   6.703  0.4146  0.6185 -0.1095
   49CHOL   H91 7271   4.027   1.749   6.697  0.5133  0.1267  0.0561
   49CHOL   C10 7272   3.894   1.637   6.831 -0.6064 -0.4716  0.1525
   49CHOL   C11 7273   3.898   1.655   6.574  0.2541 -0.5649  0.5870
   49CHOL  H111 7274   3.812   1.591   6.590  1.0617 -1.0610  3.1307
   49CHOL  H112 7275   3.981   1.587   6.556  0.7495  0.3807 -0.7799
   49CHOL   C12 7276   3.864   1.746   6.457 -0.5696 -0.0910 -0.2280
   49CHOL  H121 7277   3.809   1.677   6.393 -0.1926  0.1886 -0.8642
   49CHOL  H122 7278   3.955   1.781   6.408 -0.8145  2.6298  1.1548
   49CHOL   C13 7279   3.771   1.865   6.486 -0.7436 -0.5367  0.0103
   49CHOL   C14 7280   3.844   1.948   6.600  0.7990  0.5998  0.5672
   49CHOL  H141 7281   3.944   1.958   6.557  0.6089  1.2783  0.2802
   49CHOL   C15 7282   3.782   2.096   6.595  0.4373  0.0470  0.3406
   49CHOL  H151 7283   3.690   2.101   6.655 -0.4872 -1.5619 -0.9236
   49CHOL  H152 7284   3.864   2.156   6.635 -0.3357  0.9495  0.6171
   49CHOL   C16 7285   3.753   2.123   6.438  0.1974 -0.2566  0.3538
   49CHOL  H161 7286   3.832   2.189   6.403 -0.7224  0.2195 -0.8570
   49CHOL  H162 7287   3.659   2.179   6.439  1.4617  1.9083  0.5502
   49CHOL   C17 7288   3.745   1.980   6.372 -0.9527 -0.4294 -0.1821
   49CHOL  H171 7289   3.846   2.004   6.338 -1.5977  0.3770 -1.5789
   49CHOL   C18 7290   3.629   1.818   6.532 -0.4474 -0.0092 -0.7957
   49CHOL  H181 7291   3.627   1.760   6.624 -1.4036 -3.8414 -3.1158
   49CHOL  H182 7292   3.564   1.901   6.560 -1.9382 -1.1322 -0.8415
   49CHOL  H182 7293   3.586   1.757   6.452  0.7170 -0.1556 -1.3179
   49CHOL   C19 7294   3.747   1.564   6.818 -0.1765  0.5275  0.5817
   49CHOL  H191 7295   3.661   1.624   6.789  0.2359  1.8262  1.9931
   49CHOL  H192 7296   3.731   1.481   6.749  0.2649  2.0325 -1.3716
   49CHOL  H192 7297   3.706   1.504   6.899 -0.0983 -2.1220 -1.2873
   49CHOL   C20 7298   3.672   1.937   6.245 -0.3579 -0.5475 -0.5856
   49CHOL  H201 7299   3.714   1.998   6.165 -1.1089 -0.1114 -0.6570
   49CHOL   C21 7300   3.524   1.983   6.250 -0.4475 -0.2937 -0.0926
   49CHOL  H211 7301   3.525   2.088   6.278 -2.1324 -0.5262  0.8880
   49CHOL  H212 7302   3.466   1.973   6.158 -0.0898  1.3052 -0.5080
   49CHOL  H212 7303   3.464   1.935   6.327 -1.3347  0.2238 -0.4559
   49CHOL   C22 7304   3.686   1.793   6.199  0.1276 -0.5810  0.2910
   49CHOL  H221 7305   3.642   1.704   6.245 -0.4996 -0.2408  0.3589
   49CHOL  H222 7306   3.795   1.790   6.206  0.1582 -1.3385 -0.4062
   49CHOL   C23 7307   3.656   1.794   6.045 -0.5353 -0.2480 -0.2852
   49CHOL  H231 7308   3.731   1.852   5.993  2.3288 -0.8227  3.0119
   49CHOL  H232 7309   3.556   1.833   6.023  0.5408  1.9062 -1.4886
   49CHOL   C24 7310   3.659   1.655   5.986  0.3033 -0.2170  0.3236
   49CHOL  H241 7311   3.586   1.588   6.030 -0.7578  0.7673  0.0864
   49CHOL  H242 7312   3.751   1.602   6.010 -0.1626 -0.1777  2.2727
   49CHOL   C25 7313   3.651   1.652   5.836 -0.2915  0.1000  0.7353
   49CHOL  H251 7314   3.713   1.736   5.804  1.2095 -0.4366  2.1437
   49CHOL   C26 7315   3.504   1.681   5.792  0.1478  0.9543  0.0013
   49CHOL  H261 7316   3.468   1.784   5.799 -3.0835 -0.2713  1.9235
   49CHOL  H262 7317   3.498   1.644   5.690  0.3084 -0.8202  0.6185
   49CHOL  H262 7318   3.439   1.627   5.860  0.2273 -1.9384 -2.1801
   49CHOL   C27 7319   3.715   1.525   5.771 -0.7921  0.4913  0.6682
   49CHOL  H271 7320   3.822   1.546   5.773 -1.0209  1.7417  0.2028
   49CHOL  H272 7321   3.683   1.428   5.809 -1.7322 -0.1793 -1.7858
   49CHOL  H272 7322   3.672   1.523   5.671  1.1949  0.4983 -0.2123
   50CHOL    C1 7323   0.151   2.056   7.172 -0.6718  0.4407 -0.4593
   50CHOL   H11 7324   0.213   2.145   7.162 -0.1395 -0.0267 -1.4066
   50CHOL   H12 7325   0.179   1.993   7.087 -1.6296  1.0702 -1.2429
   50CHOL    C2 7326   0.186   2.004   7.312  0.0586  0.5148  0.1512
   50CHOL   H21 7327   0.293   1.986   7.321  0.0216  0.7974  1.1581
   50CHOL   H22 7328   0.133   1.911   7.334 -3.6065  2.5080  0.1745
   50CHOL    C3 7329   0.147   2.111   7.415 -0.6049 -0.1186 -0.8961
   50CHOL   H31 7330   0.204   2.204   7.410  1.3824 -1.2452  0.3787
   50CHOL    O3 7331   0.174   2.067   7.549  0.1953 -0.0368  0.3801
   50CHOL    H3 7332   0.252   2.015   7.547 -0.2790 -0.9781  3.3669
   50CHOL    C4 7333   5.949   2.152   7.406 -0.5591  1.0032 -0.2831
   50CHOL   H41 7334   5.924   2.236   7.471  1.6597  0.1785  1.6666
   50CHOL   H42 7335   5.873   2.079   7.432  0.5280 -0.1642 -0.3499
   50CHOL    C5 7336   5.915   2.188   7.257 -0.2083  0.5110  1.1114
   50CHOL    C6 7337   5.844   2.304   7.234  0.0284 -0.2446 -0.5204
   50CHOL   H61 7338   5.803   2.368   7.310 -1.3105  1.0219 -2.2425
   50CHOL    C7 7339   5.803   2.352   7.091 -0.2727  0.3947 -0.6257
   50CHOL   H71 7340   5.876   2.425   7.054  1.3663 -1.5276 -1.2943
   50CHOL   H72 7341   5.700   2.385   7.086 -0.6183 -0.7682 -1.4512
   50CHOL    C8 7342   5.808   2.236   6.996  0.3409  0.1208  0.0482
   50CHOL   H81 7343   5.737   2.163   7.035  0.1997  0.9726  1.4182
   50CHOL    C9 7344   5.947   2.167   7.006 -0.9699  0.2540 -0.1418
   50CHOL   H91 7345   0.079   2.240   7.009 -1.1917  0.5609 -1.3154
   50CHOL   C10 7346   0.009   2.101   7.143  0.1604  0.1519 -0.0411
   50CHOL   C11 7347   0.036   2.074   6.892  0.0028 -0.1456  0.2602
   50CHOL  H111 7348   0.001   1.976   6.922  1.4141 -0.9886 -0.8091
   50CHOL  H112 7349   0.145   2.066   6.883 -0.0568  0.4492 -1.2133
   50CHOL   C12 7350   5.918   2.105   6.756  0.1607 -0.6254  0.2049
   50CHOL  H121 7351   5.940   2.013   6.700 -2.0196 -0.9330 -0.2029
   50CHOL  H122 7352   0.039   2.176   6.712  1.3935 -1.5677  0.6059
   50CHOL   C13 7353   5.772   2.148   6.758  0.3939  0.2467 -0.7262
   50CHOL   C14 7354   5.760   2.268   6.858  0.2619  0.5347  0.2799
   50CHOL  H141 7355   5.841   2.334   6.827 -0.0017  0.1438 -1.2988
   50CHOL   C15 7356   5.627   2.355   6.812  0.0092  0.0159 -0.6416
   50CHOL  H151 7357   5.632   2.461   6.836 -0.4217 -0.4073  1.4987
   50CHOL  H152 7358   5.548   2.310   6.871  0.6652  0.8313  0.9106
   50CHOL   C16 7359   5.608   2.326   6.663  0.8166  0.2018  0.0298
   50CHOL  H161 7360   5.612   2.403   6.587  0.3294 -0.5410 -0.7615
   50CHOL  H162 7361   5.505   2.292   6.648  0.8264  1.1291 -2.3285
   50CHOL   C17 7362   5.712   2.208   6.618  0.0759  0.6095  0.6304
   50CHOL  H171 7363   5.786   2.281   6.586 -0.1839  1.8214  2.7049
   50CHOL   C18 7364   5.679   2.034   6.806  0.2402  0.0798  0.2014
   50CHOL  H181 7365   5.710   2.001   6.904  3.3013  1.2186 -0.3435
   50CHOL  H182 7366   5.572   2.058   6.809  0.1571 -0.4881  1.8389
   50CHOL  H182 7367   5.697   1.944   6.746  2.9431 -0.8506  2.3437
   50CHOL   C19 7368   5.864   1.966   7.151 -0.4965  0.4514 -0.7402
   50CHOL  H191 7369   5.757   1.976   7.165 -0.3200  1.3848 -0.0199
   50CHOL  H192 7370   5.851   1.877   7.089 -4.5221  0.7099 -0.4055
   50CHOL  H192 7371   5.888   1.913   7.243  0.5005  2.1853  0.0076
   50CHOL   C20 7372   5.694   2.103   6.501 -0.0471  0.6769 -0.3289
   50CHOL  H201 7373   5.718   2.167   6.416  0.1569  0.3435 -0.5253
   50CHOL   C21 7374   5.547   2.058   6.485  0.0683 -0.6382 -0.2550
   50CHOL  H211 7375   5.483   2.140   6.453 -1.6579 -0.7146  2.7989
   50CHOL  H212 7376   5.543   1.978   6.410  0.4442 -1.2936  0.4214
   50CHOL  H212 7377   5.515   2.024   6.584  0.9752  1.1953  0.6813
   50CHOL   C22 7378   5.790   1.979   6.505  0.4186  0.0994 -0.6626
   50CHOL  H221 7379   5.789   1.889   6.566 -1.3484  1.4005  1.2912
   50CHOL  H222 7380   5.884   2.033   6.515  1.0940 -1.3678  1.1932
   50CHOL   C23 7381   5.795   1.937   6.357 -0.2101 -0.3110  0.3537
   50CHOL  H231 7382   5.785   2.026   6.294  0.9905 -1.2589 -1.2120
   50CHOL  H232 7383   5.723   1.863   6.320 -0.4110  0.2209 -0.3408
   50CHOL   C24 7384   5.934   1.886   6.325 -0.3198 -0.0315  0.4232
   50CHOL  H241 7385   0.010   1.800   6.386  1.1818 -1.0117 -1.5556
   50CHOL  H242 7386   0.055   1.969   6.338 -1.2818  0.8364  0.1849
   50CHOL   C25 7387   5.939   1.834   6.173 -0.3526 -0.4939  0.0178
   50CHOL  H251 7388   5.912   1.923   6.115 -0.4913  0.7890  2.0125
   50CHOL   C26 7389   5.843   1.716   6.149 -0.1106 -0.2561  0.1548
   50CHOL  H261 7390   5.741   1.742   6.120  0.7418 -0.6677 -3.4866
   50CHOL  H262 7391   5.864   1.645   6.069  2.7451 -1.0402  1.5460
   50CHOL  H262 7392   5.845   1.651   6.237  0.4729 -1.8058 -0.9924
   50CHOL   C27 7393   0.131   1.792   6.128 -0.1213 -0.0416 -0.0512
   50CHOL  H271 7394   0.157   1.700   6.180  1.9677  0.4613 -0.1647
   50CHOL  H272 7395   0.131   1.761   6.024  0.0066 -1.0488  0.2423
   50CHOL  H272 7396   0.203   1.873   6.134 -0.5808  0.4314 -0.8536
   51CHOL    C1 7397   4.546   3.952   7.149  0.2869  1.0370  0.2309
   51CHOL   H11 7398   4.517   3.856   7.106 -1.6672  2.1484 -1.0278
   51CHOL   H12 7399   4.463   4.009   7.107 -0.2442 -2.0494 -3.1513
   51CHOL    C2 7400   4.552   3.946   7.307  0.3861  0.4935  0.3413
   51CHOL   H21 7401   4.454   3.906   7.330  0.1662  0.2253 -0.9878
   51CHOL   H22 7402   4.559   4.046   7.351  1.6287 -0.1909  1.7343
   51CHOL    C3 7403   4.673   3.857   7.358  0.5637 -0.3040  0.3953
   51CHOL   H31 7404   4.656   3.754   7.327 -1.2190  0.3856 -1.0506
   51CHOL    O3 7405   4.669   3.864   7.495 -0.0735 -0.0699  0.0132
   51CHOL    H3 7406   4.732   3.803   7.530  1.2103  0.0920 -1.9081
   51CHOL    C4 7407   4.808   3.913   7.303  0.4484  0.0096 -0.8793
   51CHOL   H41 7408   4.888   3.852   7.345  0.4907  0.4649 -0.2772
   51CHOL   H42 7409   4.833   4.011   7.343 -1.9651  0.7275 -1.0337
   51CHOL    C5 7410   4.789   3.920   7.153 -0.7293  0.0421 -0.0185
   51CHOL    C6 7411   4.875   3.850   7.078 -0.6527 -0.1681  0.3252
   51CHOL   H61 7412   4.955   3.793   7.124 -1.2423  0.7174  2.5349
   51CHOL    C7 7413   4.884   3.852   6.929  0.0341 -0.2933 -0.6090
   51CHOL   H71 7414   4.831   3.765   6.891 -0.2155  0.1174 -1.2048
   51CHOL   H72 7415   4.987   3.860   6.894  0.2412 -0.4357 -0.0460
   51CHOL    C8 7416   4.813   3.972   6.870 -0.6152 -0.0234 -0.1740
   51CHOL   H81 7417   4.864   4.058   6.914 -0.6599  0.4680 -1.0713
   51CHOL    C9 7418   4.666   3.968   6.927  0.0868  0.4146  0.4476
   51CHOL   H91 7419   4.634   3.867   6.901 -0.4676  1.1802 -1.9919
   51CHOL   C10 7420   4.673   3.999   7.081  0.0090  0.1207  0.1527
   51CHOL   C11 7421   4.553   4.050   6.854 -0.6329  0.4545  0.3672
   51CHOL  H111 7422   4.541   4.142   6.911 -0.4278  1.0326 -0.5091
   51CHOL  H112 7423   4.450   4.015   6.860 -0.2505 -0.4267  2.1670
   51CHOL   C12 7424   4.573   4.078   6.701 -0.3802  0.1179  0.4518
   51CHOL  H121 7425   4.497   4.152   6.679 -1.2630 -0.3803  1.7729
   51CHOL  H122 7426   4.554   3.984   6.650  1.0570  1.4733 -2.7143
   51CHOL   C13 7427   4.722   4.120   6.670 -0.4253  0.7739  0.7247
   51CHOL   C14 7428   4.808   3.991   6.714  0.2025  0.1596  0.7540
   51CHOL  H141 7429   4.763   3.895   6.687 -2.0341  0.9442  1.5899
   51CHOL   C15 7430   4.941   3.995   6.627 -0.4034 -0.5759 -0.5172
   51CHOL  H151 7431   5.005   3.908   6.611  0.0807 -0.5080  1.0467
   51CHOL  H152 7432   5.001   4.072   6.675 -1.1071 -0.1574 -0.3139
   51CHOL   C16 7433   4.901   4.063   6.491  0.4644 -0.1921  0.2527
   51CHOL  H161 7434   4.906   3.990   6.410  0.4582  0.2830 -0.1781
   51CHOL  H162 7435   4.979   4.136   6.470  1.0616 -1.1593 -1.0348
   51CHOL   C17 7436   4.759   4.133   6.509 -0.3126  0.3183 -0.4476
   51CHOL  H171 7437   4.728   4.044   6.455  1.4025  0.3009 -1.4317
   51CHOL   C18 7438   4.758   4.245   6.747  0.0638 -0.1424 -0.4851
   51CHOL  H181 7439   4.866   4.247   6.762 -0.1062  0.5028  0.7047
   51CHOL  H182 7440   4.737   4.340   6.699  0.8599  0.9917  1.3591
   51CHOL  H182 7441   4.721   4.253   6.849  0.1402  0.0179 -0.4701
   51CHOL   C19 7442   4.707   4.159   7.105 -0.2904  0.2930 -0.3221
   51CHOL  H191 7443   4.793   4.192   7.047 -1.1217  1.8612 -0.6789
   51CHOL  H192 7444   4.648   4.251   7.100 -0.2102  0.5529  2.7499
   51CHOL  H192 7445   4.757   4.181   7.199  2.8177 -2.9344 -1.1055
   51CHOL   C20 7446   4.694   4.253   6.434 -0.1149  0.2414  0.6733
   51CHOL  H201 7447   4.663   4.193   6.348  1.6401  0.7055 -0.2940
   51CHOL   C21 7448   4.805   4.357   6.393 -0.4125 -0.1769  0.3168
   51CHOL  H211 7449   4.902   4.312   6.372  1.4129  2.8497  1.7677
   51CHOL  H212 7450   4.772   4.416   6.308  0.0542 -1.1138 -0.5264
   51CHOL  H212 7451   4.821   4.427   6.475 -2.8182  1.7710 -0.8250
   51CHOL   C22 7452   4.566   4.309   6.489 -0.4398  0.0505  0.1163
   51CHOL  H221 7453   4.528   4.347   6.584  1.4091 -0.4545  1.0880
   51CHOL  H222 7454   4.528   4.208   6.473 -0.1801 -0.4904  2.6277
   51CHOL   C23 7455   4.516   4.415   6.390  0.2756 -0.8086  0.8737
   51CHOL  H231 7456   4.524   4.375   6.289  1.6598 -0.3607  0.7990
   51CHOL  H232 7457   4.583   4.500   6.389 -1.7305  0.8164 -1.5137
   51CHOL   C24 7458   4.367   4.461   6.405  0.0415 -0.0092 -0.7982
   51CHOL  H241 7459   4.367   4.504   6.505  0.0311  1.8957 -1.5926
   51CHOL  H242 7460   4.290   4.385   6.394  0.0133  0.1302 -1.5828
   51CHOL   C25 7461   4.320   4.560   6.292  1.0631  0.2449 -0.7257
   51CHOL  H251 7462   4.325   4.511   6.195 -2.2847 -0.9837 -0.3743
   51CHOL   C26 7463   4.408   4.680   6.275  0.4074  0.5179 -0.4009
   51CHOL  H261 7464   4.441   4.725   6.368  0.1781  1.9233 -0.9868
   51CHOL  H262 7465   4.500   4.649   6.224  0.9356 -0.4238  1.0989
   51CHOL  H262 7466   4.360   4.755   6.212 -1.6286  1.3191  2.0286
   51CHOL   C27 7467   4.173   4.610   6.311 -0.0011  0.3913 -0.6715
   51CHOL  H271 7468   4.125   4.672   6.235 -2.5101 -0.3094  0.2583
   51CHOL  H272 7469   4.101   4.529   6.325  2.2401 -1.4546  0.4600
   51CHOL  H272 7470   4.168   4.666   6.404  1.6155  0.8552 -0.8555
   52CHOL    C1 7471   3.224   0.722   7.036  0.1384 -0.1541  0.1609
   52CHOL   H11 7472   3.116   0.735   7.032  0.3673  1.9295  0.4016
   52CHOL   H12 7473   3.265   0.795   6.966 -1.3096  1.3041  0.7845
   52CHOL    C2 7474   3.268   0.756   7.183 -0.8239  0.3786 -0.2556
   52CHOL   H21 7475   3.214   0.848   7.203 -2.2200 -0.5769  0.4810
   52CHOL   H22 7476   3.374   0.780   7.180 -0.2632 -2.0065 -1.2941
   52CHOL    C3 7477   3.234   0.640   7.281 -0.0698  0.4780  0.2977
   52CHOL   H31 7478   3.127   0.641   7.301 -0.3400 -2.6285 -0.7711
   52CHOL    O3 7479   3.306   0.655   7.408 -0.3072  0.3368  0.2613
   52CHOL    H3 7480   3.265   0.730   7.448 -3.0158  0.6070 -2.8006
   52CHOL    C4 7481   3.279   0.503   7.222 -0.1029  0.3971  0.3569
   52CHOL   H41 7482   3.244   0.427   7.291  1.2819  0.3095  0.9796
   52CHOL   H42 7483   3.388   0.503   7.223 -0.0469 -1.1311 -1.7249
   52CHOL    C5 7484   3.237   0.476   7.089  0.1372 -0.5415 -0.6299
   52CHOL    C6 7485   3.182   0.358   7.061  0.3259  0.1124 -0.5970
   52CHOL   H61 7486   3.162   0.282   7.135 -0.5455  1.0959  0.1962
   52CHOL    C7 7487   3.135   0.310   6.925  0.1268  0.2719  0.1558
   52CHOL   H71 7488   3.026   0.313   6.936  0.0480  0.1131 -0.5671
   52CHOL   H72 7489   3.164   0.206   6.906  1.3730  0.4884  0.8785
   52CHOL    C8 7490   3.184   0.403   6.812 -0.1722 -0.1611 -0.2926
   52CHOL   H81 7491   3.286   0.367   6.802 -0.2799 -1.4188  2.7574
   52CHOL    C9 7492   3.171   0.548   6.856  0.3952  0.0973  0.8168
   52CHOL   H91 7493   3.070   0.561   6.896 -0.5715  0.4862 -1.6779
   52CHOL   C10 7494   3.260   0.583   6.980 -0.4378  0.1091 -0.1821
   52CHOL   C11 7495   3.175   0.649   6.739 -0.9980 -0.3819  0.6672
   52CHOL  H111 7496   3.275   0.682   6.709 -0.5892 -1.3986  0.9107
   52CHOL  H112 7497   3.131   0.743   6.773  1.2729  0.8952  0.1963
   52CHOL   C12 7498   3.112   0.606   6.605 -0.0435 -0.3306 -0.2859
   52CHOL  H121 7499   3.164   0.676   6.539  0.0118  0.3839  0.5081
   52CHOL  H122 7500   3.006   0.631   6.596  0.4089  1.7151 -0.0531
   52CHOL   C13 7501   3.154   0.464   6.564  0.6856 -0.1795  0.4356
   52CHOL   C14 7502   3.103   0.381   6.688  0.7824 -0.3165 -0.3066
   52CHOL  H141 7503   3.006   0.428   6.707  0.3456  0.0325 -3.1327
   52CHOL   C15 7504   3.047   0.244   6.639 -0.2760 -0.2909  0.0177
   52CHOL  H151 7505   2.955   0.205   6.684 -1.3579  0.8905 -1.1110
   52CHOL  H152 7506   3.117   0.165   6.665  2.5070  2.4485  1.0320
   52CHOL   C16 7507   3.026   0.250   6.481  0.1177  1.3583 -0.2446
   52CHOL  H161 7508   2.924   0.228   6.452 -0.1226 -0.4871  1.8364
   52CHOL  H162 7509   3.081   0.168   6.435  1.7121  2.6020 -0.6203
   52CHOL   C17 7510   3.087   0.394   6.436 -0.8786 -0.0025 -0.3621
   52CHOL  H171 7511   2.981   0.415   6.452 -0.8542  0.8642 -1.3125
   52CHOL   C18 7512   3.304   0.444   6.549 -0.0141 -0.6003  0.3934
   52CHOL  H181 7513   3.334   0.342   6.525  0.3470 -0.5024  0.4282
   52CHOL  H182 7514   3.346   0.496   6.462  0.1344 -2.4346 -0.6508
   52CHOL  H182 7515   3.366   0.492   6.625  0.6676  1.2817 -1.2895
   52CHOL   C19 7516   3.415   0.573   6.938 -0.6353 -0.1458  0.5204
   52CHOL  H191 7517   3.459   0.657   6.883  1.6168 -1.8186 -0.3302
   52CHOL  H192 7518   3.506   0.552   6.994 -0.8094  0.2718  0.9594
   52CHOL  H192 7519   3.431   0.483   6.879 -2.0115 -1.2836  1.8536
   52CHOL   C20 7520   3.141   0.448   6.298 -0.3521 -0.0717  0.1728
   52CHOL  H201 7521   3.059   0.413   6.235  1.0275  0.7932 -2.1559
   52CHOL   C21 7522   3.263   0.373   6.244 -0.1602  0.3403 -0.2553
   52CHOL  H211 7523   3.245   0.266   6.231  0.5207  0.2556 -0.5193
   52CHOL  H212 7524   3.292   0.423   6.152 -3.2699 -0.4130 -1.7314
   52CHOL  H212 7525   3.353   0.381   6.303 -0.9707 -0.3060  1.0995
   52CHOL   C22 7526   3.149   0.600   6.284 -0.0202 -0.0840 -0.1378
   52CHOL  H221 7527   3.210   0.673   6.337  0.3935 -1.4547  1.3350
   52CHOL  H222 7528   3.046   0.617   6.316 -0.5069  1.2640 -2.3581
   52CHOL   C23 7529   3.155   0.641   6.126  0.2601 -0.3930  0.1812
   52CHOL  H231 7530   3.102   0.574   6.058 -2.7481  2.5507 -0.5189
   52CHOL  H232 7531   3.261   0.641   6.098  0.2720  0.5061  0.2296
   52CHOL   C24 7532   3.094   0.783   6.103 -0.0251 -1.0149  0.1195
   52CHOL  H241 7533   3.144   0.860   6.161 -0.4360 -0.3079 -0.4490
   52CHOL  H242 7534   3.001   0.781   6.160  0.0496  1.4767  0.4132
   52CHOL   C25 7535   3.076   0.818   5.954  0.6662 -0.8418 -0.0402
   52CHOL  H251 7536   3.005   0.743   5.918  0.0785 -0.2828 -0.0526
   52CHOL   C26 7537   3.202   0.802   5.861  0.5312 -0.0367 -0.0203
   52CHOL  H261 7538   3.181   0.823   5.756  1.3415  0.2819 -0.1313
   52CHOL  H262 7539   3.279   0.875   5.886  2.6420 -2.6166  1.2952
   52CHOL  H262 7540   3.233   0.698   5.857  0.6256 -0.1047  1.9585
   52CHOL   C27 7541   3.016   0.965   5.961 -0.4114  0.0517  0.4862
   52CHOL  H271 7542   3.093   1.028   6.004  0.6684 -0.7349 -0.2739
   52CHOL  H272 7543   3.010   1.002   5.858  2.5543 -1.5848 -0.3374
   52CHOL  H272 7544   2.917   0.973   6.007 -0.9803 -2.1501 -0.2905
   53CHOL    C1 7545   4.520   0.672   6.688  0.3782 -0.1227  0.9276
   53CHOL   H11 7546   4.499   0.768   6.641 -1.6250 -2.3284 -2.9354
   53CHOL   H12 7547   4.610   0.627   6.646  1.8187  1.3263  2.3939
   53CHOL    C2 7548   4.537   0.679   6.838  0.5723 -0.2828 -0.4699
   53CHOL   H21 7549   4.615   0.744   6.876  0.6496 -0.3824 -0.4591
   53CHOL   H22 7550   4.566   0.584   6.883 -0.8618  0.1181  1.3528
   53CHOL    C3 7551   4.405   0.731   6.904 -0.8348 -0.1835  0.2541
   53CHOL   H31 7552   4.386   0.831   6.865 -0.2728  0.2818  1.1531
   53CHOL    O3 7553   4.416   0.744   7.047 -0.5894 -0.0880  0.2621
   53CHOL    H3 7554   4.338   0.766   7.094 -0.3067  0.3059  0.5547
   53CHOL    C4 7555   4.281   0.647   6.878  0.4643  0.3241 -0.1957
   53CHOL   H41 7556   4.192   0.697   6.916  0.4934  0.9298 -0.9028
   53CHOL   H42 7557   4.294   0.555   6.935 -1.1391  0.0204 -0.2854
   53CHOL    C5 7558   4.274   0.628   6.732  0.1897  0.7953  0.1786
   53CHOL    C6 7559   4.155   0.643   6.674 -0.1525  0.4389 -0.3019
   53CHOL   H61 7560   4.075   0.680   6.737  1.9077 -0.1019  2.7750
   53CHOL    C7 7561   4.126   0.615   6.528 -0.3081 -0.5808 -0.9210
   53CHOL   H71 7562   4.102   0.704   6.470 -0.7102 -1.0608 -1.4985
   53CHOL   H72 7563   4.038   0.551   6.529 -0.2356 -0.7204  2.2561
   53CHOL    C8 7564   4.243   0.532   6.457  0.3565  0.7076  0.2280
   53CHOL   H81 7565   4.241   0.435   6.505 -2.7277 -0.3422 -1.8424
   53CHOL    C9 7566   4.376   0.603   6.497  0.1961  0.7066  0.6706
   53CHOL   H91 7567   4.359   0.709   6.479 -2.1434  0.5098  1.5396
   53CHOL   C10 7568   4.398   0.581   6.650  0.7087 -0.2217 -0.1417
   53CHOL   C11 7569   4.504   0.575   6.414  0.1643 -0.2665 -0.0583
   53CHOL  H111 7570   4.557   0.491   6.459 -0.8515 -0.2736  1.1746
   53CHOL  H112 7571   4.572   0.659   6.425 -0.4315 -0.0972  2.7989
   53CHOL   C12 7572   4.470   0.559   6.262  0.4486  0.4275 -0.2362
   53CHOL  H121 7573   4.567   0.528   6.223 -0.5913 -0.5886 -2.1400
   53CHOL  H122 7574   4.453   0.657   6.218  0.4484  0.9818  0.9864
   53CHOL   C13 7575   4.355   0.451   6.232 -0.1175  0.4156 -0.2752
   53CHOL   C14 7576   4.226   0.516   6.300  0.0334 -0.3105  0.4351
   53CHOL  H141 7577   4.203   0.620   6.278  0.0502 -0.3659  0.1511
   53CHOL   C15 7578   4.100   0.450   6.231  0.3185  0.2777  0.1165
   53CHOL  H151 7579   4.070   0.356   6.277  0.2698  0.0471 -0.3764
   53CHOL  H152 7580   4.021   0.525   6.232  1.7939  1.8827  3.2348
   53CHOL   C16 7581   4.147   0.411   6.083 -0.3990  0.0150 -0.2314
   53CHOL  H161 7582   4.090   0.469   6.011  0.4620  0.5765 -0.4680
   53CHOL  H162 7583   4.119   0.307   6.067 -0.7516 -0.2237  1.9205
   53CHOL   C17 7584   4.309   0.413   6.084  0.4455  0.5231 -0.1737
   53CHOL  H171 7585   4.283   0.505   6.032  2.3312  1.7446  0.9740
   53CHOL   C18 7586   4.394   0.315   6.297 -0.5399  0.3219 -0.3745
   53CHOL  H181 7587   4.319   0.238   6.279 -0.9720  0.7463 -0.4212
   53CHOL  H182 7588   4.491   0.277   6.268 -0.7225 -0.9868  0.6591
   53CHOL  H182 7589   4.416   0.337   6.401 -0.5836 -0.5756 -0.1725
   53CHOL   C19 7590   4.438   0.424   6.672 -0.3929 -0.3821  0.4663
   53CHOL  H191 7591   4.465   0.383   6.769 -2.3712 -2.5753  0.1285
   53CHOL  H192 7592   4.352   0.357   6.674 -0.4409 -0.3013  1.8881
   53CHOL  H192 7593   4.499   0.355   6.615  3.4555  3.3169 -0.1710
   53CHOL   C20 7594   4.412   0.340   5.991  0.3967  0.6846 -0.3529
   53CHOL  H201 7595   4.379   0.364   5.890  0.2449 -0.6020 -0.6113
   53CHOL   C21 7596   4.404   0.188   6.005  0.2420 -0.3024  0.0714
   53CHOL  H211 7597   4.433   0.139   5.912  2.4533 -1.2989  1.2573
   53CHOL  H212 7598   4.470   0.149   6.083 -0.6821 -0.4321  0.8066
   53CHOL  H212 7599   4.303   0.157   6.033 -0.4692  1.5042 -0.4053
   53CHOL   C22 7600   4.560   0.388   6.005 -0.3428  0.1170  0.3254
   53CHOL  H221 7601   4.598   0.350   6.100 -1.2702 -0.2502  0.5522
   53CHOL  H222 7602   4.531   0.493   6.003 -0.0422  0.1865 -0.8989
   53CHOL   C23 7603   4.675   0.371   5.906 -0.8532  0.2882  0.0635
   53CHOL  H231 7604   4.734   0.280   5.920 -0.3771  0.3973 -1.1897
   53CHOL  H232 7605   4.743   0.451   5.937  1.3911 -0.8249 -1.7624
   53CHOL   C24 7606   4.626   0.379   5.752  0.1542 -0.3609 -0.6436
   53CHOL  H241 7607   4.572   0.471   5.733  1.4363 -0.1022 -3.1232
   53CHOL  H242 7608   4.556   0.295   5.746  0.2012 -0.4917  0.4133
   53CHOL   C25 7609   4.730   0.365   5.641 -0.5176 -0.3978  0.5897
   53CHOL  H251 7610   4.775   0.271   5.671 -2.2824 -1.0042  1.4401
   53CHOL   C26 7611   4.828   0.475   5.634  0.0416  0.3793  0.4710
   53CHOL  H261 7612   4.908   0.464   5.560 -1.7613 -1.0501 -1.2979
   53CHOL  H262 7613   4.785   0.575   5.627  2.4074  1.4462  0.6072
   53CHOL  H262 7614   4.881   0.495   5.727 -0.4311  0.5357  0.7072
   53CHOL   C27 7615   4.658   0.352   5.511  0.6995 -0.4649 -0.4741
   53CHOL  H271 7616   4.720   0.280   5.456  2.1015 -0.6045  1.2438
   53CHOL  H272 7617   4.552   0.330   5.518 -0.0789  2.9509 -0.8249
   53CHOL  H272 7618   4.652   0.441   5.448 -0.1371 -0.2187 -0.0512
   54CHOL    C1 7619   5.037   3.189   6.874  0.1025  0.6975  0.5107
   54CHOL   H11 7620   4.932   3.168   6.857 -0.2626  1.4955  1.7288
   54CHOL   H12 7621   5.045   3.297   6.868 -0.2532  0.8504  2.4833
   54CHOL    C2 7622   5.093   3.146   7.014 -0.4619 -0.8697 -0.7002
   54CHOL   H21 7623   5.044   3.210   7.087  0.9121  1.0217 -1.4115
   54CHOL   H22 7624   5.197   3.176   7.029 -0.5886 -1.5049  1.7253
   54CHOL    C3 7625   5.077   2.991   7.019  0.2302  0.0823  0.6050
   54CHOL   H31 7626   4.976   2.951   7.024 -0.0055  0.5522 -0.4435
   54CHOL    O3 7627   5.147   2.973   7.137  0.3286  0.0618 -0.2410
   54CHOL    H3 7628   5.183   2.886   7.129 -0.3520 -0.0839 -1.9689
   54CHOL    C4 7629   5.164   2.924   6.907  0.0180 -0.2307  0.0513
   54CHOL   H41 7630   5.145   2.817   6.909 -1.1477 -0.0135  1.0506
   54CHOL   H42 7631   5.271   2.933   6.927 -0.2369 -1.4415  2.2080
   54CHOL    C5 7632   5.128   2.985   6.774 -0.5181 -0.4707 -0.1290
   54CHOL    C6 7633   5.097   2.904   6.667 -0.0661 -0.5358 -0.3306
   54CHOL   H61 7634   5.085   2.797   6.679  2.8021 -0.9241 -0.3746
   54CHOL    C7 7635   5.065   2.958   6.531  0.7934  0.0954 -0.5401
   54CHOL   H71 7636   4.957   2.968   6.528  0.6239 -0.9166  1.5081
   54CHOL   H72 7637   5.100   2.880   6.463  3.1532  0.1084  0.6059
   54CHOL    C8 7638   5.125   3.095   6.505 -0.2524 -0.2881 -0.0124
   54CHOL   H81 7639   5.233   3.086   6.520 -0.4312 -3.3268 -0.0832
   54CHOL    C9 7640   5.073   3.189   6.613 -0.0021 -0.9130 -0.1895
   54CHOL   H91 7641   4.964   3.193   6.603  0.0274  1.1611  0.1024
   54CHOL   C10 7642   5.126   3.141   6.753  0.1491  0.4205 -0.0836
   54CHOL   C11 7643   5.104   3.343   6.579  0.6040  0.7174  0.3001
   54CHOL  H111 7644   5.207   3.372   6.596  0.8726  0.5321 -0.9441
   54CHOL  H112 7645   5.046   3.410   6.643  0.1808  2.1617 -1.5238
   54CHOL   C12 7646   5.075   3.390   6.433 -0.4144 -0.2932  0.4418
   54CHOL  H121 7647   5.110   3.493   6.432 -0.9243 -0.1096  0.7517
   54CHOL  H122 7648   4.966   3.398   6.430 -0.4831 -1.0856  0.7405
   54CHOL   C13 7649   5.147   3.301   6.336  0.2876 -0.5572 -0.4075
   54CHOL   C14 7650   5.093   3.157   6.361  0.5174  0.4925  0.1467
   54CHOL  H141 7651   4.984   3.156   6.372  0.5293 -0.4941  0.2316
   54CHOL   C15 7652   5.105   3.080   6.218  0.2848  0.1459  0.0257
   54CHOL  H151 7653   5.032   3.000   6.206  1.1529 -0.8536  1.1989
   54CHOL  H152 7654   5.198   3.025   6.200  0.3383 -0.4701  2.0453
   54CHOL   C16 7655   5.090   3.193   6.107  0.3387  0.1725  0.0433
   54CHOL  H161 7656   5.009   3.174   6.036  1.5962 -1.5213 -0.9954
   54CHOL  H162 7657   5.180   3.197   6.046 -0.3283  0.2802 -0.9421
   54CHOL   C17 7658   5.103   3.336   6.181 -0.0608 -0.1735 -0.5599
   54CHOL  H171 7659   4.996   3.356   6.186 -0.5875 -2.7912 -0.6381
   54CHOL   C18 7660   5.303   3.323   6.359  0.0989 -1.2450  0.2571
   54CHOL  H181 7661   5.361   3.249   6.303  1.9762  0.0593  0.3934
   54CHOL  H182 7662   5.339   3.413   6.309 -2.3873 -0.9197 -1.0004
   54CHOL  H182 7663   5.344   3.307   6.459  1.1386 -1.9643 -0.2786
   54CHOL   C19 7664   5.281   3.187   6.766 -0.3534 -0.3326 -0.6314
   54CHOL  H191 7665   5.357   3.204   6.690  0.1601  3.1222  0.5745
   54CHOL  H192 7666   5.277   3.291   6.799 -0.8085  0.3338 -2.6771
   54CHOL  H192 7667   5.354   3.146   6.835  0.3123 -0.9038 -1.6740
   54CHOL   C20 7668   5.167   3.460   6.109 -0.1418  0.0551 -0.6121
   54CHOL  H201 7669   5.098   3.480   6.027 -0.6274 -1.5146 -0.5969
   54CHOL   C21 7670   5.302   3.429   6.034 -0.1025 -0.3420  0.2420
   54CHOL  H211 7671   5.383   3.426   6.106  0.3014 -0.0628 -0.1972
   54CHOL  H212 7672   5.312   3.347   5.962 -1.1957  0.6221 -1.0507
   54CHOL  H212 7673   5.329   3.519   5.978 -0.4563 -0.0040  0.6055
   54CHOL   C22 7674   5.185   3.590   6.200  0.1511  0.0150 -0.0926
   54CHOL  H221 7675   5.246   3.597   6.290 -0.7677  0.2659  0.5126
   54CHOL  H222 7676   5.077   3.588   6.214  0.1101 -0.6385 -0.4429
   54CHOL   C23 7677   5.239   3.708   6.118 -0.3512  0.5678  0.0755
   54CHOL  H231 7678   5.196   3.706   6.018  0.5036  0.5023 -0.2984
   54CHOL  H232 7679   5.345   3.698   6.096 -0.7048 -0.8921 -1.0147
   54CHOL   C24 7680   5.213   3.853   6.175  0.0134  0.0298  0.1387
   54CHOL  H241 7681   5.235   3.830   6.280 -0.7815  1.6910  0.6920
   54CHOL  H242 7682   5.109   3.885   6.171  0.2952  1.0407  0.6773
   54CHOL   C25 7683   5.299   3.970   6.113  0.4326  0.5995 -0.1582
   54CHOL  H251 7684   5.404   3.946   6.123  0.7366  1.8078 -0.3140
   54CHOL   C26 7685   5.286   4.095   6.206  0.0018 -0.3029 -0.6785
   54CHOL  H261 7686   5.340   4.185   6.178 -3.2806  1.8108 -0.5630
   54CHOL  H262 7687   5.183   4.128   6.222  0.3101  1.1174 -1.5192
   54CHOL  H262 7688   5.321   4.064   6.304  0.2223 -2.0761 -1.3067
   54CHOL   C27 7689   5.265   4.013   5.963 -0.7096  0.0636 -0.3962
   54CHOL  H271 7690   5.334   4.076   5.908 -0.3414 -0.7628 -0.8850
   54CHOL  H272 7691   5.251   3.926   5.899  1.5147  0.0742 -0.9098
   54CHOL  H272 7692   5.174   4.073   5.960 -1.2955 -0.6171  2.2009
   55CHOL    C1 7693   3.805   0.387   6.948 -0.0847  0.5275  0.4411
   55CHOL   H11 7694   3.702   0.352   6.961 -0.4333  1.1692 -0.5115
   55CHOL   H12 7695   3.810   0.452   6.860 -0.7911 -0.8285 -0.6292
   55CHOL    C2 7696   3.843   0.465   7.071 -0.7410 -0.5569  0.3915
   55CHOL   H21 7697   3.770   0.545   7.086  0.3415  0.7209 -0.9795
   55CHOL   H22 7698   3.931   0.527   7.055 -1.9781  1.6338  1.8330
   55CHOL    C3 7699   3.849   0.372   7.207 -0.5139  0.2230 -0.2443
   55CHOL   H31 7700   3.750   0.342   7.243  0.1831 -1.4695  0.2848
   55CHOL    O3 7701   3.912   0.446   7.313  0.4136 -0.6133  0.3265
   55CHOL    H3 7702   3.855   0.435   7.387 -2.1161 -0.7860 -1.6112
   55CHOL    C4 7703   3.945   0.255   7.177  0.2316  0.5784 -0.6605
   55CHOL   H41 7704   3.934   0.183   7.257  0.1606 -0.5642 -1.6832
   55CHOL   H42 7705   4.046   0.297   7.176  1.0305 -1.2758 -2.2679
   55CHOL    C5 7706   3.913   0.184   7.043  0.0802  0.0981 -0.5527
   55CHOL    C6 7707   3.907   0.051   7.041  0.6687 -0.4496 -0.5862
   55CHOL   H61 7708   3.929   5.944   7.131  1.0410 -0.2399 -0.5460
   55CHOL    C7 7709   3.872   5.908   6.918 -0.4847  0.8797 -0.1823
   55CHOL   H71 7710   3.773   5.862   6.916 -0.0874  0.0004 -0.0562
   55CHOL   H72 7711   3.950   5.833   6.930 -1.9737 -0.2504  2.9668
   55CHOL    C8 7712   3.894   0.045   6.788  0.0957  0.4702  0.1022
   55CHOL   H81 7713   4.002   0.053   6.782  0.3701 -0.4672  2.9696
   55CHOL    C9 7714   3.822   0.177   6.812 -0.5231 -0.7117  0.8802
   55CHOL   H91 7715   3.720   0.149   6.839 -1.1753 -1.0280 -1.7543
   55CHOL   C10 7716   3.888   0.259   6.914 -0.3006  0.7580  0.2314
   55CHOL   C11 7717   3.788   0.267   6.690  0.0314 -0.5603  0.1923
   55CHOL  H111 7718   3.870   0.324   6.648  0.3940  0.3243  2.0620
   55CHOL  H112 7719   3.717   0.347   6.708  0.9696  0.4477 -0.5512
   55CHOL   C12 7720   3.745   0.179   6.575 -0.3446 -0.3970  0.1581
   55CHOL  H121 7721   3.716   0.240   6.489 -0.2958 -0.6806 -0.0581
   55CHOL  H122 7722   3.649   0.135   6.600  1.8265 -5.0166  0.8083
   55CHOL   C13 7723   3.856   0.075   6.541  0.0817 -0.8379  0.6023
   55CHOL   C14 7724   3.855   5.926   6.661  0.1246 -0.0423  0.2374
   55CHOL  H141 7725   3.749   5.900   6.667 -0.3057  1.7622  0.8805
   55CHOL   C15 7726   3.920   5.790   6.607  1.0647  0.0126  0.9086
   55CHOL  H151 7727   4.029   5.788   6.617  1.0716 -0.9440  0.6976
   55CHOL  H152 7728   3.880   5.703   6.658  0.0509 -0.2557 -0.3183
   55CHOL   C16 7729   3.872   5.783   6.452 -0.3863  0.4324  0.6096
   55CHOL  H161 7730   3.793   5.708   6.454 -2.0632  2.1672  1.2836
   55CHOL  H162 7731   3.953   5.755   6.385 -3.2159 -3.5196 -1.3820
   55CHOL   C17 7732   3.817   5.927   6.413  0.6421  0.0594  0.7543
   55CHOL  H171 7733   3.713   5.896   6.423  1.1271 -1.0033  2.7043
   55CHOL   C18 7734   3.995   0.141   6.520 -0.2338  0.2132 -0.2818
   55CHOL  H181 7735   4.034   0.193   6.607 -0.5767  1.6284 -0.9551
   55CHOL  H182 7736   4.075   0.077   6.482 -1.0770  0.1692 -2.0174
   55CHOL  H182 7737   3.995   0.225   6.451  3.0207 -0.2140 -0.8779
   55CHOL   C19 7738   4.034   0.301   6.868 -0.1949 -0.1409  0.7097
   55CHOL  H191 7739   4.101   0.366   6.925 -0.2767  1.3361 -0.8678
   55CHOL  H192 7740   4.110   0.226   6.851 -1.4498 -1.1802 -0.3894
   55CHOL  H192 7741   4.047   0.355   6.775  1.7634 -4.7625 -1.8684
   55CHOL   C20 7742   3.850   0.047   6.275  0.3912 -0.0746  0.0723
   55CHOL  H201 7743   3.787   5.943   6.203 -0.1578  0.0634  0.4447
   55CHOL   C21 7744   3.990   0.034   6.215 -0.3054 -0.6140 -0.1157
   55CHOL  H211 7745   4.037   5.884   6.213  0.7829 -0.1050 -0.7879
   55CHOL  H212 7746   3.987   0.079   6.115  2.0949  2.5026  1.1310
   55CHOL  H212 7747   4.065   0.092   6.269 -0.2901 -0.2780 -0.4918
   55CHOL   C22 7748   3.790   0.188   6.258  0.0909  1.0465 -0.0309
   55CHOL  H221 7749   3.824   0.275   6.314  1.7681 -0.8133  1.9148
   55CHOL  H222 7750   3.687   0.167   6.286  0.1622 -0.4598 -0.8487
   55CHOL   C23 7751   3.777   0.241   6.111  0.6407 -0.4237  0.3512
   55CHOL  H231 7752   3.745   0.166   6.039 -1.8402  1.1391 -0.2376
   55CHOL  H232 7753   3.875   0.276   6.078 -0.2688  0.7664 -1.1605
   55CHOL   C24 7754   3.690   0.370   6.099  0.6988 -0.4902 -0.3531
   55CHOL  H241 7755   3.736   0.454   6.150 -1.0287 -0.8868  1.9193
   55CHOL  H242 7756   3.600   0.365   6.161  1.9650 -0.1542  1.5589
   55CHOL   C25 7757   3.666   0.419   5.955  0.5082 -1.2213  0.0373
   55CHOL  H251 7758   3.635   0.343   5.884 -0.6190  0.6717 -1.5488
   55CHOL   C26 7759   3.801   0.483   5.900 -0.5731 -0.3761 -0.5128
   55CHOL  H261 7760   3.794   0.540   5.807 -0.9591 -1.2347 -1.0237
   55CHOL  H262 7761   3.855   0.544   5.973  0.0173  0.4403 -1.6138
   55CHOL  H262 7762   3.867   0.399   5.882  0.6102  0.2645  0.7840
   55CHOL   C27 7763   3.552   0.526   5.955 -0.3338 -0.1953  0.1567
   55CHOL  H271 7764   3.462   0.475   5.988  1.0050 -0.7750  3.0880
   55CHOL  H272 7765   3.569   0.604   6.029  1.1450  0.8134 -1.1932
   55CHOL  H272 7766   3.537   0.583   5.864  2.6669 -1.3372 -1.1433
   56CHOL    C1 7767   1.979   3.057   7.157  0.2422 -0.0795  0.4682
   56CHOL   H11 7768   2.030   2.961   7.162 -0.2115 -0.4734 -1.8581
   56CHOL   H12 7769   1.895   3.031   7.093  0.3995  1.0635 -0.2119
   56CHOL    C2 7770   1.936   3.092   7.305  0.0398 -0.5299  0.2709
   56CHOL   H21 7771   1.875   3.013   7.349  0.6744 -0.5793  1.0842
   56CHOL   H22 7772   1.883   3.187   7.315  0.2877 -0.5106  1.4656
   56CHOL    C3 7773   2.067   3.108   7.391 -0.4040  0.5093  0.2027
   56CHOL   H31 7774   2.104   3.007   7.407 -0.9844  0.2871  0.1605
   56CHOL    O3 7775   2.029   3.174   7.520  0.1044  0.2132  0.6180
   56CHOL    H3 7776   1.938   3.153   7.536 -0.7251  2.3934 -0.9123
   56CHOL    C4 7777   2.176   3.194   7.330 -0.1819  0.3482  0.0998
   56CHOL   H41 7778   2.274   3.177   7.375 -0.6190 -1.8386  0.3109
   56CHOL   H42 7779   2.149   3.299   7.335 -0.6361  0.3915 -2.5938
   56CHOL    C5 7780   2.193   3.174   7.185 -0.0453  0.2383  0.5955
   56CHOL    C6 7781   2.317   3.169   7.128 -0.4414 -0.3286  0.5281
   56CHOL   H61 7782   2.399   3.183   7.197  0.6661 -0.4146 -0.7503
   56CHOL    C7 7783   2.348   3.162   6.976 -0.5239 -0.3248  0.0668
   56CHOL   H71 7784   2.380   3.061   6.952  0.7910  0.3143 -0.9366
   56CHOL   H72 7785   2.429   3.235   6.978  0.0177 -0.9149 -0.2202
   56CHOL    C8 7786   2.228   3.213   6.897  0.1984  1.1813  0.1119
   56CHOL   H81 7787   2.196   3.314   6.921 -2.2799  1.5201 -4.1327
   56CHOL    C9 7788   2.108   3.116   6.950  0.0079 -0.4590  0.2315
   56CHOL   H91 7789   2.156   3.019   6.965 -0.1324 -0.2896  1.8420
   56CHOL   C10 7790   2.070   3.164   7.093  0.1795 -0.6002 -0.6367
   56CHOL   C11 7791   1.987   3.096   6.854  0.7459  0.1193  0.2283
   56CHOL  H111 7792   1.897   3.146   6.891 -0.1913 -0.0466 -1.7540
   56CHOL  H112 7793   1.967   2.991   6.879  1.5465  0.2285  1.3278
   56CHOL   C12 7794   2.013   3.114   6.708  0.1276  0.4390 -0.4327
   56CHOL  H121 7795   1.920   3.108   6.653 -0.1357 -1.1502  0.1401
   56CHOL  H122 7796   2.057   3.020   6.673  0.5284 -0.4793  2.3498
   56CHOL   C13 7797   2.100   3.237   6.670  0.6076  0.1906  0.0905
   56CHOL   C14 7798   2.237   3.206   6.742  0.4036  0.6070 -0.7127
   56CHOL  H141 7799   2.270   3.105   6.719  0.9490  0.4459  0.7196
   56CHOL   C15 7800   2.342   3.302   6.666  0.0237  0.1761 -0.1376
   56CHOL  H151 7801   2.336   3.405   6.701  3.6573  0.0539  1.0469
   56CHOL  H152 7802   2.446   3.271   6.678  0.2794  0.4198 -1.6637
   56CHOL   C16 7803   2.287   3.315   6.515  0.2182  0.2160 -0.0166
   56CHOL  H161 7804   2.356   3.271   6.442  1.4449  0.5091  0.9437
   56CHOL  H162 7805   2.296   3.419   6.484 -0.3912  0.7784  1.6310
   56CHOL   C17 7806   2.139   3.262   6.518 -0.2125 -0.4596  0.6314
   56CHOL  H171 7807   2.149   3.163   6.474 -0.5267 -0.2904  0.1820
   56CHOL   C18 7808   2.042   3.371   6.729  0.2011 -0.3618 -0.2636
   56CHOL  H181 7809   2.109   3.456   6.716 -1.1332  0.7639  0.1653
   56CHOL  H182 7810   1.953   3.398   6.672  1.0791  0.1728 -1.3894
   56CHOL  H182 7811   1.996   3.357   6.827 -2.7749 -1.0785 -1.6981
   56CHOL   C19 7812   1.995   3.314   7.096  0.2355 -0.2376 -0.0381
   56CHOL  H191 7813   1.897   3.306   7.049  0.6064  2.0667 -1.2919
   56CHOL  H192 7814   1.957   3.343   7.194  2.2203 -1.9580  1.2927
   56CHOL  H192 7815   2.037   3.410   7.065  1.4465 -0.5694  0.5551
   56CHOL   C20 7816   2.024   3.328   6.434  0.3189 -0.4792  0.2349
   56CHOL  H201 7817   2.061   3.304   6.334  0.5778 -3.4748  0.9864
   56CHOL   C21 7818   2.013   3.481   6.434 -0.2773 -0.3935 -0.4025
   56CHOL  H211 7819   2.114   3.520   6.426 -0.3587  0.0646  0.7051
   56CHOL  H212 7820   1.955   3.521   6.350  1.0447  3.7687  0.5266
   56CHOL  H212 7821   1.974   3.521   6.528  0.2398 -0.3038 -0.2278
   56CHOL   C22 7822   1.890   3.258   6.449 -0.2178  0.4431 -0.3289
   56CHOL  H221 7823   1.841   3.249   6.546  1.4015  0.5674  0.5248
   56CHOL  H222 7824   1.933   3.163   6.416 -0.2155  0.2155  0.3168
   56CHOL   C23 7825   1.776   3.284   6.347  0.2152  0.2653  0.4253
   56CHOL  H231 7826   1.814   3.269   6.246  1.8223  2.4404  0.6770
   56CHOL  H232 7827   1.744   3.388   6.355 -0.0910  0.4948 -2.9760
   56CHOL   C24 7828   1.656   3.188   6.371 -0.3330 -0.1048  0.1925
   56CHOL  H241 7829   1.627   3.210   6.474 -1.7436 -1.6884  0.1457
   56CHOL  H242 7830   1.698   3.090   6.352 -0.1003 -0.2081  1.2036
   56CHOL   C25 7831   1.534   3.204   6.283  0.3559  0.5253 -0.0214
   56CHOL  H251 7832   1.494   3.305   6.290 -0.0665  0.2905  0.9602
   56CHOL   C26 7833   1.423   3.115   6.338  0.3081 -0.4357 -0.1933
   56CHOL  H261 7834   1.342   3.130   6.267  0.5189  0.9114 -0.1599
   56CHOL  H262 7835   1.448   3.015   6.373 -1.9393 -1.2263 -0.7307
   56CHOL  H262 7836   1.381   3.161   6.427 -0.3069 -0.6431 -0.3727
   56CHOL   C27 7837   1.576   3.170   6.135  1.2812  0.4529  0.0996
   56CHOL  H271 7838   1.637   3.080   6.132 -0.3617 -0.6897  0.3544
   56CHOL  H272 7839   1.483   3.158   6.078  0.5783 -0.9070  1.4929
   56CHOL  H272 7840   1.625   3.261   6.101 -2.0586  1.9824 -0.8384
   57CHOL    C1 7841   3.784   1.147   7.058  0.0600  0.0478 -0.3148
   57CHOL   H11 7842   3.731   1.242   7.049  0.5857  0.6248  2.2841
   57CHOL   H12 7843   3.886   1.147   7.021  0.7819 -2.4027  1.5447
   57CHOL    C2 7844   3.795   1.126   7.206 -0.9806 -0.4571 -0.2741
   57CHOL   H21 7845   3.864   1.204   7.238 -1.2767 -0.9552  1.6402
   57CHOL   H22 7846   3.851   1.037   7.236  1.9518  0.8454 -1.6733
   57CHOL    C3 7847   3.654   1.133   7.272  0.2137 -0.6583 -0.4990
   57CHOL   H31 7848   3.609   1.232   7.259 -1.0571 -0.8073  2.4527
   57CHOL    O3 7849   3.672   1.120   7.411 -0.0266 -0.0883  0.2356
   57CHOL    H3 7850   3.695   1.034   7.442  1.0152  0.1122  0.0282
   57CHOL    C4 7851   3.568   1.015   7.215  0.3262 -0.4084 -0.3108
   57CHOL   H41 7852   3.476   1.009   7.273  0.0124  0.1195 -0.7598
   57CHOL   H42 7853   3.609   0.920   7.250  1.0923  0.3747  0.9821
   57CHOL    C5 7854   3.568   1.030   7.062  0.0197  0.3416  0.7117
   57CHOL    C6 7855   3.444   1.028   7.003 -0.0649  0.3802  0.4738
   57CHOL   H61 7856   3.355   1.012   7.062 -0.0203 -1.2771  0.1169
   57CHOL    C7 7857   3.434   1.024   6.849 -0.0065 -0.6108  0.6755
   57CHOL   H71 7858   3.403   1.124   6.818 -0.5507 -1.0386 -0.1449
   57CHOL   H72 7859   3.350   0.961   6.823 -0.0134  0.1660 -1.2378
   57CHOL    C8 7860   3.557   0.979   6.780  0.8191  0.8780 -0.2333
   57CHOL   H81 7861   3.583   0.876   6.803 -1.2273  0.2385 -0.6372
   57CHOL    C9 7862   3.676   1.065   6.834 -0.3132 -0.1433  0.5353
   57CHOL   H91 7863   3.637   1.167   6.836  2.9590  1.1859 -0.5803
   57CHOL   C10 7864   3.701   1.033   6.987 -0.2255  0.0815 -0.0550
   57CHOL   C11 7865   3.809   1.074   6.750  0.0302 -1.0532 -0.0190
   57CHOL  H111 7866   3.870   0.984   6.761 -2.0410 -2.2627  2.0864
   57CHOL  H112 7867   3.874   1.158   6.775 -1.1678 -0.0654 -0.2170
   57CHOL   C12 7868   3.784   1.070   6.597  0.4597  0.8264 -0.2776
   57CHOL  H121 7869   3.881   1.061   6.548  0.9505 -0.3468  0.8764
   57CHOL  H122 7870   3.736   1.163   6.565 -1.3659  0.1644  0.5004
   57CHOL   C13 7871   3.691   0.951   6.567  0.7207  0.2694  1.1405
   57CHOL   C14 7872   3.549   0.986   6.633  0.0305 -0.0722  0.2324
   57CHOL  H141 7873   3.531   1.092   6.615 -1.9182 -0.4755 -0.2200
   57CHOL   C15 7874   3.437   0.905   6.540 -0.0040 -0.0516  0.1240
   57CHOL  H151 7875   3.335   0.942   6.529  0.0769 -0.2371 -1.4693
   57CHOL  H152 7876   3.424   0.810   6.591 -0.6726  1.4800  2.8879
   57CHOL   C16 7877   3.504   0.883   6.398  0.2162 -0.7057  0.9750
   57CHOL  H161 7878   3.445   0.938   6.325 -0.3892 -0.6291  1.5212
   57CHOL  H162 7879   3.482   0.779   6.376  2.0221 -1.0761  0.7973
   57CHOL   C17 7880   3.661   0.926   6.414  0.5309  0.2053  0.9793
   57CHOL  H171 7881   3.630   1.024   6.377  2.0037  0.0182 -0.7696
   57CHOL   C18 7882   3.737   0.809   6.615 -0.1793 -0.2405  0.1230
   57CHOL  H181 7883   3.763   0.798   6.720 -1.4466  0.2547  0.4886
   57CHOL  H182 7884   3.643   0.754   6.606  0.2850 -0.9624 -0.3624
   57CHOL  H182 7885   3.821   0.760   6.564  1.1417  1.4565  0.6489
   57CHOL   C19 7886   3.792   0.892   7.000 -0.2529  0.0383 -0.1436
   57CHOL  H191 7887   3.812   0.880   7.106 -3.1447 -0.7498  0.3722
   57CHOL  H192 7888   3.719   0.817   6.969 -0.1560 -0.6759  1.3478
   57CHOL  H192 7889   3.888   0.864   6.958  1.3512  2.7713  1.5426
   57CHOL   C20 7890   3.769   0.882   6.311  0.6096  0.6638 -0.1727
   57CHOL  H201 7891   3.746   0.933   6.217 -2.2996 -1.1520 -0.5049
   57CHOL   C21 7892   3.764   0.734   6.274 -0.0210  0.1540 -0.8687
   57CHOL  H211 7893   3.781   0.678   6.366  0.9961 -1.0382 -1.7769
   57CHOL  H212 7894   3.666   0.710   6.233 -0.1570  0.1912 -0.5736
   57CHOL  H212 7895   3.844   0.712   6.204  0.2276  2.1022 -1.2231
   57CHOL   C22 7896   3.922   0.923   6.338  0.3832 -0.6874  0.4253
   57CHOL  H221 7897   3.963   0.894   6.435 -0.1283 -0.0560  0.8345
   57CHOL  H222 7898   3.891   1.026   6.356  1.6939 -0.2391  0.1656
   57CHOL   C23 7899   4.035   0.933   6.242 -0.6395  0.8680  0.4263
   57CHOL  H231 7900   4.022   0.994   6.152  0.5460  1.1629  0.4504
   57CHOL  H232 7901   4.067   0.832   6.219  3.0359  2.4487 -1.9215
   57CHOL   C24 7902   4.155   1.000   6.308 -0.1300 -0.0290 -0.6078
   57CHOL  H241 7903   4.183   0.950   6.401  1.9459  2.1841  0.0328
   57CHOL  H242 7904   4.114   1.093   6.348  0.8063  0.0552  0.1908
   57CHOL   C25 7905   4.276   1.016   6.220 -0.0277  0.3483 -0.6511
   57CHOL  H251 7906   4.293   0.916   6.179  0.4142  0.8625 -1.7261
   57CHOL   C26 7907   4.407   1.033   6.305  0.3506 -0.3547 -0.0697
   57CHOL  H261 7908   4.449   0.943   6.350  2.9412 -0.8133 -3.1816
   57CHOL  H262 7909   4.483   1.075   6.238  0.0081  0.0237 -0.2237
   57CHOL  H262 7910   4.395   1.103   6.387 -0.3252 -0.9276  0.3235
   57CHOL   C27 7911   4.258   1.126   6.111  0.6131  0.0986  0.1568
   57CHOL  H271 7912   4.180   1.101   6.039 -0.8946  0.2173  1.7124
   57CHOL  H272 7913   4.233   1.216   6.168 -0.0516  0.7173 -1.0866
   57CHOL  H272 7914   4.350   1.146   6.056  0.9738 -1.7270  0.0745
   58CHOL    C1 7915   1.785   3.594   7.163  0.6321 -0.5456  0.3680
   58CHOL   H11 7916   1.878   3.557   7.121  0.2956 -2.8899  1.5641
   58CHOL   H12 7917   1.731   3.500   7.176  1.3370 -1.1572 -1.0401
   58CHOL    C2 7918   1.815   3.635   7.305 -0.4029 -0.2136 -0.7588
   58CHOL   H21 7919   1.873   3.559   7.358 -2.6469 -1.5632 -0.1726
   58CHOL   H22 7920   1.728   3.667   7.363 -0.1748 -1.0651  0.0814
   58CHOL    C3 7921   1.909   3.758   7.299  0.0244  1.1382 -0.7934
   58CHOL   H31 7922   2.012   3.727   7.279  0.7488  3.2321 -0.4013
   58CHOL    O3 7923   1.914   3.798   7.437 -0.2450  0.5327 -0.0379
   58CHOL    H3 7924   1.943   3.723   7.488  0.4454  0.1974 -0.9146
   58CHOL    C4 7925   1.866   3.876   7.204 -0.3804  0.0386  0.5844
   58CHOL   H41 7926   1.950   3.941   7.178  0.5973 -1.1835  0.6393
   58CHOL   H42 7927   1.796   3.942   7.256  0.8433  1.8553 -0.0333
   58CHOL    C5 7928   1.815   3.816   7.068  0.0967 -0.5418 -0.4360
   58CHOL    C6 7929   1.859   3.868   6.952  0.5630  0.0872 -0.1950
   58CHOL   H61 7930   1.937   3.943   6.954 -0.7351  1.4377  2.1401
   58CHOL    C7 7931   1.816   3.824   6.812 -0.1263 -0.4163  0.2572
   58CHOL   H71 7932   1.902   3.764   6.780  1.7168  1.5179  1.3978
   58CHOL   H72 7933   1.806   3.906   6.740 -0.9283 -2.0498 -1.5521
   58CHOL    C8 7934   1.693   3.736   6.815  0.1445  0.5813  0.2500
   58CHOL   H81 7935   1.619   3.808   6.848  0.0538 -0.7319  3.0218
   58CHOL    C9 7936   1.712   3.637   6.927 -0.8655 -0.2894 -0.2152
   58CHOL   H91 7937   1.811   3.591   6.924 -1.0341 -0.6430 -0.5236
   58CHOL   C10 7938   1.715   3.701   7.071 -0.1368 -0.1187  0.4578
   58CHOL   C11 7939   1.622   3.515   6.926  0.0499  0.7061  0.2064
   58CHOL  H111 7940   1.543   3.529   6.999 -1.4420 -0.3074 -1.1703
   58CHOL  H112 7941   1.672   3.430   6.973 -2.5161 -0.0157  1.6935
   58CHOL   C12 7942   1.551   3.466   6.797  0.2064  0.8712  0.0282
   58CHOL  H121 7943   1.468   3.408   6.837  1.0897  0.1955  0.9058
   58CHOL  H122 7944   1.621   3.406   6.738 -1.5215  0.2745 -1.4678
   58CHOL   C13 7945   1.512   3.599   6.711 -0.2214  0.1690  0.0915
   58CHOL   C14 7946   1.648   3.676   6.684 -0.1659 -0.5167 -0.3844
   58CHOL  H141 7947   1.723   3.600   6.663 -2.3177 -2.3117 -1.8213
   58CHOL   C15 7948   1.627   3.765   6.550 -0.4742  0.1986  0.0521
   58CHOL  H151 7949   1.595   3.867   6.569 -1.2548  0.5105 -2.7849
   58CHOL  H152 7950   1.712   3.780   6.483  0.6923  1.3851  1.7468
   58CHOL   C16 7951   1.514   3.692   6.466 -0.2423  0.3704 -0.2190
   58CHOL  H161 7952   1.542   3.669   6.363 -1.1670  1.6668 -0.7768
   58CHOL  H162 7953   1.428   3.757   6.447 -0.9174 -0.2701  0.5810
   58CHOL   C17 7954   1.451   3.575   6.559 -0.4100 -0.2277  0.3995
   58CHOL  H171 7955   1.524   3.527   6.494  0.7822  0.8309  0.9260
   58CHOL   C18 7956   1.410   3.692   6.796  0.2893 -0.4408  0.3243
   58CHOL  H181 7957   1.310   3.650   6.799  0.0002  0.0315 -1.8613
   58CHOL  H182 7958   1.440   3.703   6.900 -1.3278 -0.1536  0.7618
   58CHOL  H182 7959   1.396   3.792   6.754  0.0386  0.5281  2.6203
   58CHOL   C19 7960   1.567   3.737   7.128  0.0684  0.1819 -0.8487
   58CHOL  H191 7961   1.488   3.671   7.162 -1.3569  1.9497 -0.6525
   58CHOL  H192 7962   1.589   3.793   7.219 -0.1684  0.8417 -1.1908
   58CHOL  H192 7963   1.505   3.808   7.072 -1.4598 -0.3691  0.1287
   58CHOL   C20 7964   1.315   3.504   6.546  0.0009 -0.0435  0.5120
   58CHOL  H201 7965   1.330   3.431   6.466 -1.1062 -1.4726  1.5878
   58CHOL   C21 7966   1.198   3.597   6.502  0.5383 -0.6638 -0.0016
   58CHOL  H211 7967   1.218   3.636   6.402 -2.0130  0.3717 -0.1586
   58CHOL  H212 7968   1.109   3.535   6.513  0.3504 -0.1034  1.6831
   58CHOL  H212 7969   1.202   3.675   6.578  2.6467 -1.2807  0.5352
   58CHOL   C22 7970   1.273   3.423   6.677 -0.4081 -0.2252  0.0253
   58CHOL  H221 7971   1.254   3.451   6.780  0.7381  2.7089 -0.5179
   58CHOL  H222 7972   1.368   3.371   6.667 -0.9983 -1.1961 -0.5951
   58CHOL   C23 7973   1.166   3.317   6.644 -0.0920 -0.1439  0.2735
   58CHOL  H231 7974   1.195   3.264   6.554 -1.2580 -2.3370  1.1568
   58CHOL  H232 7975   1.064   3.354   6.640  0.1476  0.2818 -3.3310
   58CHOL   C24 7976   1.181   3.194   6.743 -0.0584  1.0525  0.2564
   58CHOL  H241 7977   1.157   3.237   6.840 -2.0088  0.8541 -0.1272
   58CHOL  H242 7978   1.287   3.170   6.751 -0.9040 -2.6530  1.3766
   58CHOL   C25 7979   1.094   3.074   6.706  0.3416 -0.0211 -0.5395
   58CHOL  H251 7980   0.992   3.103   6.682 -0.2111 -2.0206 -0.6946
   58CHOL   C26 7981   1.073   2.992   6.832 -0.1746 -0.1713 -0.0609
   58CHOL  H261 7982   1.039   3.055   6.915  0.1525  0.3925 -0.3489
   58CHOL  H262 7983   0.999   2.914   6.820  2.2457 -2.1685 -2.6873
   58CHOL  H262 7984   1.160   2.936   6.868 -1.6646 -1.2141  2.0184
   58CHOL   C27 7985   1.149   2.985   6.592  0.0726 -0.8318  0.8410
   58CHOL  H271 7986   1.255   2.962   6.609 -0.1116 -1.1654  1.5294
   58CHOL  H272 7987   1.094   2.891   6.592 -2.5675  0.6519 -0.7967
   58CHOL  H272 7988   1.132   3.030   6.494  0.0517 -1.8190  0.3848
   59CHOL    C1 7989   1.772   4.891   7.013 -0.6128 -0.3285  0.2090
   59CHOL   H11 7990   1.742   4.995   7.028 -2.3697 -0.5876 -1.3574
   59CHOL   H12 7991   1.872   4.904   6.973 -0.7939 -0.1050 -0.1816
   59CHOL    C2 7992   1.797   4.824   7.153 -0.9530  0.1971  0.2556
   59CHOL   H21 7993   1.875   4.879   7.205 -1.6438  0.9705  0.4811
   59CHOL   H22 7994   1.842   4.727   7.132  0.9095  1.3096 -1.1315
   59CHOL    C3 7995   1.663   4.825   7.230  0.0227  0.4210 -0.0725
   59CHOL   H31 7996   1.634   4.925   7.260 -0.0269 -0.4852  3.0618
   59CHOL    O3 7997   1.674   4.750   7.355  0.1064  0.7752 -0.4847
   59CHOL    H3 7998   1.687   4.663   7.321  1.8381  0.7267  0.2254
   59CHOL    C4 7999   1.547   4.759   7.149  0.1551 -0.0452 -0.2588
   59CHOL   H41 8000   1.456   4.768   7.207  2.2541  2.4269  2.8015
   59CHOL   H42 8001   1.567   4.653   7.131  3.0092  0.6296 -1.3988
   59CHOL    C5 8002   1.532   4.828   7.013  0.2043 -0.2037 -0.0464
   59CHOL    C6 8003   1.416   4.890   6.981  0.7026  0.3590 -0.2004
   59CHOL   H61 8004   1.335   4.882   7.052  1.6099 -2.4426  0.5784
   59CHOL    C7 8005   1.379   4.960   6.854 -0.0256  0.1832  0.1519
   59CHOL   H71 8006   1.358   5.067   6.861  1.7182  0.5828 -0.3493
   59CHOL   H72 8007   1.292   4.911   6.810  0.5309  2.7879 -4.1694
   59CHOL    C8 8008   1.491   4.938   6.753 -0.5639 -0.2614  0.4067
   59CHOL   H81 8009   1.473   4.834   6.723 -0.8042 -0.1333  0.1043
   59CHOL    C9 8010   1.631   4.955   6.814  0.6123  0.0394 -0.0554
   59CHOL   H91 8011   1.628   5.056   6.853 -0.8991 -0.2112  0.5041
   59CHOL   C10 8012   1.653   4.838   6.921 -0.8736 -0.8501  0.2911
   59CHOL   C11 8013   1.760   4.961   6.723  0.2118  0.0710  0.2946
   59CHOL  H111 8014   1.802   4.862   6.705  0.3943  0.0988  0.5515
   59CHOL  H112 8015   1.843   5.010   6.773  1.0924 -2.0363  0.9963
   59CHOL   C12 8016   1.733   5.025   6.588 -0.1767  0.4609  0.4036
   59CHOL  H121 8017   1.817   5.020   6.519 -0.1365 -1.0580  0.5456
   59CHOL  H122 8018   1.731   5.133   6.601 -1.6410  0.3025  1.6984
   59CHOL   C13 8019   1.598   4.985   6.526  0.3485  0.5062  0.0469
   59CHOL   C14 8020   1.480   5.020   6.626 -0.0277  0.3053  0.4663
   59CHOL  H141 8021   1.504   5.121   6.659 -1.8058  1.5097 -1.7568
   59CHOL   C15 8022   1.348   5.038   6.538  0.2837 -0.3325 -0.0550
   59CHOL  H151 8023   1.288   5.121   6.577  0.9851 -1.0380  2.6657
   59CHOL  H152 8024   1.280   4.954   6.541  1.1467 -1.1006 -1.4824
   59CHOL   C16 8025   1.396   5.058   6.386 -1.0183 -0.6677  0.0762
   59CHOL  H161 8026   1.351   5.148   6.343  0.3753  0.4507  0.9060
   59CHOL  H162 8027   1.356   4.974   6.331 -1.9367 -2.3066  3.0988
   59CHOL   C17 8028   1.559   5.057   6.390 -0.7063  0.1284  0.0410
   59CHOL  H171 8029   1.527   5.159   6.415  0.2803  0.1441  1.3234
   59CHOL   C18 8030   1.597   4.830   6.508 -0.1559  0.6523  0.1844
   59CHOL  H181 8031   1.612   4.766   6.595  0.7519 -0.4430 -0.7657
   59CHOL  H182 8032   1.496   4.808   6.473 -2.3069  1.5433  5.2617
   59CHOL  H182 8033   1.676   4.795   6.442  0.4407 -0.7536  1.6002
   59CHOL   C19 8034   1.676   4.689   6.859 -0.5393 -0.2314  0.0658
   59CHOL  H191 8035   1.707   4.602   6.917  1.0359  0.5043  0.3440
   59CHOL  H192 8036   1.605   4.638   6.794 -0.2499  0.5573 -0.8727
   59CHOL  H192 8037   1.761   4.657   6.799 -1.2253  0.3570 -1.2314
   59CHOL   C20 8038   1.674   5.075   6.284 -0.4125 -0.5473  0.0063
   59CHOL  H201 8039   1.760   5.133   6.318 -0.1021  0.6920 -2.8034
   59CHOL   C21 8040   1.629   5.145   6.157 -0.3924 -0.3753 -0.1941
   59CHOL  H211 8041   1.584   5.237   6.192  2.9693  0.4993  1.9764
   59CHOL  H212 8042   1.718   5.171   6.100 -0.7890 -0.6721 -0.9733
   59CHOL  H212 8043   1.556   5.085   6.102 -0.4459  1.3898 -2.1105
   59CHOL   C22 8044   1.750   4.944   6.248  0.4592  0.0974  0.7281
   59CHOL  H221 8045   1.671   4.869   6.240  0.3401  0.4224 -1.5312
   59CHOL  H222 8046   1.816   4.922   6.332  0.8289 -2.1163 -0.1170
   59CHOL   C23 8047   1.840   4.891   6.137 -0.3293  0.1596  0.3346
   59CHOL  H231 8048   1.930   4.952   6.131  0.7610 -1.5938 -1.9674
   59CHOL  H232 8049   1.790   4.905   6.042 -2.7805 -1.5661  1.2952
   59CHOL   C24 8050   1.878   4.739   6.159  0.4479 -0.0588  0.2522
   59CHOL  H241 8051   1.788   4.677   6.151  0.0381  0.4314  1.0139
   59CHOL  H242 8052   1.914   4.713   6.259  1.8271 -0.2461 -0.2871
   59CHOL   C25 8053   1.974   4.663   6.061 -0.3920 -0.0294 -0.0387
   59CHOL  H251 8054   2.062   4.722   6.037 -0.8319  0.0671 -1.5275
   59CHOL   C26 8055   1.906   4.653   5.924 -0.2495  0.4510 -0.1826
   59CHOL  H261 8056   1.826   4.579   5.919 -0.0943  0.3772 -2.1396
   59CHOL  H262 8057   1.868   4.753   5.902  0.4916  0.5632 -0.9503
   59CHOL  H262 8058   1.963   4.617   5.839 -0.1436 -0.6470  0.3504
   59CHOL   C27 8059   2.016   4.522   6.110  0.5867 -0.3941  0.4879
   59CHOL  H271 8060   2.095   4.487   6.044  2.1321  2.8094  0.5760
   59CHOL  H272 8061   2.071   4.534   6.203 -0.6080 -1.6556  1.3904
   59CHOL  H272 8062   1.924   4.462   6.111 -0.4148  1.0818 -0.6254
   60CHOL    C1 8063   2.805   4.519   7.103  0.2392 -0.2714  0.3119
   60CHOL   H11 8064   2.911   4.536   7.085  0.2024  0.7098  1.0317
   60CHOL   H12 8065   2.765   4.470   7.014  0.1004 -1.5455  1.0641
   60CHOL    C2 8066   2.801   4.425   7.227 -0.5449 -0.4618  0.0220
   60CHOL   H21 8067   2.878   4.349   7.217 -0.6292 -0.9077  2.4454
   60CHOL   H22 8068   2.706   4.371   7.223 -0.2246 -0.8583 -2.7185
   60CHOL    C3 8069   2.822   4.493   7.364  0.9431 -0.1721 -0.3979
   60CHOL   H31 8070   2.924   4.531   7.368  1.6433 -2.2298  3.5017
   60CHOL    O3 8071   2.808   4.415   7.484 -0.2822  0.2155 -0.2038
   60CHOL    H3 8072   2.807   4.475   7.557 -2.7414  0.2282 -0.2114
   60CHOL    C4 8073   2.718   4.598   7.379 -0.0395 -0.1822  0.0353
   60CHOL   H41 8074   2.732   4.647   7.475  0.1130  1.6733 -0.9235
   60CHOL   H42 8075   2.616   4.562   7.366  0.2670 -1.2738  0.5833
   60CHOL    C5 8076   2.729   4.705   7.270 -0.4697  0.4253 -0.7669
   60CHOL    C6 8077   2.740   4.836   7.306  0.9357 -0.0781  0.2392
   60CHOL   H61 8078   2.731   4.863   7.410 -1.0596 -2.1704  0.6510
   60CHOL    C7 8079   2.757   4.945   7.196 -0.2323 -0.1550  0.4733
   60CHOL   H71 8080   2.860   4.978   7.187  0.2404 -1.5303  0.6902
   60CHOL   H72 8081   2.697   5.035   7.209 -0.0187 -0.1235  1.2634
   60CHOL    C8 8082   2.714   4.904   7.056  0.1902  0.2107 -0.3421
   60CHOL   H81 8083   2.606   4.894   7.058  0.2908 -1.0645 -0.8782
   60CHOL    C9 8084   2.782   4.767   7.026 -0.5084 -0.0825  0.7513
   60CHOL   H91 8085   2.886   4.777   7.057  0.0764 -2.3919 -0.4021
   60CHOL   C10 8086   2.722   4.653   7.121  0.7123 -0.1886  0.6875
   60CHOL   C11 8087   2.788   4.733   6.878  0.6250  0.2778  0.0116
   60CHOL  H111 8088   2.698   4.679   6.850  1.5178 -1.1456 -0.1672
   60CHOL  H112 8089   2.875   4.667   6.870  0.3412 -0.0240 -0.6284
   60CHOL   C12 8090   2.812   4.844   6.775 -0.4904 -0.1187 -0.4285
   60CHOL  H121 8091   2.817   4.791   6.680  0.7865  0.2173 -0.5690
   60CHOL  H122 8092   2.914   4.883   6.780 -0.1958 -0.7557 -1.2899
   60CHOL   C13 8093   2.706   4.958   6.802  0.2396 -0.2875  0.3804
   60CHOL   C14 8094   2.742   5.016   6.950  0.6284 -1.0347 -0.5022
   60CHOL  H141 8095   2.846   5.047   6.949 -0.0992  1.9292  3.3512
   60CHOL   C15 8096   2.678   5.160   6.953  0.5919  0.2801  0.2200
   60CHOL  H151 8097   2.728   5.235   7.014 -0.2750  1.0048  0.0548
   60CHOL  H152 8098   2.581   5.146   7.001  1.7866  0.3280  2.7070
   60CHOL   C16 8099   2.659   5.212   6.804 -0.0813  0.2851 -0.6726
   60CHOL  H161 8100   2.725   5.298   6.790 -0.1001  0.8496  2.4098
   60CHOL  H162 8101   2.555   5.225   6.775  0.4008  1.6025 -1.9171
   60CHOL   C17 8102   2.712   5.089   6.713 -0.0353 -0.5108 -0.0043
   60CHOL  H171 8103   2.805   5.143   6.731 -0.4016 -0.1325  0.7828
   60CHOL   C18 8104   2.558   4.914   6.802  0.0554  0.5843 -0.2150
   60CHOL  H181 8105   2.499   4.879   6.887  0.3468 -0.8195 -0.5909
   60CHOL  H182 8106   2.509   5.008   6.775  2.8895  1.4025 -2.8220
   60CHOL  H182 8107   2.542   4.834   6.730  1.6614 -1.4413  1.6143
   60CHOL   C19 8108   2.569   4.626   7.084 -0.4948  0.1198  0.0901
   60CHOL  H191 8109   2.519   4.633   6.988  1.3267 -0.7920 -0.9478
   60CHOL  H192 8110   2.518   4.532   7.107  1.7173 -1.6521 -2.0246
   60CHOL  H192 8111   2.513   4.702   7.139 -0.9339  0.7689 -1.2293
   60CHOL   C20 8112   2.707   5.055   6.567 -0.0335  0.0360 -0.2963
   60CHOL  H201 8113   2.805   5.019   6.535  0.5900  0.4542  1.0916
   60CHOL   C21 8114   2.679   5.189   6.491  0.4703 -0.1629 -0.5134
   60CHOL  H211 8115   2.730   5.275   6.534 -0.0449  0.3235 -0.8590
   60CHOL  H212 8116   2.713   5.180   6.388  0.9994  1.0929 -0.4538
   60CHOL  H212 8117   2.572   5.209   6.487  0.3844 -0.4737  0.0286
   60CHOL   C22 8118   2.624   4.940   6.519  0.2682  0.5422  0.9741
   60CHOL  H221 8119   2.525   4.956   6.561  0.6645  1.2263  1.6461
   60CHOL  H222 8120   2.667   4.845   6.553  0.3505 -0.7285 -2.4639
   60CHOL   C23 8121   2.603   4.925   6.369 -1.0025  0.0838  0.1589
   60CHOL  H231 8122   2.700   4.895   6.329 -1.2411  0.1251 -0.4420
   60CHOL  H232 8123   2.581   5.017   6.315 -0.0324 -0.4026 -1.0907
   60CHOL   C24 8124   2.490   4.819   6.340 -0.3005 -0.3311  0.3173
   60CHOL  H241 8125   2.405   4.875   6.377  0.8506  3.8102 -2.9030
   60CHOL  H242 8126   2.508   4.728   6.398  1.4327 -1.0778 -1.3382
   60CHOL   C25 8127   2.469   4.777   6.195 -0.5046 -0.7214 -0.3855
   60CHOL  H251 8128   2.403   4.691   6.198  1.7274 -2.5803 -1.8856
   60CHOL   C26 8129   2.593   4.718   6.141 -0.0880 -0.1516 -0.5838
   60CHOL  H261 8130   2.647   4.795   6.088 -0.6942  2.0876  1.9419
   60CHOL  H262 8131   2.650   4.676   6.224  2.3188  2.7108 -0.7098
   60CHOL  H262 8132   2.564   4.640   6.071  1.0185  0.7703 -2.0847
   60CHOL   C27 8133   2.411   4.890   6.113  0.1974  0.1094 -0.2372
   60CHOL  H271 8134   2.316   4.911   6.163  0.9397  1.8184  0.5059
   60CHOL  H272 8135   2.473   4.980   6.110 -1.5489  1.3134 -1.4430
   60CHOL  H272 8136   2.371   4.865   6.015  0.2087  0.6030 -0.3696
   61CHOL    C1 8137   1.860   0.874   7.378  0.3003  0.1257  0.4263
   61CHOL   H11 8138   1.778   0.931   7.424 -1.3874 -1.4048 -0.6244
   61CHOL   H12 8139   1.939   0.948   7.362  0.7915 -0.9370 -2.2124
   61CHOL    C2 8140   1.908   0.776   7.486 -0.9719  0.3160 -0.2642
   61CHOL   H21 8141   1.933   0.836   7.573 -1.5990  0.5569 -0.2492
   61CHOL   H22 8142   1.995   0.724   7.446  0.2386  1.0585  1.3175
   61CHOL    C3 8143   1.797   0.679   7.535 -0.6185  0.0410  0.4592
   61CHOL   H31 8144   1.724   0.738   7.590  0.4682  1.2073  0.6650
   61CHOL    O3 8145   1.864   0.576   7.612  0.0815  0.3181  0.3199
   61CHOL    H3 8146   1.899   0.614   7.691 -2.3278  0.3687  1.4045
   61CHOL    C4 8147   1.711   0.610   7.420  0.0924 -0.0750 -0.2080
   61CHOL   H41 8148   1.623   0.583   7.480  1.5680  0.6640  2.3895
   61CHOL   H42 8149   1.766   0.523   7.385  0.0937 -0.4099  0.5972
   61CHOL    C5 8150   1.699   0.699   7.300 -0.2586 -0.7323 -0.0951
   61CHOL    C6 8151   1.586   0.695   7.228  0.0047  0.9595  0.4722
   61CHOL   H61 8152   1.513   0.624   7.266  0.2690  0.2241 -0.3900
   61CHOL    C7 8153   1.546   0.777   7.107  0.4850  0.0229  0.4953
   61CHOL   H71 8154   1.488   0.862   7.142  0.1360 -0.1387  0.3034
   61CHOL   H72 8155   1.490   0.716   7.036  0.9599 -2.9628  2.5541
   61CHOL    C8 8156   1.674   0.832   7.045 -0.7630  0.0723  0.0556
   61CHOL   H81 8157   1.725   0.746   7.001 -1.1752 -0.5546  0.7692
   61CHOL    C9 8158   1.769   0.905   7.153  0.0360 -0.5965  0.4647
   61CHOL   H91 8159   1.706   0.975   7.207  0.9376 -0.1784  0.9995
   61CHOL   C10 8160   1.813   0.798   7.256 -0.1898 -0.2640  0.7231
   61CHOL   C11 8161   1.894   0.971   7.092 -0.0728 -0.4088 -0.1980
   61CHOL  H111 8162   1.971   0.896   7.073  1.1374  0.7166  0.2068
   61CHOL  H112 8163   1.943   1.035   7.165 -0.2795 -0.9661  0.4365
   61CHOL   C12 8164   1.878   1.055   6.958 -0.3113  0.1321  0.5030
   61CHOL  H121 8165   1.976   1.076   6.914 -1.6280  1.2634 -1.9841
   61CHOL  H122 8166   1.825   1.148   6.973  0.8841  0.9507 -0.2740
   61CHOL   C13 8167   1.797   0.966   6.860  0.2265  0.3356  0.1784
   61CHOL   C14 8168   1.661   0.925   6.930  0.6748  0.6074  0.1739
   61CHOL  H141 8169   1.613   1.018   6.962  0.0544  1.5430 -3.2570
   61CHOL   C15 8170   1.559   0.876   6.813 -0.1456  0.2486 -0.2751
   61CHOL  H151 8171   1.550   0.768   6.806  2.2864  0.0984 -1.3346
   61CHOL  H152 8172   1.455   0.897   6.840 -0.1678  1.2212 -1.1008
   61CHOL   C16 8173   1.607   0.954   6.683  0.4530  0.0667 -0.3274
   61CHOL  H161 8174   1.532   1.024   6.646  1.5293  0.0873 -2.5498
   61CHOL  H162 8175   1.603   0.886   6.599 -0.1776  1.2124 -1.2436
   61CHOL   C17 8176   1.745   1.030   6.715  0.5194 -0.4203  0.0782
   61CHOL  H171 8177   1.691   1.121   6.740 -0.6176 -0.7410 -1.1557
   61CHOL   C18 8178   1.881   0.845   6.817  0.7842  0.0010  0.0802
   61CHOL  H181 8179   1.914   0.784   6.901 -0.1141 -0.0464  0.4115
   61CHOL  H182 8180   1.821   0.791   6.744 -0.0352  3.7032 -2.1133
   61CHOL  H182 8181   1.973   0.864   6.763  0.5793  1.2032  0.1252
   61CHOL   C19 8182   1.939   0.694   7.193  0.0378 -0.9012  0.1151
   61CHOL  H191 8183   2.041   0.709   7.157 -0.4622 -1.4208 -1.6027
   61CHOL  H192 8184   1.966   0.622   7.269  1.0273  1.3104  1.8982
   61CHOL  H192 8185   1.914   0.627   7.110 -0.1737 -0.4707 -0.1778
   61CHOL   C20 8186   1.841   1.073   6.607 -0.3639  0.2975  0.1580
   61CHOL  H201 8187   1.791   1.155   6.555  2.1805  0.6060 -1.8832
   61CHOL   C21 8188   1.863   0.971   6.498  0.0931  0.7287 -1.0844
   61CHOL  H211 8189   1.770   0.949   6.445 -0.3242  0.6497 -0.3250
   61CHOL  H212 8190   1.932   1.010   6.423  0.2539  0.4827 -1.0619
   61CHOL  H212 8191   1.921   0.889   6.538 -2.8750 -2.3439 -2.8537
   61CHOL   C22 8192   1.976   1.125   6.662  0.8223  0.4977 -0.4469
   61CHOL  H221 8193   2.054   1.061   6.703  1.4106  0.5461 -1.4645
   61CHOL  H222 8194   1.934   1.189   6.740  0.4054  1.0196 -1.0908
   61CHOL   C23 8195   2.037   1.233   6.578 -0.0842 -0.6215  0.1469
   61CHOL  H231 8196   1.959   1.310   6.577  0.8718  0.3454 -1.8661
   61CHOL  H232 8197   2.046   1.210   6.472  1.3292  0.0716  0.1049
   61CHOL   C24 8198   2.169   1.282   6.628 -0.4145  0.9617 -0.3050
   61CHOL  H241 8199   2.251   1.215   6.603 -2.4464 -1.1814 -1.3944
   61CHOL  H242 8200   2.164   1.293   6.737  1.4690  0.9839 -0.1906
   61CHOL   C25 8201   2.200   1.428   6.589  0.1597 -0.0268  0.2436
   61CHOL  H251 8202   2.108   1.484   6.574 -0.0838 -0.5498 -0.2312
   61CHOL   C26 8203   2.276   1.446   6.458 -1.2198  0.2953  0.3561
   61CHOL  H261 8204   2.363   1.380   6.455 -0.4353  1.2260  1.9889
   61CHOL  H262 8205   2.216   1.424   6.370 -0.6799 -1.1911  0.3493
   61CHOL  H262 8206   2.308   1.550   6.458 -2.1991  0.6105 -0.4056
   61CHOL   C27 8207   2.281   1.489   6.697  0.3819  0.0112  0.2336
   61CHOL  H271 8208   2.372   1.430   6.711 -0.3056 -1.5746 -1.7430
   61CHOL  H272 8209   2.323   1.585   6.669  1.8226 -1.4214 -2.6395
   61CHOL  H272 8210   2.230   1.502   6.793  0.3278  0.6445  0.1257
   62CHOL    C1 8211   3.797   2.980   6.944  0.0185 -0.5004 -0.0009
   62CHOL   H11 8212   3.818   3.064   7.011  1.1601  0.5660 -1.6610
   62CHOL   H12 8213   3.858   2.995   6.856 -0.1402  0.2213  0.0073
   62CHOL    C2 8214   3.835   2.845   7.011 -0.0594  0.1430 -0.3131
   62CHOL   H21 8215   3.942   2.848   7.028  0.2637 -0.1102 -2.1767
   62CHOL   H22 8216   3.807   2.766   6.941 -0.0464 -1.3446  1.3370
   62CHOL    C3 8217   3.756   2.830   7.147  0.1128  0.0512  0.5669
   62CHOL   H31 8218   3.778   2.916   7.210 -0.0844  2.2274 -2.2336
   62CHOL    O3 8219   3.790   2.711   7.216  0.1700 -0.4907  0.6165
   62CHOL    H3 8220   3.884   2.715   7.225  0.1915  1.1178 -0.1994
   62CHOL    C4 8221   3.600   2.837   7.119 -0.2861  0.5812  0.7269
   62CHOL   H41 8222   3.549   2.846   7.215  1.1721 -0.3808  1.6081
   62CHOL   H42 8223   3.553   2.746   7.083 -0.7585  0.8801  0.5851
   62CHOL    C5 8224   3.568   2.961   7.043  0.4053  0.5818  0.4612
   62CHOL    C6 8225   3.476   3.044   7.091  1.2141  0.1271 -0.4901
   62CHOL   H61 8226   3.418   3.013   7.176  1.4187  1.9842  0.3523
   62CHOL    C7 8227   3.436   3.174   7.021  0.3076 -0.3422 -0.4090
   62CHOL   H71 8228   3.477   3.256   7.080 -0.6375 -0.2613  0.1487
   62CHOL   H72 8229   3.329   3.195   7.029  0.2285 -0.5469 -0.9076
   62CHOL    C8 8230   3.473   3.176   6.872  0.2114 -0.2007 -0.1678
   62CHOL   H81 8231   3.407   3.096   6.840  0.7647 -1.0771  0.8481
   62CHOL    C9 8232   3.627   3.137   6.858  0.7134  0.5382 -0.2852
   62CHOL   H91 8233   3.673   3.206   6.929 -1.0194  0.5315  0.8710
   62CHOL   C10 8234   3.647   2.993   6.914 -0.5244 -1.3328  0.2610
   62CHOL   C11 8235   3.681   3.159   6.716 -1.5048 -0.3407  0.0569
   62CHOL  H111 8236   3.643   3.083   6.648 -1.5311 -2.5033  2.4035
   62CHOL  H112 8237   3.789   3.156   6.713 -1.4448  1.1245  0.0741
   62CHOL   C12 8238   3.647   3.296   6.642 -0.0594 -0.2105  0.3417
   62CHOL  H121 8239   3.690   3.282   6.543  1.0970  3.8753  0.1751
   62CHOL  H122 8240   3.712   3.378   6.673  0.4265 -1.1404  1.7769
   62CHOL   C13 8241   3.495   3.311   6.645 -0.3136 -0.6279  0.0663
   62CHOL   C14 8242   3.453   3.317   6.801  0.4963 -0.0806  0.3766
   62CHOL  H141 8243   3.529   3.380   6.845  1.9337  1.3089 -3.8181
   62CHOL   C15 8244   3.316   3.401   6.804 -0.8938  0.4009 -0.3817
   62CHOL  H151 8245   3.306   3.454   6.899 -1.5477 -0.7754  0.2147
   62CHOL  H152 8246   3.222   3.348   6.793 -0.8654  0.2739 -0.0087
   62CHOL   C16 8247   3.314   3.493   6.674 -0.3976  0.4334  0.5960
   62CHOL  H161 8248   3.303   3.598   6.699  0.9423  0.3095  1.7862
   62CHOL  H162 8249   3.222   3.468   6.621 -0.4020 -0.7601  1.1281
   62CHOL   C17 8250   3.437   3.443   6.574  0.2560  0.6686 -0.2271
   62CHOL  H171 8251   3.511   3.510   6.617  2.4558 -1.0285 -1.2558
   62CHOL   C18 8252   3.425   3.189   6.580  0.4175  0.3060  0.2309
   62CHOL  H181 8253   3.319   3.208   6.592  0.3031 -0.5279  0.5534
   62CHOL  H182 8254   3.459   3.176   6.477  0.8390  1.3174  0.2416
   62CHOL  H182 8255   3.442   3.094   6.631  2.4513  1.3787  1.5884
   62CHOL   C19 8256   3.597   2.885   6.807  0.2555 -0.0760 -0.7211
   62CHOL  H191 8257   3.594   2.778   6.827 -5.2689  0.0707  0.0901
   62CHOL  H192 8258   3.495   2.899   6.770  1.2592  0.8033 -3.3140
   62CHOL  H192 8259   3.654   2.884   6.714 -0.3951 -1.5230 -1.1100
   62CHOL   C20 8260   3.439   3.455   6.418 -0.1077  0.0923  0.5784
   62CHOL  H201 8261   3.423   3.563   6.413 -0.7702 -0.0813 -1.5391
   62CHOL   C21 8262   3.311   3.390   6.357  0.2291 -0.3764  0.4539
   62CHOL  H211 8263   3.301   3.428   6.255 -0.0999 -0.9828  0.2557
   62CHOL  H212 8264   3.333   3.284   6.344 -1.3485 -0.6282 -0.2954
   62CHOL  H212 8265   3.223   3.401   6.420 -0.5308  3.6197 -1.1535
   62CHOL   C22 8266   3.572   3.412   6.354 -0.0910 -0.1221  0.5672
   62CHOL  H221 8267   3.596   3.306   6.348 -0.2517 -0.1531  0.4801
   62CHOL  H222 8268   3.644   3.453   6.426 -0.4324 -0.6687  1.2212
   62CHOL   C23 8269   3.609   3.467   6.219  0.1726  0.6656  0.0977
   62CHOL  H231 8270   3.570   3.568   6.208 -0.7578  0.5133  1.8386
   62CHOL  H232 8271   3.559   3.397   6.151 -2.5402  1.9816  0.7187
   62CHOL   C24 8272   3.761   3.445   6.189  0.6071 -0.0287 -1.0339
   62CHOL  H241 8273   3.800   3.361   6.245  0.1502  0.3294 -0.1641
   62CHOL  H242 8274   3.829   3.520   6.230 -1.5824  1.2910  0.2952
   62CHOL   C25 8275   3.800   3.437   6.039  0.2161  0.0433 -0.3238
   62CHOL  H251 8276   3.732   3.366   5.991 -2.5764  1.8868  0.7581
   62CHOL   C26 8277   3.936   3.381   6.015 -0.5017 -0.7032 -0.0122
   62CHOL  H261 8278   3.961   3.375   5.909  1.9796 -0.2145  0.5009
   62CHOL  H262 8279   4.008   3.459   6.042 -0.9610 -0.6997  1.2406
   62CHOL  H262 8280   3.959   3.286   6.063 -1.6123 -0.9501  0.0475
   62CHOL   C27 8281   3.774   3.571   5.980  0.1024 -0.1360 -0.4488
   62CHOL  H271 8282   3.677   3.616   6.001  0.6101  0.9767 -0.4708
   62CHOL  H272 8283   3.852   3.641   6.008  0.0393  0.5676 -1.9588
   62CHOL  H272 8284   3.779   3.564   5.871  3.6815 -0.5265 -0.3198
   63CHOL    C1 8285   2.300   4.158   7.090 -0.1229  0.5173 -0.1865
   63CHOL   H11 8286   2.381   4.186   7.023 -0.5183 -0.7205 -1.2101
   63CHOL   H12 8287   2.266   4.065   7.045  1.3346  0.0965 -0.4250
   63CHOL    C2 8288   2.347   4.137   7.239 -0.7500 -1.1148 -0.7091
   63CHOL   H21 8289   2.439   4.079   7.234 -1.1426 -1.5733 -3.9529
   63CHOL   H22 8290   2.277   4.082   7.302  0.2225 -0.4369  0.9909
   63CHOL    C3 8291   2.390   4.277   7.300  0.1246 -0.0105 -0.0579
   63CHOL   H31 8292   2.467   4.331   7.245 -0.8829  3.2123  1.5496
   63CHOL    O3 8293   2.425   4.253   7.436  0.1766  0.4142 -0.2485
   63CHOL    H3 8294   2.504   4.203   7.429 -0.5247 -1.1859  2.4338
   63CHOL    C4 8295   2.271   4.370   7.298 -0.1860  0.6184  0.7545
   63CHOL   H41 8296   2.282   4.459   7.360 -1.5138  0.7859  0.7663
   63CHOL   H42 8297   2.179   4.329   7.340  0.0908 -0.5172  0.2543
   63CHOL    C5 8298   2.243   4.392   7.151 -0.4591  0.2276  0.1254
   63CHOL    C6 8299   2.254   4.519   7.101 -0.7759 -0.3199 -0.0571
   63CHOL   H61 8300   2.291   4.600   7.161  1.3209 -0.4429 -1.1580
   63CHOL    C7 8301   2.234   4.555   6.957 -0.5615 -0.5393  0.5186
   63CHOL   H71 8302   2.330   4.555   6.905 -0.6578 -0.8794  0.3408
   63CHOL   H72 8303   2.195   4.657   6.954 -1.0250 -0.7101  0.7275
   63CHOL    C8 8304   2.148   4.456   6.888 -0.0912  0.0937 -0.4226
   63CHOL   H81 8305   2.047   4.455   6.930 -0.6099  2.0433 -1.5846
   63CHOL    C9 8306   2.217   4.317   6.912 -0.3361  0.0303 -0.3556
   63CHOL   H91 8307   2.322   4.339   6.893 -0.5013  2.1741  1.0322
   63CHOL   C10 8308   2.203   4.277   7.055 -0.0971  0.4362 -0.6409
   63CHOL   C11 8309   2.180   4.199   6.808 -0.7727  0.5876 -0.1919
   63CHOL  H111 8310   2.097   4.148   6.858 -1.1659  1.7826  0.3950
   63CHOL  H112 8311   2.257   4.125   6.790  2.1875  2.7332  2.9775
   63CHOL   C12 8312   2.128   4.240   6.672  0.0051 -0.5486  0.4963
   63CHOL  H121 8313   2.077   4.155   6.626  0.4031 -0.4883 -0.0641
   63CHOL  H122 8314   2.219   4.261   6.616 -1.5789  1.4347 -1.4268
   63CHOL   C13 8315   2.044   4.369   6.663 -0.2964 -0.0732  0.3448
   63CHOL   C14 8316   2.137   4.475   6.733  0.1774 -0.4037  1.0558
   63CHOL  H141 8317   2.240   4.466   6.697  0.7245  1.1095  2.1854
   63CHOL   C15 8318   2.101   4.616   6.681  0.7881 -0.2557 -0.1302
   63CHOL  H151 8319   2.053   4.673   6.760  0.5789 -1.5659  0.6940
   63CHOL  H152 8320   2.186   4.673   6.643 -0.7059  2.1916  0.0984
   63CHOL   C16 8321   2.014   4.596   6.551  0.9316  0.5548  0.3130
   63CHOL  H161 8322   2.071   4.646   6.472  0.9648  0.9033  0.5544
   63CHOL  H162 8323   1.920   4.649   6.563 -0.8607 -2.1759 -1.2105
   63CHOL   C17 8324   2.011   4.439   6.522 -0.2853  0.4461  0.7148
   63CHOL  H171 8325   2.108   4.424   6.474 -1.5166 -0.4544 -1.5799
   63CHOL   C18 8326   1.910   4.345   6.741  0.0442 -0.4418 -0.3875
   63CHOL  H181 8327   1.853   4.263   6.697  0.1587  0.8925 -3.1102
   63CHOL  H182 8328   1.931   4.308   6.842  0.1916  2.4780  0.6950
   63CHOL  H182 8329   1.852   4.432   6.769  0.8673 -0.0338  0.0914
   63CHOL   C19 8330   2.048   4.233   7.088 -0.6060  1.0985 -0.0072
   63CHOL  H191 8331   2.026   4.194   7.187 -0.6239  1.9251  0.3225
   63CHOL  H192 8332   1.985   4.320   7.067  0.2626  1.3316 -1.7926
   63CHOL  H192 8333   1.995   4.148   7.044  0.0034 -0.0898  1.5211
   63CHOL   C20 8334   1.907   4.370   6.433  0.8863  0.4323  0.9794
   63CHOL  H201 8335   1.933   4.406   6.334  1.0067 -0.7013  0.5851
   63CHOL   C21 8336   1.763   4.425   6.467 -0.1371 -0.5145 -0.1467
   63CHOL  H211 8337   1.689   4.401   6.391  0.1410 -0.1197 -0.5458
   63CHOL  H212 8338   1.720   4.372   6.553  0.6345 -0.4025  0.3111
   63CHOL  H212 8339   1.750   4.533   6.477 -1.4226 -0.7416  0.7733
   63CHOL   C22 8340   1.912   4.208   6.426 -0.1422 -0.6555  0.1667
   63CHOL  H221 8341   1.894   4.160   6.522  1.9928 -1.7545  0.0478
   63CHOL  H222 8342   2.015   4.228   6.396 -0.1948  0.0803  0.4639
   63CHOL   C23 8343   1.828   4.149   6.307  0.4587  0.3095 -1.0585
   63CHOL  H231 8344   1.854   4.195   6.212 -0.3416  0.9756 -0.9562
   63CHOL  H232 8345   1.728   4.192   6.315  0.4542  0.3165 -1.1457
   63CHOL   C24 8346   1.844   3.999   6.286  0.0838 -0.4793 -0.7269
   63CHOL  H241 8347   1.809   3.955   6.380 -0.4950  2.3572  0.4307
   63CHOL  H242 8348   1.948   3.972   6.270  0.6897  1.0020  0.4980
   63CHOL   C25 8349   1.758   3.941   6.174  0.4247  0.0973 -0.2092
   63CHOL  H251 8350   1.793   4.000   6.089  1.1210 -1.1017 -0.7592
   63CHOL   C26 8351   1.609   3.953   6.204  0.7617  0.0230  0.1343
   63CHOL  H261 8352   1.552   3.907   6.123  1.8739 -1.2204  0.0295
   63CHOL  H262 8353   1.573   3.903   6.293  0.5946  1.7194  1.0356
   63CHOL  H262 8354   1.585   4.059   6.204 -0.5991 -0.2626 -1.2305
   63CHOL   C27 8355   1.774   3.789   6.157 -0.6260 -0.5576 -0.0076
   63CHOL  H271 8356   1.692   3.764   6.090 -0.0211 -2.3747 -0.1165
   63CHOL  H272 8357   1.865   3.756   6.106 -0.2696  1.2488 -0.5560
   63CHOL  H272 8358   1.761   3.731   6.248 -0.5124  1.9849  1.6687
   64CHOL    C1 8359   4.861   0.511   7.071  0.8589  0.1246 -0.3605
   64CHOL   H11 8360   4.756   0.484   7.083  0.3980  1.2810 -1.6485
   64CHOL   H12 8361   4.867   0.599   7.006 -0.3175  0.8270  0.4688
   64CHOL    C2 8362   4.901   0.556   7.218 -0.5988  0.0053 -0.9108
   64CHOL   H21 8363   4.846   0.641   7.258 -1.3926 -1.3878  1.0094
   64CHOL   H22 8364   5.005   0.591   7.212 -0.2671 -1.1003 -1.7310
   64CHOL    C3 8365   4.875   0.439   7.318 -0.2400  0.4126  0.1684
   64CHOL   H31 8366   4.766   0.432   7.318 -0.0905 -2.8593  1.7797
   64CHOL    O3 8367   4.931   0.490   7.440  0.5330  0.4556  0.0317
   64CHOL    H3 8368   4.864   0.546   7.477 -1.3368 -2.5297  1.4304
   64CHOL    C4 8369   4.952   0.317   7.269  0.4714  0.3865  0.3462
   64CHOL   H41 8370   4.927   0.237   7.338 -0.6216 -0.1222 -0.6160
   64CHOL   H42 8371   5.058   0.334   7.287  0.8300  0.3254 -1.5983
   64CHOL    C5 8372   4.928   0.282   7.126 -0.2507 -0.6106 -0.1101
   64CHOL    C6 8373   4.905   0.159   7.093  0.1219  0.2135 -0.0173
   64CHOL   H61 8374   4.892   0.086   7.172  0.0631 -0.0133 -0.2343
   64CHOL    C7 8375   4.887   0.097   6.960  0.1425  0.1904  0.2222
   64CHOL   H71 8376   4.779   0.082   6.964 -0.0794  1.3042 -1.3166
   64CHOL   H72 8377   4.933   5.947   6.948 -1.3468 -0.3553 -1.3260
   64CHOL    C8 8378   4.912   0.201   6.843 -0.5870  0.5144 -0.8476
   64CHOL   H81 8379   5.020   0.194   6.833 -0.9090 -0.7538 -4.4342
   64CHOL    C9 8380   4.859   0.349   6.876  0.3298  0.0906 -0.6531
   64CHOL   H91 8381   4.754   0.341   6.900  0.6654 -3.2033 -0.1022
   64CHOL   C10 8382   4.932   0.389   7.010  0.2364  0.0935 -0.1454
   64CHOL   C11 8383   4.871   0.458   6.767  0.4813 -0.0837  0.0710
   64CHOL  H111 8384   4.967   0.509   6.778 -0.7578  2.1484  0.8496
   64CHOL  H112 8385   4.806   0.544   6.784  0.7764  0.1305  0.1300
   64CHOL   C12 8386   4.848   0.407   6.625  0.0528  0.3281  0.3896
   64CHOL  H121 8387   4.877   0.484   6.553  0.2094 -1.2630 -1.2785
   64CHOL  H122 8388   4.743   0.389   6.601 -0.1132  1.3290  0.3296
   64CHOL   C13 8389   4.921   0.277   6.597 -0.4075  0.1363  0.2950
   64CHOL   C14 8390   4.868   0.166   6.703  0.1894 -0.0800  0.0325
   64CHOL  H141 8391   4.759   0.167   6.701  0.1821 -0.1110  0.3755
   64CHOL   C15 8392   4.907   0.030   6.633 -0.3375 -0.4532  0.5135
   64CHOL  H151 8393   4.829   5.905   6.649 -0.6146 -0.3361 -0.2851
   64CHOL  H152 8394   5.006   5.948   6.667 -0.5554  1.1153  2.7083
   64CHOL   C16 8395   4.927   0.060   6.472  0.1833 -0.5464  0.0128
   64CHOL  H161 8396   4.854   5.943   6.426  0.1644 -0.4694 -0.0667
   64CHOL  H162 8397   5.025   0.050   6.427 -0.4237  2.9777 -2.2580
   64CHOL   C17 8398   4.894   0.213   6.451 -0.3520 -0.3268  0.0949
   64CHOL  H171 8399   4.789   0.183   6.447 -0.4581  0.2031 -1.8226
   64CHOL   C18 8400   5.073   0.301   6.611 -0.2754 -0.0280 -0.0273
   64CHOL  H181 8401   5.115   0.331   6.707 -0.4512 -0.9034  0.3243
   64CHOL  H182 8402   5.125   0.213   6.573 -1.5578  0.0202 -1.9600
   64CHOL  H182 8403   5.118   0.369   6.538 -0.4870  1.1274  0.8990
   64CHOL   C19 8404   5.095   0.425   6.992 -0.1838 -0.5468  0.0710
   64CHOL  H191 8405   5.149   0.468   7.077 -1.4203 -0.1108  0.6499
   64CHOL  H192 8406   5.164   0.346   6.964  0.2496  0.5231 -1.9140
   64CHOL  H192 8407   5.117   0.508   6.925 -0.3115  0.3659  1.1294
   64CHOL   C20 8408   4.899   0.303   6.320 -0.0561  0.1810 -0.1869
   64CHOL  H201 8409   4.820   0.378   6.318  0.0927  0.3174 -3.4124
   64CHOL   C21 8410   4.858   0.205   6.210 -0.3223 -0.2233 -0.2380
   64CHOL  H211 8411   4.844   0.250   6.112  0.9821 -0.0052 -0.3345
   64CHOL  H212 8412   4.927   0.122   6.196  1.5740  1.2551  0.1704
   64CHOL  H212 8413   4.756   0.169   6.226 -0.4624  0.4595  0.4292
   64CHOL   C22 8414   5.029   0.382   6.292 -0.0575 -0.1258  0.4701
   64CHOL  H221 8415   5.107   0.315   6.329 -1.0885 -1.8849 -0.4957
   64CHOL  H222 8416   5.008   0.467   6.357 -2.3609  2.3148 -3.2877
   64CHOL   C23 8417   5.073   0.428   6.153 -0.2209 -0.0780 -0.3897
   64CHOL  H231 8418   4.996   0.479   6.095 -0.8584 -1.0053 -0.3680
   64CHOL  H232 8419   5.100   0.342   6.092 -1.0406 -0.0711 -0.7627
   64CHOL   C24 8420   5.198   0.517   6.164 -0.7472 -0.3543 -0.3931
   64CHOL  H241 8421   5.278   0.453   6.202 -1.1390 -1.7048 -1.7930
   64CHOL  H242 8422   5.186   0.589   6.246 -1.9491 -1.5698  0.5239
   64CHOL   C25 8423   5.253   0.580   6.039 -0.6271  0.0231 -0.1969
   64CHOL  H251 8424   5.167   0.623   5.987 -0.5655  0.2500 -0.1136
   64CHOL   C26 8425   5.315   0.479   5.944 -0.1594  0.2717 -0.7115
   64CHOL  H261 8426   5.421   0.463   5.964 -0.3124 -0.2312 -0.2624
   64CHOL  H262 8427   5.259   0.386   5.958 -0.8579  1.0131  1.7685
   64CHOL  H262 8428   5.310   0.521   5.844 -1.7142  0.6737 -0.4793
   64CHOL   C27 8429   5.350   0.697   6.061  0.0336  0.1320  1.0820
   64CHOL  H271 8430   5.378   0.748   5.969  0.5516 -0.7716  0.7349
   64CHOL  H272 8431   5.302   0.769   6.127 -2.4937 -1.6839  1.3078
   64CHOL  H272 8432   5.444   0.670   6.108 -0.0901 -1.1826  0.6000
   65SOPE    N1 8433   2.417   4.096   3.401 -0.0446 -0.8742  0.1479
   65SOPE    C1 8434   2.398   4.193   3.514  0.0637 -0.5329  0.2461
   65SOPE    H1 8435   2.306   4.248   3.492  0.3978  0.9396  2.3714
   65SOPE    H2 8436   2.475   4.270   3.526 -1.5893  1.1933  0.0841
   65SOPE    H3 8437   2.492   4.132   3.345  0.8107 -1.4909  0.8926
   65SOPE    H4 8438   2.329   4.087   3.352 -1.7610 -0.8552  3.1022
   65SOPE    H5 8439   2.440   4.007   3.445 -0.6467 -1.1425 -0.0661
   65SOPE    C5 8440   2.383   4.116   3.644 -0.4476  0.2495 -0.0972
   65SOPE   H12 8441   2.475   4.062   3.664 -0.5140 -0.0986 -0.6868
   65SOPE   H13 8442   2.292   4.055   3.641  0.8298 -1.6541 -1.8400
   65SOPE    P1 8443   2.439   4.281   3.841 -0.4706  0.0228 -0.3084
   65SOPE    O1 8444   2.533   4.357   3.762 -0.2822 -0.2996  0.5385
   65SOPE    O2 8445   2.371   4.352   3.946 -0.7360  0.5742  0.6244
   65SOPE    O3 8446   2.337   4.208   3.746 -0.3644  0.0285 -0.1857
   65SOPE    O4 8447   2.525   4.159   3.905 -0.3806 -0.1808 -0.2324
   65SOPE    C6 8448   2.459   4.060   3.991  0.2815 -0.8860 -0.3686
   65SOPE   H14 8449   2.502   3.964   3.962  1.0790 -0.0666 -1.9851
   65SOPE   H15 8450   2.352   4.065   3.970  0.6979  3.3615 -1.9760
   65SOPE    C7 8451   2.471   4.101   4.138 -0.1198  0.1508 -1.2448
   65SOPE   H16 8452   2.437   4.204   4.146 -0.3402 -0.0315  0.3175
   65SOPE    O5 8453   2.607   4.087   4.179  0.1174 -0.5392  0.2414
   65SOPE    C8 8454   2.677   4.200   4.184 -0.9026  0.2301  0.1417
   65SOPE    O6 8455   2.637   4.318   4.186 -0.0079 -0.4855  0.0933
   65SOPE    C9 8456   2.827   4.182   4.219  0.5215 -0.2122 -0.2861
   65SOPE   H17 8457   2.879   4.186   4.123  2.2353  2.3930  0.7072
   65SOPE   H18 8458   2.849   4.087   4.267  0.6384  1.3079  2.7387
   65SOPE   C10 8459   2.382   4.020   4.231  0.1097  0.0769  1.0996
   65SOPE   H19 8460   2.402   3.914   4.222  2.6794  0.8289 -3.5733
   65SOPE   H20 8461   2.282   4.038   4.190  0.0250  1.3079  1.8303
   65SOPE    O7 8462   2.401   4.063   4.364  0.0555  0.2854 -0.0524
   65SOPE   C11 8463   2.323   4.168   4.417 -0.1871 -0.1308  0.0670
   65SOPE    O8 8464   2.238   4.227   4.349  0.3639  0.0109 -0.8774
   65SOPE   C12 8465   2.375   4.205   4.560 -0.3189  0.3935  0.2183
   65SOPE   H21 8466   2.484   4.203   4.568 -0.4656 -2.1430  2.0219
   65SOPE   H22 8467   2.344   4.121   4.622  2.4289 -1.8391 -1.3067
   65SOPE   C13 8468   2.325   4.332   4.621 -0.2121  0.4451 -0.5407
   65SOPE   H23 8469   2.364   4.336   4.723  0.6268 -1.4293 -0.7742
   65SOPE   H24 8470   2.216   4.320   4.621 -0.1491 -0.5083  1.3885
   65SOPE   C14 8471   2.365   4.464   4.548  0.4241 -0.2657 -0.6469
   65SOPE   H25 8472   2.345   4.457   4.441  3.0295  0.3240 -1.2259
   65SOPE   H26 8473   2.470   4.484   4.572  0.8726 -0.8123 -2.1173
   65SOPE   C15 8474   2.297   4.584   4.607 -0.1175  0.2837 -0.1409
   65SOPE   H27 8475   2.189   4.568   4.598 -0.0993 -0.2193  0.5433
   65SOPE   H28 8476   2.330   4.677   4.561  1.5948 -0.7547 -1.0531
   65SOPE   C16 8477   2.326   4.620   4.753 -0.3309 -0.4144  0.3105
   65SOPE   H29 8478   2.432   4.643   4.769 -0.0724 -2.0473  1.0063
   65SOPE   H30 8479   2.300   4.533   4.813 -0.2231 -0.2306  0.6297
   65SOPE   C17 8480   2.244   4.750   4.781 -0.0861  0.3171 -0.7632
   65SOPE   H31 8481   2.144   4.732   4.743 -0.7553  0.9769  0.6622
   65SOPE   H32 8482   2.285   4.834   4.725 -2.7081  1.0494 -1.6443
   65SOPE   C18 8483   2.260   4.799   4.929  0.0554  0.1051  1.0411
   65SOPE   H33 8484   2.226   4.901   4.944 -0.4240 -0.3055  2.9622
   65SOPE   H34 8485   2.362   4.807   4.966 -1.2343  1.8891  4.3945
   65SOPE   C19 8486   2.177   4.720   5.027  0.3350 -0.4733  0.6310
   65SOPE   H35 8487   2.080   4.695   4.986 -0.0826  1.6168  0.3066
   65SOPE   C20 8488   2.218   4.669   5.146  0.0412  0.1212  0.0463
   65SOPE   H36 8489   2.155   4.597   5.197 -0.3919  0.2543 -0.3004
   65SOPE   C21 8490   2.353   4.688   5.215  0.6732 -0.1828  0.6396
   65SOPE   H37 8491   2.345   4.714   5.321  1.1832  0.8609  0.4223
   65SOPE   H38 8492   2.418   4.761   5.167 -0.8590  0.3439 -0.6830
   65SOPE   C22 8493   2.427   4.551   5.224  0.1350  0.2977 -0.5196
   65SOPE   H39 8494   2.392   4.486   5.304 -0.4768 -0.6135 -1.4979
   65SOPE   H40 8495   2.530   4.576   5.249  0.0666  1.0388 -0.9719
   65SOPE   C23 8496   2.436   4.472   5.095 -0.5179  0.4593  0.3851
   65SOPE   H41 8497   2.463   4.545   5.018  0.5588 -0.4200 -0.0851
   65SOPE   H42 8498   2.334   4.441   5.073 -0.7611  1.7508 -0.4131
   65SOPE   C24 8499   2.532   4.352   5.106  0.1987 -0.2396  0.0838
   65SOPE   H43 8500   2.512   4.301   5.200  3.0995 -1.5252  0.0403
   65SOPE   H44 8501   2.621   4.414   5.104  1.8017 -2.4984 -0.2407
   65SOPE   C25 8502   2.530   4.256   4.986 -0.0045  0.9055  0.5957
   65SOPE   H45 8503   2.549   4.311   4.894 -1.1241  1.3825  0.6480
   65SOPE   H46 8504   2.428   4.218   4.984 -0.2764  1.6732 -1.3373
   65SOPE   C26 8505   2.632   4.143   5.018 -0.0813 -0.1941  0.7409
   65SOPE   H47 8506   2.731   4.177   5.050  0.4203 -0.4989 -0.4746
   65SOPE   H48 8507   2.598   4.089   5.107  0.8278 -3.5115 -0.8512
   65SOPE   C27 8508   2.649   4.040   4.902  0.3453  0.9862  1.1723
   65SOPE   H49 8509   2.549   4.008   4.874  1.5285 -1.2893 -0.6227
   65SOPE   H50 8510   2.703   3.949   4.925  1.5655  1.7300  1.2935
   65SOPE   C27 8511   2.720   4.096   4.777 -0.5658 -0.2639 -0.4264
   65SOPE   H51 8512   2.745   4.015   4.708  4.6738  1.6450 -1.0276
   65SOPE   H52 8513   2.658   4.171   4.729 -0.3701 -0.7108 -1.3997
   65SOPE   H53 8514   2.818   4.136   4.801 -0.6490  0.3608 -1.1030
   65SOPE   C29 8515   2.890   4.289   4.300  0.3750  0.0155  0.2679
   65SOPE   H54 8516   2.882   4.388   4.255 -1.3812  0.4672  1.5473
   65SOPE   H55 8517   2.997   4.269   4.296 -0.0247 -2.8213  2.2982
   65SOPE   C30 8518   2.840   4.294   4.441  0.2935 -0.2309  0.0450
   65SOPE   H56 8519   2.879   4.207   4.494  0.6028 -0.0900  0.0485
   65SOPE   H57 8520   2.731   4.305   4.447  0.1368 -1.4779 -0.2874
   65SOPE   C31 8521   2.883   4.432   4.506  0.0094 -0.7695 -0.3996
   65SOPE   H58 8522   2.825   4.509   4.455  1.6574 -0.4313 -1.8287
   65SOPE   H59 8523   2.986   4.461   4.484 -0.5732  0.6766 -1.3109
   65SOPE   C32 8524   2.860   4.427   4.656  0.1629  0.0157 -0.1471
   65SOPE   H60 8525   2.928   4.358   4.707  0.4511 -1.7840 -2.8392
   65SOPE   H61 8526   2.760   4.385   4.671 -0.0699  0.3575 -0.7161
   65SOPE   C33 8527   2.863   4.568   4.723  0.5945 -0.7100  0.0856
   65SOPE   H62 8528   2.799   4.642   4.675  0.8921 -0.2988  0.3262
   65SOPE   H63 8529   2.964   4.608   4.715  1.0825 -2.1819 -1.3923
   65SOPE   C34 8530   2.812   4.571   4.865 -0.1842 -0.3039  0.2332
   65SOPE   H64 8531   2.842   4.480   4.918  1.5728  0.4076  0.4996
   65SOPE   H65 8532   2.704   4.581   4.860  0.1364  3.6590  0.0629
   65SOPE   C35 8533   2.861   4.694   4.942 -0.7693 -0.2239 -0.3995
   65SOPE   H66 8534   2.811   4.779   4.895  1.9498  1.3599 -0.5517
   65SOPE   H67 8535   2.970   4.692   4.941 -0.7693 -0.5906  0.1210
   65SOPE   C36 8536   2.818   4.680   5.088  0.2135  0.0722 -0.7863
   65SOPE   H68 8537   2.860   4.588   5.129  0.9463  0.2479 -1.1417
   65SOPE   H69 8538   2.711   4.662   5.090  0.2804 -0.2635  0.0913
   65SOPE   C37 8539   2.870   4.801   5.165  0.0811  0.6490  0.1831
   65SOPE   H70 8540   2.804   4.886   5.148  1.3270  1.7471  0.7124
   65SOPE   H71 8541   2.977   4.819   5.152  0.4461 -1.6973 -0.2400
   65SOPE   C38 8542   2.856   4.783   5.322  0.2702 -0.5457  0.3232
   65SOPE   H72 8543   2.903   4.687   5.346 -3.3547 -2.1821  1.1202
   65SOPE   H73 8544   2.754   4.764   5.355  0.3221 -0.4786  0.5270
   65SOPE   C39 8545   2.915   4.896   5.409 -0.0310  0.3097  0.3997
   65SOPE   H74 8546   2.889   4.985   5.352 -1.0805 -0.7880 -0.8875
   65SOPE   H75 8547   3.023   4.882   5.406 -0.1266 -1.0352  2.1972
   65SOPE   C40 8548   2.869   4.910   5.549 -0.3940  0.0529  0.2207
   65SOPE   H76 8549   2.848   4.808   5.582 -0.3322 -0.0270  0.0235
   65SOPE   H77 8550   2.779   4.971   5.549 -1.1303 -0.9951  1.4078
   65SOPE   C41 8551   2.973   4.983   5.638  0.4064  0.1388  0.2271
   65SOPE   H78 8552   2.973   5.087   5.604 -0.5283 -0.2578 -1.0029
   65SOPE   H79 8553   3.069   4.931   5.635 -0.7693 -2.1697  1.3352
   65SOPE   C42 8554   2.925   4.974   5.781  0.1245  0.4281  0.9633
   65SOPE   H80 8555   3.008   4.972   5.852  2.5847  0.3183 -1.8436
   65SOPE   H81 8556   2.866   4.884   5.797 -0.7440  0.9138  0.5784
   65SOPE   C43 8557   2.822   5.073   5.819 -0.1441  0.2535 -1.4697
   65SOPE   H82 8558   2.872   5.168   5.839 -1.0776  0.9859 -2.5291
   65SOPE   H83 8559   2.748   5.087   5.740 -0.3740  1.4089 -1.0579
   65SOPE   C44 8560   2.761   5.034   5.953  0.2693 -0.5664 -0.6061
   65SOPE   H84 8561   2.714   5.115   6.008  3.0112  0.5274  0.2207
   65SOPE   H85 8562   2.688   4.955   5.934 -2.5055  1.6061  0.6915
   65SOPE   H86 8563   2.829   4.994   6.028 -0.6216 -0.9659 -0.0003
   66SOPE    N1 8564   2.727   0.551   3.976 -0.7219  0.1367  0.4089
   66SOPE    C1 8565   2.764   0.417   3.952 -0.3216  0.2038  0.7326
   66SOPE    H1 8566   2.800   0.408   3.849  0.5721 -0.8298  1.1318
   66SOPE    H2 8567   2.673   0.356   3.950  0.2978 -0.7378  0.9076
   66SOPE    H3 8568   2.642   0.556   4.031 -2.1172  0.7013 -1.6977
   66SOPE    H4 8569   2.713   0.594   3.885 -0.6636  1.2071  0.8882
   66SOPE    H5 8570   2.803   0.593   4.028  1.0334 -0.0490 -1.9223
   66SOPE    C5 8571   2.873   0.376   4.046  0.2567  0.2500  0.5316
   66SOPE   H12 8572   2.842   0.379   4.150 -1.5863 -1.6394  0.0656
   66SOPE   H13 8573   2.962   0.439   4.036 -1.1205  2.1410 -0.0229
   66SOPE    P1 8574   2.977   0.179   3.905 -0.0845  0.6157  0.0952
   66SOPE    O1 8575   2.886   0.083   3.845  0.9033  1.1921  0.6805
   66SOPE    O2 8576   3.013   0.288   3.812  0.3636  0.3745 -0.1986
   66SOPE    O3 8577   2.906   0.237   4.031  0.6440 -0.1537  0.1320
   66SOPE    O4 8578   3.109   0.113   3.952  0.5289 -0.9911 -0.6000
   66SOPE    C6 8579   3.116   0.016   4.057  0.4402 -0.0423  0.4779
   66SOPE   H14 8580   3.192   5.889   4.040 -0.3212 -0.6702 -0.1896
   66SOPE   H15 8581   3.018   5.919   4.067  1.4762 -2.5533 -0.4869
   66SOPE    C7 8582   3.156   0.100   4.183 -0.4541 -1.1364 -1.3009
   66SOPE   H16 8583   3.075   0.169   4.206 -0.1590 -1.3348  0.3831
   66SOPE    O5 8584   3.283   0.158   4.178 -0.5244  0.3053 -0.0637
   66SOPE    C8 8585   3.295   0.298   4.186 -1.0091 -0.4139 -0.1621
   66SOPE    O6 8586   3.210   0.389   4.183  0.1935  0.8391  0.1383
   66SOPE    C9 8587   3.438   0.328   4.211 -0.0604 -0.1437  0.1412
   66SOPE   H17 8588   3.449   0.436   4.199  1.8229 -0.4541 -1.0748
   66SOPE   H18 8589   3.486   0.291   4.121 -0.9494  1.6993 -1.1162
   66SOPE   C10 8590   3.168   0.003   4.300  0.0796 -0.6136  0.1106
   66SOPE   H19 8591   3.263   5.898   4.296  0.5502  0.1178  0.9922
   66SOPE   H20 8592   3.093   5.873   4.305 -0.6263  0.1158  1.2662
   66SOPE    O7 8593   3.174   0.085   4.413 -0.2971 -0.1136 -0.1978
   66SOPE   C11 8594   3.078   0.108   4.493  0.2405  0.3032  0.6043
   66SOPE    O8 8595   2.965   0.072   4.474 -0.1794  0.5919  0.2909
   66SOPE   C12 8596   3.105   0.222   4.600 -1.0693 -0.2969 -0.8258
   66SOPE   H21 8597   3.112   0.321   4.556 -1.0465  0.5126  0.9622
   66SOPE   H22 8598   3.194   0.190   4.656 -2.1040  1.6320  2.0367
   66SOPE   C13 8599   2.988   0.234   4.702  0.7389  0.7503 -0.3097
   66SOPE   H23 8600   2.930   0.144   4.721 -1.5974  2.0020 -1.4147
   66SOPE   H24 8601   2.900   0.278   4.655  0.0266 -0.3765 -0.0540
   66SOPE   C14 8602   3.022   0.310   4.829 -0.4692  0.4416  0.0899
   66SOPE   H25 8603   2.929   0.315   4.885 -0.6259 -3.4999  0.3136
   66SOPE   H26 8604   3.045   0.414   4.803 -0.7306  0.6144  0.5409
   66SOPE   C15 8605   3.128   0.253   4.931 -0.1442 -0.9671 -0.2441
   66SOPE   H27 8606   3.219   0.236   4.874  1.4010 -1.1239  2.1984
   66SOPE   H28 8607   3.097   0.153   4.961  2.0402 -1.1649  1.4326
   66SOPE   C16 8608   3.151   0.344   5.056 -1.3784 -0.4964  0.2865
   66SOPE   H29 8609   3.057   0.339   5.111  0.9215 -0.4651  4.4412
   66SOPE   H30 8610   3.156   0.447   5.019  1.6507 -0.7222 -0.0555
   66SOPE   C17 8611   3.268   0.293   5.140 -0.4174 -0.2047  0.1939
   66SOPE   H31 8612   3.360   0.282   5.083 -1.4274 -0.7293 -1.3828
   66SOPE   H32 8613   3.247   0.190   5.170  0.9347 -0.6827 -0.4560
   66SOPE   C18 8614   3.274   0.388   5.255  0.4167 -0.0945  0.0784
   66SOPE   H33 8615   3.352   0.358   5.325 -0.6501  0.9044  1.7317
   66SOPE   H34 8616   3.186   0.386   5.319 -0.6679  3.1502 -1.1715
   66SOPE   C19 8617   3.314   0.535   5.222  0.5827  0.1584  0.4175
   66SOPE   H35 8618   3.336   0.562   5.120 -2.3199  0.5805 -0.1319
   66SOPE   C20 8619   3.343   0.628   5.315  0.2425 -0.3671  0.3254
   66SOPE   H36 8620   3.367   0.730   5.291 -0.9884  0.3846  2.1734
   66SOPE   C21 8621   3.325   0.616   5.468 -0.1512 -0.4582 -0.1707
   66SOPE   H37 8622   3.248   0.542   5.490 -1.4526  1.0341  0.3229
   66SOPE   H38 8623   3.297   0.714   5.505  1.9307 -0.2102  0.8370
   66SOPE   C22 8624   3.459   0.568   5.538  0.2355  1.1224 -0.2810
   66SOPE   H39 8625   3.474   0.462   5.519 -1.4041  0.2704  2.8478
   66SOPE   H40 8626   3.444   0.582   5.645 -2.3834 -0.7970 -0.3714
   66SOPE   C23 8627   3.587   0.643   5.490 -1.2094 -0.2348  0.1583
   66SOPE   H41 8628   3.599   0.663   5.384 -1.3670  3.0509  0.7061
   66SOPE   H42 8629   3.677   0.595   5.527 -0.6563  0.4358 -0.3096
   66SOPE   C24 8630   3.584   0.783   5.553  0.0890  0.4115 -0.4344
   66SOPE   H43 8631   3.490   0.803   5.606 -0.8671  0.2195 -2.0330
   66SOPE   H44 8632   3.594   0.861   5.478  1.1001 -0.3246 -1.0713
   66SOPE   C25 8633   3.705   0.801   5.651  0.0619  0.6207 -0.0300
   66SOPE   H45 8634   3.790   0.754   5.603  0.1060  0.5088  0.1547
   66SOPE   H46 8635   3.692   0.745   5.744 -1.1205 -0.4226 -0.8164
   66SOPE   C26 8636   3.737   0.943   5.700 -0.2655  0.3192  0.5229
   66SOPE   H47 8637   3.844   0.944   5.722  0.5317 -0.9216 -2.9692
   66SOPE   H48 8638   3.725   1.013   5.617  4.1391 -0.7331 -1.1120
   66SOPE   C27 8639   3.648   0.987   5.811  0.0830  0.2855 -0.1400
   66SOPE   H49 8640   3.629   0.917   5.892  0.0558 -0.5546 -0.8693
   66SOPE   H50 8641   3.549   0.997   5.765  0.6668  2.3390 -1.0119
   66SOPE   C27 8642   3.703   1.122   5.868 -0.6145  0.2280  0.1705
   66SOPE   H51 8643   3.705   1.204   5.796 -0.3889 -0.3726 -0.5049
   66SOPE   H52 8644   3.635   1.154   5.947 -1.3368 -1.0083  0.0638
   66SOPE   H53 8645   3.800   1.101   5.913 -0.1033  1.1798 -0.4644
   66SOPE   C29 8646   3.492   0.265   4.346  0.0248 -0.6278 -0.3761
   66SOPE   H54 8647   3.601   0.261   4.344 -0.0076 -1.4933 -0.7307
   66SOPE   H55 8648   3.474   0.158   4.343  1.5766 -0.8556 -2.2250
   66SOPE   C30 8649   3.427   0.345   4.467 -0.0234  0.2426  0.3687
   66SOPE   H56 8650   3.320   0.328   4.476  0.4970 -2.4546  2.0399
   66SOPE   H57 8651   3.430   0.451   4.445 -5.1401  0.5713  0.7421
   66SOPE   C31 8652   3.505   0.314   4.598  0.6091 -0.9763  0.6626
   66SOPE   H58 8653   3.613   0.328   4.586  0.5185 -2.0514 -1.8375
   66SOPE   H59 8654   3.504   0.208   4.625 -0.2646 -0.3887  3.0266
   66SOPE   C32 8655   3.441   0.405   4.709 -0.1991 -0.6954 -0.4816
   66SOPE   H60 8656   3.341   0.364   4.718 -0.2167 -0.5137  0.2318
   66SOPE   H61 8657   3.440   0.511   4.682  1.0783 -0.4658  0.3157
   66SOPE   C33 8658   3.502   0.399   4.852  0.5774  0.0836 -0.2736
   66SOPE   H62 8659   3.546   0.300   4.853 -1.8474 -1.0251  0.2956
   66SOPE   H63 8660   3.427   0.402   4.931  1.9588  0.1321  1.0486
   66SOPE   C34 8661   3.591   0.520   4.893  0.3525  0.1597 -0.8447
   66SOPE   H64 8662   3.603   0.517   5.001  0.3263  0.2319 -0.8395
   66SOPE   H65 8663   3.528   0.606   4.868 -1.7946 -0.4940  2.0256
   66SOPE   C35 8664   3.725   0.534   4.823  0.6935 -0.3817 -0.6817
   66SOPE   H66 8665   3.707   0.526   4.716  2.1354  1.2528 -1.0831
   66SOPE   H67 8666   3.793   0.450   4.842  0.6734  0.1934  2.1731
   66SOPE   C36 8667   3.789   0.670   4.861 -0.4172  0.1552 -0.0766
   66SOPE   H68 8668   3.777   0.694   4.966  0.9709  0.3189  0.0513
   66SOPE   H69 8669   3.742   0.754   4.809 -2.1977 -0.0466  1.1597
   66SOPE   C37 8670   3.936   0.667   4.820 -0.2175  0.6137 -0.0167
   66SOPE   H70 8671   3.946   0.625   4.719 -0.1755 -0.4638  0.4312
   66SOPE   H71 8672   3.977   0.592   4.887 -1.8174 -1.6322 -1.4432
   66SOPE   C38 8673   4.014   0.798   4.836  0.7127 -0.4189 -0.4195
   66SOPE   H72 8674   4.122   0.793   4.846  0.7945  3.8932  2.5209
   66SOPE   H73 8675   3.973   0.837   4.930  0.7193  0.2322 -0.6814
   66SOPE   C39 8676   3.988   0.903   4.728  0.4660  0.8298  0.4049
   66SOPE   H74 8677   4.007   1.001   4.771  1.9456  1.0572 -0.7385
   66SOPE   H75 8678   3.883   0.892   4.702  0.7162 -1.2099  0.1908
   66SOPE   C40 8679   4.060   0.876   4.600 -0.0164 -0.5503 -0.1706
   66SOPE   H76 8680   4.032   0.777   4.563  0.3849 -0.7115 -0.0528
   66SOPE   H77 8681   4.165   0.889   4.627 -0.3078  0.1909  0.5919
   66SOPE   C41 8682   4.040   0.976   4.486  0.3088  0.3753 -0.9130
   66SOPE   H78 8683   4.023   1.075   4.527 -1.1689  0.5172 -1.8242
   66SOPE   H79 8684   3.946   0.938   4.444 -0.0595 -1.7868  1.6871
   66SOPE   C42 8685   4.155   0.986   4.389  0.7434 -0.1087  0.4515
   66SOPE   H80 8686   4.188   0.886   4.362  1.4730  0.6229 -1.4276
   66SOPE   H81 8687   4.241   1.033   4.437 -1.2101  1.9888  2.0758
   66SOPE   C43 8688   4.104   1.060   4.260 -0.2660  0.6840  0.1224
   66SOPE   H82 8689   4.009   1.026   4.218 -1.2151  1.8671  1.2641
   66SOPE   H83 8690   4.095   1.164   4.292  0.2867  1.2189 -1.4327
   66SOPE   C44 8691   4.221   1.053   4.157  0.0787 -0.3329 -0.0459
   66SOPE   H84 8692   4.307   1.093   4.210 -1.8929  0.5590  2.5557
   66SOPE   H85 8693   4.243   0.948   4.137  0.7190 -0.3293  0.6275
   66SOPE   H86 8694   4.200   1.106   4.063  0.1401  0.4407  0.3745
   67SOPE    N1 8695   3.129   3.776   3.292 -1.1046  0.4914  0.1539
   67SOPE    C1 8696   3.055   3.874   3.371  0.0023  0.2150  0.4552
   67SOPE    H1 8697   2.968   3.910   3.316  0.2260 -0.8713 -0.6365
   67SOPE    H2 8698   3.115   3.963   3.390  0.5255 -0.1356  0.4424
   67SOPE    H3 8699   3.109   3.683   3.328 -0.7038  0.7149  0.9550
   67SOPE    H4 8700   3.225   3.805   3.301 -1.1196  0.9191 -0.8916
   67SOPE    H5 8701   3.080   3.796   3.205 -1.8739 -1.1511  0.1786
   67SOPE    C5 8702   3.003   3.818   3.511 -0.0217 -0.7241  0.6762
   67SOPE   H12 8703   3.074   3.773   3.580  2.3256  1.0466 -0.5273
   67SOPE   H13 8704   2.911   3.760   3.501  0.4634 -1.3558 -0.1885
   67SOPE    P1 8705   3.030   4.003   3.697 -0.2725 -0.1103 -0.0726
   67SOPE    O1 8706   3.153   4.054   3.633  0.3939  0.1825 -0.2132
   67SOPE    O2 8707   2.945   4.105   3.753  0.9244  0.4755  0.4415
   67SOPE    O3 8708   2.944   3.923   3.591 -0.0975  0.0064  0.5338
   67SOPE    O4 8709   3.074   3.906   3.808 -0.0459  0.0399 -0.5404
   67SOPE    C6 8710   2.982   3.818   3.870  0.4347  0.4223  0.1375
   67SOPE   H14 8711   3.035   3.725   3.892  0.6140 -0.0815 -2.2612
   67SOPE   H15 8712   2.903   3.784   3.804  1.9134 -3.2586  0.1638
   67SOPE    C7 8713   2.928   3.875   4.001  0.2800  0.3086 -0.8998
   67SOPE   H16 8714   2.901   3.980   3.997  0.7069  0.3979 -1.4415
   67SOPE    O5 8715   3.022   3.836   4.103  0.1343  0.2597 -0.3957
   67SOPE    C8 8716   3.135   3.902   4.126  0.7110  0.0978 -0.4203
   67SOPE    O6 8717   3.172   4.015   4.088 -0.2558 -0.4750 -0.5279
   67SOPE    C9 8718   3.215   3.842   4.241  0.3982  0.0212  0.2572
   67SOPE   H17 8719   3.309   3.795   4.210  0.8151  0.3665  0.9838
   67SOPE   H18 8720   3.154   3.758   4.272  2.1683 -0.1585  3.4926
   67SOPE   C10 8721   2.797   3.796   4.035 -0.9783 -0.2527 -0.1446
   67SOPE   H19 8722   2.821   3.691   4.021 -0.3474 -0.0105 -0.9070
   67SOPE   H20 8723   2.721   3.812   3.959 -1.3383  0.1850  0.2973
   67SOPE    O7 8724   2.754   3.811   4.169 -0.1137  0.0235  0.1160
   67SOPE   C11 8725   2.649   3.727   4.206  0.1468  0.6004 -0.4727
   67SOPE    O8 8726   2.614   3.637   4.133  0.1428 -0.0031  0.0497
   67SOPE   C12 8727   2.592   3.763   4.347  0.0372 -0.2570 -0.3364
   67SOPE   H21 8728   2.490   3.724   4.340 -0.3558  0.7674 -0.4574
   67SOPE   H22 8729   2.585   3.871   4.341 -1.6340 -0.4241 -2.0160
   67SOPE   C13 8730   2.673   3.713   4.473  0.6115 -0.6372  0.4544
   67SOPE   H23 8731   2.651   3.606   4.482  1.2016 -0.8632 -0.7031
   67SOPE   H24 8732   2.626   3.766   4.556 -0.4962  0.7514 -1.0357
   67SOPE   C14 8733   2.822   3.739   4.483  0.1625 -0.7021 -0.0956
   67SOPE   H25 8734   2.837   3.845   4.468 -0.2155 -0.7161 -0.6232
   67SOPE   H26 8735   2.878   3.696   4.400  0.7739 -1.1966  0.5694
   67SOPE   C15 8736   2.890   3.700   4.616  0.7283 -0.2528  0.3184
   67SOPE   H27 8737   2.872   3.594   4.630 -3.3850  0.4219  0.5422
   67SOPE   H28 8738   2.838   3.755   4.694  2.3122 -1.1558  2.0483
   67SOPE   C16 8739   3.043   3.736   4.624  0.6697 -0.4489 -0.1464
   67SOPE   H29 8740   3.042   3.844   4.637 -0.2134 -0.2223 -1.8801
   67SOPE   H30 8741   3.100   3.726   4.531 -1.0555  1.4666 -1.4637
   67SOPE   C17 8742   3.118   3.653   4.727  0.5865 -0.4820  0.0192
   67SOPE   H31 8743   3.221   3.648   4.691  0.7322 -2.4510  0.6509
   67SOPE   H32 8744   3.087   3.549   4.724 -1.3174  0.1243 -3.5630
   67SOPE   C18 8745   3.130   3.724   4.864 -0.6921  0.1983  0.0602
   67SOPE   H33 8746   3.144   3.831   4.852 -1.7701  0.4923  1.3353
   67SOPE   H34 8747   3.226   3.684   4.898 -1.4909 -0.9462  1.0477
   67SOPE   C19 8748   3.009   3.685   4.947  0.0584  0.1169  0.2513
   67SOPE   H35 8749   2.981   3.582   4.932  0.0643  0.1723 -0.1465
   67SOPE   C20 8750   2.936   3.774   5.022 -0.1658  0.3807  0.0528
   67SOPE   H36 8751   2.843   3.751   5.073  0.1560 -1.0329  0.0184
   67SOPE   C21 8752   2.975   3.923   5.024 -0.1390  0.7915  0.1080
   67SOPE   H37 8753   2.889   3.986   5.046 -0.7657 -0.7306  2.1240
   67SOPE   H38 8754   3.014   3.963   4.930 -0.1015  0.9376  0.1848
   67SOPE   C22 8755   3.101   3.939   5.118 -0.1665 -0.0979  0.5317
   67SOPE   H39 8756   3.137   4.042   5.123 -0.4685  0.0840 -1.0251
   67SOPE   H40 8757   3.194   3.893   5.086 -0.5317 -2.1472  2.2650
   67SOPE   C23 8758   3.081   3.892   5.263  0.2182 -0.0183  0.4470
   67SOPE   H41 8759   3.168   3.910   5.326  1.1458 -2.9093  0.0971
   67SOPE   H42 8760   3.075   3.784   5.277  2.3821 -0.0472  1.3768
   67SOPE   C24 8761   2.956   3.956   5.327 -0.5451  0.1128 -0.3503
   67SOPE   H43 8762   2.953   3.924   5.431  1.0582 -0.5704 -0.4881
   67SOPE   H44 8763   2.861   3.920   5.289  0.3379  0.2284 -2.8114
   67SOPE   C25 8764   2.961   4.106   5.311  0.0269 -0.1550  0.2599
   67SOPE   H45 8765   2.965   4.132   5.205 -3.0617  1.7179  0.5524
   67SOPE   H46 8766   3.048   4.145   5.364  0.8883 -2.2244  0.4035
   67SOPE   C26 8767   2.842   4.171   5.381 -0.6161  0.1099  0.0173
   67SOPE   H47 8768   2.743   4.142   5.343 -1.0047  0.0954  1.0343
   67SOPE   H48 8769   2.841   4.143   5.486  1.4997  0.7494  0.2163
   67SOPE   C27 8770   2.862   4.325   5.386 -0.0540 -0.1073  0.0014
   67SOPE   H49 8771   2.897   4.362   5.290 -0.0040 -2.1282 -0.7766
   67SOPE   H50 8772   2.946   4.338   5.454 -0.4402 -1.2134  0.7087
   67SOPE   C27 8773   2.740   4.390   5.442  0.0303 -0.4468  0.6810
   67SOPE   H51 8774   2.719   4.341   5.536 -0.1568  0.7293  1.2691
   67SOPE   H52 8775   2.752   4.499   5.446  2.1093 -0.6646  0.8826
   67SOPE   H53 8776   2.651   4.360   5.386  1.2551 -1.5254 -0.7432
   67SOPE   C29 8777   3.245   3.948   4.352  0.1703  0.3052  0.2541
   67SOPE   H54 8778   3.316   4.024   4.318 -1.5845  1.6728 -0.4429
   67SOPE   H55 8779   3.296   3.890   4.429  1.3736 -0.3752 -1.0175
   67SOPE   C30 8780   3.118   4.004   4.416 -0.7686 -0.7276 -0.2122
   67SOPE   H56 8781   3.046   3.924   4.425 -0.5519 -0.8679  0.2622
   67SOPE   H57 8782   3.081   4.077   4.343  2.1527  0.0068 -1.0525
   67SOPE   C31 8783   3.155   4.088   4.537 -0.1085  0.2424  0.8074
   67SOPE   H58 8784   3.203   4.025   4.611  0.8334 -1.4417 -1.1797
   67SOPE   H59 8785   3.065   4.128   4.584 -1.0289 -0.2889 -0.4696
   67SOPE   C32 8786   3.235   4.221   4.513  0.2166 -0.2470 -0.1052
   67SOPE   H60 8787   3.168   4.290   4.463  0.7545 -0.3266 -0.9574
   67SOPE   H61 8788   3.318   4.194   4.447 -0.6391 -1.1360 -0.8440
   67SOPE   C33 8789   3.258   4.301   4.641 -0.4539  0.8599  0.3108
   67SOPE   H62 8790   3.346   4.251   4.681 -0.5063  0.1699 -0.4344
   67SOPE   H63 8791   3.184   4.278   4.718  0.4199 -0.0577  0.8888
   67SOPE   C34 8792   3.284   4.447   4.615  0.6234 -0.3230 -0.1748
   67SOPE   H64 8793   3.188   4.487   4.582 -0.6849 -2.3099  1.1043
   67SOPE   H65 8794   3.338   4.454   4.520  1.1361 -0.7462  0.0759
   67SOPE   C35 8795   3.353   4.524   4.732 -0.7337 -0.0738 -0.8011
   67SOPE   H66 8796   3.370   4.629   4.707  1.9018 -0.3579 -0.3494
   67SOPE   H67 8797   3.453   4.484   4.746  0.4166  2.9146  0.0225
   67SOPE   C36 8798   3.267   4.524   4.855 -0.1434 -0.2361 -0.6721
   67SOPE   H68 8799   3.283   4.426   4.900 -0.3492 -0.2200 -0.5615
   67SOPE   H69 8800   3.162   4.535   4.825 -0.7901 -2.1309  0.7867
   67SOPE   C37 8801   3.294   4.639   4.954 -0.2071  0.3909  0.9236
   67SOPE   H70 8802   3.212   4.645   5.026 -1.7338 -1.8148 -0.5814
   67SOPE   H71 8803   3.285   4.737   4.907  1.7242  0.9020  1.5779
   67SOPE   C38 8804   3.430   4.634   5.015 -0.3538 -0.4325  0.0124
   67SOPE   H72 8805   3.489   4.681   4.936 -1.6189 -2.2330 -2.0707
   67SOPE   H73 8806   3.479   4.539   5.033 -0.2567  0.1646  3.1640
   67SOPE   C39 8807   3.453   4.723   5.131  0.0927 -0.1080 -0.1056
   67SOPE   H74 8808   3.367   4.714   5.197  1.2963 -0.4282  1.4669
   67SOPE   H75 8809   3.450   4.826   5.096  0.4591  0.6361  1.9672
   67SOPE   C40 8810   3.586   4.706   5.203 -0.1940  0.0616 -0.1795
   67SOPE   H76 8811   3.662   4.741   5.134 -0.9896 -1.0384 -1.6418
   67SOPE   H77 8812   3.609   4.599   5.201 -1.5668 -0.2364 -0.5362
   67SOPE   C41 8813   3.588   4.765   5.341 -0.0932  0.5463 -0.0140
   67SOPE   H78 8814   3.523   4.726   5.420 -3.0143 -2.0296 -3.5221
   67SOPE   H79 8815   3.557   4.868   5.326  0.7123  0.6842 -0.7558
   67SOPE   C42 8816   3.723   4.795   5.389  0.5902 -0.1021  0.3619
   67SOPE   H80 8817   3.777   4.841   5.307 -1.9763  1.0369 -0.7761
   67SOPE   H81 8818   3.785   4.707   5.404  1.1471  0.1089 -0.6839
   67SOPE   C43 8819   3.733   4.886   5.512  0.3585 -0.0954  0.5080
   67SOPE   H82 8820   3.836   4.917   5.527 -0.5913  2.7708  1.4743
   67SOPE   H83 8821   3.679   4.976   5.483  1.3305 -0.3480 -2.1797
   67SOPE   C44 8822   3.687   4.806   5.641 -0.0912  0.1750 -0.1083
   67SOPE   H84 8823   3.666   4.878   5.720 -1.7000  0.6232 -0.9150
   67SOPE   H85 8824   3.596   4.746   5.630  0.0245  0.1813 -1.2374
   67SOPE   H86 8825   3.764   4.731   5.657  0.3479  0.6216 -0.1189
   68SOPE    N1 8826   2.606   1.686   3.905  0.4522  0.3364 -0.2146
   68SOPE    C1 8827   2.506   1.787   3.944  0.1625 -0.2627 -0.2055
   68SOPE    H1 8828   2.423   1.757   3.881 -0.4341 -0.4485  0.6720
   68SOPE    H2 8829   2.515   1.889   3.906  0.0790 -0.1670  0.0267
   68SOPE    H3 8830   2.658   1.657   3.986 -2.1209  0.5158  1.5693
   68SOPE    H4 8831   2.661   1.735   3.836  2.8653 -0.4675  1.0802
   68SOPE    H5 8832   2.556   1.611   3.861  0.0554  0.4742  0.0013
   68SOPE    C5 8833   2.461   1.761   4.088 -0.1256  0.2543  0.0301
   68SOPE   H12 8834   2.414   1.663   4.088 -0.1727  0.2578 -2.1452
   68SOPE   H13 8835   2.542   1.750   4.160 -0.1755  0.5367  0.1319
   68SOPE    P1 8836   2.223   1.884   4.083  0.1885  0.4393 -0.2606
   68SOPE    O1 8837   2.222   1.931   3.940 -0.1544 -0.5626 -0.2116
   68SOPE    O2 8838   2.131   1.769   4.118 -0.0584 -0.4959  0.1093
   68SOPE    O3 8839   2.378   1.857   4.138  0.1596  0.1698  0.0979
   68SOPE    O4 8840   2.179   2.005   4.162  0.4392 -1.0201 -0.2308
   68SOPE    C6 8841   2.260   2.109   4.196  0.5237 -0.0092  0.3625
   68SOPE   H14 8842   2.195   2.197   4.199 -2.0437 -1.7917 -1.2211
   68SOPE   H15 8843   2.333   2.123   4.116  2.9894  0.2303  2.5787
   68SOPE    C7 8844   2.325   2.087   4.331  0.0679 -0.8764 -0.8680
   68SOPE   H16 8845   2.400   2.010   4.312  1.8655  1.0314 -1.7130
   68SOPE    O5 8846   2.230   2.062   4.426 -0.0108 -0.4120 -0.5368
   68SOPE    C8 8847   2.240   1.946   4.491  0.1198  0.4488 -0.7124
   68SOPE    O6 8848   2.342   1.872   4.500  0.8045  0.4696 -0.0186
   68SOPE    C9 8849   2.132   1.938   4.596 -0.1330 -0.0615 -0.2964
   68SOPE   H17 8850   2.083   1.848   4.558 -1.9292  1.2146 -1.1093
   68SOPE   H18 8851   2.061   2.021   4.592 -0.0240  0.1304  1.5340
   68SOPE   C10 8852   2.404   2.208   4.388 -0.8077 -0.0188  0.2138
   68SOPE   H19 8853   2.338   2.294   4.398 -1.1709 -0.3173  0.4456
   68SOPE   H20 8854   2.471   2.244   4.311 -1.1769  1.2780  0.4838
   68SOPE    O7 8855   2.470   2.170   4.509 -0.3831 -0.3271 -0.0588
   68SOPE   C11 8856   2.560   2.253   4.567 -0.1219 -0.5487 -0.0209
   68SOPE    O8 8857   2.577   2.371   4.544 -0.1592  0.0658 -0.1589
   68SOPE   C12 8858   2.622   2.177   4.688  0.1636  0.5942  0.6883
   68SOPE   H21 8859   2.718   2.133   4.661 -0.8737 -0.8811 -0.6935
   68SOPE   H22 8860   2.557   2.090   4.693  0.5955  0.2322  0.1572
   68SOPE   C13 8861   2.609   2.248   4.822 -0.5645 -0.4303  0.0324
   68SOPE   H23 8862   2.517   2.307   4.826 -1.4871 -1.9155  1.5999
   68SOPE   H24 8863   2.693   2.317   4.822 -0.7987 -0.1435 -0.1066
   68SOPE   C14 8864   2.630   2.151   4.943 -0.2607  0.3309  0.7393
   68SOPE   H25 8865   2.724   2.098   4.925 -0.3852  0.7851 -1.4227
   68SOPE   H26 8866   2.563   2.065   4.938  0.2287  0.0519 -2.8091
   68SOPE   C15 8867   2.632   2.213   5.075  0.0444  0.1844  0.3847
   68SOPE   H27 8868   2.543   2.276   5.079 -0.3515 -0.3331 -0.3378
   68SOPE   H28 8869   2.709   2.290   5.077 -1.6459  1.9301  0.4907
   68SOPE   C16 8870   2.656   2.118   5.195  0.2646  0.5997 -0.4660
   68SOPE   H29 8871   2.662   2.185   5.281  0.1654 -2.0105  1.6277
   68SOPE   H30 8872   2.755   2.074   5.182 -0.1770 -1.2743  2.1930
   68SOPE   C17 8873   2.542   2.013   5.216 -0.1726 -0.2478  1.0590
   68SOPE   H31 8874   2.510   1.962   5.125  1.7182 -0.6658  0.5929
   68SOPE   H32 8875   2.456   2.062   5.260 -0.8636  0.3999 -0.9559
   68SOPE   C18 8876   2.602   1.912   5.313 -0.8304 -0.5227 -0.1412
   68SOPE   H33 8877   2.625   1.967   5.404 -2.1764  0.8660 -0.6211
   68SOPE   H34 8878   2.699   1.878   5.277  0.3795  1.6081  1.0212
   68SOPE   C19 8879   2.516   1.795   5.348  0.4533 -0.7137 -0.1242
   68SOPE   H35 8880   2.500   1.743   5.254 -1.2054  0.0564 -0.2846
   68SOPE   C20 8881   2.473   1.759   5.471 -0.4362 -0.0174  0.1840
   68SOPE   H36 8882   2.427   1.662   5.480  0.4455 -0.4950 -0.3780
   68SOPE   C21 8883   2.487   1.829   5.598  0.2793 -0.0408 -1.2233
   68SOPE   H37 8884   2.541   1.923   5.586  0.3686 -0.0921 -1.2266
   68SOPE   H38 8885   2.548   1.763   5.659 -0.6287  0.5383  0.3298
   68SOPE   C22 8886   2.349   1.848   5.665  0.7533  0.2469  0.1371
   68SOPE   H39 8887   2.307   1.749   5.683  1.2722  0.0603  0.3360
   68SOPE   H40 8888   2.286   1.920   5.613  1.6994  1.6383  0.8621
   68SOPE   C23 8889   2.361   1.895   5.816 -0.2039  0.2318 -0.4545
   68SOPE   H41 8890   2.403   1.996   5.820 -0.8496  0.5204 -0.9053
   68SOPE   H42 8891   2.445   1.845   5.863  0.0857  0.7630 -0.3935
   68SOPE   C24 8892   2.230   1.897   5.901 -0.3931  0.6990 -0.0702
   68SOPE   H43 8893   2.142   1.848   5.860  0.5295 -0.5187 -0.6347
   68SOPE   H44 8894   2.201   2.001   5.886  0.2883  0.8157 -0.6113
   68SOPE   C25 8895   2.260   1.872   6.048 -0.3064  0.4613  0.4443
   68SOPE   H45 8896   2.334   1.945   6.080 -0.6852  1.2470 -0.4362
   68SOPE   H46 8897   2.310   1.779   6.072  0.8526  0.3162 -2.3542
   68SOPE   C26 8898   2.126   1.894   6.130 -0.4478 -0.9385 -0.4335
   68SOPE   H47 8899   2.058   1.966   6.084  0.0436  1.6851  2.7613
   68SOPE   H48 8900   2.065   1.804   6.122 -0.3805 -1.0727  0.5766
   68SOPE   C27 8901   2.143   1.911   6.280  0.4183 -0.2891  0.3407
   68SOPE   H49 8902   2.049   1.954   6.317 -0.3226 -0.5166 -1.2332
   68SOPE   H50 8903   2.228   1.977   6.295  1.5324 -1.6544  0.0842
   68SOPE   C27 8904   2.184   1.785   6.353  0.4158 -0.3978 -0.5741
   68SOPE   H51 8905   2.131   1.702   6.306 -0.4652  0.9036 -1.9401
   68SOPE   H52 8906   2.290   1.765   6.346  0.3025 -2.2584  2.0839
   68SOPE   H53 8907   2.157   1.781   6.459 -1.1994  1.4029 -0.8808
   68SOPE   C29 8908   2.180   1.927   4.743 -0.2922 -0.3355 -0.2296
   68SOPE   H54 8909   2.267   1.860   4.744  0.4054  0.5565  2.0856
   68SOPE   H55 8910   2.102   1.883   4.805 -0.0946 -0.5784 -0.1472
   68SOPE   C30 8911   2.215   2.068   4.809  0.0098 -0.3066  0.2641
   68SOPE   H56 8912   2.135   2.141   4.796  0.2609  0.0881  0.8929
   68SOPE   H57 8913   2.297   2.102   4.745 -1.0095 -0.8149 -1.3454
   68SOPE   C31 8914   2.257   2.052   4.958  0.6710 -0.7493  0.3491
   68SOPE   H58 8915   2.310   2.139   4.997 -0.0943 -1.2081  2.4670
   68SOPE   H59 8916   2.328   1.970   4.973  2.5644  0.9776  1.0804
   68SOPE   C32 8917   2.141   2.012   5.047  0.1556 -0.1873 -0.0430
   68SOPE   H60 8918   2.105   1.915   5.013  1.0949 -0.9639  1.1008
   68SOPE   H61 8919   2.053   2.074   5.035  1.0582  1.6958  2.6970
   68SOPE   C33 8920   2.185   2.004   5.196 -0.2949  0.2760 -0.1886
   68SOPE   H62 8921   2.244   2.095   5.212  0.4039 -0.3898  1.1220
   68SOPE   H63 8922   2.259   1.928   5.218 -0.6606 -0.7706 -2.4795
   68SOPE   C34 8923   2.074   1.987   5.299 -0.4787 -0.5997  0.2243
   68SOPE   H64 8924   1.986   2.050   5.283 -0.4579 -0.7282 -0.4415
   68SOPE   H65 8925   2.125   1.997   5.394 -2.5931 -0.4809  1.3858
   68SOPE   C35 8926   2.010   1.845   5.279 -0.5394  0.3685 -0.1619
   68SOPE   H66 8927   2.082   1.769   5.310 -0.5419 -0.0471 -1.1563
   68SOPE   H67 8928   1.980   1.832   5.175 -1.7262 -1.4139  0.3847
   68SOPE   C36 8929   1.883   1.834   5.361  0.1015  0.0464  0.3863
   68SOPE   H68 8930   1.833   1.739   5.347 -2.2288  1.3070  0.0143
   68SOPE   H69 8931   1.812   1.913   5.337 -1.1846 -0.6010  1.9293
   68SOPE   C37 8932   1.905   1.852   5.510 -0.4150 -0.3191  0.8703
   68SOPE   H70 8933   1.924   1.957   5.529 -0.2044 -0.3270  0.7139
   68SOPE   H71 8934   2.001   1.807   5.534  1.7524  4.2291  1.1761
   68SOPE   C38 8935   1.789   1.803   5.597 -0.3858  0.1572  0.5889
   68SOPE   H72 8936   1.787   1.695   5.579 -0.1248  0.3059 -0.3656
   68SOPE   H73 8937   1.690   1.842   5.573 -0.8629 -2.5084 -2.0540
   68SOPE   C39 8938   1.819   1.832   5.741  0.1132 -0.2231 -0.5304
   68SOPE   H74 8939   1.849   1.937   5.750 -0.5408 -0.1450  0.7768
   68SOPE   H75 8940   1.910   1.781   5.776  1.4139  1.5604 -1.2350
   68SOPE   C40 8941   1.705   1.790   5.843 -0.4025 -0.1537 -0.3931
   68SOPE   H76 8942   1.700   1.682   5.850  0.0282 -0.1509 -0.0059
   68SOPE   H77 8943   1.608   1.824   5.806 -0.3733 -0.9002 -1.1552
   68SOPE   C41 8944   1.745   1.845   5.985 -0.8531 -0.2178  0.2054
   68SOPE   H78 8945   1.782   1.947   5.978 -1.1512 -0.0795  0.6301
   68SOPE   H79 8946   1.835   1.786   6.008  0.3171  1.5179  0.1921
   68SOPE   C42 8947   1.643   1.827   6.096  0.0112  0.2994  0.0054
   68SOPE   H80 8948   1.624   1.721   6.115 -0.4570  0.5453  0.9080
   68SOPE   H81 8949   1.554   1.881   6.062  1.2827  0.0090 -4.0914
   68SOPE   C43 8950   1.701   1.905   6.210 -0.5825  0.1289 -0.0751
   68SOPE   H82 8951   1.795   1.857   6.236 -1.7509 -1.2258  1.8066
   68SOPE   H83 8952   1.717   2.010   6.185 -3.4849  0.7253  0.3150
   68SOPE   C44 8953   1.618   1.901   6.340  0.5528  0.1410 -0.1530
   68SOPE   H84 8954   1.523   1.953   6.327 -0.3547 -1.5704 -0.6188
   68SOPE   H85 8955   1.601   1.802   6.382 -0.9874 -0.2241 -1.5721
   68SOPE   H86 8956   1.667   1.950   6.424  1.7971  1.7040 -1.7667
   69SOPE    N1 8957   1.998   0.233   4.018 -0.0084 -0.0011  0.1224
   69SOPE    C1 8958   1.920   0.122   3.956  0.0093  0.3179  0.3688
   69SOPE    H1 8959   1.990   0.065   3.894  0.2455  1.3826 -0.3520
   69SOPE    H2 8960   1.842   0.150   3.886  0.3095 -3.0814 -1.4630
   69SOPE    H3 8961   2.053   0.278   3.946  1.0880  2.6202  2.5028
   69SOPE    H4 8962   2.061   0.186   4.082  1.7310 -3.6605 -4.0050
   69SOPE    H5 8963   1.933   0.297   4.061 -1.6955 -2.5876  1.5490
   69SOPE    C5 8964   1.853   0.039   4.065  0.3366  0.3349  0.4184
   69SOPE   H12 8965   1.799   0.106   4.132  1.1867  0.6877  0.7665
   69SOPE   H13 8966   1.930   5.935   4.123  0.7899 -0.1980 -0.6563
   69SOPE    P1 8967   1.801   5.748   3.958  0.1492 -0.2709  0.1011
   69SOPE    O1 8968   1.710   5.708   3.846 -0.3257  0.0182 -0.3954
   69SOPE    O2 8969   1.946   5.732   3.939 -0.0404 -0.2441  0.5888
   69SOPE    O3 8970   1.761   5.893   4.005  0.3061 -0.0707  0.0931
   69SOPE    O4 8971   1.768   5.649   4.075  0.8499  0.4218  0.1322
   69SOPE    C6 8972   1.636   5.634   4.127 -0.5508 -0.6360 -0.3289
   69SOPE   H14 8973   1.632   5.535   4.171 -2.1873 -0.0487  0.8819
   69SOPE   H15 8974   1.562   5.630   4.047 -3.3855  1.4959  2.0466
   69SOPE    C7 8975   1.604   5.734   4.234  0.4349  0.6553 -0.1771
   69SOPE   H16 8976   1.605   5.837   4.196 -2.2059  0.4418 -0.9069
   69SOPE    O5 8977   1.693   5.704   4.347  1.0363  0.0645  0.4206
   69SOPE    C8 8978   1.787   5.792   4.385 -0.3425 -0.8469 -0.1940
   69SOPE    O6 8979   1.791   5.909   4.348  0.0908  1.0237 -0.0367
   69SOPE    C9 8980   1.887   5.736   4.485 -0.2068  0.4123  0.6266
   69SOPE   H17 8981   1.955   5.662   4.441 -2.4721 -2.3723  1.6011
   69SOPE   H18 8982   1.822   5.696   4.564  0.8230 -0.2411  1.1582
   69SOPE   C10 8983   1.461   5.712   4.277  0.5222 -0.0248 -0.6096
   69SOPE   H19 8984   1.440   5.611   4.312 -2.9274  0.6300 -0.5953
   69SOPE   H20 8985   1.393   5.727   4.193  0.1250 -0.2203 -0.3308
   69SOPE    O7 8986   1.436   5.798   4.387 -0.3499 -0.5759  0.5284
   69SOPE   C11 8987   1.315   5.842   4.410  0.0291  0.1678 -0.1448
   69SOPE    O8 8988   1.213   5.789   4.371  0.1529  0.0202  0.3234
   69SOPE   C12 8989   1.315   5.928   4.537 -0.5624 -0.5572 -0.7672
   69SOPE   H21 8990   1.213   5.946   4.572  0.4800  2.3869  1.0386
   69SOPE   H22 8991   1.340   0.080   4.504 -3.7721 -0.2922 -2.5251
   69SOPE   C13 8992   1.410   5.881   4.652  0.2399 -0.0658  0.4132
   69SOPE   H23 8993   1.406   0.006   4.732  2.0155 -0.8503  1.2550
   69SOPE   H24 8994   1.515   5.887   4.624 -0.4039 -0.0873 -2.1520
   69SOPE   C14 8995   1.371   5.751   4.726  0.6513 -0.4340 -0.5307
   69SOPE   H25 8996   1.441   5.715   4.802 -2.6306 -1.8987  1.9461
   69SOPE   H26 8997   1.389   5.671   4.654  1.2395 -1.4048  0.6665
   69SOPE   C15 8998   1.238   5.737   4.791  0.0576  0.1184  0.3696
   69SOPE   H27 8999   1.224   5.637   4.832 -0.4600  0.6654  1.5592
   69SOPE   H28 9000   1.159   5.734   4.716  0.2227  0.2221  0.1893
   69SOPE   C16 9001   1.210   5.856   4.890  0.4432  0.3535  0.1150
   69SOPE   H29 9002   1.103   5.874   4.899  0.5400  0.1929  1.6203
   69SOPE   H30 9003   1.234   5.947   4.834 -0.2218  0.5624  0.1635
   69SOPE   C17 9004   1.284   5.848   5.024 -0.5062  0.0864 -0.1791
   69SOPE   H31 9005   1.392   5.848   5.014 -0.3568  0.5791  1.3130
   69SOPE   H32 9006   1.266   5.751   5.071  2.6907  0.2827  1.5927
   69SOPE   C18 9007   1.252   0.004   5.131  0.0741  0.2285  0.1572
   69SOPE   H33 9008   1.265   5.910   5.231  2.2448 -0.4009 -0.3744
   69SOPE   H34 9009   1.145   0.023   5.127  0.1378  0.2887 -2.0545
   69SOPE   C19 9010   1.346   0.121   5.125 -0.5328 -0.6801 -0.2785
   69SOPE   H35 9011   1.341   0.181   5.035  4.2659  0.1426 -0.1354
   69SOPE   C20 9012   1.446   0.155   5.206 -0.1816 -0.4218 -0.3940
   69SOPE   H36 9013   1.508   0.234   5.165  1.0342 -1.1840 -0.0402
   69SOPE   C21 9014   1.497   0.089   5.333 -0.2867  0.7811  0.1309
   69SOPE   H37 9015   1.590   0.045   5.296 -0.2215  1.1067 -0.0919
   69SOPE   H38 9016   1.434   0.004   5.361  0.1129  0.7267  0.8614
   69SOPE   C22 9017   1.515   0.191   5.454 -0.8168 -0.3299 -0.3562
   69SOPE   H39 9018   1.547   0.124   5.534 -1.8079 -1.7362 -1.0977
   69SOPE   H40 9019   1.424   0.244   5.483  0.0179  0.5832  0.6154
   69SOPE   C23 9020   1.630   0.294   5.424 -0.1447 -0.0413 -0.8625
   69SOPE   H41 9021   1.601   0.346   5.333 -0.6362  0.0630 -0.6484
   69SOPE   H42 9022   1.718   0.233   5.405  0.1865 -0.0619  0.6394
   69SOPE   C24 9023   1.649   0.376   5.548 -0.1517 -0.0218  0.2334
   69SOPE   H43 9024   1.631   0.317   5.637 -1.8866 -1.9252 -1.3361
   69SOPE   H44 9025   1.574   0.455   5.550 -0.5666 -0.4257  0.7310
   69SOPE   C25 9026   1.792   0.432   5.565  0.2589  0.7897 -0.7863
   69SOPE   H45 9027   1.851   0.351   5.609 -1.1806 -0.5465 -1.2583
   69SOPE   H46 9028   1.803   0.509   5.640 -2.3368  0.8028 -0.3868
   69SOPE   C26 9029   1.850   0.499   5.437 -0.0851  0.2534 -0.0043
   69SOPE   H47 9030   1.945   0.550   5.451  0.1585 -0.3671  0.6114
   69SOPE   H48 9031   1.884   0.413   5.379 -0.7162  0.5885 -0.8830
   69SOPE   C27 9032   1.757   0.587   5.351 -0.4436 -0.1671  0.3031
   69SOPE   H49 9033   1.708   0.656   5.419 -2.3819 -0.7057 -0.5063
   69SOPE   H50 9034   1.676   0.528   5.306 -0.6710  0.7912 -0.5606
   69SOPE   C27 9035   1.840   0.652   5.238  0.6028 -0.2905 -0.2874
   69SOPE   H51 9036   1.921   0.714   5.276 -1.2704  1.3042  1.2075
   69SOPE   H52 9037   1.888   0.572   5.182  1.0699  1.0709 -1.8852
   69SOPE   H53 9038   1.776   0.706   5.168  0.1536 -1.3705 -0.7277
   69SOPE   C29 9039   1.987   5.842   4.536  0.0120 -0.2182 -0.5333
   69SOPE   H54 9040   2.042   5.891   4.455 -1.4874  0.2556 -1.2857
   69SOPE   H55 9041   2.068   5.783   4.579 -0.3260 -1.2111 -1.2441
   69SOPE   C30 9042   1.929   5.942   4.629 -0.0677 -0.5751  0.2877
   69SOPE   H56 9043   1.848   0.043   4.576  1.1540  0.6081 -0.5057
   69SOPE   H57 9044   1.994   0.069   4.672  0.5820  0.4404 -2.3545
   69SOPE   C31 9045   1.876   5.861   4.751  0.5257  0.6011  0.0454
   69SOPE   H58 9046   1.922   5.763   4.761 -1.1445 -0.5513 -2.8728
   69SOPE   H59 9047   1.768   5.856   4.736  0.6693 -0.7553 -0.5032
   69SOPE   C32 9048   1.882   5.937   4.886  0.7119 -0.6850  0.0599
   69SOPE   H60 9049   1.826   0.082   4.881  1.5051 -0.2792 -2.0277
   69SOPE   H61 9050   1.987   0.009   4.904  0.6935  0.0241 -0.6297
   69SOPE   C33 9051   1.839   5.850   5.003  0.3986 -0.1008  0.3142
   69SOPE   H62 9052   1.890   5.754   5.000 -0.5760 -0.5783 -2.4433
   69SOPE   H63 9053   1.739   5.810   4.990  0.9235 -0.4958 -2.8025
   69SOPE   C34 9054   1.864   5.904   5.146  0.3528 -0.1460  0.0018
   69SOPE   H64 9055   1.811   0.049   5.163 -0.3485 -0.6485  0.6011
   69SOPE   H65 9056   1.969   5.931   5.158  0.5148 -0.6062 -0.3675
   69SOPE   C35 9057   1.827   5.801   5.258  0.5464 -0.3311 -0.0024
   69SOPE   H66 9058   1.881   5.709   5.236  0.7039 -0.2154 -0.0986
   69SOPE   H67 9059   1.722   5.775   5.248 -0.3979  3.6788 -1.3037
   69SOPE   C36 9060   1.849   5.858   5.397  0.0895  0.3509  0.0431
   69SOPE   H68 9061   1.799   0.006   5.403  2.7302  1.9832 -2.3324
   69SOPE   H69 9062   1.956   5.880   5.408  0.3990 -0.6412 -0.8762
   69SOPE   C37 9063   1.798   5.753   5.512 -0.0136  0.0860  0.4761
   69SOPE   H70 9064   1.691   5.734   5.521 -0.1077 -0.0967 -1.0081
   69SOPE   H71 9065   1.830   5.789   5.610  0.2389 -0.6912  0.6850
   69SOPE   C38 9066   1.868   5.621   5.495 -0.4312  0.4853 -0.4061
   69SOPE   H72 9067   1.821   5.582   5.404  1.7122  0.3234 -1.4895
   69SOPE   H73 9068   1.839   5.557   5.578  1.5524  1.3901  1.0048
   69SOPE   C39 9069   2.015   5.608   5.514 -0.2687 -0.3449  0.2281
   69SOPE   H74 9070   2.047   5.629   5.616 -0.4239  1.6971 -0.1240
   69SOPE   H75 9071   2.064   5.679   5.448  0.1209 -0.6752  0.1605
   69SOPE   C40 9072   2.068   5.466   5.467  0.0385 -0.0965 -0.8436
   69SOPE   H76 9073   2.006   5.384   5.502 -1.0982  0.2549 -2.0020
   69SOPE   H77 9074   2.167   5.441   5.506  0.2061 -0.2195 -1.3353
   69SOPE   C41 9075   2.080   5.453   5.317  0.5602 -0.1240  0.0953
   69SOPE   H78 9076   2.181   5.486   5.293 -0.0993  2.2811  0.4578
   69SOPE   H79 9077   2.007   5.521   5.272  1.7498  1.8232  1.0539
   69SOPE   C42 9078   2.054   5.311   5.257 -0.5330  0.1083 -0.4876
   69SOPE   H80 9079   2.098   5.239   5.326 -0.8084  1.2340  0.8957
   69SOPE   H81 9080   2.093   5.299   5.156 -1.9393  0.7388 -1.1201
   69SOPE   C43 9081   1.908   5.260   5.265  0.3761 -0.1824  0.3362
   69SOPE   H82 9082   1.868   5.291   5.362  0.2027  0.9591 -0.0852
   69SOPE   H83 9083   1.843   5.319   5.200  4.0436  2.2209 -1.2878
   69SOPE   C44 9084   1.912   5.106   5.238  0.2311  0.2765  0.4363
   69SOPE   H84 9085   1.817   5.069   5.276 -0.6658  0.0700 -1.8987
   69SOPE   H85 9086   1.907   5.067   5.136  1.6505  1.9667 -0.2946
   69SOPE   H86 9087   1.986   5.054   5.299  0.2538 -0.0979  0.0993
   70SOPE    N1 9088   3.179   4.351   3.672  0.2026  0.1203  0.8792
   70SOPE    C1 9089   3.134   4.421   3.792  0.1374 -0.2309  0.1005
   70SOPE    H1 9090   3.221   4.480   3.822 -0.5729  0.1824  1.3639
   70SOPE    H2 9091   3.114   4.358   3.878 -1.2020 -2.1986 -1.6018
   70SOPE    H3 9092   3.276   4.324   3.684  0.2154  0.6133  1.9590
   70SOPE    H4 9093   3.174   4.413   3.593  2.2356 -0.1268  0.5276
   70SOPE    H5 9094   3.113   4.275   3.671 -0.3784  0.5680  3.0263
   70SOPE    C5 9095   3.017   4.515   3.745  0.2731 -0.1092  0.3884
   70SOPE   H12 9096   2.927   4.459   3.718 -0.5418  2.2007 -1.9387
   70SOPE   H13 9097   3.028   4.574   3.653 -2.4474  0.2243  0.2348
   70SOPE    P1 9098   3.027   4.733   3.883  0.7322  0.0261  0.3811
   70SOPE    O1 9099   3.021   4.821   3.758 -0.2506 -0.4380  0.3869
   70SOPE    O2 9100   2.956   4.773   3.999  0.3483 -0.3935 -0.9819
   70SOPE    O3 9101   2.961   4.596   3.843 -0.8035 -0.1980 -0.2773
   70SOPE    O4 9102   3.173   4.696   3.925 -0.0237 -0.6904  0.2372
   70SOPE    C6 9103   3.192   4.624   4.046 -0.2284 -0.1842 -0.3865
   70SOPE   H14 9104   3.281   4.561   4.033 -0.1225  0.0726 -0.9556
   70SOPE   H15 9105   3.113   4.553   4.071  1.6251 -2.5128 -0.8981
   70SOPE    C7 9106   3.213   4.722   4.159 -0.1548 -0.5899  0.6729
   70SOPE   H16 9107   3.133   4.795   4.166  0.1873 -0.1072 -0.4505
   70SOPE    O5 9108   3.333   4.795   4.151  0.8501 -0.0013  0.2134
   70SOPE    C8 9109   3.325   4.923   4.107 -0.2649 -0.5826 -0.0272
   70SOPE    O6 9110   3.228   4.991   4.086 -0.0061 -1.1141 -0.0754
   70SOPE    C9 9111   3.466   4.974   4.109 -0.2841 -0.0027  0.6000
   70SOPE   H17 9112   3.502   4.985   4.007  0.5964 -0.2000  0.8891
   70SOPE   H18 9113   3.534   4.899   4.149 -0.6885 -0.6056  0.1690
   70SOPE   C10 9114   3.231   4.643   4.296 -0.7228  0.1254 -0.7999
   70SOPE   H19 9115   3.319   4.578   4.290 -2.4498 -2.4291  0.9524
   70SOPE   H20 9116   3.146   4.578   4.313 -0.1645  0.0568  1.9541
   70SOPE    O7 9117   3.260   4.745   4.394 -0.4692 -0.6036  0.2967
   70SOPE   C11 9118   3.149   4.798   4.459 -0.2468  0.1896 -0.2505
   70SOPE    O8 9119   3.034   4.778   4.423 -0.5328  0.2500  0.1319
   70SOPE   C12 9120   3.190   4.920   4.546  0.5012  0.6810  0.1964
   70SOPE   H21 9121   3.168   5.000   4.476 -0.5356 -2.3245 -3.0640
   70SOPE   H22 9122   3.298   4.910   4.561  0.4477  0.7107  0.6019
   70SOPE   C13 9123   3.097   4.928   4.668 -0.3341  0.2474 -0.2022
   70SOPE   H23 9124   3.132   4.860   4.746 -0.6185  0.6452  0.2704
   70SOPE   H24 9125   2.994   4.894   4.664 -0.4703  0.6103  0.1413
   70SOPE   C14 9126   3.084   5.066   4.720 -0.5323  0.3829 -0.8277
   70SOPE   H25 9127   3.004   5.079   4.793 -0.6304 -1.9419 -0.4558
   70SOPE   H26 9128   3.066   5.137   4.640 -0.4198  0.3437 -0.8888
   70SOPE   C15 9129   3.205   5.111   4.802  0.3155 -0.0979  0.4072
   70SOPE   H27 9130   3.213   5.218   4.782 -2.0203 -0.0364 -0.3510
   70SOPE   H28 9131   3.302   5.100   4.753 -0.3504 -0.6996 -0.7848
   70SOPE   C16 9132   3.205   5.068   4.952 -0.5629 -0.0120  0.8176
   70SOPE   H29 9133   3.310   5.066   4.981  0.2980 -0.9174 -2.2371
   70SOPE   H30 9134   3.166   4.966   4.945  2.1864 -1.0472 -0.1627
   70SOPE   C17 9135   3.122   5.154   5.054  0.1207 -0.3714  0.4588
   70SOPE   H31 9136   3.043   5.093   5.098  1.3942 -1.9709  0.5970
   70SOPE   H32 9137   3.068   5.241   5.015  0.2660  1.0598  3.3571
   70SOPE   C18 9138   3.217   5.206   5.166  0.1389  0.7739  0.3302
   70SOPE   H33 9139   3.254   5.302   5.131 -0.8686  0.2406 -2.2781
   70SOPE   H34 9140   3.299   5.134   5.170  0.0115  0.4439 -2.3732
   70SOPE   C19 9141   3.141   5.224   5.293  0.4089  0.2113 -0.5901
   70SOPE   H35 9142   3.056   5.289   5.282 -0.2285 -0.0546  2.3276
   70SOPE   C20 9143   3.174   5.189   5.417  0.6327  0.1077 -0.1934
   70SOPE   H36 9144   3.096   5.214   5.488  0.2297 -0.0802 -0.5646
   70SOPE   C21 9145   3.272   5.092   5.459 -0.0800  0.1449 -0.2574
   70SOPE   H37 9146   3.317   5.047   5.371  1.1513 -0.4474  0.6612
   70SOPE   H38 9147   3.230   5.008   5.514 -0.4393  1.5490  1.6636
   70SOPE   C22 9148   3.373   5.155   5.542  0.0335  0.7154  0.0834
   70SOPE   H39 9149   3.431   5.240   5.508  1.7045 -0.7658 -0.8683
   70SOPE   H40 9150   3.457   5.087   5.558  0.6189  1.0701 -1.3824
   70SOPE   C23 9151   3.307   5.194   5.678 -0.1294 -0.4601 -0.5935
   70SOPE   H41 9152   3.240   5.112   5.703  0.5865 -0.3536  1.8460
   70SOPE   H42 9153   3.246   5.279   5.650  0.3974 -0.1437 -0.7958
   70SOPE   C24 9154   3.404   5.241   5.795  0.1986  0.0852  0.8597
   70SOPE   H43 9155   3.338   5.262   5.878 -0.3643 -0.6434  0.6007
   70SOPE   H44 9156   3.461   5.330   5.765 -2.5511  1.1757 -1.4435
   70SOPE   C25 9157   3.503   5.128   5.834  0.0609  0.1523 -0.2602
   70SOPE   H45 9158   3.574   5.179   5.899 -0.1333  0.5869 -0.3833
   70SOPE   H46 9159   3.560   5.092   5.749  0.6537 -0.6052  0.4474
   70SOPE   C26 9160   3.451   5.003   5.902 -0.4447  0.5679 -0.3712
   70SOPE   H47 9161   3.377   4.949   5.842 -1.1759  2.7373 -1.4499
   70SOPE   H48 9162   3.533   4.937   5.930 -1.4128 -0.0221  1.1840
   70SOPE   C27 9163   3.376   5.044   6.034 -0.0338 -0.2651  0.0653
   70SOPE   H49 9164   3.269   5.048   6.010  0.3807  1.8202 -1.5684
   70SOPE   H50 9165   3.403   5.141   6.076  1.4233 -1.0307  0.9185
   70SOPE   C27 9166   3.406   4.955   6.155  0.7319 -0.1754 -0.3746
   70SOPE   H51 9167   3.510   4.923   6.156  0.6438 -0.4668 -0.3858
   70SOPE   H52 9168   3.385   4.996   6.254 -0.5737 -0.8911 -0.3396
   70SOPE   H53 9169   3.358   4.857   6.156  2.3343 -1.0347 -3.0560
   70SOPE   C29 9170   3.487   5.117   4.164 -0.2861 -0.2474 -0.2843
   70SOPE   H54 9171   3.435   5.185   4.096  1.8715  0.3351 -1.4054
   70SOPE   H55 9172   3.593   5.144   4.158 -0.6705  1.1290 -1.2423
   70SOPE   C30 9173   3.452   5.123   4.320  0.1334  0.0982 -0.1122
   70SOPE   H56 9174   3.435   5.020   4.350  3.8237 -0.6413 -0.2412
   70SOPE   H57 9175   3.351   5.161   4.333 -0.3084 -1.1008  0.0265
   70SOPE   C31 9176   3.567   5.179   4.413 -0.2396 -0.1208 -0.0858
   70SOPE   H58 9177   3.568   5.285   4.391 -1.8400 -0.4225 -1.7550
   70SOPE   H59 9178   3.664   5.154   4.371  0.0253  1.5497 -0.4660
   70SOPE   C32 9179   3.544   5.139   4.562  0.1975  0.3965  0.4378
   70SOPE   H60 9180   3.570   5.033   4.567 -1.8089 -0.0896  0.7728
   70SOPE   H61 9181   3.439   5.149   4.589 -0.1195  1.2291 -1.0341
   70SOPE   C33 9182   3.638   5.195   4.668 -0.1027 -0.4819 -0.8923
   70SOPE   H62 9183   3.640   5.303   4.651 -0.1260 -0.5272 -1.1944
   70SOPE   H63 9184   3.732   5.141   4.656  0.7768  0.6991  0.4231
   70SOPE   C34 9185   3.583   5.178   4.816 -0.2131 -0.6406  0.2102
   70SOPE   H64 9186   3.570   5.072   4.839  0.2825 -0.5464  0.9583
   70SOPE   H65 9187   3.485   5.220   4.838 -0.5529 -0.8742 -0.8136
   70SOPE   C35 9188   3.670   5.225   4.930  0.5680 -0.1553  0.0059
   70SOPE   H66 9189   3.663   5.333   4.938  1.6958 -0.2354  2.5557
   70SOPE   H67 9190   3.774   5.203   4.907  0.4397  0.2510 -0.9884
   70SOPE   C36 9191   3.626   5.182   5.073  0.0730  0.8377  0.3854
   70SOPE   H68 9192   3.660   5.080   5.093 -0.8231  0.2644 -0.9167
   70SOPE   H69 9193   3.519   5.193   5.086  0.4285  4.4999  0.8471
   70SOPE   C37 9194   3.692   5.271   5.180 -0.1764  0.0147  0.2170
   70SOPE   H70 9195   3.662   5.375   5.172  0.7548  0.3371  0.8017
   70SOPE   H71 9196   3.794   5.267   5.142 -0.2395 -0.6953  0.1189
   70SOPE   C38 9197   3.677   5.230   5.330  0.3886  0.0501 -0.0929
   70SOPE   H72 9198   3.715   5.128   5.333 -0.2870 -0.3141 -3.0228
   70SOPE   H73 9199   3.572   5.217   5.357  0.4256  1.7838  1.0012
   70SOPE   C39 9200   3.762   5.317   5.431  0.6376  0.4874  0.6184
   70SOPE   H74 9201   3.710   5.412   5.439  0.4528  0.4356  0.0336
   70SOPE   H75 9202   3.857   5.341   5.382  0.7024  0.1524  0.5758
   70SOPE   C40 9203   3.790   5.242   5.569  0.6892 -0.1875  0.5002
   70SOPE   H76 9204   3.858   5.158   5.569  2.6964  1.4049  0.2079
   70SOPE   H77 9205   3.694   5.208   5.609 -0.5784 -1.1489 -3.1575
   70SOPE   C41 9206   3.849   5.337   5.675 -0.0838 -0.6330 -0.7467
   70SOPE   H78 9207   3.823   5.298   5.773 -1.5338  1.3580 -0.3150
   70SOPE   H79 9208   3.802   5.435   5.672 -0.2002 -0.6127  1.1306
   70SOPE   C42 9209   3.999   5.376   5.653  0.1573 -0.3135  0.5695
   70SOPE   H80 9210   4.031   5.473   5.692 -3.1245  0.9237  0.3249
   70SOPE   H81 9211   4.030   5.354   5.551 -0.4304 -2.1230  0.7744
   70SOPE   C43 9212   4.096   5.280   5.727  0.6141 -0.5579 -0.3033
   70SOPE   H82 9213   4.083   5.303   5.833 -1.4612 -2.8612 -0.0215
   70SOPE   H83 9214   4.052   5.184   5.701 -0.6458  0.2756 -1.3076
   70SOPE   C44 9215   4.236   5.286   5.674 -0.0521 -0.1689  0.3890
   70SOPE   H84 9216   4.246   5.241   5.575 -4.0745 -3.8806  1.5225
   70SOPE   H85 9217   4.275   5.387   5.680 -2.4639  1.0467 -2.7375
   70SOPE   H86 9218   4.293   5.227   5.745 -0.2911 -1.3859 -0.4019
   71SOPE    N1 9219   2.316   2.676   4.064 -0.0741 -0.3859  0.7517
   71SOPE    C1 9220   2.372   2.553   4.005  0.7912  0.2235 -0.1382
   71SOPE    H1 9221   2.442   2.581   3.926  0.8821  0.2399 -0.0530
   71SOPE    H2 9222   2.297   2.498   3.949 -1.1761  1.1915  1.4820
   71SOPE    H3 9223   2.287   2.727   3.982  0.8596  0.0528  0.6823
   71SOPE    H4 9224   2.398   2.714   4.111  0.0409  2.2324 -1.4945
   71SOPE    H5 9225   2.241   2.655   4.129 -0.5689  1.0875  0.6687
   71SOPE    C5 9226   2.449   2.471   4.108  0.3969 -0.6172  0.2405
   71SOPE   H12 9227   2.403   2.454   4.205 -1.8446  0.3454 -0.6306
   71SOPE   H13 9228   2.540   2.528   4.130  1.5718 -1.2370 -2.8422
   71SOPE    P1 9229   2.620   2.286   4.001  0.1451  0.1045  0.3203
   71SOPE    O1 9230   2.601   2.144   3.963  0.1099 -0.0891 -0.2270
   71SOPE    O2 9231   2.663   2.379   3.895 -0.0225 -0.3697  0.1537
   71SOPE    O3 9232   2.482   2.341   4.054 -0.1859  0.0687  0.1439
   71SOPE    O4 9233   2.721   2.282   4.118 -0.2963 -0.0705  0.0580
   71SOPE    C6 9234   2.771   2.407   4.177 -0.1701  0.1269  0.1237
   71SOPE   H14 9235   2.702   2.448   4.251  1.5061  1.6278  0.8791
   71SOPE   H15 9236   2.791   2.490   4.109  0.5837 -0.0845  0.0794
   71SOPE    C7 9237   2.904   2.365   4.245  1.0042 -0.0293 -0.6541
   71SOPE   H16 9238   2.980   2.339   4.171  0.5275 -0.0984 -1.1272
   71SOPE    O5 9239   2.875   2.251   4.327  0.5359  0.3340  0.5731
   71SOPE    C8 9240   2.966   2.152   4.343 -0.4483  0.1719 -0.6985
   71SOPE    O6 9241   3.088   2.165   4.316 -0.0913 -0.4751  0.5427
   71SOPE    C9 9242   2.925   2.071   4.467 -0.8176 -0.2638 -0.0936
   71SOPE   H17 9243   2.830   2.019   4.458 -0.8659 -0.2534  0.3279
   71SOPE   H18 9244   2.915   2.152   4.540 -0.5960 -0.8200  0.5675
   71SOPE   C10 9245   2.961   2.487   4.325  0.4097  0.0832  0.3785
   71SOPE   H19 9246   2.942   2.583   4.277  0.2219  0.4199  1.1121
   71SOPE   H20 9247   3.069   2.479   4.335  0.5019  2.4238  1.6140
   71SOPE    O7 9248   2.903   2.486   4.454  0.2827 -0.1033 -0.1417
   71SOPE   C11 9249   2.812   2.580   4.481 -0.2392  0.7728 -0.3131
   71SOPE    O8 9250   2.766   2.662   4.401  0.3128 -0.3858  0.4329
   71SOPE   C12 9251   2.776   2.597   4.629  0.0820  0.1308  0.2094
   71SOPE   H21 9252   2.767   2.502   4.683 -1.4522  0.8496  1.2776
   71SOPE   H22 9253   2.675   2.639   4.631  0.0443  0.0438  0.1805
   71SOPE   C13 9254   2.861   2.706   4.701  0.2780 -0.1167 -0.0468
   71SOPE   H23 9255   2.895   2.781   4.629 -1.2136  0.6336  0.0008
   71SOPE   H24 9256   2.951   2.672   4.752 -0.1415 -0.3882  0.5129
   71SOPE   C14 9257   2.787   2.773   4.820  0.3350 -0.2731  0.4828
   71SOPE   H25 9258   2.703   2.826   4.775  0.7873 -0.2129 -0.3068
   71SOPE   H26 9259   2.850   2.848   4.868 -1.0508  1.4478 -0.3396
   71SOPE   C15 9260   2.748   2.664   4.920 -0.2377 -0.1338 -0.4108
   71SOPE   H27 9261   2.833   2.603   4.948  0.0306  0.4962  0.1673
   71SOPE   H28 9262   2.666   2.608   4.875 -0.1126 -0.1013 -0.6793
   71SOPE   C16 9263   2.700   2.714   5.058 -0.4089 -0.0586 -0.7603
   71SOPE   H29 9264   2.618   2.783   5.040  0.6476  1.0345 -1.4234
   71SOPE   H30 9265   2.767   2.778   5.115 -1.0835  0.5329 -0.6308
   71SOPE   C17 9266   2.656   2.594   5.141 -0.5596  0.1506 -0.2019
   71SOPE   H31 9267   2.726   2.511   5.137  2.0544  2.3901 -3.6072
   71SOPE   H32 9268   2.567   2.552   5.093 -0.5126 -2.7493  2.0801
   71SOPE   C18 9269   2.623   2.618   5.294  0.7790  0.3024 -0.3575
   71SOPE   H33 9270   2.707   2.625   5.363  1.2365  1.4517 -0.9985
   71SOPE   H34 9271   2.566   2.530   5.321 -0.2770  0.6121 -1.5110
   71SOPE   C19 9272   2.527   2.736   5.306  0.4204  0.3541  0.6446
   71SOPE   H35 9273   2.467   2.758   5.219  0.9191  0.2577  0.2665
   71SOPE   C20 9274   2.523   2.824   5.406  0.3624 -0.7138 -0.2740
   71SOPE   H36 9275   2.455   2.908   5.399  3.1762  1.7261  0.7456
   71SOPE   C21 9276   2.597   2.813   5.541  1.5595  0.1289 -0.4407
   71SOPE   H37 9277   2.596   2.914   5.583  2.1260 -0.1969  0.3830
   71SOPE   H38 9278   2.698   2.779   5.520  2.5625  0.8762  2.8876
   71SOPE   C22 9279   2.527   2.709   5.629  0.2898  0.7480 -0.5335
   71SOPE   H39 9280   2.512   2.611   5.583 -0.6829  0.1747  0.9806
   71SOPE   H40 9281   2.432   2.758   5.648  0.7509  1.4772 -0.0845
   71SOPE   C23 9282   2.590   2.687   5.763  0.2532 -0.2004  1.0491
   71SOPE   H41 9283   2.521   2.635   5.829 -3.3599  0.5428 -1.9692
   71SOPE   H42 9284   2.603   2.782   5.814 -2.5147 -1.2055  3.7467
   71SOPE   C24 9285   2.729   2.621   5.762  0.5338 -0.0248  0.1064
   71SOPE   H43 9286   2.763   2.604   5.864  2.9537  0.9249 -0.5025
   71SOPE   H44 9287   2.800   2.691   5.718 -0.1153 -0.1911 -1.2606
   71SOPE   C25 9288   2.762   2.485   5.681 -0.0214  0.3235 -0.7466
   71SOPE   H45 9289   2.858   2.452   5.721 -0.0192  0.5379 -0.5691
   71SOPE   H46 9290   2.777   2.509   5.576  2.5812  0.8605 -0.2940
   71SOPE   C26 9291   2.652   2.385   5.708  0.1721 -0.1140 -0.4251
   71SOPE   H47 9292   2.638   2.365   5.814  3.8587  2.6405  0.6907
   71SOPE   H48 9293   2.554   2.420   5.675  0.1192 -0.5430 -0.7219
   71SOPE   C27 9294   2.668   2.259   5.629  0.0288  0.0098  0.2334
   71SOPE   H49 9295   2.676   2.282   5.523  2.2834  0.4027  0.4571
   71SOPE   H50 9296   2.580   2.198   5.650 -0.0652  0.1740  0.3208
   71SOPE   C27 9297   2.799   2.174   5.668  0.7605  0.0150 -0.5704
   71SOPE   H51 9298   2.824   2.199   5.771 -0.6597  0.9549 -0.4345
   71SOPE   H52 9299   2.775   2.068   5.671  0.7704 -0.0911 -2.8978
   71SOPE   H53 9300   2.886   2.200   5.607 -0.3443  1.4270 -1.5921
   71SOPE   C29 9301   3.044   1.982   4.515 -0.1085 -0.2891 -0.0650
   71SOPE   H54 9302   3.109   2.042   4.578 -2.3072  0.0931  1.9289
   71SOPE   H55 9303   3.113   1.942   4.441  1.3294  0.4751  0.8428
   71SOPE   C30 9304   2.994   1.872   4.606  0.2507 -0.4948  0.4264
   71SOPE   H56 9305   3.068   1.793   4.606  2.0296  1.0928  3.1406
   71SOPE   H57 9306   2.910   1.824   4.555 -0.1848  3.0907 -2.4134
   71SOPE   C31 9307   2.957   1.915   4.749 -0.1044  0.0323  0.2837
   71SOPE   H58 9308   2.875   1.987   4.750 -0.8889 -0.8347  3.2331
   71SOPE   H59 9309   3.039   1.970   4.796  1.0542 -0.8823 -0.6135
   71SOPE   C32 9310   2.940   1.795   4.844  0.3729  0.5804 -0.4308
   71SOPE   H60 9311   3.028   1.732   4.829 -0.9907 -0.6873 -3.7928
   71SOPE   H61 9312   2.858   1.729   4.816 -0.7514  0.4709  2.9342
   71SOPE   C33 9313   2.920   1.837   4.990 -0.5288 -0.2107  0.7432
   71SOPE   H62 9314   2.862   1.760   5.040  0.3884 -1.0960  0.4729
   71SOPE   H63 9315   2.870   1.934   4.996 -0.4920 -0.2127  1.0888
   71SOPE   C34 9316   3.053   1.862   5.071  0.1003 -0.0653 -0.0158
   71SOPE   H64 9317   3.109   1.949   5.037  1.5107 -0.0999  2.1609
   71SOPE   H65 9318   3.111   1.772   5.055 -0.9714 -0.9710  1.0729
   71SOPE   C35 9319   3.013   1.890   5.219 -0.6582 -0.0413 -0.3225
   71SOPE   H66 9320   2.935   1.824   5.256  0.0002  0.3222  1.7803
   71SOPE   H67 9321   2.966   1.989   5.226 -0.5663  0.0254 -0.6347
   71SOPE   C36 9322   3.128   1.886   5.319 -0.1934  0.6588 -0.8987
   71SOPE   H68 9323   3.212   1.949   5.291  0.1805  1.9075  2.7835
   71SOPE   H69 9324   3.168   1.784   5.315 -2.1284 -0.3243  2.4396
   71SOPE   C37 9325   3.075   1.888   5.461 -0.0088 -0.2658  0.3829
   71SOPE   H70 9326   2.990   1.821   5.477  1.9311 -2.6394  1.0198
   71SOPE   H71 9327   3.040   1.986   5.494 -0.6141 -0.4820  0.3920
   71SOPE   C38 9328   3.184   1.850   5.562  0.9998 -0.7206  0.2430
   71SOPE   H72 9329   3.285   1.886   5.541 -0.3812  2.2195 -1.4949
   71SOPE   H73 9330   3.198   1.742   5.547  0.5156 -0.7833  0.2533
   71SOPE   C39 9331   3.152   1.874   5.703 -0.3573 -0.2248 -0.8258
   71SOPE   H74 9332   3.209   1.808   5.768  1.7901  1.7090 -0.7009
   71SOPE   H75 9333   3.049   1.839   5.717 -0.0530 -0.7982  0.0581
   71SOPE   C40 9334   3.159   2.024   5.743  0.3086 -0.5010 -0.0822
   71SOPE   H76 9335   3.062   2.072   5.758  0.8448 -0.1542  2.3652
   71SOPE   H77 9336   3.199   2.083   5.661  0.3563 -1.3179 -0.6608
   71SOPE   C41 9337   3.239   2.051   5.873 -0.2522  0.2577 -0.6580
   71SOPE   H78 9338   3.335   2.000   5.876 -1.2836 -1.6771  0.9873
   71SOPE   H79 9339   3.174   2.011   5.951  0.0559 -0.0083 -0.5391
   71SOPE   C42 9340   3.252   2.195   5.908 -0.0457  0.7338 -0.4496
   71SOPE   H80 9341   3.155   2.225   5.947  0.9740  0.8237  2.1470
   71SOPE   H81 9342   3.262   2.251   5.815  0.5931  1.4107  0.0110
   71SOPE   C43 9343   3.358   2.210   6.024 -0.1549 -0.1341  0.4559
   71SOPE   H82 9344   3.344   2.308   6.070 -0.8645 -0.4414  0.9219
   71SOPE   H83 9345   3.333   2.140   6.105  1.1935 -1.0760  0.0713
   71SOPE   C44 9346   3.500   2.193   5.969  0.0090 -0.0296  0.7142
   71SOPE   H84 9347   3.567   2.219   6.051 -1.7788  1.2303  1.7838
   71SOPE   H85 9348   3.516   2.090   5.935 -0.8114  0.5116 -1.4546
   71SOPE   H86 9349   3.514   2.255   5.880 -0.3751  0.6423  1.1209
   72SOPE    N1 9350   3.680   3.872   3.402 -1.0247 -0.0660  0.4247
   72SOPE    C1 9351   3.817   3.829   3.413 -0.4221  0.0556 -0.1761
   72SOPE    H1 9352   3.850   3.811   3.311  0.9817 -1.7656  0.5789
   72SOPE    H2 9353   3.835   3.738   3.469 -1.2418 -0.0183 -0.0274
   72SOPE    H3 9354   3.680   3.964   3.359 -0.5731 -0.7207 -1.0035
   72SOPE    H4 9355   3.650   3.876   3.499  1.4660 -1.7966  1.3180
   72SOPE    H5 9356   3.627   3.815   3.338 -1.5961  1.7695 -0.7740
   72SOPE    C5 9357   3.906   3.941   3.481  0.3166 -0.0225  0.3508
   72SOPE   H12 9358   3.894   3.933   3.589 -0.2095 -0.7580  0.2450
   72SOPE   H13 9359   3.879   4.044   3.457  0.3690 -0.3290 -1.0722
   72SOPE    P1 9360   4.153   4.003   3.456  0.0939  0.2934  0.5614
   72SOPE    O1 9361   4.276   3.936   3.407 -0.5201 -0.0064  0.1195
   72SOPE    O2 9362   4.103   4.123   3.381  0.0084 -0.0831 -0.3548
   72SOPE    O3 9363   4.039   3.897   3.468  0.2523 -0.2155 -0.9284
   72SOPE    O4 9364   4.164   4.053   3.600 -0.3137  0.6771 -0.3117
   72SOPE    C6 9365   4.221   3.974   3.705 -0.0273  0.3048 -0.3469
   72SOPE   H14 9366   4.207   3.867   3.690  0.0350  0.3715 -0.8830
   72SOPE   H15 9367   4.180   3.999   3.803  1.3807  1.5583 -0.0425
   72SOPE    C7 9368   4.372   3.992   3.716  0.1670  0.2408 -0.3791
   72SOPE   H16 9369   4.411   3.948   3.624 -3.1620 -2.9249 -0.4061
   72SOPE    O5 9370   4.430   3.929   3.822 -0.2341 -0.8939 -0.5167
   72SOPE    C8 9371   4.475   3.801   3.814 -0.9784  0.0951  0.8191
   72SOPE    O6 9372   4.488   3.728   3.710 -0.0552 -0.1267  0.1931
   72SOPE    C9 9373   4.531   3.748   3.949  0.3253 -0.3153  0.3590
   72SOPE   H17 9374   4.498   3.817   4.027 -0.6195 -1.0580  0.6239
   72SOPE   H18 9375   4.640   3.749   3.948  0.3215 -0.9225 -1.3466
   72SOPE   C10 9376   4.412   4.137   3.722  0.2735 -0.2538  0.6317
   72SOPE   H19 9377   4.356   4.182   3.640 -0.2782  2.0190  2.2309
   72SOPE   H20 9378   4.520   4.141   3.707 -0.1728  2.9848 -2.4768
   72SOPE    O7 9379   4.378   4.206   3.840 -0.7016 -0.1279  0.0540
   72SOPE   C11 9380   4.320   4.330   3.833  0.0326 -0.2396 -0.2387
   72SOPE    O8 9381   4.321   4.408   3.737 -0.5004  0.1028  0.3151
   72SOPE   C12 9382   4.295   4.382   3.971 -0.3283 -0.1340  0.5912
   72SOPE   H21 9383   4.398   4.386   4.008  0.2240  1.5972 -1.0392
   72SOPE   H22 9384   4.243   4.305   4.029 -1.8778  1.1222  0.8958
   72SOPE   C13 9385   4.236   4.523   3.992  0.1090  0.4286  0.3863
   72SOPE   H23 9386   4.127   4.522   3.995  0.1027  0.9907  0.3985
   72SOPE   H24 9387   4.245   4.584   3.902 -1.9584  1.2615  0.7337
   72SOPE   C14 9388   4.287   4.594   4.116 -0.5626 -0.2718  0.4224
   72SOPE   H25 9389   4.254   4.698   4.109  0.8726  0.1362 -0.7361
   72SOPE   H26 9390   4.396   4.597   4.116 -0.4908 -2.5729  0.3491
   72SOPE   C15 9391   4.257   4.527   4.250  0.0736  0.3419 -0.4322
   72SOPE   H27 9392   4.301   4.430   4.274 -0.9205  0.5211  2.2058
   72SOPE   H28 9393   4.151   4.498   4.254  0.5590 -1.1952  3.2968
   72SOPE   C16 9394   4.283   4.621   4.367  0.1178  0.1096 -0.5422
   72SOPE   H29 9395   4.235   4.716   4.343 -3.1151 -1.5413 -0.8253
   72SOPE   H30 9396   4.388   4.649   4.367  0.5526 -1.4856 -0.2730
   72SOPE   C17 9397   4.239   4.575   4.510  0.2771 -0.5071  0.2257
   72SOPE   H31 9398   4.304   4.495   4.545  2.1857  1.5971  1.6604
   72SOPE   H32 9399   4.138   4.536   4.518  0.4542 -0.8296  0.9068
   72SOPE   C18 9400   4.238   4.700   4.611  1.0949  0.0610  0.0371
   72SOPE   H33 9401   4.190   4.671   4.705 -0.6725  1.9878 -0.2377
   72SOPE   H34 9402   4.176   4.785   4.583 -0.1866 -0.2202  1.9085
   72SOPE   C19 9403   4.369   4.765   4.638 -0.5202 -0.4627  0.5181
   72SOPE   H35 9404   4.414   4.819   4.556 -1.3710  2.4007  1.8657
   72SOPE   C20 9405   4.423   4.770   4.763  0.0226 -0.0507 -0.4662
   72SOPE   H36 9406   4.516   4.822   4.779  1.9164 -2.8701 -1.7913
   72SOPE   C21 9407   4.365   4.707   4.886 -0.2990  0.3822 -0.1339
   72SOPE   H37 9408   4.325   4.611   4.854  0.4417 -0.7899  2.3127
   72SOPE   H38 9409   4.286   4.770   4.928 -0.0708  1.0300 -0.6740
   72SOPE   C22 9410   4.473   4.684   4.991  0.2789 -0.0271 -0.3217
   72SOPE   H39 9411   4.537   4.769   5.016  0.1129  0.0401 -0.1285
   72SOPE   H40 9412   4.553   4.621   4.951  0.4639  0.8421 -1.3689
   72SOPE   C23 9413   4.406   4.623   5.114  0.4002 -0.0234  0.0259
   72SOPE   H41 9414   4.339   4.542   5.085  2.0134 -1.7297  0.9466
   72SOPE   H42 9415   4.337   4.697   5.154 -2.2935 -1.3291 -2.0195
   72SOPE   C24 9416   4.502   4.579   5.219 -0.5219 -0.0318 -0.3351
   72SOPE   H43 9417   4.583   4.652   5.219 -1.6472  1.2415  0.0742
   72SOPE   H44 9418   4.537   4.480   5.190  1.2790  1.1243 -2.2739
   72SOPE   C25 9419   4.442   4.559   5.359  0.1724  0.2655 -0.6189
   72SOPE   H45 9420   4.372   4.476   5.357  2.5725 -1.8750  0.2828
   72SOPE   H46 9421   4.401   4.658   5.374 -0.4773  0.0862 -1.2224
   72SOPE   C26 9422   4.552   4.540   5.468  0.1870 -0.5611 -0.1991
   72SOPE   H47 9423   4.614   4.452   5.453 -1.0717 -1.7519  1.4924
   72SOPE   H48 9424   4.623   4.623   5.474 -1.4127  0.7265  1.2636
   72SOPE   C27 9425   4.488   4.530   5.604  0.8380  0.0154  0.3818
   72SOPE   H49 9426   4.415   4.449   5.602  2.1417 -1.1315 -1.3085
   72SOPE   H50 9427   4.428   4.615   5.638  0.4966 -1.6374  4.2091
   72SOPE   C27 9428   4.587   4.475   5.707  0.3377 -0.0415  0.3326
   72SOPE   H51 9429   4.673   4.541   5.699 -0.6642  1.0457 -1.7359
   72SOPE   H52 9430   4.551   4.480   5.810  0.0025  2.9034  0.0982
   72SOPE   H53 9431   4.629   4.376   5.689  2.4177  0.9803 -0.5520
   72SOPE   C29 9432   4.482   3.606   3.994 -0.7742  0.8332 -0.5208
   72SOPE   H54 9433   4.508   3.537   3.913  0.6952  1.0646 -0.2667
   72SOPE   H55 9434   4.375   3.612   3.977 -1.0997 -1.3864  0.4576
   72SOPE   C30 9435   4.528   3.561   4.136 -0.4372  0.3763 -0.3424
   72SOPE   H56 9436   4.636   3.543   4.130 -0.6980 -1.7265  0.7569
   72SOPE   H57 9437   4.487   3.462   4.156  0.2805  0.1440  0.0297
   72SOPE   C31 9438   4.484   3.653   4.252 -0.4254 -0.3891  0.5598
   72SOPE   H58 9439   4.379   3.676   4.242 -1.3624 -4.2103  0.5962
   72SOPE   H59 9440   4.538   3.747   4.239  0.2935 -1.1864 -2.9103
   72SOPE   C32 9441   4.510   3.601   4.388  0.6192 -0.8256  0.5912
   72SOPE   H60 9442   4.612   3.563   4.386  1.3048  0.9677  0.8175
   72SOPE   H61 9443   4.460   3.504   4.396 -0.0512 -0.5602 -0.2771
   72SOPE   C33 9444   4.492   3.695   4.501  0.0520  0.3133  0.4241
   72SOPE   H62 9445   4.408   3.760   4.474  1.9423  1.9144 -1.7820
   72SOPE   H63 9446   4.581   3.757   4.499 -0.1450  0.5480 -1.2321
   72SOPE   C34 9447   4.470   3.622   4.631 -0.4115  0.8760  0.1865
   72SOPE   H64 9448   4.560   3.568   4.661 -0.2624 -0.8740 -3.1390
   72SOPE   H65 9449   4.405   3.537   4.612  0.2205  0.7858 -1.7061
   72SOPE   C35 9450   4.415   3.711   4.738 -0.4878  0.3695  0.3912
   72SOPE   H66 9451   4.328   3.768   4.704  0.5774  0.6894 -1.9294
   72SOPE   H67 9452   4.488   3.789   4.758  0.3846 -0.2579 -0.2939
   72SOPE   C36 9453   4.390   3.627   4.867  0.5367 -0.2704 -0.5010
   72SOPE   H68 9454   4.479   3.575   4.905  0.5168 -0.1060 -0.2239
   72SOPE   H69 9455   4.317   3.547   4.859 -2.6404  2.3389  1.0467
   72SOPE   C37 9456   4.326   3.715   4.973 -0.8001 -0.4393 -0.2576
   72SOPE   H70 9457   4.245   3.783   4.946 -0.4478  0.6778  1.4058
   72SOPE   H71 9458   4.411   3.781   4.992 -3.1164  2.9682 -1.1919
   72SOPE   C38 9459   4.284   3.645   5.096 -0.2709 -0.4018 -0.8102
   72SOPE   H72 9460   4.319   3.543   5.087 -1.4104 -0.8978  0.2609
   72SOPE   H73 9461   4.178   3.659   5.122  0.6682  1.8619  2.2161
   72SOPE   C39 9462   4.353   3.700   5.224 -0.3023 -0.0678  0.1374
   72SOPE   H74 9463   4.314   3.800   5.243 -0.3184  0.2825 -1.6465
   72SOPE   H75 9464   4.456   3.714   5.192 -0.6357 -1.6378 -1.7576
   72SOPE   C40 9465   4.341   3.602   5.348  0.5951 -0.0804  0.8327
   72SOPE   H76 9466   4.432   3.606   5.408  1.1715 -3.1886  0.2731
   72SOPE   H77 9467   4.330   3.496   5.323 -0.1119  0.6011 -1.9391
   72SOPE   C41 9468   4.221   3.637   5.427 -0.4115  0.5884 -0.0797
   72SOPE   H78 9469   4.134   3.635   5.361 -1.5117  1.2299  1.3218
   72SOPE   H79 9470   4.239   3.737   5.468  0.7614 -0.1326  1.1622
   72SOPE   C42 9471   4.199   3.527   5.536  0.0428 -0.4615  0.5428
   72SOPE   H80 9472   4.216   3.423   5.506  2.8965  0.3197 -0.7549
   72SOPE   H81 9473   4.091   3.528   5.553  0.0613 -0.0533  0.6389
   72SOPE   C43 9474   4.273   3.559   5.665 -0.4821 -0.0869  0.1813
   72SOPE   H82 9475   4.381   3.569   5.654 -0.4627  0.3530  0.7266
   72SOPE   H83 9476   4.228   3.644   5.715  0.8172  0.6022  0.2116
   72SOPE   C44 9477   4.256   3.439   5.763 -0.2336  0.0909  0.1350
   72SOPE   H84 9478   4.288   3.349   5.711  0.4377  1.1385 -1.2969
   72SOPE   H85 9479   4.294   3.450   5.865  2.1258  0.8890 -0.7889
   72SOPE   H86 9480   4.150   3.430   5.783  0.3250  0.1659  3.3134
   73SOPE    N1 9481   1.650   3.321   4.048 -0.2124  0.1618  0.5393
   73SOPE    C1 9482   1.777   3.261   4.045  0.1722 -0.0020  0.1746
   73SOPE    H1 9483   1.845   3.293   4.123  3.5728 -2.7943 -1.4752
   73SOPE    H2 9484   1.820   3.301   3.953 -0.3753  1.7439  0.6640
   73SOPE    H3 9485   1.593   3.266   4.111 -0.5775 -0.1601 -0.0674
   73SOPE    H4 9486   1.625   3.321   3.950  0.9661 -0.5811  0.2268
   73SOPE    H5 9487   1.656   3.416   4.081  0.0749 -0.2936  1.8174
   73SOPE    C5 9488   1.767   3.113   4.048 -0.0164 -0.0814  0.1782
   73SOPE   H12 9489   1.727   3.080   3.952 -1.6710  2.8613 -0.1970
   73SOPE   H13 9490   1.699   3.074   4.124  1.3631 -2.5927  0.1840
   73SOPE    P1 9491   1.908   2.895   4.063  0.1820 -0.1694  0.2507
   73SOPE    O1 9492   1.814   2.835   3.970 -0.3975 -0.3585  0.1510
   73SOPE    O2 9493   2.053   2.853   4.045 -0.1212  0.2460  0.2935
   73SOPE    O3 9494   1.893   3.054   4.051  0.9395  0.2051  0.3648
   73SOPE    O4 9495   1.854   2.851   4.210  0.1752  0.6462  0.2957
   73SOPE    C6 9496   1.916   2.898   4.331  0.1899  0.0052  0.1590
   73SOPE   H14 9497   1.836   2.925   4.400 -0.6616 -1.1923 -0.3416
   73SOPE   H15 9498   1.977   2.988   4.322  1.3161 -0.8118 -0.4875
   73SOPE    C7 9499   2.021   2.795   4.378  0.0347  0.3169  0.6009
   73SOPE   H16 9500   2.099   2.802   4.302  0.0385  1.2300  0.6715
   73SOPE    O5 9501   1.963   2.664   4.387  0.0654 -0.2947  0.1907
   73SOPE    C8 9502   2.026   2.553   4.354 -0.1746  0.0303 -0.2137
   73SOPE    O6 9503   2.144   2.548   4.312  0.1243 -0.0960  0.9129
   73SOPE    C9 9504   1.933   2.436   4.373  0.3040 -0.5182 -0.6825
   73SOPE   H17 9505   1.925   2.370   4.286  1.3441  0.3891 -1.4965
   73SOPE   H18 9506   1.832   2.475   4.386  2.0565  3.4879  1.8542
   73SOPE   C10 9507   2.095   2.849   4.501  0.3546  0.6469 -0.1199
   73SOPE   H19 9508   2.021   2.877   4.576 -1.3599 -1.0530 -1.1224
   73SOPE   H20 9509   2.157   2.931   4.463 -1.8765  4.0986  3.3628
   73SOPE    O7 9510   2.167   2.742   4.559  0.7096  0.3595 -0.4674
   73SOPE   C11 9511   2.289   2.727   4.562 -0.3285 -0.3653  0.8561
   73SOPE    O8 9512   2.374   2.806   4.515  0.8389 -0.0048 -0.8300
   73SOPE   C12 9513   2.329   2.588   4.618 -0.0207 -0.7226 -0.5852
   73SOPE   H21 9514   2.380   2.562   4.525  0.8941  2.9184 -1.1908
   73SOPE   H22 9515   2.242   2.523   4.634  1.3230 -2.1730  0.9424
   73SOPE   C13 9516   2.418   2.598   4.744 -0.5615  0.4493  0.2272
   73SOPE   H23 9517   2.498   2.671   4.732 -2.0138  2.1067  0.4416
   73SOPE   H24 9518   2.463   2.499   4.753 -1.3337 -0.1724 -2.2068
   73SOPE   C14 9519   2.340   2.642   4.874 -0.4543  0.1942 -0.5620
   73SOPE   H25 9520   2.328   2.750   4.880 -1.6258 -0.0588  3.1082
   73SOPE   H26 9521   2.410   2.607   4.950 -2.3247 -3.0669 -0.2009
   73SOPE   C15 9522   2.214   2.564   4.896 -0.0909  0.0811  0.6155
   73SOPE   H27 9523   2.219   2.462   4.857  0.1410  0.3999 -0.2003
   73SOPE   H28 9524   2.139   2.621   4.841  0.6104  0.2910 -0.1189
   73SOPE   C16 9525   2.172   2.572   5.042  0.3609  0.7584  0.7906
   73SOPE   H29 9526   2.064   2.556   5.045  0.3084  0.6219 -0.9583
   73SOPE   H30 9527   2.199   2.671   5.080 -2.1341  1.6813  0.2840
   73SOPE   C17 9528   2.252   2.472   5.129 -0.2745 -0.5965 -0.5593
   73SOPE   H31 9529   2.353   2.509   5.145 -1.0320  1.2169  0.1662
   73SOPE   H32 9530   2.263   2.378   5.074  0.4345 -0.5041 -0.5803
   73SOPE   C18 9531   2.195   2.449   5.269  0.0739 -0.2603  0.3075
   73SOPE   H33 9532   2.262   2.376   5.313  0.9803  0.9147  0.9069
   73SOPE   H34 9533   2.100   2.399   5.255  1.7239 -3.1175 -1.0770
   73SOPE   C19 9534   2.190   2.571   5.361  0.3088  0.3112 -0.1928
   73SOPE   H35 9535   2.281   2.599   5.411 -1.0498  2.2924  1.2645
   73SOPE   C20 9536   2.075   2.640   5.384 -0.0392 -0.3073  0.1065
   73SOPE   H36 9537   2.087   2.716   5.460 -0.0231 -1.6979  1.5134
   73SOPE   C21 9538   1.936   2.614   5.327  0.0169  0.0542 -0.0904
   73SOPE   H37 9539   1.862   2.633   5.405  1.0094  0.3793  0.7947
   73SOPE   H38 9540   1.928   2.511   5.295  2.1484 -0.6740  1.6199
   73SOPE   C22 9541   1.889   2.711   5.211 -0.1787 -0.1360  0.2787
   73SOPE   H39 9542   1.931   2.683   5.114 -0.6341  2.2120 -0.6327
   73SOPE   H40 9543   1.930   2.812   5.222  1.7757 -0.7517 -1.0700
   73SOPE   C23 9544   1.736   2.734   5.205  0.0423 -0.5918  0.2389
   73SOPE   H41 9545   1.699   2.792   5.290  1.5453 -0.6222  0.9214
   73SOPE   H42 9546   1.677   2.643   5.196 -1.5506  0.3143  1.2701
   73SOPE   C24 9547   1.690   2.818   5.086  0.3414  0.5506  0.6395
   73SOPE   H43 9548   1.720   2.922   5.098 -0.0813  0.7957 -0.3901
   73SOPE   H44 9549   1.581   2.825   5.089 -0.0648 -3.6886 -1.1223
   73SOPE   C25 9550   1.721   2.755   4.948 -0.1062  0.4325  0.4326
   73SOPE   H45 9551   1.687   2.652   4.945  1.3155 -0.0350 -0.2849
   73SOPE   H46 9552   1.830   2.757   4.937 -0.0110  0.8339  1.3283
   73SOPE   C26 9553   1.648   2.840   4.846 -0.4786 -0.0076  0.0610
   73SOPE   H47 9554   1.549   2.868   4.880 -1.3076 -3.6028  0.7435
   73SOPE   H48 9555   1.687   2.942   4.843 -1.0779  0.2547  1.1722
   73SOPE   C27 9556   1.642   2.799   4.702  0.1117  0.2982  0.4226
   73SOPE   H49 9557   1.577   2.866   4.645  1.5681  0.9652 -0.4744
   73SOPE   H50 9558   1.578   2.714   4.681 -1.0907  1.2128  0.3003
   73SOPE   C27 9559   1.777   2.798   4.632  0.3117 -0.2277  0.7321
   73SOPE   H51 9560   1.778   2.763   4.529  2.2510  0.8292  0.3739
   73SOPE   H52 9561   1.818   2.898   4.647  1.0272 -0.1324 -1.7603
   73SOPE   H53 9562   1.848   2.724   4.669 -2.5077 -2.4127  2.0113
   73SOPE   C29 9563   1.965   2.353   4.503 -0.0329 -0.2773 -0.0518
   73SOPE   H54 9564   2.068   2.319   4.506  0.7220  1.8891 -0.6477
   73SOPE   H55 9565   1.914   2.259   4.486 -1.6351  0.4590  0.5236
   73SOPE   C30 9566   1.907   2.417   4.635  0.2005  0.2917  0.7055
   73SOPE   H56 9567   1.824   2.488   4.623 -0.4975 -0.3114  1.9474
   73SOPE   H57 9568   1.985   2.478   4.680 -0.3178  1.5005 -0.0072
   73SOPE   C31 9569   1.882   2.315   4.744  0.0522  0.3388  1.1905
   73SOPE   H58 9570   1.975   2.268   4.776 -0.5691 -1.8681 -0.1044
   73SOPE   H59 9571   1.832   2.238   4.685 -0.2580  0.1034  1.7510
   73SOPE   C32 9572   1.801   2.369   4.868 -0.9858  0.9192  0.1622
   73SOPE   H60 9573   1.694   2.374   4.847 -1.0768 -2.5542 -0.5805
   73SOPE   H61 9574   1.820   2.474   4.887 -0.1022  0.5350  1.4482
   73SOPE   C33 9575   1.830   2.307   4.999  0.0298 -0.1392  0.5409
   73SOPE   H62 9576   1.937   2.313   5.020  0.6157  0.8276 -2.5182
   73SOPE   H63 9577   1.816   2.200   4.980 -1.9662  0.1396  0.3956
   73SOPE   C34 9578   1.736   2.343   5.117 -0.1222  0.0482 -0.1420
   73SOPE   H64 9579   1.631   2.316   5.109  0.6232 -4.1117  2.7293
   73SOPE   H65 9580   1.739   2.449   5.144 -1.0624  0.0170  0.0818
   73SOPE   C35 9581   1.781   2.261   5.241 -0.3365 -0.1855  0.2613
   73SOPE   H66 9582   1.890   2.262   5.245 -0.3513 -0.1718  0.6763
   73SOPE   H67 9583   1.749   2.157   5.243 -1.4334  0.0738 -1.9861
   73SOPE   C36 9584   1.716   2.326   5.360 -0.3383 -0.2526  0.3377
   73SOPE   H68 9585   1.609   2.311   5.341 -0.2697  1.7706 -1.8772
   73SOPE   H69 9586   1.730   2.433   5.376  1.0553 -0.5440  1.1747
   73SOPE   C37 9587   1.764   2.262   5.488 -0.2044 -0.5426 -0.5862
   73SOPE   H70 9588   1.871   2.285   5.489 -0.4043  1.2922 -5.6867
   73SOPE   H71 9589   1.737   2.159   5.511 -2.0749  0.7131  3.2019
   73SOPE   C38 9590   1.692   2.336   5.600  0.1455 -0.2392 -0.2978
   73SOPE   H72 9591   1.589   2.302   5.596  0.6592 -1.9489  0.4892
   73SOPE   H73 9592   1.709   2.443   5.593 -0.4618 -0.3217 -4.2547
   73SOPE   C39 9593   1.744   2.301   5.732  0.2979 -0.7298 -0.0687
   73SOPE   H74 9594   1.845   2.337   5.747 -0.0435  0.4843 -0.6123
   73SOPE   H75 9595   1.755   2.194   5.743 -2.4370 -1.0945 -0.4050
   73SOPE   C40 9596   1.645   2.356   5.838  0.1875 -0.1111 -0.1520
   73SOPE   H76 9597   1.558   2.292   5.829 -0.8678  1.3604 -0.5255
   73SOPE   H77 9598   1.622   2.459   5.815 -0.9713 -0.4017 -0.3047
   73SOPE   C41 9599   1.704   2.337   5.979 -0.4249 -0.2572  0.8306
   73SOPE   H78 9600   1.802   2.383   5.983 -0.1713 -0.9320  3.1195
   73SOPE   H79 9601   1.712   2.230   6.001 -1.0238 -0.2294  1.2048
   73SOPE   C42 9602   1.622   2.407   6.097 -0.2572  0.1828  0.7406
   73SOPE   H80 9603   1.609   2.514   6.079 -2.2702 -0.1104  0.3710
   73SOPE   H81 9604   1.674   2.377   6.188 -0.4319  0.0380  0.7921
   73SOPE   C43 9605   1.485   2.370   6.114 -0.2471 -0.7626  0.3438
   73SOPE   H82 9606   1.459   2.417   6.209  1.7855  0.9616  0.0905
   73SOPE   H83 9607   1.434   2.420   6.032  2.3129  1.6855  0.1508
   73SOPE   C44 9608   1.463   2.220   6.110  0.1054  1.1292  0.1054
   73SOPE   H84 9609   1.498   2.167   6.198  2.0223 -0.3495 -1.5148
   73SOPE   H85 9610   1.355   2.207   6.098  0.3549 -0.5631 -0.4671
   73SOPE   H86 9611   1.514   2.172   6.027 -1.7450 -1.6799  0.5149
   74SOPE    N1 9612   3.351   0.449   3.739 -0.7098 -0.6019  0.0473
   74SOPE    C1 9613   3.301   0.576   3.795 -0.2914  0.0482 -0.4884
   74SOPE    H1 9614   3.242   0.642   3.732  0.0603  0.3296 -0.5289
   74SOPE    H2 9615   3.395   0.627   3.816  0.6600 -1.6626 -0.5608
   74SOPE    H3 9616   3.390   0.400   3.818  0.6363  0.0386 -0.2101
   74SOPE    H4 9617   3.417   0.466   3.664  1.4079 -1.4921  1.6376
   74SOPE    H5 9618   3.265   0.405   3.708 -1.3534  0.6179  0.0815
   74SOPE    C5 9619   3.230   0.568   3.930 -0.2755  0.0839  0.0138
   74SOPE   H12 9620   3.291   0.525   4.009  1.0191  1.1828 -0.3677
   74SOPE   H13 9621   3.145   0.504   3.904  0.3906 -0.2231 -1.4646
   74SOPE    P1 9622   3.242   0.815   4.036  0.0764  0.2248 -0.4186
   74SOPE    O1 9623   3.346   0.874   3.940 -0.1805  1.0387 -0.3811
   74SOPE    O2 9624   3.132   0.909   4.081  0.4424  0.1211 -0.3087
   74SOPE    O3 9625   3.174   0.695   3.966  0.5419 -0.0299 -0.0680
   74SOPE    O4 9626   3.314   0.753   4.166 -0.5988  0.2675  0.1931
   74SOPE    C6 9627   3.235   0.707   4.275  0.3691 -0.2834  0.2025
   74SOPE   H14 9628   3.273   0.612   4.313  0.8422 -0.7286 -1.3299
   74SOPE   H15 9629   3.139   0.672   4.236  0.8678 -1.1263 -0.2886
   74SOPE    C7 9630   3.224   0.814   4.378  0.3732  0.4054 -0.0418
   74SOPE   H16 9631   3.177   0.906   4.343 -0.2538  0.9251  2.0964
   74SOPE    O5 9632   3.357   0.835   4.428  0.4556  0.0990 -0.7485
   74SOPE    C8 9633   3.443   0.911   4.376 -0.3390 -0.5969 -0.1464
   74SOPE    O6 9634   3.422   0.997   4.295 -0.2979 -0.6673  0.4641
   74SOPE    C9 9635   3.568   0.925   4.464  0.2145  0.0227  0.7621
   74SOPE   H17 9636   3.634   0.987   4.402 -0.1417 -0.4454 -0.0909
   74SOPE   H18 9637   3.615   0.827   4.469  0.8716  0.2026 -1.2211
   74SOPE   C10 9638   3.138   0.783   4.503 -0.1413  0.4077 -0.8037
   74SOPE   H19 9639   3.168   0.690   4.551 -3.4009 -1.2488 -1.8728
   74SOPE   H20 9640   3.034   0.756   4.485 -0.5553  1.0827  0.4902
   74SOPE    O7 9641   3.148   0.893   4.601  0.6664  0.1187 -0.3073
   74SOPE   C11 9642   3.053   0.989   4.603  0.2915  0.3154 -0.5352
   74SOPE    O8 9643   2.954   0.993   4.530  0.6948 -0.0447 -0.6040
   74SOPE   C12 9644   3.089   1.110   4.690 -0.0933  0.6319  0.5081
   74SOPE   H21 9645   3.139   1.181   4.624 -0.0072  0.0814 -0.0224
   74SOPE   H22 9646   3.171   1.078   4.755 -0.5295  0.3363  0.9221
   74SOPE   C13 9647   2.983   1.178   4.782  0.2868 -0.6088 -0.0600
   74SOPE   H23 9648   2.921   1.101   4.828  0.3467 -0.2401  0.6451
   74SOPE   H24 9649   2.911   1.241   4.731  0.0957 -0.1619  0.7636
   74SOPE   C14 9650   3.048   1.276   4.886 -0.5388 -0.4202 -0.1376
   74SOPE   H25 9651   3.089   1.361   4.832 -3.6557  1.2354 -0.0327
   74SOPE   H26 9652   3.126   1.217   4.935  1.5075  1.7243 -0.7339
   74SOPE   C15 9653   2.953   1.312   5.004 -0.2164  0.3241  0.2812
   74SOPE   H27 9654   2.911   1.220   5.045  1.4166  0.6457  2.8051
   74SOPE   H28 9655   2.874   1.370   4.955 -0.8779 -2.5859 -2.2361
   74SOPE   C16 9656   3.020   1.385   5.119  0.3365  0.9217  0.2809
   74SOPE   H29 9657   3.080   1.467   5.079  0.9865  0.2954 -0.0454
   74SOPE   H30 9658   3.082   1.316   5.177 -1.2782  1.3181  2.5548
   74SOPE   C17 9659   2.903   1.425   5.216 -0.0061  1.1088 -0.0561
   74SOPE   H31 9660   2.863   1.329   5.248  2.2084  0.4755  0.8899
   74SOPE   H32 9661   2.832   1.483   5.156 -0.5877  1.2501  0.7634
   74SOPE   C18 9662   2.946   1.509   5.336 -0.1117  0.2798 -0.0791
   74SOPE   H33 9663   3.005   1.596   5.304  1.3465 -0.5433  0.3232
   74SOPE   H34 9664   3.003   1.452   5.409 -2.0308 -0.8134  0.5985
   74SOPE   C19 9665   2.830   1.572   5.413  0.1007  0.2507  0.5142
   74SOPE   H35 9666   2.792   1.663   5.369  1.4944 -0.3477 -2.0018
   74SOPE   C20 9667   2.781   1.528   5.529 -0.2274 -0.3035  0.6173
   74SOPE   H36 9668   2.694   1.580   5.566 -1.6714 -2.5396  0.4808
   74SOPE   C21 9669   2.801   1.400   5.601 -0.1211  0.0768  0.0393
   74SOPE   H37 9670   2.870   1.330   5.552  2.0027  0.7571  1.9568
   74SOPE   H38 9671   2.702   1.359   5.618  0.7293 -1.4208  1.5268
   74SOPE   C22 9672   2.873   1.425   5.730 -0.5668  0.0363 -0.5702
   74SOPE   H39 9673   2.814   1.502   5.780 -1.6582  0.9199 -3.1227
   74SOPE   H40 9674   2.965   1.481   5.712  1.1382 -1.9219  1.6835
   74SOPE   C23 9675   2.906   1.305   5.821 -0.3433  0.5670  0.2387
   74SOPE   H41 9676   2.994   1.325   5.882 -0.1643 -2.2078  0.9947
   74SOPE   H42 9677   2.949   1.222   5.764 -3.2543 -1.7921  1.3012
   74SOPE   C24 9678   2.779   1.250   5.891  0.2045  0.2707 -0.0089
   74SOPE   H43 9679   2.788   1.143   5.913  0.2967  0.1481 -0.6100
   74SOPE   H44 9680   2.695   1.266   5.824  1.0239  0.6714 -0.9616
   74SOPE   C25 9681   2.752   1.325   6.021  0.2645 -0.1981 -0.0234
   74SOPE   H45 9682   2.702   1.420   6.001  0.2819 -0.0706  0.5135
   74SOPE   H46 9683   2.848   1.345   6.069 -0.0557 -2.7308  1.7405
   74SOPE   C26 9684   2.671   1.245   6.128  0.4033 -0.2352  0.0118
   74SOPE   H47 9685   2.588   1.197   6.076  0.9595  0.0351 -1.1635
   74SOPE   H48 9686   2.728   1.159   6.163 -0.4945 -0.4584  0.9213
   74SOPE   C27 9687   2.618   1.323   6.244 -0.0670 -0.3466  0.6254
   74SOPE   H49 9688   2.706   1.374   6.284  0.9788  0.4032 -2.4788
   74SOPE   H50 9689   2.577   1.248   6.311 -2.4716  0.5546  0.2283
   74SOPE   C27 9690   2.510   1.427   6.210 -0.4516  0.8742 -0.1966
   74SOPE   H51 9691   2.538   1.494   6.129 -2.0410 -0.0972 -1.5712
   74SOPE   H52 9692   2.419   1.371   6.187  0.9619 -1.2459 -0.7015
   74SOPE   H53 9693   2.474   1.490   6.291  0.9223  0.0018  1.1066
   74SOPE   C29 9694   3.562   0.988   4.603  0.6849 -0.2298 -0.2525
   74SOPE   H54 9695   3.513   1.085   4.596 -1.1235 -1.0447  0.6953
   74SOPE   H55 9696   3.661   1.021   4.635  0.4066  1.4889 -1.1091
   74SOPE   C30 9697   3.501   0.917   4.726  0.0631  0.6435  0.0304
   74SOPE   H56 9698   3.518   0.810   4.712  0.9199  0.7485  0.2518
   74SOPE   H57 9699   3.392   0.925   4.728  0.0088 -0.2036  0.8096
   74SOPE   C31 9700   3.545   0.961   4.865  0.1582 -0.2762 -0.0224
   74SOPE   H58 9701   3.525   1.068   4.871  4.1200  0.5695 -0.6491
   74SOPE   H59 9702   3.651   0.935   4.865  0.5323  1.1848  1.1267
   74SOPE   C32 9703   3.467   0.898   4.984 -0.2294 -0.8115 -0.4818
   74SOPE   H60 9704   3.507   0.932   5.080 -2.3686 -0.9096  0.4746
   74SOPE   H61 9705   3.487   0.791   4.983 -0.2378 -0.8084 -2.3410
   74SOPE   C33 9706   3.319   0.912   4.968  0.0946  0.3013  0.2791
   74SOPE   H62 9707   3.287   0.818   4.922 -0.1711  1.6977 -2.5333
   74SOPE   H63 9708   3.289   0.986   4.893  2.7921 -0.3664 -1.5323
   74SOPE   C34 9709   3.255   0.942   5.105  0.7666  0.0859  0.0500
   74SOPE   H64 9710   3.284   1.044   5.130 -0.4257  0.1936  1.0656
   74SOPE   H65 9711   3.280   0.876   5.189  2.5191  1.1761  0.4120
   74SOPE   C35 9712   3.103   0.920   5.110  0.2115  0.2841  0.2413
   74SOPE   H66 9713   3.079   0.815   5.090  0.1006  0.3581 -0.0187
   74SOPE   H67 9714   3.052   0.976   5.032 -0.0715  0.0872  0.2840
   74SOPE   C36 9715   3.039   0.972   5.241  0.2464  0.2548 -0.6701
   74SOPE   H68 9716   3.082   1.069   5.268  1.4967 -0.2493 -0.8386
   74SOPE   H69 9717   3.082   0.914   5.322 -1.3946 -0.5841 -0.3759
   74SOPE   C37 9718   2.885   0.961   5.261  0.0422 -0.8298 -0.1715
   74SOPE   H70 9719   2.859   0.860   5.230 -0.4562 -0.4824 -0.8903
   74SOPE   H71 9720   2.826   1.024   5.195 -0.0774  0.1952  0.8963
   74SOPE   C38 9721   2.833   0.998   5.390  0.1405 -0.5075  0.4288
   74SOPE   H72 9722   2.727   0.981   5.376  0.5310 -1.6370 -1.3783
   74SOPE   H73 9723   2.846   1.106   5.397 -0.6565 -0.1077 -3.1383
   74SOPE   C39 9724   2.891   0.927   5.507 -0.4074  0.7279 -0.3208
   74SOPE   H74 9725   2.998   0.931   5.531 -0.8916  1.0653  1.8612
   74SOPE   H75 9726   2.878   0.822   5.480  1.9576 -0.0432  1.2756
   74SOPE   C40 9727   2.806   0.959   5.632 -0.2223  0.2221 -0.4394
   74SOPE   H76 9728   2.742   1.046   5.618 -1.1245 -0.5555 -1.2145
   74SOPE   H77 9729   2.883   0.965   5.709 -0.0244  1.5875 -0.7406
   74SOPE   C41 9730   2.716   0.832   5.655  0.1467 -0.1255 -0.5541
   74SOPE   H78 9731   2.777   0.741   5.657  1.2342  0.6112  1.0245
   74SOPE   H79 9732   2.652   0.819   5.567  0.2259 -0.7878 -0.5154
   74SOPE   C42 9733   2.639   0.851   5.787  0.8483 -0.3257  0.1293
   74SOPE   H80 9734   2.599   0.952   5.787  0.7285 -0.3683 -0.6840
   74SOPE   H81 9735   2.712   0.854   5.868 -0.1491  3.1181  0.9815
   74SOPE   C43 9736   2.529   0.749   5.803  0.7047 -0.1847 -0.3798
   74SOPE   H82 9737   2.481   0.750   5.901  0.2309 -2.5799 -0.5545
   74SOPE   H83 9738   2.456   0.780   5.728  2.3951  1.2707 -1.4718
   74SOPE   C44 9739   2.574   0.607   5.788 -0.4378  0.5690  0.0657
   74SOPE   H84 9740   2.665   0.582   5.843 -0.8172 -0.4801  0.2188
   74SOPE   H85 9741   2.495   0.546   5.831  2.0426 -3.2292 -0.5450
   74SOPE   H86 9742   2.592   0.591   5.682 -0.8806  0.4123  0.0137
   75SOPE    N1 9743   0.673   1.925   4.275 -0.1274 -0.3183  0.3228
   75SOPE    C1 9744   0.801   1.858   4.238 -0.3320  1.0140 -1.3381
   75SOPE    H1 9745   0.836   1.896   4.142  1.2115  1.4111 -0.6414
   75SOPE    H2 9746   0.779   1.752   4.227  2.5182  0.0834  1.1004
   75SOPE    H3 9747   0.702   2.011   4.320 -0.1068 -0.7753  1.2088
   75SOPE    H4 9748   0.631   1.852   4.331 -0.8092 -1.3542 -1.4937
   75SOPE    H5 9749   0.621   1.944   4.191  2.3913 -3.5355 -2.1106
   75SOPE    C5 9750   0.904   1.881   4.349 -0.4219 -0.7175  0.4921
   75SOPE   H12 9751   0.929   1.987   4.355 -0.3307 -0.7025 -0.1011
   75SOPE   H13 9752   0.867   1.846   4.446  0.3850 -0.4344  0.9087
   75SOPE    P1 9753   1.141   1.868   4.245  0.0146 -0.2092  0.3237
   75SOPE    O1 9754   1.240   1.771   4.206  0.7684 -0.8859 -0.2815
   75SOPE    O2 9755   1.092   1.956   4.135  0.0995 -0.4860 -0.4200
   75SOPE    O3 9756   1.018   1.806   4.322 -0.3598 -0.0699  0.6768
   75SOPE    O4 9757   1.205   1.964   4.354 -0.2118 -0.2460  0.0753
   75SOPE    C6 9758   1.314   1.923   4.440  0.2220  0.1471 -0.6531
   75SOPE   H14 9759   1.347   2.012   4.493  0.4735  0.5621 -1.4877
   75SOPE   H15 9760   1.396   1.881   4.381 -0.6099  1.9503 -3.2194
   75SOPE    C7 9761   1.263   1.815   4.539  0.1970  0.4709 -0.0256
   75SOPE   H16 9762   1.207   1.739   4.485  0.3188 -0.0917  0.6191
   75SOPE    O5 9763   1.190   1.879   4.642  0.4115  0.5804  0.9396
   75SOPE    C8 9764   1.086   1.824   4.709 -0.2457  0.0809 -0.4788
   75SOPE    O6 9765   1.048   1.704   4.707 -0.3362 -0.4510 -0.1669
   75SOPE    C9 9766   1.034   1.912   4.812  0.8390 -0.7483 -1.1056
   75SOPE   H17 9767   0.925   1.903   4.817  0.7382  0.7212 -0.2019
   75SOPE   H18 9768   1.053   2.010   4.767 -0.5155  1.6485  3.2420
   75SOPE   C10 9769   1.393   1.753   4.612  0.4716 -0.3003 -0.0642
   75SOPE   H19 9770   1.443   1.690   4.539  2.1239 -0.1275  0.9020
   75SOPE   H20 9771   1.351   1.681   4.682 -1.2741  1.5000  0.8094
   75SOPE    O7 9772   1.461   1.847   4.690 -0.5662 -0.5177  0.3943
   75SOPE   C11 9773   1.593   1.820   4.701 -0.7728 -0.3869  0.1288
   75SOPE    O8 9774   1.653   1.724   4.659 -0.2412 -0.0958 -0.1413
   75SOPE   C12 9775   1.664   1.917   4.792  0.4616 -0.0303 -0.1798
   75SOPE   H21 9776   1.590   1.997   4.799 -0.2356 -0.6448 -0.5209
   75SOPE   H22 9777   1.753   1.956   4.743  0.5022 -1.3688 -1.1892
   75SOPE   C13 9778   1.719   1.880   4.937  0.1262  0.0390  0.4853
   75SOPE   H23 9779   1.780   1.960   4.979  0.4323  0.9225 -1.5434
   75SOPE   H24 9780   1.785   1.795   4.925 -1.3349 -0.7829 -2.3546
   75SOPE   C14 9781   1.607   1.849   5.037  1.2931 -0.1044  0.2898
   75SOPE   H25 9782   1.647   1.807   5.130 -2.2100 -1.7778  1.1277
   75SOPE   H26 9783   1.538   1.772   5.004  2.9358 -1.8969  0.9128
   75SOPE   C15 9784   1.530   1.982   5.076  0.2006  0.2600  0.5799
   75SOPE   H27 9785   1.463   2.004   4.993 -0.8100 -1.6560  0.8542
   75SOPE   H28 9786   1.596   2.068   5.083 -0.2254  0.7977 -1.6419
   75SOPE   C16 9787   1.459   1.984   5.210  0.3896 -1.0160  0.5203
   75SOPE   H29 9788   1.538   1.978   5.284 -0.2822  0.5315  1.4071
   75SOPE   H30 9789   1.404   1.892   5.228 -0.5221 -0.2872  1.6115
   75SOPE   C17 9790   1.365   2.099   5.253  0.0522 -0.8258 -0.3479
   75SOPE   H31 9791   1.275   2.095   5.191  0.8684  0.1696 -1.6077
   75SOPE   H32 9792   1.401   2.201   5.247 -0.8750 -0.5818 -2.4209
   75SOPE   C18 9793   1.329   2.083   5.404  0.1651  0.4609  0.6118
   75SOPE   H33 9794   1.265   1.994   5.401  1.8524 -0.7848  0.9509
   75SOPE   H34 9795   1.270   2.167   5.440 -0.1313  0.2242  0.6858
   75SOPE   C19 9796   1.447   2.075   5.495  0.6203  0.4046  0.0268
   75SOPE   H35 9797   1.538   2.117   5.454  2.4759 -1.6114  2.0164
   75SOPE   C20 9798   1.444   2.037   5.620 -0.4171  0.1671  0.0384
   75SOPE   H36 9799   1.531   2.048   5.683  0.0584 -0.3924 -0.5204
   75SOPE   C21 9800   1.325   1.977   5.685  1.0292  0.0705 -0.9078
   75SOPE   H37 9801   1.333   1.874   5.650 -1.1185 -0.5850  0.4614
   75SOPE   H38 9802   1.241   2.024   5.634  0.0213 -1.9111 -1.0905
   75SOPE   C22 9803   1.346   1.993   5.838 -0.3926 -0.3190  0.1508
   75SOPE   H39 9804   1.351   2.101   5.856  1.0421 -0.4583  0.6786
   75SOPE   H40 9805   1.442   1.952   5.870  0.3651 -1.2603 -3.1201
   75SOPE   C23 9806   1.232   1.933   5.915 -0.2219 -0.3218 -0.2517
   75SOPE   H41 9807   1.224   1.832   5.875 -1.8548  0.2502 -1.4061
   75SOPE   H42 9808   1.130   1.969   5.903 -1.4903 -3.3909  0.6774
   75SOPE   C24 9809   1.253   1.922   6.060  0.0902  0.4686 -0.3908
   75SOPE   H43 9810   1.227   2.016   6.108  1.8028 -0.3463  2.2485
   75SOPE   H44 9811   1.358   1.901   6.079  0.1390  0.5546 -0.5553
   75SOPE   C25 9812   1.175   1.808   6.125  0.5798  0.0720 -0.0824
   75SOPE   H45 9813   1.218   1.722   6.076  1.6863  1.2929 -1.2909
   75SOPE   H46 9814   1.068   1.814   6.106  0.2886 -0.0271  1.4527
   75SOPE   C26 9815   1.203   1.796   6.278  0.3331 -0.1451  0.4329
   75SOPE   H47 9816   1.293   1.742   6.306  0.3249 -0.1626  0.4272
   75SOPE   H48 9817   1.212   1.895   6.322  0.6354 -0.4713  1.1124
   75SOPE   C27 9818   1.082   1.730   6.346  0.7028 -0.8476  0.2638
   75SOPE   H49 9819   1.064   1.645   6.280  0.1626  0.5741 -1.4344
   75SOPE   H50 9820   0.995   1.794   6.340 -0.2826 -2.1377  0.5390
   75SOPE   C27 9821   1.095   1.693   6.490  0.4135 -0.1703 -0.1029
   75SOPE   H51 9822   1.180   1.627   6.507  0.2407 -0.0528  1.2120
   75SOPE   H52 9823   1.108   1.782   6.550 -1.2773 -0.2133  0.3507
   75SOPE   H53 9824   1.002   1.643   6.519  0.2443 -0.0420 -0.4194
   75SOPE   C29 9825   1.090   1.883   4.947 -0.6915  0.8381 -0.6753
   75SOPE   H54 9826   1.122   1.983   4.978  1.7294  1.2930 -4.3600
   75SOPE   H55 9827   1.178   1.819   4.944 -1.1416  0.1705  0.0744
   75SOPE   C30 9828   0.982   1.841   5.048  0.0026 -0.1554 -0.1624
   75SOPE   H56 9829   0.935   1.755   5.001 -2.0379  1.7911 -1.7766
   75SOPE   H57 9830   0.908   1.921   5.055 -1.1607 -1.1335 -1.0474
   75SOPE   C31 9831   1.020   1.796   5.180  0.1013 -0.3092  0.6639
   75SOPE   H58 9832   0.932   1.791   5.245 -0.7303  4.0407  0.0478
   75SOPE   H59 9833   1.092   1.869   5.218  1.6700  0.4932 -3.6047
   75SOPE   C32 9834   1.080   1.652   5.183 -0.5186  0.4170  0.6847
   75SOPE   H60 9835   1.156   1.637   5.107 -0.0189  0.5639  1.1481
   75SOPE   H61 9836   0.996   1.583   5.173 -1.8919  2.0416  0.8200
   75SOPE   C33 9837   1.142   1.627   5.322  0.4618  0.7519 -0.3049
   75SOPE   H62 9838   1.213   1.704   5.352  0.2622  1.1493 -0.8390
   75SOPE   H63 9839   1.194   1.531   5.315 -2.5665 -0.9627  0.1165
   75SOPE   C34 9840   1.041   1.603   5.433  0.2491  0.1928  0.2422
   75SOPE   H64 9841   0.975   1.519   5.413  3.0401 -1.7360 -1.2569
   75SOPE   H65 9842   0.977   1.691   5.435 -2.2522 -1.5779  0.8208
   75SOPE   C35 9843   1.103   1.581   5.573  0.3837 -0.0175 -0.6097
   75SOPE   H66 9844   1.158   1.669   5.606 -1.7035  1.7956 -1.7856
   75SOPE   H67 9845   1.180   1.506   5.556  0.5134 -0.1369  0.5138
   75SOPE   C36 9846   1.003   1.540   5.679 -0.2417  0.1394 -0.1093
   75SOPE   H68 9847   0.962   1.444   5.648  1.4760  0.0077 -2.0128
   75SOPE   H69 9848   0.923   1.614   5.690 -0.2339  0.5813 -2.7134
   75SOPE   C37 9849   1.064   1.515   5.823 -0.5418 -0.4194  0.0669
   75SOPE   H70 9850   1.121   1.597   5.867  1.6058 -0.9622 -1.6059
   75SOPE   H71 9851   1.144   1.441   5.819  0.3360  0.6054 -1.9027
   75SOPE   C38 9852   0.962   1.489   5.931  0.5275  0.6028  0.8898
   75SOPE   H72 9853   0.889   1.418   5.894  1.5175  0.3994 -0.7333
   75SOPE   H73 9854   0.904   1.579   5.952 -2.9596 -1.7692  1.8466
   75SOPE   C39 9855   1.028   1.439   6.055  0.1083  0.1651  0.7233
   75SOPE   H74 9856   1.108   1.510   6.075 -0.6694  1.2836 -0.0922
   75SOPE   H75 9857   1.078   1.344   6.036  1.1016  1.3689 -3.1573
   75SOPE   C40 9858   0.917   1.438   6.162  1.0114 -0.1505  0.0865
   75SOPE   H76 9859   0.823   1.428   6.108  1.9994  0.9122 -1.9241
   75SOPE   H77 9860   0.911   1.538   6.205 -2.1192  0.8625 -2.4545
   75SOPE   C41 9861   0.930   1.341   6.267  0.2294 -0.1901  0.5035
   75SOPE   H78 9862   1.017   1.368   6.327  0.6240 -0.4298  0.0452
   75SOPE   H79 9863   0.947   1.243   6.223 -0.3307 -0.3121  0.5541
   75SOPE   C42 9864   0.803   1.341   6.348  0.2930  0.0477 -0.2687
   75SOPE   H80 9865   0.717   1.324   6.283 -0.2508 -0.4951  0.5827
   75SOPE   H81 9866   0.792   1.442   6.387 -0.1797  0.3507 -1.1622
   75SOPE   C43 9867   0.802   1.245   6.469  0.2274  0.6395 -0.0725
   75SOPE   H82 9868   0.698   1.243   6.503 -0.4077  1.8172 -1.8711
   75SOPE   H83 9869   0.832   1.142   6.447  0.9835  0.4627  1.7211
   75SOPE   C44 9870   0.878   1.307   6.588 -0.1008 -1.0739  0.2343
   75SOPE   H84 9871   0.817   1.383   6.636  0.1992  1.1889 -2.8313
   75SOPE   H85 9872   0.908   1.238   6.667  2.5937 -1.7540 -1.3234
   75SOPE   H86 9873   0.973   1.352   6.560 -0.0095  0.1593  2.4153
   76SOPE    N1 9874   0.010   1.215   4.022 -0.1951 -0.2538 -0.3764
   76SOPE    C1 9875   5.909   1.206   3.882  0.3756 -0.3459  0.4682
   76SOPE    H1 9876   5.927   1.102   3.854 -0.0837 -0.9593  2.3741
   76SOPE    H2 9877   0.009   1.273   3.812 -0.6049 -0.6505 -0.5190
   76SOPE    H3 9878   5.926   1.307   4.050  1.0600  0.1652 -0.2693
   76SOPE    H4 9879   0.110   1.203   4.027 -0.1352  0.9057  1.4356
   76SOPE    H5 9880   5.919   1.140   4.076  0.2542  0.9013  1.6107
   76SOPE    C5 9881   5.762   1.246   3.877  0.0177  0.9919 -0.3782
   76SOPE   H12 9882   5.732   1.333   3.936 -0.6856  0.5662 -0.0937
   76SOPE   H13 9883   5.707   1.171   3.934  0.0431  0.2447 -1.3117
   76SOPE    P1 9884   5.653   1.149   3.667 -0.0781 -0.0518 -0.5547
   76SOPE    O1 9885   5.605   1.211   3.543 -0.0762  0.3369  0.2817
   76SOPE    O2 9886   5.759   1.042   3.653  1.1808 -0.2044  0.0669
   76SOPE    O3 9887   5.711   1.264   3.749 -0.0656 -0.0323 -0.5970
   76SOPE    O4 9888   5.529   1.089   3.748 -0.3971 -0.3022 -0.4633
   76SOPE    C6 9889   5.413   1.162   3.777  0.4868 -0.6536  0.0679
   76SOPE   H14 9890   5.327   1.134   3.716  0.7672  1.4156 -1.3573
   76SOPE   H15 9891   5.426   1.269   3.764  0.7761 -0.5889  0.8632
   76SOPE    C7 9892   5.390   1.131   3.925 -0.2686 -0.4225  0.2545
   76SOPE   H16 9893   5.478   1.152   3.986  0.6987 -1.0659 -0.8995
   76SOPE    O5 9894   5.339   0.999   3.931  0.3455 -0.9331  0.2440
   76SOPE    C8 9895   5.411   0.904   4.006  0.0609 -0.0242  0.2524
   76SOPE    O6 9896   5.510   0.925   4.077  0.0595 -0.5179 -0.9504
   76SOPE    C9 9897   5.349   0.757   4.001  0.3804 -0.2569 -0.1975
   76SOPE   H17 9898   5.426   0.689   4.037 -0.2310  0.4670  2.5902
   76SOPE   H18 9899   5.309   0.734   3.902  0.4315  0.2544 -0.3405
   76SOPE   C10 9900   5.277   1.219   3.983 -0.0351  0.8258 -0.2807
   76SOPE   H19 9901   5.183   1.177   3.947 -0.9709  2.6078  0.0239
   76SOPE   H20 9902   5.283   1.322   3.947 -0.0806  1.6645  2.0634
   76SOPE    O7 9903   5.293   1.201   4.125  0.4348 -0.0898  0.0114
   76SOPE   C11 9904   5.374   1.274   4.201  0.9698  0.5694  0.0255
   76SOPE    O8 9905   5.445   1.360   4.154 -0.2575 -0.2228 -0.0460
   76SOPE   C12 9906   5.381   1.226   4.342 -0.3166  0.1976  0.3705
   76SOPE   H21 9907   5.485   1.193   4.337 -0.1412  0.6169  1.3316
   76SOPE   H22 9908   5.312   1.142   4.351  1.0716 -0.9467  0.5650
   76SOPE   C13 9909   5.350   1.333   4.443 -0.3835  0.2464 -0.3541
   76SOPE   H23 9910   5.293   1.306   4.532 -0.2637  1.6073  0.1485
   76SOPE   H24 9911   5.290   1.417   4.409 -0.5794  1.0352  1.8112
   76SOPE   C14 9912   5.470   1.405   4.495  0.0115 -0.4157 -0.1392
   76SOPE   H25 9913   5.543   1.426   4.417 -0.8814  0.0736 -0.8462
   76SOPE   H26 9914   5.513   1.338   4.570  0.6612 -0.9754 -0.9924
   76SOPE   C15 9915   5.444   1.550   4.546 -0.2690  0.0695 -0.5692
   76SOPE   H27 9916   5.348   1.550   4.598 -0.9728 -2.2171 -1.7553
   76SOPE   H28 9917   5.434   1.616   4.459 -0.4238  1.4725  0.5009
   76SOPE   C16 9918   5.560   1.587   4.640 -0.5511 -0.3031  0.1253
   76SOPE   H29 9919   5.580   1.509   4.714 -1.4503 -0.2710  0.4073
   76SOPE   H30 9920   5.526   1.672   4.698  0.6541  1.1292 -1.2273
   76SOPE   C17 9921   5.685   1.631   4.569 -0.0695 -0.4729  0.3017
   76SOPE   H31 9922   5.664   1.701   4.487 -0.4535  0.8842  1.5322
   76SOPE   H32 9923   5.725   1.541   4.524  0.5313  0.3932 -0.9257
   76SOPE   C18 9924   5.791   1.695   4.657  0.2025  0.3741 -0.8337
   76SOPE   H33 9925   5.737   1.768   4.716  1.2565 -1.1580  2.1594
   76SOPE   H34 9926   5.864   1.752   4.599  0.3667  0.9793 -0.0353
   76SOPE   C19 9927   5.858   1.589   4.745  0.0528  0.3914 -0.0133
   76SOPE   H35 9928   5.931   1.528   4.693  1.4717  0.0074  2.3735
   76SOPE   C20 9929   5.830   1.557   4.875 -0.6605 -0.6860  0.2847
   76SOPE   H36 9930   5.885   1.485   4.933 -0.0933  1.0989  2.0247
   76SOPE   C21 9931   5.733   1.638   4.962  0.0920  1.2709 -0.0417
   76SOPE   H37 9932   5.694   1.726   4.911  1.0375  2.2524  0.8791
   76SOPE   H38 9933   5.792   1.681   5.043 -0.1488  0.5213  0.5384
   76SOPE   C22 9934   5.632   1.551   5.025  0.1789 -0.8059  0.3025
   76SOPE   H39 9935   5.669   1.448   5.034  0.9823 -0.3352  2.6743
   76SOPE   H40 9936   5.548   1.546   4.956  0.6638 -2.6450 -0.1917
   76SOPE   C23 9937   5.583   1.604   5.165  0.1379 -0.4372 -0.1692
   76SOPE   H41 9938   5.530   1.699   5.154  0.8434  0.0992  0.9735
   76SOPE   H42 9939   5.670   1.605   5.230 -0.5323  1.7635  0.7593
   76SOPE   C24 9940   5.481   1.516   5.227  0.3833  0.5706  0.4952
   76SOPE   H43 9941   5.528   1.421   5.254  1.0079  0.0857 -2.1381
   76SOPE   H44 9942   5.399   1.486   5.161  2.3484  1.8418 -2.6775
   76SOPE   C25 9943   5.417   1.587   5.343 -0.3116  0.1293  0.4350
   76SOPE   H45 9944   5.356   1.667   5.300 -0.7720 -0.5253 -0.1421
   76SOPE   H46 9945   5.495   1.628   5.408 -0.7318 -2.2153  2.4901
   76SOPE   C26 9946   5.330   1.500   5.434 -1.2350  0.4805  0.5645
   76SOPE   H47 9947   5.303   1.572   5.511  3.2310  3.4501 -0.4899
   76SOPE   H48 9948   5.248   1.452   5.381 -3.1076  1.5305  2.4120
   76SOPE   C27 9949   5.413   1.390   5.502 -0.2247  0.4395  0.3525
   76SOPE   H49 9950   5.502   1.426   5.554  0.5153  0.6398 -1.0302
   76SOPE   H50 9951   5.455   1.325   5.425 -4.7239 -0.5682 -1.3625
   76SOPE   C27 9952   5.315   1.308   5.590 -0.4539 -0.0743 -0.1960
   76SOPE   H51 9953   5.290   1.375   5.672 -1.9400  0.4255 -1.0392
   76SOPE   H52 9954   5.229   1.271   5.536 -0.1077 -0.8370 -0.2313
   76SOPE   H53 9955   5.371   1.227   5.638 -1.7864 -0.0234  1.4816
   76SOPE   C29 9956   5.226   0.761   4.086  0.1529 -0.8123 -0.6793
   76SOPE   H54 9957   5.150   0.814   4.028 -0.4103 -0.2533  0.5513
   76SOPE   H55 9958   5.237   0.814   4.181 -3.4107  1.0972 -1.2374
   76SOPE   C30 9959   5.168   0.628   4.127 -0.1630  0.7862 -0.5465
   76SOPE   H56 9960   5.167   0.563   4.039 -0.2514  0.8193 -0.5706
   76SOPE   H57 9961   5.068   0.643   4.168 -0.1279  0.1635 -0.2201
   76SOPE   C31 9962   5.257   0.557   4.231 -0.2390  0.4673 -0.0456
   76SOPE   H58 9963   5.354   0.534   4.187  1.2511  1.1714  2.7688
   76SOPE   H59 9964   5.206   0.462   4.243 -1.0867  0.7030 -1.5745
   76SOPE   C32 9965   5.266   0.631   4.364 -0.0382 -0.3945  0.6873
   76SOPE   H60 9966   5.167   0.671   4.383  0.5397  0.6583  1.5045
   76SOPE   H61 9967   5.326   0.721   4.358 -0.8066 -0.0084 -1.7384
   76SOPE   C33 9968   5.328   0.534   4.464 -0.1162 -0.5765 -0.1237
   76SOPE   H62 9969   5.417   0.484   4.426 -0.0918 -0.9127  0.3702
   76SOPE   H63 9970   5.252   0.461   4.491 -0.4676  0.6034  2.2291
   76SOPE   C34 9971   5.373   0.621   4.588  0.7661 -0.5271  0.5877
   76SOPE   H64 9972   5.289   0.687   4.606  0.5785 -1.0877  1.8746
   76SOPE   H65 9973   5.458   0.688   4.570 -0.8304  1.7949  1.4758
   76SOPE   C35 9974   5.399   0.533   4.705  0.6659  0.6764 -0.2144
   76SOPE   H66 9975   5.478   0.575   4.768  0.1829 -0.9241  1.5135
   76SOPE   H67 9976   5.424   0.436   4.663  3.0582  0.9011  0.6070
   76SOPE   C36 9977   5.273   0.524   4.796 -0.7497  0.1429  0.4601
   76SOPE   H68 9978   5.194   0.483   4.733 -0.5896 -2.1498  1.7101
   76SOPE   H69 9979   5.240   0.622   4.829 -0.4786 -0.0903  1.4583
   76SOPE   C37 9980   5.294   0.430   4.918 -0.1505  0.0373 -0.5096
   76SOPE   H70 9981   5.393   0.449   4.960  0.7076 -3.4817 -0.7382
   76SOPE   H71 9982   5.302   0.327   4.881  1.4534 -0.2520  0.5946
   76SOPE   C38 9983   5.190   0.445   5.030  0.2871 -0.0397 -0.4257
   76SOPE   H72 9984   5.094   0.440   4.979  1.6138 -2.4411 -2.7923
   76SOPE   H73 9985   5.192   0.543   5.078  0.4632  0.9523 -2.4109
   76SOPE   C39 9986   5.191   0.342   5.143 -1.0141 -0.0590 -0.1753
   76SOPE   H74 9987   5.285   0.350   5.198 -0.9358  3.0154 -0.6486
   76SOPE   H75 9988   5.189   0.239   5.106 -0.5890  0.5861 -2.0716
   76SOPE   C40 9989   5.078   0.355   5.244 -0.4971  0.1844  0.4138
   76SOPE   H76 9990   4.988   0.332   5.186 -1.0460  1.3593  0.7838
   76SOPE   H77 9991   5.068   0.456   5.283 -1.0766  0.9593 -1.6640
   76SOPE   C41 9992   5.083   0.247   5.356  1.0715 -0.2884  0.7154
   76SOPE   H78 9993   5.112   0.146   5.326 -1.4667 -0.9287  0.1990
   76SOPE   H79 9994   4.984   0.226   5.396  0.2665 -0.3121 -1.2154
   76SOPE   C42 9995   5.168   0.291   5.470  0.2911  0.1953  0.2536
   76SOPE   H80 9996   5.138   0.389   5.508  0.0380  0.1598  0.1449
   76SOPE   H81 9997   5.267   0.281   5.426  0.0175 -1.8394  0.0515
   76SOPE   C43 9998   5.166   0.188   5.587  0.0410  0.9582  0.9694
   76SOPE   H82 9999   5.069   0.195   5.635 -0.1444  2.6745  0.4044
   76SOPE   H8310000   5.182   0.089   5.545 -1.8794  0.6657  0.8859
   76SOPE   C4410001   5.281   0.218   5.684 -0.5504 -0.1112  0.1237
   76SOPE   H8410002   5.383   0.202   5.648 -1.6534 -2.6464 -2.0401
   76SOPE   H8510003   5.270   0.317   5.730 -1.1518 -0.8215  1.5433
   76SOPE   H8610004   5.266   0.156   5.773 -1.9881  0.2136  0.1249
   77SOPE    N110005   0.672   0.812   3.957 -0.0083  0.4144 -0.4772
   77SOPE    C110006   0.789   0.900   3.963  0.1767  0.0224  0.5244
   77SOPE    H110007   0.793   0.960   3.872  0.1457 -1.4045 -0.4308
   77SOPE    H210008   0.879   0.840   3.946 -0.3588 -0.6674  0.1145
   77SOPE    H310009   0.655   0.774   3.865  0.0404  1.2004 -0.8213
   77SOPE    H410010   0.594   0.867   3.991  0.2133  0.4322  0.0075
   77SOPE    H510011   0.705   0.741   4.020  0.6369  1.6080  0.5610
   77SOPE    C510012   0.806   0.982   4.096  0.5862 -0.5722  0.0594
   77SOPE   H1210013   0.711   1.024   4.129  0.9832 -0.6810  1.3737
   77SOPE   H1310014   0.845   0.930   4.184  3.1202  1.8864  0.4815
   77SOPE    P110015   0.828   1.235   4.017  0.1999 -0.1669  0.3429
   77SOPE    O110016   0.932   1.290   3.923  1.1992  0.2311  0.0231
   77SOPE    O210017   0.694   1.207   3.961 -0.0785  0.1036  0.3634
   77SOPE    O310018   0.888   1.098   4.070 -0.3590  0.2671  0.0307
   77SOPE    O410019   0.808   1.327   4.139  0.1202  0.0249  0.2141
   77SOPE    C610020   0.910   1.381   4.227  0.2052  0.3925 -0.7649
   77SOPE   H1410021   0.890   1.488   4.228 -0.1131  0.3306  0.2451
   77SOPE   H1510022   1.014   1.376   4.196  0.7592 -0.1602  1.1584
   77SOPE    C710023   0.911   1.329   4.368 -0.0176 -0.2305 -0.5388
   77SOPE   H1610024   1.000   1.269   4.386  1.4146  1.0934 -2.8756
   77SOPE    O510025   0.801   1.248   4.384 -0.3813  0.0573 -0.3568
   77SOPE    C810026   0.803   1.116   4.420 -0.4334  0.1151 -0.1448
   77SOPE    O610027   0.903   1.060   4.464 -0.1321  0.0434  0.4972
   77SOPE    C910028   0.666   1.053   4.411  0.6358 -0.1628  0.1459
   77SOPE   H1710029   0.668   0.965   4.347  1.2332 -0.8173  1.0374
   77SOPE   H1810030   0.593   1.124   4.372  0.9529  0.1293  0.0760
   77SOPE   C1010031   0.925   1.444   4.471 -0.1179 -0.7206 -0.2763
   77SOPE   H1910032   0.857   1.527   4.456  1.7851  0.6858 -1.4800
   77SOPE   H2010033   1.024   1.491   4.463 -0.3764  0.1584  1.4500
   77SOPE    O710034   0.899   1.400   4.606  0.4463  0.1650 -0.3743
   77SOPE   C1110035   0.998   1.353   4.681 -0.0333  0.8539 -0.7297
   77SOPE    O810036   1.105   1.307   4.638 -0.7770 -0.9061 -0.5380
   77SOPE   C1210037   0.953   1.341   4.830  0.4271 -0.4803 -0.1120
   77SOPE   H2110038   0.945   1.435   4.884 -1.7632 -1.2147  0.9046
   77SOPE   H2210039   1.046   1.306   4.874  0.9257 -0.5991 -1.2299
   77SOPE   C1310040   0.826   1.254   4.848  0.5110  0.2066 -0.2122
   77SOPE   H2310041   0.812   1.196   4.758 -2.1484  2.5793 -1.4080
   77SOPE   H2410042   0.736   1.314   4.857  1.0144  0.9380  0.0979
   77SOPE   C1410043   0.830   1.176   4.973  0.2971  0.3252  0.0620
   77SOPE   H2510044   0.922   1.116   4.970  0.8657  1.1862  0.1684
   77SOPE   H2610045   0.754   1.098   4.978 -2.7047  2.9722 -2.4500
   77SOPE   C1510046   0.836   1.257   5.106 -0.2503  0.1177 -0.4222
   77SOPE   H2710047   0.767   1.341   5.103 -1.1371 -0.5976 -0.5171
   77SOPE   H2810048   0.931   1.304   5.128  0.6117 -0.2179 -3.2162
   77SOPE   C1610049   0.801   1.178   5.235 -0.0011 -0.1138 -0.2406
   77SOPE   H2910050   0.884   1.114   5.266 -0.3549  0.1702  1.3549
   77SOPE   H3010051   0.713   1.119   5.209  1.4907 -2.0832 -1.0513
   77SOPE   C1710052   0.772   1.265   5.355  0.1355  0.0993 -0.1562
   77SOPE   H3110053   0.705   1.346   5.328  0.9533  0.8430  0.0153
   77SOPE   H3210054   0.863   1.323   5.368 -0.0686  0.0980  1.3695
   77SOPE   C1810055   0.746   1.198   5.488 -0.4831  0.7697  0.3068
   77SOPE   H3310056   0.724   1.274   5.563  0.8698  2.3121 -0.8249
   77SOPE   H3410057   0.839   1.145   5.507 -0.1340  0.7358 -1.4418
   77SOPE   C1910058   0.629   1.106   5.478 -0.1767 -0.1987 -0.3645
   77SOPE   H3510059   0.537   1.160   5.459  0.0616  0.4155  0.1866
   77SOPE   C2010060   0.639   0.970   5.474  0.6539  0.8817  0.7407
   77SOPE   H3610061   0.549   0.911   5.465  2.9798 -2.4292 -1.9426
   77SOPE   C2110062   0.767   0.898   5.496 -0.4363  0.9171 -0.1297
   77SOPE   H3710063   0.780   0.894   5.604 -1.3603  1.1489  0.0013
   77SOPE   H3810064   0.855   0.937   5.445  0.0272 -0.5062 -0.4507
   77SOPE   C2210065   0.742   0.758   5.438  0.4075 -0.2962  0.8164
   77SOPE   H3910066   0.652   0.712   5.479  1.0007 -1.7707  0.5136
   77SOPE   H4010067   0.821   0.691   5.473  0.9644  0.8266  1.7579
   77SOPE   C2310068   0.728   0.759   5.287  0.2449 -0.3476 -1.0493
   77SOPE   H4110069   0.658   0.836   5.255  1.4997  0.3082 -2.2926
   77SOPE   H4210070   0.693   0.658   5.265  2.3739 -1.2257 -0.4957
   77SOPE   C2410071   0.865   0.772   5.217  0.6619 -0.9285 -0.0729
   77SOPE   H4310072   0.924   0.682   5.235  0.3703 -0.5763  2.8175
   77SOPE   H4410073   0.929   0.856   5.241 -1.3112  0.4256  0.6370
   77SOPE   C2510074   0.843   0.780   5.066  0.8406 -0.2111 -0.4229
   77SOPE   H4510075   0.818   0.879   5.028  0.7454  0.3722  1.1657
   77SOPE   H4610076   0.767   0.711   5.028  2.1260 -0.7992 -1.9782
   77SOPE   C2610077   0.959   0.734   4.996  0.0783  0.4924  0.1461
   77SOPE   H4710078   1.040   0.804   5.018 -0.1939  0.7065  0.4779
   77SOPE   H4810079   0.989   0.633   5.023  0.1153 -0.1195 -2.1063
   77SOPE   C2710080   0.954   0.734   4.839 -0.5932 -0.9841 -0.1932
   77SOPE   H4910081   0.855   0.705   4.804 -0.8903  0.1882 -0.3705
   77SOPE   H5010082   1.022   0.657   4.804 -0.6590 -3.3988  4.5469
   77SOPE   C2710083   0.983   0.870   4.775 -0.2043  0.2361 -0.1931
   77SOPE   H5110084   0.914   0.953   4.794 -0.3082  0.2924 -0.7923
   77SOPE   H5210085   1.073   0.913   4.818 -0.4001 -1.5340  2.0542
   77SOPE   H5310086   1.005   0.857   4.669 -0.9676  0.6140 -0.4077
   77SOPE   C2910087   0.612   1.011   4.555  0.3563 -0.3088 -0.0669
   77SOPE   H5410088   0.691   0.984   4.625 -0.6367  0.5015  1.3973
   77SOPE   H5510089   0.539   0.930   4.549 -0.6695  0.6994 -1.9297
   77SOPE   C3010090   0.547   1.131   4.621 -0.3087 -0.0297 -0.9957
   77SOPE   H5610091   0.492   1.188   4.547 -0.0608  1.0720 -0.3427
   77SOPE   H5710092   0.630   1.200   4.637  0.1760 -0.8102 -0.1137
   77SOPE   C3110093   0.488   1.091   4.760 -0.2107 -0.3953  0.0278
   77SOPE   H5810094   0.554   1.023   4.813 -1.0989 -1.6833 -0.4941
   77SOPE   H5910095   0.400   1.030   4.742 -1.3066  1.0952  0.2080
   77SOPE   C3210096   0.453   1.211   4.846  0.3652 -0.8089 -0.4508
   77SOPE   H6010097   0.360   1.255   4.810  1.7640  0.5136 -2.5874
   77SOPE   H6110098   0.526   1.289   4.822 -0.9316  0.0853 -1.5637
   77SOPE   C3310099   0.456   1.176   4.996 -0.4440  0.6027 -0.2378
   77SOPE   H6210100   0.556   1.189   5.035 -0.6485  1.3123  0.0451
   77SOPE   H6310101   0.431   1.071   5.011 -0.4475  0.5651 -0.4870
   77SOPE   C3410102   0.352   1.259   5.070 -0.5462  0.8139 -0.0878
   77SOPE   H6410103   0.257   1.263   5.017  0.2926 -0.4668 -1.7148
   77SOPE   H6510104   0.394   1.355   5.097  0.1664 -0.0591  2.0401
   77SOPE   C3510105   0.304   1.195   5.202 -0.2745 -0.4710 -0.3956
   77SOPE   H6610106   0.390   1.164   5.260  0.3518 -0.7464 -1.4525
   77SOPE   H6710107   0.249   1.102   5.183  1.6544 -1.7361  0.1239
   77SOPE   C3610108   0.229   1.291   5.297  0.4856 -0.8363 -0.1810
   77SOPE   H6810109   0.174   1.355   5.227  0.7515  0.8526  1.1333
   77SOPE   H6910110   0.296   1.352   5.358  0.8414 -2.0884  0.6942
   77SOPE   C3710111   0.133   1.220   5.391 -0.0308 -0.0931 -0.5862
   77SOPE   H7010112   0.107   1.297   5.464  0.4669  0.0755 -0.5873
   77SOPE   H7110113   0.174   1.134   5.444 -0.3369 -0.3516 -0.7671
   77SOPE   C3810114   0.000   1.180   5.323 -0.3480  0.2427  0.2676
   77SOPE   H7210115   0.024   1.101   5.251  1.1334 -1.4998  2.5860
   77SOPE   H7310116   5.909   1.266   5.268 -1.1547  0.4129  1.1042
   77SOPE   C3910117   5.835   1.119   5.416  0.2882 -0.2472  0.8380
   77SOPE   H7410118   5.883   1.051   5.487 -0.1082 -1.1189  0.2843
   77SOPE   H7510119   5.758   1.066   5.360  0.6400 -1.2783  1.3129
   77SOPE   C4010120   5.762   1.213   5.507  0.1580 -0.7268  0.3250
   77SOPE   H7610121   5.715   1.287   5.442 -1.0142 -0.9873  0.8595
   77SOPE   H7710122   5.828   1.264   5.577 -0.1702 -0.9369  0.7845
   77SOPE   C4110123   5.639   1.151   5.577 -0.2855  0.3548 -1.2813
   77SOPE   H7810124   5.554   1.122   5.515 -1.4350 -0.9677  0.8501
   77SOPE   H7910125   5.602   1.220   5.653  1.3537  0.7547 -0.8312
   77SOPE   C4210126   5.665   1.018   5.650 -0.2994  0.5636 -0.2563
   77SOPE   H8010127   5.743   1.032   5.724  0.4041 -3.5155 -0.1038
   77SOPE   H8110128   5.702   0.953   5.571  3.1355 -1.0312  2.5688
   77SOPE   C4310129   5.546   0.951   5.716 -0.8327 -0.0665  0.0846
   77SOPE   H8210130   5.550   0.984   5.819 -0.0110 -1.4479  0.5160
   77SOPE   H8310131   5.449   0.993   5.692 -0.6922  0.9984  1.3312
   77SOPE   C4410132   5.541   0.796   5.718  1.0455 -0.9149  0.0758
   77SOPE   H8410133   5.440   0.765   5.745  1.3310 -0.1329  2.0943
   77SOPE   H8510134   5.562   0.744   5.625 -0.9556 -2.1993  0.3051
   77SOPE   H8610135   5.603   0.749   5.794 -0.2102 -1.6156  0.6759
   78SOPE    N110136   3.348   1.230   3.922  0.1915 -0.2698 -0.5916
   78SOPE    C110137   3.466   1.257   3.839  0.2729 -0.4269 -0.3047
   78SOPE    H110138   3.446   1.319   3.752 -0.9361  1.1868  1.0819
   78SOPE    H210139   3.497   1.163   3.793 -0.5459  0.5044 -2.8699
   78SOPE    H310140   3.341   1.303   3.992 -0.4313 -0.5764 -0.3349
   78SOPE    H410141   3.358   1.138   3.963 -0.6568 -0.6545 -1.2374
   78SOPE    H510142   3.274   1.235   3.854 -2.1430 -2.1250  1.6741
   78SOPE    C510143   3.597   1.308   3.911  0.3557  0.6276 -0.2449
   78SOPE   H1210144   3.628   1.227   3.977  5.1066  0.4281 -2.4693
   78SOPE   H1310145   3.581   1.405   3.959 -1.5854  0.1943  0.0277
   78SOPE    P110146   3.719   1.476   3.750  0.4572 -0.1992 -0.4619
   78SOPE    O110147   3.816   1.447   3.641  0.1121 -0.2533 -0.8535
   78SOPE    O210148   3.586   1.526   3.700 -0.3418 -0.7685  0.3280
   78SOPE    O310149   3.688   1.333   3.807  0.5932  0.0656 -0.6139
   78SOPE    O410150   3.783   1.574   3.848 -0.5509  0.2660 -0.3446
   78SOPE    C610151   3.900   1.539   3.924  0.1522 -0.1097  0.5628
   78SOPE   H1410152   3.958   1.631   3.925 -0.3110  0.1847  0.3835
   78SOPE   H1510153   3.961   1.460   3.879  2.3991  2.0693 -0.3491
   78SOPE    C710154   3.861   1.522   4.071  0.6345 -0.0670  0.3170
   78SOPE   H1610155   3.766   1.471   4.086  0.4837  0.4808  1.2709
   78SOPE    O510156   3.868   1.649   4.134  1.1932 -0.4648  0.5449
   78SOPE    C810157   3.751   1.715   4.165 -0.5504  0.4068 -0.6796
   78SOPE    O610158   3.637   1.667   4.163 -0.4652  0.3808 -0.0976
   78SOPE    C910159   3.783   1.819   4.274 -0.2406  0.2671  0.0424
   78SOPE   H1710160   3.807   1.911   4.220 -0.8400  0.7749  0.6128
   78SOPE   H1810161   3.868   1.787   4.333 -1.6805 -0.3682  1.8148
   78SOPE   C1010162   3.965   1.447   4.140 -0.9115  0.1819 -0.4744
   78SOPE   H1910163   4.057   1.502   4.120  0.1099 -1.3297 -0.0089
   78SOPE   H2010164   3.980   1.353   4.087  0.8915  0.2991 -0.2210
   78SOPE    O710165   3.954   1.418   4.273 -0.1567  0.4059 -0.7840
   78SOPE   C1110166   3.860   1.338   4.323 -0.0157 -0.1218  0.0457
   78SOPE    O810167   3.792   1.268   4.245  0.2938  0.8163  0.4594
   78SOPE   C1210168   3.877   1.300   4.475  0.2354 -0.5713 -0.1906
   78SOPE   H2110169   3.860   1.192   4.480  0.5080 -0.5961  0.3037
   78SOPE   H2210170   3.781   1.339   4.509 -0.1421 -0.7138 -1.0997
   78SOPE   C1310171   3.982   1.370   4.565 -0.3746 -0.3897 -0.3434
   78SOPE   H2310172   3.962   1.477   4.553 -1.0045 -0.4179  0.3841
   78SOPE   H2410173   4.081   1.348   4.525 -0.6031 -0.0290 -1.1221
   78SOPE   C1410174   3.967   1.330   4.717  0.0092  0.4783 -0.4097
   78SOPE   H2510175   4.014   1.236   4.746 -1.0088  0.2952  0.6910
   78SOPE   H2610176   3.862   1.310   4.738  0.0894 -3.1074 -2.9364
   78SOPE   C1510177   4.028   1.434   4.807 -0.1334  0.6099  1.2657
   78SOPE   H2710178   3.979   1.531   4.795  0.4844  0.7891  0.0856
   78SOPE   H2810179   4.121   1.470   4.765 -0.7155  2.6561  1.6730
   78SOPE   C1610180   4.047   1.417   4.965 -0.0133  0.1190  0.3987
   78SOPE   H2910181   4.100   1.324   4.985 -1.4995 -0.7136  0.5487
   78SOPE   H3010182   3.944   1.411   5.000  0.5048 -1.4475  1.6795
   78SOPE   C1710183   4.110   1.536   5.043  0.2208 -0.2165  0.2937
   78SOPE   H3110184   4.091   1.535   5.150  1.7114 -0.4738  0.5736
   78SOPE   H3210185   4.060   1.632   5.026 -2.1374 -1.5650 -0.6314
   78SOPE   C1810186   4.260   1.555   5.025 -0.1246  0.1278 -0.1866
   78SOPE   H3310187   4.282   1.578   4.921 -1.2207 -0.4625 -0.5542
   78SOPE   H3410188   4.312   1.459   5.025 -2.0188 -0.9205  1.0190
   78SOPE   C1910189   4.322   1.660   5.115  0.0955 -0.6101  1.3868
   78SOPE   H3510190   4.300   1.764   5.099  0.3503 -0.9207 -1.2239
   78SOPE   C2010191   4.408   1.635   5.218  0.8969  0.0372  0.0712
   78SOPE   H3610192   4.444   1.716   5.279 -0.7468 -0.3876  1.6320
   78SOPE   C2110193   4.482   1.502   5.241 -0.0751  0.0537 -0.5405
   78SOPE   H3710194   4.588   1.521   5.259  0.0404 -1.4179  0.3627
   78SOPE   H3810195   4.480   1.441   5.151  2.5600  1.4538 -1.6193
   78SOPE   C2210196   4.438   1.411   5.358 -0.3750 -0.4791 -1.3186
   78SOPE   H3910197   4.330   1.393   5.348 -0.5875  0.6783 -1.1374
   78SOPE   H4010198   4.447   1.474   5.446 -0.2849 -0.9978 -0.9555
   78SOPE   C2310199   4.529   1.285   5.375  0.6186 -0.1251 -0.4978
   78SOPE   H4110200   4.627   1.322   5.346  0.7639  0.0220  0.1737
   78SOPE   H4210201   4.487   1.213   5.305 -3.3839  0.5273  1.0744
   78SOPE   C2410202   4.506   1.233   5.518 -0.3614  0.4567  0.2943
   78SOPE   H4310203   4.399   1.215   5.520 -0.4166  0.6429 -0.7015
   78SOPE   H4410204   4.520   1.311   5.593 -2.7363 -1.5312  2.9188
   78SOPE   C2510205   4.584   1.102   5.539  0.0271  0.7092 -0.1181
   78SOPE   H4510206   4.560   1.057   5.635 -3.6989  2.8265  0.0595
   78SOPE   H4610207   4.692   1.114   5.535 -0.0206  0.4854 -4.0320
   78SOPE   C2610208   4.546   0.992   5.441  0.3720  0.0161  0.2842
   78SOPE   H4710209   4.438   0.975   5.432 -0.3052  3.0948  1.9193
   78SOPE   H4810210   4.581   1.024   5.343  1.6617  1.0170  1.0501
   78SOPE   C2710211   4.611   0.856   5.463 -0.4092  0.1030  0.1478
   78SOPE   H4910212   4.570   0.779   5.398  2.2956  0.6788 -2.3325
   78SOPE   H5010213   4.586   0.812   5.560  0.3619 -1.7311 -0.4553
   78SOPE   C2710214   4.763   0.867   5.433 -0.0813  0.4862  0.2153
   78SOPE   H5110215   4.787   0.883   5.328  0.4416  2.4376  0.6077
   78SOPE   H5210216   4.801   0.957   5.481  0.8099  0.0265  0.3836
   78SOPE   H5310217   4.815   0.784   5.481  3.0436  1.7788 -0.8371
   78SOPE   C2910218   3.665   1.858   4.368  0.2819 -0.2932  0.9948
   78SOPE   H5410219   3.623   1.769   4.415 -1.8106 -0.1981 -0.6393
   78SOPE   H5510220   3.580   1.894   4.310  2.0410  0.2203 -1.3273
   78SOPE   C3010221   3.704   1.961   4.469 -0.5459 -0.5032 -0.3478
   78SOPE   H5610222   3.615   1.990   4.525  0.8122  2.4518  0.3590
   78SOPE   H5710223   3.736   2.053   4.419 -0.7735 -0.1562  0.1467
   78SOPE   C3110224   3.812   1.914   4.569  0.1241 -0.4798 -0.1663
   78SOPE   H5810225   3.911   1.926   4.525  0.8497  1.4785  1.9092
   78SOPE   H5910226   3.790   1.808   4.582 -2.1118 -0.7752 -5.3169
   78SOPE   C3210227   3.810   2.002   4.693  0.0275  0.7046  0.9763
   78SOPE   H6010228   3.704   1.999   4.721 -0.1775 -0.9486  0.1138
   78SOPE   H6110229   3.832   2.106   4.669  0.2652  0.2922 -0.6309
   78SOPE   C3310230   3.916   1.958   4.789  0.2131  0.3055 -0.1032
   78SOPE   H6210231   4.013   1.977   4.742  1.1111  1.0028  1.9631
   78SOPE   H6310232   3.902   1.852   4.808  0.8410  0.2241 -0.0628
   78SOPE   C3410233   3.911   2.044   4.922  0.0601  0.0356  0.6885
   78SOPE   H6410234   3.806   2.046   4.950  0.2742  0.8200  1.4309
   78SOPE   H6510235   3.943   2.146   4.902 -0.5176 -0.1820 -1.4870
   78SOPE   C3510236   4.013   1.993   5.022 -0.4678  0.0315 -1.0704
   78SOPE   H6610237   4.107   1.975   4.970  1.9000  2.4627  2.2273
   78SOPE   H6710238   3.975   1.893   5.047  2.3170 -0.4063  1.7349
   78SOPE   C3610239   4.037   2.085   5.143  0.0882  0.2308 -0.1944
   78SOPE   H6810240   3.947   2.142   5.165 -0.6034 -1.6471  2.0441
   78SOPE   H6910241   4.110   2.164   5.124  1.4977 -0.9854  0.0990
   78SOPE   C3710242   4.066   2.002   5.275  0.5182 -0.8496 -0.1937
   78SOPE   H7010243   4.159   1.945   5.274  1.9552  1.3822  0.4600
   78SOPE   H7110244   3.989   1.926   5.282  0.3631 -0.5250  2.1779
   78SOPE   C3810245   4.064   2.087   5.404 -0.1607  0.6403  0.3215
   78SOPE   H7210246   4.053   2.010   5.481  1.2914 -0.6315 -0.7114
   78SOPE   H7310247   3.981   2.156   5.414 -0.6008  0.2672 -0.7660
   78SOPE   C3910248   4.182   2.181   5.423 -0.1182 -0.7189  0.1302
   78SOPE   H7410249   4.192   2.250   5.340  0.2486  0.1770  0.9148
   78SOPE   H7510250   4.267   2.113   5.414  0.6492  0.3908 -1.2448
   78SOPE   C4010251   4.172   2.270   5.554  0.2850 -0.1094 -0.1480
   78SOPE   H7610252   4.130   2.210   5.635 -0.2133  0.8974  0.3476
   78SOPE   H7710253   4.093   2.341   5.531 -0.2380 -0.1191  1.5230
   78SOPE   C4110254   4.305   2.340   5.582  0.0451 -0.4494 -0.0141
   78SOPE   H7810255   4.350   2.389   5.497  1.1490 -1.1624  0.1446
   78SOPE   H7910256   4.363   2.254   5.616  0.0689 -0.1778  0.6303
   78SOPE   C4210257   4.279   2.436   5.697 -0.9902  0.0324 -0.4215
   78SOPE   H8010258   4.205   2.508   5.663 -1.0646  0.2797  0.2445
   78SOPE   H8110259   4.378   2.479   5.715 -0.0957 -1.3522 -1.9204
   78SOPE   C4310260   4.230   2.374   5.822  0.5501 -0.1768  0.0786
   78SOPE   H8210261   4.138   2.318   5.806  0.7741 -0.9378  1.2905
   78SOPE   H8310262   4.293   2.292   5.858  2.3978  1.2725  0.2655
   78SOPE   C4410263   4.213   2.476   5.940 -0.4935 -0.1568 -0.0949
   78SOPE   H8410264   4.171   2.573   5.914 -0.5241  0.0052  0.5497
   78SOPE   H8510265   4.154   2.422   6.014 -0.8628  0.4345  0.0463
   78SOPE   H8610266   4.311   2.489   5.987 -0.9042  2.2852  0.1519
   79SOPE    N110267   3.759   2.158   3.790 -0.1286 -0.0550 -0.4691
   79SOPE    C110268   3.859   2.255   3.750  0.4002 -0.3627 -0.0018
   79SOPE    H110269   3.834   2.355   3.787 -2.4871 -1.3474  0.9230
   79SOPE    H210270   3.850   2.255   3.642  1.6854  1.9825 -0.1414
   79SOPE    H310271   3.674   2.193   3.748  0.0969  2.4628  1.1046
   79SOPE    H410272   3.757   2.163   3.891  0.6635 -1.5571 -0.3657
   79SOPE    H510273   3.786   2.071   3.746  0.2154  0.4723 -1.3066
   79SOPE    C510274   4.001   2.223   3.795  0.0970  0.3226 -0.1448
   79SOPE   H1210275   4.028   2.117   3.792  1.5379  0.5243  2.9400
   79SOPE   H1310276   4.001   2.245   3.902  1.5492  0.5537 -0.1855
   79SOPE    P110277   4.184   2.249   3.602  0.0814 -0.2432 -0.3642
   79SOPE    O110278   4.110   2.135   3.552  0.3894  0.3200  0.0587
   79SOPE    O210279   4.199   2.368   3.520 -0.1302 -0.5593  0.0008
   79SOPE    O310280   4.096   2.299   3.731  0.2102  0.0841 -0.3767
   79SOPE    O410281   4.320   2.199   3.655 -0.0864  0.5342  0.2919
   79SOPE    C610282   4.408   2.275   3.729  0.3370 -0.2748 -0.1651
   79SOPE   H1410283   4.429   2.362   3.666 -2.5242  0.4803 -0.1650
   79SOPE   H1510284   4.502   2.222   3.739  0.0707 -1.1759 -2.0595
   79SOPE    C710285   4.368   2.320   3.862 -0.2796 -0.7227  0.1964
   79SOPE   H1610286   4.284   2.388   3.846  0.7029  0.4349 -0.1610
   79SOPE    O510287   4.480   2.394   3.910  0.2128 -0.6726 -0.2774
   79SOPE    C810288   4.472   2.512   3.965  0.1652 -0.1358 -0.9887
   79SOPE    O610289   4.390   2.598   3.937 -0.4511 -0.1404  0.4389
   79SOPE    C910290   4.575   2.527   4.085  0.0687  0.6057 -0.8895
   79SOPE   H1710291   4.675   2.524   4.040 -0.0325 -0.3742 -1.0674
   79SOPE   H1810292   4.569   2.441   4.152  0.9170  0.2334 -1.2823
   79SOPE   C1010293   4.341   2.211   3.962  0.1259 -0.4438  0.9991
   79SOPE   H1910294   4.430   2.156   3.992  1.6764 -0.2475 -2.9049
   79SOPE   H2010295   4.269   2.142   3.919 -1.0301 -0.0748  2.2943
   79SOPE    O710296   4.279   2.273   4.075 -0.4876  0.0389  0.0806
   79SOPE   C1110297   4.247   2.199   4.181 -0.4275 -0.6442 -0.4868
   79SOPE    O810298   4.233   2.079   4.180 -0.1522 -0.3452 -0.0752
   79SOPE   C1210299   4.162   2.276   4.279 -0.3215  0.0278 -0.1237
   79SOPE   H2110300   4.067   2.283   4.225  0.1648  1.6081 -0.8204
   79SOPE   H2210301   4.204   2.376   4.291 -0.5380  0.0501  0.4296
   79SOPE   C1310302   4.152   2.218   4.421 -0.1294 -0.5777 -0.0717
   79SOPE   H2310303   4.115   2.116   4.432 -3.0331  0.6459  2.1444
   79SOPE   H2410304   4.077   2.278   4.472  0.6971 -2.2026  3.1949
   79SOPE   C1410305   4.277   2.229   4.513 -0.0837 -0.1775 -0.7873
   79SOPE   H2510306   4.359   2.182   4.459  0.5341  0.1600 -0.1514
   79SOPE   H2610307   4.269   2.155   4.593  0.2098  0.5131 -0.1155
   79SOPE   C1510308   4.319   2.369   4.545 -0.6987  0.5263 -0.0276
   79SOPE   H2710309   4.242   2.412   4.609 -0.6408  0.2330  0.2410
   79SOPE   H2810310   4.338   2.424   4.452  1.4542 -1.5752 -0.8765
   79SOPE   C1610311   4.442   2.369   4.629  0.9284  0.0686  0.1478
   79SOPE   H2910312   4.513   2.314   4.566 -1.2141 -1.6119 -0.8702
   79SOPE   H3010313   4.415   2.318   4.721  2.5826 -3.4377 -1.2167
   79SOPE   C1710314   4.492   2.512   4.652  0.4466 -0.5175 -0.2888
   79SOPE   H3110315   4.495   2.555   4.552 -1.9680 -2.9288 -1.4573
   79SOPE   H3210316   4.594   2.501   4.689  0.2355  0.0893  0.4989
   79SOPE   C1810317   4.396   2.606   4.740  0.0091 -0.4582 -0.2688
   79SOPE   H3310318   4.409   2.579   4.845 -0.7456 -2.3453 -0.6429
   79SOPE   H3410319   4.301   2.584   4.692 -1.4523 -0.6258  2.5781
   79SOPE   C1910320   4.437   2.752   4.727  0.4408 -0.4049  0.0434
   79SOPE   H3510321   4.521   2.770   4.661  0.8304 -0.8198  0.4236
   79SOPE   C2010322   4.384   2.855   4.799 -0.3585 -0.7419 -0.4939
   79SOPE   H3610323   4.424   2.952   4.772 -0.4159 -0.8299 -0.9108
   79SOPE   C2110324   4.279   2.840   4.917 -0.4557 -0.3239 -0.8656
   79SOPE   H3710325   4.336   2.883   4.999 -1.1037 -1.8764  0.4054
   79SOPE   H3810326   4.262   2.734   4.934 -3.3096 -0.1791 -2.4608
   79SOPE   C2210327   4.151   2.915   4.877 -0.5170 -0.5265 -0.1899
   79SOPE   H3910328   4.136   2.894   4.772  0.8298 -2.3239 -0.0401
   79SOPE   H4010329   4.163   3.023   4.887 -0.6832 -0.2872 -2.3670
   79SOPE   C2310330   4.024   2.893   4.958  0.2049  0.4192 -0.2492
   79SOPE   H4110331   4.044   2.944   5.053  0.6890 -0.9047  0.3757
   79SOPE   H4210332   4.021   2.786   4.980  1.0129  0.3968 -0.2151
   79SOPE   C2410333   3.899   2.950   4.893 -0.0017 -0.0653 -0.1676
   79SOPE   H4310334   3.867   2.899   4.803  0.7890 -0.4350 -0.2442
   79SOPE   H4410335   3.916   3.055   4.871 -0.2640 -0.3398 -1.7409
   79SOPE   C2510336   3.783   2.956   4.993 -0.3294  0.2514  0.3765
   79SOPE   H4510337   3.824   2.996   5.086 -1.0414 -1.9245  1.6510
   79SOPE   H4610338   3.758   2.852   5.017  1.7478 -0.6740 -1.3590
   79SOPE   C2610339   3.657   3.036   4.957  0.3194  0.4591 -0.0900
   79SOPE   H4710340   3.678   3.133   4.913 -1.5491  0.8636 -0.1637
   79SOPE   H4810341   3.585   2.983   4.894 -0.1685  1.9807 -0.8483
   79SOPE   C2710342   3.579   3.065   5.085  0.2430 -0.3170  0.3010
   79SOPE   H4910343   3.646   3.118   5.154 -0.4491 -1.3578  1.7892
   79SOPE   H5010344   3.544   2.982   5.146 -0.6794  1.2054  1.8955
   79SOPE   C2710345   3.462   3.164   5.064 -0.2869  0.0547  0.8803
   79SOPE   H5110346   3.395   3.169   5.150 -1.3225  1.3070  0.0293
   79SOPE   H5210347   3.507   3.262   5.046 -0.1528 -0.4104 -1.4613
   79SOPE   H5310348   3.407   3.131   4.976  0.0799 -0.1601  0.7314
   79SOPE   C2910349   4.561   2.647   4.177  0.5687  0.1858 -0.2275
   79SOPE   H5410350   4.606   2.623   4.273 -0.0170 -0.0044  0.0041
   79SOPE   H5510351   4.457   2.667   4.206 -0.3256 -1.2076 -2.4138
   79SOPE   C3010352   4.608   2.786   4.116  0.5748  0.2890 -0.4027
   79SOPE   H5610353   4.549   2.818   4.031 -0.8083  0.8176  0.7500
   79SOPE   H5710354   4.712   2.770   4.086 -0.4858  0.4923 -4.4535
   79SOPE   C3110355   4.610   2.894   4.230  0.3813  0.0128 -0.9991
   79SOPE   H5810356   4.703   2.950   4.220  0.8617 -0.7704 -0.9916
   79SOPE   H5910357   4.628   2.843   4.325  2.6685  2.3762 -0.1075
   79SOPE   C3210358   4.474   2.967   4.241 -0.1019 -0.3059  0.5889
   79SOPE   H6010359   4.398   2.898   4.204  0.1693 -0.5413  0.4640
   79SOPE   H6110360   4.457   3.053   4.176 -1.7383 -1.9535 -1.2509
   79SOPE   C3310361   4.453   3.014   4.384 -0.9345  0.1546  0.4100
   79SOPE   H6210362   4.525   3.094   4.402 -0.1917  0.1260 -2.2571
   79SOPE   H6310363   4.462   2.932   4.455 -1.5773  0.0544  0.3771
   79SOPE   C3410364   4.314   3.076   4.402 -0.2044  0.4289  0.4847
   79SOPE   H6410365   4.239   3.015   4.353  0.4825  0.3652 -0.5038
   79SOPE   H6510366   4.310   3.169   4.345  0.5258 -0.5634 -1.2118
   79SOPE   C3510367   4.278   3.100   4.548  0.0543  0.5567  0.0664
   79SOPE   H6610368   4.365   3.110   4.613  0.4780  0.5763 -0.5015
   79SOPE   H6710369   4.228   3.009   4.582 -0.6821  0.8504 -0.2289
   79SOPE   C3610370   4.168   3.204   4.571 -0.2302  0.1822 -0.1725
   79SOPE   H6810371   4.205   3.295   4.525 -1.7064  1.7488  1.6543
   79SOPE   H6910372   4.147   3.230   4.675 -0.7942  2.1825 -0.7514
   79SOPE   C3710373   4.043   3.159   4.501 -0.3737 -0.6219 -0.7089
   79SOPE   H7010374   4.012   3.056   4.511 -3.1871  0.0506 -2.1404
   79SOPE   H7110375   4.065   3.168   4.395  1.0990  0.8291 -0.3095
   79SOPE   C3810376   3.920   3.236   4.551  1.0220  0.6822  0.5674
   79SOPE   H7210377   3.937   3.343   4.543  0.3288  0.7463 -0.2025
   79SOPE   H7310378   3.908   3.198   4.653  2.0574 -0.5349  0.2506
   79SOPE   C3910379   3.794   3.197   4.467 -0.2368  0.5680 -0.4149
   79SOPE   H7410380   3.810   3.188   4.359 -3.1260 -2.8282 -0.6432
   79SOPE   H7510381   3.724   3.279   4.479 -0.1422  0.5275  0.4750
   79SOPE   C4010382   3.725   3.065   4.508 -0.2717 -0.8721  0.2548
   79SOPE   H7610383   3.692   3.065   4.612  4.7207 -1.8678  1.9588
   79SOPE   H7710384   3.800   2.986   4.505  0.9120  0.2131  1.1592
   79SOPE   C4110385   3.605   3.015   4.424 -0.4500  0.6543  0.2164
   79SOPE   H7810386   3.629   3.024   4.318 -2.6300  0.9757 -0.2791
   79SOPE   H7910387   3.521   3.078   4.453 -2.0310 -0.4270 -1.8498
   79SOPE   C4210388   3.565   2.868   4.448  0.0725  0.1895 -0.4062
   79SOPE   H8010389   3.580   2.853   4.555 -0.7932 -0.1351 -0.3226
   79SOPE   H8110390   3.647   2.809   4.407  0.7031  0.3868  0.5565
   79SOPE   C4310391   3.437   2.814   4.386 -0.9426  0.2601 -0.1164
   79SOPE   H8210392   3.372   2.899   4.365  0.8793  1.7762  0.2895
   79SOPE   H8310393   3.454   2.773   4.286  3.5393  1.7191 -0.0304
   79SOPE   C4410394   3.368   2.714   4.478 -0.3354  0.1863  0.2643
   79SOPE   H8410395   3.273   2.678   4.438  1.0969 -1.9525 -1.3123
   79SOPE   H8510396   3.435   2.629   4.492 -0.4486  0.7458  5.3554
   79SOPE   H8610397   3.332   2.752   4.574 -1.9014 -1.9551  0.5773
   80SOPE    N110398   2.522   3.434   3.772 -0.4491  0.0920  0.3055
   80SOPE    C110399   2.643   3.460   3.852 -0.4087 -0.1949 -0.3655
   80SOPE    H110400   2.673   3.368   3.902  0.7099  0.6148  0.4712
   80SOPE    H210401   2.621   3.539   3.925  1.2486  2.2777 -2.4440
   80SOPE    H310402   2.452   3.399   3.836 -0.3914  0.5905  0.6404
   80SOPE    H410403   2.540   3.366   3.699 -0.9359  2.5611 -2.1617
   80SOPE    H510404   2.500   3.524   3.733 -1.7025 -0.3156  0.0230
   80SOPE    C510405   2.756   3.500   3.762  0.1404  0.2212  1.2368
   80SOPE   H1210406   2.730   3.585   3.699  0.7796 -0.7195 -0.3463
   80SOPE   H1310407   2.766   3.430   3.678  0.0942  1.6605  0.0013
   80SOPE    P110408   2.950   3.390   3.893 -0.4508 -0.0224  0.0552
   80SOPE    O110409   2.910   3.256   3.832  0.1051  0.2781  0.4762
   80SOPE    O210410   3.093   3.428   3.893 -0.0822  0.0198  0.2180
   80SOPE    O310411   2.878   3.512   3.826  0.1296  0.2672 -0.2268
   80SOPE    O410412   2.885   3.399   4.042 -0.0859 -0.2631 -0.0513
   80SOPE    C610413   2.929   3.483   4.153 -0.4277  0.2393 -0.2526
   80SOPE   H1410414   2.843   3.507   4.216 -0.4712 -0.5228 -0.0100
   80SOPE   H1510415   2.971   3.581   4.132  1.4758 -0.1619  1.4829
   80SOPE    C710416   3.037   3.400   4.238  1.2012 -0.6639  0.0819
   80SOPE   H1610417   3.125   3.394   4.174  1.5329 -0.9553  0.5585
   80SOPE    O510418   2.970   3.280   4.264 -0.1981  0.3078  0.2026
   80SOPE    C810419   3.013   3.166   4.212  0.7735  0.0782  0.0468
   80SOPE    O610420   3.130   3.157   4.186  0.1402  0.1721  0.2422
   80SOPE    C910421   2.929   3.050   4.264 -0.2886 -0.0446 -0.9550
   80SOPE   H1710422   2.891   3.003   4.173 -2.8457  0.4851 -0.1982
   80SOPE   H1810423   2.839   3.084   4.315  0.6131  0.9815 -0.0158
   80SOPE   C1010424   3.064   3.458   4.377 -0.5967 -0.7670  0.4837
   80SOPE   H1910425   2.970   3.471   4.431 -1.0923 -2.0258 -0.0715
   80SOPE   H2010426   3.094   3.563   4.372  0.2331 -1.0199  0.1231
   80SOPE    O710427   3.154   3.376   4.441  0.3964  0.2397 -0.1446
   80SOPE   C1110428   3.284   3.399   4.437 -0.5272 -0.4228 -0.2998
   80SOPE    O810429   3.343   3.481   4.364 -0.4094  0.6250  0.2094
   80SOPE   C1210430   3.356   3.319   4.551  0.5670 -0.1741 -0.0804
   80SOPE   H2110431   3.384   3.219   4.517  3.8695  0.6674  0.0596
   80SOPE   H2210432   3.287   3.301   4.634  1.8404 -2.5734  0.5148
   80SOPE   C1310433   3.472   3.396   4.607 -0.0071 -0.0063 -0.3786
   80SOPE   H2310434   3.441   3.500   4.618  2.1324  0.5060  1.3999
   80SOPE   H2410435   3.552   3.395   4.533  1.8905 -0.1270  1.6012
   80SOPE   C1410436   3.505   3.361   4.750 -0.7149  0.5498  0.3301
   80SOPE   H2510437   3.556   3.266   4.737  1.7025  1.9113 -0.3559
   80SOPE   H2610438   3.416   3.338   4.809  0.0297 -1.9797  0.4959
   80SOPE   C1510439   3.607   3.464   4.807 -0.3541 -0.1262  0.0807
   80SOPE   H2710440   3.608   3.433   4.911 -1.0698 -1.7381 -0.3657
   80SOPE   H2810441   3.561   3.562   4.800 -1.0018 -0.5446 -2.1696
   80SOPE   C1610442   3.753   3.457   4.752  0.0952  0.2081  0.1222
   80SOPE   H2910443   3.772   3.516   4.663  1.6731 -0.1291  0.2204
   80SOPE   H3010444   3.773   3.352   4.730  0.7447  0.5490 -0.9794
   80SOPE   C1710445   3.847   3.496   4.863 -0.4502 -0.0935 -0.1714
   80SOPE   H3110446   3.805   3.575   4.926  2.4803  0.6242  0.9311
   80SOPE   H3210447   3.929   3.539   4.807  0.1017 -1.1279 -0.1556
   80SOPE   C1810448   3.898   3.376   4.947 -0.9167  0.6357  0.3542
   80SOPE   H3310449   3.946   3.300   4.886 -0.3388  1.5475 -0.3287
   80SOPE   H3410450   3.816   3.320   4.993  0.2648 -1.0919  0.4010
   80SOPE   C1910451   3.999   3.431   5.057  0.6344 -0.0601  0.5164
   80SOPE   H3510452   4.068   3.497   5.007  2.7267 -2.3041  0.3964
   80SOPE   C2010453   4.000   3.405   5.189 -0.2419 -0.7418 -0.3680
   80SOPE   H3610454   4.080   3.455   5.243 -0.8900  1.9321 -1.7670
   80SOPE   C2110455   3.899   3.336   5.279  0.8500 -0.4616  0.4903
   80SOPE   H3710456   3.835   3.291   5.203 -0.5749  0.6101  1.0338
   80SOPE   H3810457   3.837   3.416   5.319 -2.3799 -1.5956 -1.9922
   80SOPE   C2210458   3.955   3.232   5.382 -0.7768  0.0965 -0.9656
   80SOPE   H3910459   4.019   3.291   5.447 -1.4124 -0.0153 -0.2204
   80SOPE   H4010460   4.022   3.159   5.337  0.0976  0.4491 -0.2548
   80SOPE   C2310461   3.838   3.150   5.454 -0.1060  0.0573 -0.2795
   80SOPE   H4110462   3.783   3.082   5.389  1.1563 -1.1682 -0.1069
   80SOPE   H4210463   3.763   3.225   5.475  0.2215  0.3525 -0.1502
   80SOPE   C2410464   3.892   3.083   5.587 -0.4973 -0.3552  0.2801
   80SOPE   H4310465   3.936   2.992   5.547 -0.8147 -0.3986  0.0240
   80SOPE   H4410466   3.808   3.049   5.647 -0.0462 -0.5503  0.8059
   80SOPE   C2510467   3.990   3.165   5.679 -0.3078 -0.3194 -0.1839
   80SOPE   H4510468   3.954   3.267   5.688 -0.2985 -0.5129  2.5806
   80SOPE   H4610469   4.080   3.190   5.624  0.6098  0.6242  1.6946
   80SOPE   C2610470   4.023   3.099   5.813 -0.4078 -0.2518 -0.2488
   80SOPE   H4710471   4.106   3.152   5.860  0.1143  0.9902 -2.4940
   80SOPE   H4810472   3.932   3.123   5.868  0.4361  0.1786  0.9839
   80SOPE   C2710473   4.060   2.954   5.809 -0.4736 -1.0149  0.7008
   80SOPE   H4910474   4.162   2.952   5.771 -0.7633 -0.9316 -0.0818
   80SOPE   H5010475   3.986   2.899   5.751 -1.2246  1.2294 -0.4943
   80SOPE   C2710476   4.050   2.895   5.948 -0.6136  0.1316 -0.9128
   80SOPE   H5110477   3.951   2.917   5.988 -0.4237  0.5927 -0.6868
   80SOPE   H5210478   4.066   2.787   5.944 -1.5325 -0.0602  0.1556
   80SOPE   H5310479   4.122   2.924   6.025 -0.8850  2.3358 -1.4689
   80SOPE   C2910480   3.012   2.962   4.365  0.2264  0.1803  0.6456
   80SOPE   H5410481   3.105   2.923   4.325  0.2244  2.7550 -2.0817
   80SOPE   H5510482   2.958   2.868   4.380  0.6797 -0.0148  1.0598
   80SOPE   C3010483   3.033   3.028   4.495 -0.0013  0.0025  0.1158
   80SOPE   H5610484   2.940   3.009   4.549  0.1735 -1.0095  0.0785
   80SOPE   H5710485   3.050   3.134   4.478 -1.1463  0.5547  2.2202
   80SOPE   C3110486   3.154   2.982   4.577 -0.5347 -0.6486 -0.3855
   80SOPE   H5810487   3.247   3.019   4.534 -0.6116  0.2985  0.2462
   80SOPE   H5910488   3.157   2.874   4.593 -2.6555 -0.7897 -0.8318
   80SOPE   C3210489   3.143   3.039   4.722 -0.7808 -0.9162 -0.4644
   80SOPE   H6010490   3.035   3.044   4.734 -0.4726  1.1056  1.8829
   80SOPE   H6110491   3.186   3.139   4.726 -2.0543 -0.3925  0.6352
   80SOPE   C3310492   3.199   2.965   4.838 -0.3687  0.0195  0.6757
   80SOPE   H6210493   3.304   2.994   4.833 -1.1554  2.6313 -1.5713
   80SOPE   H6310494   3.190   2.859   4.813 -0.0181  0.3167 -0.7557
   80SOPE   C3410495   3.143   2.998   4.970 -0.4196 -0.4816  0.9098
   80SOPE   H6410496   3.037   2.975   4.973 -0.7700  1.0799  0.7181
   80SOPE   H6510497   3.166   3.103   4.988  2.4793 -1.0031  0.5701
   80SOPE   C3510498   3.209   2.909   5.075 -0.1234  0.0417 -0.5557
   80SOPE   H6610499   3.316   2.929   5.066 -0.2632  1.4588  0.6708
   80SOPE   H6710500   3.191   2.807   5.040  3.7361 -0.6850 -0.6701
   80SOPE   C3610501   3.173   2.924   5.228  0.0344  0.4461  0.0260
   80SOPE   H6810502   3.180   3.028   5.261  2.0993  0.5626 -0.7183
   80SOPE   H6910503   3.240   2.882   5.302 -0.4983 -0.2324  0.1247
   80SOPE   C3710504   3.034   2.877   5.244  1.1887 -0.0581 -0.2679
   80SOPE   H7010505   3.018   2.770   5.229 -0.9622  0.4855 -2.0363
   80SOPE   H7110506   2.963   2.915   5.171  0.1332 -1.8757 -0.2153
   80SOPE   C3810507   2.975   2.918   5.379  0.2619  0.0824  0.1369
   80SOPE   H7210508   2.866   2.921   5.385  0.2691 -1.0038  0.9313
   80SOPE   H7310509   2.986   3.023   5.406  2.5880 -0.2553  0.6120
   80SOPE   C3910510   3.032   2.833   5.496 -0.3080  0.3864 -0.2617
   80SOPE   H7410511   3.139   2.814   5.486 -0.1341  0.9793  0.4927
   80SOPE   H7510512   2.979   2.738   5.484 -0.4242  0.3587  0.4694
   80SOPE   C4010513   3.011   2.894   5.637  0.2946  0.0682  1.0836
   80SOPE   H7610514   2.903   2.905   5.652  0.2386  0.1021  0.6662
   80SOPE   H7710515   3.043   2.998   5.635  0.5474  0.0994  4.6295
   80SOPE   C4110516   3.076   2.807   5.744 -0.4300 -0.1786  0.8227
   80SOPE   H7810517   3.077   2.705   5.706 -1.1752  0.3784 -0.7609
   80SOPE   H7910518   3.020   2.803   5.837  1.3673  0.6382  1.9809
   80SOPE   C4210519   3.216   2.841   5.781  0.2166  0.2177 -0.0192
   80SOPE   H8010520   3.223   2.944   5.816 -1.1050 -0.0943  1.2541
   80SOPE   H8110521   3.270   2.827   5.687  1.0970  3.3277 -0.0053
   80SOPE   C4310522   3.261   2.732   5.881  0.6883  0.5839 -0.7314
   80SOPE   H8210523   3.221   2.745   5.982 -1.3414  0.3689 -1.4874
   80SOPE   H8310524   3.228   2.635   5.845  1.2263  0.2061 -0.2059
   80SOPE   C4410525   3.408   2.717   5.896 -0.1929  0.2647  1.0832
   80SOPE   H8410526   3.464   2.806   5.925  0.1519  0.1198  0.8652
   80SOPE   H8510527   3.423   2.641   5.973  1.0606  0.6553  1.2385
   80SOPE   H8610528   3.449   2.670   5.807  0.2077  1.2022  0.7684
   81SOPE    N110529   2.081   5.506   3.803 -0.4006  0.3594 -0.7181
   81SOPE    C110530   2.223   5.540   3.768  0.7209 -0.4562 -0.9908
   81SOPE    H110531   2.242   5.545   3.661 -0.3208 -1.1608 -1.2295
   81SOPE    H210532   2.287   5.456   3.796 -1.2227 -0.9749  2.1407
   81SOPE    H310533   2.065   5.426   3.743 -0.2050 -1.0511  1.0502
   81SOPE    H410534   2.027   5.586   3.776  0.1709  0.2314 -2.2513
   81SOPE    H510535   2.090   5.489   3.903 -0.1484 -0.4945 -0.8748
   81SOPE    C510536   2.265   5.667   3.840  0.8319 -0.0337  0.8196
   81SOPE   H1210537   2.271   5.665   3.949 -1.3512  0.3913  0.9655
   81SOPE   H1310538   2.192   5.744   3.815 -0.6999 -2.4158 -2.4698
   81SOPE    P110539   2.524   5.671   3.844 -0.0083 -0.1633 -0.3755
   81SOPE    O110540   2.530   5.525   3.811 -0.6521  0.0449 -0.1769
   81SOPE    O210541   2.623   5.762   3.782  0.2918 -0.1100  0.7085
   81SOPE    O310542   2.384   5.713   3.784 -0.0744 -0.1680 -0.1987
   81SOPE    O410543   2.520   5.686   3.999  0.4558 -0.3566  0.1036
   81SOPE    C610544   2.546   5.812   4.057  0.0959 -0.4709  0.4505
   81SOPE   H1410545   2.463   5.840   4.122 -0.0714  2.0935 -0.8031
   81SOPE   H1510546   2.527   5.884   3.977 -2.4182  0.5607  1.8881
   81SOPE    C710547   2.688   5.829   4.117  1.0044 -1.1599  0.0656
   81SOPE   H1610548   2.770   5.837   4.045  1.5286 -0.3915  0.7403
   81SOPE    O510549   2.705   5.721   4.209  0.1787 -0.0914 -0.6203
   81SOPE    C810550   2.823   5.660   4.219 -0.6957  0.3452  0.2882
   81SOPE    O610551   2.929   5.710   4.196 -0.2392 -0.0770 -0.3748
   81SOPE    C910552   2.822   5.553   4.327  0.5238 -0.1788  0.3541
   81SOPE   H1710553   2.896   5.478   4.297 -1.5968 -1.8410 -0.9669
   81SOPE   H1810554   2.725   5.504   4.316  0.1069  0.5978  0.5416
   81SOPE   C1010555   2.696   0.012   4.198  0.2446 -0.0968 -0.5638
   81SOPE   H1910556   2.680   0.097   4.133 -1.2630  0.8682  1.0359
   81SOPE   H2010557   2.798   0.034   4.233  0.1869  1.4163 -1.3283
   81SOPE    O710558   2.605   5.949   4.309 -0.1558  0.2908  0.4467
   81SOPE   C1110559   2.554   0.111   4.372 -0.5486  0.0184  0.1412
   81SOPE    O810560   2.576   0.225   4.338  0.3119 -0.1370  0.2124
   81SOPE   C1210561   2.497   0.073   4.509  0.0339 -0.4901 -0.2846
   81SOPE   H2110562   2.547   5.931   4.544  1.6866 -0.1178 -1.5828
   81SOPE   H2210563   2.391   0.061   4.489  0.3195  0.6284 -2.6586
   81SOPE   C1310564   2.514   0.180   4.622 -0.0722  0.1430 -0.0789
   81SOPE   H2310565   2.471   0.272   4.583  2.4686  0.6441 -1.8202
   81SOPE   H2410566   2.615   0.221   4.631 -0.4918  1.0271  0.7249
   81SOPE   C1410567   2.457   0.118   4.756  0.2406 -0.5309  0.2221
   81SOPE   H2510568   2.528   0.052   4.806 -0.3379 -2.4474 -1.4362
   81SOPE   H2610569   2.362   0.070   4.733 -0.6429  1.5511 -0.6077
   81SOPE   C1510570   2.426   0.226   4.857  0.0619  0.1099 -0.0863
   81SOPE   H2710571   2.357   0.190   4.933 -0.1073 -0.4562 -0.5048
   81SOPE   H2810572   2.359   0.298   4.811  0.9438 -0.1846 -1.8604
   81SOPE   C1610573   2.544   0.304   4.922  0.2224 -1.1220 -0.4315
   81SOPE   H2910574   2.501   0.398   4.957 -0.2898 -2.0582  1.5104
   81SOPE   H3010575   2.620   0.336   4.850 -0.6297  1.7177 -0.1623
   81SOPE   C1710576   2.598   0.223   5.039 -1.0724  0.2524  0.3960
   81SOPE   H3110577   2.696   0.256   5.075 -1.4506 -0.1489  1.8271
   81SOPE   H3210578   2.613   0.119   5.009 -0.7587  0.6651 -0.9241
   81SOPE   C1810579   2.500   0.223   5.156 -0.5091 -0.1174  0.0682
   81SOPE   H3310580   2.420   0.155   5.129  0.4325 -0.9861 -0.5791
   81SOPE   H3410581   2.459   0.323   5.173  1.7673  0.6980  1.0334
   81SOPE   C1910582   2.551   0.156   5.277  0.2484 -0.0211 -0.4348
   81SOPE   H3510583   2.552   0.048   5.278 -0.3765 -0.0342 -1.1643
   81SOPE   C2010584   2.603   0.223   5.383 -0.1748 -0.1141  0.5204
   81SOPE   H3610585   2.642   0.164   5.465 -1.9653  0.5034  1.8471
   81SOPE   C2110586   2.607   0.374   5.405  0.0003 -0.4255  0.4010
   81SOPE   H3710587   2.584   0.373   5.512  0.5338 -0.4096  0.5145
   81SOPE   H3810588   2.526   0.433   5.361  0.7810  0.3350 -0.0168
   81SOPE   C2210589   2.753   0.439   5.375 -0.6585 -0.2861  0.1412
   81SOPE   H3910590   2.819   0.388   5.304  1.7997 -0.2621  2.3268
   81SOPE   H4010591   2.825   0.424   5.456 -1.3019 -0.2151  0.7341
   81SOPE   C2310592   2.746   0.585   5.325 -0.4354 -0.1083 -0.1814
   81SOPE   H4110593   2.847   0.622   5.344  0.5323 -2.0597 -1.3721
   81SOPE   H4210594   2.685   0.650   5.389 -1.4070 -1.4548  0.2680
   81SOPE   C2410595   2.712   0.601   5.175 -0.0390 -0.0722  0.2468
   81SOPE   H4310596   2.686   0.703   5.149 -0.3380  0.4519  2.4763
   81SOPE   H4410597   2.615   0.555   5.153 -0.4826  0.5315  0.9135
   81SOPE   C2510598   2.814   0.536   5.083 -0.5204 -0.7542  0.3842
   81SOPE   H4510599   2.799   0.428   5.087 -1.5314 -0.6311  0.1694
   81SOPE   H4610600   2.918   0.554   5.109 -0.2323 -0.5851 -0.8565
   81SOPE   C2610601   2.793   0.582   4.943  0.2528  0.1691  0.0165
   81SOPE   H4710602   2.831   0.512   4.868 -2.4285 -1.3365 -0.0206
   81SOPE   H4810603   2.685   0.588   4.927  0.2711  1.0216  0.2199
   81SOPE   C2710604   2.850   0.726   4.915  1.0778 -0.1496 -0.3858
   81SOPE   H4910605   2.958   0.717   4.919  1.1330  0.6316  0.1620
   81SOPE   H5010606   2.818   0.799   4.990  1.9084  1.8635 -1.9443
   81SOPE   C2710607   2.812   0.780   4.779  0.1546  0.8599 -0.1283
   81SOPE   H5110608   2.877   0.729   4.708  0.6621  1.0827  0.1766
   81SOPE   H5210609   2.705   0.783   4.759 -0.4847  0.3748  2.9607
   81SOPE   H5310610   2.847   0.882   4.783  0.9368  0.6009 -0.3110
   81SOPE   C2910611   2.840   5.605   4.467 -0.0451 -0.0775 -0.1343
   81SOPE   H5410612   2.933   5.660   4.474 -0.9226  1.5798 -0.9682
   81SOPE   H5510613   2.844   5.517   4.530 -1.0129 -1.2122 -1.6068
   81SOPE   C3010614   2.734   5.712   4.505  0.2622  0.2050  0.3991
   81SOPE   H5610615   2.645   5.696   4.445 -0.9892 -0.5142  2.3871
   81SOPE   H5710616   2.782   5.805   4.475  2.2667 -0.7707  0.4404
   81SOPE   C3110617   2.692   5.722   4.650  0.2092 -0.1720 -0.2452
   81SOPE   H5810618   2.691   5.624   4.698  0.9902  0.0974  0.3180
   81SOPE   H5910619   2.589   5.757   4.658  0.5032  0.8008 -0.6585
   81SOPE   C3210620   2.789   5.805   4.733 -0.7689 -0.1423  0.2596
   81SOPE   H6010621   2.792   5.906   4.691  0.0029 -0.2987 -0.0695
   81SOPE   H6110622   2.892   5.773   4.715 -0.3653  1.4416 -0.4364
   81SOPE   C3310623   2.767   5.803   4.879 -0.2863 -0.4699 -0.7103
   81SOPE   H6210624   2.778   5.700   4.914  2.2327 -0.0724 -0.2841
   81SOPE   H6310625   2.660   5.810   4.902  0.1419  0.7334  0.9506
   81SOPE   C3410626   2.858   5.902   4.960 -0.4174  0.4523  0.1498
   81SOPE   H6410627   2.841   0.058   4.935 -2.7750 -0.1088 -0.6999
   81SOPE   H6510628   2.958   5.896   4.918 -0.8842  1.9828 -1.2351
   81SOPE   C3510629   2.862   5.870   5.111  0.7142 -0.1031 -0.7812
   81SOPE   H6610630   2.924   5.780   5.110 -1.0389 -1.3316 -1.5641
   81SOPE   H6710631   2.764   5.853   5.156  1.1381  3.4043  1.6711
   81SOPE   C3610632   2.933   0.033   5.183  0.4863 -0.4912  0.0005
   81SOPE   H6810633   2.873   0.123   5.170 -0.6365 -1.0238  1.3224
   81SOPE   H6910634   3.030   0.063   5.144 -0.5459  1.4625 -1.1438
   81SOPE   C3710635   2.943   0.002   5.333 -0.2869 -0.4352 -0.5954
   81SOPE   H7010636   2.977   5.849   5.348 -2.1103 -0.7812  1.4949
   81SOPE   H7110637   2.847   0.009   5.385  0.2549  0.1007  0.3412
   81SOPE   C3810638   3.045   0.090   5.412  0.0241 -0.3449  0.3008
   81SOPE   H7210639   3.015   0.194   5.396 -3.3231 -0.7797  3.2584
   81SOPE   H7310640   3.145   0.072   5.371 -1.0410 -0.1776 -2.4597
   81SOPE   C3910641   3.035   0.046   5.566 -0.0346  0.0431  0.4677
   81SOPE   H7410642   3.022   5.888   5.582 -1.3961  0.2389  0.7470
   81SOPE   H7510643   2.941   0.089   5.601 -0.2353 -0.8449  1.0294
   81SOPE   C4010644   3.151   0.117   5.644 -0.4847  0.7606  0.9092
   81SOPE   H7610645   3.247   0.070   5.624 -1.0786 -1.0453  2.1883
   81SOPE   H7710646   3.133   0.082   5.745 -0.3503  2.2605  1.4611
   81SOPE   C4110647   3.164   0.272   5.645 -0.0620  0.1017 -0.6261
   81SOPE   H7810648   3.165   0.311   5.543 -0.4045  3.0052  0.4062
   81SOPE   H7910649   3.263   0.293   5.686  0.0595 -1.0411 -0.3224
   81SOPE   C4210650   3.048   0.359   5.712  0.1702 -0.3559  0.0784
   81SOPE   H8010651   2.953   0.343   5.660 -0.5020 -1.3067  1.5528
   81SOPE   H8110652   3.072   0.463   5.689 -0.6935 -0.1852 -0.0701
   81SOPE   C4310653   3.029   0.335   5.865  0.0365 -0.4015  0.0613
   81SOPE   H8210654   2.984   0.236   5.873 -1.3514  0.0005 -2.3139
   81SOPE   H8310655   3.120   0.343   5.924  0.9583 -0.4275 -1.3221
   81SOPE   C4410656   2.915   0.426   5.927  0.5259 -0.0672  0.1940
   81SOPE   H8410657   2.950   0.529   5.928  0.2779  0.0162  0.5651
   81SOPE   H8510658   2.825   0.405   5.869  0.8200 -1.9727  0.3710
   81SOPE   H8610659   2.899   0.408   6.034  0.0175  0.6048  0.2321
   82SOPE    N110660   5.067   4.671   3.307 -0.5752  0.0742 -0.4573
   82SOPE    C110661   4.922   4.670   3.305 -0.4339  0.6832  1.0228
   82SOPE    H110662   4.889   4.567   3.321  3.2795 -0.2492  3.4875
   82SOPE    H210663   4.896   4.697   3.203  1.8435 -0.5385  0.0798
   82SOPE    H310664   5.100   4.579   3.279 -1.7483 -0.7766  0.8943
   82SOPE    H410665   5.084   4.691   3.404  0.0602  0.5310 -0.6569
   82SOPE    H510666   5.100   4.744   3.245 -1.2055  1.7989  1.1999
   82SOPE    C510667   4.863   4.776   3.400 -0.7112 -1.0968 -0.4266
   82SOPE   H1210668   4.903   4.878   3.399  1.5047 -1.8790  1.3206
   82SOPE   H1310669   4.893   4.742   3.500 -1.3728  0.8905  0.4690
   82SOPE    P110670   4.633   4.867   3.316  0.2131  0.1654  0.0842
   82SOPE    O110671   4.671   4.857   3.175 -0.2472 -0.2085  0.5849
   82SOPE    O210672   4.488   4.835   3.329  0.2029  0.3927  0.2470
   82SOPE    O310673   4.724   4.768   3.401  0.0519 -0.1103  0.1925
   82SOPE    O410674   4.650   5.022   3.347  0.0428 -0.2860 -0.2804
   82SOPE    C610675   4.589   5.081   3.460 -0.1526  0.9629  0.8004
   82SOPE   H1410676   4.481   5.079   3.441 -0.3336 -1.3934  1.8656
   82SOPE   H1510677   4.608   5.187   3.449 -2.3442  1.1303 -1.8391
   82SOPE    C710678   4.624   5.017   3.591  0.1054 -0.2975  0.0667
   82SOPE   H1610679   4.601   4.911   3.581 -1.0076 -0.0578  0.0404
   82SOPE    O510680   4.534   5.069   3.693 -0.4330  0.2154 -0.1577
   82SOPE    C810681   4.444   4.989   3.757  0.2163  0.6163  0.8065
   82SOPE    O610682   4.473   4.866   3.771 -0.1638 -0.3189 -0.1008
   82SOPE    C910683   4.388   5.067   3.878 -0.0355  0.2235 -0.1616
   82SOPE   H1710684   4.349   5.163   3.846 -0.5717  0.1507  0.2542
   82SOPE   H1810685   4.476   5.082   3.940  0.1720 -1.6767  0.0493
   82SOPE   C1010686   4.766   5.055   3.633 -0.0111 -0.2886  0.0153
   82SOPE   H1910687   4.765   5.136   3.706 -0.0154 -0.4698  0.2191
   82SOPE   H2010688   4.821   5.099   3.550  0.2031  1.5668  1.1210
   82SOPE    O710689   4.831   4.933   3.672 -0.0086  0.7679 -0.0845
   82SOPE   C1110690   4.846   4.909   3.796 -0.1165 -0.4981 -0.3534
   82SOPE    O810691   4.774   4.959   3.880 -0.3524  0.4619  0.0721
   82SOPE   C1210692   4.908   4.776   3.829  0.5973 -0.1645  0.1056
   82SOPE   H2110693   4.887   4.709   3.745 -1.1122 -0.2050  0.5444
   82SOPE   H2210694   4.855   4.735   3.915 -0.1945  0.0673 -0.2629
   82SOPE   C1310695   5.062   4.797   3.854 -0.0640  0.1003  0.6565
   82SOPE   H2310696   5.109   4.833   3.763  1.5584  0.1998  1.5047
   82SOPE   H2410697   5.110   4.702   3.876 -1.6511 -1.5990 -2.8123
   82SOPE   C1410698   5.101   4.882   3.979 -0.7554 -0.0465 -0.0968
   82SOPE   H2510699   5.107   4.987   3.950  0.0766 -0.4455 -1.4140
   82SOPE   H2610700   5.198   4.850   4.016  0.3511  0.3625 -2.5524
   82SOPE   C1510701   5.012   4.846   4.100  0.5617  0.0945 -0.0900
   82SOPE   H2710702   4.987   4.740   4.101 -0.4988  0.3463  0.6234
   82SOPE   H2810703   4.916   4.893   4.078  1.8815  1.9116 -2.2105
   82SOPE   C1610704   5.071   4.890   4.232 -0.1335  0.6018  0.1414
   82SOPE   H2910705   5.032   4.990   4.249 -2.3653 -0.6469  2.8203
   82SOPE   H3010706   5.180   4.888   4.226 -0.0835  1.6050  0.6064
   82SOPE   C1710707   5.034   4.809   4.357 -0.1330  0.3709 -0.4069
   82SOPE   H3110708   5.066   4.706   4.342 -0.7775  0.2200 -0.7755
   82SOPE   H3210709   4.926   4.806   4.372 -0.0322  0.4371  0.3646
   82SOPE   C1810710   5.084   4.869   4.494  0.0724  0.0768 -0.3991
   82SOPE   H3310711   5.023   4.818   4.569  2.1946 -0.3361  1.1064
   82SOPE   H3410712   5.054   4.973   4.493 -1.4352 -0.2823  2.0811
   82SOPE   C1910713   5.238   4.834   4.508 -0.1102  0.7140 -0.1207
   82SOPE   H3510714   5.306   4.879   4.438  0.3175 -0.8821 -0.7387
   82SOPE   C2010715   5.293   4.750   4.597  0.5317 -0.2045  0.3217
   82SOPE   H3610716   5.397   4.724   4.582  1.0981  1.9909  0.3806
   82SOPE   C2110717   5.217   4.677   4.706  0.4639  0.0262  0.3536
   82SOPE   H3710718   5.129   4.628   4.665  0.7605 -0.8814  0.7697
   82SOPE   H3810719   5.190   4.751   4.781 -1.3590  0.0971 -0.3654
   82SOPE   C2210720   5.284   4.550   4.769 -0.0598 -0.3590  0.2272
   82SOPE   H3910721   5.217   4.509   4.845 -0.9567  2.3959  0.9907
   82SOPE   H4010722   5.374   4.584   4.820  0.1963  0.2382 -0.5997
   82SOPE   C2310723   5.322   4.442   4.668  0.1579  0.4471  0.2790
   82SOPE   H4110724   5.430   4.430   4.660 -0.0228 -0.3900 -1.1024
   82SOPE   H4210725   5.302   4.491   4.573  0.4995  0.2451  0.0984
   82SOPE   C2410726   5.245   4.305   4.688  0.0836 -0.3543 -0.8165
   82SOPE   H4310727   5.139   4.330   4.691  0.0502  0.3465 -4.6952
   82SOPE   H4410728   5.274   4.265   4.785  2.3484 -2.5826 -2.3536
   82SOPE   C2510729   5.291   4.193   4.590  0.3557 -0.1459 -0.3280
   82SOPE   H4510730   5.243   4.102   4.626 -1.3095  1.1720  0.8926
   82SOPE   H4610731   5.399   4.180   4.600  0.1387 -1.7102  0.0891
   82SOPE   C2610732   5.242   4.208   4.446 -0.1997 -0.1155 -0.4272
   82SOPE   H4710733   5.137   4.235   4.456 -0.3585 -0.0784 -2.1255
   82SOPE   H4810734   5.294   4.285   4.390  1.8264  0.4671  2.1351
   82SOPE   C2710735   5.277   4.077   4.373  0.2199 -0.7602  0.1680
   82SOPE   H4910736   5.252   3.989   4.432  0.0096 -0.9560 -0.2100
   82SOPE   H5010737   5.386   4.074   4.372  0.2946  1.0825  0.4517
   82SOPE   C2710738   5.222   4.073   4.233  0.4737 -0.3631  0.0050
   82SOPE   H5110739   5.267   4.150   4.171  1.3686 -0.7691  0.1399
   82SOPE   H5210740   5.239   3.978   4.182  2.6455 -0.1114  0.1891
   82SOPE   H5310741   5.115   4.094   4.226  0.3639 -0.3745  1.5259
   82SOPE   C2910742   4.272   4.988   3.946  0.4885 -0.3917 -0.2539
   82SOPE   H5410743   4.313   4.901   3.996 -0.3169 -0.4141  0.3913
   82SOPE   H5510744   4.212   4.946   3.866  0.4718 -0.1336 -0.3774
   82SOPE   C3010745   4.199   5.061   4.064 -0.3800  0.3110 -0.0866
   82SOPE   H5610746   4.177   5.164   4.035  0.5460  0.6351  0.3366
   82SOPE   H5710747   4.277   5.069   4.140  0.8709 -2.3937 -0.9857
   82SOPE   C3110748   4.078   4.992   4.131 -0.4635 -0.3500 -0.0257
   82SOPE   H5810749   4.106   4.931   4.217 -1.0148  1.2143  1.2867
   82SOPE   H5910750   4.037   4.938   4.047  1.1707 -1.2346 -0.2735
   82SOPE   C3210751   3.978   5.092   4.201  0.9271 -0.3965  0.5613
   82SOPE   H6010752   3.896   5.034   4.242  0.7383 -2.0657 -2.0106
   82SOPE   H6110753   3.951   5.159   4.119  0.0652  0.5236  1.5816
   82SOPE   C3310754   4.027   5.188   4.310 -0.4771 -0.3156 -0.2251
   82SOPE   H6210755   3.946   5.252   4.345  0.3354 -1.1112  3.2461
   82SOPE   H6310756   4.105   5.252   4.269  0.6818 -1.3776  0.2759
   82SOPE   C3410757   4.090   5.116   4.428 -1.0328  0.0548  0.6853
   82SOPE   H6410758   4.176   5.051   4.415 -1.9058 -1.1540  0.7865
   82SOPE   H6510759   4.020   5.043   4.469  1.6000 -0.8033  3.8505
   82SOPE   C3510760   4.128   5.217   4.538 -0.2345  0.1204  0.3828
   82SOPE   H6610761   4.055   5.297   4.544  0.5233  0.8651 -0.1182
   82SOPE   H6710762   4.215   5.278   4.511 -0.8323  0.4325 -0.9034
   82SOPE   C3610763   4.184   5.149   4.668  0.6072  0.3348  0.0249
   82SOPE   H6810764   4.260   5.072   4.654 -0.1278 -0.4028  0.0903
   82SOPE   H6910765   4.104   5.094   4.718 -0.1820  1.6578  0.2535
   82SOPE   C3710766   4.241   5.255   4.761 -0.0935  0.6102 -0.2387
   82SOPE   H7010767   4.155   5.321   4.772  0.7005  1.4833  0.7745
   82SOPE   H7110768   4.334   5.298   4.725  1.8109 -0.7555  2.8267
   82SOPE   C3810769   4.277   5.196   4.893 -0.1449  0.0267  0.0660
   82SOPE   H7210770   4.201   5.124   4.922 -2.3972  1.8111 -1.2623
   82SOPE   H7310771   4.266   5.280   4.962 -1.3573  0.2850 -0.4453
   82SOPE   C3910772   4.418   5.149   4.927 -0.0383 -0.2088  0.3805
   82SOPE   H7410773   4.493   5.226   4.913 -0.0436 -0.6621 -2.4740
   82SOPE   H7510774   4.452   5.087   4.844 -0.1678  0.1484  0.0560
   82SOPE   C4010775   4.422   5.088   5.070  0.1375 -0.1783 -0.4362
   82SOPE   H7610776   4.370   4.993   5.083 -1.2461  0.4957 -1.0239
   82SOPE   H7710777   4.362   5.150   5.136  0.3679  0.5546 -0.9037
   82SOPE   C4110778   4.572   5.074   5.125  0.3419  0.3400 -0.4813
   82SOPE   H7810779   4.609   5.175   5.146 -0.3110  0.6701 -0.8954
   82SOPE   H7910780   4.633   5.036   5.043  0.5678 -1.1634  0.3771
   82SOPE   C4210781   4.578   4.989   5.257  0.2981 -0.6322 -0.7238
   82SOPE   H8010782   4.674   4.939   5.268  0.1331 -0.8072 -0.0558
   82SOPE   H8110783   4.497   4.915   5.250 -1.1631  0.6767  1.6185
   82SOPE   C4310784   4.543   5.082   5.380 -0.3288  0.7460  0.2024
   82SOPE   H8210785   4.582   5.183   5.366 -0.9451  1.5174  3.6510
   82SOPE   H8310786   4.436   5.099   5.395  0.1993  3.0621  1.5968
   82SOPE   C4410787   4.599   5.028   5.514  0.3137 -1.1129 -0.2811
   82SOPE   H8410788   4.565   4.927   5.533 -1.9925  0.0009  1.8518
   82SOPE   H8510789   4.708   5.040   5.510  0.0271  1.7605 -1.0422
   82SOPE   H8610790   4.574   5.082   5.605 -0.7196 -2.0571 -0.0049
   83SOPE    N110791   5.135   4.242   3.617  0.1912  0.1742 -0.2149
   83SOPE    C110792   5.253   4.160   3.610 -0.4491  0.8564 -0.7027
   83SOPE    H110793   5.339   4.226   3.597 -0.0210  0.4699  0.0607
   83SOPE    H210794   5.251   4.091   3.525 -0.8223  0.7140 -0.5781
   83SOPE    H310795   5.099   4.243   3.712 -2.7132  0.4321 -1.2682
   83SOPE    H410796   5.071   4.192   3.557  1.2328  0.1451 -1.3219
   83SOPE    H510797   5.165   4.334   3.588  1.9467  0.8699  3.4520
   83SOPE    C510798   5.280   4.072   3.735  0.0225 -0.1309 -0.3592
   83SOPE   H1210799   5.192   4.022   3.778  0.6705  0.1238  1.3102
   83SOPE   H1310800   5.315   4.133   3.818  1.5087  0.5917 -1.5119
   83SOPE    P110801   5.359   3.826   3.693 -0.1801 -0.4139 -0.1039
   83SOPE    O110802   5.235   3.808   3.611 -0.5806  0.1871  0.2327
   83SOPE    O210803   5.486   3.764   3.646 -0.2649  0.1054  0.1234
   83SOPE    O310804   5.385   3.984   3.709  0.3998 -0.4691  0.8224
   83SOPE    O410805   5.332   3.773   3.845 -0.5169  0.5452 -0.4741
   83SOPE    C610806   5.423   3.807   3.950 -0.2271 -0.4895 -0.2557
   83SOPE   H1410807   5.354   3.814   4.034 -0.5147  1.1175 -0.6040
   83SOPE   H1510808   5.470   3.906   3.949  0.2508 -0.7080  0.3859
   83SOPE    C710809   5.539   3.705   3.966  0.9490  0.6483  1.4550
   83SOPE   H1610810   5.626   3.724   3.904  0.3667  1.5222  0.9051
   83SOPE    O510811   5.491   3.575   3.965 -0.5361  0.0377 -0.1138
   83SOPE    C810812   5.532   3.490   3.873 -0.3076  0.9103 -0.0616
   83SOPE    O610813   5.636   3.505   3.805 -0.1352  0.7107 -0.0383
   83SOPE    C910814   5.468   3.350   3.890 -0.0397 -0.4620 -0.3256
   83SOPE   H1710815   5.467   3.298   3.793  1.0086 -0.2447 -0.4617
   83SOPE   H1810816   5.366   3.352   3.928 -0.4388 -2.9522 -1.1485
   83SOPE   C1010817   5.595   3.724   4.104  0.0343 -0.1866 -0.3516
   83SOPE   H1910818   5.678   3.656   4.122  0.0560  0.1596  0.9283
   83SOPE   H2010819   5.528   3.706   4.188 -0.1944 -1.6740 -0.8383
   83SOPE    O710820   5.629   3.857   4.130  0.1046  0.2345  0.1348
   83SOPE   C1110821   5.759   3.891   4.145  0.3250  0.2862 -0.5672
   83SOPE    O810822   5.849   3.809   4.147  0.0480  0.0735 -0.1998
   83SOPE   C1210823   5.774   4.037   4.185  0.2510  1.0848 -0.2355
   83SOPE   H2110824   5.708   4.092   4.118  0.8478  0.5954 -1.2461
   83SOPE   H2210825   5.873   4.082   4.173  1.5646 -0.9511  2.4285
   83SOPE   C1310826   5.749   4.057   4.339  0.1376  1.2735 -0.4787
   83SOPE   H2310827   5.834   4.016   4.392 -1.5138 -0.5275  0.8395
   83SOPE   H2410828   5.658   4.002   4.366  0.4524  0.2915 -1.4133
   83SOPE   C1410829   5.751   4.202   4.396  0.2437  0.1199 -0.2548
   83SOPE   H2510830   5.850   4.236   4.367  1.3941 -2.1699  0.8583
   83SOPE   H2610831   5.740   4.202   4.505  0.8589  0.6332 -0.1937
   83SOPE   C1510832   5.663   4.303   4.320 -0.3528  0.0013  0.9788
   83SOPE   H2710833   5.558   4.278   4.339 -0.7852  1.2287  0.2196
   83SOPE   H2810834   5.676   4.312   4.213 -0.0183  1.1407  1.1068
   83SOPE   C1610835   5.688   4.444   4.379  0.3820 -0.1841  0.6739
   83SOPE   H2910836   5.796   4.461   4.371  0.4065 -1.0911 -1.0367
   83SOPE   H3010837   5.672   4.437   4.487  0.3050  2.1249  0.8461
   83SOPE   C1710838   5.613   4.556   4.311 -0.0186 -0.4377  0.2883
   83SOPE   H3110839   5.507   4.534   4.296 -0.2513  1.9914 -2.0023
   83SOPE   H3210840   5.653   4.551   4.210  1.3150  1.8517  0.6684
   83SOPE   C1810841   5.634   4.700   4.376  0.2002  0.7405  0.5216
   83SOPE   H3310842   5.606   4.718   4.480  1.7955  0.9626  0.9287
   83SOPE   H3410843   5.568   4.765   4.318 -0.5202  0.9389  1.5446
   83SOPE   C1910844   5.774   4.760   4.357 -0.2519  0.9099 -0.8968
   83SOPE   H3510845   5.791   4.808   4.261 -1.3480  1.9522 -0.5882
   83SOPE   C2010846   5.866   4.747   4.449  0.5262 -0.0054  0.3474
   83SOPE   H3610847   0.010   4.792   4.418 -0.2842  1.9396  0.6315
   83SOPE   C2110848   5.861   4.676   4.579 -0.0499 -0.2979 -0.7283
   83SOPE   H3710849   5.770   4.617   4.588  1.4764 -2.3801  2.2164
   83SOPE   H3810850   5.845   4.753   4.655 -1.8990 -0.3102 -1.0731
   83SOPE   C2210851   0.044   4.591   4.599  0.3149  0.9325 -0.2485
   83SOPE   H3910852   0.131   4.656   4.597  3.6350 -3.3368 -0.5116
   83SOPE   H4010853   0.061   4.526   4.512 -0.6208  0.3428 -0.0025
   83SOPE   C2310854   0.041   4.518   4.738  0.2058  0.4528  0.2314
   83SOPE   H4110855   0.142   4.480   4.754  0.8742  1.6025 -1.1284
   83SOPE   H4210856   5.928   4.428   4.743  0.8909 -0.0922 -0.6740
   83SOPE   C2410857   5.947   4.614   4.851  0.1568 -0.1278  0.5194
   83SOPE   H4310858   5.842   4.642   4.857  0.2626  0.4065 -0.0358
   83SOPE   H4410859   0.047   4.711   4.842  0.2535 -0.2262 -0.0390
   83SOPE   C2510860   0.031   4.545   4.978  0.2633 -0.0192  0.5348
   83SOPE   H4510861   0.110   4.477   4.948  1.4891  0.8436  1.7195
   83SOPE   H4610862   5.897   4.480   5.008  1.0484 -0.8163  0.9905
   83SOPE   C2610863   0.084   4.636   5.092 -0.5171  0.5517 -0.0953
   83SOPE   H4710864   0.175   4.686   5.059 -2.1955  1.7112 -3.1396
   83SOPE   H4810865   0.020   4.720   5.118  0.4648  1.4682 -0.6133
   83SOPE   C2710866   0.121   4.549   5.209 -0.6563  0.0390 -0.2533
   83SOPE   H4910867   0.176   4.460   5.181  3.8488  2.5062  0.2321
   83SOPE   H5010868   0.023   4.522   5.249  0.3577 -1.3480  1.3805
   83SOPE   C2710869   0.193   4.631   5.315  0.4561 -0.8850  1.0025
   83SOPE   H5110870   0.230   4.561   5.389 -0.6765  0.4170  2.8554
   83SOPE   H5210871   0.274   4.688   5.270 -1.0815  0.4502 -0.1766
   83SOPE   H5310872   0.123   4.689   5.375  1.0664  0.6984  0.2220
   83SOPE   C2910873   5.547   3.263   3.996  0.6185 -0.2712 -0.0531
   83SOPE   H5410874   5.651   3.266   3.964 -0.0244 -0.6390 -2.2926
   83SOPE   H5510875   5.520   3.158   3.998  1.6897 -0.5944 -1.5388
   83SOPE   C3010876   5.539   3.323   4.136  0.0725 -0.4971 -0.1730
   83SOPE   H5610877   5.564   3.428   4.144 -0.3228 -0.5369  1.9539
   83SOPE   H5710878   5.608   3.278   4.208 -1.3057  1.3160  2.3687
   83SOPE   C3110879   5.400   3.322   4.192  0.6354 -0.4445 -0.0090
   83SOPE   H5810880   5.359   3.222   4.183  0.8844 -0.5538  0.0496
   83SOPE   H5910881   5.336   3.394   4.140  1.3376  0.2052  0.0124
   83SOPE   C3210882   5.409   3.364   4.339 -0.2233  0.6844  0.6229
   83SOPE   H6010883   5.446   3.466   4.350  0.4978  0.4808  0.1578
   83SOPE   H6110884   5.469   3.294   4.398  1.4978 -0.5528 -2.4693
   83SOPE   C3310885   5.273   3.350   4.408 -0.2821  0.2026  0.0784
   83SOPE   H6210886   5.232   3.250   4.392  2.5823 -0.6796 -2.1215
   83SOPE   H6310887   5.203   3.418   4.360 -1.9539 -1.5489 -0.0192
   83SOPE   C3410888   5.274   3.381   4.561  0.6190  0.9302  0.8223
   83SOPE   H6410889   5.308   3.484   4.579  0.5491  1.0427  0.3325
   83SOPE   H6510890   5.340   3.304   4.601 -0.8299 -0.3317  0.7988
   83SOPE   C3510891   5.142   3.368   4.640  0.4567 -0.0573  0.4697
   83SOPE   H6610892   5.108   3.264   4.642  1.5686 -0.4554 -0.3814
   83SOPE   H6710893   5.058   3.411   4.586  0.0959 -1.5635 -0.2167
   83SOPE   C3610894   5.152   3.410   4.789 -0.1687  0.7176  0.0464
   83SOPE   H6810895   5.207   3.504   4.794  0.5552  0.4373 -2.0587
   83SOPE   H6910896   5.218   3.342   4.844  0.2262 -0.0544 -1.3557
   83SOPE   C3710897   5.008   3.406   4.851 -0.3894 -0.7056  0.1732
   83SOPE   H7010898   4.974   3.303   4.839 -1.4305 -0.4033  0.5327
   83SOPE   H7110899   4.944   3.475   4.797  0.6794 -1.2567 -1.8734
   83SOPE   C3810900   5.011   3.450   5.001 -0.2077  0.7375 -0.1009
   83SOPE   H7210901   5.035   3.556   5.018 -1.6301  1.3119 -1.6187
   83SOPE   H7310902   5.091   3.396   5.052 -1.2597 -2.7644 -2.0316
   83SOPE   C3910903   4.874   3.429   5.071  0.4659  0.2789  0.0362
   83SOPE   H7410904   4.837   3.327   5.061 -2.9887  1.5131 -0.3867
   83SOPE   H7510905   4.804   3.506   5.037  0.4828  1.9023  3.4193
   83SOPE   C4010906   4.898   3.452   5.223  0.2093  0.4197  0.0044
   83SOPE   H7610907   4.950   3.547   5.239  0.1602  0.4296  0.1057
   83SOPE   H7710908   4.968   3.381   5.266  0.0404  0.9589  1.1965
   83SOPE   C4110909   4.771   3.443   5.312 -0.1769  0.0314 -0.1400
   83SOPE   H7810910   4.720   3.348   5.297  0.6057 -0.9891  3.1378
   83SOPE   H7910911   4.699   3.520   5.284 -1.2221 -0.4222  1.2324
   83SOPE   C4210912   4.810   3.463   5.455  0.2728  0.6816 -0.3423
   83SOPE   H8010913   4.884   3.542   5.470  1.3154  0.5810 -4.2096
   83SOPE   H8110914   4.864   3.375   5.489 -2.7003 -1.3557 -0.7815
   83SOPE   C4310915   4.700   3.481   5.557  0.3537 -0.0976 -0.1725
   83SOPE   H8210916   4.753   3.514   5.646  0.9046  0.9775 -0.8857
   83SOPE   H8310917   4.633   3.562   5.528 -0.3959 -0.3171  0.9391
   83SOPE   C4410918   4.612   3.352   5.570  0.0992  0.1380  0.5781
   83SOPE   H8410919   4.667   3.262   5.596 -1.7464 -2.0275 -2.6659
   83SOPE   H8510920   4.535   3.366   5.646  0.7604 -1.5861  1.6005
   83SOPE   H8610921   4.568   3.336   5.472 -1.7359  0.3309  1.3274
   84SOPE    N110922   5.033   0.327   3.289  0.2612 -0.3185  0.1980
   84SOPE    C110923   4.937   0.242   3.215 -0.0227 -0.9444  0.0545
   84SOPE    H110924   4.990   0.185   3.139 -1.1191 -0.0607 -1.4097
   84SOPE    H210925   4.864   0.302   3.160 -1.2461  0.0919  2.6986
   84SOPE    H310926   5.081   0.272   3.359 -0.8492 -0.0721  1.1833
   84SOPE    H410927   4.973   0.395   3.334 -1.4295 -1.6278 -0.0360
   84SOPE    H510928   5.094   0.364   3.218 -0.4477  0.6130  0.0560
   84SOPE    C510929   4.871   0.148   3.313 -0.5024 -0.1748  0.4913
   84SOPE   H1210930   4.805   0.201   3.381 -1.3898 -1.0328  0.3043
   84SOPE   H1310931   4.947   0.102   3.377 -0.7652 -0.2146  0.7782
   84SOPE    P110932   4.660   0.066   3.180 -0.3036 -0.5490  0.0938
   84SOPE    O110933   4.645   0.210   3.145 -0.4360 -0.6159 -0.1459
   84SOPE    O210934   4.638   5.925   3.075 -0.2222  0.1941  0.7315
   84SOPE    O310935   4.804   0.043   3.245  0.0184  0.3595 -0.2455
   84SOPE    O410936   4.556   0.028   3.307 -0.1298  0.4396 -0.2110
   84SOPE    C610937   4.554   5.839   3.357  0.1234 -0.4188  0.5664
   84SOPE   H1410938   4.641   5.800   3.304 -0.3986 -0.2664 -0.4192
   84SOPE   H1510939   4.463   5.791   3.322 -1.8553  2.6184  1.3517
   84SOPE    C710940   4.567   5.844   3.512 -0.3330 -0.6841  1.0373
   84SOPE   H1610941   4.574   5.740   3.544 -1.5938 -0.9569  0.4385
   84SOPE    O510942   4.450   5.908   3.563 -0.1251 -0.3446 -0.0249
   84SOPE    C810943   4.368   5.834   3.638 -0.0547  0.3692  0.0842
   84SOPE    O610944   4.349   5.715   3.620 -0.2487 -0.3350  0.8488
   84SOPE    C910945   4.251   5.917   3.693  0.9133  0.9233  0.5841
   84SOPE   H1710946   4.163   5.866   3.653  1.3010 -1.5454  2.7540
   84SOPE   H1810947   4.243   0.061   3.637 -1.0407 -0.3287 -1.3074
   84SOPE   C1010948   4.689   5.916   3.553  0.0971  0.8844  0.3869
   84SOPE   H1910949   4.687   0.073   3.525  0.5946  1.2127  1.5839
   84SOPE   H2010950   4.779   5.889   3.499 -0.6308 -1.7894  0.4359
   84SOPE    O710951   4.723   5.898   3.697 -0.4764  0.0062  0.1459
   84SOPE   C1110952   4.797   5.799   3.740 -0.8512 -0.6388 -0.4920
   84SOPE    O810953   4.797   5.692   3.681 -0.3018 -0.1612  0.2129
   84SOPE   C1210954   4.809   5.808   3.905  0.3426 -0.7673  0.6075
   84SOPE   H2110955   4.764   5.896   3.950 -2.4408 -1.4660 -0.7463
   84SOPE   H2210956   4.917   5.806   3.919  0.3597 -0.5659  0.5153
   84SOPE   C1310957   4.734   5.687   3.964 -0.2036  0.1058  0.2907
   84SOPE   H2310958   4.748   5.696   4.071  1.0775 -1.1077  0.2420
   84SOPE   H2410959   4.785   5.595   3.936  0.5560  0.9801 -1.3639
   84SOPE   C1410960   4.584   5.676   3.931  0.1879  0.9786  0.4471
   84SOPE   H2510961   4.578   5.686   3.823 -0.0386  1.7938  0.5319
   84SOPE   H2610962   4.513   5.738   3.987 -0.4229  1.4377 -0.8204
   84SOPE   C1510963   4.530   5.531   3.957 -0.1849 -0.3120  0.1694
   84SOPE   H2710964   4.581   5.469   3.884  0.8821  1.3328 -0.5255
   84SOPE   H2810965   4.422   5.517   3.945 -0.6216  2.0362  1.0166
   84SOPE   C1610966   4.562   5.478   4.098  0.6877 -0.0302  0.0218
   84SOPE   H2910967   4.521   5.539   4.179 -2.0391 -1.5218 -0.1527
   84SOPE   H3010968   4.670   5.489   4.097  0.7159 -0.3639 -1.6518
   84SOPE   C1710969   4.528   5.332   4.101 -0.2426  0.4143 -0.6746
   84SOPE   H3110970   4.574   5.275   4.020  2.1642  0.7759  0.4098
   84SOPE   H3210971   4.421   5.310   4.092 -0.1980 -0.2725  0.3984
   84SOPE   C1810972   4.567   5.258   4.240  0.0916  0.3137 -0.8044
   84SOPE   H3310973   4.494   5.300   4.310 -0.1803  0.0155 -0.9064
   84SOPE   H3410974   4.667   5.284   4.275  0.0687  0.9050 -1.1704
   84SOPE   C1910975   4.554   5.114   4.226  0.1340  0.5694 -0.4333
   84SOPE   H3510976   4.592   5.079   4.132  0.3255 -0.5925  0.0750
   84SOPE   C2010977   4.522   5.022   4.320 -0.2192  0.9815 -0.2794
   84SOPE   H3610978   4.528   4.916   4.300 -2.2170  0.6318  0.9248
   84SOPE   C2110979   4.491   5.054   4.465  0.1244 -0.3971 -0.3625
   84SOPE   H3710980   4.391   5.015   4.483  0.7946 -1.9807 -0.0387
   84SOPE   H3810981   4.482   5.163   4.468  1.5873 -0.2425 -1.2482
   84SOPE   C2210982   4.605   5.010   4.561 -0.4072  0.3606 -0.7531
   84SOPE   H3910983   4.627   4.904   4.552  0.3843  0.4625 -0.0332
   84SOPE   H4010984   4.570   5.023   4.663  1.7816  0.2998  0.0332
   84SOPE   C2310985   4.728   5.101   4.551 -0.1974  0.0901 -0.5795
   84SOPE   H4110986   4.698   5.206   4.554 -0.6709 -0.0649  0.2436
   84SOPE   H4210987   4.766   5.089   4.449 -2.4963 -0.0493 -1.4694
   84SOPE   C2410988   4.837   5.058   4.650 -0.0393  0.0345 -0.7834
   84SOPE   H4310989   4.928   5.106   4.613  0.1710  1.2323  1.2067
   84SOPE   H4410990   4.852   4.950   4.640 -0.2518 -0.2759  1.8595
   84SOPE   C2510991   4.811   5.099   4.795 -0.0522  0.0172 -0.4410
   84SOPE   H4510992   4.722   5.052   4.836 -0.8516  1.7908 -0.0953
   84SOPE   H4610993   4.799   5.208   4.798 -1.8046 -0.1025 -2.0008
   84SOPE   C2610994   4.921   5.057   4.889 -0.4715  0.5155  0.2249
   84SOPE   H4710995   5.018   5.082   4.846  0.4429 -1.5949  0.9619
   84SOPE   H4810996   4.917   5.118   4.979  0.7241 -0.2249  0.7948
   84SOPE   C2710997   4.922   4.903   4.913 -0.6999  0.0758  0.1227
   84SOPE   H4910998   4.948   4.859   4.817  1.8467  0.7355  0.4792
   84SOPE   H5010999   4.823   4.867   4.939 -0.0565 -0.7668  1.4675
   84SOPE   C2711000   5.030   4.862   5.017 -0.0024  0.2761 -0.3742
   84SOPE   H5111001   5.134   4.884   4.991  0.7407 -1.1054  1.2799
   84SOPE   H5211002   5.001   4.891   5.118 -0.1818  0.1202 -0.3795
   84SOPE   H5311003   5.030   4.753   5.020  1.4370  0.2635 -0.4168
   84SOPE   C2911004   4.249   5.934   3.846 -0.1183 -0.4867  0.7294
   84SOPE   H5411005   4.262   5.836   3.891  3.6770  0.6648  2.3987
   84SOPE   H5511006   4.151   0.020   3.880  0.2064 -0.5637  1.7603
   84SOPE   C3011007   4.377   0.073   3.876  0.3581 -0.1778  0.7750
   84SOPE   H5611008   4.385   0.167   3.822  1.1819 -0.9070 -0.3941
   84SOPE   H5711009   4.460   0.009   3.847  1.0363  0.5455  1.1115
   84SOPE   C3111010   4.388   0.100   4.033  0.0668  0.0983  0.2421
   84SOPE   H5811011   4.356   0.014   4.091  2.4536  0.7368  2.6139
   84SOPE   H5911012   4.306   0.169   4.054  1.1232  1.2816  0.5443
   84SOPE   C3211013   4.528   0.151   4.077  0.5394 -0.3505  0.2721
   84SOPE   H6011014   4.546   0.242   4.019  1.4572 -0.9431 -0.3914
   84SOPE   H6111015   4.596   0.072   4.045  0.0235 -0.0639 -1.5879
   84SOPE   C3311016   4.534   0.172   4.230  0.3614  0.1961  0.2235
   84SOPE   H6211017   4.637   0.206   4.246 -0.1527  1.5696  0.6480
   84SOPE   H6311018   4.511   0.076   4.276  0.7347  1.2268  2.6443
   84SOPE   C3411019   4.439   0.275   4.288 -0.7970  0.5538  1.1129
   84SOPE   H6411020   4.340   0.276   4.243  0.5087  0.4234 -1.8990
   84SOPE   H6511021   4.470   0.377   4.266 -1.6966  0.6518  0.2792
   84SOPE   C3511022   4.406   0.279   4.443  0.4942  0.9716  0.6439
   84SOPE   H6611023   4.499   0.262   4.498  0.5399 -0.7762  0.0373
   84SOPE   H6711024   4.338   0.199   4.471  0.7993  0.2238 -0.6859
   84SOPE   C3611025   4.334   0.412   4.487  0.0735  1.0121 -0.1785
   84SOPE   H6811026   4.240   0.414   4.431  0.0015  1.6779 -0.0425
   84SOPE   H6911027   4.408   0.487   4.458 -0.8638  1.0417 -2.6852
   84SOPE   C3711028   4.286   0.422   4.635 -0.5514 -0.8025 -0.2283
   84SOPE   H7011029   4.202   0.359   4.665 -0.7947 -0.7648 -0.8237
   84SOPE   H7111030   4.250   0.523   4.656 -0.4648 -1.3273  2.7620
   84SOPE   C3811031   4.413   0.411   4.733  0.1526 -0.3788 -0.2208
   84SOPE   H7211032   4.402   0.468   4.826 -3.8297  1.0084 -1.3913
   84SOPE   H7311033   4.496   0.458   4.681 -0.1853  1.7503  1.0977
   84SOPE   C3911034   4.446   0.266   4.773 -0.4320  0.1512 -0.6525
   84SOPE   H7411035   4.436   0.191   4.694  0.2105  0.9369 -1.4993
   84SOPE   H7511036   4.378   0.231   4.851  0.8079  3.0517  1.8465
   84SOPE   C4011037   4.598   0.250   4.816 -0.3834  0.0929 -1.4403
   84SOPE   H7611038   4.622   0.156   4.866  1.2792  1.4003  0.2808
   84SOPE   H7711039   4.622   0.324   4.892 -2.3814 -2.7325  2.0986
   84SOPE   C4111040   4.708   0.257   4.702  0.1057  0.3020  0.2235
   84SOPE   H7811041   4.698   0.345   4.638 -1.5594 -0.2307 -0.2842
   84SOPE   H7911042   4.691   0.175   4.632  3.0903  0.0086 -0.1986
   84SOPE   C4211043   4.853   0.259   4.754  0.7433 -0.3459  0.4342
   84SOPE   H8011044   4.886   0.163   4.793 -2.1916 -0.8713  1.7603
   84SOPE   H8111045   4.860   0.327   4.838  0.7085  0.9592 -0.6030
   84SOPE   C4311046   4.959   0.307   4.650 -0.2815 -0.1558  0.3640
   84SOPE   H8211047   4.936   0.413   4.638 -2.6666 -0.3243  2.8960
   84SOPE   H8311048   5.048   0.302   4.712  2.3436 -0.3947 -3.2853
   84SOPE   C4411049   4.973   0.229   4.524  0.0620  0.0974  0.6570
   84SOPE   H8411050   5.056   0.257   4.460 -0.7166  1.2443  0.1282
   84SOPE   H8511051   4.976   0.120   4.533  1.9106  0.1677  1.1757
   84SOPE   H8611052   4.890   0.261   4.461  0.6557  1.2907  0.4589
   85SOPE    N111053   3.771   3.206   3.507 -0.3097 -0.3854  0.2985
   85SOPE    C111054   3.619   3.212   3.537 -0.5351 -0.8073 -0.1133
   85SOPE    H111055   3.565   3.149   3.467 -0.7009  0.6389 -1.2941
   85SOPE    H211056   3.574   3.310   3.526  1.3838  0.3699  1.9368
   85SOPE    H311057   3.800   3.299   3.533 -1.3907 -0.0322  0.2578
   85SOPE    H411058   3.779   3.186   3.409  0.0527 -1.1251  0.4766
   85SOPE    H511059   3.801   3.128   3.565 -2.7622 -1.4118  0.2600
   85SOPE    C511060   3.578   3.172   3.684 -0.7616  0.4448 -0.1548
   85SOPE   H1211061   3.640   3.088   3.714  0.1468  2.0186  2.6346
   85SOPE   H1311062   3.605   3.250   3.755  0.9899 -0.4162  0.1421
   85SOPE    P111063   3.386   3.000   3.724  0.0041  0.2859 -0.0945
   85SOPE    O111064   3.241   3.003   3.704 -0.3725 -0.0236 -0.1883
   85SOPE    O211065   3.462   2.903   3.639 -0.4203  0.0443 -0.3679
   85SOPE    O311066   3.440   3.141   3.710  1.3704 -0.9473  0.2873
   85SOPE    O411067   3.416   2.960   3.875  0.3758  0.4874 -0.3605
   85SOPE    C611068   3.355   3.045   3.971  0.0126 -0.1976 -0.1103
   85SOPE   H1411069   3.324   2.974   4.047 -0.3149 -0.7348 -0.7380
   85SOPE   H1511070   3.278   3.111   3.932 -0.7675  0.7746  2.9258
   85SOPE    C711071   3.473   3.134   4.017 -0.0606  0.3117 -0.8054
   85SOPE   H1611072   3.511   3.197   3.936  1.4747 -0.6067 -0.8069
   85SOPE    O511073   3.566   3.035   4.073  0.6521 -0.2123 -0.6545
   85SOPE    C811074   3.686   3.040   4.027  0.1067  0.1150 -0.4609
   85SOPE    O611075   3.741   3.130   3.963 -0.2136 -0.1143  0.3816
   85SOPE    C911076   3.770   2.933   4.101 -0.0420  0.1904  0.9516
   85SOPE   H1711077   3.770   2.855   4.025  1.6668 -0.6655  1.8196
   85SOPE   H1811078   3.728   2.885   4.190  2.2007 -0.7043  1.5578
   85SOPE   C1011079   3.417   3.226   4.116 -0.3119 -0.6635 -0.6753
   85SOPE   H1911080   3.367   3.172   4.196 -0.7796 -0.8804 -1.1125
   85SOPE   H2011081   3.343   3.292   4.069  0.3454  0.2463 -0.4448
   85SOPE    O711082   3.522   3.304   4.181 -0.1819  0.7564 -0.1877
   85SOPE   C1111083   3.560   3.420   4.136  0.8970  0.2321  0.0757
   85SOPE    O811084   3.544   3.454   4.019 -0.0002 -0.3525  0.5540
   85SOPE   C1211085   3.687   3.462   4.202 -0.0047  0.2322 -0.8012
   85SOPE   H2111086   3.748   3.502   4.121  0.9407  0.4092 -0.0191
   85SOPE   H2211087   3.743   3.379   4.245  0.3818 -0.1747 -2.0636
   85SOPE   C1311088   3.680   3.586   4.304  0.3727  0.1157 -0.0345
   85SOPE   H2311089   3.780   3.629   4.314 -0.3486  2.0497 -0.9657
   85SOPE   H2411090   3.667   3.557   4.408 -0.2824 -1.1501 -0.4555
   85SOPE   C1411091   3.593   3.709   4.258  0.8447  0.2842 -0.3671
   85SOPE   H2511092   3.488   3.680   4.252  0.7874  0.4387 -0.1143
   85SOPE   H2611093   3.632   3.740   4.161  1.6672 -1.1559 -0.5043
   85SOPE   C1511094   3.605   3.834   4.346  0.3117 -0.3354  0.4157
   85SOPE   H2711095   3.550   3.920   4.310  0.6742 -0.8313 -1.3688
   85SOPE   H2811096   3.706   3.875   4.346 -0.1593  0.8321  0.1215
   85SOPE   C1611097   3.568   3.805   4.490  0.8252  0.0027 -0.0393
   85SOPE   H2911098   3.624   3.728   4.544  0.5415  0.5283  1.0239
   85SOPE   H3011099   3.465   3.774   4.504  0.6952  0.1956 -0.5518
   85SOPE   C1711100   3.581   3.937   4.565  0.8695  1.0136  0.0922
   85SOPE   H3111101   3.502   4.005   4.532  0.9866  0.7776 -0.6705
   85SOPE   H3211102   3.675   3.988   4.546  0.5559  1.9589  0.9939
   85SOPE   C1811103   3.565   3.913   4.715 -0.5384  0.2199  0.5021
   85SOPE   H3311104   3.623   3.992   4.762 -2.7727  1.6703  0.8914
   85SOPE   H3411105   3.605   3.819   4.753  2.2003  1.2690  0.3908
   85SOPE   C1911106   3.425   3.929   4.765 -0.0516  0.3415 -0.4075
   85SOPE   H3511107   3.345   3.877   4.715 -1.5318  0.1003  2.1008
   85SOPE   C2011108   3.384   4.021   4.854 -0.4222 -0.7763  0.3471
   85SOPE   H3611109   3.277   4.021   4.869 -0.6008 -2.2943 -0.7381
   85SOPE   C2111110   3.469   4.103   4.949  0.0521  0.1137  0.2282
   85SOPE   H3711111   3.450   4.206   4.917 -0.3671 -0.0718 -0.1313
   85SOPE   H3811112   3.574   4.080   4.934  0.0351  0.2476 -0.1056
   85SOPE   C2211113   3.421   4.083   5.093 -0.2098 -0.3857 -0.5746
   85SOPE   H3911114   3.394   3.980   5.113 -1.6305 -0.4931 -2.7752
   85SOPE   H4011115   3.336   4.151   5.100 -0.5570 -0.9831  1.1880
   85SOPE   C2311116   3.530   4.141   5.178  0.0454  0.1135  0.2622
   85SOPE   H4111117   3.562   4.235   5.134 -0.1525 -0.5325 -1.3145
   85SOPE   H4211118   3.614   4.071   5.173 -0.0381 -0.1765  2.3366
   85SOPE   C2411119   3.482   4.154   5.330  0.5310 -0.0627 -0.4602
   85SOPE   H4311120   3.494   4.052   5.369  0.9038  0.1727  0.0540
   85SOPE   H4411121   3.377   4.180   5.340  0.3518 -1.1468  0.5855
   85SOPE   C2511122   3.572   4.244   5.417 -0.1482 -0.4903  0.0719
   85SOPE   H4511123   3.568   4.342   5.370  1.6382 -0.4918 -0.1270
   85SOPE   H4611124   3.676   4.215   5.399 -0.2035 -0.7021  0.0800
   85SOPE   C2611125   3.526   4.249   5.563  0.9228 -0.7701 -0.9250
   85SOPE   H4711126   3.420   4.268   5.572  1.2679  0.5279  0.5966
   85SOPE   H4811127   3.531   4.145   5.593 -2.6332 -0.2358  1.7302
   85SOPE   C2711128   3.617   4.333   5.651 -0.0057 -0.3200  0.6856
   85SOPE   H4911129   3.624   4.435   5.615 -1.9915 -0.0136  1.1037
   85SOPE   H5011130   3.721   4.303   5.637  0.6656  1.0224  2.5812
   85SOPE   C2711131   3.575   4.330   5.803  0.1418 -0.6992 -0.8582
   85SOPE   H5111132   3.583   4.231   5.848  2.8112 -0.8773 -1.6605
   85SOPE   H5211133   3.637   4.395   5.865 -0.6218 -0.4247 -0.3708
   85SOPE   H5311134   3.475   4.365   5.828 -0.9340 -2.7634 -2.1562
   85SOPE   C2911135   3.917   2.972   4.113  0.5837 -0.1437 -0.1294
   85SOPE   H5411136   3.940   3.043   4.192 -1.3347 -1.6195  1.8173
   85SOPE   H5511137   3.960   3.005   4.019 -0.4606  0.2438 -0.4748
   85SOPE   C3011138   4.002   2.846   4.148 -0.4869  0.0137  0.3163
   85SOPE   H5611139   4.102   2.885   4.134 -0.7194 -0.7640 -4.2672
   85SOPE   H5711140   3.993   2.773   4.067  3.0206  1.1729 -1.1872
   85SOPE   C3111141   3.974   2.797   4.288  0.1020  0.4373  0.5159
   85SOPE   H5811142   3.875   2.751   4.290  0.1699  0.2133 -1.0298
   85SOPE   H5911143   3.989   2.875   4.363 -1.1229  0.5052  0.7039
   85SOPE   C3211144   4.072   2.683   4.329 -0.2310 -0.1466 -0.3122
   85SOPE   H6011145   4.167   2.733   4.348  0.9479 -1.2564 -2.9824
   85SOPE   H6111146   4.082   2.624   4.238  0.7402  0.5626 -0.6733
   85SOPE   C3311147   4.026   2.599   4.452 -0.0260 -0.1341 -0.9912
   85SOPE   H6211148   4.109   2.535   4.481 -0.9686 -2.0687 -2.4043
   85SOPE   H6311149   3.947   2.532   4.418 -1.0334  0.1667  0.7431
   85SOPE   C3411150   3.976   2.696   4.568 -0.2915  0.2849 -0.7871
   85SOPE   H6411151   3.898   2.758   4.523 -0.8691 -0.6476 -1.0924
   85SOPE   H6511152   4.060   2.760   4.594 -1.3927  3.1017 -3.7766
   85SOPE   C3511153   3.922   2.633   4.696 -0.1936 -0.3469  0.1577
   85SOPE   H6611154   3.830   2.585   4.662 -0.0507 -1.1331  0.8645
   85SOPE   H6711155   3.898   2.704   4.776  1.8912  0.6104 -0.0246
   85SOPE   C3611156   3.997   2.520   4.769  0.1032 -0.4199 -0.3952
   85SOPE   H6811157   4.098   2.557   4.780  0.2498 -0.5987 -1.0893
   85SOPE   H6911158   3.998   2.428   4.710 -2.0871  0.7742 -2.4030
   85SOPE   C3711159   3.930   2.487   4.905 -0.3458 -0.1073 -0.6141
   85SOPE   H7011160   3.928   2.570   4.976 -0.6317 -1.4932  1.0277
   85SOPE   H7111161   3.989   2.405   4.946 -1.1957 -0.8647 -0.9132
   85SOPE   C3811162   3.791   2.426   4.885  0.0682 -0.4586 -0.2129
   85SOPE   H7211163   3.801   2.357   4.801  1.4895 -0.2691 -0.2021
   85SOPE   H7311164   3.718   2.495   4.842  0.7335  0.2535 -0.2097
   85SOPE   C3911165   3.734   2.357   5.017  0.1512 -0.6491  0.1409
   85SOPE   H7411166   3.787   2.262   5.026 -1.4806 -1.7352 -1.4250
   85SOPE   H7511167   3.629   2.338   4.999 -0.1468  2.6352 -1.9040
   85SOPE   C4011168   3.764   2.425   5.149 -0.3740 -0.3221 -0.1236
   85SOPE   H7611169   3.869   2.438   5.174 -0.1650 -1.7317 -0.2414
   85SOPE   H7711170   3.722   2.360   5.226 -0.5916 -2.1475 -1.7534
   85SOPE   C4111171   3.687   2.556   5.158  0.6300  0.3310  0.1925
   85SOPE   H7811172   3.585   2.545   5.121  0.4953 -0.3558  0.7390
   85SOPE   H7911173   3.737   2.621   5.086  1.5346 -2.4328 -1.7507
   85SOPE   C4211174   3.691   2.602   5.309 -0.0074  0.1682  0.7563
   85SOPE   H8011175   3.797   2.606   5.333  0.8739  1.0430 -2.8796
   85SOPE   H8111176   3.646   2.525   5.370  0.2197  0.3995  1.2200
   85SOPE   C4311177   3.647   2.751   5.316 -0.2855  0.2154  0.6816
   85SOPE   H8211178   3.694   2.819   5.245 -0.1062 -1.8405 -1.2295
   85SOPE   H8311179   3.542   2.756   5.291 -0.0047 -0.6256 -0.7087
   85SOPE   C4411180   3.657   2.802   5.461 -0.6387  0.0234 -0.5609
   85SOPE   H8411181   3.623   2.727   5.533  0.9144  3.9356  4.5982
   85SOPE   H8511182   3.763   2.808   5.486 -0.9313 -0.4297  0.8286
   85SOPE   H8611183   3.616   2.902   5.473  2.7552  1.7609 -2.7661
   86SOPE    N111184   4.933   1.960   3.062 -0.1040  0.2443 -0.2297
   86SOPE    C111185   4.927   2.100   3.119  0.4638  0.4720 -0.6955
   86SOPE    H111186   4.859   2.171   3.074 -0.6363  0.8037  1.4101
   86SOPE    H211187   5.029   2.137   3.123  0.0682  1.7447 -2.3492
   86SOPE    H311188   4.840   1.921   3.066  0.3626 -0.8493  0.2444
   86SOPE    H411189   4.992   1.903   3.121 -2.1081 -0.4606  1.1367
   86SOPE    H511190   4.974   1.970   2.970  1.1124  0.6587  0.3405
   86SOPE    C511191   4.878   2.100   3.272  0.3046  0.2866 -0.3047
   86SOPE   H1211192   4.965   2.053   3.318  1.2787  0.5364 -1.8472
   86SOPE   H1311193   4.784   2.050   3.296  1.1698 -1.1078  0.2685
   86SOPE    P111194   4.965   2.277   3.448  0.0716 -0.1168 -0.3050
   86SOPE    O111195   5.104   2.280   3.408 -0.2328  0.0101 -0.4973
   86SOPE    O211196   4.901   2.406   3.488 -0.4335  0.7973  0.2216
   86SOPE    O311197   4.878   2.235   3.323  0.2754  0.5455 -0.6795
   86SOPE    O411198   4.950   2.177   3.567 -0.2132  0.5630 -0.1050
   86SOPE    C611199   4.814   2.144   3.604  1.1539 -0.4796  0.8439
   86SOPE   H1411200   4.764   2.069   3.543 -1.0949 -0.3104  2.4065
   86SOPE   H1511201   4.748   2.229   3.621 -0.4523 -1.3549 -0.8637
   86SOPE    C711202   4.831   2.084   3.745  0.4539  0.0030  0.4686
   86SOPE   H1611203   4.730   2.064   3.779 -0.0718  0.9254 -0.5354
   86SOPE    O511204   4.914   2.164   3.823 -0.3070 -0.2743 -0.3288
   86SOPE    C811205   4.859   2.228   3.933  0.4114  0.1627  0.1238
   86SOPE    O611206   4.741   2.209   3.970  0.0633  0.4267  0.4906
   86SOPE    C911207   4.949   2.316   4.015  0.5116  0.8319 -0.1112
   86SOPE   H1711208   4.963   2.412   3.965 -1.1067  0.6961 -0.8441
   86SOPE   H1811209   5.044   2.263   4.011 -0.4496 -0.9579  0.1091
   86SOPE   C1011210   4.901   1.949   3.739 -0.0482 -0.0668  0.8223
   86SOPE   H1911211   4.995   1.954   3.685 -0.5972 -1.3538 -0.3135
   86SOPE   H2011212   4.840   1.887   3.673  0.5071 -0.1119  0.3467
   86SOPE    O711213   4.920   1.893   3.868  0.1683  0.4115 -1.0567
   86SOPE   C1111214   4.958   1.767   3.892 -0.4009  0.9581  0.4798
   86SOPE    O811215   4.925   1.670   3.820  0.9245  0.1251 -0.7868
   86SOPE   C1211216   4.956   1.748   4.050 -0.0358 -0.3672  0.5405
   86SOPE   H2111217   4.892   1.821   4.099 -0.5144 -1.1796  1.1357
   86SOPE   H2211218   5.057   1.783   4.072 -1.1533  1.2058  3.3663
   86SOPE   C1311219   4.956   1.606   4.095 -0.3758  0.6064  0.2856
   86SOPE   H2311220   5.048   1.555   4.069 -1.7152 -1.9042  0.3014
   86SOPE   H2411221   4.879   1.554   4.038  0.1213  0.5934 -0.3824
   86SOPE   C1411222   4.920   1.586   4.242  0.0935 -0.0449  0.1068
   86SOPE   H2511223   4.892   1.483   4.262 -0.8470 -0.0467 -1.0982
   86SOPE   H2611224   4.836   1.645   4.277 -0.1600  0.0809 -0.6891
   86SOPE   C1511225   5.041   1.608   4.326 -0.0040 -0.5853 -0.0631
   86SOPE   H2711226   5.054   1.714   4.307 -1.0147 -0.2577  1.0934
   86SOPE   H2811227   5.122   1.542   4.292  2.0902  1.8014  0.0900
   86SOPE   C1611228   5.035   1.558   4.471 -0.0100 -0.6969 -0.4296
   86SOPE   H2911229   5.122   1.601   4.521  1.0345 -2.3307 -0.8013
   86SOPE   H3011230   5.052   1.451   4.485 -0.4514 -1.0201 -2.2849
   86SOPE   C1711231   4.907   1.599   4.537 -0.3585 -0.5028 -0.2611
   86SOPE   H3111232   4.820   1.552   4.491 -1.1056  2.2443 -1.7698
   86SOPE   H3211233   4.896   1.708   4.537  0.8448 -0.3559 -2.1506
   86SOPE   C1811234   4.897   1.546   4.676  0.0753  0.1244 -0.3670
   86SOPE   H3311235   4.960   1.611   4.737  0.3866  1.7448 -2.3737
   86SOPE   H3411236   4.937   1.446   4.692 -0.4024 -0.3129 -1.8181
   86SOPE   C1911237   4.756   1.553   4.729 -1.1272  0.2545 -0.3844
   86SOPE   H3511238   4.697   1.630   4.682  0.4139  0.8147 -1.4663
   86SOPE   C2011239   4.696   1.456   4.803  0.1996  0.4875  0.1292
   86SOPE   H3611240   4.594   1.476   4.830 -0.0444 -0.1678 -0.2925
   86SOPE   C2111241   4.772   1.331   4.856 -0.5310 -0.1395 -0.0800
   86SOPE   H3711242   4.875   1.361   4.873 -0.0294 -1.1247 -1.3284
   86SOPE   H3811243   4.777   1.247   4.786  0.8040  0.3105 -0.5420
   86SOPE   C2211244   4.716   1.292   5.003  0.5694  0.7629  0.3411
   86SOPE   H3911245   4.613   1.258   4.997  1.1112 -0.9169  0.3582
   86SOPE   H4011246   4.722   1.382   5.065 -0.5661  1.9672 -1.2346
   86SOPE   C2311247   4.803   1.171   5.054  0.1893  0.8920  0.6085
   86SOPE   H4111248   4.791   1.088   4.984 -1.8346 -0.0028  1.9654
   86SOPE   H4211249   4.779   1.143   5.156  0.1709 -1.2277  0.0543
   86SOPE   C2411250   4.954   1.204   5.060  0.2890  0.4298 -0.1751
   86SOPE   H4311251   5.003   1.202   4.963  1.8979 -0.8137  0.6333
   86SOPE   H4411252   5.003   1.118   5.106 -0.4207  0.2094  0.1815
   86SOPE   C2511253   5.006   1.324   5.147 -0.5101 -0.1959 -0.0131
   86SOPE   H4511254   4.983   1.309   5.253  0.2113  0.9707  0.3240
   86SOPE   H4611255   4.958   1.412   5.105 -0.2233  0.8511  1.7888
   86SOPE   C2611256   5.153   1.354   5.117  0.2546  0.2729 -0.1289
   86SOPE   H4711257   5.187   1.438   5.177  3.1135  0.0858 -1.4104
   86SOPE   H4811258   5.218   1.278   5.162 -1.6663 -2.1667 -1.3339
   86SOPE   C2711259   5.197   1.369   4.969 -0.3667  0.7271  0.5223
   86SOPE   H4911260   5.173   1.281   4.908 -0.3838  0.9057  0.2697
   86SOPE   H5011261   5.306   1.369   4.974 -0.3485 -0.7703  0.4719
   86SOPE   C2711262   5.138   1.495   4.903 -0.2723  0.0622  0.0532
   86SOPE   H5111263   5.029   1.503   4.909 -0.6132 -1.5733 -2.9332
   86SOPE   H5211264   5.189   1.583   4.942 -0.5769  0.3246 -0.1341
   86SOPE   H5311265   5.166   1.499   4.798  2.0915  1.3574  0.7080
   86SOPE   C2911266   4.919   2.336   4.164  0.1670  0.5423  0.3364
   86SOPE   H5411267   4.835   2.406   4.169 -2.2042 -1.9946 -2.0236
   86SOPE   H5511268   5.009   2.385   4.201  0.5901 -0.7047  1.0093
   86SOPE   C3011269   4.879   2.209   4.237 -0.1257  0.3170  0.2553
   86SOPE   H5611270   4.957   2.202   4.312  0.4051 -0.9999 -0.4093
   86SOPE   H5711271   4.883   2.119   4.176 -2.9323  0.0650  0.3959
   86SOPE   C3111272   4.735   2.216   4.298 -0.0522 -0.1270 -1.0443
   86SOPE   H5811273   4.665   2.232   4.216 -1.6359 -3.0537 -0.3517
   86SOPE   H5911274   4.739   2.294   4.374 -2.3285  0.5087 -1.5473
   86SOPE   C3211275   4.679   2.087   4.358 -0.1199  0.5153 -0.5207
   86SOPE   H6011276   4.642   2.017   4.284 -1.1007  1.4633 -0.9428
   86SOPE   H6111277   4.593   2.116   4.418  0.0590  0.6026 -0.3032
   86SOPE   C3311278   4.781   2.015   4.446  0.0286  0.1034 -0.0931
   86SOPE   H6211279   4.873   2.002   4.388  0.3626 -0.3945  0.5536
   86SOPE   H6311280   4.727   1.924   4.472  0.6651 -0.8468 -1.9887
   86SOPE   C3411281   4.815   2.088   4.574  0.3560 -0.7117  0.1873
   86SOPE   H6411282   4.727   2.147   4.598  0.1981 -0.1698 -1.6427
   86SOPE   H6511283   4.882   2.169   4.546 -0.6887  0.3894  0.8328
   86SOPE   C3511284   4.872   2.006   4.694 -0.4756  0.1419 -0.4400
   86SOPE   H6611285   4.944   1.933   4.656 -1.2581 -1.6643  1.4763
   86SOPE   H6711286   4.784   1.955   4.735 -1.2826  0.8250 -1.2908
   86SOPE   C3611287   4.934   2.095   4.799  0.1575  0.8345  0.5043
   86SOPE   H6811288   5.015   2.157   4.761  1.6923 -0.9477  0.8033
   86SOPE   H6911289   4.973   2.030   4.878  0.8002 -0.3427 -0.7647
   86SOPE   C3711290   4.829   2.186   4.868  0.3780  0.4039 -0.5524
   86SOPE   H7011291   4.773   2.119   4.933 -0.3783  0.3180 -1.2763
   86SOPE   H7111292   4.758   2.233   4.799  0.2537  1.4884  0.2873
   86SOPE   C3811293   4.885   2.314   4.933  0.5250 -0.2692  0.5657
   86SOPE   H7211294   4.805   2.382   4.964  1.0559 -0.0599  1.5003
   86SOPE   H7311295   4.952   2.364   4.862 -1.1483  1.8727  0.4130
   86SOPE   C3911296   4.978   2.282   5.056 -0.6840 -0.4149 -0.2485
   86SOPE   H7411297   5.059   2.215   5.024  0.2456  1.6030 -2.2846
   86SOPE   H7511298   4.922   2.226   5.130 -0.1251 -0.5295  0.0980
   86SOPE   C4011299   5.018   2.409   5.130 -1.0692 -0.0554 -0.5645
   86SOPE   H7611300   4.921   2.453   5.152 -0.7978  0.2417  0.0416
   86SOPE   H7711301   5.075   2.471   5.061  2.5089 -1.1568  1.2986
   86SOPE   C4111302   5.108   2.373   5.247  0.1671 -0.4208 -0.1440
   86SOPE   H7811303   5.213   2.362   5.222  0.4769 -1.1714  1.4421
   86SOPE   H7911304   5.079   2.270   5.269  0.9162 -0.4173  0.9014
   86SOPE   C4211305   5.100   2.466   5.366 -0.4945  0.1826 -0.7381
   86SOPE   H8011306   5.150   2.428   5.455 -1.8819 -0.9687 -0.4402
   86SOPE   H8111307   4.997   2.498   5.385 -0.4625  0.4223 -0.9642
   86SOPE   C4311308   5.171   2.602   5.334 -0.1849 -0.2299  0.3950
   86SOPE   H8211309   5.263   2.588   5.277 -1.0718 -2.1104 -0.6148
   86SOPE   H8311310   5.116   2.655   5.255 -1.1043  1.1954  1.9487
   86SOPE   C4411311   5.181   2.695   5.458 -0.3058  0.3999  0.4124
   86SOPE   H8411312   5.084   2.726   5.498 -0.2178 -1.9530  2.5444
   86SOPE   H8511313   5.214   2.637   5.543 -0.1679 -1.5271 -0.9235
   86SOPE   H8611314   5.248   2.779   5.442  0.1028 -0.2969 -1.8305
   87SOPE    N111315   2.099   0.841   4.143 -0.1138  0.0181 -0.6219
   87SOPE    C111316   1.986   0.747   4.124 -0.0801  0.0592 -0.1258
   87SOPE    H111317   1.986   0.722   4.018  0.8852  0.0596 -0.1290
   87SOPE    H211318   1.889   0.780   4.161 -0.5156 -2.4633  1.0761
   87SOPE    H311319   2.184   0.796   4.111  0.9249  0.7799  0.9852
   87SOPE    H411320   2.106   0.869   4.240 -0.8288 -3.7900  0.6107
   87SOPE    H511321   2.068   0.916   4.083  0.6264 -0.9614 -2.2624
   87SOPE    C511322   2.024   0.616   4.195 -0.5388  0.0442 -0.2766
   87SOPE   H1211323   2.126   0.586   4.174 -0.3225  1.7187 -1.6857
   87SOPE   H1311324   2.027   0.640   4.302 -3.4747 -0.7350  0.0228
   87SOPE    P111325   1.790   0.500   4.227 -0.0481  0.0189 -0.3114
   87SOPE    O111326   1.702   0.584   4.146  0.1529 -0.0896  0.4159
   87SOPE    O211327   1.758   0.354   4.240  0.1787  0.2416  0.4226
   87SOPE    O311328   1.936   0.511   4.161 -0.0631  0.3210 -0.3162
   87SOPE    O411329   1.800   0.573   4.368  0.3639 -0.3463  0.0388
   87SOPE    C611330   1.810   0.510   4.494 -0.6663 -0.7672 -0.3391
   87SOPE   H1411331   1.843   0.575   4.575  2.0894 -1.5926 -0.7560
   87SOPE   H1511332   1.897   0.444   4.486  1.7888  2.4017 -0.5754
   87SOPE    C711333   1.673   0.454   4.534 -0.8218  0.4382  0.1314
   87SOPE   H1611334   1.618   0.406   4.454  1.3084  0.4350 -1.4043
   87SOPE    O511335   1.604   0.569   4.585 -0.0577 -0.0080  0.1347
   87SOPE    C811336   1.481   0.600   4.550 -0.1217  0.7124  0.9377
   87SOPE    O611337   1.399   0.523   4.489 -0.5251 -0.1730 -0.3379
   87SOPE    C911338   1.439   0.726   4.621 -0.0672  0.2429  0.2531
   87SOPE   H1711339   1.422   0.811   4.554  0.8121 -0.3596 -0.7520
   87SOPE   H1811340   1.523   0.770   4.674 -0.7953  0.6096  1.1197
   87SOPE   C1011341   1.692   0.355   4.646  0.6693 -0.2332  0.6736
   87SOPE   H1911342   1.754   0.268   4.622 -0.2770 -1.6913  3.3509
   87SOPE   H2011343   1.595   0.325   4.684 -0.8152  1.1231 -1.8815
   87SOPE    O711344   1.754   0.419   4.758 -0.3286  0.1322 -0.4474
   87SOPE   C1111345   1.872   0.380   4.806  0.2181 -0.3777 -0.1360
   87SOPE    O811346   1.937   0.300   4.749  0.4963  1.1268 -0.4321
   87SOPE   C1211347   1.940   0.481   4.894  0.5548 -0.1473  0.0363
   87SOPE   H2111348   1.865   0.531   4.956  0.5940 -1.6201  1.2862
   87SOPE   H2211349   1.972   0.559   4.825 -0.2062 -0.9947 -1.2946
   87SOPE   C1311350   2.070   0.432   4.963 -0.0757 -0.2052  0.6452
   87SOPE   H2311351   2.124   0.522   4.992 -2.0459  1.1378  0.2380
   87SOPE   H2411352   2.146   0.388   4.899 -2.9814 -1.6600 -1.9379
   87SOPE   C1411353   2.037   0.321   5.069  0.5978 -0.1958  0.3410
   87SOPE   H2511354   2.065   0.221   5.036 -0.4753 -0.6549  0.7939
   87SOPE   H2611355   1.929   0.317   5.085  0.5664  2.7065  1.1932
   87SOPE   C1511356   2.097   0.351   5.204 -0.3865  0.5128  0.6858
   87SOPE   H2711357   2.055   0.448   5.232  2.2563  1.6979  0.7346
   87SOPE   H2811358   2.202   0.378   5.191 -1.0006  3.0060  0.5596
   87SOPE   C1611359   2.085   0.237   5.306  0.6153  0.8234  0.2839
   87SOPE   H2911360   2.150   0.157   5.269 -1.6982 -0.3015 -1.4563
   87SOPE   H3011361   1.987   0.189   5.308  0.1083  1.8860  1.3252
   87SOPE   C1711362   2.128   0.282   5.443 -0.4705  0.2402 -0.1592
   87SOPE   H3111363   2.082   0.377   5.470 -2.6634 -0.8034 -0.0892
   87SOPE   H3211364   2.234   0.308   5.444 -0.7357  1.3492  0.0679
   87SOPE   C1811365   2.098   0.165   5.551 -0.5998  0.3696 -0.3524
   87SOPE   H3311366   2.148   0.075   5.516 -0.1294  0.0405  1.1501
   87SOPE   H3411367   1.989   0.156   5.556 -0.5053 -0.1617  0.7764
   87SOPE   C1911368   2.156   0.199   5.685 -0.2129 -0.4415  0.1294
   87SOPE   H3511369   2.232   0.275   5.682  0.2299 -0.8883 -0.0734
   87SOPE   C2011370   2.110   0.173   5.806 -0.5296 -0.6305 -0.3913
   87SOPE   H3611371   2.154   0.227   5.889 -0.2805 -3.0092  1.0612
   87SOPE   C2111372   1.991   0.082   5.835  0.0917 -0.8015  0.9502
   87SOPE   H3711373   1.940   0.054   5.743  0.3484 -0.6365  0.7593
   87SOPE   H3811374   1.934   0.140   5.907  1.6381 -0.0020  1.5497
   87SOPE   C2211375   2.039   5.907   5.917 -0.1883 -0.1887  0.1358
   87SOPE   H3911376   2.092   5.833   5.856  2.3989  1.5304  0.2259
   87SOPE   H4011377   1.945   5.853   5.934  0.2374 -2.0075 -2.9315
   87SOPE   C2311378   2.101   5.925   6.053  0.2275  0.1496  0.1060
   87SOPE   H4111379   2.051   0.055   6.110  0.5783  2.7925 -3.0777
   87SOPE   H4211380   2.207   0.001   6.047 -0.2863  2.2857 -0.5555
   87SOPE   C2411381   2.101   5.797   6.146  0.2401 -0.3146 -0.7159
   87SOPE   H4311382   2.138   5.717   6.081 -1.8637 -0.9199 -1.2142
   87SOPE   H4411383   1.997   5.787   6.177  0.2171  0.9152 -0.3584
   87SOPE   C2511384   2.190   5.800   6.274  0.4678  0.6749  0.0617
   87SOPE   H4511385   2.296   5.807   6.251  0.6733 -1.9023  0.1201
   87SOPE   H4611386   2.190   5.697   6.308  0.0036  0.1787 -1.3690
   87SOPE   C2611387   2.145   5.897   6.376  0.7122  0.2174  0.0934
   87SOPE   H4711388   2.148   0.052   6.345  3.3257  0.7300  1.8749
   87SOPE   H4811389   2.044   5.869   6.404  0.0124 -0.4898 -2.9806
   87SOPE   C2711390   2.222   5.899   6.506 -0.9048  0.4123  0.0503
   87SOPE   H4911391   2.329   5.894   6.486 -1.1837 -1.2752 -1.2187
   87SOPE   H5011392   2.200   5.801   6.547  1.7421 -0.0333  0.5394
   87SOPE   C2711393   2.188   0.065   6.596  0.0760 -0.1710 -0.2879
   87SOPE   H5111394   2.206   0.159   6.544 -2.7861  0.0363 -0.9562
   87SOPE   H5211395   2.082   0.060   6.621  0.3071 -1.6667  0.4257
   87SOPE   H5311396   2.245   0.070   6.689 -1.0481 -2.6316  0.5633
   87SOPE   C2911397   1.318   0.724   4.711 -0.2992 -0.1289 -0.4695
   87SOPE   H5411398   1.230   0.676   4.667 -1.5428 -0.1045  1.9180
   87SOPE   H5511399   1.299   0.826   4.744 -0.8758 -1.3712  3.2148
   87SOPE   C3011400   1.347   0.645   4.840 -0.5281 -0.2888 -0.2461
   87SOPE   H5611401   1.373   0.545   4.803  0.5805  0.0101 -0.2670
   87SOPE   H5711402   1.265   0.636   4.911  2.3763 -1.0563  3.1537
   87SOPE   C3111403   1.468   0.700   4.918 -0.5450  0.1510 -0.3364
   87SOPE   H5811404   1.458   0.807   4.935 -0.3387  0.1177 -0.0005
   87SOPE   H5911405   1.562   0.687   4.863 -0.0707  0.5879  0.3678
   87SOPE   C3211406   1.485   0.652   5.057  0.6108 -1.0196  0.1334
   87SOPE   H6011407   1.571   0.691   5.112 -0.6676  0.0930  1.3838
   87SOPE   H6111408   1.505   0.545   5.044  0.1548 -1.0383 -0.4453
   87SOPE   C3311409   1.367   0.675   5.146  0.1662  0.8718  0.6419
   87SOPE   H6211410   1.279   0.619   5.117 -0.6925  0.2254  4.2600
   87SOPE   H6311411   1.352   0.781   5.122  0.0793  0.4549 -1.2828
   87SOPE   C3411412   1.399   0.666   5.296 -0.5886 -0.2162 -0.3588
   87SOPE   H6411413   1.488   0.725   5.315 -2.2733  2.0968  0.5801
   87SOPE   H6511414   1.413   0.559   5.311 -0.6817 -0.3490 -1.1539
   87SOPE   C3511415   1.286   0.716   5.390  0.0938  0.1942  0.1835
   87SOPE   H6611416   1.191   0.687   5.347 -0.1038  0.0157  0.7298
   87SOPE   H6711417   1.282   0.824   5.403 -1.3329  0.1885 -0.1183
   87SOPE   C3611418   1.301   0.657   5.534 -0.5180 -0.6141 -0.4181
   87SOPE   H6811419   1.304   0.548   5.540  1.7713 -0.6368 -1.5230
   87SOPE   H6911420   1.211   0.694   5.583 -1.5428 -1.5798 -1.5232
   87SOPE   C3711421   1.428   0.714   5.602  0.5738 -0.2128  0.2423
   87SOPE   H7011422   1.420   0.822   5.591 -0.4149 -0.2837  0.2109
   87SOPE   H7111423   1.512   0.666   5.551 -0.6956 -1.2472 -0.8972
   87SOPE   C3811424   1.425   0.684   5.754  0.5326  0.0102  0.3424
   87SOPE   H7211425   1.418   0.576   5.766 -0.9171  0.2330  1.5622
   87SOPE   H7311426   1.340   0.724   5.808 -0.9699 -1.3149 -1.0090
   87SOPE   C3911427   1.557   0.739   5.820 -0.1383 -0.3075 -0.2503
   87SOPE   H7411428   1.565   0.847   5.805  3.3344 -0.2197  1.7912
   87SOPE   H7511429   1.648   0.709   5.768 -0.2615 -1.3335  0.1229
   87SOPE   C4011430   1.572   0.694   5.967  0.3458  0.9760  0.4509
   87SOPE   H7611431   1.680   0.702   5.983  0.9094 -2.4552 -1.0935
   87SOPE   H7711432   1.559   0.586   5.971 -0.6801  1.0435 -0.8972
   87SOPE   C4111433   1.484   0.776   6.065 -0.1274 -0.7534 -0.4039
   87SOPE   H7811434   1.387   0.726   6.061 -0.4141 -0.1174 -1.6452
   87SOPE   H7911435   1.453   0.874   6.030 -4.7086 -2.0466 -0.4075
   87SOPE   C4211436   1.531   0.780   6.213  0.3857 -0.2016  0.2154
   87SOPE   H8011437   1.620   0.840   6.230 -0.1961  0.6627  0.2289
   87SOPE   H8111438   1.561   0.680   6.244 -0.1204 -1.1330 -2.1813
   87SOPE   C4311439   1.423   0.836   6.308  1.1877 -0.1815  0.2601
   87SOPE   H8211440   1.325   0.802   6.274  1.8042  0.2493 -2.0586
   87SOPE   H8311441   1.429   0.781   6.402 -1.0585  1.6716  1.5554
   87SOPE   C4411442   1.422   0.984   6.330 -0.3112 -0.3510 -0.8333
   87SOPE   H8411443   1.394   1.039   6.240 -0.1456  0.0530 -0.6391
   87SOPE   H8511444   1.356   1.016   6.410  1.6590 -0.2459  0.8029
   87SOPE   H8611445   1.520   1.023   6.359  0.2599 -1.8487 -0.7011
   88SOPE    N111446   1.144   3.782   4.166  0.0373  0.0986  0.3166
   88SOPE    C111447   1.230   3.851   4.077  0.6504 -0.0565  0.1996
   88SOPE    H111448   1.192   3.882   3.980  1.1483  1.1182  0.3676
   88SOPE    H211449   1.311   3.779   4.061  0.7783  0.2703 -0.6495
   88SOPE    H311450   1.128   3.692   4.122  1.3000  0.4501 -0.8653
   88SOPE    H411451   1.063   3.841   4.176  0.3579  0.7709 -1.0475
   88SOPE    H511452   1.200   3.780   4.250  0.7255  2.1107 -0.0880
   88SOPE    C511453   1.288   3.963   4.150 -0.3683  0.4655 -0.0711
   88SOPE   H1211454   1.204   4.027   4.175 -1.6199 -0.5208 -1.7258
   88SOPE   H1311455   1.321   3.935   4.250  3.3150 -0.1614 -1.3978
   88SOPE    P111456   1.362   4.168   4.002 -0.0540 -0.1480 -0.0709
   88SOPE    O111457   1.478   4.208   3.926  0.7361  0.2858  0.2358
   88SOPE    O211458   1.236   4.152   3.917 -0.5427 -0.1070  0.4169
   88SOPE    O311459   1.391   4.031   4.072  0.1260  0.8087  0.0430
   88SOPE    O411460   1.325   4.277   4.116 -0.4271  0.0755 -0.1089
   88SOPE    C611461   1.426   4.330   4.201  0.0536  0.1550  0.0409
   88SOPE   H1411462   1.410   4.438   4.199 -1.3580 -0.0592 -1.0046
   88SOPE   H1511463   1.528   4.310   4.169  0.2104  1.7130 -0.4642
   88SOPE    C711464   1.399   4.293   4.351 -0.3832 -0.8914  0.1746
   88SOPE   H1611465   1.475   4.352   4.401  0.1537 -0.7726 -0.7761
   88SOPE    O511466   1.418   4.152   4.369 -0.5590  0.0796 -0.8598
   88SOPE    C811467   1.481   4.103   4.485 -0.0191 -0.2679  0.3808
   88SOPE    O611468   1.543   4.169   4.570 -0.2066 -0.2839  0.3672
   88SOPE    C911469   1.469   3.947   4.499 -0.2387 -0.1301  0.3717
   88SOPE   H1711470   1.460   3.909   4.397 -2.5852  1.4553 -0.0544
   88SOPE   H1811471   1.376   3.920   4.548  1.2508  0.4000  3.6251
   88SOPE   C1011472   1.253   4.330   4.383  0.2882  0.2783 -0.2416
   88SOPE   H1911473   1.185   4.259   4.336 -0.2374  0.4534  0.2406
   88SOPE   H2011474   1.214   4.419   4.334 -2.1196 -0.5494  0.0806
   88SOPE    O711475   1.243   4.341   4.534 -0.4187 -0.3490 -0.3027
   88SOPE   C1111476   1.164   4.258   4.605  0.1448  0.5010  0.1514
   88SOPE    O811477   1.132   4.146   4.560  0.1357 -0.1916  0.6906
   88SOPE   C1211478   1.181   4.279   4.755 -0.5161 -0.1898 -0.7743
   88SOPE   H2111479   1.175   4.385   4.781  0.8595 -0.3561  0.2526
   88SOPE   H2211480   1.286   4.253   4.766 -0.8171 -0.7399  0.8497
   88SOPE   C1311481   1.078   4.212   4.845  0.1008  0.1814 -0.6365
   88SOPE   H2311482   1.103   4.217   4.951  0.2784 -3.0006 -0.4989
   88SOPE   H2411483   1.074   4.105   4.826  1.2433  0.2675 -1.3791
   88SOPE   C1411484   0.935   4.266   4.842 -0.3107  0.1105  0.0738
   88SOPE   H2511485   0.896   4.273   4.740 -0.1194  1.9333  0.1071
   88SOPE   H2611486   0.941   4.367   4.884 -0.4662  0.2335 -0.1938
   88SOPE   C1511487   0.834   4.190   4.922  0.1327  0.3944  0.3163
   88SOPE   H2711488   0.806   4.094   4.879  1.5427 -0.2777  0.8989
   88SOPE   H2811489   0.744   4.251   4.932  0.0962  0.5730 -0.9544
   88SOPE   C1611490   0.878   4.174   5.065  0.5633  0.3886 -0.6618
   88SOPE   H2911491   0.911   4.271   5.103 -1.0463  0.4757  0.5656
   88SOPE   H3011492   0.968   4.114   5.080 -0.8758 -1.1428  2.3831
   88SOPE   C1711493   0.767   4.119   5.152 -0.6172 -0.4806  0.4444
   88SOPE   H3111494   0.694   4.059   5.099 -1.0783 -0.1473  0.7024
   88SOPE   H3211495   0.709   4.204   5.189 -2.9612 -1.1562 -1.6007
   88SOPE   C1811496   0.825   4.052   5.274 -0.4701  0.8672  0.5952
   88SOPE   H3311497   0.881   3.961   5.252 -0.7165  0.6393  0.9151
   88SOPE   H3411498   0.743   4.022   5.339 -0.0688  2.1570  1.7201
   88SOPE   C1911499   0.920   4.135   5.363  0.3933  0.5034  0.1627
   88SOPE   H3511500   0.943   4.228   5.313  1.1034  1.1911  1.7366
   88SOPE   C2011501   0.977   4.097   5.479  0.4270  0.1927 -0.4537
   88SOPE   H3611502   1.049   4.162   5.527 -0.5733  1.3788 -0.5145
   88SOPE   C2111503   0.944   3.967   5.544  0.6008 -0.5059 -0.2877
   88SOPE   H3711504   1.034   3.932   5.594  0.0975 -0.7414  0.4582
   88SOPE   H3811505   0.912   3.887   5.477  2.1850 -1.2124 -0.2352
   88SOPE   C2211506   0.830   3.978   5.643  0.7441  0.4207 -1.2376
   88SOPE   H3911507   0.738   3.990   5.586 -1.1382 -0.8485  1.4255
   88SOPE   H4011508   0.840   4.070   5.701  0.1057 -0.1355 -0.2274
   88SOPE   C2311509   0.837   3.854   5.737 -0.3296  0.0458 -0.3851
   88SOPE   H4111510   0.936   3.839   5.779 -0.2069 -1.9220 -1.3307
   88SOPE   H4211511   0.823   3.768   5.673 -1.9832 -0.2094  0.3024
   88SOPE   C2411512   0.752   3.862   5.868  0.0095  0.1018 -0.0501
   88SOPE   H4311513   0.653   3.905   5.854 -0.7156 -0.9527  1.6245
   88SOPE   H4411514   0.804   3.929   5.936 -0.2989 -0.2336  0.5270
   88SOPE   C2511515   0.723   3.729   5.941 -0.0969 -0.2128  0.8195
   88SOPE   H4511516   0.668   3.762   6.030 -0.6127  0.6928  0.1766
   88SOPE   H4611517   0.813   3.679   5.976  0.9503  0.5913 -0.6551
   88SOPE   C2611518   0.635   3.635   5.853  0.1989 -0.0469 -0.4799
   88SOPE   H4711519   0.540   3.682   5.832 -0.1186 -0.2988  0.3537
   88SOPE   H4811520   0.681   3.629   5.755  1.0008 -0.5302 -0.0871
   88SOPE   C2711521   0.607   3.504   5.918  0.3699  0.0253 -0.4089
   88SOPE   H4911522   0.538   3.440   5.863 -0.4640 -0.4992  1.2239
   88SOPE   H5011523   0.549   3.526   6.008  1.3820 -0.7875  0.4658
   88SOPE   C2711524   0.726   3.415   5.969 -0.8105 -0.1484  0.2210
   88SOPE   H5111525   0.785   3.452   6.053 -2.4973 -0.2564  1.4794
   88SOPE   H5211526   0.683   3.323   6.008  1.2799 -1.1428  0.2697
   88SOPE   H5311527   0.794   3.384   5.890  1.1058  0.9141  1.3866
   88SOPE   C2911528   1.589   3.885   4.564 -0.1400  0.4699  0.4277
   88SOPE   H5411529   1.599   3.919   4.667  1.4445  0.3984  0.3161
   88SOPE   H5511530   1.674   3.920   4.505 -0.8062  2.8261  0.8090
   88SOPE   C3011531   1.583   3.732   4.551 -0.5824  0.1477 -0.4458
   88SOPE   H5611532   1.591   3.704   4.446  3.2277  0.1051 -0.1914
   88SOPE   H5711533   1.482   3.699   4.579 -0.2494 -0.1633  0.4142
   88SOPE   C3111534   1.701   3.669   4.625 -0.0629 -0.4035 -0.1556
   88SOPE   H5811535   1.793   3.709   4.581 -0.8621  0.7840 -0.7950
   88SOPE   H5911536   1.694   3.561   4.614  1.5254 -0.4499 -0.8398
   88SOPE   C3211537   1.692   3.687   4.781  0.1455  1.4488  0.6757
   88SOPE   H6011538   1.597   3.728   4.814 -1.1504  0.5242 -1.7360
   88SOPE   H6111539   1.769   3.757   4.814  0.3938  0.7618  1.5849
   88SOPE   C3311540   1.740   3.553   4.847 -0.0497 -0.9643  0.0103
   88SOPE   H6211541   1.844   3.532   4.822 -0.3972 -3.1405  0.3227
   88SOPE   H6311542   1.679   3.474   4.803 -1.4239 -0.8632  1.6880
   88SOPE   C3411543   1.721   3.551   5.002 -0.0611 -0.6343  0.2001
   88SOPE   H6411544   1.721   3.447   5.034  2.8313 -0.2831  1.5022
   88SOPE   H6511545   1.625   3.598   5.022 -0.1431 -0.8974  0.4285
   88SOPE   C3511546   1.827   3.636   5.071 -0.1696  0.1982  0.2661
   88SOPE   H6611547   1.824   3.741   5.040 -0.8891 -0.6718 -2.7812
   88SOPE   H6711548   1.917   3.601   5.023 -0.5492 -0.7407  0.2257
   88SOPE   C3611549   1.822   3.630   5.224 -0.9812  0.1429 -0.1540
   88SOPE   H6811550   1.804   3.523   5.233  2.6678 -0.5589 -0.4379
   88SOPE   H6911551   1.740   3.687   5.268 -2.6706 -2.4689  0.1929
   88SOPE   C3711552   1.954   3.668   5.299  0.0803  0.1873 -0.0780
   88SOPE   H7011553   1.969   3.774   5.275  1.8127  0.1282  0.6437
   88SOPE   H7111554   2.042   3.615   5.264 -1.0727 -1.6499 -0.2516
   88SOPE   C3811555   1.939   3.654   5.444  0.1482  0.1168 -0.8577
   88SOPE   H7211556   1.925   3.550   5.477 -2.9122  0.6119 -0.4086
   88SOPE   H7311557   1.836   3.683   5.467  0.5737 -0.4331  1.9416
   88SOPE   C3911558   2.054   3.721   5.524 -0.1495 -0.0776  0.4178
   88SOPE   H7411559   2.113   3.801   5.479  0.4041  0.3643  1.9283
   88SOPE   H7511560   2.126   3.640   5.525 -1.2086 -1.0324  0.6299
   88SOPE   C4011561   2.003   3.741   5.663 -0.4118 -0.4105 -0.2273
   88SOPE   H7611562   1.994   3.645   5.713 -2.6732 -0.9636 -1.6148
   88SOPE   H7711563   1.901   3.780   5.662 -0.0427  0.5954  0.1550
   88SOPE   C4111564   2.098   3.834   5.743  0.7123  0.3686  1.0753
   88SOPE   H7811565   2.121   3.928   5.692 -1.4538  0.1884 -0.2943
   88SOPE   H7911566   2.191   3.777   5.740  0.1222 -0.5674  0.4124
   88SOPE   C4211567   2.071   3.850   5.891 -0.9216  0.6582  0.1209
   88SOPE   H8011568   2.155   3.805   5.943  0.3980  2.8765 -0.0132
   88SOPE   H8111569   1.973   3.807   5.912  0.2845 -1.8029  0.8529
   88SOPE   C4311570   2.074   3.992   5.942  0.1974 -0.3105 -0.6215
   88SOPE   H8211571   2.053   3.990   6.049  1.9669 -2.1752 -0.2716
   88SOPE   H8311572   2.174   4.035   5.932  0.3299 -0.3035  0.5743
   88SOPE   C4411573   1.969   4.083   5.866  1.3162  0.3632 -0.6713
   88SOPE   H8411574   1.990   4.101   5.761 -0.4224  0.7826 -0.9644
   88SOPE   H8511575   1.872   4.034   5.870  0.7202  1.5427 -0.4665
   88SOPE   H8611576   1.961   4.182   5.911  1.3269  0.0411  0.0465
   89SOPE    N111577   0.821   3.178   4.109 -0.0999 -0.7036  0.3390
   89SOPE    C111578   0.937   3.267   4.136  0.2505  0.3835 -0.6605
   89SOPE    H111579   0.932   3.308   4.236 -0.7062 -2.2133  0.4016
   89SOPE    H211580   0.927   3.360   4.080  1.4357  1.4921  0.9048
   89SOPE    H311581   0.753   3.219   4.172 -1.5044 -2.4541 -0.0250
   89SOPE    H411582   0.848   3.087   4.143 -1.4962 -0.8044  1.2007
   89SOPE    H511583   0.798   3.186   4.012  1.1564  0.3251  0.1050
   89SOPE    C511584   1.076   3.208   4.096  0.0128  0.0427 -0.2165
   89SOPE   H1211585   1.059   3.170   3.996  0.1509  0.4743 -0.4033
   89SOPE   H1311586   1.103   3.130   4.167 -1.0074  0.8711  1.1055
   89SOPE    P111587   1.302   3.291   4.198 -0.1619  0.2969  0.1395
   89SOPE    O111588   1.369   3.160   4.175  0.4765  0.3055 -0.3836
   89SOPE    O211589   1.386   3.415   4.187 -0.1617  0.0786  0.4269
   89SOPE    O311590   1.175   3.306   4.102 -0.4012  0.6961 -0.4145
   89SOPE    O411591   1.257   3.272   4.346  0.5571  0.4632 -0.0883
   89SOPE    C611592   1.175   3.367   4.416 -0.4582 -0.1315  0.4624
   89SOPE   H1411593   1.092   3.320   4.468 -0.1770 -0.6706  0.4230
   89SOPE   H1511594   1.142   3.440   4.341  2.1242  0.7550  0.1175
   89SOPE    C711595   1.259   3.434   4.522 -0.3371  0.2036 -0.0718
   89SOPE   H1611596   1.347   3.480   4.475  0.3236 -0.3067  0.6487
   89SOPE    O511597   1.294   3.343   4.624 -0.7455 -0.1262 -0.2689
   89SOPE    C811598   1.415   3.315   4.661 -0.1332  0.5396 -0.1405
   89SOPE    O611599   1.515   3.364   4.602  0.5764 -0.3731  0.3652
   89SOPE    C911600   1.428   3.218   4.769  0.1645 -0.3628 -0.2236
   89SOPE   H1711601   1.486   3.131   4.736 -0.5843 -1.7772  2.0084
   89SOPE   H1811602   1.334   3.167   4.792  0.1650 -0.7539 -1.0704
   89SOPE   C1011603   1.201   3.560   4.587 -0.7431  0.1041 -0.1671
   89SOPE   H1911604   1.166   3.618   4.501 -2.2874 -2.8958 -1.6292
   89SOPE   H2011605   1.282   3.611   4.639  0.6906 -0.2752 -1.9812
   89SOPE    O711606   1.093   3.524   4.671  0.2091  0.1878 -0.1112
   89SOPE   C1111607   0.981   3.602   4.670 -0.3851 -0.0862 -0.5824
   89SOPE    O811608   0.983   3.725   4.627 -0.7243  1.1327  0.2454
   89SOPE   C1211609   0.871   3.565   4.765  0.3095 -0.0326  0.4571
   89SOPE   H2111610   0.925   3.542   4.857  1.6815  1.3362  0.0025
   89SOPE   H2211611   0.832   3.467   4.736  0.2426  0.3162 -0.6631
   89SOPE   C1311612   0.769   3.682   4.802 -0.2558 -0.1051 -0.3051
   89SOPE   H2311613   0.707   3.700   4.714  0.2202 -1.0712 -0.8512
   89SOPE   H2411614   0.813   3.776   4.835 -2.3019  0.0015  2.1939
   89SOPE   C1411615   0.673   3.654   4.925  0.3753  0.7286 -0.0186
   89SOPE   H2511616   0.622   3.562   4.893  0.3037  0.7304  0.0890
   89SOPE   H2611617   0.602   3.735   4.942  2.0127  2.3923 -0.9500
   89SOPE   C1511618   0.752   3.628   5.055 -0.5666  0.1116  0.4020
   89SOPE   H2711619   0.821   3.712   5.068  0.6758 -1.1252  2.0000
   89SOPE   H2811620   0.817   3.543   5.033 -2.0080 -1.2617  1.3952
   89SOPE   C1611621   0.679   3.604   5.180  0.2336  0.1068  0.3210
   89SOPE   H2911622   0.752   3.567   5.253  1.2045 -1.1010 -1.2276
   89SOPE   H3011623   0.612   3.522   5.158 -0.5608  0.8056  0.1051
   89SOPE   C1711624   0.587   3.714   5.220  0.3054 -0.1992 -0.0828
   89SOPE   H3111625   0.492   3.711   5.166 -0.9004 -2.3294  2.0680
   89SOPE   H3211626   0.638   3.806   5.192 -1.3435  0.7547  0.0447
   89SOPE   C1811627   0.565   3.718   5.379  0.3735  0.2125  0.3984
   89SOPE   H3311628   0.668   3.727   5.415  2.0173 -2.6968 -3.2709
   89SOPE   H3411629   0.524   3.623   5.412  0.1741 -0.6284 -2.2284
   89SOPE   C1911630   0.462   3.825   5.415  0.1891  0.2190  0.5531
   89SOPE   H3511631   0.486   3.922   5.375  1.8622 -0.4426 -0.1018
   89SOPE   C2011632   0.355   3.816   5.501 -0.2140  0.1639  0.4813
   89SOPE   H3611633   0.300   3.907   5.521 -1.1622  0.0216 -1.3607
   89SOPE   C2111634   0.307   3.695   5.574 -0.1536 -0.4919 -0.1525
   89SOPE   H3711635   0.353   3.700   5.673  0.8417 -1.6837 -0.5518
   89SOPE   H3811636   0.333   3.604   5.520 -0.6673 -0.1834 -0.9330
   89SOPE   C2211637   0.158   3.690   5.586  0.2423 -0.6226  0.5677
   89SOPE   H3911638   0.107   3.687   5.489  1.4187 -0.5087 -0.0633
   89SOPE   H4011639   0.111   3.777   5.632 -1.1068 -1.1842  0.2801
   89SOPE   C2311640   0.102   3.573   5.668 -0.3006  0.6171 -0.2274
   89SOPE   H4111641   0.154   3.600   5.760 -0.1809  4.7565 -1.4175
   89SOPE   H4211642   0.156   3.488   5.626  0.7927  0.2293  1.8449
   89SOPE   C2411643   5.895   3.553   5.684 -0.1500  0.1752  0.2293
   89SOPE   H4311644   5.877   3.469   5.752 -1.5988 -1.0067 -1.5726
   89SOPE   H4411645   5.852   3.528   5.587  0.6594  3.8303 -1.1599
   89SOPE   C2511646   5.817   3.683   5.716  0.0957  0.5367  0.3354
   89SOPE   H4511647   5.854   3.767   5.658 -0.5218  0.6119  0.0424
   89SOPE   H4611648   5.845   3.703   5.820  0.5883  1.1701  0.0834
   89SOPE   C2611649   5.669   3.677   5.688  0.2649  0.0741  0.4100
   89SOPE   H4711650   5.667   3.679   5.579  3.2861  0.0111  0.3153
   89SOPE   H4811651   5.627   3.584   5.728  2.1522 -0.9499  0.0886
   89SOPE   C2711652   5.603   3.800   5.740  0.1183  0.1087 -0.1672
   89SOPE   H4911653   5.514   3.813   5.679 -1.3990 -0.7032  1.8189
   89SOPE   H5011654   5.673   3.881   5.717 -0.0469  0.5249  0.7690
   89SOPE   C2711655   5.570   3.809   5.887 -0.0311  0.1411 -0.4985
   89SOPE   H5111656   5.660   3.783   5.943  1.8877  2.5077 -2.3296
   89SOPE   H5211657   5.546   3.909   5.922 -1.6828 -0.8320  1.2358
   89SOPE   H5311658   5.493   3.736   5.911  0.1934  0.6824  2.0219
   89SOPE   C2911659   1.495   3.272   4.895  0.8733 -0.4720  0.4242
   89SOPE   H5411660   1.479   3.376   4.922  3.3607 -0.6450  2.8339
   89SOPE   H5511661   1.604   3.271   4.890  0.9285  2.3577  0.3221
   89SOPE   C3011662   1.452   3.184   5.017 -0.0053 -0.9116  0.1190
   89SOPE   H5611663   1.464   3.076   5.007  0.4557 -0.9259  0.7125
   89SOPE   H5711664   1.348   3.200   5.045  0.1375  0.7680 -0.3022
   89SOPE   C3111665   1.537   3.217   5.139  0.2428 -0.2546  0.4337
   89SOPE   H5811666   1.536   3.325   5.153  0.0054 -0.0384 -1.1620
   89SOPE   H5911667   1.642   3.188   5.125  0.8249  0.7413  2.5862
   89SOPE   C3211668   1.482   3.141   5.267 -0.2159 -0.4221 -0.2743
   89SOPE   H6011669   1.468   3.038   5.235  1.7810 -0.4672 -1.0798
   89SOPE   H6111670   1.387   3.194   5.274 -0.4089 -0.9698  1.5281
   89SOPE   C3311671   1.567   3.153   5.396  0.0496 -0.0952  0.2748
   89SOPE   H6211672   1.584   3.258   5.419 -1.7734  0.4872 -0.9098
   89SOPE   H6311673   1.661   3.099   5.383  0.5873  0.9143 -0.0577
   89SOPE   C3411674   1.514   3.089   5.516  0.6142  0.2743 -1.3028
   89SOPE   H6411675   1.590   3.054   5.585 -1.1798 -0.0486  0.5405
   89SOPE   H6511676   1.472   2.993   5.487  3.3444 -0.8185 -1.7707
   89SOPE   C3511677   1.416   3.160   5.609  0.3145  0.0663 -0.4572
   89SOPE   H6611678   1.386   3.101   5.696  0.2495  0.5172 -0.1726
   89SOPE   H6711679   1.323   3.186   5.558 -1.5630 -1.4939  2.0824
   89SOPE   C3611680   1.475   3.288   5.671  0.4456 -0.6936 -0.3059
   89SOPE   H6811681   1.400   3.327   5.739 -0.2030 -2.9251  0.3017
   89SOPE   H6911682   1.489   3.358   5.588 -1.0162  1.1749  1.0132
   89SOPE   C3711683   1.608   3.257   5.743  0.2119  0.2126 -0.7505
   89SOPE   H7011684   1.685   3.228   5.671  0.9308  0.3294 -0.0390
   89SOPE   H7111685   1.603   3.168   5.806  2.2649  0.2143 -0.5347
   89SOPE   C3811686   1.665   3.374   5.824  0.5002  0.2871 -0.0599
   89SOPE   H7211687   1.593   3.392   5.903 -0.3049 -1.2309 -0.4397
   89SOPE   H7311688   1.663   3.466   5.766 -0.4759  1.4292  1.7377
   89SOPE   C3911689   1.804   3.363   5.886 -0.1477  0.5688  0.2898
   89SOPE   H7411690   1.868   3.364   5.798  0.1227 -2.0490  0.3987
   89SOPE   H7511691   1.814   3.267   5.937 -2.2203  0.5122  0.6110
   89SOPE   C4011692   1.835   3.474   5.986  0.7138 -0.1696 -0.2434
   89SOPE   H7611693   1.758   3.465   6.063  0.3799 -2.3660 -0.7733
   89SOPE   H7711694   1.832   3.576   5.948  0.6499  0.0655  0.3831
   89SOPE   C4111695   1.969   3.444   6.055 -0.4952 -0.0793  0.4900
   89SOPE   H7811696   1.956   3.342   6.092  1.0906 -0.1811  0.7736
   89SOPE   H7911697   1.980   3.500   6.148  1.2160 -0.7100  0.6856
   89SOPE   C4211698   2.100   3.466   5.970 -0.2488  0.2737 -0.2324
   89SOPE   H8011699   2.110   3.574   5.966 -0.4256  0.2783 -0.6752
   89SOPE   H8111700   2.086   3.441   5.864  2.9722  1.5323 -0.9911
   89SOPE   C4311701   2.230   3.415   6.027  0.3282  0.3787  0.1581
   89SOPE   H8211702   2.242   3.457   6.127  0.0500  0.5269  0.1302
   89SOPE   H8311703   2.236   3.306   6.032 -1.1286  0.3014  0.5674
   89SOPE   C4411704   2.350   3.460   5.942  0.2377  0.0420  0.5062
   89SOPE   H8411705   2.329   3.427   5.840  0.6271  1.5952 -0.0861
   89SOPE   H8511706   2.366   3.567   5.950 -3.4317  0.6210  0.5950
   89SOPE   H8611707   2.435   3.408   5.987 -0.9594 -0.7934  1.8662
   90SOPE    N111708   2.688   4.554   3.949  0.1958 -0.4883 -0.0254
   90SOPE    C111709   2.603   4.665   3.901  0.4109  0.7220  0.5781
   90SOPE    H111710   2.508   4.620   3.870  0.4609  0.7452  0.3843
   90SOPE    H211711   2.641   4.686   3.801 -0.9966  0.1352 -0.0970
   90SOPE    H311712   2.738   4.520   3.868 -0.3791  0.8810 -0.9654
   90SOPE    H411713   2.624   4.481   3.978 -0.1246  0.2971  1.2937
   90SOPE    H511714   2.732   4.588   4.033 -0.7933 -2.0148  1.1562
   90SOPE    C511715   2.606   4.784   3.995  0.7058  0.0276 -0.1561
   90SOPE   H1211716   2.711   4.805   4.015  0.8708 -0.0989 -0.8760
   90SOPE   H1311717   2.547   4.770   4.085 -1.1149 -2.7540 -1.7057
   90SOPE    P111718   2.420   4.946   3.909  0.0503 -0.1337  0.3027
   90SOPE    O111719   2.402   5.068   3.826 -0.6898  0.5012  0.6528
   90SOPE    O211720   2.339   4.821   3.891 -0.2594 -0.4514  0.7675
   90SOPE    O311721   2.574   4.900   3.923  0.1938  0.0935 -0.8648
   90SOPE    O411722   2.411   4.984   4.059  0.5886  0.0772  0.3583
   90SOPE    C611723   2.442   5.115   4.105  0.1974 -1.2031 -0.2638
   90SOPE   H1411724   2.534   5.146   4.055 -0.8959  0.1540 -1.5045
   90SOPE   H1511725   2.475   5.098   4.207  2.2165  0.4037 -0.6056
   90SOPE    C711726   2.320   5.216   4.099  0.5000 -0.0718  0.3448
   90SOPE   H1611727   2.313   5.243   3.994  0.8307  2.7588  0.9942
   90SOPE    O511728   2.373   5.332   4.170  0.3551  0.2907  0.2401
   90SOPE    C811729   2.318   5.450   4.158 -0.0142  0.2208  0.6377
   90SOPE    O611730   2.231   5.477   4.078 -0.5014 -0.0758 -0.3032
   90SOPE    C911731   2.382   5.546   4.257  0.7753  0.3782  0.1809
   90SOPE   H1711732   2.396   5.640   4.204  1.5724  0.3610  0.3556
   90SOPE   H1811733   2.487   5.520   4.269  1.2078  2.0217  0.0088
   90SOPE   C1011734   2.191   5.161   4.162 -0.2611 -0.2741  0.6810
   90SOPE   H1911735   2.139   5.103   4.086  0.0100 -1.2496  1.2407
   90SOPE   H2011736   2.127   5.240   4.202  2.9405  2.4841  0.5626
   90SOPE    O711737   2.217   5.084   4.280  0.5506 -0.1697  0.4887
   90SOPE   C1111738   2.112   5.013   4.333 -0.3619 -0.2737  0.3773
   90SOPE    O811739   2.000   5.026   4.287  0.0756 -0.2500 -0.8160
   90SOPE   C1211740   2.141   4.975   4.477  0.6864 -0.0573  0.6212
   90SOPE   H2111741   2.226   4.907   4.480  1.9692  1.3349 -1.9554
   90SOPE   H2211742   2.058   4.911   4.506  0.6227  0.8018  2.3928
   90SOPE   C1311743   2.142   5.103   4.565  0.1733 -0.7758  0.1443
   90SOPE   H2311744   2.152   5.191   4.501  0.8868  0.3363  1.7495
   90SOPE   H2411745   2.227   5.109   4.633  0.0802 -0.2511  0.2174
   90SOPE   C1411746   2.008   5.130   4.640 -0.4127 -0.1682 -0.4852
   90SOPE   H2511747   1.924   5.124   4.572 -0.1032  1.7868 -1.0738
   90SOPE   H2611748   2.010   5.223   4.696 -1.5795 -0.1699 -0.4307
   90SOPE   C1511749   1.995   5.024   4.749 -0.0976 -0.1399  0.0494
   90SOPE   H2711750   2.068   5.034   4.830  0.1556  1.9723 -0.4244
   90SOPE   H2811751   2.012   4.920   4.719 -0.3100 -0.1888  0.0960
   90SOPE   C1611752   1.862   5.036   4.817 -0.4588  0.0410  0.3418
   90SOPE   H2911753   1.789   5.029   4.736 -2.0483  1.3764  1.6076
   90SOPE   H3011754   1.857   5.126   4.879 -0.3885  0.6949 -0.5880
   90SOPE   C1711755   1.839   4.920   4.905 -0.0905 -0.1633  0.3297
   90SOPE   H3111756   1.917   4.911   4.980  1.1628  0.6502 -0.8577
   90SOPE   H3211757   1.847   4.831   4.842 -0.2162 -1.8253  2.5884
   90SOPE   C1811758   1.705   4.926   4.981  0.2082 -0.3380 -0.5337
   90SOPE   H3311759   1.710   4.999   5.062  0.6722 -0.4727 -0.4369
   90SOPE   H3411760   1.674   4.830   5.022 -2.5920  1.3213  1.4635
   90SOPE   C1911761   1.593   4.953   4.891 -0.2362  0.1906 -0.8786
   90SOPE   H3511762   1.602   4.927   4.787  1.5037  2.9441 -1.4841
   90SOPE   C2011763   1.471   5.005   4.936 -0.6593  0.2008 -1.0431
   90SOPE   H3611764   1.397   5.020   4.859 -0.8198  1.5283 -0.6580
   90SOPE   C2111765   1.437   5.059   5.074  0.0081 -0.1181  0.0669
   90SOPE   H3711766   1.381   5.150   5.054 -1.2601 -1.9650 -5.7130
   90SOPE   H3811767   1.525   5.099   5.124  0.1413 -0.5402  0.1821
   90SOPE   C2211768   1.370   4.953   5.162 -0.7899  0.1877 -0.2346
   90SOPE   H3911769   1.446   4.876   5.176 -1.4416 -0.3054  0.6557
   90SOPE   H4011770   1.286   4.898   5.119  0.2235 -0.8322 -0.9650
   90SOPE   C2311771   1.330   5.004   5.300 -0.1877 -0.1509  0.6143
   90SOPE   H4111772   1.421   5.040   5.348  0.4273 -1.8267  0.7398
   90SOPE   H4211773   1.297   4.925   5.368 -0.1879 -1.1136 -0.4864
   90SOPE   C2411774   1.228   5.120   5.305  0.2292 -0.2385 -0.7144
   90SOPE   H4311775   1.132   5.081   5.270  0.2566 -1.2642  0.3193
   90SOPE   H4411776   1.254   5.193   5.228 -0.8605  0.4359 -0.4518
   90SOPE   C2511777   1.197   5.168   5.456  0.0290  0.8786 -0.3074
   90SOPE   H4511778   1.281   5.210   5.511  0.1024  0.9471 -0.4703
   90SOPE   H4611779   1.169   5.083   5.518 -0.7301  0.8077 -0.7355
   90SOPE   C2611780   1.096   5.278   5.459 -0.3023  0.3902 -0.0201
   90SOPE   H4711781   1.109   5.351   5.379 -1.9362 -1.4402 -2.0220
   90SOPE   H4811782   0.998   5.241   5.428  0.3647 -0.1480 -1.5277
   90SOPE   C2711783   1.082   5.346   5.594  0.2387 -0.2352 -0.2939
   90SOPE   H4911784   1.176   5.394   5.622 -0.5927 -0.5170  3.1988
   90SOPE   H5011785   1.054   5.272   5.669  0.3070  0.7780  0.7531
   90SOPE   C2711786   0.972   5.454   5.603  0.5916  0.3852  0.7503
   90SOPE   H5111787   0.959   5.479   5.708 -0.0661 -0.0574  0.7785
   90SOPE   H5211788   0.994   5.545   5.547  1.6683  1.0524  2.2028
   90SOPE   H5311789   0.881   5.415   5.559 -0.1029  2.5852  0.1563
   90SOPE   C2911790   2.316   5.569   4.396 -0.3079 -0.3276  0.0146
   90SOPE   H5411791   2.211   5.591   4.377  0.8734  3.5588 -2.6034
   90SOPE   H5511792   2.364   5.659   4.436 -2.1311  1.2240 -1.2464
   90SOPE   C3011793   2.334   5.446   4.486 -0.1350  0.1571 -0.0512
   90SOPE   H5611794   2.439   5.436   4.514 -0.4857 -2.5577  0.4995
   90SOPE   H5711795   2.313   5.353   4.433  0.1333 -0.6182  1.1662
   90SOPE   C3111796   2.245   5.445   4.610 -0.2745  0.0365 -0.1926
   90SOPE   H5811797   2.248   5.346   4.655  4.6761  1.3981  2.9159
   90SOPE   H5911798   2.143   5.457   4.574  0.1286 -1.0053 -1.7326
   90SOPE   C3211799   2.288   5.554   4.712  0.1938  0.4593  0.5788
   90SOPE   H6011800   2.272   5.656   4.676 -1.2539  1.6606  4.2967
   90SOPE   H6111801   2.396   5.549   4.720  0.6077 -1.6557 -4.5417
   90SOPE   C3311802   2.224   5.525   4.845  0.9929 -0.1379 -0.2314
   90SOPE   H6211803   2.278   5.446   4.899 -0.5496 -0.9389  0.1808
   90SOPE   H6311804   2.120   5.492   4.841  0.2387  2.0036  1.1240
   90SOPE   C3411805   2.217   5.649   4.936 -0.1027 -0.4581  0.4456
   90SOPE   H6411806   2.158   5.626   5.025 -0.7532  2.6438  0.8694
   90SOPE   H6511807   2.157   5.723   4.883  0.5035  0.2212  0.7046
   90SOPE   C3511808   2.357   5.702   4.972 -0.1573  0.1048  0.3464
   90SOPE   H6611809   2.399   5.752   4.885  1.8357  1.6690  2.1291
   90SOPE   H6711810   2.419   5.615   4.994 -0.1355  0.9245  3.7283
   90SOPE   C3611811   2.361   5.798   5.088 -0.0192 -0.3248 -0.0700
   90SOPE   H6811812   2.308   5.892   5.071  1.6466  0.7842  0.8158
   90SOPE   H6911813   2.462   5.830   5.112 -1.2085  1.6650  2.4885
   90SOPE   C3711814   2.316   5.722   5.214  0.3735 -0.0676 -0.1108
   90SOPE   H7011815   2.380   5.634   5.227 -0.7618 -0.6785  1.5802
   90SOPE   H7111816   2.221   5.670   5.205  0.9276 -0.7788 -1.9778
   90SOPE   C3811817   2.319   5.804   5.342 -0.9475 -0.6989  0.2653
   90SOPE   H7211818   2.220   5.834   5.374 -1.0616 -1.5486  0.7258
   90SOPE   H7311819   2.357   5.904   5.320  1.5312 -1.6787 -0.1445
   90SOPE   C3911820   2.385   5.730   5.451  0.2062  0.2207 -0.2224
   90SOPE   H7411821   2.489   5.708   5.426  0.0466  0.0789 -0.7538
   90SOPE   H7511822   2.326   5.639   5.467  2.2586 -1.2076 -0.5327
   90SOPE   C4011823   2.402   5.810   5.584 -0.0026 -1.0635 -0.2842
   90SOPE   H7611824   2.323   5.792   5.658  0.1652  1.0384  0.4276
   90SOPE   H7711825   2.376   5.912   5.557  2.9858 -0.6037 -1.5918
   90SOPE   C4111826   2.540   5.824   5.652 -0.2996 -0.3700 -1.0911
   90SOPE   H7811827   2.621   5.844   5.581  0.9306  1.9424  0.8790
   90SOPE   H7911828   2.572   5.725   5.684  1.7796  0.9238  1.0196
   90SOPE   C4211829   2.541   5.914   5.773  0.4051 -0.8151 -0.0286
   90SOPE   H8011830   2.470   5.875   5.847 -0.2880 -0.6926 -0.6180
   90SOPE   H8111831   2.509   0.065   5.742  0.7053 -0.9522 -0.7946
   90SOPE   C4311832   2.666   5.920   5.854  0.0891  0.1027 -0.0746
   90SOPE   H8211833   2.707   5.820   5.870  2.2431  1.2369  1.8160
   90SOPE   H8311834   2.748   0.011   5.794 -0.4701  1.6129  0.1616
   90SOPE   C4411835   2.649   0.038   5.987 -0.1735  0.1070 -0.3312
   90SOPE   H8411836   2.651   0.146   5.974  1.8766  0.4289  2.0671
   90SOPE   H8511837   2.557   0.022   6.043 -0.0527 -1.5438 -0.5761
   90SOPE   H8611838   2.732   0.024   6.057 -0.4313  0.2265  0.0042
   91SOPE    N111839   5.871   2.493   3.987 -0.1329 -0.0354 -0.6509
   91SOPE    C111840   5.917   2.354   4.011 -0.0536  0.0118 -0.4574
   91SOPE    H111841   0.036   2.325   3.931 -0.5333 -3.3746  0.2982
   91SOPE    H211842   5.829   2.290   4.011 -0.1414 -0.0163  4.0177
   91SOPE    H311843   5.789   2.480   3.930  0.5238 -0.7058 -1.4518
   91SOPE    H411844   5.948   2.538   3.940 -1.1928  0.5728 -1.8564
   91SOPE    H511845   5.852   2.545   4.072 -0.5293  0.5462 -1.0818
   91SOPE    C511846   0.051   2.344   4.142  0.5992  0.0051  0.6762
   91SOPE   H1211847   5.931   2.370   4.222 -1.2206  0.0560 -0.8544
   91SOPE   H1311848   0.118   2.429   4.142  1.4543 -0.6682  1.0214
   91SOPE    P111849   0.011   2.085   4.166 -0.0003  0.4241 -0.3493
   91SOPE    O111850   5.918   2.074   4.024 -0.0470  0.1956  0.5954
   91SOPE    O211851   0.089   1.983   4.232 -0.8728  0.1233 -0.2818
   91SOPE    O311852   0.100   2.214   4.171 -0.5160 -0.6320 -0.5792
   91SOPE    O411853   5.829   2.095   4.251  0.3538  0.2460 -0.5421
   91SOPE    C611854   5.833   2.153   4.383  0.0363  0.5795  0.4549
   91SOPE   H1411855   5.814   2.259   4.366 -4.0431  0.1742  1.9694
   91SOPE   H1511856   5.939   2.143   4.409  0.4553 -1.3900 -1.8470
   91SOPE    C711857   5.737   2.087   4.482  0.2844  0.4033  0.7568
   91SOPE   H1611858   5.754   1.980   4.490  0.4929  0.4654  1.1872
   91SOPE    O511859   5.599   2.114   4.452 -0.0871 -0.0121 -0.5682
   91SOPE    C811860   5.533   2.021   4.380 -0.1646  0.0634  0.6771
   91SOPE    O611861   5.563   1.903   4.372 -0.4001  0.4105 -0.4047
   91SOPE    C911862   5.399   2.073   4.330  0.1364  0.1394 -0.7399
   91SOPE   H1711863   5.430   2.096   4.228  0.6478 -0.9700 -0.8341
   91SOPE   H1811864   5.375   2.165   4.384  1.3784 -1.0571  1.9626
   91SOPE   C1011865   5.759   2.136   4.625  0.8686  0.5219  0.2034
   91SOPE   H1911866   5.850   2.093   4.668 -0.1909 -0.9411  1.0202
   91SOPE   H2011867   5.676   2.112   4.691 -0.9933 -0.0067 -2.2489
   91SOPE    O711868   5.756   2.284   4.618  0.2042 -0.5037 -0.1477
   91SOPE   C1111869   5.863   2.362   4.652  0.5849  0.3847 -0.4505
   91SOPE    O811870   0.030   2.321   4.673 -0.0756 -0.1011  0.9331
   91SOPE   C1211871   5.822   2.510   4.678 -0.4221 -0.0708  0.6217
   91SOPE   H2111872   5.756   2.511   4.764 -0.6233 -0.1836  0.4713
   91SOPE   H2211873   5.780   2.540   4.582  0.5939  0.4479  0.3237
   91SOPE   C1311874   5.941   2.596   4.714 -0.0129 -0.0992 -0.9239
   91SOPE   H2311875   0.070   2.577   4.640 -1.6675  1.8205 -3.2566
   91SOPE   H2411876   0.030   2.570   4.813 -1.8812 -1.0049 -0.4203
   91SOPE   C1411877   5.911   2.746   4.725  0.6046 -0.4864 -0.6003
   91SOPE   H2511878   5.900   2.784   4.623 -3.0832 -0.5054 -0.2792
   91SOPE   H2611879   0.055   2.792   4.757  0.0812 -1.0300  1.7754
   91SOPE   C1511880   5.781   2.783   4.800  0.5777 -0.3041 -0.3361
   91SOPE   H2711881   5.695   2.735   4.754 -2.4636  2.2118  2.5059
   91SOPE   H2811882   5.760   2.890   4.803  0.8633 -0.1568 -2.7743
   91SOPE   C1611883   5.775   2.740   4.950  0.3300  0.1666 -0.1314
   91SOPE   H2911884   5.872   2.766   4.994  0.2959 -1.7705  1.1670
   91SOPE   H3011885   5.766   2.633   4.964 -1.8538  0.1180 -1.6211
   91SOPE   C1711886   5.661   2.799   5.027  0.2664 -0.5236 -0.8456
   91SOPE   H3111887   5.642   2.760   5.127 -1.0257  0.6745 -0.6034
   91SOPE   H3211888   5.569   2.776   4.974 -0.3108  1.6199 -0.8364
   91SOPE   C1811889   5.656   2.955   5.040 -0.0084 -0.3735  0.0745
   91SOPE   H3311890   5.635   3.001   4.943  3.5086  0.1474 -0.5190
   91SOPE   H3411891   5.756   2.988   5.068  0.5215 -2.4306  0.6875
   91SOPE   C1911892   5.546   3.007   5.126  0.4293  0.4415  0.3162
   91SOPE   H3511893   5.468   2.935   5.144  0.3343  0.6579  0.7874
   91SOPE   C2011894   5.550   3.116   5.201  0.1378  0.3275  0.3746
   91SOPE   H3611895   5.467   3.123   5.269 -1.1936  3.2360 -1.4502
   91SOPE   C2111896   5.647   3.235   5.193 -0.5234 -0.1428  0.5339
   91SOPE   H3711897   5.599   3.331   5.177  0.0083  0.1535  0.7084
   91SOPE   H3811898   5.715   3.218   5.109  0.8554  1.6879  1.2536
   91SOPE   C2211899   5.743   3.233   5.317 -0.1439  0.4037 -0.9853
   91SOPE   H3911900   5.817   3.154   5.307 -1.1183 -1.1074  2.8486
   91SOPE   H4011901   5.689   3.213   5.410 -0.5949  0.5519 -1.2141
   91SOPE   C2311902   5.828   3.361   5.332 -0.8482 -0.2233  0.4201
   91SOPE   H4111903   5.872   3.356   5.431 -0.7597 -2.1353  0.3045
   91SOPE   H4211904   5.752   3.439   5.330  0.5848  1.2482 -3.6551
   91SOPE   C2411905   5.939   3.386   5.224  0.2484 -0.7972 -0.4321
   91SOPE   H4311906   5.890   3.411   5.130 -3.6478 -0.3561  1.6066
   91SOPE   H4411907   0.045   3.293   5.208 -1.9289 -2.1122 -0.4197
   91SOPE   C2511908   0.083   3.497   5.274 -0.7608 -0.1671  0.4036
   91SOPE   H4511909   0.134   3.476   5.368 -2.7078  0.3662  1.5830
   91SOPE   H4611910   0.030   3.591   5.284 -4.2282 -1.9815 -0.1059
   91SOPE   C2611911   0.199   3.508   5.171  0.1760  0.1009  0.1386
   91SOPE   H4711912   0.284   3.564   5.210  0.2826 -0.2716  0.4475
   91SOPE   H4811913   0.241   3.409   5.153  0.1643  0.3925 -1.5887
   91SOPE   C2711914   0.164   3.562   5.034 -1.0085 -0.1160 -0.0596
   91SOPE   H4911915   0.157   3.671   5.035  0.3807 -0.0247  0.2802
   91SOPE   H5011916   0.070   3.518   5.001 -1.2343  0.0296  0.3741
   91SOPE   C2711917   0.272   3.528   4.926 -0.3333  0.5390 -0.7655
   91SOPE   H5111918   0.378   3.541   4.947 -0.4712  2.9090 -1.3985
   91SOPE   H5211919   0.260   3.422   4.904 -0.5572  0.4810 -0.3883
   91SOPE   H5311920   0.257   3.589   4.837 -1.1799  0.8725 -0.4051
   91SOPE   C2911921   5.280   1.975   4.333 -0.4457 -0.0377  0.2947
   91SOPE   H5411922   5.317   1.888   4.279 -1.6241 -0.1489 -0.3566
   91SOPE   H5511923   5.201   2.011   4.267  1.5709  5.1952  0.4565
   91SOPE   C3011924   5.211   1.948   4.474 -0.4541 -0.2137  0.3755
   91SOPE   H5611925   5.137   1.867   4.474  1.3750 -1.9141  0.6353
   91SOPE   H5711926   5.145   2.032   4.497 -0.3204  0.2045 -0.7484
   91SOPE   C3111927   5.308   1.909   4.589  0.3567 -0.0987 -0.1220
   91SOPE   H5811928   5.391   1.977   4.610  1.0264 -0.7674 -0.5358
   91SOPE   H5911929   5.364   1.819   4.563 -0.4719 -0.9382  0.9606
   91SOPE   C3211930   5.232   1.861   4.715 -0.1966  0.2532 -0.4146
   91SOPE   H6011931   5.191   1.760   4.704  3.7957 -2.0265  3.7184
   91SOPE   H6111932   5.153   1.931   4.743 -1.3679 -1.5133  0.8179
   91SOPE   C3311933   5.321   1.858   4.842 -0.2513  0.2325  0.0759
   91SOPE   H6211934   5.409   1.795   4.826 -0.6239  0.3921 -2.7311
   91SOPE   H6311935   5.280   1.795   4.921 -1.0509  1.4927  0.6799
   91SOPE   C3411936   5.373   1.998   4.884 -0.0746  0.0151  0.6895
   91SOPE   H6411937   5.293   2.072   4.888  0.0997  0.1818  1.1705
   91SOPE   H6511938   5.451   2.035   4.817 -2.4902  1.1856 -1.5853
   91SOPE   C3511939   5.412   1.999   5.030 -0.1757  0.5322  0.1647
   91SOPE   H6611940   5.462   2.094   5.048  1.1659 -0.0863 -0.1857
   91SOPE   H6711941   5.489   1.922   5.042  0.8102  1.3444 -0.8628
   91SOPE   C3611942   5.303   1.975   5.134 -0.1276 -0.0955  0.6074
   91SOPE   H6811943   5.260   1.875   5.126  0.4603 -0.1912 -1.5457
   91SOPE   H6911944   5.234   2.058   5.123  1.0704  0.6089 -2.0063
   91SOPE   C3711945   5.361   1.989   5.274 -0.4351 -0.3939  0.0554
   91SOPE   H7011946   5.426   2.076   5.283 -0.5364 -0.1331 -1.6641
   91SOPE   H7111947   5.437   1.910   5.284 -1.1170 -0.7496  2.9861
   91SOPE   C3811948   5.260   1.972   5.388  0.7326  0.0655  0.6286
   91SOPE   H7211949   5.204   1.881   5.368  1.3754 -0.4417  1.1274
   91SOPE   H7311950   5.186   2.052   5.380 -0.8982 -1.3755  1.1145
   91SOPE   C3911951   5.322   1.972   5.528  0.0793 -0.1975  0.0497
   91SOPE   H7411952   5.393   2.052   5.550  1.0320  0.1191 -3.7695
   91SOPE   H7511953   5.393   1.888   5.530  4.0178  2.9673  0.1784
   91SOPE   C4011954   5.217   1.956   5.638 -0.0292  0.8399  0.3083
   91SOPE   H7611955   5.145   1.884   5.598  0.1588  1.0343 -0.3852
   91SOPE   H7711956   5.161   2.049   5.648 -2.4414  0.0972 -4.8056
   91SOPE   C4111957   5.267   1.901   5.772  0.2884 -0.1151  0.8030
   91SOPE   H7811958   5.342   1.963   5.822  1.3798 -1.6617  1.1046
   91SOPE   H7911959   5.310   1.804   5.749  1.4216  1.3318 -3.7303
   91SOPE   C4211960   5.147   1.876   5.870  1.3068 -0.4460  0.2061
   91SOPE   H8011961   5.067   1.837   5.808  2.4379  1.4170 -2.5501
   91SOPE   H8111962   5.107   1.969   5.909  0.3535 -0.8027  0.0818
   91SOPE   C4311963   5.178   1.769   5.974  0.2656  0.2785 -0.7997
   91SOPE   H8211964   5.090   1.767   6.039  0.1241  1.2512 -0.9544
   91SOPE   H8311965   5.177   1.671   5.926 -0.0907  0.4035 -1.0540
   91SOPE   C4411966   5.312   1.788   6.047 -0.3486 -0.1878 -0.3059
   91SOPE   H8411967   5.391   1.769   5.974  0.1317  0.3215  0.0742
   91SOPE   H8511968   5.321   1.890   6.085  2.5040  0.9311 -3.6320
   91SOPE   H8611969   5.312   1.731   6.140  0.1937  1.8538  0.9753
   92SOPE    N111970   0.585   5.351   3.798 -0.4174 -0.7419  0.1016
   92SOPE    C111971   0.529   5.220   3.833 -0.1258 -0.3480 -0.2174
   92SOPE    H111972   0.444   5.230   3.900 -1.5860 -2.1734 -1.7607
   92SOPE    H211973   0.607   5.155   3.873  0.7204 -0.2700 -1.6744
   92SOPE    H311974   0.557   5.387   3.708  0.7226 -3.2609 -1.3300
   92SOPE    H411975   0.685   5.331   3.795 -0.5688 -1.1765 -3.8126
   92SOPE    H511976   0.559   5.411   3.874 -0.2552 -2.5590  1.6457
   92SOPE    C511977   0.473   5.148   3.712  0.2433  0.3653  0.8126
   92SOPE   H1211978   0.379   5.190   3.676 -0.1425  1.8440  3.4383
   92SOPE   H1311979   0.542   5.152   3.628  1.1749  2.0626  1.6372
   92SOPE    P111980   0.345   4.961   3.830 -0.5259  0.0944 -0.2977
   92SOPE    O111981   0.224   5.049   3.813 -0.2283 -0.4247 -0.3256
   92SOPE    O211982   0.321   4.818   3.812 -0.4173 -0.0460 -0.2507
   92SOPE    O311983   0.458   5.012   3.747  0.3351 -0.1220  0.4412
   92SOPE    O411984   0.389   4.981   3.978 -0.0368 -0.1391 -0.6339
   92SOPE    C611985   0.503   4.924   4.037  0.3941  0.1937  0.7451
   92SOPE   H1411986   0.570   5.006   4.063  2.0330 -0.6237 -0.8140
   92SOPE   H1511987   0.556   4.864   3.963 -0.5433  1.1715 -0.7608
   92SOPE    C711988   0.453   4.828   4.148 -0.0052 -0.1864 -0.1494
   92SOPE   H1611989   0.372   4.763   4.116 -0.2782 -1.3458  2.7187
   92SOPE    O511990   0.421   4.925   4.250 -0.0368  0.3706 -0.0339
   92SOPE    C811991   0.295   4.980   4.272 -0.4496  0.4370  0.4011
   92SOPE    O611992   0.195   4.966   4.203 -0.2022  0.4768  0.4186
   92SOPE    C911993   0.298   5.103   4.355  0.1810  0.8153  0.1079
   92SOPE   H1711994   0.219   5.175   4.335 -1.3656 -1.0266 -0.4714
   92SOPE   H1811995   0.392   5.151   4.325  1.3523 -2.0977 -1.0800
   92SOPE   C1011996   0.555   4.738   4.210  0.2184  0.0887  0.5679
   92SOPE   H1911997   0.640   4.791   4.253  0.3973  0.4701 -0.2454
   92SOPE   H2011998   0.580   4.667   4.131 -0.0138  1.3918 -0.6806
   92SOPE    O711999   0.483   4.658   4.306 -0.0640 -0.1192 -0.4880
   92SOPE   C1112000   0.525   4.556   4.378  0.7297  0.4110 -0.3702
   92SOPE    O812001   0.649   4.545   4.403 -0.0754 -0.2531 -0.5670
   92SOPE   C1212002   0.407   4.498   4.459  0.1696  0.1415 -0.6980
   92SOPE   H2112003   0.353   4.424   4.401 -0.7399 -0.8420  1.3283
   92SOPE   H2212004   0.331   4.575   4.476  1.6215  1.8482 -1.7035
   92SOPE   C1312005   0.444   4.438   4.600 -0.0848  0.3528 -0.5662
   92SOPE   H2312006   0.507   4.351   4.578  0.4230 -0.2242  2.9999
   92SOPE   H2412007   0.354   4.401   4.649 -1.1394  1.6074 -1.5084
   92SOPE   C1412008   0.517   4.531   4.705  0.0845 -0.7012 -0.0699
   92SOPE   H2512009   0.614   4.569   4.674 -0.4058  0.6980  0.0740
   92SOPE   H2612010   0.534   4.470   4.794  0.7672 -1.2645 -0.5836
   92SOPE   C1512011   0.425   4.649   4.751  0.7257  0.0974 -0.2071
   92SOPE   H2712012   0.337   4.619   4.808  0.7934  2.3794  1.1724
   92SOPE   H2812013   0.382   4.713   4.675 -1.6826 -0.4668  0.6349
   92SOPE   C1612014   0.492   4.731   4.850 -0.0982 -0.3942  0.5921
   92SOPE   H2912015   0.437   4.825   4.856  1.3411  0.4687  0.5728
   92SOPE   H3012016   0.583   4.767   4.801 -0.1399 -0.5540  0.3925
   92SOPE   C1712017   0.533   4.652   4.973  0.0202  0.3742  0.1803
   92SOPE   H3112018   0.621   4.593   4.950  0.6948  1.2870  0.3871
   92SOPE   H3212019   0.458   4.575   4.991 -2.0202  1.8033 -1.8373
   92SOPE   C1812020   0.539   4.752   5.089 -0.6629  0.7142 -0.7672
   92SOPE   H3312021   0.528   4.695   5.181 -0.7417  0.7459 -0.7556
   92SOPE   H3412022   0.477   4.842   5.084  1.2336  2.1237  0.1467
   92SOPE   C1912023   0.673   4.814   5.083  0.6613  0.2376 -0.2045
   92SOPE   H3512024   0.687   4.903   5.024 -2.0084  0.1022 -1.0938
   92SOPE   C2012025   0.782   4.765   5.141 -0.0013 -0.5772  0.1577
   92SOPE   H3612026   0.871   4.825   5.132 -1.0110  0.5483 -2.9583
   92SOPE   C2112027   0.802   4.629   5.209 -0.2959  0.4608 -0.9791
   92SOPE   H3712028   0.849   4.556   5.144 -0.0086 -1.3832  1.2232
   92SOPE   H3812029   0.704   4.588   5.231  0.0527  0.2465  0.2348
   92SOPE   C2212030   0.892   4.625   5.327  0.5513 -0.2015 -0.0389
   92SOPE   H3912031   0.968   4.701   5.310  0.8893 -0.7979 -1.2604
   92SOPE   H4012032   0.948   4.531   5.335  3.4434  1.6652  2.8840
   92SOPE   C2312033   0.803   4.661   5.453 -0.0976  0.0190 -0.4739
   92SOPE   H4112034   0.717   4.598   5.476 -0.6822  0.5835 -1.0760
   92SOPE   H4212035   0.764   4.760   5.428 -0.7254 -0.2301 -0.4959
   92SOPE   C2412036   0.883   4.656   5.586 -0.0267 -1.3061  0.1982
   92SOPE   H4312037   0.814   4.697   5.660  0.0044 -0.6431 -0.1308
   92SOPE   H4412038   0.977   4.712   5.596 -0.4496 -0.5328 -0.0993
   92SOPE   C2512039   0.936   4.515   5.618  0.2211  0.6346  0.2671
   92SOPE   H4512040   1.013   4.474   5.553 -0.2492  1.3886 -0.7847
   92SOPE   H4612041   0.853   4.447   5.597  0.6107  0.6579 -1.4161
   92SOPE   C2612042   0.964   4.504   5.769 -0.2684  0.1523 -0.4032
   92SOPE   H4712043   1.039   4.577   5.803  0.5777 -2.0327  2.6411
   92SOPE   H4812044   0.870   4.536   5.815  0.1007 -1.6433  1.6833
   92SOPE   C2712045   0.997   4.358   5.793  0.0238 -0.2763 -0.0624
   92SOPE   H4912046   1.095   4.345   5.747  0.3491 -0.6829  0.7196
   92SOPE   H5012047   0.926   4.296   5.739 -0.5605  1.0782 -0.8678
   92SOPE   C2712048   0.997   4.328   5.951  0.4083  0.7495  0.2151
   92SOPE   H5112049   1.074   4.387   6.001  0.9338  0.0290  0.2661
   92SOPE   H5212050   0.908   4.360   6.005 -0.3496  0.6893 -0.9804
   92SOPE   H5312051   1.009   4.224   5.979 -1.2888  0.4389 -0.1213
   92SOPE   C2912052   0.297   5.082   4.508  0.0696 -0.0641  0.2103
   92SOPE   H5412053   0.331   5.167   4.568 -1.0052  0.6737 -0.2064
   92SOPE   H5512054   0.348   4.989   4.531 -1.6002 -1.1984 -0.5924
   92SOPE   C3012055   0.161   5.051   4.558 -0.2875 -0.3075  0.7394
   92SOPE   H5612056   0.112   4.986   4.485  0.5197  1.5617 -1.5337
   92SOPE   H5712057   0.096   5.138   4.551 -1.5140 -1.0702  2.2305
   92SOPE   C3112058   0.145   4.982   4.697  0.3451 -0.0974  1.0140
   92SOPE   H5812059   0.170   4.876   4.692  0.6525 -0.0454  1.4003
   92SOPE   H5912060   0.044   4.986   4.737 -0.8151 -1.2297 -1.7211
   92SOPE   C3212061   0.229   5.040   4.814  0.1629  0.2047 -0.1537
   92SOPE   H6012062   0.218   5.147   4.797  0.8339  0.5805  1.6689
   92SOPE   H6112063   0.335   5.024   4.795  0.2957  1.0133 -0.1310
   92SOPE   C3312064   0.181   4.987   4.959 -0.0347 -0.2964  1.0988
   92SOPE   H6212065   0.240   4.899   4.980 -0.8132 -1.1252 -0.0823
   92SOPE   H6312066   0.076   4.960   4.954 -0.0868  0.2929 -4.7188
   92SOPE   C3412067   0.194   5.095   5.065  0.0944  0.4563  0.1493
   92SOPE   H6412068   0.107   5.160   5.069 -1.7789 -2.0526  1.3845
   92SOPE   H6512069   0.280   5.161   5.051 -0.5324  1.1598 -0.4183
   92SOPE   C3512070   0.189   5.022   5.205 -0.5842 -0.4565 -0.0041
   92SOPE   H6612071   0.275   4.954   5.211  0.2756  0.5147 -1.0799
   92SOPE   H6712072   0.099   4.960   5.203 -0.8404 -0.1394  1.7521
   92SOPE   C3612073   0.179   5.130   5.313  0.5737  0.1045 -0.4366
   92SOPE   H6812074   0.096   5.200   5.300  0.9039  0.6707  0.4510
   92SOPE   H6912075   0.263   5.197   5.295  0.6705  0.0704 -0.1116
   92SOPE   C3712076   0.182   5.073   5.453 -0.0747  0.4122 -0.8718
   92SOPE   H7012077   0.269   5.010   5.472 -1.2067  0.1553  4.2974
   92SOPE   H7112078   0.093   5.013   5.469  1.1655 -0.8598  1.4731
   92SOPE   C3812079   0.185   5.181   5.562 -0.1554 -0.4570 -0.6271
   92SOPE   H7212080   0.103   5.253   5.554 -1.2225 -1.2352  2.5562
   92SOPE   H7312081   0.270   5.246   5.544  0.7470 -0.7814  2.1919
   92SOPE   C3912082   0.192   5.120   5.703  0.4691 -0.4429  0.0005
   92SOPE   H7412083   0.257   5.032   5.707  0.5655 -0.5430 -2.8113
   92SOPE   H7512084   0.101   5.062   5.721  1.2135 -1.3012  1.1059
   92SOPE   C4012085   0.222   5.220   5.813 -0.1138 -0.4965 -0.0680
   92SOPE   H7612086   0.289   5.300   5.785 -2.8631  2.4446  1.3674
   92SOPE   H7712087   0.270   5.165   5.894  0.5046  0.6671  0.3589
   92SOPE   C4112088   0.094   5.281   5.858  0.5455 -0.8225  0.1808
   92SOPE   H7812089   0.026   5.198   5.876  0.2107 -0.9212 -1.4879
   92SOPE   H7912090   0.059   5.349   5.780  1.3637 -0.3801  0.1945
   92SOPE   C4212091   0.106   5.376   5.985  0.7104 -0.1945 -0.3792
   92SOPE   H8012092   0.023   5.445   5.975  1.8431  1.0400 -1.5603
   92SOPE   H8112093   0.192   5.442   5.993  0.4169  0.1999 -0.4789
   92SOPE   C4312094   0.101   5.301   6.114 -0.2989 -0.4510  0.1527
   92SOPE   H8212095   0.005   5.249   6.121  0.5866 -1.8361  2.7301
   92SOPE   H8312096   0.163   5.212   6.116 -0.8940 -0.9153 -1.3997
   92SOPE   C4412097   0.124   5.385   6.230  0.0122  0.0465 -0.0848
   92SOPE   H8412098   0.176   5.478   6.206 -0.1107  0.2118  0.2868
   92SOPE   H8512099   0.036   5.421   6.283 -0.5851 -0.8044 -0.4939
   92SOPE   H8612100   0.193   5.338   6.300 -0.3385  1.3405  1.1616
   93SOPE    N112101   0.347   0.174   3.837 -0.5479 -0.9977 -0.1425
   93SOPE    C112102   0.353   0.304   3.914  0.1142 -0.1301 -0.1504
   93SOPE    H112103   0.418   0.377   3.866  0.9178  0.0052  1.1309
   93SOPE    H212104   0.381   0.294   4.018 -1.4121  0.9922  0.3789
   93SOPE    H312105   0.445   0.149   3.832 -0.5651 -1.0850 -0.0363
   93SOPE    H412106   0.312   0.193   3.744  0.0642  2.1716  0.2186
   93SOPE    H512107   0.286   0.119   3.895  0.1596  0.2218  1.8139
   93SOPE    C512108   0.218   0.369   3.920 -0.1376 -0.0258 -0.0459
   93SOPE   H1212109   0.163   0.319   3.999 -0.3117  1.2532  0.6589
   93SOPE   H1312110   0.166   0.352   3.825  2.2360  1.0184 -1.6038
   93SOPE    P112111   0.204   0.568   4.100 -0.3125  0.2338 -0.3693
   93SOPE    O112112   0.281   0.471   4.183  0.1715  1.1338  0.1066
   93SOPE    O212113   0.257   0.702   4.092 -0.1569 -0.7858 -0.0284
   93SOPE    O312114   0.210   0.511   3.947 -0.1659 -0.5889 -0.6815
   93SOPE    O412115   0.053   0.581   4.153  0.7113  0.2800  0.3209
   93SOPE    C612116   5.911   0.476   4.129 -0.5356 -0.0440 -0.2246
   93SOPE   H1412117   0.018   0.394   4.174 -1.4764  0.0581  1.1719
   93SOPE   H1512118   5.890   0.474   4.022 -0.2676  1.7121 -0.3272
   93SOPE    C712119   5.777   0.521   4.192  0.2778  0.0419 -0.2891
   93SOPE   H1612120   5.748   0.621   4.158  2.7693  0.0386 -2.6047
   93SOPE    O512121   5.782   0.506   4.331 -0.0558  0.6333 -0.5551
   93SOPE    C812122   5.788   0.611   4.412 -0.8943 -0.0865  0.6542
   93SOPE    O612123   5.708   0.705   4.399  0.5295  0.0973 -0.0584
   93SOPE    C912124   5.811   0.551   4.548 -0.0024 -0.1836  0.2388
   93SOPE   H1712125   5.918   0.531   4.542  0.0083 -0.3186  0.8682
   93SOPE   H1812126   5.763   0.454   4.565  1.8978 -0.9120  1.6454
   93SOPE   C1012127   5.667   0.432   4.145  0.5069 -0.0035 -0.2896
   93SOPE   H1912128   5.654   0.435   4.037  2.2584 -4.3324 -0.7251
   93SOPE   H2012129   5.577   0.473   4.193  0.4370  0.1145 -0.5203
   93SOPE    O712130   5.701   0.302   4.184 -0.8685  0.1435 -0.1609
   93SOPE   C1112131   5.609   0.229   4.244  0.2388  0.1227 -0.8008
   93SOPE    O812132   5.491   0.249   4.230  0.2894  0.2483 -0.3484
   93SOPE   C1212133   5.650   0.082   4.286  0.2613 -0.6178 -0.8373
   93SOPE   H2112134   5.758   0.081   4.278  0.1835 -0.7189 -1.8473
   93SOPE   H2212135   5.613   0.017   4.206  1.5280 -0.8580 -1.2333
   93SOPE   C1312136   5.607   0.042   4.435  0.4084 -0.0034 -0.4767
   93SOPE   H2312137   5.665   0.099   4.507  1.4824  0.8206 -1.9643
   93SOPE   H2412138   5.632   5.888   4.463  0.6138  0.2541  0.3132
   93SOPE   C1412139   5.454   0.045   4.453  0.2136  0.2098 -0.4214
   93SOPE   H2512140   5.398   5.922   4.394  0.2143 -1.5718  1.6849
   93SOPE   H2612141   5.408   0.141   4.426  0.7782  0.6478  0.1498
   93SOPE   C1512142   5.415   0.029   4.602  0.0242 -0.9106  0.2157
   93SOPE   H2712143   5.436   0.123   4.653 -3.5971 -0.0651  0.2882
   93SOPE   H2812144   5.476   5.904   4.655  2.3723  1.4902  0.9656
   93SOPE   C1612145   5.264   0.016   4.613 -0.0803  0.3008  0.1055
   93SOPE   H2912146   5.234   5.874   4.562  0.8367  0.9700 -1.6607
   93SOPE   H3012147   5.218   0.091   4.549 -0.1172 -1.8934 -2.5360
   93SOPE   C1712148   5.211   0.031   4.754  0.1459  0.3056  0.3621
   93SOPE   H3112149   5.103   0.043   4.758  0.2840  1.4876  0.8282
   93SOPE   H3212150   5.239   0.124   4.803  0.1222  0.9083 -0.7579
   93SOPE   C1812151   5.227   5.853   4.836  0.7098  0.0514  0.2611
   93SOPE   H3312152   5.205   5.862   4.943 -0.3642  1.0508 -0.0372
   93SOPE   H3412153   5.331   5.821   4.829  0.4937 -0.4828 -0.5984
   93SOPE   C1912154   5.143   5.740   4.785 -0.3374 -0.2146  0.7606
   93SOPE   H3512155   5.167   5.697   4.689  3.3631  0.3849  1.3271
   93SOPE   C2012156   5.037   5.681   4.844 -0.3193 -0.3290  0.4479
   93SOPE   H3612157   4.983   5.597   4.803 -1.2372  0.6756 -0.4302
   93SOPE   C2112158   4.984   5.718   4.981 -0.9177  0.7002  0.3822
   93SOPE   H3712159   5.064   5.741   5.052  0.1748  1.3143 -1.0287
   93SOPE   H3812160   4.924   5.638   5.024 -1.1500  1.3960  1.3725
   93SOPE   C2212161   4.883   5.836   4.967  0.6614 -0.2429  0.2778
   93SOPE   H3912162   4.815   5.828   4.881 -0.0682 -1.4553  0.9525
   93SOPE   H4012163   4.942   5.924   4.939 -0.1703 -0.5761 -2.7447
   93SOPE   C2312164   4.805   5.880   5.095 -0.0948 -0.2349 -0.1919
   93SOPE   H4112165   4.704   5.841   5.111 -0.3717  0.2318 -0.7779
   93SOPE   H4212166   4.788   0.038   5.081  0.8383 -0.0235  0.2291
   93SOPE   C2412167   4.877   5.848   5.229  0.1090 -0.2617 -0.1657
   93SOPE   H4312168   4.983   5.870   5.223  0.0929  1.5431  3.9268
   93SOPE   H4412169   4.877   5.740   5.245 -1.1578 -0.2804 -0.2318
   93SOPE   C2512170   4.825   5.921   5.340 -0.5312 -0.5805 -0.2472
   93SOPE   H4512171   4.717   5.904   5.344 -0.7353  0.7587 -0.0396
   93SOPE   H4612172   4.841   0.078   5.323 -1.8246 -0.1678  1.0452
   93SOPE   C2612173   4.905   5.882   5.456  0.2901  0.5257  0.2694
   93SOPE   H4712174   4.909   5.774   5.471 -1.6641 -0.0278 -2.8484
   93SOPE   H4812175   5.006   5.919   5.447  0.3162  0.4200  0.1203
   93SOPE   C2712176   4.857   5.932   5.596  0.4443 -0.0982  0.1630
   93SOPE   H4912177   4.758   5.890   5.616  0.6630 -0.8490 -0.3356
   93SOPE   H5012178   4.846   0.092   5.593 -0.5967 -0.1912  0.1670
   93SOPE   C2712179   4.944   5.902   5.717  0.2187  0.1114 -0.9547
   93SOPE   H5112180   4.913   0.004   5.809 -1.9325 -1.0970 -0.9536
   93SOPE   H5212181   4.955   5.795   5.736 -1.7232  0.2073  0.9363
   93SOPE   H5312182   5.044   5.942   5.701  0.0835  0.4692 -0.8973
   93SOPE   C2912183   5.785   0.647   4.663  0.4957 -0.0777 -0.1594
   93SOPE   H5412184   5.676   0.652   4.675  0.4859  0.6464 -0.5409
   93SOPE   H5512185   5.819   0.745   4.630  1.8519 -1.1868 -2.1370
   93SOPE   C3012186   5.855   0.592   4.791 -0.0416 -0.5268  0.2104
   93SOPE   H5612187   0.011   0.579   4.763  0.8894  2.4158  2.1345
   93SOPE   H5712188   5.815   0.495   4.823  0.0758 -0.1389  1.5855
   93SOPE   C3112189   5.861   0.693   4.910 -0.1034 -0.1024  0.2023
   93SOPE   H5812190   5.773   0.666   4.969 -0.5972  0.2759 -0.3562
   93SOPE   H5912191   5.842   0.795   4.876  1.1222 -0.5398 -1.8782
   93SOPE   C3212192   0.034   0.673   5.001  0.0478  0.6746  0.4135
   93SOPE   H6012193   0.053   0.749   5.077 -1.9074 -0.6416  2.2682
   93SOPE   H6112194   0.122   0.679   4.936  0.3771  0.4156  0.8311
   93SOPE   C3312195   0.034   0.537   5.076 -0.7546 -0.4861  0.0283
   93SOPE   H6212196   0.113   0.531   5.151 -0.1914 -2.5241 -0.6901
   93SOPE   H6312197   0.068   0.460   5.007 -1.8130 -3.7562  3.0089
   93SOPE   C3412198   5.858   0.480   5.148  0.9358 -0.4869 -0.0357
   93SOPE   H6412199   5.884   0.377   5.172  1.0274 -0.6048 -0.6391
   93SOPE   H6512200   5.776   0.479   5.077  1.2468  1.0460 -0.4505
   93SOPE   C3512201   5.820   0.565   5.275 -0.1684  0.3066  0.3245
   93SOPE   H6612202   5.805   0.666   5.238 -3.5452 -0.6718 -1.2421
   93SOPE   H6712203   5.907   0.557   5.340  0.2329 -1.7454 -0.4134
   93SOPE   C3612204   5.695   0.503   5.350 -0.8812 -0.4544  0.6304
   93SOPE   H6812205   5.606   0.522   5.291  0.8051 -0.2850 -1.9615
   93SOPE   H6912206   5.690   0.570   5.436 -0.8085 -1.4122  1.3859
   93SOPE   C3712207   5.710   0.362   5.402 -0.1243  0.4149  0.2693
   93SOPE   H7012208   5.785   0.365   5.481 -0.0091  0.9493  0.1441
   93SOPE   H7112209   5.739   0.294   5.321  0.7249 -0.4857  1.3030
   93SOPE   C3812210   5.593   0.295   5.456  0.4595  0.6257 -0.6554
   93SOPE   H7212211   5.512   0.289   5.383  1.5089  0.3688 -1.8289
   93SOPE   H7312212   5.547   0.336   5.546  0.8599  1.2090 -0.7119
   93SOPE   C3912213   5.632   0.145   5.485 -0.3900 -0.7413 -0.2867
   93SOPE   H7412214   5.665   0.101   5.391  1.5166  1.4679 -0.7050
   93SOPE   H7512215   5.543   0.085   5.507 -0.6896 -0.7095 -1.3706
   93SOPE   C4012216   5.739   0.139   5.600 -0.2470  0.4295 -0.7831
   93SOPE   H7612217   5.738   0.226   5.666 -1.1636 -0.7848  0.8350
   93SOPE   H7712218   5.837   0.139   5.554 -0.5078 -1.3551 -1.3767
   93SOPE   C4112219   5.732   0.022   5.703  0.2487 -0.5115  0.2787
   93SOPE   H7812220   5.736   5.872   5.657  0.1663 -0.0360 -0.7660
   93SOPE   H7912221   5.638   0.024   5.758 -0.4784 -0.1313 -0.9582
   93SOPE   C4212222   5.846   0.033   5.800  0.4430 -0.6207 -0.1560
   93SOPE   H8012223   5.838   0.126   5.856 -2.0714 -0.1550 -1.2405
   93SOPE   H8112224   5.942   0.027   5.748 -0.5390 -0.8226 -1.9790
   93SOPE   C4312225   5.838   5.868   5.910  0.2495  1.0115  0.6091
   93SOPE   H8212226   5.854   5.922   6.004  3.2073  0.2671  0.5595
   93SOPE   H8312227   5.735   5.831   5.919  1.2654 -2.9070 -2.6650
   93SOPE   C4412228   5.942   5.754   5.894  0.2273 -0.8775 -0.2315
   93SOPE   H8412229   5.931   5.692   5.805 -0.8144 -2.4590  0.9556
   93SOPE   H8512230   0.096   5.788   5.902  0.8576 -2.8017  0.3492
   93SOPE   H8612231   5.935   5.679   5.973 -0.0759  0.6939  1.2717
   94SOPE    N112232   4.372   3.404   3.513 -0.2555  0.0886  0.1743
   94SOPE    C112233   4.508   3.386   3.454 -0.2170  0.1434  0.0752
   94SOPE    H112234   4.520   3.421   3.351  0.6354  1.7126  0.7003
   94SOPE    H212235   4.522   3.278   3.458 -0.1190  0.0517 -2.0997
   94SOPE    H312236   4.313   3.377   3.436  1.9391  0.5758 -1.7265
   94SOPE    H412237   4.361   3.502   3.532 -0.5689 -0.4120  2.8009
   94SOPE    H512238   4.364   3.353   3.600 -3.3402  0.0169 -0.0742
   94SOPE    C512239   4.612   3.447   3.541 -1.3654 -0.0130 -0.2266
   94SOPE   H1212240   4.626   3.398   3.638  0.8461  0.9234 -0.0430
   94SOPE   H1312241   4.602   3.554   3.559 -0.1198  0.0074  0.3896
   94SOPE    P112242   4.833   3.314   3.505 -0.4001 -0.0877 -0.2187
   94SOPE    O112243   4.754   3.192   3.479  0.3131  0.0536 -0.7973
   94SOPE    O212244   4.959   3.330   3.429  0.0330 -0.6880 -0.0737
   94SOPE    O312245   4.739   3.438   3.481  0.0550 -0.0304 -0.7719
   94SOPE    O412246   4.865   3.320   3.661 -0.1592 -0.2857  0.4060
   94SOPE    C612247   4.937   3.433   3.705  1.6553  0.1078  0.5199
   94SOPE   H1412248   4.890   3.473   3.796  0.5132 -1.7435  0.7716
   94SOPE   H1512249   4.924   3.516   3.635 -1.0297 -1.5725 -1.0633
   94SOPE    C712250   5.083   3.397   3.723  0.4082 -0.1001 -0.0031
   94SOPE   H1612251   5.120   3.377   3.623 -3.1459 -0.9992 -1.2104
   94SOPE    O512252   5.082   3.279   3.800 -0.5592 -0.0735 -0.6201
   94SOPE    C812253   5.145   3.172   3.756 -0.9025 -0.1028 -0.1390
   94SOPE    O612254   5.252   3.175   3.697  0.3535  0.4707 -0.5238
   94SOPE    C912255   5.127   3.051   3.845 -0.7286  0.1182  0.7967
   94SOPE   H1712256   5.131   2.963   3.781 -0.4403 -0.1140  1.1289
   94SOPE   H1812257   5.024   3.042   3.879 -0.1308 -2.8552  2.0163
   94SOPE   C1012258   5.179   3.507   3.772  0.3960 -0.1070 -0.2144
   94SOPE   H1912259   5.167   3.598   3.713  1.8867 -0.7708 -1.5852
   94SOPE   H2012260   5.280   3.473   3.754  1.5423  1.4448  2.8387
   94SOPE    O712261   5.162   3.524   3.911 -0.3154 -0.1436 -0.6630
   94SOPE   C1112262   5.089   3.625   3.955  0.2039  0.2423 -0.1735
   94SOPE    O812263   4.999   3.676   3.892 -0.3888  0.6151 -0.1087
   94SOPE   C1212264   5.091   3.644   4.109 -0.1131  0.4835  0.5330
   94SOPE   H2112265   5.187   3.684   4.141 -0.5188  0.4142  1.8582
   94SOPE   H2212266   5.066   3.552   4.161 -1.8818  0.4368 -0.3487
   94SOPE   C1312267   4.981   3.741   4.157  0.1473 -0.7741  0.5527
   94SOPE   H2312268   4.880   3.704   4.141  0.5287 -2.4729  1.8863
   94SOPE   H2412269   4.993   3.842   4.118  1.6215 -0.3119  2.1349
   94SOPE   C1412270   5.004   3.765   4.302 -0.5525  0.1737  0.0438
   94SOPE   H2512271   5.107   3.800   4.312 -0.3827  0.2770 -1.7252
   94SOPE   H2612272   4.987   3.672   4.356 -0.6614 -1.9207 -3.4355
   94SOPE   C1512273   4.908   3.867   4.358 -0.3403 -0.7489  0.4511
   94SOPE   H2712274   4.803   3.838   4.358 -0.3930 -0.7317 -2.5350
   94SOPE   H2812275   4.908   3.965   4.309 -3.0978 -1.1954 -0.5222
   94SOPE   C1612276   4.948   3.902   4.507  0.0278  1.3197  0.0437
   94SOPE   H2912277   5.045   3.952   4.508  0.7754 -0.0778  0.9280
   94SOPE   H3012278   4.970   3.805   4.553 -1.4154  0.6808 -0.5726
   94SOPE   C1712279   4.850   3.980   4.594  0.3151 -0.0275 -0.1242
   94SOPE   H3112280   4.774   3.910   4.629  0.2466 -0.3905 -1.0020
   94SOPE   H3212281   4.804   4.064   4.543 -1.0974  0.2826  1.6115
   94SOPE   C1812282   4.924   4.043   4.710 -0.2608  0.1175  0.1442
   94SOPE   H3312283   4.987   4.130   4.690 -1.6631  1.4801  1.5221
   94SOPE   H3412284   4.999   3.974   4.749  1.2173  0.3372 -2.1955
   94SOPE   C1912285   4.836   4.077   4.823  0.0648 -0.0057  0.4309
   94SOPE   H3512286   4.809   4.182   4.823 -0.2014 -0.0730  0.2020
   94SOPE   C2012287   4.781   3.998   4.913  0.1304 -0.3996  0.4486
   94SOPE   H3612288   4.691   4.030   4.963  0.3990  1.3440 -0.1431
   94SOPE   C2112289   4.811   3.855   4.919 -0.2532  0.5504  0.1682
   94SOPE   H3712290   4.891   3.812   4.859 -0.6980  0.5826 -0.4423
   94SOPE   H3812291   4.727   3.796   4.884  0.4144  0.2919 -1.0160
   94SOPE   C2212292   4.832   3.815   5.069  0.1665 -0.3602 -0.6722
   94SOPE   H3912293   4.816   3.707   5.065 -0.1187 -0.3177 -0.7425
   94SOPE   H4012294   4.748   3.849   5.129  0.9424 -1.8917  1.3435
   94SOPE   C2312295   4.964   3.847   5.136  0.4161 -0.0542  0.0899
   94SOPE   H4112296   5.046   3.831   5.066  1.5624  0.0319  1.3667
   94SOPE   H4212297   4.996   3.780   5.216 -1.7691  0.3956  1.3792
   94SOPE   C2412298   4.977   3.988   5.195  0.1473 -0.8999 -0.8507
   94SOPE   H4312299   4.904   3.994   5.275 -0.9089 -1.5629 -1.7455
   94SOPE   H4412300   4.942   4.058   5.120 -0.6285  0.3856  0.6921
   94SOPE   C2512301   5.120   4.032   5.247  0.7739  0.1330 -0.1593
   94SOPE   H4512302   5.188   4.058   5.165  1.6014 -0.2707  0.3964
   94SOPE   H4612303   5.166   3.945   5.293 -1.1699 -0.2743  1.0370
   94SOPE   C2612304   5.110   4.162   5.336 -0.2928 -0.1431  0.1419
   94SOPE   H4712305   5.064   4.243   5.281 -0.8584  0.4681  1.4899
   94SOPE   H4812306   5.052   4.144   5.427  1.6930 -1.2782  1.2219
   94SOPE   C2712307   5.246   4.226   5.376  0.4604 -0.2568 -0.2742
   94SOPE   H4912308   5.227   4.324   5.419  1.4193  0.1008 -0.6509
   94SOPE   H5012309   5.295   4.249   5.281  1.0317 -1.5037 -0.2904
   94SOPE   C2712310   5.333   4.146   5.464  0.3840  0.1376  0.0313
   94SOPE   H5112311   5.427   4.198   5.480  1.4327 -1.9299  0.8407
   94SOPE   H5212312   5.287   4.129   5.561 -2.7605  1.4264 -1.1652
   94SOPE   H5312313   5.351   4.043   5.433  0.0570 -0.4594  1.7851
   94SOPE   C2912314   5.241   3.055   3.950 -0.3864 -0.0282  0.2469
   94SOPE   H5412315   5.249   3.145   4.011 -1.7455  2.2082 -2.7765
   94SOPE   H5512316   5.334   3.052   3.892 -1.2684 -1.4753 -1.1274
   94SOPE   C3012317   5.228   2.937   4.038 -0.6769  0.7322 -0.2508
   94SOPE   H5612318   5.330   2.898   4.047 -1.5209 -1.0513  2.1095
   94SOPE   H5712319   5.186   2.848   3.991 -0.1042 -0.3053  1.1729
   94SOPE   C3112320   5.187   2.959   4.185  0.0217 -0.1918  0.5554
   94SOPE   H5812321   5.099   3.024   4.183 -0.9727 -1.4872 -3.2338
   94SOPE   H5912322   5.270   2.999   4.243  0.7691  0.3557 -0.8677
   94SOPE   C3212323   5.141   2.830   4.254 -0.5368  0.9560 -0.2565
   94SOPE   H6012324   5.230   2.767   4.261 -1.7842 -0.7622  0.5107
   94SOPE   H6112325   5.077   2.775   4.185 -2.1026  2.0945  0.2558
   94SOPE   C3312326   5.087   2.852   4.389 -0.4283 -0.2022  0.1379
   94SOPE   H6212327   5.060   2.957   4.399  0.2980  0.2397 -2.2676
   94SOPE   H6312328   5.168   2.835   4.459  0.9591  0.9745 -1.1488
   94SOPE   C3412329   4.970   2.754   4.425 -0.0233  0.1742 -0.2451
   94SOPE   H6412330   4.986   2.666   4.362 -0.4230  1.5628 -2.3476
   94SOPE   H6512331   4.874   2.795   4.395 -0.9605 -0.0733  2.3331
   94SOPE   C3512332   4.977   2.731   4.578 -0.2638 -0.4251 -0.2563
   94SOPE   H6612333   4.994   2.833   4.614 -0.7072  0.0629 -1.3803
   94SOPE   H6712334   5.067   2.675   4.605  0.8939  1.6357  0.3413
   94SOPE   C3612335   4.847   2.657   4.621  0.6510  0.1040  1.1040
   94SOPE   H6812336   4.836   2.553   4.593 -1.1504  0.4378  0.5115
   94SOPE   H6912337   4.759   2.704   4.576  0.6810 -0.9619 -0.0893
   94SOPE   C3712338   4.830   2.656   4.777  0.8232 -1.1671  0.3125
   94SOPE   H7012339   4.916   2.613   4.828  1.2181 -0.7953 -0.0252
   94SOPE   H7112340   4.744   2.597   4.808  0.3456  0.4322  2.1307
   94SOPE   C3812341   4.814   2.803   4.822  0.1663  0.1105  0.3185
   94SOPE   H7212342   4.768   2.864   4.744 -1.5902 -0.5846  0.7778
   94SOPE   H7312343   4.915   2.841   4.838  0.5729 -1.2226  0.9314
   94SOPE   C3912344   4.735   2.823   4.951  0.0107 -0.1434  0.1174
   94SOPE   H7412345   4.631   2.795   4.932 -0.9623  1.9666  2.1449
   94SOPE   H7512346   4.748   2.928   4.977  2.0952 -0.2783 -0.3106
   94SOPE   C4012347   4.787   2.737   5.074  0.3607 -0.2997  0.3301
   94SOPE   H7612348   4.891   2.763   5.090  0.6266 -0.1218 -1.6177
   94SOPE   H7712349   4.783   2.632   5.046 -0.8577 -0.3075  0.4729
   94SOPE   C4112350   4.692   2.740   5.201 -0.1188 -0.3549  0.8928
   94SOPE   H7812351   4.591   2.743   5.159 -0.0839 -1.2818  0.7154
   94SOPE   H7912352   4.716   2.832   5.253  0.0906 -0.3143  0.7266
   94SOPE   C4212353   4.707   2.621   5.298 -0.0014  0.0166  0.3669
   94SOPE   H8012354   4.807   2.610   5.339 -0.0645 -0.4697  0.4007
   94SOPE   H8112355   4.702   2.526   5.244 -1.2128  0.2011  0.1220
   94SOPE   C4312356   4.617   2.643   5.427  0.0432 -0.1878  0.0906
   94SOPE   H8212357   4.520   2.683   5.396 -0.0616  0.7492  1.5780
   94SOPE   H8312358   4.594   2.549   5.477 -0.7437  0.2743  0.6085
   94SOPE   C4412359   4.674   2.747   5.526 -0.3333  0.3416  0.3429
   94SOPE   H8412360   4.751   2.700   5.588 -0.0251  4.5063  3.3579
   94SOPE   H8512361   4.720   2.821   5.460 -0.9640  1.9829  1.6873
   94SOPE   H8612362   4.600   2.791   5.593  1.7774 -0.3750  3.2262
   95SOPE    N112363   4.608   2.394   3.345  0.1237  0.0364  0.3269
   95SOPE    C112364   4.582   2.538   3.367  0.1934  0.1373  0.2335
   95SOPE    H112365   4.579   2.582   3.267 -2.5257  2.0667  1.1177
   95SOPE    H212366   4.672   2.574   3.417  2.0838 -1.7105 -1.7300
   95SOPE    H312367   4.570   2.354   3.430 -1.8094  2.9623  0.9210
   95SOPE    H412368   4.708   2.389   3.333  0.2281  1.6237  0.5228
   95SOPE    H512369   4.557   2.370   3.262 -0.3774  1.9188  0.0642
   95SOPE    C512370   4.447   2.570   3.433 -0.1985  0.9156  0.2882
   95SOPE   H1212371   4.381   2.497   3.386  0.4229  0.4885  0.0838
   95SOPE   H1312372   4.444   2.544   3.539 -0.4246 -1.7167 -0.3206
   95SOPE    P112373   4.461   2.823   3.458 -0.3206  0.1895  0.2456
   95SOPE    O112374   4.564   2.835   3.354  0.5286 -0.3065 -0.5148
   95SOPE    O212375   4.358   2.927   3.458  1.0301  0.1150 -0.2500
   95SOPE    O312376   4.383   2.692   3.420  0.6107 -0.5133  0.4454
   95SOPE    O412377   4.528   2.823   3.602 -0.4738  0.1436 -0.1568
   95SOPE    C612378   4.453   2.810   3.721  0.2956  1.1166  0.4486
   95SOPE   H1412379   4.508   2.756   3.798  1.8266  0.1907 -1.2459
   95SOPE   H1512380   4.364   2.752   3.697 -0.5585  2.1460  1.0738
   95SOPE    C712381   4.389   2.932   3.782  0.0253 -0.7676 -0.5651
   95SOPE   H1612382   4.355   2.993   3.697  2.8234  1.6362 -0.0511
   95SOPE    O512383   4.493   2.989   3.855 -0.3564 -0.6920 -0.3051
   95SOPE    C812384   4.554   3.102   3.811  0.1088 -0.2713  0.3302
   95SOPE    O612385   4.499   3.197   3.746  0.5494 -0.7474 -0.1952
   95SOPE    C912386   4.676   3.128   3.894 -0.0117  0.6739  0.4730
   95SOPE   H1712387   4.773   3.138   3.846 -0.5902 -0.7613 -1.0179
   95SOPE   H1812388   4.691   3.040   3.956  1.6583  1.5778  1.3955
   95SOPE   C1012389   4.266   2.907   3.872 -0.1263 -0.2876  0.0707
   95SOPE   H1912390   4.286   2.825   3.941 -2.6541 -1.9069 -1.0369
   95SOPE   H2012391   4.181   2.889   3.806  0.9237 -0.0382 -1.3876
   95SOPE    O712392   4.253   3.024   3.952  0.1500  0.1934  0.1132
   95SOPE   C1112393   4.196   3.140   3.935  0.3505  0.2411 -0.3578
   95SOPE    O812394   4.103   3.158   3.857  0.1117  0.6195  0.5725
   95SOPE   C1212395   4.213   3.223   4.063  0.4267  0.5665  0.5271
   95SOPE   H2112396   4.316   3.259   4.055  0.9887 -1.1493 -0.3205
   95SOPE   H2212397   4.215   3.166   4.156  0.4028  1.2035  0.9156
   95SOPE   C1312398   4.115   3.335   4.078 -0.1644 -0.6914 -0.4573
   95SOPE   H2312399   4.025   3.277   4.098  0.7991 -1.8861  0.5421
   95SOPE   H2412400   4.102   3.384   3.982 -2.0953 -2.7281 -1.2698
   95SOPE   C1412401   4.154   3.438   4.188 -0.1406  0.0460  0.8569
   95SOPE   H2512402   4.234   3.502   4.149  0.4711 -1.1255  0.1741
   95SOPE   H2612403   4.201   3.397   4.277  1.0126 -2.7066 -0.9630
   95SOPE   C1512404   4.036   3.521   4.233  0.2231 -0.1086 -0.3723
   95SOPE   H2712405   3.967   3.453   4.282  1.2042  0.5514  1.9998
   95SOPE   H2812406   3.984   3.553   4.142  1.5611  1.9113 -0.4816
   95SOPE   C1612407   4.067   3.640   4.320 -0.2297  0.1662  0.1182
   95SOPE   H2912408   3.979   3.704   4.314 -1.3684 -1.5499 -2.2777
   95SOPE   H3012409   4.154   3.692   4.280  0.6729 -2.0065 -0.8509
   95SOPE   C1712410   4.086   3.605   4.463  0.1113  0.8328  0.7895
   95SOPE   H3112411   4.180   3.551   4.465  0.6070  1.7278  2.4287
   95SOPE   H3212412   4.019   3.533   4.510  0.6318  1.9523  3.3507
   95SOPE   C1812413   4.077   3.721   4.563 -0.0151 -0.1176 -0.2015
   95SOPE   H3312414   4.144   3.803   4.539 -1.1755  1.1471  0.7943
   95SOPE   H3412415   4.118   3.675   4.653 -1.6300  1.4374  1.3884
   95SOPE   C1912416   3.936   3.780   4.589 -0.3580 -0.0812  0.0089
   95SOPE   H3512417   3.865   3.770   4.509  0.7068 -0.4165 -0.8955
   95SOPE   C2012418   3.898   3.818   4.710  0.2728  0.6651 -0.1565
   95SOPE   H3612419   3.794   3.847   4.717 -0.2536 -0.7246 -1.8936
   95SOPE   C2112420   3.983   3.823   4.836 -0.3891  0.2825 -0.2239
   95SOPE   H3712421   4.071   3.887   4.828  0.7865 -0.6489  4.1737
   95SOPE   H3812422   4.034   3.729   4.857 -1.8958 -0.6455 -0.6648
   95SOPE   C2212423   3.905   3.868   4.958  0.4771  0.4174 -0.7547
   95SOPE   H3912424   3.831   3.792   4.984 -1.2310  2.2345 -0.2703
   95SOPE   H4012425   3.855   3.961   4.933 -0.6938  0.2284  0.7904
   95SOPE   C2312426   3.987   3.894   5.083 -0.3942 -0.1736  0.6896
   95SOPE   H4112427   3.994   4.001   5.102 -0.3271 -0.7871  4.6917
   95SOPE   H4212428   4.084   3.845   5.084 -0.3512 -0.0734  1.9792
   95SOPE   C2412429   3.923   3.832   5.208  0.7467 -0.0258  0.6260
   95SOPE   H4312430   3.930   3.724   5.205  2.8235  0.1116 -0.2528
   95SOPE   H4412431   3.820   3.868   5.208  0.6986 -0.1489  1.0446
   95SOPE   C2512432   3.981   3.894   5.334 -0.5601  0.2664  0.3847
   95SOPE   H4512433   4.006   3.997   5.309 -0.7112 -0.9265 -5.3793
   95SOPE   H4612434   4.078   3.846   5.345 -0.4378 -0.0099 -1.7191
   95SOPE   C2612435   3.903   3.871   5.466  0.3626 -0.0008 -0.8058
   95SOPE   H4712436   3.823   3.945   5.465 -0.3019 -0.5161  3.7080
   95SOPE   H4812437   3.853   3.774   5.461 -0.4203  0.4600 -2.1216
   95SOPE   C2712438   3.994   3.879   5.591 -0.6039  0.5223  0.0447
   95SOPE   H4912439   4.029   3.982   5.598  3.7533 -0.8367 -0.4245
   95SOPE   H5012440   4.076   3.807   5.597  0.6848  1.9835  0.3960
   95SOPE   C2712441   3.906   3.849   5.711 -0.6556 -0.4518 -1.4332
   95SOPE   H5112442   3.968   3.859   5.800 -0.5067  2.1521 -1.7795
   95SOPE   H5212443   3.828   3.922   5.730 -0.2664 -0.5585  0.7210
   95SOPE   H5312444   3.866   3.748   5.715 -0.0207 -0.6263  1.7748
   95SOPE   C2912445   4.668   3.261   3.972  0.2104  0.2565 -0.2037
   95SOPE   H5412446   4.589   3.265   4.047  1.5907  4.6539  1.2173
   95SOPE   H5512447   4.648   3.348   3.909  0.5182  1.9476  1.9661
   95SOPE   C3012448   4.799   3.298   4.046 -0.2798  0.4425  0.0118
   95SOPE   H5612449   4.792   3.402   4.077 -1.1180  0.6976 -1.0093
   95SOPE   H5712450   4.879   3.300   3.971 -0.4002 -0.0259 -0.1347
   95SOPE   C3112451   4.847   3.200   4.158  0.3163 -0.7641  0.0060
   95SOPE   H5812452   4.902   3.122   4.106 -0.9496 -0.8223 -1.2837
   95SOPE   H5912453   4.766   3.156   4.215  1.7626  0.2116  2.8836
   95SOPE   C3212454   4.938   3.292   4.246  0.5147  1.1980  0.2843
   95SOPE   H6012455   4.997   3.362   4.187  1.7786  0.0049  0.1046
   95SOPE   H6112456   5.018   3.241   4.299 -1.0419 -2.5784 -0.8426
   95SOPE   C3312457   4.857   3.368   4.354  0.1016 -0.4452  0.3475
   95SOPE   H6212458   4.767   3.409   4.309  1.2794 -1.1192 -2.7100
   95SOPE   H6312459   4.912   3.455   4.390  0.8075 -1.9090  2.9902
   95SOPE   C3412460   4.817   3.277   4.472 -0.2099 -1.2301 -0.3301
   95SOPE   H6412461   4.910   3.241   4.516 -0.2857 -0.8509  0.1479
   95SOPE   H6512462   4.755   3.196   4.434 -1.6231  1.0913 -3.1508
   95SOPE   C3512463   4.730   3.348   4.569  0.1375  0.3797 -0.1836
   95SOPE   H6612464   4.637   3.378   4.521 -1.0955  0.6147  2.2223
   95SOPE   H6712465   4.788   3.428   4.616 -0.1079 -0.9052  2.4142
   95SOPE   C3612466   4.692   3.251   4.683  0.0200 -0.0058 -0.6826
   95SOPE   H6812467   4.779   3.193   4.714 -0.3528 -0.1507  0.1044
   95SOPE   H6912468   4.624   3.172   4.650 -1.9313  0.1682  2.6689
   95SOPE   C3712469   4.636   3.325   4.802  0.2986 -0.6062  0.3532
   95SOPE   H7012470   4.543   3.378   4.778  0.3179 -0.4687  0.5769
   95SOPE   H7112471   4.701   3.403   4.842 -0.2746 -0.3554  0.8196
   95SOPE   C3812472   4.609   3.226   4.917 -0.4145  0.0784  0.1623
   95SOPE   H7212473   4.705   3.182   4.945 -1.1705 -3.1708 -1.9903
   95SOPE   H7312474   4.558   3.140   4.874 -0.5204 -0.3623  1.1666
   95SOPE   C3912475   4.517   3.272   5.031 -0.5477  0.4885  0.0925
   95SOPE   H7412476   4.429   3.310   4.979 -1.8425 -0.8057  1.3276
   95SOPE   H7512477   4.564   3.352   5.089 -0.8359  1.0146 -0.3958
   95SOPE   C4012478   4.495   3.165   5.131  0.5181 -0.3594  0.0729
   95SOPE   H7612479   4.588   3.133   5.178  0.9834 -1.7440 -1.7614
   95SOPE   H7712480   4.471   3.076   5.072 -1.4566  0.8117 -0.9517
   95SOPE   C4112481   4.381   3.182   5.236 -0.2500 -0.2794 -0.3503
   95SOPE   H7812482   4.282   3.197   5.192 -0.2068  0.4565 -0.2149
   95SOPE   H7912483   4.410   3.266   5.300  0.4078 -0.9823  0.2709
   95SOPE   C4212484   4.367   3.048   5.323  0.4739 -0.3587 -0.5337
   95SOPE   H8012485   4.464   2.998   5.317  0.1521 -0.9639 -0.6900
   95SOPE   H8112486   4.297   2.978   5.279 -1.4952  0.4399  1.2740
   95SOPE   C4312487   4.339   3.077   5.471  0.7280  0.9183 -0.5828
   95SOPE   H8212488   4.360   3.182   5.495  0.0169  0.4515  2.2549
   95SOPE   H8312489   4.231   3.065   5.482  0.8844  0.9345  1.1638
   95SOPE   C4412490   4.399   2.982   5.571 -0.2475  0.1480 -0.6096
   95SOPE   H8412491   4.384   2.882   5.530  0.0486 -0.0081 -0.3465
   95SOPE   H8512492   4.505   3.008   5.574 -0.6196  1.5827  1.7163
   95SOPE   H8612493   4.365   2.981   5.675  0.7495 -1.5374 -0.2811
   96SOPE    N112494   1.415   2.295   3.833  0.5669  0.5006  0.2181
   96SOPE    C112495   1.275   2.334   3.874  0.5379  0.2767  0.3219
   96SOPE    H112496   1.220   2.246   3.908 -0.4565 -0.4767 -3.0132
   96SOPE    H212497   1.221   2.367   3.785 -1.0903  0.7919  1.4807
   96SOPE    H312498   1.483   2.363   3.867  1.4998  0.0357 -0.6898
   96SOPE    H412499   1.412   2.297   3.732 -1.5681  1.9490  0.2748
   96SOPE    H512500   1.428   2.201   3.868  0.4284  0.8467  1.2192
   96SOPE    C512501   1.283   2.447   3.977 -0.2901 -0.0801  0.1402
   96SOPE   H1212502   1.322   2.411   4.073 -0.6839 -0.6777  0.0803
   96SOPE   H1312503   1.355   2.519   3.940  0.3810 -0.1127  1.3463
   96SOPE    P112504   1.046   2.494   4.072 -0.1457 -0.3664  0.0568
   96SOPE    O112505   0.951   2.601   4.045  0.1175 -0.1748  0.5575
   96SOPE    O212506   1.008   2.353   4.052 -0.8262  0.1218  0.9493
   96SOPE    O312507   1.175   2.528   3.990  0.1025  0.4543  0.1693
   96SOPE    O412508   1.080   2.495   4.228 -0.3662 -0.1416  0.3933
   96SOPE    C612509   1.131   2.598   4.299  0.6038  0.8496  0.0904
   96SOPE   H1412510   1.056   2.648   4.361 -0.9733 -2.0751  0.6224
   96SOPE   H1512511   1.154   2.681   4.232 -0.3320 -0.0882 -1.4079
   96SOPE    C712512   1.258   2.565   4.385 -0.7270 -0.0628 -0.2635
   96SOPE   H1612513   1.330   2.528   4.312  1.5349  2.5231  0.5929
   96SOPE    O512514   1.225   2.469   4.489 -0.2987  0.0664  0.5480
   96SOPE    C812515   1.278   2.341   4.476 -0.2363 -0.1264 -0.0622
   96SOPE    O612516   1.348   2.299   4.386  0.1091  0.0536  0.7543
   96SOPE    C912517   1.221   2.248   4.577 -0.4467  0.0029 -0.2904
   96SOPE   H1712518   1.179   2.158   4.533 -0.3245  0.1659 -0.7452
   96SOPE   H1812519   1.141   2.292   4.636  0.8743 -0.5893  2.0059
   96SOPE   C1012520   1.318   2.695   4.442  0.0180 -0.0207 -0.2133
   96SOPE   H1912521   1.326   2.771   4.363  0.9624 -0.9764 -1.0575
   96SOPE   H2012522   1.418   2.674   4.480 -1.0708  0.6075  3.1786
   96SOPE    O712523   1.238   2.744   4.543  0.7407 -0.0718 -0.4297
   96SOPE   C1112524   1.255   2.873   4.585 -0.4243 -0.5322 -0.0366
   96SOPE    O812525   1.357   2.944   4.554 -0.0519  1.1023 -0.5082
   96SOPE   C1212526   1.176   2.915   4.709  0.3113 -0.3369  0.5278
   96SOPE   H2112527   1.077   2.870   4.704  0.1812 -0.0920  0.8468
   96SOPE   H2212528   1.164   3.024   4.708  0.8586 -0.2354  2.2343
   96SOPE   C1312529   1.233   2.878   4.843  0.1415  0.4634  0.4927
   96SOPE   H2312530   1.341   2.884   4.834  0.0255  1.1448 -0.5572
   96SOPE   H2412531   1.230   2.771   4.864 -1.0280  0.2388 -0.7335
   96SOPE   C1412532   1.169   2.962   4.947 -0.0663  0.2231  0.4492
   96SOPE   H2512533   1.061   2.969   4.937 -0.0487 -1.2098 -0.8906
   96SOPE   H2612534   1.205   3.065   4.946  0.2497  0.1484 -3.5730
   96SOPE   C1512535   1.198   2.901   5.087 -0.2666 -0.3606  0.5600
   96SOPE   H2712536   1.300   2.924   5.119 -0.2676  1.4142 -0.6892
   96SOPE   H2812537   1.179   2.793   5.082 -1.5214 -0.0309 -2.5053
   96SOPE   C1612538   1.109   2.967   5.201  0.3901 -0.2976  0.3191
   96SOPE   H2912539   1.008   2.987   5.167  0.6057  1.0650  0.4172
   96SOPE   H3012540   1.162   3.060   5.224 -2.4111  1.4323  0.0667
   96SOPE   C1712541   1.110   2.894   5.333  0.6190  0.5477  0.8076
   96SOPE   H3112542   1.209   2.873   5.373  0.9580 -0.1346 -0.3798
   96SOPE   H3212543   1.073   2.796   5.303  1.8557  0.5780 -0.8695
   96SOPE   C1812544   1.014   2.950   5.430  0.0348  0.1805 -0.3281
   96SOPE   H3312545   0.963   2.873   5.489 -1.7729  1.3817 -0.2892
   96SOPE   H3412546   0.937   2.996   5.369 -1.4089 -3.5504 -1.5024
   96SOPE   C1912547   1.083   3.053   5.518 -0.5357 -0.3431  0.5047
   96SOPE   H3512548   1.143   3.129   5.472 -0.8367 -0.4417 -0.0573
   96SOPE   C2012549   1.084   3.055   5.653 -0.6177  0.0162 -0.7214
   96SOPE   H3612550   1.131   3.138   5.704 -0.3715 -0.7987  0.3870
   96SOPE   C2112551   1.017   2.950   5.739 -0.1860  0.0151 -0.3681
   96SOPE   H3712552   1.072   2.939   5.833 -1.2207 -0.1270  0.2342
   96SOPE   H3812553   1.018   2.853   5.689 -0.9101 -0.6506  0.8881
   96SOPE   C2212554   0.867   2.980   5.769 -0.4916  0.5877 -0.1879
   96SOPE   H3912555   0.812   2.886   5.777  2.9997 -1.4114  1.4684
   96SOPE   H4012556   0.822   3.039   5.689 -2.4292 -1.7174 -0.8620
   96SOPE   C2312557   0.840   3.059   5.897 -0.1557 -0.3248 -0.1420
   96SOPE   H4112558   0.739   3.099   5.898 -0.6534 -1.5579  2.0672
   96SOPE   H4212559   0.917   3.135   5.910 -0.9856  0.7532 -1.4111
   96SOPE   C2412560   0.855   2.977   6.020  0.0057 -0.1656 -0.4950
   96SOPE   H4312561   0.962   2.959   6.036 -0.4217 -0.8226  1.8046
   96SOPE   H4412562   0.805   2.883   5.997 -0.4484  0.4392 -2.0608
   96SOPE   C2512563   0.803   3.037   6.149  0.2289  1.1215 -0.2876
   96SOPE   H4512564   0.792   2.952   6.217 -0.1350  0.6250 -0.9649
   96SOPE   H4612565   0.703   3.069   6.121  0.4161  2.5456  0.6131
   96SOPE   C2612566   0.878   3.160   6.207  0.2808  0.2751 -0.0877
   96SOPE   H4712567   0.978   3.133   6.239  0.6276  1.8397  0.1652
   96SOPE   H4812568   0.908   3.239   6.138  1.5430  0.0357  0.1743
   96SOPE   C2712569   0.820   3.216   6.332  0.2380  0.2978 -0.6841
   96SOPE   H4912570   0.724   3.268   6.326  0.6041  0.8885 -1.5424
   96SOPE   H5012571   0.882   3.297   6.371  0.3853  0.2546 -0.8271
   96SOPE   C2712572   0.809   3.107   6.446  0.3686 -0.2561  0.6223
   96SOPE   H5112573   0.901   3.052   6.466  1.6081  2.0909  1.6092
   96SOPE   H5212574   0.768   3.152   6.536  0.0277 -2.1448  1.4334
   96SOPE   H5312575   0.727   3.042   6.414 -0.6013  2.2385 -2.1879
   96SOPE   C2912576   1.329   2.206   4.675  0.1613 -0.2706 -0.4129
   96SOPE   H5412577   1.429   2.204   4.633  0.3616  0.0733  0.0517
   96SOPE   H5512578   1.310   2.100   4.695  1.7721 -0.7058 -1.1470
   96SOPE   C3012579   1.353   2.281   4.804 -0.7074  0.1867  1.4513
   96SOPE   H5612580   1.441   2.233   4.846 -0.4862 -0.5007  0.1988
   96SOPE   H5712581   1.275   2.256   4.876 -2.2844 -2.8089 -1.1958
   96SOPE   C3112582   1.367   2.431   4.790 -0.3634 -0.1454  0.2830
   96SOPE   H5812583   1.273   2.476   4.759  0.6824  0.8679 -1.4997
   96SOPE   H5912584   1.445   2.452   4.716 -0.4201 -1.4130 -0.1492
   96SOPE   C3212585   1.407   2.510   4.920  0.3069 -0.4182 -0.2563
   96SOPE   H6012586   1.404   2.615   4.891 -0.4140 -0.5873 -0.7997
   96SOPE   H6112587   1.510   2.495   4.955  1.0733 -0.1897 -2.3412
   96SOPE   C3312588   1.307   2.488   5.033  0.3512  0.0057  0.0241
   96SOPE   H6212589   1.307   2.380   5.048  0.3734  0.3811  3.0364
   96SOPE   H6312590   1.206   2.512   4.998 -0.1554 -1.7009  0.2827
   96SOPE   C3412591   1.353   2.562   5.163 -0.9044  0.3359 -0.4439
   96SOPE   H6412592   1.316   2.665   5.160 -1.5177  0.0686 -3.2776
   96SOPE   H6512593   1.461   2.564   5.173 -0.8969  1.0734 -0.6442
   96SOPE   C3512594   1.300   2.489   5.282 -0.2676 -0.5750  0.4644
   96SOPE   H6612595   1.340   2.388   5.294  0.7576  0.0396  2.4461
   96SOPE   H6712596   1.192   2.485   5.293 -0.2331 -0.1554  0.9952
   96SOPE   C3612597   1.353   2.568   5.409  1.3072  0.7499  0.3489
   96SOPE   H6812598   1.296   2.657   5.434  1.1985  0.7654  0.0560
   96SOPE   H6912599   1.448   2.617   5.385  1.9729  1.6320  4.3848
   96SOPE   C3712600   1.382   2.483   5.524  0.1053 -0.0736 -0.0103
   96SOPE   H7012601   1.440   2.528   5.605  2.8908  0.0343 -2.0037
   96SOPE   H7112602   1.433   2.394   5.487 -1.5491 -1.1072  0.1279
   96SOPE   C3812603   1.249   2.426   5.583  0.2049 -0.3554 -0.1052
   96SOPE   H7212604   1.264   2.335   5.641  0.9501  0.1556  0.5152
   96SOPE   H7312605   1.176   2.404   5.505 -1.3241 -1.2928  1.5502
   96SOPE   C3912606   1.171   2.509   5.687  0.7496  0.2247  0.1123
   96SOPE   H7412607   1.080   2.450   5.700 -1.3206  2.8803 -1.7398
   96SOPE   H7512608   1.134   2.600   5.639  2.2469  0.0237 -1.4882
   96SOPE   C4012609   1.247   2.539   5.808 -0.3588  0.7412 -0.6911
   96SOPE   H7612610   1.352   2.563   5.795 -0.5842  0.6501 -2.8906
   96SOPE   H7712611   1.253   2.448   5.867 -1.0204  2.0257  1.4254
   96SOPE   C4112612   1.164   2.629   5.901  0.1390  0.5887 -0.3410
   96SOPE   H7812613   1.063   2.593   5.916  0.9457 -1.0161  1.4073
   96SOPE   H7912614   1.135   2.719   5.846 -1.3280  0.6036  0.4430
   96SOPE   C4212615   1.220   2.670   6.038 -0.0815 -0.0935 -0.2732
   96SOPE   H8012616   1.241   2.582   6.099 -1.5203  0.1061  0.5363
   96SOPE   H8112617   1.144   2.715   6.102  0.1415 -1.6738  1.1369
   96SOPE   C4312618   1.336   2.767   6.034 -0.1595 -0.4979 -1.5412
   96SOPE   H8212619   1.370   2.773   6.138 -0.7259 -1.4887 -1.2868
   96SOPE   H8312620   1.415   2.711   5.985  1.0702  0.7673 -1.0339
   96SOPE   C4412621   1.310   2.904   5.970 -0.4223  0.6653  0.0784
   96SOPE   H8412622   1.240   2.952   6.039  0.7260  2.7261 -0.1453
   96SOPE   H8512623   1.399   2.966   5.980  0.5981 -0.2190 -2.8047
   96SOPE   H8612624   1.271   2.894   5.868 -0.9104  1.1888  0.2079
   97SOPE    N112625   1.064   4.402   3.770 -0.2291  0.3098  0.0432
   97SOPE    C112626   1.165   4.503   3.800 -0.2125 -1.2008 -0.4707
   97SOPE    H112627   1.149   4.584   3.728 -3.9990 -2.7841 -1.5465
   97SOPE    H212628   1.263   4.459   3.785  1.1527  1.5291  0.0605
   97SOPE    H312629   1.089   4.322   3.826  2.6345  1.6885  0.8378
   97SOPE    H412630   1.071   4.395   3.670 -3.5735  3.2799 -0.5125
   97SOPE    H512631   0.975   4.440   3.798  0.2182  1.4729 -0.0853
   97SOPE    C512632   1.177   4.558   3.939 -0.2400 -0.0910  0.5834
   97SOPE   H1212633   1.179   4.478   4.014 -0.2985  0.7924  1.5380
   97SOPE   H1312634   1.094   4.627   3.952 -1.0634 -0.9963  0.2602
   97SOPE    P112635   1.328   4.768   3.933  0.2407 -0.1506  0.0229
   97SOPE    O112636   1.467   4.789   3.904 -0.3592  0.3227  0.2195
   97SOPE    O212637   1.237   4.823   3.830  0.5614  0.1432  0.0162
   97SOPE    O312638   1.305   4.615   3.943 -0.2952 -0.1596  0.5707
   97SOPE    O412639   1.287   4.818   4.078 -0.0686  0.8419  0.1315
   97SOPE    C612640   1.344   4.765   4.191 -0.1822  0.0240  0.0402
   97SOPE   H1412641   1.358   4.657   4.188 -1.6802 -0.1973  0.6405
   97SOPE   H1512642   1.273   4.773   4.273  2.4781 -2.2512  2.7035
   97SOPE    C712643   1.465   4.843   4.230 -0.0477  0.8130  0.2828
   97SOPE   H1612644   1.540   4.822   4.154 -0.9635  0.2788 -0.4737
   97SOPE    O512645   1.498   4.781   4.357 -0.4602  0.6214  0.1196
   97SOPE    C812646   1.624   4.775   4.397  0.0914  0.1492 -0.0692
   97SOPE    O612647   1.723   4.812   4.339  0.8551  0.3204  0.1899
   97SOPE    C912648   1.642   4.686   4.516 -0.2573  0.4051 -0.2697
   97SOPE   H1712649   1.610   4.587   4.484 -1.4605  1.1112 -1.2676
   97SOPE   H1812650   1.583   4.733   4.594  0.6008 -0.6010  1.0197
   97SOPE   C1012651   1.434   4.994   4.233  0.0316 -0.2263 -0.3566
   97SOPE   H1912652   1.327   5.003   4.251  0.3024 -0.1522  1.3443
   97SOPE   H2012653   1.454   5.031   4.132 -0.7249 -2.8169 -1.4956
   97SOPE    O712654   1.508   5.057   4.337  0.1124  0.5794 -0.2488
   97SOPE   C1112655   1.541   5.184   4.342 -0.2982 -0.1686  0.7958
   97SOPE    O812656   1.475   5.269   4.280 -0.4091 -0.2503  0.1095
   97SOPE   C1212657   1.632   5.221   4.459  0.1879 -0.3133  0.2286
   97SOPE   H2112658   1.730   5.193   4.422  1.0784  0.8065  1.7096
   97SOPE   H2212659   1.625   5.147   4.539  0.7263  0.3964  0.9436
   97SOPE   C1312660   1.601   5.365   4.504  0.5226  0.8016 -0.4446
   97SOPE   H2312661   1.494   5.385   4.502  0.5274  0.8566 -0.2216
   97SOPE   H2412662   1.634   5.429   4.422  2.6665  0.0002 -0.2367
   97SOPE   C1412663   1.674   5.391   4.641 -0.2620 -0.4480 -0.3769
   97SOPE   H2512664   1.671   5.497   4.669 -1.3966 -0.5395 -0.1281
   97SOPE   H2612665   1.780   5.366   4.640 -0.5478 -1.8847  1.5419
   97SOPE   C1512666   1.603   5.322   4.759  0.4767  0.3661  0.2475
   97SOPE   H2712667   1.614   5.214   4.751  3.2235  0.6399  0.0751
   97SOPE   H2812668   1.495   5.337   4.751  0.6849  2.8165  1.3940
   97SOPE   C1612669   1.653   5.357   4.898  0.6458 -0.1006  0.3944
   97SOPE   H2912670   1.762   5.351   4.904  0.9747 -0.3481 -4.0256
   97SOPE   H3012671   1.613   5.269   4.949  1.9065 -3.5351 -4.2177
   97SOPE   C1712672   1.598   5.482   4.963  0.6563  0.1505  0.5049
   97SOPE   H3112673   1.489   5.483   4.959  0.6899  0.5290 -0.3781
   97SOPE   H3212674   1.639   5.567   4.909 -0.0115 -0.2101 -0.5738
   97SOPE   C1812675   1.645   5.498   5.102 -0.4148 -0.0741 -0.4619
   97SOPE   H3312676   1.618   5.598   5.136 -1.0382  0.0583 -1.3063
   97SOPE   H3412677   1.754   5.495   5.105 -0.4246  1.0986  2.2532
   97SOPE   C1912678   1.599   5.398   5.204  0.2352 -0.4559 -0.5785
   97SOPE   H3512679   1.634   5.299   5.179  2.2827 -0.4233  1.8943
   97SOPE   C2012680   1.496   5.397   5.289 -0.0408 -1.0591 -0.2800
   97SOPE   H3612681   1.472   5.310   5.349  1.4865 -1.8335 -0.7591
   97SOPE   C2112682   1.399   5.511   5.310 -0.3066  0.4115 -0.0735
   97SOPE   H3712683   1.306   5.454   5.307  0.6064 -1.0666 -0.6258
   97SOPE   H3812684   1.395   5.586   5.231  0.7693  1.0427  0.4575
   97SOPE   C2212685   1.427   5.585   5.444 -0.2698  0.3393 -0.0479
   97SOPE   H3912686   1.523   5.636   5.441 -0.5421  0.8722  0.1736
   97SOPE   H4012687   1.445   5.518   5.528  0.9651  0.9598  0.1962
   97SOPE   C2312688   1.318   5.688   5.465  0.3636  0.4636 -0.6223
   97SOPE   H4112689   1.222   5.636   5.455  0.8950 -0.7395  0.3945
   97SOPE   H4212690   1.326   5.760   5.384 -1.0736  1.2061 -0.1295
   97SOPE   C2412691   1.345   5.751   5.605  0.4567 -0.1291 -0.5040
   97SOPE   H4312692   1.449   5.783   5.614  0.4141  0.2676 -1.3221
   97SOPE   H4412693   1.322   5.677   5.682  1.5951 -0.3039 -0.3232
   97SOPE   C2512694   1.255   5.876   5.619  0.2059  0.5424 -0.0229
   97SOPE   H4512695   1.289   5.927   5.529  0.5323 -1.0001 -0.7972
   97SOPE   H4612696   1.281   5.923   5.714 -0.4847 -2.3370  1.6551
   97SOPE   C2612697   1.106   5.832   5.602  0.2421  0.3787  0.2913
   97SOPE   H4712698   1.080   5.824   5.497  2.7069  1.6086 -0.4516
   97SOPE   H4812699   1.083   5.734   5.643  0.5426 -1.1883 -3.1430
   97SOPE   C2712700   1.003   5.936   5.649  0.1916 -0.3870 -0.7096
   97SOPE   H4912701   1.037   0.084   5.612  0.4859  0.2801  1.2474
   97SOPE   H5012702   1.023   5.944   5.756  0.8390 -0.3049 -0.8327
   97SOPE   C2712703   0.864   5.901   5.602 -0.1483 -0.1292 -0.5570
   97SOPE   H5112704   0.870   5.862   5.500 -1.1944  2.7195 -1.7817
   97SOPE   H5212705   0.827   5.826   5.671  1.8932  0.0759  0.7915
   97SOPE   H5312706   0.787   0.030   5.593  0.5060  0.2175 -3.8221
   97SOPE   C2912707   1.787   4.670   4.565  0.0906  0.2995  0.3727
   97SOPE   H5412708   1.801   4.745   4.643 -2.3711  1.0108  0.1562
   97SOPE   H5512709   1.863   4.682   4.487 -1.1089 -0.6790 -0.9830
   97SOPE   C3012710   1.810   4.545   4.647 -0.7337 -0.8609  0.3241
   97SOPE   H5612711   1.910   4.565   4.685 -1.2039  0.4529  0.8919
   97SOPE   H5712712   1.808   4.451   4.591 -0.4470 -0.6663 -0.0163
   97SOPE   C3112713   1.723   4.540   4.772 -0.4420  0.1408 -0.1646
   97SOPE   H5812714   1.630   4.487   4.752  0.1531 -1.1601  0.4849
   97SOPE   H5912715   1.702   4.638   4.815 -1.1793 -1.0971  2.3480
   97SOPE   C3212716   1.794   4.480   4.895  0.3975  0.4827 -0.4728
   97SOPE   H6012717   1.877   4.545   4.921  0.6789  0.4263 -1.2363
   97SOPE   H6112718   1.845   4.384   4.889 -3.1039 -1.3143 -3.7222
   97SOPE   C3312719   1.697   4.480   5.018  0.0366  0.0489 -0.1588
   97SOPE   H6212720   1.605   4.426   4.995  0.7290 -1.2190 -0.0130
   97SOPE   H6312721   1.667   4.584   5.033  1.9077  0.3099  2.0972
   97SOPE   C3412722   1.764   4.427   5.141 -0.5787  0.1032 -0.5098
   97SOPE   H6412723   1.802   4.327   5.119  0.5178  0.3700  0.1658
   97SOPE   H6512724   1.692   4.421   5.223  0.1435  3.7050  0.4972
   97SOPE   C3512725   1.875   4.516   5.198 -0.3588 -0.4342 -0.0611
   97SOPE   H6612726   1.951   4.531   5.121 -0.5996  1.6964  0.0696
   97SOPE   H6712727   1.920   4.464   5.282 -2.6635 -3.2691 -0.5241
   97SOPE   C3612728   1.819   4.649   5.236 -0.5320 -0.2470  0.5702
   97SOPE   H6812729   1.710   4.650   5.246 -0.4965 -1.2080  1.1551
   97SOPE   H6912730   1.844   4.723   5.160  1.3500 -1.5248 -0.1033
   97SOPE   C3712731   1.882   4.711   5.364  0.0479 -0.1627 -0.5627
   97SOPE   H7012732   1.822   4.801   5.379 -3.2628 -2.4447  0.5079
   97SOPE   H7112733   1.983   4.741   5.335  0.4740 -0.4390  0.6007
   97SOPE   C3812734   1.889   4.625   5.493  0.1641 -0.1759 -0.0318
   97SOPE   H7212735   1.900   4.687   5.582  0.9761 -2.5568  1.5900
   97SOPE   H7312736   1.980   4.564   5.492  1.8531  2.2659 -0.7272
   97SOPE   C3912737   1.764   4.541   5.503  0.0812 -0.5397  0.0464
   97SOPE   H7412738   1.763   4.472   5.418  1.2785 -1.8739  1.0894
   97SOPE   H7512739   1.673   4.600   5.496 -1.8377 -3.5313 -1.4184
   97SOPE   C4012740   1.739   4.454   5.620 -0.1600 -0.1831 -0.3867
   97SOPE   H7612741   1.646   4.401   5.602  1.2054 -2.9266  0.2405
   97SOPE   H7712742   1.724   4.517   5.708 -0.2782 -1.7055  0.7092
   97SOPE   C4112743   1.843   4.344   5.659 -0.2828 -0.7885  0.6202
   97SOPE   H7812744   1.808   4.291   5.748 -0.2508  0.3149  1.3083
   97SOPE   H7912745   1.937   4.395   5.681 -0.1892  0.5609 -2.6702
   97SOPE   C4212746   1.860   4.243   5.546  0.4530 -0.3778 -0.2167
   97SOPE   H8012747   1.951   4.193   5.577  0.3157 -0.4991 -0.0011
   97SOPE   H8112748   1.888   4.299   5.457 -1.3241  0.1346 -0.4914
   97SOPE   C4312749   1.745   4.147   5.532  0.5587  0.3704 -0.1266
   97SOPE   H8212750   1.723   4.110   5.632 -1.1145 -1.3937 -1.1038
   97SOPE   H8312751   1.657   4.204   5.504 -0.0399  0.5887  2.0780
   97SOPE   C4412752   1.762   4.024   5.442 -0.0725  0.7550 -0.5774
   97SOPE   H8412753   1.668   3.969   5.440 -0.4880  1.4683 -3.2619
   97SOPE   H8512754   1.782   4.054   5.339  1.2107 -0.5095 -0.7134
   97SOPE   H8612755   1.842   3.956   5.469 -2.2511 -1.8721 -0.5300
   98SOPE    N112756   3.964   0.959   3.269 -0.2451 -0.3773 -0.1128
   98SOPE    C112757   3.842   0.888   3.317 -0.0359  0.0270 -0.2949
   98SOPE    H112758   3.776   0.835   3.248 -0.6358  0.5494 -0.1257
   98SOPE    H212759   3.780   0.964   3.364 -0.2793  0.0982 -0.7229
   98SOPE    H312760   4.048   0.920   3.309  0.2058  0.5288 -0.1464
   98SOPE    H412761   3.953   1.052   3.307 -1.1202  0.0242 -1.3025
   98SOPE    H512762   3.947   0.948   3.170 -3.2664 -1.3675  0.4763
   98SOPE    C512763   3.880   0.782   3.422  0.4000 -0.0547 -0.1977
   98SOPE   H1212764   3.916   0.828   3.514  0.0585  2.9989 -1.5526
   98SOPE   H1312765   3.965   0.725   3.385  0.9484  0.7831 -0.2464
   98SOPE    P112766   3.674   0.726   3.586  0.2141  0.1060 -0.0644
   98SOPE    O112767   3.641   0.870   3.578  0.0116  0.1952  0.6937
   98SOPE    O212768   3.566   0.632   3.589  0.2073 -0.3724  0.3880
   98SOPE    O312769   3.770   0.702   3.458  0.9408  0.5005  0.8591
   98SOPE    O412770   3.768   0.706   3.714  0.4856 -0.4832 -0.5598
   98SOPE    C612771   3.833   0.574   3.730  0.4046  0.3008  0.1396
   98SOPE   H1412772   3.939   0.577   3.756  0.2605 -0.0837  0.7995
   98SOPE   H1512773   3.834   0.517   3.637 -0.2238  2.8020 -1.4412
   98SOPE    C712774   3.757   0.480   3.826 -1.0671  0.7035  0.3871
   98SOPE   H1612775   3.658   0.445   3.795 -1.0161  1.4772 -0.6803
   98SOPE    O512776   3.755   0.543   3.953  0.3101  0.0050 -0.0852
   98SOPE    C812777   3.643   0.573   4.015 -1.3225 -0.4509  0.0151
   98SOPE    O612778   3.532   0.527   3.982  0.1169 -0.5990  0.3532
   98SOPE    C912779   3.667   0.661   4.139 -0.2419  0.7445 -0.3224
   98SOPE   H1712780   3.584   0.732   4.147 -0.8564  0.0048  0.0078
   98SOPE   H1812781   3.749   0.728   4.114  0.2931  0.5030  0.7818
   98SOPE   C1012782   3.837   0.348   3.848 -0.2309 -0.2061  0.5583
   98SOPE   H1912783   3.933   0.363   3.898  0.1994 -0.7060 -0.1248
   98SOPE   H2012784   3.863   0.301   3.753  0.0366  1.5865 -0.2790
   98SOPE    O712785   3.758   0.249   3.914 -0.1599 -0.3572  0.2263
   98SOPE   C1112786   3.790   0.114   3.906 -0.4136 -0.0985  0.3933
   98SOPE    O812787   3.859   0.055   3.823  0.0666  0.4167 -0.2524
   98SOPE   C1212788   3.709   0.039   4.010  0.7028  0.5457 -0.7098
   98SOPE   H2112789   3.636   5.923   3.961  0.6411 -0.9158  1.2751
   98SOPE   H2212790   3.654   0.113   4.068 -0.2609 -0.3544 -0.4521
   98SOPE   C1312791   3.801   5.888   4.090 -0.1296 -0.8967  0.2448
   98SOPE   H2312792   3.855   5.838   4.009  1.1129 -0.6630  0.9186
   98SOPE   H2412793   3.757   5.805   4.144 -1.8517  0.7476  1.4385
   98SOPE   C1412794   3.907   0.013   4.184  0.1001  0.3250  0.3445
   98SOPE   H2512795   3.970   0.084   4.132 -1.7564  0.7248 -1.4169
   98SOPE   H2612796   3.981   5.891   4.221  0.1582 -0.8139 -1.9183
   98SOPE   C1512797   3.844   0.085   4.303  0.1278  0.0861  0.2495
   98SOPE   H2712798   3.735   0.082   4.312 -0.0921 -1.0726 -2.5066
   98SOPE   H2812799   3.857   0.193   4.297 -0.0313  0.1578  1.0852
   98SOPE   C1612800   3.905   0.048   4.435 -0.1281 -0.0410 -0.1663
   98SOPE   H2912801   3.999   0.102   4.440 -0.8739  1.2167  0.4299
   98SOPE   H3012802   3.922   5.889   4.441 -0.1153 -0.0454 -0.2756
   98SOPE   C1712803   3.823   0.080   4.564 -0.9208 -0.2713  0.1550
   98SOPE   H3112804   3.748   0.004   4.586 -0.3534 -0.9770 -0.3322
   98SOPE   H3212805   3.768   0.169   4.535  1.0538  0.4592 -1.4720
   98SOPE   C1812806   3.914   0.092   4.681  0.1020  0.4293 -0.6513
   98SOPE   H3312807   3.980   0.177   4.664 -0.2902  1.0728  0.9024
   98SOPE   H3412808   3.969   5.947   4.693  0.3992  0.7501  0.5656
   98SOPE   C1912809   3.842   0.127   4.814 -0.2409  0.6570  0.6059
   98SOPE   H3512810   3.736   0.110   4.805 -0.0852  0.2913 -0.5745
   98SOPE   C2012811   3.897   0.167   4.927 -0.2790  0.1755  0.0842
   98SOPE   H3612812   3.835   0.183   5.015 -0.2191 -0.1800  0.1932
   98SOPE   C2112813   4.038   0.202   4.961  0.0729 -0.7004  0.3939
   98SOPE   H3712814   4.108   0.184   4.879 -0.2061  3.8152 -0.9627
   98SOPE   H3812815   4.087   0.147   5.041  2.1309  0.4910 -0.0082
   98SOPE   C2212816   4.048   0.346   5.001  0.3761  0.8212 -0.2661
   98SOPE   H3912817   3.959   0.380   5.054  1.3904  1.6432  0.9330
   98SOPE   H4012818   4.064   0.395   4.905  1.7036  1.5050  0.2801
   98SOPE   C2312819   4.176   0.389   5.086 -0.1668  0.1739  0.0980
   98SOPE   H4112820   4.265   0.358   5.031 -0.4852 -0.6937  0.0606
   98SOPE   H4212821   4.184   0.331   5.178  3.9913  0.4587  0.0077
   98SOPE   C2412822   4.203   0.539   5.124  0.2953 -0.0028 -0.0792
   98SOPE   H4312823   4.227   0.592   5.032 -1.8579  1.5246  0.1998
   98SOPE   H4412824   4.279   0.542   5.202 -1.1575 -0.4337  1.3750
   98SOPE   C2512825   4.082   0.598   5.189  0.1181 -0.2164  0.4972
   98SOPE   H4512826   4.049   0.539   5.274  1.3664  0.1236  1.2366
   98SOPE   H4612827   4.001   0.594   5.116  0.4226  1.4606  0.0512
   98SOPE   C2612828   4.111   0.736   5.245 -0.6745 -0.0381 -0.5858
   98SOPE   H4712829   4.205   0.729   5.299 -0.4615 -1.1645 -1.0952
   98SOPE   H4812830   4.130   0.813   5.171 -0.8803  2.3348  1.7563
   98SOPE   C2712831   4.007   0.789   5.343 -0.4787 -0.0629  0.5564
   98SOPE   H4912832   4.034   0.888   5.380  2.2450  0.0319 -1.5080
   98SOPE   H5012833   3.996   0.717   5.425  0.8566  0.8758  1.5864
   98SOPE   C2712834   3.868   0.805   5.278  0.9257 -0.4153 -0.1509
   98SOPE   H5112835   3.806   0.718   5.257  0.0067 -0.2551  1.7989
   98SOPE   H5212836   3.797   0.858   5.342  1.1706  0.5557 -0.6731
   98SOPE   H5312837   3.875   0.862   5.185  0.3181 -0.3916 -0.1875
   98SOPE   C2912838   3.689   0.592   4.278 -0.0393 -0.1453 -0.5403
   98SOPE   H5412839   3.592   0.559   4.317 -0.2510  0.4379 -0.5695
   98SOPE   H5512840   3.722   0.673   4.343  3.4977 -0.9819 -1.1804
   98SOPE   C3012841   3.803   0.490   4.280 -0.2700 -1.1826  0.3824
   98SOPE   H5612842   3.764   0.396   4.240  0.9747 -1.4203 -0.3146
   98SOPE   H5712843   3.824   0.458   4.382  1.2369 -0.4580  0.3150
   98SOPE   C3112844   3.937   0.526   4.213  0.3096 -0.1866 -0.1462
   98SOPE   H5812845   3.981   0.601   4.279 -0.9436 -0.9080  1.5226
   98SOPE   H5912846   3.928   0.585   4.121 -1.1605  0.4933  0.4309
   98SOPE   C3212847   4.041   0.411   4.196 -0.1667 -0.0250  0.4060
   98SOPE   H6012848   3.988   0.327   4.150 -0.4546  0.2372  0.2567
   98SOPE   H6112849   4.074   0.377   4.294  1.1076 -1.4517 -0.4962
   98SOPE   C3312850   4.158   0.450   4.094  0.5288  0.4639 -0.5865
   98SOPE   H6212851   4.103   0.492   4.009 -1.1136  0.5419  0.4745
   98SOPE   H6312852   4.213   0.365   4.056  1.9491  0.9978  0.2283
   98SOPE   C3412853   4.254   0.553   4.158  0.1842 -0.0386 -1.0602
   98SOPE   H6412854   4.307   0.514   4.246  0.0232 -0.1679 -1.0194
   98SOPE   H6512855   4.193   0.639   4.187 -1.1796 -0.8625 -1.4583
   98SOPE   C3512856   4.365   0.585   4.061 -0.0828 -0.3378 -0.3243
   98SOPE   H6612857   4.316   0.609   3.967 -0.6981  1.0593  0.3412
   98SOPE   H6712858   4.419   0.491   4.047  0.5345  0.4038 -3.3410
   98SOPE   C3612859   4.465   0.688   4.106 -0.1509  0.8043 -0.1626
   98SOPE   H6812860   4.514   0.666   4.201  0.6609  1.5710 -0.4010
   98SOPE   H6912861   4.411   0.782   4.116 -0.5702  0.4315  1.1990
   98SOPE   C3712862   4.574   0.722   4.006  0.9161  0.3240  0.1997
   98SOPE   H7012863   4.557   0.724   3.899 -0.1307  0.1560  0.3570
   98SOPE   H7112864   4.656   0.650   4.007  1.4017  0.8721 -0.5125
   98SOPE   C3812865   4.639   0.854   4.043  0.3630 -0.9499 -0.2921
   98SOPE   H7212866   4.643   0.866   4.151  1.8203  3.3077 -0.7239
   98SOPE   H7312867   4.573   0.930   4.002  0.1323 -0.4526  0.9788
   98SOPE   C3912868   4.780   0.866   3.968  0.1877  0.5854 -0.1739
   98SOPE   H7412869   4.750   0.884   3.865 -0.1317 -1.7316 -0.5318
   98SOPE   H7512870   4.824   0.766   3.966 -1.2477 -0.0617 -0.5709
   98SOPE   C4012871   4.870   0.983   4.011 -0.4467  0.9860 -0.1923
   98SOPE   H7612872   4.806   1.070   3.999 -1.3312  0.0893 -2.1616
   98SOPE   H7712873   4.953   0.989   3.941 -0.0883  0.3757  0.1718
   98SOPE   C4112874   4.903   0.957   4.158  0.7383 -0.2651  0.5347
   98SOPE   H7812875   4.947   0.857   4.165 -0.9372 -1.1196 -0.7349
   98SOPE   H7912876   4.815   0.961   4.222 -0.3181  1.5873 -0.9667
   98SOPE   C4212877   4.995   1.066   4.210  0.2143 -0.0498  0.1512
   98SOPE   H8012878   4.956   1.165   4.187  2.8590  1.2151  0.8571
   98SOPE   H8112879   5.093   1.050   4.165  1.0778  2.9454  0.8494
   98SOPE   C4312880   5.010   1.052   4.357  0.6816 -0.1933  0.2781
   98SOPE   H8212881   5.036   0.949   4.380 -0.5931 -1.4214 -3.4431
   98SOPE   H8312882   5.092   1.114   4.394  1.1293 -0.9264  0.5157
   98SOPE   C4412883   4.886   1.090   4.431  0.1070  0.3484 -0.0414
   98SOPE   H8412884   4.855   1.192   4.410  0.8997  0.3245 -1.3604
   98SOPE   H8512885   4.800   1.028   4.407  1.1009 -0.9383 -0.3311
   98SOPE   H8612886   4.899   1.091   4.540 -0.8448 -0.5470  0.0848
   99SOPE    N112887   5.813   0.579   3.368 -0.2729 -0.3900  0.0050
   99SOPE    C112888   5.751   0.447   3.380 -0.2834  0.0348 -0.0382
   99SOPE    H112889   5.811   0.381   3.443 -0.8131  0.1572  0.6103
   99SOPE    H212890   5.736   0.405   3.281  1.1068  1.0167 -0.6898
   99SOPE    H312891   5.801   0.608   3.464  1.2389  1.7377 -0.4043
   99SOPE    H412892   5.772   0.634   3.295 -0.1352 -0.1152  0.1337
   99SOPE    H512893   5.910   0.556   3.351  0.5358  0.2204  3.3917
   99SOPE    C512894   5.614   0.457   3.460 -0.0367  0.4653 -0.5460
   99SOPE   H1212895   5.546   0.527   3.413 -0.5294  0.5145  0.2425
   99SOPE   H1312896   5.630   0.496   3.560  1.3643  1.0936 -1.0022
   99SOPE    P112897   5.568   0.245   3.600  0.0282 -0.0532  0.0596
   99SOPE    O112898   5.487   0.126   3.585  0.3592 -0.3951 -0.8971
   99SOPE    O212899   5.707   0.230   3.643  0.5365 -0.1913  0.5609
   99SOPE    O312900   5.565   0.328   3.466  0.1218  0.1379  0.2047
   99SOPE    O412901   5.502   0.347   3.695 -0.1598 -0.2088 -0.6793
   99SOPE    C612902   5.369   0.373   3.684 -0.3756  0.1608  0.2082
   99SOPE   H1412903   5.330   0.367   3.582  0.9443 -1.2995 -0.2372
   99SOPE   H1512904   5.373   0.476   3.719 -3.4279  0.2339  0.5005
   99SOPE    C712905   5.286   0.287   3.781 -0.3902 -0.1410 -0.5755
   99SOPE   H1612906   5.279   0.186   3.740 -0.2018  0.4571 -2.1443
   99SOPE    O512907   5.154   0.337   3.796  0.1897  0.0381 -0.3234
   99SOPE    C812908   5.064   0.315   3.701  0.6082 -0.4797 -0.2824
   99SOPE    O612909   5.086   0.274   3.590 -0.0627 -0.6738  0.4761
   99SOPE    C912910   4.931   0.381   3.726  0.1024  0.6736 -0.4447
   99SOPE   H1712911   4.907   0.448   3.644 -2.7462  1.2344  0.8122
   99SOPE   H1812912   4.951   0.454   3.804 -0.3659  0.9035 -0.5377
   99SOPE   C1012913   5.344   0.287   3.927  0.1085 -0.1616 -0.5316
   99SOPE   H1912914   5.340   0.390   3.962  0.3955 -0.7098  1.1489
   99SOPE   H2012915   5.450   0.262   3.935 -0.3221 -2.1051 -0.6799
   99SOPE    O712916   5.261   0.203   4.006 -0.1651  0.2429  0.1802
   99SOPE   C1112917   5.292   0.071   4.021 -0.0578  0.3881  0.8037
   99SOPE    O812918   5.380   0.003   3.960 -0.2496  0.5082  0.3948
   99SOPE   C1212919   5.206   5.948   4.117  0.6517  0.0883 -0.2785
   99SOPE   H2112920   5.103   0.016   4.088  0.4744  2.1579  1.4256
   99SOPE   H2212921   5.216   0.045   4.216  0.3289  0.6114 -0.4854
   99SOPE   C1312922   5.220   5.799   4.118 -0.1610 -0.5451 -0.5621
   99SOPE   H2312923   5.312   5.784   4.176 -2.1610 -1.0844  2.5879
   99SOPE   H2412924   5.242   5.762   4.018 -1.0845  0.8638 -1.2973
   99SOPE   C1412925   5.104   5.722   4.174  0.0231 -0.1568  1.2216
   99SOPE   H2512926   5.121   5.615   4.169  0.8915 -0.0178  1.1532
   99SOPE   H2612927   5.019   5.735   4.107 -0.6143 -0.7151  1.9174
   99SOPE   C1512928   5.066   5.761   4.319  0.5715  0.6340  1.0424
   99SOPE   H2712929   5.076   5.868   4.333  1.4773  0.6595  0.2446
   99SOPE   H2812930   5.122   5.711   4.399 -0.5864 -0.4821  1.1714
   99SOPE   C1612931   4.919   5.726   4.340  0.2817  0.2252  0.2619
   99SOPE   H2912932   4.900   5.619   4.331  0.7329  0.1940 -0.3834
   99SOPE   H3012933   4.863   5.781   4.263  0.3088 -0.4335 -0.2361
   99SOPE   C1712934   4.867   5.770   4.480  0.4325  0.2407 -0.2436
   99SOPE   H3112935   4.887   5.875   4.501  1.0993 -0.0144  0.4201
   99SOPE   H3212936   4.911   5.703   4.554 -0.0598  2.8417  2.4973
   99SOPE   C1812937   4.711   5.749   4.498 -0.1357  0.7130  0.2978
   99SOPE   H3312938   4.650   5.804   4.427 -0.2053 -1.6373 -1.5310
   99SOPE   H3412939   4.687   5.793   4.595  0.7135 -1.9577  1.8022
   99SOPE   C1912940   4.669   5.603   4.482 -0.4112 -0.1171 -0.0351
   99SOPE   H3512941   4.690   5.554   4.388  0.0336 -1.4267  0.7351
   99SOPE   C2012942   4.589   5.531   4.565 -1.1262  0.3789 -1.0722
   99SOPE   H3612943   4.555   5.431   4.543  1.5612 -0.7271 -0.4503
   99SOPE   C2112944   4.568   5.565   4.703 -0.1821  0.5640 -0.1819
   99SOPE   H3712945   4.466   5.551   4.738 -0.7203  1.3537 -1.4147
   99SOPE   H3812946   4.594   5.670   4.717 -1.8023  0.7030  2.0266
   99SOPE   C2212947   4.662   5.493   4.800  0.0970  0.0102  0.3826
   99SOPE   H3912948   4.769   5.507   4.781  0.0030  0.8788  0.4786
   99SOPE   H4012949   4.652   5.385   4.791  1.1899 -0.0651 -0.0926
   99SOPE   C2312950   4.635   5.545   4.938  0.7768  0.1630  0.2256
   99SOPE   H4112951   4.529   5.540   4.961  0.1496  0.4877 -2.3993
   99SOPE   H4212952   4.671   5.644   4.963 -0.1084  0.8437 -1.1296
   99SOPE   C2412953   4.677   5.451   5.056 -0.5911 -0.5213  0.2775
   99SOPE   H4312954   4.784   5.449   5.037 -0.7474 -0.2174 -0.6309
   99SOPE   H4412955   4.632   5.354   5.036  0.8805 -1.1470 -0.0307
   99SOPE   C2512956   4.642   5.505   5.197  0.2754  0.4162 -0.3299
   99SOPE   H4512957   4.682   5.606   5.199  0.2225  0.4294  0.6795
   99SOPE   H4612958   4.702   5.466   5.280  1.8125  0.9622 -1.1579
   99SOPE   C2612959   4.491   5.492   5.233  0.3455  0.7511  0.1282
   99SOPE   H4712960   4.440   5.570   5.175  2.8404  0.3507 -2.7322
   99SOPE   H4812961   4.461   5.389   5.211 -1.5460  0.6544  2.9129
   99SOPE   C2712962   4.494   5.529   5.386  0.5827 -0.0027 -0.2698
   99SOPE   H4912963   4.566   5.607   5.411  0.3245 -0.1223  0.8698
   99SOPE   H5012964   4.535   5.438   5.430 -1.1246  0.0713  1.5132
   99SOPE   C2712965   4.350   5.559   5.439 -0.9154 -0.0178  0.0485
   99SOPE   H5112966   4.305   5.642   5.385 -1.6766 -0.4435  0.0357
   99SOPE   H5212967   4.288   5.471   5.428 -1.5861  0.2097  1.8977
   99SOPE   H5312968   4.351   5.592   5.543  0.6473 -0.5056  0.2042
   99SOPE   C2912969   4.813   0.294   3.753  0.0399  0.0260  0.0580
   99SOPE   H5412970   4.795   0.247   3.656  0.0259  1.3221 -0.5876
   99SOPE   H5512971   4.724   0.355   3.767  1.3123  2.2716 -1.1311
   99SOPE   C3012972   4.847   0.197   3.871 -0.1707 -0.3602  0.4823
   99SOPE   H5612973   4.915   0.115   3.848 -0.3021 -0.4074  0.2530
   99SOPE   H5712974   4.746   0.156   3.877 -0.0865 -0.6724 -0.2043
   99SOPE   C3112975   4.887   0.253   4.012 -0.6638  0.3910 -0.3959
   99SOPE   H5812976   4.992   0.281   4.008 -0.5765  0.5655  2.2599
   99SOPE   H5912977   4.867   0.182   4.092  2.8466  0.6999  0.8452
   99SOPE   C3212978   4.811   0.371   4.059 -0.2001 -0.2398 -0.0408
   99SOPE   H6012979   4.704   0.369   4.040 -0.2652 -2.5844  0.3941
   99SOPE   H6112980   4.849   0.447   3.990  0.6606 -1.4952 -0.9910
   99SOPE   C3312981   4.839   0.401   4.212 -0.1770  0.0054 -0.7400
   99SOPE   H6212982   4.946   0.410   4.233 -0.0694 -1.5885 -0.5054
   99SOPE   H6312983   4.818   0.313   4.274 -0.1105  1.8867  2.0619
   99SOPE   C3412984   4.754   0.516   4.260 -0.4605  0.4762 -0.6020
   99SOPE   H6412985   4.649   0.497   4.239  0.2442 -1.9295 -2.0304
   99SOPE   H6512986   4.789   0.606   4.209 -0.1124  1.1141  0.7061
   99SOPE   C3512987   4.764   0.551   4.406  0.1223  0.9897  0.0816
   99SOPE   H6612988   4.745   0.458   4.460 -1.3720  2.2525  1.7898
   99SOPE   H6712989   4.678   0.611   4.433  1.0310  2.1020  0.5196
   99SOPE   C3612990   4.885   0.638   4.451 -0.0621 -0.2124  0.6083
   99SOPE   H6812991   4.915   0.702   4.367 -1.6527 -0.5220 -0.2292
   99SOPE   H6912992   4.964   0.568   4.477  1.6827  1.0408 -1.1502
   99SOPE   C3712993   4.868   0.728   4.581 -0.1552  0.2759 -0.3787
   99SOPE   H7012994   4.807   0.666   4.647 -0.1143 -1.0988 -1.6009
   99SOPE   H7112995   4.809   0.814   4.550 -1.0959 -0.5887 -0.9937
   99SOPE   C3812996   4.998   0.781   4.644 -0.0888 -0.2320 -0.4839
   99SOPE   H7212997   5.058   0.821   4.562 -1.4585 -0.6801 -1.7127
   99SOPE   H7312998   5.064   0.708   4.691  0.8909  1.0578  0.2084
   99SOPE   C3912999   4.988   0.888   4.755  0.1668  0.0217  0.1562
   99SOPE   H7413000   4.932   0.836   4.833 -1.6415 -0.0791 -1.1488
   99SOPE   H7513001   4.924   0.972   4.728 -0.6259 -0.8808 -0.9093
   99SOPE   C4013002   5.132   0.931   4.814 -0.4835  0.6567  0.5149
   99SOPE   H7613003   5.176   0.834   4.839 -2.8924 -1.0797 -1.7125
   99SOPE   H7713004   5.107   0.984   4.906 -3.0048  2.0791 -0.9321
   99SOPE   C4113005   5.215   1.008   4.715 -0.0982 -0.4661  0.5422
   99SOPE   H7813006   5.194   1.115   4.717 -0.0734 -0.4496 -0.0341
   99SOPE   H7913007   5.198   0.990   4.609 -1.1211 -1.8816  0.9324
   99SOPE   C4213008   5.365   0.985   4.745  0.4160  0.1537  0.3185
   99SOPE   H8013009   5.375   0.877   4.742 -1.2034  0.0288 -2.8133
   99SOPE   H8113010   5.394   1.015   4.846 -1.2111  0.5918  0.6769
   99SOPE   C4313011   5.455   1.046   4.635  0.5423  0.1567 -0.6608
   99SOPE   H8213012   5.415   1.031   4.535  0.8873 -0.7604 -0.6628
   99SOPE   H8313013   5.456   1.153   4.659 -1.5181 -0.5773  3.2060
   99SOPE   C4413014   5.597   0.986   4.629  0.0096 -0.3451  0.4942
   99SOPE   H8413015   5.588   0.878   4.637 -0.6306 -0.4100 -0.8795
   99SOPE   H8513016   5.658   1.025   4.548  1.7520  0.1214  2.0067
   99SOPE   H8613017   5.645   1.021   4.720 -2.5398 -1.3797  2.2814
  100SOPE    N113018   0.220   1.903   3.914  0.1420 -0.4444  0.2476
  100SOPE    C113019   0.333   1.969   3.973 -1.1080  0.4500 -0.5293
  100SOPE    H113020   0.424   1.920   3.940 -1.0070 -1.3423  2.3011
  100SOPE    H213021   0.330   1.958   4.081 -0.2553  1.2014 -0.4235
  100SOPE    H313022   0.204   1.950   3.826  0.6677 -0.0473  0.3579
  100SOPE    H413023   0.146   1.917   3.981  1.3347 -0.6604  1.6409
  100SOPE    H513024   0.250   1.807   3.903 -1.4067 -1.2303  2.5245
  100SOPE    C513025   0.336   2.118   3.942 -0.5635  0.5222 -0.9844
  100SOPE   H1213026   0.242   2.145   3.988  1.0060  1.5961  1.6994
  100SOPE   H1313027   0.338   2.141   3.836  0.7560  3.2111 -0.4198
  100SOPE    P113028   0.483   2.320   4.023 -0.5907  0.0561  0.3616
  100SOPE    O113029   0.629   2.311   4.058  0.3648  0.0385  0.2128
  100SOPE    O213030   0.445   2.382   3.892 -0.4464  0.3179  0.3886
  100SOPE    O313031   0.452   2.159   4.008 -0.0298 -0.3080  0.1784
  100SOPE    O413032   0.393   2.370   4.147 -0.9565 -0.0432  0.3721
  100SOPE    C613033   0.380   2.291   4.257 -0.5288  0.3379 -0.5980
  100SOPE   H1413034   0.350   2.188   4.237 -1.8384  0.8561 -1.3557
  100SOPE   H1513035   0.295   2.328   4.315 -0.1204  1.6540 -0.8275
  100SOPE    C713036   0.503   2.283   4.351 -1.5911  0.4451 -0.0036
  100SOPE   H1613037   0.575   2.214   4.308  1.0673  3.4218 -0.4707
  100SOPE    O513038   0.455   2.234   4.476 -0.0249  0.1340  1.0189
  100SOPE    C813039   0.538   2.177   4.565  1.0562 -0.2696 -0.7348
  100SOPE    O613040   0.648   2.146   4.536 -0.0102  0.0958  0.0379
  100SOPE    C913041   0.493   2.166   4.715  0.0417  0.3855 -0.4528
  100SOPE   H1713042   0.469   2.060   4.719  1.6406  0.0894  3.2677
  100SOPE   H1813043   0.405   2.227   4.734 -1.0373 -1.6728  1.4514
  100SOPE   C1013044   0.561   2.423   4.372 -0.4936  0.1857  0.0047
  100SOPE   H1913045   0.498   2.479   4.441 -2.1327  0.1170 -1.3986
  100SOPE   H2013046   0.569   2.473   4.275  1.0799 -0.1550 -0.0657
  100SOPE    O713047   0.685   2.405   4.431  0.3996  0.2753  0.7357
  100SOPE   C1113048   0.745   2.509   4.486 -0.3850 -0.6510  0.3417
  100SOPE    O813049   0.694   2.622   4.501  0.3801  0.2415 -0.2649
  100SOPE   C1213050   0.884   2.484   4.549  1.1347  0.3537 -0.1653
  100SOPE   H2113051   0.957   2.478   4.468  1.8385  0.3889  0.4597
  100SOPE   H2213052   0.874   2.385   4.593 -2.3924  0.2706 -1.0429
  100SOPE   C1313053   0.939   2.576   4.658  0.4040  0.9310  0.5410
  100SOPE   H2313054   0.958   2.674   4.614 -0.8837  1.9860  2.2905
  100SOPE   H2413055   1.036   2.532   4.681  0.2344 -0.5705 -1.4609
  100SOPE   C1413056   0.853   2.583   4.789  0.4124 -0.4600  0.3853
  100SOPE   H2513057   0.856   2.480   4.824 -1.3841 -0.2903  1.1165
  100SOPE   H2613058   0.752   2.618   4.766 -0.0060 -2.2483 -0.6547
  100SOPE   C1513059   0.919   2.681   4.891  0.8167  0.2165  0.3148
  100SOPE   H2713060   0.925   2.779   4.843 -0.5097 -0.6902 -1.7709
  100SOPE   H2813061   1.025   2.659   4.907  0.4550 -0.1356  2.3611
  100SOPE   C1613062   0.859   2.695   5.042  0.1379 -0.0049 -0.1303
  100SOPE   H2913063   0.751   2.704   5.038  0.1040  0.9027  2.2350
  100SOPE   H3013064   0.899   2.785   5.089 -0.8746  0.7135 -0.6339
  100SOPE   C1713065   0.888   2.579   5.134  0.5361 -0.7178  0.0477
  100SOPE   H3113066   0.997   2.573   5.137  0.6209  0.1994 -0.7531
  100SOPE   H3213067   0.859   2.482   5.095  1.8193 -0.7326 -0.9029
  100SOPE   C1813068   0.840   2.597   5.276  0.0738  0.4693  0.0530
  100SOPE   H3313069   0.881   2.686   5.324 -1.8994  1.1743  0.5027
  100SOPE   H3413070   0.871   2.509   5.332 -0.8499  1.4306  2.1386
  100SOPE   C1913071   0.686   2.601   5.273 -1.0758  0.4257 -0.0155
  100SOPE   H3513072   0.638   2.521   5.218 -0.6663  1.0821 -1.3487
  100SOPE   C2013073   0.604   2.695   5.327  0.4052 -0.2312  0.2739
  100SOPE   H3613074   0.498   2.688   5.308  0.6220 -0.9438 -0.7160
  100SOPE   C2113075   0.642   2.818   5.398  0.4394 -0.3441  0.1732
  100SOPE   H3713076   0.650   2.897   5.324 -0.3265 -0.1051  0.3439
  100SOPE   H3813077   0.739   2.798   5.443  0.3181 -1.5519 -0.0664
  100SOPE   C2213078   0.554   2.851   5.512 -0.2173  0.5995  0.3120
  100SOPE   H3913079   0.451   2.868   5.479  0.1897 -0.9869 -1.8849
  100SOPE   H4013080   0.577   2.945   5.562  0.7435 -0.1369  1.2792
  100SOPE   C2313081   0.559   2.750   5.625 -0.0889 -0.2832 -1.1192
  100SOPE   H4113082   0.658   2.724   5.663 -1.7290 -1.0285  2.9859
  100SOPE   H4213083   0.540   2.648   5.591 -2.1469 -1.0531  2.0476
  100SOPE   C2413084   0.467   2.783   5.751  0.2214 -0.1228 -0.1480
  100SOPE   H4313085   0.482   2.706   5.828  2.6825  0.8433  0.3938
  100SOPE   H4413086   0.363   2.782   5.721 -0.1480 -0.1377  1.0792
  100SOPE   C2513087   0.483   2.922   5.821 -0.2782  0.4753 -0.3783
  100SOPE   H4513088   0.479   3.004   5.749  0.0344  1.1695  0.3914
  100SOPE   H4613089   0.582   2.939   5.862 -1.1520 -0.7426  2.3658
  100SOPE   C2613090   0.385   2.944   5.930  0.9735 -0.0335 -0.7540
  100SOPE   H4713091   0.285   2.920   5.892 -0.0519  1.7934  0.6678
  100SOPE   H4813092   0.393   2.872   6.011  0.2770 -0.0344 -0.6803
  100SOPE   C2713093   0.394   3.079   5.983 -0.0581  0.0241  0.1755
  100SOPE   H4913094   0.351   3.151   5.913  2.3980 -0.2576 -1.6907
  100SOPE   H5013095   0.496   3.114   6.000 -0.2713 -0.4505  2.6632
  100SOPE   C2713096   0.318   3.090   6.121  0.1068  0.3216  0.2335
  100SOPE   H5113097   0.218   3.047   6.129 -0.1593  1.1256  1.3211
  100SOPE   H5213098   0.386   3.042   6.191  0.2227 -1.4769 -1.0809
  100SOPE   H5313099   0.300   3.191   6.158 -0.0199  1.2742 -2.3626
  100SOPE   C2913100   0.619   2.213   4.802  0.3027 -0.2905 -0.0795
  100SOPE   H5413101   0.639   2.320   4.798  0.3032 -0.0454  4.1665
  100SOPE   H5513102   0.713   2.160   4.786  0.7837  0.0090  1.6622
  100SOPE   C3013103   0.604   2.185   4.950  0.1222  0.0396 -0.0464
  100SOPE   H5613104   0.527   2.257   4.978  3.3857  3.4382  0.6074
  100SOPE   H5713105   0.689   2.229   5.002  0.7591  1.7462 -2.4039
  100SOPE   C3113106   0.554   2.048   4.989  0.0904  0.2661  0.2879
  100SOPE   H5813107   0.628   1.985   5.037 -1.6650 -1.0755  1.3198
  100SOPE   H5913108   0.523   1.994   4.900 -3.5391 -0.9319  2.1680
  100SOPE   C3213109   0.451   2.054   5.094 -0.0558 -0.6807 -0.1695
  100SOPE   H6013110   0.404   1.956   5.102 -2.3075  0.2403 -1.5511
  100SOPE   H6113111   0.370   2.121   5.066 -1.1773 -1.7046  0.5696
  100SOPE   C3313112   0.504   2.088   5.236  0.1813 -0.6223 -0.3688
  100SOPE   H6213113   0.558   2.181   5.222 -0.6005  0.1978  1.8822
  100SOPE   H6313114   0.581   2.014   5.262 -0.3205 -0.9853  0.1108
  100SOPE   C3413115   0.397   2.103   5.349 -0.1899  0.6446  0.8370
  100SOPE   H6413116   0.338   2.011   5.352  1.9965 -0.8641 -0.7743
  100SOPE   H6513117   0.325   2.182   5.328 -0.5664  0.4727  1.4767
  100SOPE   C3513118   0.453   2.120   5.489  0.3375  0.3298  0.0901
  100SOPE   H6613119   0.448   2.226   5.512 -3.1956 -0.2648  2.4374
  100SOPE   H6713120   0.557   2.087   5.482  0.5625  0.7524  1.3571
  100SOPE   C3613121   0.352   2.045   5.588 -0.6637 -0.4416  0.3946
  100SOPE   H6813122   0.362   1.943   5.549 -3.0010 -0.3671 -0.4854
  100SOPE   H6913123   0.261   2.103   5.578  0.3161  0.8314 -1.4678
  100SOPE   C3713124   0.388   2.027   5.738  0.1703  0.6888 -0.3884
  100SOPE   H7013125   0.495   2.023   5.759  0.7892  0.8477 -3.3777
  100SOPE   H7113126   0.346   1.934   5.778 -2.3045  1.8903 -0.1180
  100SOPE   C3813127   0.337   2.144   5.829 -0.2112  0.0934 -0.7635
  100SOPE   H7213128   0.228   2.142   5.826 -0.2062 -1.4181 -0.4348
  100SOPE   H7313129   0.371   2.240   5.791 -0.7779  0.3871 -0.5364
  100SOPE   C3913130   0.389   2.117   5.974 -0.2024  0.1418  0.7547
  100SOPE   H7413131   0.496   2.126   5.989 -0.2068  0.1938  0.7596
  100SOPE   H7513132   0.367   2.017   6.011 -2.1101  0.2546  0.0069
  100SOPE   C4013133   0.307   2.209   6.070  0.4946  0.3388  0.6822
  100SOPE   H7613134   0.211   2.159   6.074  0.0967  0.8960 -1.2390
  100SOPE   H7713135   0.299   2.307   6.023 -4.3273 -1.2856 -2.1816
  100SOPE   C4113136   0.359   2.209   6.217  0.2925  0.1109 -0.2618
  100SOPE   H7813137   0.458   2.253   6.233 -0.6824  1.1093  3.5463
  100SOPE   H7913138   0.361   2.111   6.266 -2.4338  0.8954  1.5365
  100SOPE   C4213139   0.262   2.289   6.302  0.2862  0.5054 -0.1894
  100SOPE   H8013140   0.163   2.244   6.298  0.3456 -0.2924  4.4200
  100SOPE   H8113141   0.264   2.394   6.271 -0.6073  0.8715  0.9399
  100SOPE   C4313142   0.300   2.278   6.450 -0.3521  0.0114 -0.0067
  100SOPE   H8213143   0.303   2.179   6.495  1.2126  0.5510  1.1150
  100SOPE   H8313144   0.403   2.310   6.467 -0.5730 -0.0759  1.5236
  100SOPE   C4413145   0.217   2.371   6.534  0.7667 -0.3749 -0.4038
  100SOPE   H8413146   0.110   2.352   6.535  0.3013  2.0872  1.1463
  100SOPE   H8513147   0.247   2.366   6.639  0.7448 -1.3100 -0.4299
  100SOPE   H8613148   0.228   2.476   6.509  0.0425  0.5957  3.1112
  101SOPE    N113149   0.253   3.701   3.889 -0.1339  0.0900 -0.0444
  101SOPE    C113150   0.327   3.641   4.005  0.2747  0.7598 -0.3593
  101SOPE    H113151   0.273   3.549   4.026 -0.1097  0.5107 -2.3054
  101SOPE    H213152   0.307   3.700   4.094  0.9290  0.2065  0.1494
  101SOPE    H313153   0.163   3.719   3.933  0.9819 -1.4453  3.0195
  101SOPE    H413154   0.251   3.642   3.807  0.0797  0.0681 -0.0354
  101SOPE    H513155   0.299   3.789   3.870  2.8167 -0.9502  1.8788
  101SOPE    C513156   0.478   3.643   3.963  0.0701  0.3389  0.3568
  101SOPE   H1213157   0.503   3.735   3.910 -2.2348 -0.0859 -1.5154
  101SOPE   H1313158   0.490   3.558   3.895  1.1516 -0.4210  1.4667
  101SOPE    P113159   0.577   3.475   4.129  0.4098  0.4495  0.1868
  101SOPE    O113160   0.602   3.386   4.010 -0.3981  0.6554 -0.1501
  101SOPE    O213161   0.670   3.465   4.242  0.3904 -0.0043 -0.1067
  101SOPE    O313162   0.563   3.619   4.068 -0.2497  0.4845 -0.1651
  101SOPE    O413163   0.435   3.432   4.179 -0.1169  0.3375 -0.3930
  101SOPE    C613164   0.386   3.482   4.300  0.1532 -0.1327  0.5663
  101SOPE   H1413165   0.279   3.503   4.303 -0.2715 -2.2129  0.2337
  101SOPE   H1513166   0.440   3.575   4.321  0.8038 -0.2345 -0.6012
  101SOPE    C713167   0.405   3.379   4.407  0.8994  0.8216 -0.3414
  101SOPE   H1613168   0.508   3.344   4.401  0.3193 -0.8251 -0.9399
  101SOPE    O513169   0.314   3.278   4.379  0.0508  0.0657  0.6094
  101SOPE    C813170   0.340   3.155   4.331 -0.0734 -0.0215  0.3081
  101SOPE    O613171   0.454   3.107   4.325  0.1035  0.1306 -0.6664
  101SOPE    C913172   0.217   3.070   4.359  0.1480 -0.0557 -1.0827
  101SOPE   H1713173   0.229   2.981   4.299  2.4863 -0.6198  0.1696
  101SOPE   H1813174   0.131   3.123   4.317  1.6088  2.0693 -1.4761
  101SOPE   C1013175   0.376   3.433   4.553 -0.2171  0.2750  0.1712
  101SOPE   H1913176   0.279   3.484   4.554  0.4895  1.6461  0.5261
  101SOPE   H2013177   0.447   3.516   4.559 -1.1717  1.3375 -2.2633
  101SOPE    O713178   0.383   3.335   4.660  0.0563 -0.7258  0.0437
  101SOPE   C1113179   0.500   3.301   4.709  0.1346  0.1418  0.1490
  101SOPE    O813180   0.608   3.331   4.660  0.1654 -0.3642  0.4510
  101SOPE   C1213181   0.485   3.192   4.814  0.3679  0.2319  0.4928
  101SOPE   H2113182   0.448   3.102   4.765  2.6894 -1.2397  1.3807
  101SOPE   H2213183   0.399   3.219   4.876  1.4633 -1.6520  2.9049
  101SOPE   C1313184   0.603   3.162   4.909  0.3786  0.1181  0.4037
  101SOPE   H2313185   0.683   3.112   4.854  0.6756 -1.3304  2.1273
  101SOPE   H2413186   0.579   3.093   4.990  2.2831 -0.0475  0.8667
  101SOPE   C1413187   0.664   3.285   4.980 -0.6868 -0.6749 -0.4339
  101SOPE   H2513188   0.590   3.328   5.048  0.6200 -0.1298  0.6563
  101SOPE   H2613189   0.703   3.349   4.901  0.8853 -1.5194 -0.3526
  101SOPE   C1513190   0.776   3.243   5.077  0.6990  0.4489  0.3458
  101SOPE   H2713191   0.839   3.326   5.109  0.7400  0.3811  0.4458
  101SOPE   H2813192   0.838   3.184   5.011 -1.0577 -0.6095 -0.4038
  101SOPE   C1613193   0.717   3.173   5.204 -0.5871 -0.4518 -0.6338
  101SOPE   H2913194   0.791   3.117   5.261 -0.7870  2.7783  3.0012
  101SOPE   H3013195   0.654   3.093   5.165 -0.9483  0.7670 -2.6377
  101SOPE   C1713196   0.656   3.268   5.312 -0.2365  0.1596 -0.0677
  101SOPE   H3113197   0.574   3.322   5.265  0.6699  1.3481 -0.3300
  101SOPE   H3213198   0.738   3.330   5.350 -0.5183  0.1878  0.5040
  101SOPE   C1813199   0.608   3.196   5.435 -0.1415  0.0119 -0.1223
  101SOPE   H3313200   0.697   3.163   5.490 -0.0431 -1.3533 -1.0742
  101SOPE   H3413201   0.547   3.109   5.412 -1.3877  1.7770 -3.8235
  101SOPE   C1913202   0.533   3.283   5.529 -0.3080  0.2513 -0.3988
  101SOPE   H3513203   0.583   3.342   5.604 -1.9165  2.3239 -0.9217
  101SOPE   C2013204   0.403   3.298   5.551  0.1588 -0.2907 -0.6115
  101SOPE   H3613205   0.366   3.365   5.627 -3.9855 -0.6151 -2.1521
  101SOPE   C2113206   0.298   3.227   5.465  0.3991  0.1372 -0.2766
  101SOPE   H3713207   0.347   3.177   5.382  0.4597  0.3625 -0.3802
  101SOPE   H3813208   0.229   3.299   5.420 -0.7232  0.6458  2.1560
  101SOPE   C2213209   0.221   3.127   5.552 -0.7239  0.3679  0.4720
  101SOPE   H3913210   0.280   3.045   5.593  0.6997  0.1957 -1.8583
  101SOPE   H4013211   0.157   3.070   5.484 -0.3442 -0.4815  0.8095
  101SOPE   C2313212   0.139   3.200   5.665 -0.2317  0.5347 -0.0828
  101SOPE   H4113213   0.076   3.281   5.627 -0.8206  0.0863 -0.0826
  101SOPE   H4213214   0.207   3.248   5.735 -3.5208  1.9500  2.3142
  101SOPE   C2413215   0.052   3.103   5.735  0.2633 -0.1709  0.7680
  101SOPE   H4313216   0.116   3.034   5.790  1.2908 -0.7603 -1.1056
  101SOPE   H4413217   5.937   3.046   5.667 -0.3379 -0.7828  1.8435
  101SOPE   C2513218   5.907   3.191   5.830 -0.2055 -0.4729  0.2351
  101SOPE   H4513219   5.839   3.246   5.765 -0.5066 -1.6830 -0.4934
  101SOPE   H4613220   0.024   3.270   5.867 -0.0433  0.1754 -1.4153
  101SOPE   C2613221   5.825   3.109   5.929  0.1094 -0.3434 -0.2032
  101SOPE   H4713222   5.776   3.024   5.883 -1.1333 -0.2498  0.9103
  101SOPE   H4813223   5.898   3.054   5.990  0.4850 -2.0273 -2.1392
  101SOPE   C2713224   5.725   3.191   6.006  0.7997 -0.1742  0.8945
  101SOPE   H4913225   5.770   3.241   6.091  0.1341 -0.0587  1.1876
  101SOPE   H5013226   5.657   3.122   6.056  0.3992 -0.7002 -0.3407
  101SOPE   C2713227   5.640   3.281   5.919 -0.0840 -0.0313  0.3199
  101SOPE   H5113228   5.550   3.299   5.977 -0.6252 -1.0573 -0.1848
  101SOPE   H5213229   5.697   3.372   5.900  1.1369 -0.8069  0.1802
  101SOPE   H5313230   5.606   3.238   5.825 -1.4683  2.6920 -0.4586
  101SOPE   C2913231   0.187   3.037   4.511 -0.4132 -0.2495  0.3344
  101SOPE   H5413232   0.082   3.008   4.519 -0.9508  1.8227  1.0897
  101SOPE   H5513233   0.206   3.131   4.563 -0.0167  0.6946 -1.4526
  101SOPE   C3013234   0.282   2.932   4.576 -0.7299  0.4061  0.1745
  101SOPE   H5613235   0.260   2.937   4.682  1.9854 -0.1018  0.7941
  101SOPE   H5713236   0.387   2.964   4.572 -1.2058  2.1972  1.4866
  101SOPE   C3113237   0.268   2.786   4.524  0.3415 -0.2142  0.0377
  101SOPE   H5813238   0.262   2.786   4.415 -0.2668 -0.5265  0.0673
  101SOPE   H5913239   0.173   2.737   4.546  0.5113  0.2602  1.9219
  101SOPE   C3213240   0.374   2.687   4.578 -0.2413 -0.7999 -0.7544
  101SOPE   H6013241   0.479   2.711   4.563 -0.4251 -0.4698 -1.5130
  101SOPE   H6113242   0.365   2.592   4.525  1.6724 -2.2214  1.3722
  101SOPE   C3313243   0.360   2.669   4.730  0.9518 -1.1300  0.3519
  101SOPE   H6213244   0.259   2.641   4.761  0.8970 -1.5060 -0.1525
  101SOPE   H6313245   0.362   2.762   4.787 -2.4373 -0.2970 -0.7450
  101SOPE   C3413246   0.456   2.559   4.778  0.5586  0.5052  0.0433
  101SOPE   H6413247   0.552   2.571   4.729  1.8364 -1.2875  2.0035
  101SOPE   H6513248   0.428   2.457   4.750  0.9057  0.2785  0.5106
  101SOPE   C3513249   0.488   2.564   4.921  0.2396  0.3577  0.9504
  101SOPE   H6613250   0.540   2.659   4.937  0.1533  0.5429  0.1689
  101SOPE   H6713251   0.561   2.489   4.951 -2.8103 -2.5555  1.3900
  101SOPE   C3613252   0.381   2.570   5.027 -0.0551  0.0172 -0.2074
  101SOPE   H6813253   0.297   2.634   4.997  0.3393  1.6481  2.0261
  101SOPE   H6913254   0.428   2.622   5.110  4.1813 -0.1810 -2.3229
  101SOPE   C3713255   0.341   2.436   5.088  0.5163  0.4623  0.3935
  101SOPE   H7013256   0.431   2.401   5.137 -0.8215 -2.8214  0.6204
  101SOPE   H7113257   0.316   2.364   5.010  0.6182  1.1949 -0.3261
  101SOPE   C3813258   0.223   2.446   5.183 -0.4225 -0.0030 -0.2641
  101SOPE   H7213259   0.189   2.347   5.216  1.8319 -1.3159 -1.7541
  101SOPE   H7313260   0.136   2.489   5.135 -1.0529 -1.1157 -0.1424
  101SOPE   C3913261   0.279   2.507   5.305  0.1883 -0.0739 -0.5385
  101SOPE   H7413262   0.297   2.613   5.286  1.3372 -0.0788  0.4677
  101SOPE   H7513263   0.374   2.466   5.338 -1.0444 -2.5001  0.0835
  101SOPE   C4013264   0.170   2.514   5.425 -0.2514  0.2978  0.4688
  101SOPE   H7613265   0.068   2.510   5.387  0.2939 -3.6521 -0.7560
  101SOPE   H7713266   0.177   2.614   5.468  1.0758  0.6160 -0.4632
  101SOPE   C4113267   0.192   2.394   5.514  0.4801 -0.2033 -1.1161
  101SOPE   H7813268   0.297   2.378   5.537  0.4742 -0.4311 -1.2386
  101SOPE   H7913269   0.166   2.302   5.461 -2.6786 -0.8315  1.3624
  101SOPE   C4213270   0.111   2.395   5.647  0.4607  0.1114 -0.2066
  101SOPE   H8013271   0.095   2.294   5.684 -2.6116  0.3961 -0.5699
  101SOPE   H8113272   0.014   2.431   5.610 -0.5541 -0.9654  1.3330
  101SOPE   C4313273   0.162   2.481   5.767 -0.5601 -0.3962  0.0897
  101SOPE   H8213274   0.143   2.426   5.859  2.5915  1.2608  1.7966
  101SOPE   H8313275   0.270   2.487   5.766 -0.3467 -2.6230  3.3509
  101SOPE   C4413276   0.109   2.625   5.787  0.0026 -0.1019 -0.2021
  101SOPE   H8413277   0.136   2.673   5.882 -0.7032  1.8304 -0.9478
  101SOPE   H8513278   0.131   2.685   5.699 -1.2737  2.6314  1.2719
  101SOPE   H8613279   0.000   2.616   5.788 -0.1455  1.5252  0.0222
  102SOPE    N113280   1.552   4.063   3.654  0.1098  0.0307  0.7362
  102SOPE    C113281   1.587   3.938   3.724 -0.0052  0.0107 -0.1469
  102SOPE    H113282   1.642   3.875   3.655 -2.4424 -1.2459 -1.0151
  102SOPE    H213283   1.496   3.882   3.746 -0.7222  1.4015  0.5019
  102SOPE    H313284   1.453   4.060   3.633 -0.0880 -2.1726  1.8070
  102SOPE    H413285   1.607   4.065   3.570  1.4901  0.0159  1.6131
  102SOPE    H513286   1.578   4.137   3.718 -0.3314  0.8859 -0.0565
  102SOPE    C513287   1.680   3.962   3.843 -0.9405  0.7794 -0.6030
  102SOPE   H1213288   1.627   4.007   3.928 -0.7995 -0.8771  0.3823
  102SOPE   H1313289   1.752   4.034   3.804 -0.9596  0.0834 -1.9289
  102SOPE    P113290   1.658   3.736   3.978 -0.0102  0.0159 -0.0122
  102SOPE    O113291   1.530   3.704   3.910  0.3282 -0.0625  0.1984
  102SOPE    O213292   1.748   3.622   4.009 -0.2773  0.2841  0.0908
  102SOPE    O313293   1.742   3.842   3.887 -0.5949 -0.1149  0.0298
  102SOPE    O413294   1.622   3.803   4.115  0.1395  0.0413 -0.0970
  102SOPE    C613295   1.694   3.907   4.187 -0.1778 -0.0957  0.3547
  102SOPE   H1413296   1.640   3.934   4.277  1.2505  3.1240  0.2981
  102SOPE   H1513297   1.687   3.995   4.123  1.4432  0.4844  0.9668
  102SOPE    C713298   1.850   3.890   4.189 -0.2306  0.1460 -0.0464
  102SOPE   H1613299   1.892   3.864   4.092  0.0535 -3.7015  1.0031
  102SOPE    O513300   1.864   3.784   4.279 -0.3716 -0.3627  0.2158
  102SOPE    C813301   1.951   3.680   4.253 -0.2467 -0.1813  0.1743
  102SOPE    O613302   2.046   3.688   4.178 -0.2871 -0.2821 -0.0756
  102SOPE    C913303   1.941   3.566   4.349 -0.5485 -0.2178 -0.3393
  102SOPE   H1713304   1.858   3.499   4.326  1.4713 -2.2307 -2.0564
  102SOPE   H1813305   1.920   3.617   4.443 -1.6785 -2.2813  0.5791
  102SOPE   C1013306   1.931   4.014   4.233 -0.2272  0.1191 -0.4902
  102SOPE   H1913307   1.907   4.100   4.171 -0.3040 -0.4326 -1.2280
  102SOPE   H2013308   2.036   3.986   4.225 -0.2164 -0.4375  1.3007
  102SOPE    O713309   1.895   4.054   4.366 -0.2227 -0.0031 -0.3666
  102SOPE   C1113310   1.982   4.049   4.462 -0.2210 -0.0969  0.2011
  102SOPE    O813311   2.092   3.994   4.461 -0.5106 -0.4256 -0.7998
  102SOPE   C1213312   1.941   4.132   4.582  0.1564  0.1400 -0.3631
  102SOPE   H2113313   1.834   4.153   4.583 -0.3577 -2.1889  4.1188
  102SOPE   H2213314   1.978   4.235   4.581 -2.2183  1.0692  1.4510
  102SOPE   C1313315   1.985   4.049   4.713 -0.3821  0.5704 -0.9855
  102SOPE   H2313316   2.088   4.025   4.690 -0.1794  1.2732 -0.8179
  102SOPE   H2413317   1.928   3.956   4.718  2.0699 -0.8967  0.5122
  102SOPE   C1413318   1.975   4.126   4.848  0.0005 -0.5894 -0.2548
  102SOPE   H2513319   1.869   4.136   4.873  0.3222  3.2155 -0.0384
  102SOPE   H2613320   2.014   4.228   4.849 -0.2167 -0.5085  0.2486
  102SOPE   C1513321   2.051   4.063   4.967 -0.9274 -0.0026  0.4302
  102SOPE   H2713322   2.148   4.039   4.925 -1.2601 -1.7442  0.5797
  102SOPE   H2813323   2.008   3.965   4.992 -1.9362  0.3388  0.0774
  102SOPE   C1613324   2.052   4.157   5.094 -0.1431  0.8280  0.3407
  102SOPE   H2913325   1.950   4.163   5.132 -0.4422  3.1887 -0.7018
  102SOPE   H3013326   2.077   4.256   5.054 -1.4412  0.6211 -1.0150
  102SOPE   C1713327   2.143   4.093   5.203  0.5159 -0.2669 -0.1321
  102SOPE   H3113328   2.249   4.103   5.178  0.5188 -0.6347 -0.2783
  102SOPE   H3213329   2.114   3.989   5.221  1.0678  0.0959  3.1852
  102SOPE   C1813330   2.108   4.158   5.331 -0.8977  0.6111  0.3820
  102SOPE   H3313331   2.002   4.162   5.358 -1.1066 -1.2772 -0.1087
  102SOPE   H3413332   2.130   4.264   5.318 -1.6279  0.5734 -1.3230
  102SOPE   C1913333   2.193   4.094   5.446 -0.3534  0.1227  0.2570
  102SOPE   H3513334   2.166   3.992   5.470 -1.3267 -0.0560 -1.4853
  102SOPE   C2013335   2.270   4.151   5.536  0.1044 -0.2447 -0.1989
  102SOPE   H3613336   2.288   4.084   5.619 -0.8771 -0.9957 -0.5856
  102SOPE   C2113337   2.348   4.274   5.515 -0.6854  0.2647 -0.0524
  102SOPE   H3713338   2.341   4.279   5.406 -2.1181  0.8031  0.0583
  102SOPE   H3813339   2.454   4.254   5.531 -0.5308  2.4507  1.8393
  102SOPE   C2213340   2.295   4.397   5.590  0.2601  0.2079 -0.3727
  102SOPE   H3913341   2.201   4.424   5.542 -0.3053 -1.4159 -0.2079
  102SOPE   H4013342   2.366   4.479   5.580  0.1314  0.7651  2.9148
  102SOPE   C2313343   2.260   4.382   5.739 -0.7984 -0.0259  0.6464
  102SOPE   H4113344   2.188   4.300   5.751 -0.0218 -1.6807 -4.5137
  102SOPE   H4213345   2.207   4.468   5.778  1.4823  1.5508  0.3498
  102SOPE   C2413346   2.380   4.372   5.830 -0.8790 -0.2839 -0.0026
  102SOPE   H4313347   2.446   4.459   5.829  0.6652 -1.4134  1.2740
  102SOPE   H4413348   2.434   4.281   5.802 -2.2163 -0.5560 -1.8021
  102SOPE   C2513349   2.340   4.365   5.978  0.2607  0.2618 -0.6826
  102SOPE   H4513350   2.252   4.307   6.006  0.7554  0.4229  1.3150
  102SOPE   H4613351   2.308   4.468   5.996 -0.4550  0.1338 -1.2159
  102SOPE   C2613352   2.459   4.315   6.061 -0.1305 -0.0167 -0.8957
  102SOPE   H4713353   2.512   4.224   6.034  1.4357  0.8632 -0.8320
  102SOPE   H4813354   2.542   4.386   6.064  0.2709 -0.4977 -0.4092
  102SOPE   C2713355   2.420   4.297   6.209  0.5974  0.4068 -0.9363
  102SOPE   H4913356   2.491   4.236   6.264  0.3388  0.4873 -0.5034
  102SOPE   H5013357   2.327   4.239   6.213  1.0915 -0.2365  3.0881
  102SOPE   C2713358   2.392   4.425   6.279  0.0509  0.0134  0.7342
  102SOPE   H5113359   2.350   4.413   6.379 -1.6897 -1.8446 -0.1782
  102SOPE   H5213360   2.482   4.485   6.290  1.6312 -2.3835  1.2364
  102SOPE   H5313361   2.321   4.483   6.220  0.7394  0.7697  0.6350
  102SOPE   C2913362   2.062   3.475   4.364 -0.8209  0.2724  0.4213
  102SOPE   H5413363   2.103   3.444   4.269  0.6842  0.7641  0.8911
  102SOPE   H5513364   2.028   3.388   4.421  0.5617  0.4092  1.4993
  102SOPE   C3013365   2.179   3.546   4.421 -0.3715  0.2254  0.1059
  102SOPE   H5613366   2.211   3.631   4.361 -0.4442 -1.7578 -2.8589
  102SOPE   H5713367   2.273   3.491   4.418 -1.6882 -2.0504 -0.6554
  102SOPE   C3113368   2.156   3.586   4.567  0.0036 -0.8478  0.4863
  102SOPE   H5813369   2.093   3.517   4.624  0.4918 -1.8684 -0.1988
  102SOPE   H5913370   2.096   3.677   4.563 -0.7938 -1.4082 -1.0026
  102SOPE   C3213371   2.281   3.623   4.645 -0.7377  0.3005  0.0398
  102SOPE   H6013372   2.348   3.684   4.584 -2.6002  2.1057 -0.2703
  102SOPE   H6113373   2.330   3.529   4.671  0.5076  0.9352  0.0249
  102SOPE   C3313374   2.253   3.711   4.770  0.2906 -0.1054 -0.2101
  102SOPE   H6213375   2.178   3.673   4.838  1.5207 -0.1463  1.1482
  102SOPE   H6313376   2.234   3.815   4.743 -4.2198 -0.9367 -0.5520
  102SOPE   C3413377   2.388   3.717   4.850 -0.2354 -0.1290  0.6735
  102SOPE   H6413378   2.446   3.808   4.831  1.9024 -1.6839 -0.4440
  102SOPE   H6513379   2.464   3.647   4.815 -1.8906 -0.4633 -2.3685
  102SOPE   C3513380   2.368   3.702   5.001  0.2496  0.5528  0.3072
  102SOPE   H6613381   2.319   3.606   5.013  0.6929  0.1708 -0.8070
  102SOPE   H6713382   2.285   3.764   5.034 -0.2278 -0.6133  1.3308
  102SOPE   C3613383   2.503   3.717   5.082  0.6789  0.0796  0.3921
  102SOPE   H6813384   2.526   3.823   5.086 -2.2088  0.7783 -0.2084
  102SOPE   H6913385   2.576   3.662   5.022  0.2264  1.4931 -1.4873
  102SOPE   C3713386   2.506   3.690   5.230  0.1655 -0.6610  0.0529
  102SOPE   H7013387   2.607   3.707   5.267  0.1423  0.8056 -0.5409
  102SOPE   H7113388   2.464   3.594   5.260 -2.1203 -0.0670 -1.1041
  102SOPE   C3813389   2.406   3.787   5.301  0.9300 -0.1994  0.4472
  102SOPE   H7213390   2.302   3.766   5.275  1.6144 -1.1839 -1.6463
  102SOPE   H7313391   2.417   3.889   5.265 -0.6659 -0.9425 -2.3259
  102SOPE   C3913392   2.426   3.807   5.453 -0.6005  0.5053  0.1662
  102SOPE   H7413393   2.395   3.721   5.512  2.4891 -1.9656 -1.6934
  102SOPE   H7513394   2.353   3.881   5.486 -0.6689  1.1320 -1.3421
  102SOPE   C4013395   2.566   3.865   5.485 -0.3416 -0.3173 -0.0275
  102SOPE   H7613396   2.559   3.973   5.479 -0.6779 -0.4027 -1.3617
  102SOPE   H7713397   2.645   3.828   5.419 -0.3673  0.2175 -0.3626
  102SOPE   C4113398   2.602   3.848   5.631 -0.5585  0.5585  0.6015
  102SOPE   H7813399   2.700   3.895   5.639 -0.5167  0.3191  1.5446
  102SOPE   H7913400   2.613   3.742   5.652  0.7940  0.4306 -0.6599
  102SOPE   C4213401   2.511   3.915   5.732 -0.2273  0.0472  0.3332
  102SOPE   H8013402   2.415   3.863   5.725 -0.5595  0.9277 -1.9627
  102SOPE   H8113403   2.493   4.021   5.716  0.8185  0.3121  0.8900
  102SOPE   C4313404   2.564   3.889   5.880 -0.1970  0.1180  0.4580
  102SOPE   H8213405   2.615   3.794   5.887  2.0604  1.4588  2.7581
  102SOPE   H8313406   2.642   3.964   5.888  0.0744 -0.0764 -0.3472
  102SOPE   C4413407   2.463   3.907   5.999  0.0858  0.4170 -0.2212
  102SOPE   H8413408   2.396   3.822   6.008  0.9401 -0.4959 -2.0338
  102SOPE   H8513409   2.531   3.928   6.081 -0.6190 -1.3097  0.8154
  102SOPE   H8613410   2.407   4.000   5.990  0.2168  0.5946  0.7630
  103SOPE    N113411   5.418   5.661   3.183  0.0074 -0.2161 -0.4949
  103SOPE    C113412   5.481   5.563   3.279  0.6161  0.3799 -0.2880
  103SOPE    H113413   5.589   5.560   3.289  0.3981  1.2675  2.7563
  103SOPE    H213414   5.446   5.464   3.250  1.4868 -0.0644  0.1618
  103SOPE    H313415   5.471   5.745   3.202 -0.9057  0.2292  0.0991
  103SOPE    H413416   5.319   5.672   3.199 -0.1980 -1.7996 -0.5878
  103SOPE    H513417   5.438   5.617   3.094  0.0553 -0.5059 -0.3426
  103SOPE    C513418   5.443   5.596   3.421  0.2430  1.0170 -0.0145
  103SOPE   H1213419   5.348   5.553   3.451  0.4784  0.4151 -0.1266
  103SOPE   H1313420   5.429   5.702   3.441 -2.6952  0.6500  0.1286
  103SOPE    P113421   5.525   5.389   3.573 -0.1976  0.1867 -0.0511
  103SOPE    O113422   5.487   5.297   3.461  0.0901  0.8014  0.1942
  103SOPE    O213423   5.650   5.371   3.647  0.2074  0.0458 -0.2988
  103SOPE    O313424   5.539   5.534   3.512  0.0809 -0.1387 -0.2041
  103SOPE    O413425   5.407   5.385   3.680 -0.1844  0.1691  0.0684
  103SOPE    C613426   5.400   5.483   3.775 -0.3300  0.1274 -0.1491
  103SOPE   H1413427   5.371   5.577   3.728 -0.9479  0.5963  1.1438
  103SOPE   H1513428   5.494   5.507   3.823  0.7459 -1.1091 -1.6046
  103SOPE    C713429   5.282   5.450   3.875 -0.7794 -0.4275 -0.0907
  103SOPE   H1613430   5.270   5.529   3.950  2.6800 -0.0766  0.1901
  103SOPE    O513431   5.308   5.322   3.936  0.1753  0.0079 -0.0887
  103SOPE    C813432   5.356   5.308   4.061  0.3411  1.2077  0.1195
  103SOPE    O613433   5.355   5.404   4.137  0.0964 -0.6283  0.1484
  103SOPE    C913434   5.322   5.165   4.113 -0.5382  0.6347 -0.0802
  103SOPE   H1713435   5.291   5.105   4.028 -1.2475  1.1194 -0.1712
  103SOPE   H1813436   5.237   5.155   4.181  0.2829  0.2609  0.9115
  103SOPE   C1013437   5.151   5.439   3.802 -0.1041 -0.4458 -0.0189
  103SOPE   H1913438   5.169   5.363   3.725 -1.0226  1.5176 -2.2463
  103SOPE   H2013439   5.126   5.530   3.748  1.3089 -0.8094 -1.3294
  103SOPE    O713440   5.053   5.411   3.900  0.6480 -0.1098 -0.2474
  103SOPE   C1113441   4.995   5.299   3.892 -0.2186 -0.5299 -0.5302
  103SOPE    O813442   5.034   5.200   3.830  0.0518 -0.5138  0.2412
  103SOPE   C1213443   4.873   5.283   3.982 -0.2518  0.2436  0.1470
  103SOPE   H2113444   4.805   5.207   3.945  0.2889 -0.3330  0.3346
  103SOPE   H2213445   4.836   5.385   3.989  0.8341  0.8364 -2.1188
  103SOPE   C1313446   4.915   5.216   4.124  0.4398 -0.0718 -0.0451
  103SOPE   H2313447   4.992   5.139   4.120  0.8145  0.3682 -2.1816
  103SOPE   H2413448   4.829   5.171   4.175 -0.6905  0.7432 -1.2009
  103SOPE   C1413449   4.981   5.329   4.209  0.3450 -0.4793  0.5017
  103SOPE   H2513450   4.922   5.420   4.200 -0.9121 -1.1439  1.8369
  103SOPE   H2613451   5.083   5.356   4.183 -0.4939  2.7413  0.3036
  103SOPE   C1513452   4.989   5.285   4.355 -0.9677 -0.4790 -0.5837
  103SOPE   H2713453   5.018   5.180   4.357  1.6661  0.2378  0.9518
  103SOPE   H2813454   4.890   5.294   4.400  0.0901  2.2987  1.3276
  103SOPE   C1613455   5.097   5.371   4.433 -0.3019  0.4027 -0.1271
  103SOPE   H2913456   5.057   5.471   4.446 -0.7901  0.5875 -2.8784
  103SOPE   H3013457   5.186   5.386   4.371 -0.2034  0.3352 -0.0048
  103SOPE   C1713458   5.133   5.306   4.575 -0.0413  0.8928 -0.0574
  103SOPE   H3113459   5.140   5.197   4.571 -0.4545  0.8341  0.6163
  103SOPE   H3213460   5.045   5.323   4.637 -0.8885 -2.5189 -0.2223
  103SOPE   C1813461   5.263   5.363   4.634 -0.0315 -0.4335  0.1522
  103SOPE   H3313462   5.265   5.467   4.665  0.7728 -0.6327  0.7697
  103SOPE   H3413463   5.345   5.362   4.562  0.3063 -3.1190  0.5415
  103SOPE   C1913464   5.312   5.269   4.742 -0.5270 -0.2073  0.3281
  103SOPE   H3513465   5.365   5.187   4.695  1.1676  1.4099 -0.6686
  103SOPE   C2013466   5.299   5.273   4.874  0.3057 -0.7830 -0.1348
  103SOPE   H3613467   5.347   5.189   4.923  1.5104  0.1868  0.3899
  103SOPE   C2113468   5.246   5.383   4.962  0.0638 -0.0997  0.8075
  103SOPE   H3713469   5.192   5.460   4.906  1.2190  1.6426  2.0473
  103SOPE   H3813470   5.330   5.436   5.005  0.6734 -0.7706  0.4423
  103SOPE   C2213471   5.149   5.321   5.064  0.0930 -0.6778  0.3555
  103SOPE   H3913472   5.077   5.258   5.011 -1.5415  2.2992 -1.1316
  103SOPE   H4013473   5.091   5.400   5.111  1.5660  1.3937 -1.2145
  103SOPE   C2313474   5.212   5.247   5.184 -0.5581 -0.1551  0.5446
  103SOPE   H4113475   5.261   5.324   5.244  1.0357  1.0178 -2.1622
  103SOPE   H4213476   5.291   5.178   5.155  1.3204  2.6149 -1.1337
  103SOPE   C2413477   5.097   5.168   5.258  0.6574  0.3019  0.8362
  103SOPE   H4313478   5.151   5.108   5.331  1.1698 -1.1688 -0.7128
  103SOPE   H4413479   5.056   5.107   5.177 -0.2965  0.7270  0.9939
  103SOPE   C2513480   4.995   5.244   5.338  0.7054 -0.6166  0.5934
  103SOPE   H4513481   4.928   5.169   5.382 -0.4849 -1.1860 -2.0528
  103SOPE   H4613482   4.942   5.299   5.260 -0.4626 -0.7733  1.2632
  103SOPE   C2613483   5.056   5.336   5.442 -0.8002  0.1246 -0.1535
  103SOPE   H4713484   5.132   5.283   5.500 -1.7136  0.7516  1.6757
  103SOPE   H4813485   5.118   5.414   5.398 -0.3607 -0.5657 -0.7680
  103SOPE   C2713486   4.950   5.385   5.532 -0.2242  0.4590  0.2714
  103SOPE   H4913487   4.909   5.307   5.596 -0.8946  0.3447 -0.2917
  103SOPE   H5013488   4.866   5.429   5.478  0.5067  0.1353 -1.1541
  103SOPE   C2713489   4.990   5.492   5.631 -0.1927 -0.2916  0.1622
  103SOPE   H5113490   4.912   5.536   5.694  0.1101 -0.5092  0.6992
  103SOPE   H5213491   5.070   5.466   5.700  0.0635 -0.7680 -0.3140
  103SOPE   H5313492   5.033   5.578   5.580  0.7778 -0.0742  1.3065
  103SOPE   C2913493   5.447   5.109   4.189  0.2137 -0.3336  0.8516
  103SOPE   H5413494   5.518   5.111   4.107  0.2385  1.0156  0.8991
  103SOPE   H5513495   5.434   5.003   4.214  1.8902 -0.3384  1.7535
  103SOPE   C3013496   5.500   5.178   4.315 -0.1929  0.2520 -0.8449
  103SOPE   H5613497   5.428   5.180   4.397  1.3790 -2.7322  0.6586
  103SOPE   H5713498   5.523   5.285   4.309  1.9124 -0.1977 -0.9602
  103SOPE   C3113499   5.614   5.103   4.379 -0.0692 -0.1586  0.0463
  103SOPE   H5813500   5.708   5.093   4.325  0.4303  3.9020  0.0045
  103SOPE   H5913501   5.599   4.996   4.383 -0.3529 -0.0329  3.5940
  103SOPE   C3213502   5.654   5.148   4.527 -0.9260 -0.1954  0.4323
  103SOPE   H6013503   5.598   5.240   4.545  1.3702  1.6813 -1.8095
  103SOPE   H6113504   5.758   5.173   4.510 -1.0409  0.3296  0.4935
  103SOPE   C3313505   5.632   5.042   4.632 -0.0014  0.1141 -0.0222
  103SOPE   H6213506   5.694   4.953   4.624 -1.5894 -1.1298  1.0242
  103SOPE   H6313507   5.528   5.011   4.642  0.3339 -1.0909 -0.1710
  103SOPE   C3413508   5.672   5.090   4.770 -0.1359 -0.2573 -0.8842
  103SOPE   H6413509   5.596   5.159   4.807  1.1459  0.5534  0.2628
  103SOPE   H6513510   5.768   5.141   4.765  0.3325 -0.6462  3.1053
  103SOPE   C3513511   5.677   4.980   4.874 -0.1107  0.3420  0.6803
  103SOPE   H6613512   5.762   4.920   4.843  0.0889  0.9098  0.1183
  103SOPE   H6713513   5.586   4.923   4.857 -1.1952  2.9785 -2.7983
  103SOPE   C3613514   5.699   5.035   5.014  0.8411 -0.9423 -0.2596
  103SOPE   H6813515   5.621   5.103   5.047  1.3651  0.3027 -1.5577
  103SOPE   H6913516   5.799   5.074   4.999  1.1718 -2.3762 -1.9099
  103SOPE   C3713517   5.689   4.933   5.123 -0.1890  0.3127 -0.0795
  103SOPE   H7013518   5.723   4.834   5.091 -1.0443  0.1795 -0.5720
  103SOPE   H7113519   5.582   4.926   5.140 -0.1875  0.9885  0.2227
  103SOPE   C3813520   5.755   4.974   5.261  0.2460 -0.0631  0.4403
  103SOPE   H7213521   5.854   5.022   5.258  0.4452 -0.5744 -1.8535
  103SOPE   H7313522   5.768   4.881   5.316 -1.7099 -2.6631 -3.2642
  103SOPE   C3913523   5.655   5.052   5.346  0.1885  0.3480  0.2868
  103SOPE   H7413524   5.559   5.001   5.360  0.2914  0.2136  0.5008
  103SOPE   H7513525   5.633   5.147   5.297 -0.1789 -0.5931 -1.4044
  103SOPE   C4013526   5.703   5.090   5.484 -0.1969  0.2268 -0.1506
  103SOPE   H7613527   5.649   5.165   5.541 -1.4275 -0.1120 -0.8658
  103SOPE   H7713528   5.799   5.138   5.465 -0.4383  1.1037  0.7498
  103SOPE   C4113529   5.744   4.977   5.578 -0.1998  0.3282  0.2048
  103SOPE   H7813530   5.844   4.936   5.562 -1.1968 -1.3562 -2.1166
  103SOPE   H7913531   5.680   4.889   5.575  1.5902 -1.0089 -0.3016
  103SOPE   C4213532   5.746   5.019   5.723  0.0045 -0.2846  0.0910
  103SOPE   H8013533   5.642   5.044   5.744 -0.2776  0.3320 -1.8585
  103SOPE   H8113534   5.797   5.115   5.737 -2.3294  0.9616  0.2123
  103SOPE   C4313535   5.795   4.910   5.807 -0.4427 -0.1855  0.4484
  103SOPE   H8213536   5.733   4.823   5.787 -1.9300  1.1983 -1.0470
  103SOPE   H8313537   5.893   4.871   5.777  1.1352  1.7567  2.8681
  103SOPE   C4413538   5.794   4.949   5.953 -0.0864 -0.4244 -0.0151
  103SOPE   H8413539   5.818   4.862   6.015 -0.4447 -1.2538 -1.0317
  103SOPE   H8513540   5.870   5.024   5.976 -0.7904 -0.3596  2.2155
  103SOPE   H8613541   5.700   4.991   5.989  0.0456 -1.0750  1.1182
  104SOPE    N113542   5.799   5.630   3.647  0.3040 -0.3023  0.4164
  104SOPE    C113543   5.919   5.595   3.720 -0.0308 -0.3932 -0.1473
  104SOPE    H113544   0.057   5.634   3.667  0.1549  0.4840  0.7959
  104SOPE    H213545   5.927   5.487   3.736  0.3020  0.1564  3.6923
  104SOPE    H313546   5.828   5.720   3.611  0.8201 -0.7458 -0.2867
  104SOPE    H413547   5.714   5.634   3.702  0.1977 -0.5936  0.2734
  104SOPE    H513548   5.787   5.560   3.575 -0.4245  0.2540 -0.0134
  104SOPE    C513549   5.913   5.643   3.868  0.1948  0.1517  0.5297
  104SOPE   H1213550   5.903   5.751   3.875  3.8118  0.5362  0.7740
  104SOPE   H1313551   5.840   5.592   3.931  0.1052  0.3609  0.5979
  104SOPE    P113552   0.203   5.736   3.926 -0.0890  0.0459 -0.3186
  104SOPE    O113553   0.330   5.670   3.914 -0.0872  0.8479 -0.2236
  104SOPE    O213554   0.179   5.835   3.825  0.4596  0.1933  0.8600
  104SOPE    O313555   0.088   5.623   3.927 -0.5336  0.2308  0.7536
  104SOPE    O413556   0.175   5.812   4.056 -0.0692 -0.3766 -0.3780
  104SOPE    C613557   0.181   5.756   4.182  0.0039 -0.7964 -0.0310
  104SOPE   H1413558   0.163   5.648   4.180  1.6823 -1.0645 -1.5514
  104SOPE   H1513559   0.094   5.781   4.243  0.1038  1.4300 -0.7682
  104SOPE    C713560   0.296   5.794   4.262 -0.4867 -0.8504 -0.0201
  104SOPE   H1613561   0.371   5.737   4.208 -0.1487 -1.0975  0.6971
  104SOPE    O513562   0.275   5.745   4.394  0.6724 -0.1493  0.9253
  104SOPE    C813563   0.376   5.674   4.455 -0.2463  0.1624 -0.1886
  104SOPE    O613564   0.489   5.668   4.403 -0.2274 -0.0620 -0.0830
  104SOPE    C913565   0.349   5.671   4.602  0.1507  0.0286  0.0055
  104SOPE   H1713566   0.307   5.576   4.634  1.8862 -0.6775  0.2577
  104SOPE   H1813567   0.269   5.736   4.637  2.4585  2.5514  0.6997
  104SOPE   C1013568   0.325   5.944   4.263 -0.0186 -0.0268  0.4639
  104SOPE   H1913569   0.349   0.031   4.162 -0.3888  1.4974  0.9048
  104SOPE   H2013570   0.419   0.011   4.317 -0.4712 -0.8139  1.4897
  104SOPE    O713571   0.213   0.067   4.304  0.1068  0.4588 -0.9189
  104SOPE   C1113572   0.201   0.100   4.433  0.4862 -1.6329  0.5704
  104SOPE    O813573   0.297   0.087   4.510  0.4520 -0.0586  0.3624
  104SOPE   C1213574   0.089   0.188   4.465 -0.2958 -0.5193 -0.1887
  104SOPE   H2113575   0.031   0.174   4.374  1.3014 -1.1870 -1.1330
  104SOPE   H2213576   0.114   0.293   4.452 -0.9517 -0.4839 -1.1834
  104SOPE   C1313577   0.019   0.153   4.600  0.7654  0.4935 -0.6778
  104SOPE   H2313578   5.927   0.052   4.607 -1.8795  1.5059 -0.8317
  104SOPE   H2413579   5.877   0.212   4.604  0.2952 -0.1679 -1.5124
  104SOPE   C1413580   0.117   0.184   4.721 -0.5457 -0.3078 -0.0208
  104SOPE   H2513581   0.176   0.273   4.699  0.0185 -0.5957  0.3383
  104SOPE   H2613582   0.190   0.109   4.751  0.9798  0.7838 -0.9349
  104SOPE   C1513583   0.036   0.214   4.850  0.4892  0.9014 -0.0492
  104SOPE   H2713584   5.915   0.297   4.840  0.0371  0.5028 -0.2406
  104SOPE   H2813585   0.106   0.240   4.928 -1.4338  0.6273  1.8165
  104SOPE   C1613586   5.895   0.094   4.907  0.5413 -0.5442  0.3584
  104SOPE   H2913587   5.936   0.049   4.998 -1.6593 -0.6544  1.3206
  104SOPE   H3013588   5.887   0.012   4.835 -4.4144  0.7464 -0.7360
  104SOPE   C1713589   5.748   0.134   4.933  0.0739 -0.0505 -0.4630
  104SOPE   H3113590   5.689   0.177   4.852 -0.0290  2.4244  0.8598
  104SOPE   H3213591   5.740   0.212   5.009  0.6443 -1.7269  1.3562
  104SOPE   C1813592   5.658   0.014   4.972  0.2914 -0.3594 -0.4827
  104SOPE   H3313593   5.696   5.936   5.070 -1.0480  1.6035  0.5976
  104SOPE   H3413594   5.672   5.887   4.895 -1.6194 -0.0562 -1.1705
  104SOPE   C1913595   5.511   0.036   4.973 -0.2851 -0.1766 -0.0015
  104SOPE   H3513596   5.463   0.073   4.883  0.1385 -2.0681 -1.0394
  104SOPE   C2013597   5.437   0.053   5.082  0.4827 -0.1514 -0.6186
  104SOPE   H3613598   5.334   0.074   5.057  0.1453 -0.9933  0.0318
  104SOPE   C2113599   5.453   5.946   5.222  0.1123 -0.0810  0.7189
  104SOPE   H3713600   5.461   0.077   5.295  0.8702  0.7831 -0.3092
  104SOPE   H3813601   5.550   5.896   5.229 -0.4363 -1.3402 -0.3116
  104SOPE   C2213602   5.350   5.852   5.271 -0.0525  0.2579 -0.1768
  104SOPE   H3913603   5.309   5.788   5.192 -1.1132 -1.1194  1.4417
  104SOPE   H4013604   5.258   5.902   5.300 -0.8019  0.0235 -2.0346
  104SOPE   C2313605   5.400   5.765   5.388 -0.4020 -0.4476  0.6390
  104SOPE   H4113606   5.461   5.831   5.450 -1.2651  2.0040 -1.0464
  104SOPE   H4213607   5.462   5.682   5.354  0.5672 -0.8439  3.2420
  104SOPE   C2413608   5.282   5.717   5.471 -0.5190  0.4481  0.0395
  104SOPE   H4313609   5.244   5.626   5.424 -0.9127  0.3294  0.5776
  104SOPE   H4413610   5.202   5.791   5.462  1.8903  2.9919 -1.1927
  104SOPE   C2513611   5.330   5.697   5.616 -0.1999  0.0337  0.3126
  104SOPE   H4513612   5.251   5.656   5.679 -1.2242 -1.4277 -1.8372
  104SOPE   H4613613   5.352   5.796   5.655  0.1211  0.1102 -0.0550
  104SOPE   C2613614   5.449   5.607   5.619  0.3115 -0.4138  0.0085
  104SOPE   H4713615   5.455   5.538   5.536  1.4908  0.9405 -1.0467
  104SOPE   H4813616   5.543   5.661   5.608  1.0208 -1.4017  1.0982
  104SOPE   C2713617   5.467   5.541   5.752  0.2829  0.2334  0.5778
  104SOPE   H4913618   5.475   5.615   5.831 -0.4343 -0.5663  1.4176
  104SOPE   H5013619   5.562   5.488   5.748  0.6469  1.0080 -2.8377
  104SOPE   C2713620   5.361   5.434   5.785 -0.3486  0.4548 -0.4004
  104SOPE   H5113621   5.316   5.405   5.690  1.8904  0.3991 -1.4852
  104SOPE   H5213622   5.401   5.341   5.825  2.8883  1.8317 -0.2061
  104SOPE   H5313623   5.291   5.482   5.853 -0.8819  0.8610 -1.2284
  104SOPE   C2913624   0.477   5.712   4.680 -1.1882 -0.8960 -0.0549
  104SOPE   H5413625   0.528   5.800   4.640 -1.1560 -1.1249 -0.5252
  104SOPE   H5513626   0.548   5.639   4.641 -1.1681 -0.3800 -0.9949
  104SOPE   C3013627   0.449   5.710   4.831  0.2807  0.4011 -0.4276
  104SOPE   H5613628   0.355   5.762   4.849 -0.7604 -1.4495 -0.3949
  104SOPE   H5713629   0.531   5.763   4.881 -0.2462  0.6558  0.1732
  104SOPE   C3113630   0.439   5.579   4.905 -0.6128 -0.3543  0.8359
  104SOPE   H5813631   0.350   5.533   4.863 -0.2089 -1.3329  1.0447
  104SOPE   H5913632   0.418   5.588   5.012  0.7529 -0.3696  1.1164
  104SOPE   C3213633   0.578   5.503   4.912 -0.4734  0.4139 -0.4535
  104SOPE   H6013634   0.654   5.554   4.970 -0.0282 -1.3652  0.5882
  104SOPE   H6113635   0.612   5.480   4.811  1.3101  2.1620 -0.2603
  104SOPE   C3313636   0.558   5.364   4.973 -0.4981  0.8761 -0.2528
  104SOPE   H6213637   0.478   5.325   4.910 -0.0374  0.4953 -0.6110
  104SOPE   H6313638   0.523   5.376   5.075  0.5315 -0.0879  0.2340
  104SOPE   C3413639   0.680   5.277   4.987  0.0671  0.1427  0.2913
  104SOPE   H6413640   0.762   5.336   5.028 -0.1844  1.6076 -1.2191
  104SOPE   H6513641   0.715   5.232   4.894  1.9251 -0.8819  1.4635
  104SOPE   C3513642   0.662   5.162   5.094 -0.1279 -0.3545 -0.1803
  104SOPE   H6613643   0.749   5.097   5.097  0.8810  1.0124  1.3973
  104SOPE   H6713644   0.580   5.099   5.059  0.4138 -0.5720 -1.0855
  104SOPE   C3613645   0.635   5.209   5.236 -0.4678  0.1010 -1.2307
  104SOPE   H6813646   0.529   5.234   5.247 -0.3403  1.1535 -2.2135
  104SOPE   H6913647   0.686   5.305   5.246 -0.6530 -0.1034  2.0335
  104SOPE   C3713648   0.677   5.105   5.342 -0.0044 -0.3362  0.6136
  104SOPE   H7013649   0.783   5.079   5.350  0.0225 -0.5563 -0.3632
  104SOPE   H7113650   0.640   5.004   5.321  0.0457  0.0666 -1.5547
  104SOPE   C3813651   0.654   5.164   5.490  0.5155 -0.6432  0.1288
  104SOPE   H7213652   0.546   5.174   5.501  0.5064  1.6009 -1.6397
  104SOPE   H7313653   0.693   5.265   5.496 -0.2817 -0.2544 -0.9020
  104SOPE   C3913654   0.722   5.087   5.605  0.5920  0.8501  0.6361
  104SOPE   H7413655   0.817   5.047   5.570 -0.9469 -0.8550 -1.7654
  104SOPE   H7513656   0.658   5.004   5.636 -0.0399  0.6617 -1.1467
  104SOPE   C4013657   0.747   5.188   5.721 -0.5107  0.5326  0.2810
  104SOPE   H7613658   0.804   5.272   5.680  1.2523 -2.1428 -2.9496
  104SOPE   H7713659   0.810   5.142   5.796 -0.4947 -1.9288 -1.2148
  104SOPE   C4113660   0.627   5.229   5.796  0.0791 -0.0115  0.5878
  104SOPE   H7813661   0.594   5.130   5.828  0.1121 -0.0494  0.5120
  104SOPE   H7913662   0.545   5.262   5.732 -1.6503 -1.8087  1.8217
  104SOPE   C4213663   0.657   5.332   5.912  0.7855 -0.5478 -0.4260
  104SOPE   H8013664   0.688   5.429   5.875  0.8149 -0.3460  0.1324
  104SOPE   H8113665   0.750   5.307   5.962 -0.9119 -3.0329  1.6497
  104SOPE   C4313666   0.537   5.343   6.010  0.2571  0.1183 -0.0556
  104SOPE   H8213667   0.547   5.437   6.063  0.2186 -0.3278  0.7510
  104SOPE   H8313668   0.441   5.363   5.963  0.4472  2.7770  0.6424
  104SOPE   C4413669   0.534   5.225   6.104  0.2784 -0.1721 -0.0451
  104SOPE   H8413670   0.516   5.139   6.040  1.1249  0.6450 -1.4105
  104SOPE   H8513671   0.630   5.234   6.155 -0.2486  1.4061  0.7153
  104SOPE   H8613672   0.454   5.239   6.176 -0.4151 -0.7710 -0.6968
  105SOPE    N113673   1.531   1.690   4.101 -0.0735  0.6789 -0.3568
  105SOPE    C113674   1.555   1.554   4.057  0.2553  0.2989  0.2516
  105SOPE    H113675   1.606   1.562   3.962 -0.4128  0.4141 -0.0991
  105SOPE    H213676   1.460   1.506   4.035  1.4477 -1.7761 -0.4173
  105SOPE    H313677   1.483   1.687   4.190  0.3601  1.0547 -0.1023
  105SOPE    H413678   1.472   1.735   4.033  0.1994  0.8689 -0.4699
  105SOPE    H513679   1.622   1.733   4.112  0.8369 -1.3398  0.1775
  105SOPE    C513680   1.647   1.474   4.155 -0.9926 -0.3157  0.8481
  105SOPE   H1213681   1.588   1.438   4.239 -1.7755 -1.6005 -0.2185
  105SOPE   H1313682   1.732   1.533   4.189  0.2708 -1.1607 -0.7837
  105SOPE    P113683   1.835   1.323   4.056  0.0637  0.1135  0.0957
  105SOPE    O113684   1.843   1.202   3.968 -0.4043  0.0345 -0.0535
  105SOPE    O213685   1.886   1.454   3.995 -0.3028  0.1174 -0.5591
  105SOPE    O313686   1.687   1.356   4.089  0.3095 -0.3528  0.0722
  105SOPE    O413687   1.905   1.291   4.201  0.6585 -0.6063  0.2425
  105SOPE    C613688   1.856   1.188   4.285  0.3293  0.2776  0.0596
  105SOPE   H1413689   1.942   1.124   4.310  0.1152 -0.7579 -1.8078
  105SOPE   H1513690   1.785   1.121   4.237  2.0470  1.2061 -3.9136
  105SOPE    C713691   1.805   1.269   4.406 -0.0081  0.1067  0.2018
  105SOPE   H1613692   1.735   1.346   4.372 -0.7377  0.4707  2.4474
  105SOPE    O513693   1.915   1.316   4.483  0.0061  0.0168  0.0459
  105SOPE    C813694   1.948   1.440   4.480 -0.2526  0.5946 -0.4241
  105SOPE    O613695   1.904   1.526   4.405  0.2594 -0.3488 -0.3807
  105SOPE    C913696   2.037   1.476   4.600 -0.6489  0.0997 -0.2946
  105SOPE   H1713697   2.132   1.512   4.561 -0.0431 -3.1801 -2.0754
  105SOPE   H1813698   2.065   1.385   4.653  2.1380  1.3958  0.5611
  105SOPE   C1013699   1.719   1.183   4.499 -0.2519 -0.6414  0.2245
  105SOPE   H1913700   1.620   1.159   4.462 -0.2184 -0.1516 -0.1810
  105SOPE   H2013701   1.771   1.088   4.514  0.7176 -0.4869 -1.9668
  105SOPE    O713702   1.708   1.242   4.626 -0.4939  0.1350 -0.4520
  105SOPE   C1113703   1.622   1.340   4.648 -0.5366 -0.0957  0.2939
  105SOPE    O813704   1.539   1.383   4.570 -0.0698 -0.5776  0.3038
  105SOPE   C1213705   1.634   1.382   4.789 -0.0612 -0.0386 -0.7327
  105SOPE   H2113706   1.676   1.482   4.786  0.5928 -0.3023 -0.5924
  105SOPE   H2213707   1.698   1.313   4.845 -0.7508 -0.9571 -1.0580
  105SOPE   C1313708   1.502   1.372   4.869 -0.3697  0.3719  0.0430
  105SOPE   H2313709   1.414   1.405   4.813 -0.8232  1.3588  1.3048
  105SOPE   H2413710   1.512   1.451   4.942 -0.7718  1.5831 -1.1840
  105SOPE   C1413711   1.465   1.230   4.929 -0.2218  0.0884 -0.1178
  105SOPE   H2513712   1.546   1.192   4.990 -0.7493 -1.7396 -0.5325
  105SOPE   H2613713   1.445   1.151   4.857 -1.9909 -0.4194  0.8785
  105SOPE   C1513714   1.335   1.236   5.009  0.0638 -0.2745 -0.0942
  105SOPE   H2713715   1.252   1.260   4.942 -0.6138  0.3637  0.9644
  105SOPE   H2813716   1.342   1.313   5.085 -0.0496 -1.1311  0.7923
  105SOPE   C1613717   1.311   1.102   5.078  0.0426  0.3405 -0.1702
  105SOPE   H2913718   1.277   1.030   5.004  0.3666 -0.2009  0.2039
  105SOPE   H3013719   1.404   1.062   5.120 -0.5512 -1.1312 -0.2368
  105SOPE   C1713720   1.195   1.106   5.181 -0.4624 -0.1283 -0.2776
  105SOPE   H3113721   1.102   1.135   5.131 -0.8506  0.0389  0.5294
  105SOPE   H3213722   1.184   1.007   5.224  2.8811  0.0476  1.1218
  105SOPE   C1813723   1.206   1.206   5.304 -0.5104 -0.7489  1.3524
  105SOPE   H3313724   1.222   1.307   5.264  0.1343 -1.2104  0.4247
  105SOPE   H3413725   1.103   1.210   5.338 -0.9187  1.5598  0.0364
  105SOPE   C1913726   1.315   1.181   5.409 -0.6715 -0.5539  0.1826
  105SOPE   H3513727   1.414   1.212   5.380 -0.5675 -1.3512 -0.3162
  105SOPE   C2013728   1.305   1.102   5.517 -0.3353 -0.4478  0.2825
  105SOPE   H3613729   1.398   1.083   5.570 -0.6585 -1.7340  0.4216
  105SOPE   C2113730   1.176   1.060   5.578 -0.2887 -0.4683 -0.3467
  105SOPE   H3713731   1.189   0.953   5.591  1.0447 -0.2494  0.2522
  105SOPE   H3813732   1.096   1.055   5.504 -2.2949  1.3622  1.6243
  105SOPE   C2213733   1.148   1.146   5.699 -0.4874  0.2789  0.1692
  105SOPE   H3913734   1.167   1.249   5.671  1.4997  0.1904  1.0861
  105SOPE   H4013735   1.231   1.137   5.770 -0.0461 -0.2698 -0.4127
  105SOPE   C2313736   1.022   1.120   5.778  0.0250  0.3680  1.3044
  105SOPE   H4113737   0.930   1.111   5.720  1.0780  0.4020 -0.3973
  105SOPE   H4213738   1.001   1.207   5.839 -0.4288  1.5041 -0.4289
  105SOPE   C2413739   1.033   1.006   5.888 -0.2253  0.1525 -0.4958
  105SOPE   H4313740   1.120   1.024   5.952 -0.0951  0.3389 -0.7206
  105SOPE   H4413741   1.060   0.905   5.857  0.8573 -0.0865  1.1630
  105SOPE   C2513742   0.910   1.013   5.974  0.3965  0.0784  0.4612
  105SOPE   H4513743   0.833   0.971   5.909  0.0334  2.2511 -0.5479
  105SOPE   H4613744   0.885   1.113   6.009  0.3187 -0.0553  0.7971
  105SOPE   C2613745   0.940   0.921   6.096 -0.2479  0.2447 -0.8232
  105SOPE   H4713746   0.948   0.818   6.062 -1.3427 -0.0460 -0.2088
  105SOPE   H4813747   1.040   0.942   6.136 -0.5496  1.1083 -0.4980
  105SOPE   C2713748   0.835   0.925   6.205 -0.0850 -0.0959  0.1681
  105SOPE   H4913749   0.847   1.023   6.250 -1.5900  1.0769 -1.9079
  105SOPE   H5013750   0.735   0.909   6.165 -1.1104  0.6119  2.3864
  105SOPE   C2713751   0.848   0.812   6.308 -0.1060  0.0581 -0.1325
  105SOPE   H5113752   0.787   0.833   6.396  1.0472 -0.4998  0.8144
  105SOPE   H5213753   0.825   0.710   6.275  3.4155 -1.4315  1.7519
  105SOPE   H5313754   0.954   0.806   6.331 -0.0009  2.3054  0.0544
  105SOPE   C2913755   1.981   1.586   4.690  0.2140 -0.0386 -0.2739
  105SOPE   H5413756   1.875   1.578   4.712  0.4013 -1.2175  0.2436
  105SOPE   H5513757   1.992   1.679   4.633 -2.6551  0.8526  0.5513
  105SOPE   C3013758   2.066   1.595   4.817 -0.0225 -0.4723  0.2850
  105SOPE   H5613759   2.046   1.689   4.867  0.4412 -0.6488  0.8032
  105SOPE   H5713760   2.171   1.607   4.792 -0.1384 -0.5318 -0.2431
  105SOPE   C3113761   2.047   1.481   4.916 -0.3815  0.0884  0.4449
  105SOPE   H5813762   2.058   1.383   4.871  2.0725  1.0188 -1.0964
  105SOPE   H5913763   1.942   1.489   4.943 -0.8609 -0.3494 -1.2438
  105SOPE   C3213764   2.129   1.484   5.048 -0.2973 -0.0895  0.1674
  105SOPE   H6013765   2.112   1.573   5.109  2.6389  1.0688 -0.6335
  105SOPE   H6113766   2.103   1.405   5.118 -0.8176  2.4037  2.8781
  105SOPE   C3313767   2.283   1.470   5.020 -0.1347 -0.0147 -0.6514
  105SOPE   H6213768   2.304   1.372   4.977 -0.3613 -0.2330 -0.2715
  105SOPE   H6313769   2.312   1.548   4.950  1.9433 -0.6937 -0.5751
  105SOPE   C3413770   2.379   1.494   5.138 -0.0229 -0.4216  0.3246
  105SOPE   H6413771   2.346   1.583   5.192 -1.4641  0.3940 -1.8070
  105SOPE   H6513772   2.479   1.518   5.104  0.1579 -0.0217  1.1168
  105SOPE   C3513773   2.380   1.378   5.241 -0.8895  0.2160 -0.0358
  105SOPE   H6613774   2.373   1.284   5.186 -0.6491 -0.6283  1.3523
  105SOPE   H6713775   2.291   1.381   5.304 -1.3400 -0.3991 -0.6363
  105SOPE   C3613776   2.507   1.384   5.333 -0.1642 -0.2982 -0.8520
  105SOPE   H6813777   2.518   1.470   5.399 -2.1123  0.7788 -1.8666
  105SOPE   H6913778   2.590   1.374   5.263 -0.2543 -2.3297 -0.7166
  105SOPE   C3713779   2.507   1.261   5.424 -0.1886 -0.0988  0.4594
  105SOPE   H7013780   2.603   1.232   5.466 -0.5092 -0.3202  1.0661
  105SOPE   H7113781   2.480   1.177   5.360 -0.0195  0.8996 -0.9421
  105SOPE   C3813782   2.419   1.281   5.555 -0.6441  0.0530 -0.0663
  105SOPE   H7213783   2.312   1.284   5.538 -0.5762 -2.5003 -1.0728
  105SOPE   H7313784   2.430   1.371   5.617  0.4046 -0.0342 -0.1097
  105SOPE   C3913785   2.426   1.159   5.651 -1.0196 -1.1445 -0.4323
  105SOPE   H7413786   2.526   1.130   5.683 -1.2152  0.1382  1.3740
  105SOPE   H7513787   2.387   1.079   5.588 -1.7531 -1.5991  0.5998
  105SOPE   C4013788   2.332   1.187   5.767 -0.4837 -0.9670 -0.1308
  105SOPE   H7613789   2.228   1.183   5.734 -0.5535  2.3033 -0.4461
  105SOPE   H7713790   2.350   1.290   5.795  0.9484 -1.0496 -0.6944
  105SOPE   C4113791   2.354   1.104   5.887  0.3429 -0.4335 -0.0882
  105SOPE   H7813792   2.457   1.121   5.917 -0.2619  1.8674  0.8208
  105SOPE   H7913793   2.337   1.000   5.858  2.3571 -0.3679 -1.6051
  105SOPE   C4213794   2.255   1.155   6.003  0.6640  0.1049 -0.2433
  105SOPE   H8013795   2.161   1.179   5.953  1.3455  0.8598 -1.2016
  105SOPE   H8113796   2.298   1.249   6.039 -1.7301  0.0605  2.8920
  105SOPE   C4313797   2.233   1.053   6.120 -0.8447 -0.4674 -0.2787
  105SOPE   H8213798   2.175   0.974   6.072  0.2551  0.5709 -3.4451
  105SOPE   H8313799   2.323   0.998   6.146 -0.2658  0.1580 -0.9329
  105SOPE   C4413800   2.163   1.103   6.246  0.2742 -0.0095 -0.1758
  105SOPE   H8413801   2.220   1.184   6.290 -1.7396 -0.4886  3.5564
  105SOPE   H8513802   2.077   1.159   6.209  0.0586  0.2225  0.6648
  105SOPE   H8613803   2.138   1.028   6.321 -2.8856 -1.2562 -2.3708
  106SOPE    N113804   1.345   0.871   4.038 -0.0308  0.2315 -0.5702
  106SOPE    C113805   1.232   0.779   4.049 -0.5555 -0.3745  0.5517
  106SOPE    H113806   1.277   0.681   4.064 -1.2639 -1.0077 -1.2658
  106SOPE    H213807   1.177   0.771   3.955 -1.9754  1.3931  1.1933
  106SOPE    H313808   1.383   0.869   4.132  0.0886 -1.2813 -0.6394
  106SOPE    H413809   1.310   0.960   4.006 -1.6075  0.4662  1.6350
  106SOPE    H513810   1.412   0.823   3.980 -0.3858  0.5764 -1.2710
  106SOPE    C513811   1.123   0.811   4.163  0.4664  0.0403 -0.4262
  106SOPE   H1213812   1.120   0.920   4.156  2.4990  0.1082 -0.6267
  106SOPE   H1313813   1.167   0.801   4.262 -1.2114  0.0504  0.3294
  106SOPE    P113814   0.964   0.599   4.191  0.3965  0.3639  0.1739
  106SOPE    O113815   0.822   0.582   4.153  0.4605 -0.0102 -0.9308
  106SOPE    O213816   1.066   0.515   4.135 -0.1857 -0.1239 -0.1120
  106SOPE    O313817   0.992   0.750   4.151  0.7502 -0.1398  0.4979
  106SOPE    O413818   0.974   0.587   4.341 -0.2127 -0.8432  0.6219
  106SOPE    C613819   0.880   0.635   4.431  0.4888  0.2649 -0.2267
  106SOPE   H1413820   0.841   0.730   4.394 -2.1321 -0.8378 -0.3956
  106SOPE   H1513821   0.946   0.664   4.513  0.8477 -0.1678 -0.3569
  106SOPE    C713822   0.787   0.528   4.479  0.0095  0.1218  0.4595
  106SOPE   H1613823   0.711   0.513   4.402 -0.5344 -0.9366  1.1886
  106SOPE    O513824   0.746   0.555   4.609 -0.3943  0.1299  0.2607
  106SOPE    C813825   0.625   0.600   4.624 -0.3427  0.0920 -0.1407
  106SOPE    O613826   0.557   0.651   4.536 -0.2604 -0.2844 -0.0386
  106SOPE    C913827   0.589   0.620   4.772  0.0518 -0.4727  0.2427
  106SOPE   H1713828   0.609   0.722   4.804  0.3206 -0.5908  0.4635
  106SOPE   H1813829   0.653   0.557   4.835  0.0349 -1.7637 -1.0073
  106SOPE   C1013830   0.851   0.388   4.500  0.0759 -0.0444 -0.0437
  106SOPE   H1913831   0.869   0.363   4.395  3.5325  0.4072  0.3787
  106SOPE   H2013832   0.781   0.312   4.534  0.5767 -0.6143 -0.2668
  106SOPE    O713833   0.959   0.396   4.588 -0.4092  0.7111  0.3931
  106SOPE   C1113834   1.068   0.328   4.570 -0.1207 -0.0530 -0.0502
  106SOPE    O813835   1.086   0.239   4.487 -0.0371 -0.0699  0.2058
  106SOPE   C1213836   1.176   0.364   4.668  0.6874  0.6695  0.3009
  106SOPE   H2113837   1.188   0.472   4.681  2.1706  0.7701 -1.7409
  106SOPE   H2213838   1.264   0.330   4.613 -0.6759 -0.2787 -1.3406
  106SOPE   C1313839   1.159   0.297   4.809  0.3001  0.2894 -0.3065
  106SOPE   H2313840   1.254   0.310   4.861 -0.0462  2.2444 -0.1549
  106SOPE   H2413841   1.130   0.193   4.793  0.7723 -0.2341  1.9992
  106SOPE   C1413842   1.048   0.357   4.897  0.5108 -0.0558  0.3367
  106SOPE   H2513843   0.948   0.334   4.860  0.6018  0.8502 -0.5138
  106SOPE   H2613844   1.068   0.464   4.896  0.2532 -0.0007  1.2641
  106SOPE   C1513845   1.055   0.320   5.044  0.6801 -0.2317  0.9222
  106SOPE   H2713846   1.146   0.358   5.091 -0.0247  2.7032  0.0224
  106SOPE   H2813847   1.065   0.212   5.051 -1.6453 -0.6611 -1.6310
  106SOPE   C1613848   0.932   0.366   5.126 -0.0981 -0.2391 -0.1991
  106SOPE   H2913849   0.842   0.314   5.093 -0.4230  1.9720 -2.9916
  106SOPE   H3013850   0.908   0.472   5.116  0.2277 -0.3422 -2.2081
  106SOPE   C1713851   0.928   0.353   5.274 -0.3802  0.8587 -0.2869
  106SOPE   H3113852   0.835   0.388   5.317 -0.0468  0.2366  0.9636
  106SOPE   H3213853   1.011   0.412   5.313  0.2679  0.1364 -0.5521
  106SOPE   C1813854   0.939   0.214   5.325  0.0737  0.4568 -0.0838
  106SOPE   H3313855   0.985   0.233   5.421  2.2683  1.3517 -1.2709
  106SOPE   H3413856   1.008   0.164   5.257 -0.7579 -0.1545 -0.4950
  106SOPE   C1913857   0.806   0.137   5.331 -0.3588  0.1065 -0.4839
  106SOPE   H3513858   0.742   0.159   5.415  0.1599  0.3110 -0.1387
  106SOPE   C2013859   0.764   0.039   5.249 -0.8199  0.1041 -0.7891
  106SOPE   H3613860   0.673   5.937   5.279 -1.2099  1.5127  0.4974
  106SOPE   C2113861   0.826   5.935   5.120 -0.0127 -0.2192  0.1470
  106SOPE   H3713862   0.881   0.067   5.071 -0.7945 -0.0023 -0.3788
  106SOPE   H3813863   0.752   5.898   5.049 -1.6035 -0.2619  1.8036
  106SOPE   C2213864   0.920   5.817   5.152  0.8236  0.0115  0.7102
  106SOPE   H3913865   0.992   5.855   5.224 -0.0458  2.6077  0.2289
  106SOPE   H4013866   0.982   5.797   5.064  1.0567  0.7152  0.7166
  106SOPE   C2313867   0.842   5.694   5.198 -0.5915  0.3700 -0.3416
  106SOPE   H4113868   0.763   5.675   5.124 -2.1413  1.6788  0.9318
  106SOPE   H4213869   0.786   5.725   5.286 -1.8259 -0.8817 -0.6584
  106SOPE   C2413870   0.930   5.572   5.213  0.0390  0.8143 -0.9957
  106SOPE   H4313871   0.859   5.496   5.245 -1.4538  1.9571 -1.5501
  106SOPE   H4413872   1.008   5.589   5.287 -2.5610 -0.4282  2.1178
  106SOPE   C2513873   0.982   5.511   5.078  0.2927 -0.1170 -0.5536
  106SOPE   H4513874   1.068   5.570   5.045  0.4413  1.3572  2.3665
  106SOPE   H4613875   0.901   5.515   5.005 -1.1068  1.5455  1.0411
  106SOPE   C2613876   1.040   5.369   5.099  0.5532  0.3147  0.1922
  106SOPE   H4713877   1.133   5.373   5.156  0.9863  1.1678 -0.5780
  106SOPE   H4813878   0.969   5.316   5.163  0.1213 -3.3072 -3.0544
  106SOPE   C2713879   1.050   5.282   4.960 -0.6725  0.2513 -0.2114
  106SOPE   H4913880   1.143   5.316   4.914 -0.0794 -1.4962 -0.3541
  106SOPE   H5013881   0.965   5.322   4.907 -1.3826  0.2082  0.8799
  106SOPE   C2713882   1.038   5.131   4.981  0.3435  0.2636  0.1482
  106SOPE   H5113883   1.129   5.083   5.018  0.9875 -1.2946 -3.1920
  106SOPE   H5213884   0.943   5.116   5.031 -0.7171  2.0772 -1.2714
  106SOPE   H5313885   1.004   5.092   4.885  0.7285  1.4208 -0.4730
  106SOPE   C2913886   0.438   0.599   4.796 -0.4930  0.1255  0.2230
  106SOPE   H5413887   0.424   0.505   4.743 -1.1819 -0.1326  0.8392
  106SOPE   H5513888   0.374   0.678   4.758 -0.8131  0.5784  1.6600
  106SOPE   C3013889   0.397   0.570   4.947 -0.0585  0.0808  0.2729
  106SOPE   H5613890   0.469   0.495   4.980  0.4332  0.9700  1.2611
  106SOPE   H5713891   0.302   0.517   4.943  0.7604 -1.2767 -1.9524
  106SOPE   C3113892   0.407   0.697   5.032 -0.8190  0.2844 -0.2412
  106SOPE   H5813893   0.333   0.764   4.987  0.3740  0.9099 -1.3104
  106SOPE   H5913894   0.507   0.735   5.012 -0.5232  1.0584  2.4960
  106SOPE   C3213895   0.388   0.684   5.183  0.2552 -0.1292  0.0992
  106SOPE   H6013896   0.479   0.662   5.240 -0.3007  1.0290  1.4566
  106SOPE   H6113897   0.342   0.586   5.198  0.7282 -0.3460  0.1547
  106SOPE   C3313898   0.319   0.804   5.257  0.2113 -0.4288  0.5965
  106SOPE   H6213899   0.217   0.818   5.223 -0.2103  1.7302  2.6303
  106SOPE   H6313900   0.374   0.896   5.237  0.0855 -0.2317  1.1378
  106SOPE   C3413901   0.312   0.764   5.404  0.1342  0.0702 -0.0068
  106SOPE   H6413902   0.412   0.746   5.445  0.8918  0.5824 -1.5816
  106SOPE   H6513903   0.251   0.673   5.407 -0.3963  0.3867 -1.1453
  106SOPE   C3513904   0.248   0.874   5.491  0.3323  0.3529 -0.0281
  106SOPE   H6613905   0.153   0.900   5.444 -0.3565 -0.6832  0.7708
  106SOPE   H6713906   0.311   0.963   5.496  0.9152 -0.0368 -0.4798
  106SOPE   C3613907   0.227   0.813   5.632 -0.3643  0.6235  0.0722
  106SOPE   H6813908   0.312   0.849   5.690 -0.5959 -0.7011  1.2827
  106SOPE   H6913909   0.218   0.706   5.615 -0.6389  0.4484  1.2580
  106SOPE   C3713910   0.105   0.872   5.696  0.3977 -0.0210  0.2233
  106SOPE   H7013911   0.020   0.810   5.667 -0.6722  0.2119  2.7114
  106SOPE   H7113912   0.086   0.969   5.650  1.0000 -0.0509 -0.0957
  106SOPE   C3813913   0.107   0.863   5.849  0.5699 -0.2104  0.6451
  106SOPE   H7213914   0.159   0.954   5.880 -2.0619  0.9058  1.9850
  106SOPE   H7313915   0.179   0.788   5.881 -0.6560 -1.6513  0.0571
  106SOPE   C3913916   5.918   0.834   5.913 -0.4300  0.5619 -0.3529
  106SOPE   H7413917   5.889   0.731   5.895  0.4041  0.4492 -1.0855
  106SOPE   H7513918   5.859   0.898   5.848 -0.7303 -1.0995 -1.7427
  106SOPE   C4013919   5.910   0.878   6.058  0.0063  0.9736  0.4061
  106SOPE   H7613920   5.930   0.985   6.061  1.6165  0.6670  1.2519
  106SOPE   H7713921   0.038   0.829   6.120  0.0161  0.3478 -0.0931
  106SOPE   C4113922   5.763   0.839   6.110  0.6126 -0.0323 -0.2239
  106SOPE   H7813923   5.766   0.731   6.105  0.0058 -0.1217  1.0370
  106SOPE   H7913924   5.682   0.865   6.042  1.8838  1.7409 -1.1081
  106SOPE   C4213925   5.722   0.890   6.252  0.3506 -0.5166  0.8121
  106SOPE   H8013926   5.618   0.862   6.274  0.5593 -2.1779 -0.2758
  106SOPE   H8113927   5.719   0.999   6.241  1.1775 -0.6994 -1.3506
  106SOPE   C4313928   5.826   0.839   6.357  0.6438 -0.2260  0.0066
  106SOPE   H8213929   5.827   0.731   6.340  0.4636 -0.0688 -1.0678
  106SOPE   H8313930   5.928   0.869   6.335  0.9286  1.9640  3.8760
  106SOPE   C4413931   5.796   0.873   6.497  0.3503  0.0478  0.6174
  106SOPE   H8413932   5.881   0.837   6.556  0.3939 -0.4679  0.2415
  106SOPE   H8513933   5.798   0.982   6.500 -3.8528  0.1965  0.2055
  106SOPE   H8613934   5.704   0.831   6.536  0.4824  1.8685  3.0301
  107SOPE    N113935   0.832   1.540   3.753  0.2491 -0.2534  0.4680
  107SOPE    C113936   0.717   1.593   3.824  0.3085  0.3565  0.5207
  107SOPE    H113937   0.637   1.549   3.764  2.0125 -0.2428 -1.3618
  107SOPE    H213938   0.712   1.700   3.803  0.5912  0.3835  0.5896
  107SOPE    H313939   0.832   1.563   3.654  1.2077 -1.7195  0.1042
  107SOPE    H413940   0.831   1.440   3.767 -1.1863 -0.2206  0.6837
  107SOPE    H513941   0.911   1.584   3.798  0.8394 -0.9182  0.0956
  107SOPE    C513942   0.699   1.546   3.967  0.3219  0.1359 -0.3650
  107SOPE   H1213943   0.796   1.543   4.016  0.4958 -0.7337 -0.7613
  107SOPE   H1313944   0.645   1.453   3.983  1.0782 -0.1923  0.3311
  107SOPE    P113945   0.483   1.655   4.065  0.0025  0.2607 -0.6154
  107SOPE    O113946   0.452   1.764   4.154 -0.2165  0.0354 -0.2900
  107SOPE    O213947   0.412   1.655   3.933 -0.4185 -0.1090  0.2854
  107SOPE    O313948   0.636   1.650   4.039  0.3947  0.5993  0.6927
  107SOPE    O413949   0.450   1.517   4.148 -0.0533  0.1615 -0.7057
  107SOPE    C613950   0.506   1.487   4.276 -0.0195  0.5979 -0.3215
  107SOPE   H1413951   0.615   1.497   4.277  0.0916 -0.5653  0.2027
  107SOPE   H1513952   0.493   1.381   4.297  0.4165  0.8059  1.0255
  107SOPE    C713953   0.430   1.548   4.386 -0.2506  0.5450 -0.1254
  107SOPE   H1613954   0.435   1.657   4.385  1.8905  0.4730  0.0050
  107SOPE    O513955   0.487   1.518   4.517  0.4117  0.3426  0.2515
  107SOPE    C813956   0.579   1.603   4.570  0.3819 -0.3039  0.2246
  107SOPE    O613957   0.644   1.679   4.502  0.5277  0.1582  0.4445
  107SOPE    C913958   0.624   1.552   4.708 -0.1439  0.9366 -0.0336
  107SOPE   H1713959   0.727   1.586   4.719 -0.5626  1.7074  1.6756
  107SOPE   H1813960   0.630   1.444   4.706 -0.5789  0.8861  0.9775
  107SOPE   C1013961   0.281   1.506   4.392 -0.1457  0.1400  0.6194
  107SOPE   H1913962   0.222   1.531   4.304  1.6133  0.4606 -0.5112
  107SOPE   H2013963   0.243   1.570   4.471 -0.3318  0.7008  0.0802
  107SOPE    O713964   0.274   1.365   4.433 -0.3663 -0.3001 -0.1604
  107SOPE   C1113965   0.169   1.286   4.395  0.0837  0.3485 -0.3257
  107SOPE    O813966   0.081   1.306   4.310 -0.0052 -0.0501 -0.1979
  107SOPE   C1213967   0.175   1.153   4.463  0.1113  0.7384 -0.4256
  107SOPE   H2113968   0.277   1.115   4.461  0.2176  1.0385 -0.7824
  107SOPE   H2213969   0.108   1.083   4.414  0.9603  1.2941 -2.4165
  107SOPE   C1313970   0.147   1.156   4.613  0.6820 -0.1186 -0.4778
  107SOPE   H2313971   0.226   1.216   4.660  0.0921  1.4313 -1.4527
  107SOPE   H2413972   0.149   1.055   4.655 -2.6006  0.1513  0.4453
  107SOPE   C1413973   0.011   1.219   4.642  0.0152 -0.1129 -0.8757
  107SOPE   H2513974   5.883   1.171   4.581  0.0420 -0.4972 -0.6074
  107SOPE   H2613975   0.012   1.321   4.602 -0.4549 -0.2495 -1.2435
  107SOPE   C1513976   5.924   1.237   4.795  0.3463  0.0685 -0.0411
  107SOPE   H2713977   5.825   1.282   4.800  0.3406  0.3691 -2.2649
  107SOPE   H2813978   0.042   1.291   4.861 -2.5519  3.7281  0.0524
  107SOPE   C1613979   5.913   1.097   4.866  0.1482  0.4543  0.5853
  107SOPE   H2913980   0.061   1.075   4.912 -0.0609 -0.3365  0.6537
  107SOPE   H3013981   5.875   1.014   4.807 -3.1279  3.7424 -2.1698
  107SOPE   C1713982   5.833   1.110   4.993 -0.6824 -0.1575  1.0547
  107SOPE   H3113983   5.880   1.192   5.047 -0.2921  0.3009  0.0256
  107SOPE   H3213984   5.851   1.025   5.059 -2.5838 -1.7333 -0.3644
  107SOPE   C1813985   5.681   1.128   4.978 -0.4152  0.8229  0.3127
  107SOPE   H3313986   5.640   1.036   4.936 -0.6523  1.0853 -0.0294
  107SOPE   H3413987   5.662   1.216   4.917 -1.6998  0.6794  0.4765
  107SOPE   C1913988   5.615   1.144   5.114  0.5905  0.1905  0.6487
  107SOPE   H3513989   5.607   1.239   5.166 -0.0971 -0.4019  1.6334
  107SOPE   C2013990   5.545   1.049   5.175 -0.7268  0.6787  0.3437
  107SOPE   H3613991   5.494   1.072   5.268 -0.4465 -1.0873  0.9552
  107SOPE   C2113992   5.504   0.911   5.121 -0.3735  0.7742 -0.0279
  107SOPE   H3713993   5.534   0.835   5.193  0.0009  0.3630 -0.6232
  107SOPE   H3813994   5.558   0.877   5.033  0.3232  0.0328  0.6710
  107SOPE   C2213995   5.346   0.901   5.111 -0.5016  0.1000 -0.2118
  107SOPE   H3913996   5.323   0.811   5.055 -0.3448 -1.1017  1.6272
  107SOPE   H4013997   5.300   0.980   5.050 -1.5774  0.1692  0.6817
  107SOPE   C2313998   5.273   0.904   5.249 -0.3793  0.4262 -0.4266
  107SOPE   H4113999   5.166   0.887   5.238  0.0083 -2.9810  0.3857
  107SOPE   H4214000   5.260   1.004   5.291  3.7357  0.3346  1.3329
  107SOPE   C2414001   5.330   0.805   5.353  0.1452 -0.9601  0.0298
  107SOPE   H4314002   5.423   0.831   5.404  0.9657 -1.3765 -1.2166
  107SOPE   H4414003   5.359   0.717   5.296 -2.2799 -1.1122 -1.0091
  107SOPE   C2514004   5.231   0.764   5.457 -0.7165 -0.3923  0.2253
  107SOPE   H4514005   5.276   0.686   5.519  3.0041 -0.4841 -2.4464
  107SOPE   H4614006   5.147   0.707   5.417 -0.1632 -1.2011  0.1945
  107SOPE   C2614007   5.192   0.888   5.530 -0.3254 -0.3930 -0.7731
  107SOPE   H4714008   5.263   0.970   5.529 -1.4332  0.6914  2.4909
  107SOPE   H4814009   5.105   0.932   5.479 -0.4881  4.5872  3.4083
  107SOPE   C2714010   5.142   0.856   5.671 -0.4613  0.1738 -0.2623
  107SOPE   H4914011   5.220   0.808   5.729  0.3912  0.6521 -0.9983
  107SOPE   H5014012   5.056   0.789   5.667 -1.4010  1.4539 -4.0307
  107SOPE   C2714013   5.105   0.984   5.741  0.1162 -0.3925  0.2209
  107SOPE   H5114014   5.041   0.956   5.825  2.1705 -2.0129  1.2972
  107SOPE   H5214015   5.193   1.036   5.779  1.0838 -2.9855  1.6383
  107SOPE   H5314016   5.043   1.049   5.678  0.8396 -0.7642 -0.8886
  107SOPE   C2914017   0.533   1.608   4.820  0.2009 -0.4688 -0.1683
  107SOPE   H5414018   0.437   1.559   4.800  1.5354 -3.3610  0.2726
  107SOPE   H5514019   0.506   1.713   4.810  2.5557  0.5667  3.7096
  107SOPE   C3014020   0.579   1.577   4.968 -0.3825 -0.0050 -0.3711
  107SOPE   H5614021   0.675   1.625   4.983 -0.1975 -0.7612  0.9444
  107SOPE   H5714022   0.588   1.469   4.979  0.3915 -0.1877 -2.4901
  107SOPE   C3114023   0.488   1.631   5.087  0.3815 -0.0500  0.0184
  107SOPE   H5814024   0.398   1.572   5.105  0.2612  0.3498  0.7486
  107SOPE   H5914025   0.452   1.732   5.067 -1.2626 -1.1518 -2.8889
  107SOPE   C3214026   0.570   1.634   5.213  0.1998 -0.3105 -0.4185
  107SOPE   H6014027   0.655   1.702   5.203 -2.3297  3.1133  0.5583
  107SOPE   H6114028   0.612   1.534   5.227  1.9247  0.5698  1.0199
  107SOPE   C3314029   0.496   1.675   5.338  0.0825  0.2985 -0.5112
  107SOPE   H6214030   0.392   1.645   5.332 -0.3496  1.8963 -1.4864
  107SOPE   H6314031   0.491   1.784   5.349  0.6424  0.3347 -0.5495
  107SOPE   C3414032   0.549   1.605   5.459  1.1692  0.2600  0.4893
  107SOPE   H6414033   0.656   1.621   5.459  1.0842  1.0597 -1.4827
  107SOPE   H6514034   0.535   1.498   5.445 -0.5117  0.7476 -1.9806
  107SOPE   C3514035   0.479   1.655   5.581  0.3947  0.5169 -0.0688
  107SOPE   H6614036   0.375   1.620   5.580  0.5802 -0.1643  2.2489
  107SOPE   H6714037   0.484   1.764   5.580 -1.5909  0.6338 -0.6937
  107SOPE   C3614038   0.553   1.607   5.702  0.0246  1.4229 -0.3916
  107SOPE   H6814039   0.659   1.634   5.695 -0.7315  4.3575 -1.6468
  107SOPE   H6914040   0.557   1.498   5.704 -0.1821  1.4292  0.6518
  107SOPE   C3714041   0.497   1.651   5.836 -0.3961  0.4420 -0.5662
  107SOPE   H7014042   0.399   1.607   5.849 -0.5375  0.4661 -1.5535
  107SOPE   H7114043   0.495   1.760   5.839  0.7956  0.5015 -1.4578
  107SOPE   C3814044   0.594   1.621   5.955  0.6056 -0.7759 -0.7655
  107SOPE   H7214045   0.691   1.670   5.960  0.4058 -0.4205 -0.3132
  107SOPE   H7314046   0.611   1.514   5.955  2.5417 -0.5414  2.9727
  107SOPE   C3914047   0.514   1.646   6.081  0.2341 -0.1161  0.2847
  107SOPE   H7414048   0.416   1.600   6.070  1.2355 -2.7817  2.0278
  107SOPE   H7514049   0.496   1.753   6.091  3.3004  0.7097 -1.8635
  107SOPE   C4014050   0.569   1.591   6.213  0.3933 -0.1649  0.0186
  107SOPE   H7614051   0.663   1.646   6.216  0.4417 -0.2575  0.1853
  107SOPE   H7714052   0.606   1.489   6.213 -1.5291 -0.8991 -1.1965
  107SOPE   C4114053   0.472   1.612   6.324 -0.3145  0.1898 -0.3543
  107SOPE   H7814054   0.382   1.551   6.308 -0.1628  0.1335 -1.0270
  107SOPE   H7914055   0.442   1.716   6.324  1.7258  0.8048 -1.2028
  107SOPE   C4214056   0.531   1.572   6.465  0.7291  0.3129  0.3884
  107SOPE   H8014057   0.542   1.665   6.520  0.6008  0.3610  0.3312
  107SOPE   H8114058   0.639   1.554   6.456  0.5750 -0.4648 -0.0134
  107SOPE   C4314059   0.459   1.471   6.566 -0.5567  0.1714 -0.1303
  107SOPE   H8214060   0.354   1.498   6.554 -0.4275  0.2590 -1.1542
  107SOPE   H8314061   0.476   1.368   6.535 -0.7502 -0.4557  1.7989
  107SOPE   C4414062   0.510   1.479   6.703 -0.1624 -0.0447  0.6587
  107SOPE   H8414063   0.618   1.462   6.696 -0.2309 -1.0567  1.9192
  107SOPE   H8514064   0.513   1.581   6.741  0.5959  1.4072 -3.0865
  107SOPE   H8614065   0.469   1.426   6.788  0.5920 -1.1276  0.3637
  108SOPE    N114066   4.421   4.594   3.552 -0.0898 -0.0338  0.1621
  108SOPE    C114067   4.548   4.600   3.623  0.0179 -0.7977  0.2720
  108SOPE    H114068   4.538   4.587   3.731 -1.3135 -1.1963  0.1184
  108SOPE    H214069   4.594   4.698   3.619  2.6886 -2.0543 -1.8321
  108SOPE    H314070   4.442   4.652   3.472  1.4077  1.7677  1.8120
  108SOPE    H414071   4.345   4.628   3.608 -0.1989 -0.5939  0.3581
  108SOPE    H514072   4.410   4.496   3.531  0.2413 -0.5360  2.1751
  108SOPE    C514073   4.650   4.503   3.554 -1.2423 -0.1522  0.3132
  108SOPE   H1214074   4.681   4.549   3.460  0.3803 -1.6029  0.1161
  108SOPE   H1314075   4.612   4.404   3.531  3.1132 -1.4805 -1.6542
  108SOPE    P114076   4.794   4.369   3.721  0.0244 -0.0510 -0.1452
  108SOPE    O114077   4.775   4.246   3.638  0.5295 -0.0404  0.3045
  108SOPE    O214078   4.929   4.392   3.779 -0.3053  0.1207  0.1094
  108SOPE    O314079   4.771   4.494   3.627 -0.3502 -0.0699 -0.2943
  108SOPE    O414080   4.686   4.369   3.832  0.1460  0.8307 -0.0266
  108SOPE    C614081   4.698   4.456   3.942 -0.0020 -0.0628 -0.2778
  108SOPE   H1414082   4.605   4.501   3.976 -0.0801 -0.4213 -0.0094
  108SOPE   H1514083   4.760   4.540   3.911 -1.1198  0.3145 -1.5028
  108SOPE    C714084   4.755   4.398   4.079  0.4412 -0.1590 -0.0731
  108SOPE   H1614085   4.854   4.355   4.068  0.0540 -0.6717 -1.7052
  108SOPE    O514086   4.658   4.294   4.117  0.3487  0.8960 -0.5370
  108SOPE    C814087   4.703   4.171   4.125  0.2389 -1.0286  0.6212
  108SOPE    O614088   4.813   4.144   4.169 -0.1578  0.6491 -0.6573
  108SOPE    C914089   4.588   4.067   4.118 -0.4959 -0.3823 -0.0034
  108SOPE   H1714090   4.623   3.966   4.139 -2.7060 -0.9907  0.9336
  108SOPE   H1814091   4.561   4.074   4.012 -1.1896  0.9851  0.2498
  108SOPE   C1014092   4.734   4.497   4.192  0.3016  0.3496 -0.1797
  108SOPE   H1914093   4.633   4.537   4.185  0.1395 -0.1977 -0.9492
  108SOPE   H2014094   4.798   4.583   4.172 -2.0764  2.0405 -0.6796
  108SOPE    O714095   4.750   4.445   4.328  0.3313 -0.0471 -0.0633
  108SOPE   C1114096   4.859   4.415   4.377 -0.1625 -0.2059  0.5001
  108SOPE    O814097   4.970   4.440   4.330  0.1160  0.3389 -0.3393
  108SOPE   C1214098   4.853   4.341   4.507  0.0315 -0.5725 -0.0810
  108SOPE   H2114099   4.947   4.362   4.558 -1.4727 -1.4560  3.2776
  108SOPE   H2214100   4.864   4.241   4.467  0.0427  0.6671 -3.3315
  108SOPE   C1314101   4.726   4.357   4.594  0.2420  0.2441 -0.3341
  108SOPE   H2314102   4.724   4.285   4.676  1.6204 -1.5479 -1.8265
  108SOPE   H2414103   4.642   4.334   4.528 -0.3472  0.9966  0.1479
  108SOPE   C1414104   4.699   4.494   4.647 -0.1217 -0.4979  0.6968
  108SOPE   H2514105   4.621   4.484   4.722 -0.1785 -0.9225  0.5836
  108SOPE   H2614106   4.652   4.555   4.569  1.5256  1.2169  1.0188
  108SOPE   C1514107   4.819   4.570   4.714  0.4729  0.5238  0.5974
  108SOPE   H2714108   4.792   4.663   4.764  1.6409  0.4990  1.2983
  108SOPE   H2814109   4.892   4.613   4.644 -0.6559  1.3820 -0.0679
  108SOPE   C1614110   4.881   4.484   4.822  0.9409  0.5902 -0.2117
  108SOPE   H2914111   4.985   4.516   4.835  1.2879 -0.5179 -0.1850
  108SOPE   H3014112   4.896   4.380   4.791  0.7936  0.4792  0.0869
  108SOPE   C1714113   4.796   4.471   4.947 -0.3616 -0.0267  1.0704
  108SOPE   H3114114   4.708   4.422   4.906  0.3913 -0.1447 -0.4649
  108SOPE   H3214115   4.767   4.570   4.982 -2.6947 -0.6053  0.8276
  108SOPE   C1814116   4.855   4.377   5.059  0.0547 -0.5356 -0.1085
  108SOPE   H3314117   4.887   4.278   5.024  1.5577 -0.3374  0.6546
  108SOPE   H3414118   4.780   4.356   5.135  1.0957 -1.0643  0.7952
  108SOPE   C1914119   4.977   4.439   5.127 -0.0308 -0.6642  0.1336
  108SOPE   H3514120   5.073   4.401   5.096  0.2331  0.2497 -0.1762
  108SOPE   C2014121   4.981   4.546   5.203 -0.0937 -0.1617  0.1092
  108SOPE   H3614122   5.079   4.577   5.235 -0.2554  1.4023 -0.8470
  108SOPE   C2114123   4.867   4.628   5.266  0.6229 -0.1147  0.0361
  108SOPE   H3714124   4.774   4.570   5.273  0.7634 -0.4243 -0.6272
  108SOPE   H3814125   4.831   4.712   5.207 -0.5210  0.5868  1.6974
  108SOPE   C2214126   4.899   4.668   5.414 -0.7583 -0.7641  0.4539
  108SOPE   H3914127   4.825   4.739   5.449  0.4690  0.4834  0.5776
  108SOPE   H4014128   4.988   4.731   5.417 -2.5050  1.6861  2.2943
  108SOPE   C2314129   4.913   4.550   5.510 -0.2564 -0.7307  0.3254
  108SOPE   H4114130   4.975   4.468   5.474 -0.6483 -0.8461 -0.0852
  108SOPE   H4214131   4.819   4.498   5.524 -0.3512 -0.5362  0.4303
  108SOPE   C2414132   4.974   4.599   5.645  0.1369 -0.0218  0.2775
  108SOPE   H4314133   4.901   4.666   5.691 -0.7736 -0.2305 -0.8244
  108SOPE   H4414134   5.055   4.668   5.623 -0.1793  0.1357 -0.4122
  108SOPE   C2514135   5.026   4.484   5.731 -0.1567  1.0260 -0.6197
  108SOPE   H4514136   5.122   4.457   5.688 -0.0698  0.5089 -0.1206
  108SOPE   H4614137   4.951   4.407   5.724  0.0731  0.6739  0.5365
  108SOPE   C2614138   5.060   4.524   5.876 -0.6945 -0.9241 -0.6292
  108SOPE   H4714139   5.123   4.613   5.876 -2.3907  0.3064  0.2910
  108SOPE   H4814140   4.971   4.563   5.926  0.7099  1.8780 -0.2397
  108SOPE   C2714141   5.132   4.419   5.957  0.8962  0.5895 -1.4911
  108SOPE   H4914142   5.238   4.401   5.939  1.7629  0.0289  3.4906
  108SOPE   H5014143   5.079   4.326   5.940  2.1220 -0.7261  1.4760
  108SOPE   C2714144   5.126   4.463   6.101 -0.1475 -0.0997 -0.5440
  108SOPE   H5114145   5.179   4.386   6.157 -0.6545 -0.2184 -0.2225
  108SOPE   H5214146   5.189   4.549   6.127  2.1869 -1.5931 -1.1311
  108SOPE   H5314147   5.023   4.470   6.137  0.3519 -0.3922  0.9681
  108SOPE   C2914148   4.466   4.084   4.210 -0.3372  0.4669  0.3568
  108SOPE   H5414149   4.390   4.013   4.177 -0.9889  0.9227  0.8921
  108SOPE   H5514150   4.448   4.191   4.200  0.6157  0.6240  0.2707
  108SOPE   C3014151   4.503   4.058   4.354  0.0988 -0.9517 -0.8150
  108SOPE   H5614152   4.593   4.117   4.363 -1.6279  1.9416 -1.9749
  108SOPE   H5714153   4.516   3.950   4.358  1.6837 -0.7011  2.0831
  108SOPE   C3114154   4.393   4.109   4.449 -0.6221 -0.0307 -0.4322
  108SOPE   H5814155   4.303   4.057   4.417 -1.9935  1.5848  0.7103
  108SOPE   H5914156   4.372   4.214   4.429 -2.4777 -0.5116 -1.1927
  108SOPE   C3214157   4.412   4.072   4.595  1.0059 -0.1912  0.4060
  108SOPE   H6014158   4.517   4.097   4.613  1.1567  0.0878 -0.8323
  108SOPE   H6114159   4.403   3.965   4.611  0.1721 -0.1301  0.3733
  108SOPE   C3314160   4.322   4.146   4.694  0.0598  0.7137 -0.3714
  108SOPE   H6214161   4.220   4.146   4.656  0.3049 -1.8372 -1.0750
  108SOPE   H6314162   4.352   4.251   4.706  2.1693 -0.1117  2.1778
  108SOPE   C3414163   4.343   4.087   4.833 -0.1964  0.2127 -0.1517
  108SOPE   H6414164   4.451   4.079   4.847 -0.3292 -2.4904 -0.3352
  108SOPE   H6514165   4.313   3.983   4.823 -1.7268  0.6650 -0.3011
  108SOPE   C3514166   4.265   4.150   4.940  0.7538  0.6269  0.0139
  108SOPE   H6614167   4.165   4.114   4.917  0.5795  1.9702 -1.4120
  108SOPE   H6714168   4.269   4.259   4.943  1.9991  0.5345  2.4827
  108SOPE   C3614169   4.305   4.098   5.083 -0.3873 -0.3417  0.7890
  108SOPE   H6814170   4.329   3.992   5.073  0.0163 -0.0930 -1.0241
  108SOPE   H6914171   4.220   4.107   5.151  0.1103  0.9745  1.2586
  108SOPE   C3714172   4.430   4.164   5.139  0.0851 -0.5155  0.7301
  108SOPE   H7014173   4.424   4.272   5.120  0.4599 -0.6944 -0.4542
  108SOPE   H7114174   4.522   4.145   5.085  0.7618  2.7233  0.6217
  108SOPE   C3814175   4.455   4.118   5.280  0.2589  0.5294 -0.2351
  108SOPE   H7214176   4.465   4.010   5.287 -3.1440  0.1930  0.4256
  108SOPE   H7314177   4.367   4.133   5.343  0.8210 -2.2685  1.2674
  108SOPE   C3914178   4.576   4.186   5.351  0.1982 -0.5625  0.1366
  108SOPE   H7414179   4.563   4.293   5.336 -0.8164 -0.7959 -0.6773
  108SOPE   H7514180   4.671   4.175   5.300 -0.6440  2.0128 -2.1091
  108SOPE   C4014181   4.582   4.166   5.500 -0.3637  0.5557 -0.2112
  108SOPE   H7614182   4.493   4.214   5.541  0.4900  1.0220  1.1182
  108SOPE   H7714183   4.663   4.224   5.545  0.5483 -0.1568 -0.8982
  108SOPE   C4114184   4.593   4.031   5.575 -0.6410 -0.7116 -0.5055
  108SOPE   H7814185   4.512   3.969   5.537 -1.0246  0.2076 -1.2063
  108SOPE   H7914186   4.576   4.045   5.682 -0.7649 -2.1545 -0.3370
  108SOPE   C4214187   4.731   3.966   5.551  0.2745 -0.2272 -0.9318
  108SOPE   H8014188   4.741   3.943   5.445 -1.1742 -1.5162 -0.8132
  108SOPE   H8114189   4.725   3.866   5.594  0.5093 -0.2129 -0.8658
  108SOPE   C4314190   4.861   4.047   5.598 -0.1456 -0.1142 -0.3464
  108SOPE   H8214191   4.874   4.133   5.532 -0.0701 -0.7159 -1.1217
  108SOPE   H8314192   4.845   4.080   5.701  0.6437  0.2641 -0.3373
  108SOPE   C4414193   4.989   3.976   5.596  0.2473  0.5511  0.1461
  108SOPE   H8414194   5.073   4.033   5.634 -0.5331  1.3675  0.6588
  108SOPE   H8514195   4.968   3.887   5.655 -1.1978  2.0835  2.0122
  108SOPE   H8614196   5.003   3.949   5.492  0.7095 -0.7191  0.5255
  109SOPE    N114197   4.996   3.087   3.232  0.2520  0.1201 -0.4605
  109SOPE    C114198   5.122   3.000   3.247 -0.5385 -0.3903 -0.4711
  109SOPE    H114199   5.194   3.044   3.178  1.5120 -0.8330  1.3430
  109SOPE    H214200   5.096   2.896   3.226  0.3200 -0.9370  1.1028
  109SOPE    H314201   4.931   3.046   3.298 -1.6789  0.3516 -2.1728
  109SOPE    H414202   4.967   3.077   3.136 -0.4438 -2.3023 -0.0352
  109SOPE    H514203   5.026   3.180   3.255  2.0573 -0.4352 -0.5052
  109SOPE    C514204   5.188   3.004   3.384 -0.2370  0.0664  0.7053
  109SOPE   H1214205   5.119   2.978   3.464  0.3401 -2.2365  0.4740
  109SOPE   H1314206   5.216   3.105   3.415 -0.1094 -0.2145  1.5237
  109SOPE    P114207   5.314   2.793   3.453  0.3544 -0.1434 -0.3241
  109SOPE    O114208   5.197   2.704   3.446  0.5465  0.1746 -0.1615
  109SOPE    O214209   5.446   2.733   3.410 -0.1907  0.5205  0.0944
  109SOPE    O314210   5.302   2.929   3.371  0.0038 -0.1877 -0.4844
  109SOPE    O414211   5.327   2.870   3.597  0.5646  0.0194  0.6268
  109SOPE    C614212   5.447   2.909   3.647  0.2291  0.1468  0.0642
  109SOPE   H1414213   5.443   3.003   3.702  1.7221 -0.1080  0.6444
  109SOPE   H1514214   5.509   2.939   3.563  0.2679  0.6305  0.2626
  109SOPE    C714215   5.511   2.788   3.722  0.5986 -0.1425  0.4079
  109SOPE   H1614216   5.539   2.708   3.654  1.4934  0.3326  0.1982
  109SOPE    O514217   5.422   2.745   3.822 -0.0779 -0.1333 -0.0230
  109SOPE    C814218   5.398   2.620   3.830  0.1709  0.1407 -0.2750
  109SOPE    O614219   5.461   2.524   3.778  0.3077 -0.0243  0.2610
  109SOPE    C914220   5.308   2.604   3.952 -0.6473 -0.1753 -0.0952
  109SOPE   H1714221   5.214   2.651   3.921 -0.3498 -0.0493 -0.8094
  109SOPE   H1814222   5.358   2.650   4.037  1.2267  0.4820 -1.5360
  109SOPE   C1014223   5.630   2.847   3.800 -0.4746 -0.1263 -0.0284
  109SOPE   H1914224   5.675   2.933   3.749 -0.7877  1.4343  2.2284
  109SOPE   H2014225   5.709   2.772   3.800 -0.7204 -0.3893 -0.8182
  109SOPE    O714226   5.610   2.896   3.935 -0.6223  0.5561 -0.1928
  109SOPE   C1114227   5.638   2.819   4.041 -0.5099 -0.6407 -0.8015
  109SOPE    O814228   5.687   2.706   4.050 -0.0869  0.0172  0.1562
  109SOPE   C1214229   5.611   2.894   4.169 -0.1739  0.1634 -0.2973
  109SOPE   H2114230   5.546   2.978   4.144 -1.0668 -0.6109 -0.5932
  109SOPE   H2214231   5.702   2.942   4.205 -0.3628  2.2303 -2.4934
  109SOPE   C1314232   5.540   2.808   4.283 -0.2183  0.2026  0.2252
  109SOPE   H2314233   5.575   2.705   4.275 -2.5397 -0.6372  0.5018
  109SOPE   H2414234   5.433   2.797   4.268 -0.2193  0.9322 -0.3667
  109SOPE   C1414235   5.567   2.861   4.422  0.1611  0.2872 -1.0942
  109SOPE   H2514236   5.674   2.868   4.441  0.0878 -1.3067  0.0050
  109SOPE   H2614237   5.539   2.785   4.495  0.3852  0.3839 -0.9075
  109SOPE   C1514238   5.511   3.007   4.446  0.0859  0.3242  0.1889
  109SOPE   H2714239   5.411   3.012   4.404 -0.6492  0.9683  1.9673
  109SOPE   H2814240   5.569   3.080   4.390  1.0221 -0.5418  0.0017
  109SOPE   C1614241   5.512   3.029   4.595 -0.1165  0.8931 -0.5839
  109SOPE   H2914242   5.478   3.130   4.618 -2.1271  0.1062  0.0275
  109SOPE   H3014243   5.613   3.037   4.636 -0.2459 -0.5734  0.0605
  109SOPE   C1714244   5.425   2.930   4.678  0.5402 -0.3901  0.1525
  109SOPE   H3114245   5.478   2.836   4.698  2.5654  0.1952 -2.1932
  109SOPE   H3214246   5.343   2.901   4.613  1.1914 -0.0635 -0.8149
  109SOPE   C1814247   5.366   2.993   4.799  0.3437 -0.2410 -0.2899
  109SOPE   H3314248   5.301   3.077   4.772 -0.4574 -0.6888  0.2261
  109SOPE   H3414249   5.451   3.020   4.860  0.6267  0.5329 -1.0128
  109SOPE   C1914250   5.276   2.901   4.878 -0.6480  0.2924  0.3187
  109SOPE   H3514251   5.276   2.796   4.850 -1.5970 -0.1897  2.0212
  109SOPE   C2014252   5.214   2.936   4.994 -0.3572  0.3150  0.0822
  109SOPE   H3614253   5.167   2.857   5.051  2.2828 -1.9407 -0.7690
  109SOPE   C2114254   5.191   3.076   5.036  0.1530 -0.7348 -0.0810
  109SOPE   H3714255   5.117   3.125   4.973  1.2306  1.5358  0.3675
  109SOPE   H3814256   5.277   3.132   4.997 -0.2258  3.3509  4.4799
  109SOPE   C2214257   5.181   3.106   5.184 -0.1197  0.4795 -0.8178
  109SOPE   H3914258   5.199   3.211   5.206 -1.8708  0.6652 -0.1398
  109SOPE   H4014259   5.256   3.046   5.235  0.4724  1.8642 -0.0104
  109SOPE   C2314260   5.049   3.063   5.243 -0.1416 -0.9009  0.3252
  109SOPE   H4114261   5.022   2.961   5.217 -0.5326 -1.2922  2.1975
  109SOPE   H4214262   4.969   3.125   5.202  0.5745 -0.4125 -0.3557
  109SOPE   C2414263   5.038   3.059   5.400 -0.1266 -0.4749  0.8286
  109SOPE   H4314264   5.067   3.156   5.439 -0.3193 -0.4790  0.9892
  109SOPE   H4414265   5.106   2.987   5.447 -0.6073 -1.6175 -0.2023
  109SOPE   C2514266   4.897   3.040   5.456 -0.3018  0.0968  0.3514
  109SOPE   H4514267   4.849   2.956   5.406 -0.5809 -0.1355  1.0174
  109SOPE   H4614268   4.829   3.122   5.432  0.2340 -0.0093 -1.6679
  109SOPE   C2614269   4.897   3.030   5.605  0.6899  0.9001 -0.3098
  109SOPE   H4714270   4.799   3.009   5.648  1.7441  1.9196  2.7124
  109SOPE   H4814271   4.944   2.936   5.630  0.8561  1.4859  1.7124
  109SOPE   C2714272   4.958   3.144   5.680 -0.6541  0.3664  0.2437
  109SOPE   H4914273   4.907   3.162   5.775 -1.3754  3.9663 -0.7219
  109SOPE   H5014274   4.949   3.238   5.625  0.6371  0.9829  1.0583
  109SOPE   C2714275   5.106   3.122   5.727 -0.1266 -0.1261  0.3631
  109SOPE   H5114276   5.110   3.031   5.786  3.8136  1.6449  3.0063
  109SOPE   H5214277   5.173   3.098   5.644 -2.2577  1.6918 -1.9841
  109SOPE   H5314278   5.136   3.210   5.784  1.8371 -0.5121 -0.0299
  109SOPE   C2914279   5.272   2.452   3.990 -0.3688 -0.1426 -0.3872
  109SOPE   H5414280   5.229   2.400   3.904  2.3064 -3.6609  0.2581
  109SOPE   H5514281   5.192   2.448   4.065 -0.4062 -1.1607 -0.4708
  109SOPE   C3014282   5.379   2.361   4.046  0.5679  0.2844  0.0841
  109SOPE   H5614283   5.448   2.336   3.966  1.5184  4.6573 -0.6080
  109SOPE   H5714284   5.335   2.267   4.080  0.7654  0.2010  0.1090
  109SOPE   C3114285   5.457   2.435   4.157  0.3502  0.1951  0.7810
  109SOPE   H5814286   5.509   2.526   4.130 -0.7195 -0.2130 -3.0928
  109SOPE   H5914287   5.535   2.365   4.186  2.6537  1.8609 -1.2215
  109SOPE   C3214288   5.372   2.460   4.275 -0.6535 -1.0721 -0.5903
  109SOPE   H6014289   5.297   2.381   4.267 -0.8046 -0.8119 -1.8565
  109SOPE   H6114290   5.315   2.552   4.265  0.9184  0.2196  1.9974
  109SOPE   C3314291   5.462   2.460   4.400 -0.2034  0.2525  0.3242
  109SOPE   H6214292   5.512   2.557   4.405  0.8075 -0.2105 -0.5449
  109SOPE   H6314293   5.541   2.385   4.385 -1.1569 -0.2965 -2.1956
  109SOPE   C3414294   5.372   2.448   4.527 -0.6008 -0.2088 -0.2842
  109SOPE   H6414295   5.323   2.350   4.529 -0.3112 -0.3745 -0.9757
  109SOPE   H6514296   5.281   2.507   4.514 -0.1726 -0.0313 -2.6779
  109SOPE   C3514297   5.456   2.477   4.655 -0.3878  0.2886 -0.5436
  109SOPE   H6614298   5.504   2.574   4.640 -0.6576  0.5476  0.2501
  109SOPE   H6714299   5.535   2.403   4.661  1.5401  2.3818  0.6046
  109SOPE   C3614300   5.356   2.471   4.775 -0.0507 -0.5046 -0.6743
  109SOPE   H6814301   5.307   2.375   4.784 -1.4508  0.2307 -0.3542
  109SOPE   H6914302   5.273   2.538   4.755 -1.7612 -2.3014  0.2168
  109SOPE   C3714303   5.418   2.505   4.912  0.1766  0.0335 -0.4673
  109SOPE   H7014304   5.329   2.511   4.976 -0.8903  0.9780 -2.0110
  109SOPE   H7114305   5.470   2.600   4.905 -1.1479  0.7520 -0.7919
  109SOPE   C3814306   5.513   2.401   4.974 -0.2297 -0.0591  0.9347
  109SOPE   H7214307   5.604   2.416   4.916  0.4566 -2.1663  1.4392
  109SOPE   H7314308   5.475   2.301   4.956 -0.1595  0.2682 -1.1449
  109SOPE   C3914309   5.552   2.428   5.120 -0.7191  0.0945  0.2984
  109SOPE   H7414310   5.475   2.417   5.196  0.8599 -1.6613  1.7042
  109SOPE   H7514311   5.571   2.534   5.142  1.1291 -0.1574  0.0520
  109SOPE   C4014312   5.687   2.347   5.152  0.0065  0.2114  0.9152
  109SOPE   H7614313   5.766   2.398   5.097 -0.9132  0.8897  0.2106
  109SOPE   H7714314   5.664   2.250   5.108  0.9678 -0.0853  1.0545
  109SOPE   C4114315   5.721   2.342   5.305  0.7465  0.5064  0.5882
  109SOPE   H7814316   5.705   2.443   5.343 -0.5922  1.0782 -1.4225
  109SOPE   H7914317   5.828   2.323   5.315  0.8351 -1.4936 -3.2909
  109SOPE   C4214318   5.631   2.249   5.382 -0.3954 -0.2125 -0.5483
  109SOPE   H8014319   5.650   2.143   5.361 -2.2606 -0.9551  1.2990
  109SOPE   H8114320   5.527   2.262   5.350 -0.5255 -1.6216 -0.7390
  109SOPE   C4314321   5.639   2.268   5.527  0.5518  0.1861  0.3255
  109SOPE   H8214322   5.598   2.184   5.582 -2.0233  1.3732  0.2996
  109SOPE   H8314323   5.744   2.267   5.558  0.0260  0.7562  2.2006
  109SOPE   C4414324   5.589   2.406   5.573 -0.0069  1.0795  0.5504
  109SOPE   H8414325   5.654   2.489   5.544  0.1668  0.6583 -0.3010
  109SOPE   H8514326   5.487   2.425   5.537  0.7251 -0.0319 -2.2730
  109SOPE   H8614327   5.597   2.416   5.681 -0.0311  1.2007  0.5417
  110SOPE    N114328   1.016   0.206   4.198 -0.0033 -0.2410 -0.3461
  110SOPE    C114329   0.977   0.115   4.085 -0.6467  0.1540  0.0001
  110SOPE    H114330   0.997   0.168   3.991  0.5722  2.3865  1.4782
  110SOPE    H214331   0.869   0.098   4.077 -0.6850  0.2383  0.3309
  110SOPE    H314332   1.061   0.144   4.264  2.1733  1.3528 -0.2616
  110SOPE    H414333   0.933   0.249   4.235  0.0071 -0.7450  0.2806
  110SOPE    H514334   1.085   0.275   4.170 -0.5527 -0.0026 -1.1442
  110SOPE    C514335   1.042   5.923   4.104  0.4191 -0.1249  0.7916
  110SOPE   H1214336   1.149   5.932   4.088  0.1694 -1.3750 -1.8155
  110SOPE   H1314337   1.042   5.880   4.204  1.5019  3.1521  2.2938
  110SOPE    P114338   0.882   5.740   4.008 -0.0507 -0.1497 -0.1534
  110SOPE    O114339   0.758   5.815   4.014 -0.1521  0.7925  0.1707
  110SOPE    O214340   0.900   5.641   3.898  0.1879 -0.5449 -0.0679
  110SOPE    O314341   1.006   5.842   3.995  0.5150 -0.3836 -0.0079
  110SOPE    O414342   0.876   5.666   4.142 -0.0234 -0.4594  0.2326
  110SOPE    C614343   0.970   5.567   4.171 -0.1462  0.8092 -0.1325
  110SOPE   H1414344   0.997   5.562   4.276  1.1561  4.0167 -0.2533
  110SOPE   H1514345   1.064   5.586   4.119  0.3316 -1.3843 -0.1066
  110SOPE    C714346   0.911   5.432   4.124  0.0222  0.1577 -1.1828
  110SOPE   H1614347   0.854   5.446   4.033  0.5020  1.7572 -1.2508
  110SOPE    O514348   0.823   5.396   4.234  0.1944 -0.1710 -0.1321
  110SOPE    C814349   0.690   5.362   4.201 -0.2785 -1.1048 -0.2952
  110SOPE    O614350   0.659   5.293   4.104 -0.0648 -0.0629  0.0015
  110SOPE    C914351   0.605   5.368   4.327 -0.6612  0.3624 -0.0071
  110SOPE   H1714352   0.501   5.356   4.298  0.0517 -0.4930 -2.3686
  110SOPE   H1814353   0.629   5.472   4.350  1.1142 -0.1828  0.7310
  110SOPE   C1014354   1.015   5.315   4.114  0.4222 -0.6726  0.0111
  110SOPE   H1914355   1.078   5.334   4.028  0.5972 -0.7308  0.1255
  110SOPE   H2014356   0.968   5.218   4.097 -0.5530 -0.6892  2.5219
  110SOPE    O714357   1.083   5.314   4.240  0.4158 -0.2194  0.2150
  110SOPE   C1114358   1.066   5.210   4.316 -1.0155 -0.6276 -0.7445
  110SOPE    O814359   1.043   5.097   4.275  0.2616  0.1463  0.2790
  110SOPE   C1214360   1.154   5.229   4.441  0.4625 -0.8369 -0.2073
  110SOPE   H2114361   1.243   5.286   4.416  1.1742 -1.7912  0.1136
  110SOPE   H2214362   1.184   5.127   4.464 -4.2105 -2.5702 -1.1204
  110SOPE   C1314363   1.071   5.288   4.559  0.2333 -0.3650  0.7690
  110SOPE   H2314364   1.143   5.279   4.641  0.9822 -1.5643 -0.0211
  110SOPE   H2414365   0.978   5.235   4.577 -0.4796  0.5360 -0.2074
  110SOPE   C1414366   1.027   5.425   4.540  0.1913 -0.0006 -0.1323
  110SOPE   H2514367   0.961   5.424   4.453 -0.8286 -0.5849  0.6376
  110SOPE   H2614368   1.116   5.479   4.510  0.3524  0.1958  0.6925
  110SOPE   C1514369   0.966   5.499   4.663  0.2022  0.2642 -0.4655
  110SOPE   H2714370   1.029   5.498   4.752  0.5513 -1.2350 -0.7301
  110SOPE   H2814371   0.874   5.446   4.686  0.5794  0.4166  1.4846
  110SOPE   C1614372   0.924   5.639   4.621  0.4292  0.3538  0.0418
  110SOPE   H2914373   0.840   5.637   4.552 -0.3562 -0.9280  1.0205
  110SOPE   H3014374   0.999   5.701   4.571  0.7643 -0.9187 -1.0563
  110SOPE   C1714375   0.878   5.721   4.742 -0.1090  0.4221 -0.5122
  110SOPE   H3114376   0.932   5.683   4.828  0.4426  0.1462 -0.9760
  110SOPE   H3214377   0.775   5.700   4.769  0.7360 -1.4404  1.4648
  110SOPE   C1814378   0.896   5.872   4.736  0.7753 -0.5877 -0.4813
  110SOPE   H3314379   0.993   5.893   4.692  0.1679  2.0083 -0.6698
  110SOPE   H3414380   0.882   5.914   4.836  1.6793 -1.9338  0.2323
  110SOPE   C1914381   0.793   5.941   4.653 -1.1281  0.2797 -0.2619
  110SOPE   H3514382   0.756   5.888   4.567  2.0386 -0.7269 -1.0683
  110SOPE   C2014383   0.714   0.098   4.680 -0.1514  0.2451 -0.0430
  110SOPE   H3614384   0.634   0.122   4.612 -0.7814 -0.3380  0.4709
  110SOPE   C2114385   0.719   0.192   4.797  0.0698 -0.1426 -0.1330
  110SOPE   H3714386   0.752   0.293   4.769  0.3246  0.1216  1.0812
  110SOPE   H3814387   0.794   0.165   4.871 -0.6221  2.1775  1.4784
  110SOPE   C2214388   0.585   0.222   4.864 -0.2701 -0.3979  0.0434
  110SOPE   H3914389   0.539   0.303   4.809 -4.2621 -2.5175  0.0445
  110SOPE   H4014390   0.619   0.272   4.955 -1.6576  0.4299  0.1135
  110SOPE   C2314391   0.494   0.103   4.884 -0.4835 -0.0829  0.2580
  110SOPE   H4114392   0.554   0.036   4.946 -0.4976  0.5168  0.9303
  110SOPE   H4214393   0.491   0.064   4.783  1.7686  2.3149 -0.7884
  110SOPE   C2414394   0.367   0.136   4.958 -0.4090 -0.1618 -0.4174
  110SOPE   H4314395   0.293   0.056   4.965  1.1085 -1.7378 -2.0203
  110SOPE   H4414396   0.316   0.220   4.912 -0.8638 -0.0392  0.3029
  110SOPE   C2514397   0.387   0.187   5.098  0.3968 -0.2893 -0.5863
  110SOPE   H4514398   0.435   0.285   5.098 -1.4111  0.6265 -0.5830
  110SOPE   H4614399   0.447   0.109   5.145 -0.6809 -1.3744 -0.9820
  110SOPE   C2614400   0.260   0.196   5.187 -0.9563  0.3289 -0.0149
  110SOPE   H4714401   0.283   0.242   5.283 -0.9966 -1.0925  0.6961
  110SOPE   H4814402   0.187   0.259   5.136 -1.1488 -1.7001 -2.3457
  110SOPE   C2714403   0.198   0.058   5.221  0.4511 -0.3191 -0.4535
  110SOPE   H4914404   0.263   5.945   5.282  0.4118  0.2401  0.1530
  110SOPE   H5014405   0.181   0.009   5.124  0.5610  1.1060 -1.2039
  110SOPE   C2714406   0.067   0.064   5.300 -0.0239 -0.6492 -0.3273
  110SOPE   H5114407   0.089   0.075   5.406  4.3745  0.1889 -1.2577
  110SOPE   H5214408   5.940   0.139   5.275 -0.2844  0.0148  2.3251
  110SOPE   H5314409   0.023   5.914   5.318 -0.3008 -0.4692 -0.0112
  110SOPE   C2914410   0.646   5.284   4.447  0.2573  0.8870 -0.0640
  110SOPE   H5414411   0.564   5.295   4.517  1.6088  2.8358  1.2560
  110SOPE   H5514412   0.728   5.335   4.499 -0.8125  2.7287 -0.1529
  110SOPE   C3014413   0.675   5.131   4.424  0.1816  0.7000  0.2315
  110SOPE   H5614414   0.742   5.104   4.342  0.4665  0.9781  0.3726
  110SOPE   H5714415   0.583   5.078   4.398  1.3280 -0.1763 -2.2100
  110SOPE   C3114416   0.709   5.062   4.554  0.1711  0.0761 -0.1340
  110SOPE   H5814417   0.626   5.085   4.621  1.4072  0.8489  1.1504
  110SOPE   H5914418   0.790   5.107   4.611 -1.3210  1.2935  1.0710
  110SOPE   C3214419   0.719   4.908   4.551 -0.0862  0.0292 -0.2105
  110SOPE   H6014420   0.635   4.860   4.501 -0.3324  1.7303 -1.4553
  110SOPE   H6114421   0.712   4.867   4.652  0.7317  0.8866  0.2027
  110SOPE   C3314422   0.854   4.853   4.505 -0.6258  0.6059 -0.2103
  110SOPE   H6214423   0.877   4.919   4.421  1.1027 -0.5167 -0.6766
  110SOPE   H6314424   0.843   4.754   4.459 -0.2277  0.2519  0.4364
  110SOPE   C3414425   0.974   4.867   4.594  0.4613  0.7785 -0.5035
  110SOPE   H6414426   0.942   4.807   4.679  1.8991 -0.1637 -0.6045
  110SOPE   H6514427   0.992   4.964   4.640 -0.4344 -0.2648  2.0787
  110SOPE   C3514428   1.097   4.802   4.538  0.2239 -0.8455  0.6428
  110SOPE   H6614429   1.168   4.872   4.493 -1.3255  1.0232  1.0383
  110SOPE   H6714430   1.073   4.741   4.450  3.3678 -0.7842 -0.3162
  110SOPE   C3614431   1.167   4.704   4.630 -0.3862  0.6071 -0.0068
  110SOPE   H6814432   1.255   4.665   4.580 -0.6347 -0.1991  0.1812
  110SOPE   H6914433   1.096   4.626   4.658  2.9526 -2.4227  0.2742
  110SOPE   C3714434   1.220   4.782   4.752 -0.5050  0.0997  0.0305
  110SOPE   H7014435   1.143   4.832   4.810 -0.3002  1.5071 -0.8752
  110SOPE   H7114436   1.282   4.859   4.704  1.6068 -3.5144 -3.3620
  110SOPE   C3814437   1.291   4.692   4.859 -0.2869 -0.3513 -0.0133
  110SOPE   H7214438   1.346   4.761   4.924 -2.8990  1.9122 -0.1121
  110SOPE   H7314439   1.355   4.622   4.806 -1.5043 -0.7306 -0.9827
  110SOPE   C3914440   1.190   4.611   4.944 -0.2901  0.2193 -0.1164
  110SOPE   H7414441   1.101   4.583   4.886  0.7940 -0.4919 -1.4777
  110SOPE   H7514442   1.133   4.680   5.007  0.1812  0.6053 -0.1139
  110SOPE   C4014443   1.246   4.494   5.036 -0.3117  0.3572  0.9990
  110SOPE   H7614444   1.306   4.425   4.977 -1.1459 -1.4528  2.2199
  110SOPE   H7714445   1.158   4.443   5.075 -1.1453  0.8182 -0.2519
  110SOPE   C4114446   1.332   4.562   5.140 -0.4498 -0.1691 -0.2194
  110SOPE   H7814447   1.273   4.638   5.191  0.1666 -0.1069  0.4111
  110SOPE   H7914448   1.429   4.593   5.099 -1.7022 -1.6535 -4.5816
  110SOPE   C4214449   1.386   4.471   5.252 -0.0554  0.5391  0.2057
  110SOPE   H8014450   1.448   4.529   5.319 -0.1223 -0.0660  0.7930
  110SOPE   H8114451   1.454   4.405   5.198  1.0699  0.9195  1.1539
  110SOPE   C4314452   1.277   4.398   5.338  0.2030 -0.5218  0.0241
  110SOPE   H8214453   1.212   4.461   5.398  2.8889 -0.2016  2.7444
  110SOPE   H8314454   1.202   4.345   5.280 -0.1945 -1.5339  1.4367
  110SOPE   C4414455   1.338   4.300   5.445 -0.1708  0.2724  0.0614
  110SOPE   H8414456   1.262   4.234   5.485  1.4983  0.4332  3.6675
  110SOPE   H8514457   1.419   4.234   5.414 -0.2013  1.2430 -2.1775
  110SOPE   H8614458   1.389   4.363   5.518 -0.2662 -0.8168  1.0841
  111SOPE    N114459   3.134   3.257   3.602 -0.1456 -0.2169  0.1353
  111SOPE    C114460   3.220   3.366   3.546 -0.2396 -0.1349 -0.7127
  111SOPE    H114461   3.195   3.367   3.439 -0.9810  3.3545 -0.5502
  111SOPE    H214462   3.324   3.338   3.558  0.1816  0.6619 -2.2741
  111SOPE    H314463   3.163   3.175   3.551  0.8219 -0.8908  1.7069
  111SOPE    H414464   3.039   3.288   3.594  0.4025  1.1392 -1.4978
  111SOPE    H514465   3.159   3.244   3.699 -1.6646  0.7421  0.6764
  111SOPE    C514466   3.190   3.499   3.597 -0.1473  0.5677  0.4142
  111SOPE   H1214467   3.240   3.512   3.693  0.3275 -0.8405  0.3666
  111SOPE   H1314468   3.084   3.513   3.617  0.1855  0.7133  2.1482
  111SOPE    P114469   3.393   3.642   3.521 -0.0053 -0.1233  0.0892
  111SOPE    O114470   3.473   3.538   3.465  0.2185 -0.6022 -0.8761
  111SOPE    O214471   3.408   3.777   3.464  0.1588 -0.3269 -0.0513
  111SOPE    O314472   3.236   3.603   3.516 -0.5445 -0.2820 -0.1857
  111SOPE    O414473   3.409   3.655   3.679 -0.0920  0.0448  0.4256
  111SOPE    C614474   3.357   3.763   3.753 -0.2235  0.3680  0.3300
  111SOPE   H1414475   3.305   3.734   3.845  0.4631 -2.8207 -0.2526
  111SOPE   H1514476   3.272   3.797   3.693 -0.2803 -1.6269 -0.7467
  111SOPE    C714477   3.468   3.874   3.785 -0.1030  0.5026  0.6065
  111SOPE   H1614478   3.512   3.912   3.693  0.3512  0.7677  0.9322
  111SOPE    O514479   3.562   3.816   3.868  0.2483  0.1275  0.5733
  111SOPE    C814480   3.689   3.837   3.826  0.3343  0.0721 -0.0728
  111SOPE    O614481   3.719   3.803   3.706  0.4914 -0.4904 -0.4608
  111SOPE    C914482   3.791   3.799   3.930  0.5142  0.2195 -0.0759
  111SOPE   H1714483   3.824   3.696   3.942  0.7675  0.3990  0.8198
  111SOPE   H1814484   3.754   3.836   4.026 -1.2085 -0.2990 -0.5268
  111SOPE   C1014485   3.404   3.993   3.851  0.4621  0.2140 -0.5667
  111SOPE   H1914486   3.343   3.974   3.940  2.4933 -0.7773  0.6762
  111SOPE   H2014487   3.337   4.030   3.774  0.2171 -0.6726 -0.7882
  111SOPE    O714488   3.507   4.080   3.879 -0.6125 -0.6981 -0.3970
  111SOPE   C1114489   3.487   4.203   3.905  0.3089  0.9332  0.1778
  111SOPE    O814490   3.373   4.253   3.897  0.8542 -0.3591 -0.1263
  111SOPE   C1214491   3.618   4.282   3.922 -0.3460 -0.0129 -0.1868
  111SOPE   H2114492   3.590   4.386   3.940  0.6840  0.2997 -0.3676
  111SOPE   H2214493   3.689   4.287   3.839  1.4069 -2.3647  1.0994
  111SOPE   C1314494   3.702   4.237   4.044  0.3056  0.1579 -1.0564
  111SOPE   H2314495   3.791   4.298   4.033  0.4077  0.3780  0.8180
  111SOPE   H2414496   3.723   4.133   4.016  0.2651  0.6227 -2.8535
  111SOPE   C1414497   3.642   4.238   4.187  0.0638  0.9182 -0.6381
  111SOPE   H2514498   3.710   4.217   4.270  0.7605 -0.5106 -1.5458
  111SOPE   H2614499   3.576   4.151   4.185  0.2503  0.7913 -1.5766
  111SOPE   C1514500   3.579   4.370   4.226 -0.8475  0.9645 -0.0149
  111SOPE   H2714501   3.521   4.368   4.319  0.0254 -2.3720  0.5006
  111SOPE   H2814502   3.504   4.390   4.150  0.7837 -0.8471 -2.1427
  111SOPE   C1614503   3.682   4.485   4.242  0.4575 -0.6924  0.0168
  111SOPE   H2914504   3.716   4.517   4.144  0.3049  0.0454  0.2015
  111SOPE   H3014505   3.773   4.444   4.286  1.0474 -1.0173 -1.4930
  111SOPE   C1714506   3.624   4.606   4.307 -0.1049  0.4628 -0.1794
  111SOPE   H3114507   3.579   4.582   4.403  0.3880  0.8293  0.1448
  111SOPE   H3214508   3.544   4.652   4.248 -0.3805 -0.7873 -0.7934
  111SOPE   C1814509   3.734   4.714   4.335  0.1477 -0.2553  0.1726
  111SOPE   H3314510   3.675   4.784   4.394 -0.4180 -1.1658  0.6959
  111SOPE   H3414511   3.758   4.767   4.243 -0.3555  2.7057  1.6506
  111SOPE   C1914512   3.844   4.663   4.431  0.1967  0.7026  0.2242
  111SOPE   H3514513   3.939   4.642   4.384 -0.0521 -0.1227  0.0856
  111SOPE   C2014514   3.838   4.646   4.561  0.1341  0.4216  0.4502
  111SOPE   H3614515   3.919   4.598   4.614  0.3145 -0.0547 -0.2466
  111SOPE   C2114516   3.718   4.683   4.654  0.2847 -0.7027  0.1217
  111SOPE   H3714517   3.709   4.594   4.715  4.0733 -0.9092  0.4691
  111SOPE   H3814518   3.624   4.708   4.604  0.3882 -1.0448 -0.2542
  111SOPE   C2214519   3.753   4.804   4.740 -0.1331  0.5837  0.0517
  111SOPE   H3914520   3.659   4.836   4.784 -0.1927  0.5423 -0.0430
  111SOPE   H4014521   3.801   4.888   4.688  0.1818  1.3182  1.5040
  111SOPE   C2314522   3.863   4.776   4.846  0.4973  0.9890  0.4950
  111SOPE   H4114523   3.962   4.748   4.810  0.3347  0.5728  0.3637
  111SOPE   H4214524   3.830   4.695   4.910  0.1001  1.3234  0.7208
  111SOPE   C2414525   3.890   4.901   4.931  0.0348 -0.5945  0.1890
  111SOPE   H4314526   3.804   4.925   4.993  1.0730  1.4783  0.8623
  111SOPE   H4414527   3.913   4.991   4.873 -0.8656  0.0843  0.8752
  111SOPE   C2514528   3.996   4.881   5.040 -0.2651  0.6868  0.1817
  111SOPE   H4514529   4.097   4.882   5.001 -0.7742 -0.9855 -1.2117
  111SOPE   H4614530   3.983   4.780   5.077 -1.0537  0.7152 -0.0029
  111SOPE   C2614531   3.986   4.980   5.160  0.2504 -0.0352  0.0552
  111SOPE   H4714532   3.996   5.084   5.130  2.0448 -0.3350 -0.4455
  111SOPE   H4814533   3.890   4.976   5.211  1.1360  0.7214  1.8394
  111SOPE   C2714534   4.102   4.964   5.265 -0.0116 -0.1096 -0.3916
  111SOPE   H4914535   4.189   4.972   5.201 -1.3121 -0.6429 -2.2526
  111SOPE   H5014536   4.102   4.863   5.307 -3.0276 -0.2331 -0.5324
  111SOPE   C2714537   4.113   5.076   5.366  0.0733 -0.2131 -0.0842
  111SOPE   H5114538   4.215   5.092   5.403 -0.7832  1.1228  1.7717
  111SOPE   H5214539   4.078   5.171   5.326  0.0259 -1.1907 -2.4673
  111SOPE   H5314540   4.039   5.057   5.443  0.1067  0.0250  0.0056
  111SOPE   C2914541   3.929   3.870   3.907  0.5586 -0.5039 -0.2198
  111SOPE   H5414542   3.911   3.969   3.865 -2.1512  0.9976  4.2604
  111SOPE   H5514543   3.989   3.808   3.839  2.1402  0.2742  0.4306
  111SOPE   C3014544   4.015   3.893   4.036  0.5169 -0.5174  0.4935
  111SOPE   H5614545   4.111   3.936   4.005 -1.1382  2.1644 -1.0553
  111SOPE   H5714546   4.049   3.795   4.070 -0.0393 -0.2567  1.8348
  111SOPE   C3114547   3.962   3.985   4.147 -0.1046  0.7082  0.0772
  111SOPE   H5814548   3.894   3.932   4.214 -0.5968 -0.9405 -1.6752
  111SOPE   H5914549   3.899   4.052   4.088 -1.0084 -1.3430 -1.3573
  111SOPE   C3214550   4.075   4.066   4.209  0.0707  0.1446  0.0630
  111SOPE   H6014551   4.129   4.109   4.125  1.6265 -0.2845  0.8340
  111SOPE   H6114552   4.147   4.003   4.262  0.7666 -1.6588 -2.8741
  111SOPE   C3314553   4.014   4.171   4.303 -0.1406  0.8864  0.4651
  111SOPE   H6214554   3.934   4.221   4.248  0.8210  0.6300 -1.1755
  111SOPE   H6314555   4.091   4.247   4.316  0.8764  0.6535 -3.7482
  111SOPE   C3414556   3.958   4.120   4.442 -0.0837  0.1675  0.4094
  111SOPE   H6414557   4.028   4.048   4.484  3.2098  2.8024 -0.4004
  111SOPE   H6514558   3.867   4.063   4.425  0.2684 -0.5106  0.7758
  111SOPE   C3514559   3.934   4.247   4.536  0.9189 -0.3173 -0.3521
  111SOPE   H6614560   3.875   4.318   4.477 -0.6004 -0.5778  0.8054
  111SOPE   H6714561   4.018   4.315   4.546  0.7992  0.1673 -2.3684
  111SOPE   C3614562   3.875   4.210   4.675 -0.1766  0.0673 -0.5478
  111SOPE   H6814563   3.922   4.116   4.706 -1.0376  0.0447  0.7256
  111SOPE   H6914564   3.774   4.178   4.646  0.0656 -0.5829 -0.6905
  111SOPE   C3714565   3.867   4.324   4.777 -0.3121  0.8916  0.3726
  111SOPE   H7014566   3.847   4.416   4.722 -0.0650  0.1226 -1.0360
  111SOPE   H7114567   3.965   4.349   4.820 -0.6336 -0.3515  1.8718
  111SOPE   C3814568   3.765   4.301   4.890 -0.6273 -0.1377 -0.6968
  111SOPE   H7214569   3.796   4.213   4.946 -2.7461 -1.4580 -1.5137
  111SOPE   H7314570   3.670   4.281   4.840 -1.4769  0.5663  0.6173
  111SOPE   C3914571   3.736   4.426   4.983 -0.1592 -0.5154  0.4324
  111SOPE   H7414572   3.663   4.396   5.059 -0.4533 -4.9797 -1.4664
  111SOPE   H7514573   3.691   4.512   4.932  0.5110 -0.0669  0.5820
  111SOPE   C4014574   3.855   4.484   5.059  0.2053 -0.0235  0.6115
  111SOPE   H7614575   3.826   4.578   5.107 -2.2685 -0.8940  0.9021
  111SOPE   H7714576   3.933   4.509   4.988 -1.8555  0.2417 -1.6469
  111SOPE   C4114577   3.921   4.396   5.163 -0.1724 -0.1823  0.0765
  111SOPE   H7814578   3.960   4.304   5.119 -1.5284  0.0730 -1.7028
  111SOPE   H7914579   3.848   4.348   5.228  1.2384 -4.1997 -1.1651
  111SOPE   C4214580   4.029   4.468   5.248  0.2391 -0.4770  0.8538
  111SOPE   H8014581   3.996   4.568   5.276  1.5633  0.1913  0.1091
  111SOPE   H8114582   4.115   4.482   5.183  1.2312  1.5875  2.5385
  111SOPE   C4314583   4.046   4.410   5.395 -0.5391 -0.6386 -0.1326
  111SOPE   H8214584   4.117   4.474   5.448 -1.6087 -1.9911  3.0585
  111SOPE   H8314585   3.945   4.408   5.438  0.4092 -0.4149  2.1922
  111SOPE   C4414586   4.093   4.274   5.412  0.0402 -0.0560  0.7678
  111SOPE   H8414587   4.197   4.272   5.380 -0.3797 -0.1223 -0.6180
  111SOPE   H8514588   4.093   4.249   5.519  0.0054  0.6368  0.9300
  111SOPE   H8614589   4.048   4.199   5.347 -2.0537  0.9310  1.0507
  112SOPE    N114590   2.984   5.548   3.516  0.0341  0.2050 -0.7062
  112SOPE    C114591   3.084   5.603   3.426  0.1871 -0.2141 -0.4321
  112SOPE    H114592   3.069   5.710   3.407  1.2704  0.0351  0.0758
  112SOPE    H214593   3.074   5.568   3.323  0.4651 -4.2205  0.8233
  112SOPE    H314594   2.999   5.594   3.605  0.6594 -1.4191  0.0481
  112SOPE    H414595   3.000   5.448   3.518  2.0988  0.4463 -3.1898
  112SOPE    H514596   2.894   5.573   3.479  0.3516  2.7615  0.1653
  112SOPE    C514597   3.221   5.588   3.478 -0.2884 -0.3423  0.3787
  112SOPE   H1214598   3.240   5.487   3.514 -0.2457 -1.0612 -1.5643
  112SOPE   H1314599   3.218   5.642   3.572 -0.1234  1.1084 -0.4337
  112SOPE    P114600   3.381   5.783   3.397 -0.1814 -0.2712 -0.1516
  112SOPE    O114601   3.461   5.803   3.275 -0.6304 -0.4215 -0.1152
  112SOPE    O214602   3.266   5.867   3.413  0.1180  0.3419  0.2303
  112SOPE    O314603   3.327   5.631   3.394  0.0670 -0.3956 -0.1835
  112SOPE    O414604   3.470   5.774   3.533  0.3178 -0.5276 -0.2273
  112SOPE    C614605   3.594   5.713   3.539 -0.0007 -0.2659 -0.5985
  112SOPE   H1414606   3.660   5.762   3.610 -2.6042  2.3265  0.1553
  112SOPE   H1514607   3.653   5.710   3.447 -1.1409 -1.5289 -1.3074
  112SOPE    C714608   3.585   5.575   3.603  0.2389  0.4864  0.1943
  112SOPE   H1614609   3.510   5.526   3.542 -1.2008  3.0461 -0.1822
  112SOPE    O514610   3.547   5.592   3.746 -0.1506 -0.0982  0.3994
  112SOPE    C814611   3.445   5.538   3.792  0.5091 -0.0155  0.0476
  112SOPE    O614612   3.382   5.447   3.739  0.3481 -0.2066  0.0678
  112SOPE    C914613   3.447   5.542   3.940 -0.4038  0.3627  0.3330
  112SOPE   H1714614   3.365   5.507   4.003  1.5887 -1.7468  1.8643
  112SOPE   H1814615   3.462   5.646   3.968  2.1022  0.4560 -1.1822
  112SOPE   C1014616   3.727   5.500   3.588  0.3925  0.0868  0.6978
  112SOPE   H1914617   3.753   5.504   3.482 -1.6330  0.7488  0.2046
  112SOPE   H2014618   3.724   5.394   3.612  0.4197 -1.0970 -4.0362
  112SOPE    O714619   3.827   5.566   3.660 -0.6223 -0.0827  0.3633
  112SOPE   C1114620   3.944   5.521   3.679 -0.3339  0.5688 -0.9205
  112SOPE    O814621   3.998   5.445   3.600  0.4522 -0.6014  0.7678
  112SOPE   C1214622   4.022   5.629   3.770  0.3748  0.0165  0.6689
  112SOPE   H2114623   3.946   5.657   3.844 -0.9427 -1.3615 -0.1281
  112SOPE   H2214624   4.049   5.712   3.704 -1.3280 -0.6860 -0.9475
  112SOPE   C1314625   4.145   5.566   3.849  0.0743  0.0800  0.0637
  112SOPE   H2314626   4.192   5.646   3.905 -0.6315  0.2683  0.3922
  112SOPE   H2414627   4.212   5.526   3.773  0.7886  1.3435  0.0143
  112SOPE   C1414628   4.115   5.450   3.949 -0.3371 -0.1769  0.7079
  112SOPE   H2514629   4.210   5.414   3.991 -0.7548 -0.5852  1.3165
  112SOPE   H2614630   4.083   5.361   3.895 -0.3833  0.1701  0.1603
  112SOPE   C1514631   4.021   5.483   4.065 -0.2490  0.5219 -0.2556
  112SOPE   H2714632   4.007   5.396   4.130 -0.0899  2.0416  1.8727
  112SOPE   H2814633   3.918   5.483   4.028 -0.6226  0.0082  0.7496
  112SOPE   C1614634   4.048   5.606   4.149  0.9167  0.5967 -0.8104
  112SOPE   H2914635   3.964   5.609   4.218  1.0321 -2.6136 -0.4411
  112SOPE   H3014636   4.039   5.693   4.083 -0.7311  2.2362  1.5196
  112SOPE   C1714637   4.178   5.616   4.221 -0.1789  0.0356  0.2179
  112SOPE   H3114638   4.260   5.619   4.149  0.0823 -0.9840  0.4515
  112SOPE   H3214639   4.207   5.532   4.285 -0.5323 -1.4222 -1.5190
  112SOPE   C1814640   4.188   5.742   4.306  0.5480 -0.3282  0.0662
  112SOPE   H3314641   4.094   5.749   4.361  1.1479 -0.5766  1.1310
  112SOPE   H3414642   4.197   5.832   4.245  2.9494 -1.0021 -0.6448
  112SOPE   C1914643   4.312   5.741   4.397  0.7127 -0.3072 -0.9368
  112SOPE   H3514644   4.409   5.738   4.350  1.4487  4.5624 -0.0497
  112SOPE   C2014645   4.316   5.774   4.531 -0.0792 -0.1036 -0.1553
  112SOPE   H3614646   4.414   5.784   4.574 -0.3147  1.2384  0.0767
  112SOPE   C2114647   4.192   5.809   4.618  0.3987 -0.3055 -0.6310
  112SOPE   H3714648   4.103   5.785   4.560  0.0582  0.7656 -0.5581
  112SOPE   H3814649   4.200   5.918   4.613  0.8427 -0.3834 -1.7242
  112SOPE   C2214650   4.203   5.743   4.762  0.4610 -0.1610  0.2229
  112SOPE   H3914651   4.238   5.641   4.750 -0.0221 -0.1090 -1.7943
  112SOPE   H4014652   4.106   5.747   4.812 -0.0119 -0.9343 -0.6188
  112SOPE   C2314653   4.296   5.829   4.848  0.2953 -0.3825  0.5098
  112SOPE   H4114654   4.265   5.933   4.841  1.9105  0.0759 -0.0377
  112SOPE   H4214655   4.400   5.826   4.816 -0.0909  1.2572 -0.9884
  112SOPE   C2414656   4.303   5.798   5.001 -0.0248 -0.3397 -1.0270
  112SOPE   H4314657   4.367   5.711   5.013 -2.2397 -1.9336 -0.4131
  112SOPE   H4414658   4.200   5.779   5.033 -0.7815  0.1470 -3.0350
  112SOPE   C2514659   4.361   5.912   5.090 -0.1076 -0.3169 -0.7565
  112SOPE   H4514660   4.301   0.054   5.082  1.2046  0.5881 -0.3866
  112SOPE   H4614661   4.463   5.936   5.061  0.6990 -0.9169  1.5417
  112SOPE   C2614662   4.380   5.887   5.242 -0.2697 -0.3962 -0.1921
  112SOPE   H4714663   4.287   5.835   5.266 -1.1566  0.4671 -1.6998
  112SOPE   H4814664   4.461   5.819   5.269 -0.9938 -0.0654  2.9984
  112SOPE   C2714665   4.392   0.059   5.331  0.0486  0.0171 -0.5592
  112SOPE   H4914666   4.303   0.122   5.333  0.1931  0.2935 -2.2534
  112SOPE   H5014667   4.481   0.118   5.306  1.2849 -0.8254  1.6772
  112SOPE   C2714668   4.413   0.012   5.483 -0.4951  0.0546  0.1080
  112SOPE   H5114669   4.519   5.935   5.491 -0.3756  0.8315  1.2146
  112SOPE   H5214670   4.407   0.096   5.553 -1.7013 -0.0389  0.1274
  112SOPE   H5314671   4.359   5.872   5.516 -0.3624  0.5301  1.6634
  112SOPE   C2914672   3.570   5.462   3.987  0.2404  0.2875  0.5180
  112SOPE   H5414673   3.669   5.488   3.950  0.2314 -1.9353 -1.1396
  112SOPE   H5514674   3.554   5.365   3.941  0.3280  0.8517 -0.7400
  112SOPE   C3014675   3.583   5.440   4.136 -0.4019 -0.6296  0.6449
  112SOPE   H5614676   3.659   5.364   4.151  0.4327 -0.0933 -0.7642
  112SOPE   H5714677   3.488   5.410   4.179 -0.4337  1.6678  2.2695
  112SOPE   C3114678   3.632   5.565   4.215  0.2181  0.2896 -0.6213
  112SOPE   H5814679   3.560   5.647   4.211 -0.0505  0.3447  3.2612
  112SOPE   H5914680   3.720   5.604   4.164  1.1707 -2.1582 -0.9541
  112SOPE   C3214681   3.694   5.547   4.357  0.2143 -0.6573  0.4345
  112SOPE   H6014682   3.773   5.474   4.347 -0.3380 -1.0725 -1.0865
  112SOPE   H6114683   3.625   5.490   4.418  1.7073 -2.1720  0.7407
  112SOPE   C3314684   3.736   5.684   4.422 -0.5602 -0.1380 -0.6839
  112SOPE   H6214685   3.667   5.768   4.409 -0.2865  0.4447  1.2924
  112SOPE   H6314686   3.835   5.716   4.390 -0.8707  1.7992  0.1601
  112SOPE   C3414687   3.746   5.673   4.574 -0.5583  0.2984  0.0086
  112SOPE   H6414688   3.647   5.659   4.616  0.1436  0.1140  1.6535
  112SOPE   H6514689   3.783   5.762   4.624  0.2426  0.8239 -1.4707
  112SOPE   C3514690   3.848   5.561   4.611 -0.2199 -0.2375  0.1595
  112SOPE   H6614691   3.949   5.592   4.582 -1.8421  5.5899  0.2157
  112SOPE   H6714692   3.825   5.470   4.555  2.0975  0.2934 -1.7618
  112SOPE   C3614693   3.847   5.513   4.749  0.0732 -0.9272  0.0097
  112SOPE   H6814694   3.937   5.452   4.758  0.5979 -0.1441  0.1303
  112SOPE   H6914695   3.769   5.437   4.758 -1.0701  0.4427  2.0016
  112SOPE   C3714696   3.823   5.611   4.865  0.2504 -0.5155 -0.3127
  112SOPE   H7014697   3.717   5.639   4.863  0.3535 -0.1999 -1.7179
  112SOPE   H7114698   3.876   5.703   4.843 -0.8848  0.5052  1.1158
  112SOPE   C3814699   3.852   5.559   5.006  0.1209 -0.0367  0.5370
  112SOPE   H7214700   3.819   5.456   4.997 -2.3799  0.7037  0.8123
  112SOPE   H7314701   3.800   5.623   5.079  2.6065  1.1696  1.2920
  112SOPE   C3914702   3.995   5.571   5.035  0.5375  0.1515  0.2252
  112SOPE   H7414703   4.027   5.672   5.010 -0.4963  0.7346  1.2025
  112SOPE   H7514704   4.044   5.509   4.959  2.0234 -1.0236  2.1040
  112SOPE   C4014705   4.031   5.519   5.176 -0.0311 -0.9620 -0.0604
  112SOPE   H7614706   4.136   5.525   5.205 -0.4268  1.3654  0.9653
  112SOPE   H7714707   4.007   5.413   5.173  1.9760 -1.4517  0.5396
  112SOPE   C4114708   3.952   5.592   5.286 -0.1130  0.5083  0.5275
  112SOPE   H7814709   3.962   5.536   5.379  1.5289  1.1695  0.7718
  112SOPE   H7914710   3.844   5.598   5.268 -0.1387 -0.3769  0.3795
  112SOPE   C4214711   3.998   5.737   5.308  0.1346  0.4031  0.6729
  112SOPE   H8014712   3.980   5.788   5.214  1.6404 -0.5213 -0.1416
  112SOPE   H8114713   4.107   5.741   5.316 -0.0557  2.5776  2.8710
  112SOPE   C4314714   3.941   5.811   5.424  0.5728 -0.0849 -0.7531
  112SOPE   H8214715   3.833   5.802   5.414  0.2655  1.7249  0.6922
  112SOPE   H8314716   3.968   5.769   5.522 -0.0007 -1.1308 -1.0295
  112SOPE   C4414717   4.005   0.000   5.417 -0.3050 -0.8854  0.2896
  112SOPE   H8414718   3.967   0.052   5.505  0.1866 -0.1536  0.0761
  112SOPE   H8514719   4.114   0.002   5.423 -0.3847 -0.1744  1.7041
  112SOPE   H8614720   3.977   0.059   5.330 -1.5209  0.9902  1.9111
  113SOPE    N114721   4.159   1.542   3.344 -0.1012 -0.0248 -0.3002
  113SOPE    C114722   4.284   1.608   3.377 -0.2918  0.3173 -0.6578
  113SOPE    H114723   4.288   1.708   3.333  2.6530  0.8996  0.7585
  113SOPE    H214724   4.373   1.549   3.354  1.6262  2.6053  0.6321
  113SOPE    H314725   4.161   1.551   3.243  0.6255  1.1615 -0.1920
  113SOPE    H414726   4.085   1.588   3.394  1.5955  1.4037  0.9666
  113SOPE    H514727   4.168   1.445   3.371  2.3248  0.0858 -0.6100
  113SOPE    C514728   4.303   1.612   3.533  0.5597 -0.9924 -0.2696
  113SOPE   H1214729   4.256   1.534   3.592  2.0843 -0.9509  1.0412
  113SOPE   H1314730   4.240   1.697   3.561 -2.0810 -2.5879 -1.1765
  113SOPE    P114731   4.513   1.764   3.514 -0.2860 -0.0531 -0.0047
  113SOPE    O114732   4.610   1.716   3.411 -0.4584 -0.7470 -0.4788
  113SOPE    O214733   4.420   1.870   3.482 -0.2702  0.4748  0.2721
  113SOPE    O314734   4.438   1.635   3.570  0.5589 -0.0631 -0.1031
  113SOPE    O414735   4.598   1.810   3.648 -0.1023  0.7127 -0.4526
  113SOPE    C614736   4.539   1.821   3.781  0.1285  0.0326 -0.9527
  113SOPE   H1414737   4.450   1.882   3.769 -2.1991 -3.2194 -0.7577
  113SOPE   H1514738   4.607   1.884   3.839  0.0200 -1.3401  0.6854
  113SOPE    C714739   4.498   1.685   3.853 -0.1686  0.5793  0.1195
  113SOPE   H1614740   4.413   1.642   3.799  2.2764 -1.1881 -2.4651
  113SOPE    O514741   4.452   1.723   3.980 -0.6620  0.0556 -0.4821
  113SOPE    C814742   4.351   1.665   4.043  0.0854  0.1036 -0.2173
  113SOPE    O614743   4.276   1.576   4.003 -0.5343 -0.0181  0.3495
  113SOPE    C914744   4.356   1.703   4.191  0.0745 -0.2887 -0.4104
  113SOPE   H1714745   4.380   1.809   4.190  0.2173 -0.3041  1.0660
  113SOPE   H1814746   4.440   1.665   4.249 -0.2644  0.2262  0.4190
  113SOPE   C1014747   4.599   1.579   3.868 -0.0181  0.0671  0.0432
  113SOPE   H1914748   4.670   1.591   3.950  0.6487 -0.9990 -0.3785
  113SOPE   H2014749   4.664   1.571   3.781  1.9833  2.4588  1.2347
  113SOPE    O714750   4.534   1.452   3.884  0.1708 -0.0625  0.3897
  113SOPE   C1114751   4.592   1.339   3.866 -0.2402 -0.1944 -0.4283
  113SOPE    O814752   4.713   1.334   3.836 -0.1054  0.1731 -0.4444
  113SOPE   C1214753   4.525   1.234   3.960 -0.1920 -0.0416 -0.0506
  113SOPE   H2114754   4.535   1.131   3.923  1.6374  0.2394 -0.3878
  113SOPE   H2214755   4.419   1.259   3.963 -0.3709 -0.7172 -0.4791
  113SOPE   C1314756   4.574   1.242   4.109  0.7125 -0.0428  0.6823
  113SOPE   H2314757   4.681   1.226   4.121  0.3995 -2.6429  0.3266
  113SOPE   H2414758   4.525   1.161   4.164 -1.1917 -0.4215 -1.4869
  113SOPE   C1414759   4.533   1.371   4.187  0.6368 -0.6698 -0.1579
  113SOPE   H2514760   4.426   1.382   4.173  1.0793  1.0248 -2.6533
  113SOPE   H2614761   4.584   1.459   4.147  1.4071  0.0740  2.3747
  113SOPE   C1514762   4.571   1.364   4.339 -0.1896 -0.2593 -0.6651
  113SOPE   H2714763   4.574   1.460   4.391 -1.1576  0.0706 -1.1901
  113SOPE   H2814764   4.672   1.323   4.344 -1.5054 -3.7005 -0.8820
  113SOPE   C1614765   4.491   1.254   4.415 -0.5027 -0.1029 -0.1336
  113SOPE   H2914766   4.537   1.156   4.402  0.7440 -0.0238  3.2688
  113SOPE   H3014767   4.389   1.241   4.378 -0.6443 -0.7064  0.4594
  113SOPE   C1714768   4.486   1.287   4.568  0.1278 -0.2770  0.7827
  113SOPE   H3114769   4.517   1.390   4.588 -0.3232  0.8374 -3.7703
  113SOPE   H3214770   4.559   1.219   4.612  1.0266  0.3384  0.2606
  113SOPE   C1814771   4.356   1.259   4.630 -0.3921 -0.1033 -0.0532
  113SOPE   H3314772   4.326   1.159   4.598  0.7034 -0.0854 -1.1695
  113SOPE   H3414773   4.287   1.335   4.595  0.5276  1.1218  0.7734
  113SOPE   C1914774   4.374   1.265   4.783  0.2231  0.3389 -1.0303
  113SOPE   H3514775   4.425   1.353   4.822  2.2724 -1.9831  1.7402
  113SOPE   C2014776   4.333   1.183   4.881 -0.2682  0.8039 -0.0074
  113SOPE   H3614777   4.350   1.212   4.983 -1.7191  2.1394 -0.1280
  113SOPE   C2114778   4.280   1.048   4.850 -0.2233  0.5396 -0.1409
  113SOPE   H3714779   4.255   1.034   4.745 -0.9190  1.0965 -0.0482
  113SOPE   H3814780   4.184   1.033   4.899 -0.9277 -1.1122 -1.9381
  113SOPE   C2214781   4.380   0.946   4.903 -0.1553 -0.9161  0.8449
  113SOPE   H3914782   4.344   0.843   4.903  1.1377 -1.4159 -1.0812
  113SOPE   H4014783   4.410   0.975   5.004  0.5552 -2.4792  1.1052
  113SOPE   C2314784   4.514   0.960   4.825  0.3055  0.1119  0.3056
  113SOPE   H4114785   4.564   1.056   4.836 -0.4855  0.3379  2.0726
  113SOPE   H4214786   4.493   0.946   4.719  0.5549  0.5204  0.2021
  113SOPE   C2414787   4.612   0.861   4.878 -0.4714 -0.1758 -0.9611
  113SOPE   H4314788   4.623   0.869   4.986  0.0749  0.0255 -1.0342
  113SOPE   H4414789   4.712   0.879   4.839 -0.1213  1.8772  0.8229
  113SOPE   C2514790   4.580   0.710   4.857 -0.3494 -0.1786  0.0749
  113SOPE   H4514791   4.580   0.688   4.750  2.9300 -0.4520  0.0714
  113SOPE   H4614792   4.475   0.698   4.883 -0.7377 -0.9813 -1.7661
  113SOPE   C2614793   4.685   0.616   4.923  0.0217 -0.5257 -0.2344
  113SOPE   H4714794   4.691   0.522   4.868  1.4355 -0.0640 -0.8897
  113SOPE   H4814795   4.785   0.659   4.930 -0.4387  0.9237 -2.1392
  113SOPE   C2714796   4.639   0.566   5.063 -0.6553 -0.0978 -0.0736
  113SOPE   H4914797   4.537   0.528   5.054 -0.5055 -0.5507  0.1321
  113SOPE   H5014798   4.644   0.651   5.131  1.4394  0.4059 -0.8142
  113SOPE   C2714799   4.729   0.456   5.118 -0.2984  0.1839 -0.0757
  113SOPE   H5114800   4.681   0.408   5.203  1.8990 -0.2641  0.9373
  113SOPE   H5214801   4.769   0.379   5.051  3.2541  0.4225  1.6718
  113SOPE   H5314802   4.811   0.502   5.174  1.3614 -0.2680 -2.0647
  113SOPE   C2914803   4.227   1.688   4.273  0.3721  0.0086  0.4530
  113SOPE   H5414804   4.209   1.585   4.302 -1.3619  0.3619  0.6715
  113SOPE   H5514805   4.138   1.710   4.214 -0.3021  1.8457  2.1070
  113SOPE   C3014806   4.215   1.772   4.402 -0.5657  0.0517 -0.0272
  113SOPE   H5614807   4.129   1.755   4.467  0.1650 -3.4370  0.1230
  113SOPE   H5714808   4.216   1.878   4.375  0.2457 -0.0157 -0.2690
  113SOPE   C3114809   4.349   1.754   4.489 -0.3839  0.1174 -0.4611
  113SOPE   H5814810   4.427   1.793   4.422  0.0395 -0.8683 -0.5438
  113SOPE   H5914811   4.357   1.647   4.507 -3.5026 -0.3384 -1.5467
  113SOPE   C3214812   4.339   1.818   4.622  0.9393  0.3585  0.3035
  113SOPE   H6014813   4.256   1.778   4.680  2.7899 -2.3013  1.1795
  113SOPE   H6114814   4.313   1.923   4.604  0.3814  0.5597  2.2155
  113SOPE   C3314815   4.456   1.809   4.714 -0.9014  0.5783 -0.0449
  113SOPE   H6214816   4.550   1.823   4.661 -1.0873 -1.4705 -0.9372
  113SOPE   H6314817   4.459   1.715   4.768  0.9267  1.0239  0.6960
  113SOPE   C3414818   4.434   1.923   4.821  0.3739 -0.6708  0.2897
  113SOPE   H6414819   4.329   1.931   4.849  0.3798 -0.4437  0.2472
  113SOPE   H6514820   4.450   2.019   4.772  1.8236 -1.0375  0.0235
  113SOPE   C3514821   4.520   1.913   4.946 -0.1013 -0.0820 -0.0320
  113SOPE   H6614822   4.618   1.941   4.908  0.1540 -2.7120 -1.3921
  113SOPE   H6714823   4.525   1.814   4.990  0.8753 -0.3581 -0.7561
  113SOPE   C3614824   4.475   2.006   5.059 -0.2000 -0.3340  0.4446
  113SOPE   H6814825   4.532   1.987   5.149 -1.7539 -1.1842  1.2718
  113SOPE   H6914826   4.375   1.981   5.094 -0.4589  2.6598  2.0535
  113SOPE   C3714827   4.478   2.167   5.020  0.1129  0.1383  0.3282
  113SOPE   H7014828   4.416   2.193   4.934 -0.4695  1.1076  1.0283
  113SOPE   H7114829   4.579   2.183   4.983 -0.8017  0.8710 -1.9172
  113SOPE   C3814830   4.431   2.255   5.133 -0.0140 -0.0355  0.7754
  113SOPE   H7214831   4.482   2.229   5.226  2.7442 -0.8927 -0.9281
  113SOPE   H7314832   4.324   2.240   5.142 -0.2510 -1.0594 -3.1682
  113SOPE   C3914833   4.455   2.406   5.110 -0.1443 -0.5722 -0.1333
  113SOPE   H7414834   4.412   2.430   5.013  0.5890 -0.7632 -0.5101
  113SOPE   H7514835   4.560   2.433   5.116 -0.5901  1.4835 -0.9813
  113SOPE   C4014836   4.375   2.488   5.202  0.3370 -0.0136 -0.3823
  113SOPE   H7614837   4.421   2.587   5.211  0.2792  0.1223 -1.5544
  113SOPE   H7714838   4.389   2.447   5.302 -0.7276  1.3199  0.3232
  113SOPE   C4114839   4.224   2.504   5.168 -0.3829  0.9127 -0.0493
  113SOPE   H7814840   4.196   2.399   5.155  0.1866  0.6856  0.5092
  113SOPE   H7914841   4.224   2.547   5.068 -0.7610  3.2546  0.9263
  113SOPE   C4214842   4.143   2.584   5.267  0.2596 -0.5531  0.1638
  113SOPE   H8014843   4.148   2.540   5.366 -0.0541 -0.2475  0.3172
  113SOPE   H8114844   4.039   2.581   5.234 -0.2247 -1.2690  1.7253
  113SOPE   C4314845   4.176   2.727   5.279 -0.1292  0.4218  0.2299
  113SOPE   H8214846   4.270   2.736   5.333  1.8689  0.1977 -3.0604
  113SOPE   H8314847   4.200   2.773   5.183  1.3024 -1.0248 -0.1347
  113SOPE   C4414848   4.057   2.802   5.331  0.8037 -0.3023 -0.5572
  113SOPE   H8414849   3.959   2.787   5.284 -0.2261  1.0143  1.0829
  113SOPE   H8514850   4.045   2.757   5.430 -1.2308 -1.6287 -1.3692
  113SOPE   H8614851   4.077   2.908   5.320 -1.9813  0.3570  0.2594
  114SOPE    N114852   2.430   1.053   3.516 -0.2408  0.0385 -0.1209
  114SOPE    C114853   2.471   1.039   3.661  0.2617 -0.4943 -0.1130
  114SOPE    H114854   2.578   1.062   3.665  0.6703 -2.5545  1.5968
  114SOPE    H214855   2.467   0.938   3.701  0.3519 -0.3311  0.3192
  114SOPE    H314856   2.416   1.152   3.512 -0.4293 -0.0233 -1.4164
  114SOPE    H414857   2.353   0.989   3.504  0.7318 -1.6843  2.3638
  114SOPE    H514858   2.508   1.036   3.453 -0.5465 -1.5203 -0.1188
  114SOPE    C514859   2.396   1.127   3.762 -0.0613  0.1010  1.2661
  114SOPE   H1214860   2.288   1.113   3.756 -0.0051 -0.0599  0.5509
  114SOPE   H1314861   2.407   1.231   3.730  1.6984  0.3716  2.6564
  114SOPE    P114862   2.388   1.032   4.013  0.2413  0.2838  0.3021
  114SOPE    O114863   2.352   0.899   3.960 -0.1802  0.6724  1.0062
  114SOPE    O214864   2.490   1.024   4.119  0.3099 -0.5471  0.1203
  114SOPE    O314865   2.445   1.122   3.896 -0.4545  0.1641 -0.4476
  114SOPE    O414866   2.246   1.077   4.070  0.6370 -0.1488 -0.2181
  114SOPE    C614867   2.226   1.212   4.110  0.0436 -0.6168 -0.3904
  114SOPE   H1414868   2.118   1.231   4.107 -0.2009 -1.7025  1.0201
  114SOPE   H1514869   2.271   1.272   4.031  0.5947 -1.7347 -0.9321
  114SOPE    C714870   2.294   1.238   4.249 -0.3948  0.2233  0.2749
  114SOPE   H1614871   2.400   1.214   4.237 -0.9891 -1.8418 -1.1982
  114SOPE    O514872   2.234   1.148   4.338  0.4382  0.3763 -0.4422
  114SOPE    C814873   2.303   1.085   4.428 -1.1837 -0.5446  0.3966
  114SOPE    O614874   2.420   1.103   4.458  0.0020  0.0710  0.3236
  114SOPE    C914875   2.208   1.009   4.517 -0.8887 -1.1104 -0.0917
  114SOPE   H1714876   2.185   0.914   4.468  0.5082 -1.7509  0.4888
  114SOPE   H1814877   2.112   1.062   4.517  0.1753  0.8922 -1.2213
  114SOPE   C1014878   2.265   1.379   4.301  0.1720 -0.1601  0.0085
  114SOPE   H1914879   2.156   1.381   4.297  0.1406  0.5422  0.9603
  114SOPE   H2014880   2.308   1.460   4.242 -0.5539 -0.5155 -1.0176
  114SOPE    O714881   2.311   1.380   4.440 -0.2823 -0.2739 -0.5202
  114SOPE   C1114882   2.417   1.457   4.477  0.2441  0.9879 -0.7042
  114SOPE    O814883   2.492   1.517   4.399 -0.0748  0.1165  0.2010
  114SOPE   C1214884   2.422   1.500   4.626 -0.1297  0.1622 -0.1953
  114SOPE   H2114885   2.363   1.427   4.682  0.4490 -1.0713 -1.1577
  114SOPE   H2214886   2.383   1.601   4.632  3.5860  1.9565 -3.5555
  114SOPE   C1314887   2.567   1.511   4.674  0.6536  0.4794  0.3952
  114SOPE   H2314888   2.559   1.572   4.764 -1.2053  0.8820 -0.0178
  114SOPE   H2414889   2.624   1.565   4.598 -0.4044 -0.3874 -1.0517
  114SOPE   C1414890   2.626   1.372   4.717  0.8860 -0.8791  0.5239
  114SOPE   H2514891   2.734   1.381   4.732  1.0474 -3.2943  0.9375
  114SOPE   H2614892   2.613   1.304   4.633 -1.7828  1.2111 -0.8653
  114SOPE   C1514893   2.546   1.321   4.839 -0.1661  0.4819 -0.2182
  114SOPE   H2714894   2.439   1.313   4.824 -0.5189  1.6904  1.5589
  114SOPE   H2814895   2.562   1.393   4.919  1.4569  0.8986 -0.8896
  114SOPE   C1614896   2.590   1.182   4.883  0.0387  0.0485 -0.0844
  114SOPE   H2914897   2.696   1.177   4.907  0.1451 -0.4031 -0.6360
  114SOPE   H3014898   2.567   1.114   4.801 -1.0625 -0.5781  0.7299
  114SOPE   C1714899   2.523   1.131   5.013  0.2128 -0.2573 -0.5072
  114SOPE   H3114900   2.415   1.138   5.015  0.1604 -1.1339  1.4450
  114SOPE   H3214901   2.564   1.210   5.076  1.2943 -1.3594  0.2271
  114SOPE   C1814902   2.565   0.988   5.049 -0.3717  0.3099  0.6290
  114SOPE   H3314903   2.556   0.972   5.157  1.3291 -1.4366  0.5439
  114SOPE   H3414904   2.666   0.961   5.018 -1.7590 -1.5644 -2.5575
  114SOPE   C1914905   2.467   0.884   4.983  0.0803  0.1146 -0.1383
  114SOPE   H3514906   2.487   0.878   4.877  0.4882 -4.1151  0.1216
  114SOPE   C2014907   2.363   0.819   5.039 -0.0245  0.5269 -0.0178
  114SOPE   H3614908   2.314   0.750   4.972 -1.3110  1.4246 -0.0237
  114SOPE   C2114909   2.294   0.841   5.178  0.6222  0.2067  0.6888
  114SOPE   H3714910   2.189   0.848   5.151  0.3287 -2.1379  1.0828
  114SOPE   H3814911   2.332   0.936   5.215 -1.9181  2.5251 -2.3121
  114SOPE   C2214912   2.312   0.726   5.282 -0.4167 -0.6664  0.7722
  114SOPE   H3914913   2.419   0.705   5.285 -0.5363 -1.7738 -1.6394
  114SOPE   H4014914   2.266   0.634   5.244 -2.7750  0.3551  1.0556
  114SOPE   C2314915   2.253   0.765   5.420  0.1625 -0.5524  0.3218
  114SOPE   H4114916   2.153   0.810   5.417  0.8771  1.2772  2.6031
  114SOPE   H4214917   2.308   0.854   5.449 -0.3886 -0.8778  2.4689
  114SOPE   C2414918   2.256   0.664   5.532 -0.7455 -0.3887  0.3152
  114SOPE   H4314919   2.362   0.654   5.554 -0.5710 -1.0955 -0.7972
  114SOPE   H4414920   2.237   0.561   5.501  0.3955 -0.3057 -0.6747
  114SOPE   C2514921   2.147   0.688   5.642  0.6642  0.4326 -0.7473
  114SOPE   H4514922   2.048   0.687   5.597  0.4446 -1.7974 -0.2821
  114SOPE   H4614923   2.165   0.786   5.686  1.4640  0.8126 -1.8843
  114SOPE   C2614924   2.155   0.575   5.741 -0.0990  0.5000 -0.3505
  114SOPE   H4714925   2.117   0.489   5.686 -0.4985  1.1869 -1.1595
  114SOPE   H4814926   2.257   0.542   5.761 -0.8205 -0.4764  1.9509
  114SOPE   C2714927   2.091   0.586   5.877  0.2189  0.1036  0.3542
  114SOPE   H4914928   2.151   0.653   5.938  1.6743 -2.4821  1.8381
  114SOPE   H5014929   2.093   0.486   5.920 -0.8517  0.5123  1.3478
  114SOPE   C2714930   1.947   0.630   5.865 -0.3943  0.4490 -0.4576
  114SOPE   H5114931   1.902   0.547   5.809  1.7156 -1.0785  0.0205
  114SOPE   H5214932   1.897   0.632   5.962  0.8553  0.7894  0.1918
  114SOPE   H5314933   1.939   0.724   5.812  0.1323  0.2766 -0.8544
  114SOPE   C2914934   2.278   0.991   4.655 -1.1243  0.1687 -0.2509
  114SOPE   H5414935   2.357   1.061   4.683  0.5408 -1.2685 -1.2290
  114SOPE   H5514936   2.337   0.899   4.653 -1.3749  0.0403 -1.9075
  114SOPE   C3014937   2.177   1.005   4.770 -0.1904  0.1862  0.5680
  114SOPE   H5614938   2.112   1.087   4.741  0.6890  1.2681  1.6203
  114SOPE   H5714939   2.230   1.025   4.863 -0.0138  0.1818  0.4699
  114SOPE   C3114940   2.080   0.884   4.778  0.9921  0.3726 -0.1878
  114SOPE   H5814941   2.120   0.783   4.778 -0.5265 -0.2550 -0.9453
  114SOPE   H5914942   2.014   0.885   4.691  2.4129  0.9493 -1.2637
  114SOPE   C3214943   2.007   0.885   4.911  0.2194 -0.6758 -0.2078
  114SOPE   H6014944   2.078   0.912   4.989  0.3626 -1.4179 -0.0754
  114SOPE   H6114945   1.958   0.789   4.925  0.6696 -0.8467  0.1944
  114SOPE   C3314946   1.904   1.000   4.901 -0.3824  0.0724 -0.0422
  114SOPE   H6214947   1.857   1.007   4.803  2.4467 -3.5457 -1.7922
  114SOPE   H6314948   1.962   1.091   4.913  1.4597 -0.9299 -0.9953
  114SOPE   C3414949   1.795   0.977   5.014 -0.1622 -0.3644 -0.1209
  114SOPE   H6414950   1.757   0.878   4.992 -0.2241 -0.3618 -0.0302
  114SOPE   H6514951   1.711   1.046   5.002 -1.1157 -1.1249  1.9067
  114SOPE   C3514952   1.853   0.998   5.157 -0.1563 -0.0634 -1.1697
  114SOPE   H6614953   1.931   1.073   5.142  0.6438 -0.5009  0.6505
  114SOPE   H6714954   1.916   0.918   5.197  1.2037  1.0791 -0.9772
  114SOPE   C3614955   1.750   1.035   5.262  0.2832 -0.3839 -0.5406
  114SOPE   H6814956   1.657   0.987   5.234  0.4041  0.0014 -1.6389
  114SOPE   H6914957   1.727   1.141   5.255 -1.7229 -0.7875 -0.2084
  114SOPE   C3714958   1.795   1.000   5.405 -0.1299 -0.0076  0.1453
  114SOPE   H7014959   1.896   1.027   5.436  0.6739 -0.9161 -1.5768
  114SOPE   H7114960   1.799   0.891   5.405 -1.9500 -0.0847  0.6043
  114SOPE   C3814961   1.697   1.040   5.511  0.7694  0.2623  0.0601
  114SOPE   H7214962   1.594   1.006   5.497  1.3312 -1.6719  0.4604
  114SOPE   H7314963   1.695   1.149   5.508 -0.9981  0.2676  0.5373
  114SOPE   C3914964   1.739   1.005   5.652  0.3137  0.2388 -0.4796
  114SOPE   H7414965   1.749   0.898   5.671  0.5140  0.5780  1.4745
  114SOPE   H7514966   1.660   1.047   5.714  1.9785  3.3927 -0.4255
  114SOPE   C4014967   1.877   1.063   5.695 -0.0820  0.2195 -0.9213
  114SOPE   H7614968   1.899   1.153   5.637 -1.3168  0.1905 -1.4428
  114SOPE   H7714969   1.954   0.997   5.653  0.1333  0.4923 -0.9591
  114SOPE   C4114970   1.874   1.092   5.844  0.4104  0.1468  0.2621
  114SOPE   H7814971   1.787   1.154   5.860  0.0339  0.9067 -4.1057
  114SOPE   H7914972   1.960   1.150   5.876 -0.6394  2.1680 -0.5500
  114SOPE   C4214973   1.870   0.968   5.931 -0.0688 -0.4846 -0.7809
  114SOPE   H8014974   1.963   0.911   5.934 -0.2452 -0.6925  2.2527
  114SOPE   H8114975   1.801   0.898   5.884 -1.0200 -0.5350  0.6681
  114SOPE   C4314976   1.834   0.989   6.076  0.5466  0.1402 -0.3374
  114SOPE   H8214977   1.807   0.887   6.107  1.4872 -0.3002 -0.9642
  114SOPE   H8314978   1.915   1.028   6.137 -0.7389  0.8902  0.9321
  114SOPE   C4414979   1.707   1.077   6.092  0.1620  0.1847 -0.1095
  114SOPE   H8414980   1.735   1.180   6.070 -1.1806  1.2095  2.6875
  114SOPE   H8514981   1.622   1.041   6.034  0.8323 -4.1925  1.4018
  114SOPE   H8614982   1.672   1.075   6.195 -0.6478 -1.5910 -0.4108
  115CHOL    C114983   3.170   5.519   4.661  0.2566 -0.8587  0.1024
  115CHOL   H1114984   3.086   5.587   4.662  0.4534 -0.5897 -0.9698
  115CHOL   H1214985   3.134   5.459   4.744  1.5621 -2.2280 -0.2931
  115CHOL    C214986   3.164   5.455   4.523  1.1608 -0.2070 -0.5635
  115CHOL   H2114987   3.063   5.416   4.512  1.4847 -1.5016  0.8715
  115CHOL   H2214988   3.224   5.364   4.518 -0.1313 -0.9834 -2.3123
  115CHOL    C314989   3.199   5.548   4.409 -0.6528  0.0515 -1.1323
  115CHOL   H3114990   3.138   5.637   4.426  1.4700  1.5023 -0.7737
  115CHOL    O314991   3.167   5.485   4.290 -0.1777  0.7098 -0.5518
  115CHOL    H314992   3.139   5.543   4.221 -0.5733  0.3177 -0.7263
  115CHOL    C414993   3.344   5.607   4.426  0.1528  0.7005  0.3027
  115CHOL   H4114994   3.372   5.670   4.342  0.1043  1.0887  0.5750
  115CHOL   H4214995   3.409   5.521   4.414  0.9864  1.6450 -2.2929
  115CHOL    C514996   3.355   5.677   4.568 -0.0791  0.8535 -0.3192
  115CHOL    C614997   3.407   5.803   4.572 -0.6828 -0.1526 -0.2258
  115CHOL   H6114998   3.436   5.854   4.481 -0.6897 -0.3085 -0.3173
  115CHOL    C714999   3.420   5.884   4.699  0.0823 -0.3604  0.5375
  115CHOL   H7115000   3.355   0.022   4.692  1.3990  0.6480  0.5050
  115CHOL   H7215001   3.522   5.923   4.700  0.0776 -0.3053 -0.7796
  115CHOL    C815002   3.392   5.800   4.824  0.1141 -0.1567  0.1832
  115CHOL   H8115003   3.479   5.734   4.814  0.7320  0.9633 -2.1402
  115CHOL    C915004   3.266   5.713   4.806  0.2456  0.2257  0.7298
  115CHOL   H9115005   3.183   5.769   4.762  2.1227  1.9341 -0.7623
  115CHOL   C1015006   3.298   5.604   4.695 -0.3361  0.3665 -0.1865
  115CHOL   C1115007   3.204   5.644   4.925 -0.5432 -0.2294  0.8157
  115CHOL  H11115008   3.270   5.556   4.928 -1.0574 -0.5768  1.8434
  115CHOL  H11215009   3.099   5.625   4.901  0.2242 -0.2364 -2.9253
  115CHOL   C1215010   3.220   5.716   5.055 -0.2150  0.7686 -0.0821
  115CHOL  H12115011   3.188   5.647   5.133  0.9115 -1.2253 -1.3538
  115CHOL  H12215012   3.155   5.804   5.062 -1.6104 -0.0676 -1.8875
  115CHOL   C1315013   3.363   5.760   5.083 -0.4230 -0.3978  0.4426
  115CHOL   C1415014   3.397   5.866   4.965  0.1412  0.1615 -0.8132
  115CHOL  H14115015   3.312   5.934   4.965  0.9174  1.2531  2.9772
  115CHOL   C1515016   3.523   0.004   5.020 -0.9672 -0.7242  0.1526
  115CHOL  H15115017   3.621   5.924   4.982 -1.1686 -0.6899 -0.3899
  115CHOL  H15215018   3.517   0.107   4.984 -0.3536 -1.4663 -2.1523
  115CHOL   C1615019   3.518   5.944   5.183 -0.2491 -0.3519 -1.1415
  115CHOL  H16115020   3.501   0.094   5.225  1.9870 -0.5011  0.1989
  115CHOL  H16215021   3.619   5.913   5.209  0.5293  1.3610 -2.0090
  115CHOL   C1715022   3.401   5.843   5.223 -0.0809 -0.5563 -0.0495
  115CHOL  H17115023   3.327   5.922   5.231  0.0040 -0.5278  0.4448
  115CHOL   C1815024   3.460   5.642   5.071 -0.3106  0.4358  0.3327
  115CHOL  H18115025   3.565   5.672   5.073  0.9348 -3.4863 -1.1408
  115CHOL  H18215026   3.437   5.558   5.137  0.0520 -0.0744 -0.1839
  115CHOL  H18215027   3.452   5.594   4.974 -0.0303 -1.0191  1.0093
  115CHOL   C1915028   3.408   5.493   4.741 -0.3504 -0.5935  0.4734
  115CHOL  H19115029   3.426   5.415   4.666 -0.1752 -1.9483  1.8956
  115CHOL  H19215030   3.511   5.513   4.773 -0.2968 -2.1255  1.3219
  115CHOL  H19215031   3.380   5.420   4.817 -0.2507 -0.2801  0.8095
  115CHOL   C2015032   3.401   5.757   5.355 -0.1109 -1.1942  0.4103
  115CHOL  H20115033   3.388   5.838   5.427 -3.7975 -0.9132 -0.4834
  115CHOL   C2115034   3.544   5.697   5.377 -0.9634  0.5786 -1.1437
  115CHOL  H21115035   3.631   5.753   5.344 -0.2407  0.7695  1.0495
  115CHOL  H21215036   3.554   5.687   5.485  1.1463  0.6969 -1.3169
  115CHOL  H21215037   3.554   5.594   5.341 -2.1684  0.1388 -0.2723
  115CHOL   C2215038   3.282   5.656   5.364  0.7059 -0.2400  0.4934
  115CHOL  H22115039   3.282   5.563   5.307  0.5888  1.1486 -1.7954
  115CHOL  H22215040   3.221   5.733   5.317 -0.1304  0.6054  2.8483
  115CHOL   C2315041   3.239   5.637   5.510 -0.5675 -0.7420 -0.0753
  115CHOL  H23115042   3.205   5.735   5.542 -0.1501 -0.8708  0.7717
  115CHOL  H23215043   3.319   5.601   5.575 -0.7181 -1.8788 -0.5120
  115CHOL   C2415044   3.125   5.542   5.540 -0.0351  0.9350  0.7300
  115CHOL  H24115045   3.160   5.442   5.516  1.9037  2.0787 -1.4929
  115CHOL  H24215046   3.055   5.569   5.461  2.9141  3.6459 -1.0841
  115CHOL   C2515047   3.082   5.546   5.691 -0.4257  0.1832 -0.3647
  115CHOL  H25115048   3.025   5.638   5.699 -1.5277 -0.5061 -0.2375
  115CHOL   C2615049   3.196   5.551   5.791 -0.3742  0.9905 -0.6855
  115CHOL  H26115050   3.160   5.556   5.894  0.3445 -0.6220 -0.3333
  115CHOL  H26215051   3.246   5.454   5.786 -0.9942  0.6094  0.3687
  115CHOL  H26215052   3.256   5.642   5.782  1.6406 -0.3967 -1.7948
  115CHOL   C2715053   2.977   5.437   5.715 -0.2864  0.4128  0.3070
  115CHOL  H27115054   2.917   5.454   5.805  0.9673  2.9895  0.7088
  115CHOL  H27215055   2.917   5.417   5.626  0.7009  0.2452 -0.3315
  115CHOL  H27215056   3.030   5.342   5.726 -2.3504 -0.7337  0.7125
  116CHOL    C115057   3.288   1.456   4.628  0.3112  0.0847 -0.0434
  116CHOL   H1115058   3.191   1.485   4.670  0.4562 -2.8385  2.4427
  116CHOL   H1215059   3.314   1.356   4.660 -0.9241 -0.0216  0.6522
  116CHOL    C215060   3.270   1.455   4.473 -0.1866 -0.1898 -0.0142
  116CHOL   H2115061   3.197   1.382   4.437  0.0164 -0.0816 -0.6571
  116CHOL   H2215062   3.367   1.436   4.428 -0.3156 -1.2119  0.1239
  116CHOL    C315063   3.241   1.598   4.431 -0.7339  0.1476  0.7881
  116CHOL   H3115064   3.158   1.644   4.484 -1.1499 -0.8049  0.9679
  116CHOL    O315065   3.213   1.597   4.296 -0.4216  1.0205 -0.0581
  116CHOL    H315066   3.121   1.577   4.284 -0.2023 -0.3138  0.4229
  116CHOL    C415067   3.360   1.687   4.455  0.5673 -0.6819  0.4901
  116CHOL   H4115068   3.349   1.788   4.416  3.8628 -0.1943  0.6457
  116CHOL   H4215069   3.449   1.638   4.414 -0.5448 -0.3666 -2.3463
  116CHOL    C515070   3.381   1.686   4.606  0.1281 -0.2583 -0.3371
  116CHOL    C615071   3.391   1.804   4.663 -0.0989  0.1916  0.4891
  116CHOL   H6115072   3.361   1.894   4.612 -1.4997 -0.5356  0.0086
  116CHOL    C715073   3.414   1.829   4.810  0.3221  0.1955  0.8906
  116CHOL   H7115074   3.317   1.859   4.850 -0.6896 -1.0678 -0.5772
  116CHOL   H7215075   3.494   1.903   4.815  0.5823 -0.1597  2.1544
  116CHOL    C815076   3.457   1.694   4.884 -0.5287  0.4974  0.4036
  116CHOL   H8115077   3.563   1.679   4.867 -0.8420 -0.3043 -0.9206
  116CHOL    C915078   3.377   1.575   4.825  0.9531  0.5577  0.3761
  116CHOL   H9115079   3.271   1.587   4.846  1.1551 -1.3689  2.6213
  116CHOL   C1015080   3.403   1.547   4.676  0.5178 -0.1688 -0.3548
  116CHOL   C1115081   3.392   1.447   4.914  0.1229 -0.0659  0.0962
  116CHOL  H11115082   3.483   1.393   4.889  1.6541  3.7964 -3.2813
  116CHOL  H11215083   3.311   1.377   4.895 -0.8806  0.7867  1.1455
  116CHOL   C1215084   3.391   1.464   5.067 -0.1242  0.0643  0.1785
  116CHOL  H12115085   3.414   1.362   5.098  0.7162 -0.9675 -3.5786
  116CHOL  H12215086   3.291   1.481   5.106  0.7139 -2.0062  3.4102
  116CHOL   C1315087   3.490   1.573   5.112 -1.1692 -0.0950  0.1508
  116CHOL   C1415088   3.434   1.706   5.036 -0.1396 -0.1702  0.3445
  116CHOL  H14115089   3.327   1.712   5.052 -0.2591 -3.5225  1.1026
  116CHOL   C1515090   3.488   1.832   5.119 -0.2417  0.0141 -0.6349
  116CHOL  H15115091   3.427   1.922   5.117 -0.9483 -0.3178  2.4285
  116CHOL  H15215092   3.575   1.871   5.066 -0.0587  0.0135 -0.3403
  116CHOL   C1615093   3.513   1.778   5.270 -0.1143 -0.1445 -0.2456
  116CHOL  H16115094   3.443   1.807   5.349 -1.3165 -2.0822 -0.5818
  116CHOL  H16215095   3.614   1.801   5.306  0.1883 -2.1619  0.2652
  116CHOL   C1715096   3.499   1.617   5.266 -0.2293  0.1876  0.2493
  116CHOL  H17115097   3.396   1.627   5.298 -0.7075  1.1148 -1.5384
  116CHOL   C1815098   3.638   1.536   5.070 -0.7751  0.2703  0.2715
  116CHOL  H18115099   3.679   1.441   5.105  0.1165 -0.0137 -1.5025
  116CHOL  H18215100   3.660   1.529   4.964 -2.5913 -1.7488  0.0028
  116CHOL  H18215101   3.707   1.618   5.092 -1.7081  1.3912 -0.9731
  116CHOL   C1915102   3.551   1.484   4.658 -0.2703  0.4937 -0.3594
  116CHOL  H19115103   3.582   1.494   4.554 -2.1403 -0.4358 -1.0458
  116CHOL  H19215104   3.636   1.532   4.706 -0.0512 -1.2806  1.0756
  116CHOL  H19215105   3.595   1.385   4.674 -0.5787  0.2522 -0.9709
  116CHOL   C2015106   3.572   1.519   5.358  0.4766 -0.0260  0.2979
  116CHOL  H20115107   3.527   1.544   5.454  0.6751  1.4755  0.0087
  116CHOL   C2115108   3.721   1.554   5.381  0.1070  0.6663 -0.0721
  116CHOL  H21115109   3.786   1.546   5.294 -1.4163  0.1773 -1.1811
  116CHOL  H21215110   3.730   1.660   5.404 -1.7345  1.0904 -1.1528
  116CHOL  H21215111   3.764   1.487   5.455  0.2667  0.8101 -0.0346
  116CHOL   C2215112   3.549   1.364   5.327 -0.2934 -0.3384 -0.3146
  116CHOL  H22115113   3.620   1.338   5.406  0.8145  0.3707 -1.0704
  116CHOL  H22215114   3.598   1.317   5.242  1.6104  1.1176 -0.0588
  116CHOL   C2315115   3.415   1.300   5.363  0.3620 -0.1507  0.8351
  116CHOL  H23115116   3.400   1.213   5.298  0.5313  2.6941 -3.2045
  116CHOL  H23215117   3.341   1.379   5.351 -0.2572 -0.6062  1.5591
  116CHOL   C2415118   3.406   1.268   5.517  0.4029 -0.7573 -0.0966
  116CHOL  H24115119   3.399   1.363   5.569  1.2797 -1.0922  0.6512
  116CHOL  H24215120   3.498   1.220   5.551  1.7320 -0.1026 -2.6685
  116CHOL   C2515121   3.294   1.170   5.556 -0.5684  0.9416  0.8328
  116CHOL  H25115122   3.202   1.218   5.525 -0.0801  2.0242  1.0276
  116CHOL   C2615123   3.275   1.170   5.702 -0.5962  0.1000  0.3596
  116CHOL  H26115124   3.216   1.260   5.721 -1.7245 -0.7094  0.7587
  116CHOL  H26215125   3.220   1.086   5.744  0.2083 -1.2301 -1.1868
  116CHOL  H26215126   3.372   1.168   5.752  0.1408 -2.1815 -1.0703
  116CHOL   C2715127   3.299   1.029   5.491 -0.8551 -0.6715 -0.9826
  116CHOL  H27115128   3.268   1.030   5.387  1.0155 -0.3793 -1.5605
  116CHOL  H27215129   3.400   0.991   5.509 -0.5144 -0.8068 -3.1138
  116CHOL  H27215130   3.219   0.984   5.549 -0.4229  0.5861  0.6633
  117CHOL    C115131   3.429   2.281   4.749 -0.0649 -0.0116 -0.0416
  117CHOL   H1115132   3.429   2.172   4.756 -2.4423  0.0282  0.9741
  117CHOL   H1215133   3.517   2.317   4.802 -0.0560  0.2967 -0.2601
  117CHOL    C215134   3.453   2.323   4.599  0.0386 -0.2532 -0.5107
  117CHOL   H2115135   3.546   2.278   4.563  0.6565  0.2813  0.3877
  117CHOL   H2215136   3.469   2.430   4.595 -0.1164 -0.1948  0.4090
  117CHOL    C315137   3.339   2.273   4.519 -0.2563 -0.3565 -0.1909
  117CHOL   H3115138   3.326   2.166   4.535  0.4566 -0.1703  1.7946
  117CHOL    O315139   3.369   2.299   4.377  0.8290  0.1050  0.1180
  117CHOL    H315140   3.327   2.230   4.329 -0.0599  0.8020 -0.1226
  117CHOL    C415141   3.210   2.348   4.558  0.2305  0.0172  0.4345
  117CHOL   H4115142   3.126   2.298   4.510  0.4476 -0.3656  0.4435
  117CHOL   H4215143   3.208   2.455   4.540 -1.5413 -0.0399  0.2374
  117CHOL    C515144   3.194   2.344   4.712  0.0421  0.1728  0.1907
  117CHOL    C615145   3.064   2.314   4.750  0.8912  0.9941 -0.4740
  117CHOL   H6115146   2.988   2.300   4.674 -0.2397 -1.3403  1.0301
  117CHOL    C715147   3.019   2.286   4.894 -0.6651 -0.8908 -0.8133
  117CHOL   H7115148   2.993   2.181   4.908 -1.0662 -0.7813 -0.7189
  117CHOL   H7215149   2.923   2.337   4.889 -0.8434 -0.8534  2.1525
  117CHOL    C815150   3.129   2.332   4.995  0.1286 -0.1653  0.1893
  117CHOL   H8115151   3.125   2.440   4.977  1.9376 -0.2251 -0.7425
  117CHOL    C915152   3.268   2.281   4.946  0.2853  0.5259 -0.2043
  117CHOL   H9115153   3.245   2.177   4.921  3.1910 -0.3003  0.3578
  117CHOL   C1015154   3.309   2.347   4.811 -0.1820  0.1989  0.0545
  117CHOL   C1115155   3.387   2.251   5.047 -0.1925  1.1293  0.0582
  117CHOL  H11115156   3.444   2.344   5.045  1.4942  0.1069 -1.4084
  117CHOL  H11215157   3.451   2.174   5.004 -0.7436  1.3986 -1.3004
  117CHOL   C1215158   3.349   2.219   5.191 -0.5170  0.0827 -0.4508
  117CHOL  H12115159   3.444   2.228   5.243 -0.0327 -1.8163 -0.9552
  117CHOL  H12215160   3.315   2.115   5.196  2.2181 -0.9442 -2.1899
  117CHOL   C1315161   3.237   2.325   5.236 -0.4364 -0.1013 -0.8467
  117CHOL   C1415162   3.111   2.291   5.143 -0.3809 -0.1284 -0.0866
  117CHOL  H14115163   3.093   2.183   5.142 -2.3887  0.1745  0.6543
  117CHOL   C1515164   2.984   2.331   5.226 -0.5375  0.0476  0.5551
  117CHOL  H15115165   2.957   2.434   5.203 -0.0086  0.2035  0.6331
  117CHOL  H15215166   2.900   2.266   5.201 -1.6203  2.4224 -2.2664
  117CHOL   C1615167   3.032   2.295   5.384  0.0369 -0.3461 -0.3265
  117CHOL  H16115168   2.985   2.201   5.412  0.9727 -0.4847  0.8278
  117CHOL  H16215169   2.991   2.378   5.443 -0.7032 -0.8470 -0.1288
  117CHOL   C1715170   3.194   2.305   5.382 -0.1808 -0.2512  0.7503
  117CHOL  H17115171   3.168   2.200   5.397 -1.1763 -0.3005 -1.1193
  117CHOL   C1815172   3.282   2.468   5.229 -0.0714  0.3873 -0.1463
  117CHOL  H18115173   3.379   2.472   5.279 -0.4261  0.5436  0.5278
  117CHOL  H18215174   3.297   2.489   5.123 -1.8965 -0.4413 -0.5854
  117CHOL  H18215175   3.214   2.547   5.260  0.3858  1.5422 -2.0036
  117CHOL   C1915176   3.347   2.507   4.840 -0.9752 -0.1445  0.4143
  117CHOL  H19115177   3.289   2.579   4.898 -0.6258 -0.1571  0.7787
  117CHOL  H19215178   3.438   2.539   4.890 -0.3625 -2.4647  0.8108
  117CHOL  H19215179   3.372   2.575   4.758 -1.8632 -0.2499  0.0450
  117CHOL   C2015180   3.283   2.370   5.496  0.3591 -0.0092 -0.6311
  117CHOL  H20115181   3.244   2.320   5.584  1.8217  1.9025  1.1435
  117CHOL   C2115182   3.247   2.516   5.531  0.5050 -0.4661  0.1882
  117CHOL  H21115183   3.141   2.515   5.556 -0.0309  1.9584 -1.7437
  117CHOL  H21215184   3.295   2.547   5.623  1.2318  1.3208 -0.7647
  117CHOL  H21215185   3.263   2.593   5.454 -2.1230  0.5721  0.6288
  117CHOL   C2215186   3.437   2.334   5.483 -0.0966 -0.1153 -0.3716
  117CHOL  H22115187   3.441   2.401   5.570  2.5525 -0.1912 -0.4175
  117CHOL  H22215188   3.497   2.382   5.407  0.3118  0.1082  0.0913
  117CHOL   C2315189   3.505   2.204   5.518  0.4190 -0.6383 -0.0765
  117CHOL  H23115190   3.516   2.141   5.430 -1.6029  0.6288 -1.2810
  117CHOL  H23215191   3.438   2.152   5.587 -0.4791  0.1841 -0.3218
  117CHOL   C2415192   3.643   2.220   5.589 -0.4269  0.1103 -0.6215
  117CHOL  H24115193   3.635   2.298   5.665  0.3074 -0.3563 -0.0540
  117CHOL  H24215194   3.717   2.247   5.513  1.3060  0.3153  1.0898
  117CHOL   C2515195   3.691   2.079   5.656 -0.1055  0.8753 -0.5056
  117CHOL  H25115196   3.607   2.044   5.716 -0.6917  0.2731 -1.6723
  117CHOL   C2615197   3.809   2.112   5.749  0.3497 -0.0014 -0.5953
  117CHOL  H26115198   3.800   2.191   5.824 -1.8201 -2.5850  2.0006
  117CHOL  H26215199   3.830   2.022   5.806  0.7032  1.0260  0.9320
  117CHOL  H26215200   3.895   2.143   5.690 -0.5807  1.0336 -1.4379
  117CHOL   C2715201   3.720   1.973   5.541  0.3559 -0.0170  0.5622
  117CHOL  H27115202   3.738   1.871   5.572  1.0485 -0.2428 -0.5350
  117CHOL  H27215203   3.636   1.970   5.471  1.0072  0.6615 -0.2676
  117CHOL  H27215204   3.809   2.011   5.490 -1.9770  1.2451 -2.7730
  118CHOL    C115205   2.788   3.177   4.763 -0.5244  0.1857  0.8337
  118CHOL   H1115206   2.815   3.073   4.782 -0.7947  0.0872  0.6815
  118CHOL   H1215207   2.886   3.223   4.748 -1.0621  0.8071 -0.9951
  118CHOL    C215208   2.706   3.177   4.627 -0.4818  0.0168  0.4671
  118CHOL   H2115209   2.756   3.143   4.535 -0.1307 -1.5947  1.2260
  118CHOL   H2215210   2.684   3.275   4.586 -1.9951 -1.3558 -2.1629
  118CHOL    C315211   2.575   3.101   4.636 -0.1827 -0.0832 -0.6167
  118CHOL   H3115212   2.605   2.998   4.654 -0.4741  0.3391  2.5234
  118CHOL    O315213   2.493   3.099   4.519  0.6672 -0.0969 -0.1168
  118CHOL    H315214   2.469   3.007   4.513  1.2846 -0.1128 -3.0146
  118CHOL    C415215   2.486   3.148   4.751 -0.2893  0.2400 -0.3068
  118CHOL   H4115216   2.405   3.076   4.763  1.2705 -1.5405 -0.1959
  118CHOL   H4215217   2.449   3.247   4.726  0.9133  0.7447 -0.0888
  118CHOL    C515218   2.567   3.158   4.887 -0.0765 -0.1553 -0.3711
  118CHOL    C615219   2.516   3.094   4.996 -0.0234  0.0990  0.3386
  118CHOL   H6115220   2.424   3.037   4.991 -0.4417  0.0297  5.7997
  118CHOL    C715221   2.583   3.095   5.131 -0.2176  0.3284 -0.7282
  118CHOL   H7115222   2.638   3.001   5.143  2.2783  2.0157  1.5899
  118CHOL   H7215223   2.502   3.102   5.204  1.4560  0.3929  1.1679
  118CHOL    C815224   2.688   3.214   5.142  0.0917  0.9341 -0.5870
  118CHOL   H8115225   2.623   3.301   5.154 -0.9059 -0.1453  2.3980
  118CHOL    C915226   2.784   3.206   5.017  0.2472 -0.5182  0.4218
  118CHOL   H9115227   2.820   3.103   5.013  1.6893 -0.0145  0.0918
  118CHOL   C1015228   2.707   3.234   4.889  0.0140 -0.0985 -0.2628
  118CHOL   C1115229   2.905   3.297   5.031  0.2046  0.5273  0.0067
  118CHOL  H11115230   2.894   3.403   5.012 -0.5617  0.8262  1.9501
  118CHOL  H11215231   2.969   3.266   4.949  0.9895 -0.1732  0.8732
  118CHOL   C1215232   2.969   3.290   5.170  0.2278 -0.0780  0.2555
  118CHOL  H12115233   3.044   3.366   5.153 -0.6899  0.2419 -2.5019
  118CHOL  H12215234   3.018   3.192   5.175 -2.8810 -1.8827 -2.4060
  118CHOL   C1315235   2.872   3.330   5.284  0.2269  0.1356  0.0438
  118CHOL   C1415236   2.766   3.207   5.273 -0.5505 -0.3855 -0.0619
  118CHOL  H14115237   2.827   3.116   5.272 -0.1593 -0.1314  0.4850
  118CHOL   C1515238   2.699   3.194   5.414 -0.5762 -0.1692 -0.4982
  118CHOL  H15115239   2.671   3.091   5.435 -2.5607 -0.4307 -4.0146
  118CHOL  H15215240   2.604   3.246   5.427 -0.6838 -0.2837 -0.8184
  118CHOL   C1615241   2.814   3.243   5.519 -0.1885 -0.3940  0.0621
  118CHOL  H16115242   2.859   3.159   5.571 -0.0383 -0.4439 -0.1481
  118CHOL  H16215243   2.765   3.300   5.598  1.8056  2.1013 -0.4313
  118CHOL   C1715244   2.925   3.335   5.442  0.5302 -0.0003  0.1409
  118CHOL  H17115245   2.988   3.247   5.446  0.3767 -0.0257  2.5435
  118CHOL   C1815246   2.805   3.467   5.255 -0.2365  0.0091  0.5890
  118CHOL  H18115247   2.740   3.476   5.167  2.1692  1.4217 -1.0982
  118CHOL  H18215248   2.739   3.491   5.339 -0.3451 -1.5525  0.9700
  118CHOL  H18215249   2.876   3.549   5.251 -0.9185  0.5567 -0.7354
  118CHOL   C1915250   2.675   3.390   4.876 -0.1277  0.2561  0.4894
  118CHOL  H19115251   2.766   3.441   4.843  0.0199  0.2122  0.8219
  118CHOL  H19215252   2.603   3.437   4.808  1.0574 -0.9605 -1.6416
  118CHOL  H19215253   2.661   3.448   4.968  0.4474 -1.3715  1.6249
  118CHOL   C2015254   3.004   3.453   5.488  0.7004 -0.5486 -0.2701
  118CHOL  H20115255   3.064   3.412   5.569  2.9671  1.9363 -0.5964
  118CHOL   C2115256   2.921   3.574   5.534 -0.3709 -0.0318  0.0698
  118CHOL  H21115257   2.874   3.630   5.454 -0.6856  0.0988  0.3459
  118CHOL  H21215258   2.829   3.542   5.583 -0.5555  0.6731  0.1795
  118CHOL  H21215259   2.974   3.646   5.597 -0.1680 -1.3547  1.4555
  118CHOL   C2215260   3.113   3.501   5.388  0.1529 -0.8452 -0.4401
  118CHOL  H22115261   3.082   3.547   5.294 -1.7236  0.4728  0.7958
  118CHOL  H22215262   3.150   3.407   5.347 -1.0121 -0.3858 -2.6514
  118CHOL   C2315263   3.230   3.576   5.451 -0.3661 -0.1665 -0.4317
  118CHOL  H23115264   3.251   3.517   5.540 -2.0591  0.1661  0.1949
  118CHOL  H23215265   3.195   3.672   5.487  1.4994  0.1800  0.5406
  118CHOL   C2415266   3.360   3.584   5.371 -0.6908  0.2590  0.0534
  118CHOL  H24115267   3.337   3.659   5.296  0.8265  0.3249 -0.3600
  118CHOL  H24215268   3.381   3.491   5.319  0.0882  0.5301 -0.1109
  118CHOL   C2515269   3.485   3.636   5.451  0.0628 -0.3041  0.1864
  118CHOL  H25115270   3.509   3.559   5.524  0.0488 -0.2996  0.1960
  118CHOL   C2615271   3.458   3.762   5.543  0.6853  0.3871 -0.6759
  118CHOL  H26115272   3.548   3.791   5.598  1.4198  1.6609 -2.5218
  118CHOL  H26215273   3.437   3.846   5.478  0.8569  1.3289  0.4645
  118CHOL  H26215274   3.370   3.749   5.606  1.0317  0.7041 -0.1210
  118CHOL   C2715275   3.595   3.661   5.357 -0.3510 -0.1802  0.1821
  118CHOL  H27115276   3.585   3.761   5.315 -0.1800  0.1736  0.9678
  118CHOL  H27215277   3.686   3.652   5.417 -1.0636 -3.2590  0.8814
  118CHOL  H27215278   3.595   3.589   5.275 -3.7933 -0.1560  0.0761
  119CHOL    C115279   1.902   3.169   4.912  0.1920  0.9345  0.3872
  119CHOL   H1115280   1.853   3.266   4.912 -1.0276  0.3263  1.5350
  119CHOL   H1215281   1.835   3.109   4.972 -1.4605  2.1188 -0.2343
  119CHOL    C215282   1.901   3.124   4.764 -0.5005 -0.1202  0.1360
  119CHOL   H2115283   1.802   3.133   4.720 -0.4874  0.4230  0.2028
  119CHOL   H2215284   1.922   3.018   4.755 -0.3353 -0.0559 -0.2837
  119CHOL    C315285   2.000   3.207   4.679 -0.0145  0.3992 -0.6598
  119CHOL   H3115286   1.963   3.308   4.695  3.1450  1.2815  1.7498
  119CHOL    O315287   2.004   3.159   4.546 -0.2059  0.1281  0.1812
  119CHOL    H315288   1.916   3.171   4.513  0.3549 -0.8905 -1.7858
  119CHOL    C415289   2.143   3.191   4.739  0.6423  0.7764 -0.0263
  119CHOL   H4115290   2.222   3.251   4.693  0.6465  0.7162 -0.0981
  119CHOL   H4215291   2.162   3.085   4.725  0.3136  1.0483 -2.7337
  119CHOL    C515292   2.142   3.227   4.885  0.5827 -0.0039 -0.2204
  119CHOL    C615293   2.230   3.324   4.932  0.3442 -0.4890  0.0329
  119CHOL   H6115294   2.288   3.373   4.856 -0.9486  1.1261  0.0604
  119CHOL    C715295   2.263   3.357   5.076 -0.5217 -0.0389 -0.1512
  119CHOL   H7115296   2.222   3.452   5.110  0.6803 -0.6554  3.3177
  119CHOL   H7215297   2.370   3.348   5.094 -0.0437  3.8434 -0.4860
  119CHOL    C815298   2.186   3.258   5.168  0.5393 -0.1447  0.1508
  119CHOL   H8115299   2.247   3.168   5.160  0.1227 -0.3155 -1.1865
  119CHOL    C915300   2.037   3.215   5.121 -0.4829  0.3048 -0.8882
  119CHOL   H9115301   1.991   3.313   5.105 -0.0211  0.8207  0.8582
  119CHOL   C1015302   2.044   3.151   4.983  0.5226 -0.0643  0.4736
  119CHOL   C1115303   1.950   3.132   5.221  0.4795  0.7709  0.2509
  119CHOL  H11115304   1.967   3.024   5.223 -0.0462  0.6295 -1.9362
  119CHOL  H11215305   1.847   3.156   5.195  0.9578  3.0986  0.3614
  119CHOL   C1215306   1.971   3.180   5.362 -0.5267 -0.7660  0.3128
  119CHOL  H12115307   1.918   3.098   5.410  0.5507 -1.5765  0.1189
  119CHOL  H12215308   1.912   3.271   5.375  1.4719  0.3521  1.8864
  119CHOL   C1315309   2.123   3.188   5.409 -0.5449 -0.2672  0.0844
  119CHOL   C1415310   2.176   3.302   5.308 -0.0437  0.1923 -0.0110
  119CHOL  H14115311   2.107   3.386   5.309 -2.2237 -1.5506 -1.1872
  119CHOL   C1515312   2.304   3.368   5.383  0.5577  0.9088 -0.1609
  119CHOL  H15115313   2.329   3.473   5.369 -2.1157  1.4550 -1.0981
  119CHOL  H15215314   2.396   3.316   5.356  0.5422  1.2170 -0.8287
  119CHOL   C1615315   2.280   3.344   5.537  0.2612 -0.2922 -0.5027
  119CHOL  H16115316   2.274   3.432   5.602 -0.7129 -0.1620 -0.7690
  119CHOL  H16215317   2.376   3.306   5.572  0.0478 -0.5880 -0.2379
  119CHOL   C1715318   2.160   3.247   5.557 -0.2898 -0.2025  0.6536
  119CHOL  H17115319   2.103   3.337   5.581 -1.4510 -0.7582  0.0187
  119CHOL   C1815320   2.214   3.065   5.382 -0.4085 -0.3409  0.4263
  119CHOL  H18115321   2.314   3.091   5.346 -1.4597  2.0938 -0.8403
  119CHOL  H18215322   2.232   3.006   5.471 -0.8114  0.8539  1.3154
  119CHOL  H18215323   2.182   2.995   5.305  1.7541  0.0673 -0.9123
  119CHOL   C1915324   2.083   2.990   4.988  0.1995 -0.0991  0.7234
  119CHOL  H19115325   1.997   2.929   5.016 -0.3733  1.0690  1.5030
  119CHOL  H19215326   2.104   2.930   4.899 -0.0210  0.3477  0.3676
  119CHOL  H19215327   2.169   2.963   5.049 -0.3619 -0.7151  1.2496
  119CHOL   C2015328   2.133   3.157   5.679  0.5864 -0.0085 -0.1252
  119CHOL  H20115329   2.102   3.216   5.765 -1.7232 -2.4918  0.8340
  119CHOL   C2115330   2.263   3.089   5.727  0.2600  1.0548  0.7313
  119CHOL  H21115331   2.331   3.157   5.780 -0.3740  3.8725 -1.9101
  119CHOL  H21215332   2.232   3.019   5.804 -1.7218  1.8292  0.6557
  119CHOL  H21215333   2.334   3.059   5.650 -0.4083  0.1361  0.4674
  119CHOL   C2215334   2.017   3.057   5.646  0.9948  0.3060  0.0853
  119CHOL  H22115335   2.032   2.998   5.555  0.5114 -0.6429  0.6142
  119CHOL  H22215336   1.950   3.141   5.627 -0.2925 -0.5084  0.9495
  119CHOL   C2315337   1.958   2.957   5.750  0.0203  0.6065  0.0754
  119CHOL  H23115338   1.959   3.009   5.845  2.1237 -0.0015  0.4208
  119CHOL  H23215339   2.035   2.882   5.764  0.7261  1.6382  1.9319
  119CHOL   C2415340   1.825   2.896   5.709  0.2878 -0.1644  0.2723
  119CHOL  H24115341   1.822   2.843   5.614 -0.7058  0.9013 -0.3027
  119CHOL  H24215342   1.759   2.982   5.719  0.7176 -0.0679  2.6561
  119CHOL   C2515343   1.767   2.792   5.806  0.3507  0.1442  0.4633
  119CHOL  H25115344   1.766   2.824   5.911  1.0392 -0.7747  0.7487
  119CHOL   C2615345   1.851   2.662   5.795 -0.2110 -0.3881 -0.8321
  119CHOL  H26115346   1.950   2.684   5.835  0.2954 -2.5305 -0.8436
  119CHOL  H26215347   1.806   2.576   5.845 -0.7576  1.7203  2.4603
  119CHOL  H26215348   1.861   2.635   5.690 -1.6860  1.5571 -1.5028
  119CHOL   C2715349   1.617   2.764   5.764 -0.7513  0.3129  0.7917
  119CHOL  H27115350   1.578   2.680   5.821 -0.3301 -0.9359 -0.7386
  119CHOL  H27215351   1.561   2.855   5.787 -1.5904  0.1129 -0.3781
  119CHOL  H27215352   1.616   2.757   5.655  0.4093 -1.0447  0.8462
  120CHOL    C115353   2.520   5.192   4.710  0.0100  0.0791  0.1471
  120CHOL   H1115354   2.499   5.295   4.683  1.3372 -0.0882 -1.5604
  120CHOL   H1215355   2.425   5.158   4.753  0.7018 -0.3168  1.3875
  120CHOL    C215356   2.528   5.125   4.576 -0.7352  0.8590  0.2916
  120CHOL   H2115357   2.437   5.134   4.516  0.3552 -3.7936 -2.3681
  120CHOL   H2215358   2.524   5.019   4.598 -1.1490  1.1481  1.6326
  120CHOL    C315359   2.659   5.162   4.500  0.2949 -0.3991  0.0074
  120CHOL   H3115360   2.652   5.270   4.487  1.8525 -0.2415  0.4241
  120CHOL    O315361   2.671   5.078   4.389 -0.0008 -0.0996 -0.4353
  120CHOL    H315362   2.728   5.132   4.337  0.1448  0.3307  0.1687
  120CHOL    C415363   2.780   5.137   4.587  0.2656  0.5139  0.7942
  120CHOL   H4115364   2.870   5.170   4.536 -0.9874  1.5279 -0.8255
  120CHOL   H4215365   2.801   5.037   4.626  0.7378  0.3498  0.1321
  120CHOL    C515366   2.766   5.205   4.722  0.6182 -0.0124 -0.2602
  120CHOL    C615367   2.850   5.304   4.758  0.1094 -0.8845 -1.1815
  120CHOL   H6115368   2.926   5.334   4.688 -0.6929  1.1816 -1.2061
  120CHOL    C715369   2.845   5.386   4.885 -0.3869 -0.3022 -0.5708
  120CHOL   H7115370   2.824   5.490   4.863 -1.1858 -0.2613  0.3220
  120CHOL   H7215371   2.946   5.375   4.926 -0.0334  0.2403 -1.2918
  120CHOL    C815372   2.752   5.318   4.985  0.0311  0.2997  0.6218
  120CHOL   H8115373   2.817   5.240   5.026 -0.5895 -1.4427 -1.5717
  120CHOL    C915374   2.619   5.273   4.923  0.3555  0.0218 -0.5533
  120CHOL   H9115375   2.573   5.362   4.881 -1.0669 -1.1908 -1.6160
  120CHOL   C1015376   2.640   5.174   4.809  0.3854 -0.0624 -0.0746
  120CHOL   C1115377   2.500   5.237   5.015 -0.3587 -0.3567  0.2347
  120CHOL  H11115378   2.496   5.130   5.036 -2.8395  0.0251  1.8986
  120CHOL  H11215379   2.403   5.253   4.969 -0.5871 -0.1427  0.7855
  120CHOL   C1215380   2.492   5.314   5.147 -0.1339  0.3952  0.2605
  120CHOL  H12115381   2.412   5.281   5.214  1.5181  1.3235  2.7492
  120CHOL  H12215382   2.452   5.413   5.124 -1.1230 -0.6378 -2.6918
  120CHOL   C1315383   2.633   5.315   5.219  1.0280  0.2227  0.8661
  120CHOL   C1415384   2.722   5.398   5.111 -0.3672 -0.2295  0.1172
  120CHOL  H14115385   2.658   5.472   5.063 -0.7951  0.1020  1.2046
  120CHOL   C1515386   2.837   5.469   5.195 -0.1038  0.2581 -0.1035
  120CHOL  H15115387   2.856   5.569   5.158  0.2470  0.6436  1.0902
  120CHOL  H15215388   2.933   5.417   5.188  0.9414  2.1200  0.2078
  120CHOL   C1615389   2.784   5.482   5.347  0.5699  0.4466 -0.3944
  120CHOL  H16115390   2.796   5.583   5.384 -0.5347  0.6143 -0.4875
  120CHOL  H16215391   2.851   5.426   5.413 -1.3009 -0.5262  0.7106
  120CHOL   C1715392   2.642   5.402   5.348 -0.0668  0.3046 -0.5672
  120CHOL  H17115393   2.624   5.502   5.310  1.1681  1.1612  1.0652
  120CHOL   C1815394   2.703   5.176   5.237  0.5250  0.1295 -0.5225
  120CHOL  H18115395   2.703   5.120   5.144  1.2763  1.5602 -1.3958
  120CHOL  H18215396   2.807   5.179   5.270 -0.1156  1.1126  1.4824
  120CHOL  H18215397   2.679   5.105   5.316 -2.0813  0.9396 -0.5620
  120CHOL   C1915398   2.657   5.020   4.872 -0.4869  0.3045  0.3330
  120CHOL  H19115399   2.738   4.992   4.939  0.8977 -1.0270 -1.8203
  120CHOL  H19215400   2.569   4.977   4.918  0.0007 -0.6371  0.3918
  120CHOL  H19215401   2.662   4.936   4.802  0.5930 -0.3547  1.1874
  120CHOL   C2015402   2.537   5.379   5.461 -0.4315  0.9178  0.6488
  120CHOL  H20115403   2.435   5.410   5.438 -0.0700  0.1481 -2.1479
  120CHOL   C2115404   2.590   5.451   5.590 -0.0488  0.6462 -0.6149
  120CHOL  H21115405   2.626   5.550   5.562 -0.1025  0.3226 -1.8805
  120CHOL  H21215406   2.506   5.463   5.658 -1.4770 -0.2908 -2.1742
  120CHOL  H21215407   2.663   5.384   5.636  0.6399  0.7299 -1.5732
  120CHOL   C2215408   2.526   5.226   5.487  0.3359  0.5814 -0.1763
  120CHOL  H22115409   2.625   5.195   5.519 -0.4656 -0.6703  1.1391
  120CHOL  H22215410   2.514   5.179   5.390 -0.2456  2.3381 -0.9731
  120CHOL   C2315411   2.439   5.154   5.584 -1.0032  0.8009 -0.3890
  120CHOL  H23115412   2.341   5.199   5.568 -2.1699 -1.0795  1.2307
  120CHOL  H23215413   2.457   5.188   5.686  0.5570 -0.6432 -0.1608
  120CHOL   C2415414   2.449   5.001   5.561 -0.6251  0.6368 -0.6397
  120CHOL  H24115415   2.536   4.950   5.603 -0.6223 -1.0268 -2.5539
  120CHOL  H24215416   2.453   4.981   5.454  1.9100 -1.2731 -0.2398
  120CHOL   C2515417   2.320   4.939   5.614  0.1307 -0.4755  0.4341
  120CHOL  H25115418   2.292   4.993   5.704  2.0348 -0.1013  0.8353
  120CHOL   C2615419   2.332   4.788   5.633 -0.7657  0.2295  0.7241
  120CHOL  H26115420   2.389   4.765   5.723  1.9984  1.6755 -0.5753
  120CHOL  H26215421   2.237   4.735   5.630 -1.0447  0.7689 -0.8998
  120CHOL  H26215422   2.389   4.754   5.546 -0.4669  2.4435  0.0085
  120CHOL   C2715423   2.210   4.962   5.509  0.3069  0.1161 -0.1984
  120CHOL  H27115424   2.170   5.062   5.492  0.3165  0.1407 -0.0847
  120CHOL  H27215425   2.245   4.924   5.413 -2.9217 -0.4697 -1.2112
  120CHOL  H27215426   2.124   4.899   5.530  0.0833  0.4283 -0.1797
  121CHOL    C115427   5.733   3.332   4.592 -0.0629 -0.6281 -0.6713
  121CHOL   H1115428   5.649   3.307   4.528  1.2369  1.7458 -3.4071
  121CHOL   H1215429   5.732   3.261   4.676  0.9940  0.0277 -0.0896
  121CHOL    C215430   5.853   3.299   4.504  0.0456  0.0945  0.2675
  121CHOL   H2115431   5.865   3.194   4.477 -0.1082 -0.0909  0.9021
  121CHOL   H2215432   5.943   3.322   4.561  1.5020  1.2119 -2.4010
  121CHOL    C315433   5.858   3.398   4.378  0.0171 -0.3241 -0.4907
  121CHOL   H3115434   5.756   3.388   4.339 -0.0920  0.4127 -0.3995
  121CHOL    O315435   0.013   3.365   4.285 -0.1593  0.0892  0.2743
  121CHOL    H315436   0.026   3.434   4.223  4.4313  0.1031  1.0777
  121CHOL    C415437   5.875   3.545   4.417  0.1877  0.5169  0.1190
  121CHOL   H4115438   5.872   3.611   4.330 -0.1915  0.1642 -0.1378
  121CHOL   H4215439   0.016   3.562   4.477  1.5725 -2.1662 -1.0940
  121CHOL    C515440   5.756   3.574   4.512 -0.3865 -0.1066 -0.7431
  121CHOL    C615441   5.681   3.687   4.489  0.4842  0.0969 -0.4128
  121CHOL   H6115442   5.702   3.750   4.403  2.3618 -0.7002 -0.5620
  121CHOL    C715443   5.565   3.727   4.572  0.9172  0.4055  0.1994
  121CHOL   H7115444   5.471   3.689   4.532  0.6693  1.9313 -0.7232
  121CHOL   H7215445   5.556   3.836   4.574  0.8218  0.4030 -0.0132
  121CHOL    C815446   5.577   3.674   4.719 -0.5492  0.3478 -0.0127
  121CHOL   H8115447   5.665   3.722   4.762 -1.8623  0.3333  2.7687
  121CHOL    C915448   5.592   3.517   4.711  0.2341  0.2938  0.0482
  121CHOL   H9115449   5.511   3.490   4.643 -0.5300  1.1515  0.6089
  121CHOL   C1015450   5.728   3.481   4.642 -0.5360 -0.2219  0.0137
  121CHOL   C1115451   5.563   3.444   4.848 -0.5121 -0.0657 -0.2094
  121CHOL  H11115452   5.653   3.435   4.908 -0.5613  0.6118 -0.0274
  121CHOL  H11215453   5.543   3.339   4.825  1.7631 -0.4286 -0.6944
  121CHOL   C1215454   5.466   3.505   4.951  0.9281 -0.3076  0.6485
  121CHOL  H12115455   5.487   3.448   5.042 -0.9870 -0.9407  0.7231
  121CHOL  H12215456   5.358   3.496   4.937  0.9733  2.2503 -1.6413
  121CHOL   C1315457   5.490   3.656   4.959  0.4211  0.6941  0.3876
  121CHOL   C1415458   5.464   3.717   4.810  0.1479 -0.5140 -0.0536
  121CHOL  H14115459   5.371   3.675   4.774 -0.4215  0.9198 -0.2827
  121CHOL   C1515460   5.424   3.868   4.825 -0.1136  0.2139 -0.1474
  121CHOL  H15115461   5.335   3.893   4.766  0.2875 -0.4346 -1.0540
  121CHOL  H15215462   5.500   3.943   4.802 -0.2698 -0.0333 -1.5144
  121CHOL   C1615463   5.367   3.879   4.974 -0.7916 -0.5776 -0.0780
  121CHOL  H16115464   5.263   3.911   4.981 -0.6563 -0.1815  0.1091
  121CHOL  H16215465   5.437   3.946   5.023  0.3517 -1.4013 -0.5768
  121CHOL   C1715466   5.388   3.741   5.058 -1.0750 -1.1179 -0.5715
  121CHOL  H17115467   5.287   3.718   5.024 -1.1394 -1.6150 -0.0484
  121CHOL   C1815468   5.639   3.679   4.999  0.4410 -0.0003  0.2915
  121CHOL  H18115469   5.666   3.636   5.096  0.7720  0.7986  0.5520
  121CHOL  H18215470   5.717   3.626   4.945  0.0057 -0.3593  0.0010
  121CHOL  H18215471   5.654   3.786   5.008 -0.1388 -0.0425  1.9260
  121CHOL   C1915472   5.853   3.507   4.744 -0.0578  0.8183 -0.2680
  121CHOL  H19115473   5.842   3.454   4.839 -0.4641 -0.1529 -0.8526
  121CHOL  H19215474   0.009   3.487   4.726  0.0294 -0.4933  1.5693
  121CHOL  H19215475   5.878   3.603   4.789  0.9798 -0.0168  0.9907
  121CHOL   C2015476   5.402   3.725   5.214  0.0470 -0.3037  0.1649
  121CHOL  H20115477   5.300   3.746   5.246  0.1011 -0.0912  0.1996
  121CHOL   C2115478   5.489   3.822   5.292 -0.4360  0.6934  0.4814
  121CHOL  H21115479   5.445   3.921   5.282  0.5888  1.1456  0.3943
  121CHOL  H21215480   5.490   3.796   5.398 -0.5452  0.0029  0.3149
  121CHOL  H21215481   5.594   3.818   5.265  0.2569 -1.1360  3.1749
  121CHOL   C2215482   5.426   3.579   5.261 -0.2778  0.6219 -0.2762
  121CHOL  H22115483   5.526   3.545   5.232 -0.8606 -1.0552 -0.3851
  121CHOL  H22215484   5.351   3.515   5.215 -0.0313 -0.5113  0.8726
  121CHOL   C2315485   5.415   3.537   5.407  0.5283  0.7213  0.1361
  121CHOL  H23115486   5.502   3.574   5.462 -0.1437 -0.3759  1.9698
  121CHOL  H23215487   5.431   3.430   5.400  1.3276  0.7432  1.4208
  121CHOL   C2415488   5.280   3.568   5.469  0.3045 -0.2150 -0.0259
  121CHOL  H24115489   5.202   3.519   5.411 -1.0697  1.4140  0.3923
  121CHOL  H24215490   5.247   3.672   5.473  1.1143  0.0438  0.2010
  121CHOL   C2515491   5.279   3.528   5.621 -0.4145  0.0973  1.0684
  121CHOL  H25115492   5.364   3.570   5.674 -0.2034  2.1082 -0.7898
  121CHOL   C2615493   5.312   3.378   5.636 -0.0126 -1.1124  0.3960
  121CHOL  H26115494   5.257   3.319   5.562  0.1820  0.1030 -0.7269
  121CHOL  H26215495   5.414   3.348   5.609 -0.5189 -0.3257 -2.6284
  121CHOL  H26215496   5.290   3.352   5.739  0.1215 -0.6955  0.5282
  121CHOL   C2715497   5.156   3.591   5.689  0.1603  0.3443  0.1428
  121CHOL  H27115498   5.162   3.700   5.687  1.5930  0.2818  0.1960
  121CHOL  H27215499   5.070   3.559   5.631  0.5470  0.3836 -0.4525
  121CHOL  H27215500   5.150   3.568   5.795  0.8416  0.8071  0.2883
  122CHOL    C115501   1.502   3.989   5.150 -0.0458 -0.0376  0.0670
  122CHOL   H1115502   1.584   3.928   5.113  0.2311 -0.2771  1.0627
  122CHOL   H1215503   1.526   4.010   5.254 -0.9970  1.0640  0.0658
  122CHOL    C215504   1.530   4.126   5.071  0.4283 -0.0676  0.0974
  122CHOL   H2115505   1.633   4.152   5.094  0.4256 -1.6279  2.0008
  122CHOL   H2215506   1.455   4.196   5.108 -0.2040 -0.7701  0.1674
  122CHOL    C315507   1.517   4.105   4.919 -0.1773  0.0784 -0.0965
  122CHOL   H3115508   1.590   4.028   4.892  0.5309  0.3440  1.0293
  122CHOL    O315509   1.539   4.224   4.835 -0.1058 -0.6171 -0.2939
  122CHOL    H315510   1.551   4.191   4.747 -2.1696  2.4137 -1.8128
  122CHOL    C415511   1.378   4.046   4.886  0.5137  0.9492 -1.0462
  122CHOL   H4115512   1.363   4.034   4.779  2.0606  2.8173 -1.5003
  122CHOL   H4215513   1.297   4.110   4.919  0.6785  1.4825 -1.6744
  122CHOL    C515514   1.355   3.916   4.965 -0.2710 -0.1223  0.0691
  122CHOL    C615515   1.322   3.804   4.897  0.3691  0.7208  0.4000
  122CHOL   H6115516   1.317   3.803   4.789 -2.5531  1.6641  0.4955
  122CHOL    C715517   1.289   3.666   4.957 -0.2180 -0.1022  0.2193
  122CHOL   H7115518   1.371   3.594   4.951 -1.8150 -2.2435  2.9550
  122CHOL   H7215519   1.205   3.613   4.913  0.3829 -0.9129  0.0385
  122CHOL    C815520   1.252   3.678   5.111 -0.2299 -0.3211 -0.3431
  122CHOL   H8115521   1.154   3.726   5.111  0.2916  0.7794 -1.6435
  122CHOL    C915522   1.364   3.777   5.176  0.6673  0.0077  0.2225
  122CHOL   H9115523   1.443   3.723   5.126  0.8387  2.6753 -2.5451
  122CHOL   C1015524   1.365   3.918   5.121 -0.4821  0.5930 -0.1097
  122CHOL   C1115525   1.392   3.777   5.326  0.2428  0.2963  0.6463
  122CHOL  H11115526   1.355   3.870   5.370  0.1185  0.3642  0.4063
  122CHOL  H11215527   1.501   3.779   5.335  0.4457 -2.1778 -0.8514
  122CHOL   C1215528   1.337   3.651   5.403  0.0335  0.0067  0.9095
  122CHOL  H12115529   1.325   3.691   5.503 -1.6956  1.4566  0.1540
  122CHOL  H12215530   1.406   3.567   5.401 -0.3758 -0.3176  0.4152
  122CHOL   C1315531   1.203   3.593   5.346  0.5220 -0.1431 -0.4643
  122CHOL   C1415532   1.236   3.552   5.196 -0.1266 -0.7439  0.6465
  122CHOL  H14115533   1.335   3.507   5.204  0.5310  0.9350  2.1613
  122CHOL   C1515534   1.130   3.439   5.152 -0.3796 -0.2681  0.7495
  122CHOL  H15115535   1.189   3.373   5.088 -0.6065 -0.1823  0.4501
  122CHOL  H15215536   1.048   3.476   5.090  1.2436  1.0610 -0.6716
  122CHOL   C1615537   1.095   3.363   5.294  0.0997  0.7197  0.1532
  122CHOL  H16115538   1.138   3.264   5.306  0.6666  0.7297 -1.6469
  122CHOL  H16215539   0.987   3.357   5.307  0.1548  0.8971  0.7294
  122CHOL   C1715540   1.143   3.461   5.413  0.8032 -0.1375  0.1125
  122CHOL  H17115541   1.229   3.395   5.419  1.5872  0.6549 -1.9676
  122CHOL   C1815542   1.089   3.701   5.345 -0.1203 -0.1276 -0.2233
  122CHOL  H18115543   1.013   3.685   5.268  0.7727  1.8383 -1.5487
  122CHOL  H18215544   1.047   3.714   5.444 -0.3815  0.3035 -0.3902
  122CHOL  H18215545   1.130   3.801   5.335 -1.7878  0.5650 -0.3114
  122CHOL   C1915546   1.251   4.011   5.178 -0.1298 -0.1799  0.7445
  122CHOL  H19115547   1.264   4.043   5.281 -3.7541 -1.9176  1.8074
  122CHOL  H19215548   1.193   4.097   5.144 -0.1841  0.5383  2.6275
  122CHOL  H19215549   1.160   3.952   5.187 -1.4175  0.9794 -3.3592
  122CHOL   C2015550   1.078   3.472   5.556  0.3071 -0.4090  0.4022
  122CHOL  H20115551   1.090   3.368   5.585  0.3374 -0.9415 -1.4406
  122CHOL   C2115552   0.923   3.495   5.550 -0.7567  0.2722  0.2887
  122CHOL  H21115553   0.890   3.533   5.646 -0.3079 -0.6822  0.8320
  122CHOL  H21215554   0.881   3.561   5.474 -3.1707  1.7098  2.7803
  122CHOL  H21215555   0.876   3.400   5.524  0.5118 -0.5524  0.9497
  122CHOL   C2215556   1.150   3.559   5.656  0.1708 -0.4595  0.3274
  122CHOL  H22115557   1.168   3.666   5.653 -0.4220 -0.3526  0.5866
  122CHOL  H22215558   1.252   3.522   5.641  1.4976  2.0431  2.7677
  122CHOL   C2315559   1.124   3.529   5.804 -0.0938  0.0287  0.4712
  122CHOL  H23115560   1.068   3.437   5.816  1.9528 -1.5472 -1.3978
  122CHOL  H23215561   1.056   3.608   5.836 -1.6646 -0.6673 -1.0567
  122CHOL   C2415562   1.247   3.538   5.891 -0.6357  0.2023 -0.3944
  122CHOL  H24115563   1.276   3.642   5.906 -2.0743  0.7096 -1.0527
  122CHOL  H24215564   1.338   3.496   5.848  0.8455  3.1817 -0.3218
  122CHOL   C2515565   1.222   3.470   6.029  0.1008  0.5429  0.2610
  122CHOL  H25115566   1.124   3.497   6.068  0.1282  0.0046  0.7141
  122CHOL   C2615567   1.333   3.527   6.116  0.3932 -0.9416  0.1796
  122CHOL  H26115568   1.336   3.636   6.117 -2.5069 -0.8280  0.8009
  122CHOL  H26215569   1.307   3.524   6.222  1.6175 -1.4176  0.4689
  122CHOL  H26215570   1.433   3.485   6.104  0.9655 -0.3392  2.4894
  122CHOL   C2715571   1.227   3.321   6.036 -0.2921 -0.0259 -0.3976
  122CHOL  H27115572   1.164   3.309   6.124  0.4844 -0.9721  0.0284
  122CHOL  H27215573   1.192   3.271   5.946 -1.1112 -1.9342  0.9504
  122CHOL  H27215574   1.325   3.277   6.052  0.3451  1.8047  0.8320
  123CHOL    C115575   5.916   5.459   4.516 -0.0633 -0.6063  0.2395
  123CHOL   H1115576   5.877   5.357   4.514  1.3102 -1.1545  1.1849
  123CHOL   H1215577   0.069   5.456   4.555  0.0670  0.2038 -0.0375
  123CHOL    C215578   5.915   5.508   4.363  0.3685  0.1200  0.1033
  123CHOL   H2115579   0.026   5.440   4.301 -2.4544 -0.5608 -1.9950
  123CHOL   H2215580   0.015   5.604   4.347 -0.3582  0.0889 -2.5378
  123CHOL    C315581   5.769   5.511   4.319 -0.1565 -0.1603  0.2880
  123CHOL   H3115582   5.716   5.418   4.341 -0.8504  0.1398 -0.0776
  123CHOL    O315583   5.776   5.529   4.185  0.0387 -0.5712 -0.6963
  123CHOL    H315584   5.817   5.451   4.150 -1.8565 -2.1097  0.3590
  123CHOL    C415585   5.678   5.608   4.394  0.2172 -0.1289  0.4807
  123CHOL   H4115586   5.573   5.616   4.366 -0.4244 -2.4210  2.0946
  123CHOL   H4215587   5.724   5.705   4.371  0.5155 -0.7717 -1.7777
  123CHOL    C515588   5.689   5.564   4.540 -0.3893 -0.1387  0.0020
  123CHOL    C615589   5.572   5.555   4.615  0.1248 -0.0913  0.0463
  123CHOL   H6115590   5.480   5.570   4.561  0.3168  1.6838  0.1754
  123CHOL    C715591   5.560   5.521   4.766  0.0844 -0.1805 -0.8403
  123CHOL   H7115592   5.546   5.413   4.755 -0.7424  0.0257 -2.0194
  123CHOL   H7215593   5.471   5.558   4.816  1.1064  1.1393  0.0032
  123CHOL    C815594   5.698   5.550   4.835  0.9621  0.1441  0.1023
  123CHOL   H8115595   5.708   5.657   4.817  0.8097  0.0360 -0.6501
  123CHOL    C915596   5.814   5.480   4.749  0.2432  0.4814 -0.7769
  123CHOL   H9115597   5.780   5.377   4.733 -4.0724  1.9862 -1.9203
  123CHOL   C1015598   5.826   5.550   4.619  0.3670 -0.5500 -0.2499
  123CHOL   C1115599   0.002   5.462   4.820 -0.0189  0.1910 -0.7881
  123CHOL  H11115600   0.075   5.541   4.801  2.0996 -1.4771  0.1650
  123CHOL  H11215601   0.050   5.377   4.770 -1.3550 -0.1534 -1.5158
  123CHOL   C1215602   0.003   5.444   4.973  0.1477 -0.2618  0.4644
  123CHOL  H12115603   0.106   5.456   5.005 -0.0749 -0.0228  1.1064
  123CHOL  H12215604   5.919   5.340   4.982 -2.6319  0.3651 -1.8001
  123CHOL   C1315605   5.859   5.549   5.033 -0.4845 -0.2316 -0.1215
  123CHOL   C1415606   5.713   5.522   4.981  0.9149 -0.0325 -0.1037
  123CHOL  H14115607   5.699   5.414   4.991 -0.1231  0.0998 -0.1654
  123CHOL   C1515608   5.611   5.586   5.087  0.0573 -0.2427 -0.4974
  123CHOL  H15115609   5.523   5.523   5.102 -1.7755  2.4258  0.2674
  123CHOL  H15215610   5.579   5.688   5.067  2.2878  0.3701 -1.0731
  123CHOL   C1615611   5.689   5.591   5.226 -0.9522 -0.3179 -0.0052
  123CHOL  H16115612   5.633   5.537   5.303 -1.5306 -0.5482 -0.5863
  123CHOL  H16215613   5.696   5.695   5.257  0.0307 -0.3099 -0.2411
  123CHOL   C1715614   5.847   5.547   5.192  0.8334  0.7135 -0.3465
  123CHOL  H17115615   5.787   5.459   5.216 -0.9293  2.3004  1.3013
  123CHOL   C1815616   5.913   5.692   4.998 -0.6629  0.4536  0.0361
  123CHOL  H18115617   0.071   5.675   5.004 -1.1789 -2.9719  1.0122
  123CHOL  H18215618   5.879   5.729   4.901 -0.9503  0.2297  0.0483
  123CHOL  H18215619   5.882   5.765   5.073 -1.5372  1.1407 -0.9804
  123CHOL   C1915620   5.887   5.704   4.634 -0.0103  0.2340  0.5082
  123CHOL  H19115621   0.037   5.737   4.666 -0.9531  3.2052  0.5549
  123CHOL  H19215622   5.902   5.738   4.531  2.2826 -0.0467  0.7043
  123CHOL  H19215623   5.820   5.776   4.680 -1.1567 -0.9490  0.7197
  123CHOL   C2015624   0.029   5.527   5.275 -1.0044 -0.9451  0.6120
  123CHOL  H20115625   0.061   5.423   5.265 -0.7914 -0.8317  0.1252
  123CHOL   C2115626   5.939   5.532   5.425 -0.1805 -0.4870  0.8115
  123CHOL  H21115627   0.062   5.514   5.505 -1.3241 -2.1882  1.4782
  123CHOL  H21215628   5.885   5.623   5.449  0.7905 -0.0273  1.2850
  123CHOL  H21215629   5.877   5.447   5.454  0.5449 -0.5017  2.3943
  123CHOL   C2215630   0.156   5.624   5.246  0.4639  0.5415  1.1687
  123CHOL  H22115631   0.097   5.715   5.237  0.2953  0.3588  0.3864
  123CHOL  H22215632   0.202   5.595   5.151  1.3856  0.4901  1.6199
  123CHOL   C2315633   0.272   5.655   5.346 -0.1032 -0.1271 -0.0651
  123CHOL  H23115634   0.249   5.705   5.440  2.1831 -0.8045  0.9055
  123CHOL  H23215635   0.332   5.732   5.297 -0.8464  0.7610  0.4153
  123CHOL   C2415636   0.350   5.522   5.360 -0.3446  0.4753  0.0240
  123CHOL  H24115637   0.381   5.490   5.261 -0.5704  2.2054 -0.6177
  123CHOL  H24215638   0.284   5.442   5.391 -3.3747  2.8982  0.0699
  123CHOL   C2515639   0.467   5.550   5.456  0.2579 -0.3203  0.9479
  123CHOL  H25115640   0.537   5.472   5.425  0.6474 -0.0290  1.0937
  123CHOL   C2615641   0.432   5.507   5.602  0.1115 -0.2105 -0.0945
  123CHOL  H26115642   0.348   5.560   5.649  1.2133  1.6916 -0.1984
  123CHOL  H26215643   0.396   5.404   5.598  1.8468 -0.9085  1.6713
  123CHOL  H26215644   0.516   5.499   5.670 -0.9699  0.2218  1.3335
  123CHOL   C2715645   0.546   5.678   5.442 -0.1895  0.3890 -0.0417
  123CHOL  H27115646   0.501   5.759   5.499 -1.8702 -0.2734 -0.3975
  123CHOL  H27215647   0.649   5.660   5.472 -1.1016 -2.8080  1.3372
  123CHOL  H27215648   0.547   5.728   5.345  0.2462  3.6013  1.5665
  124CHOL    C115649   0.205   4.107   4.392  0.2823  0.3125  0.6327
  124CHOL   H1115650   0.278   4.187   4.400 -0.9793  1.3596  1.8623
  124CHOL   H1215651   0.105   4.147   4.404  0.5381  0.4972  2.1989
  124CHOL    C215652   0.224   4.061   4.245  0.5037  0.0664 -0.0752
  124CHOL   H2115653   0.223   4.152   4.186  1.3388  1.0339  1.3865
  124CHOL   H2215654   0.144   3.996   4.210 -0.0372 -0.0276  1.2965
  124CHOL    C315655   0.358   3.994   4.223 -0.4481  0.3860 -0.2559
  124CHOL   H3115656   0.435   4.071   4.227 -0.7015  0.7272 -1.5540
  124CHOL    O315657   0.366   3.947   4.090 -0.6814 -0.3371  0.5359
  124CHOL    H315658   0.354   4.023   4.035  1.6499  0.9629  1.7258
  124CHOL    C415659   0.390   3.872   4.315 -0.3855 -0.4656 -0.3021
  124CHOL   H4115660   0.493   3.845   4.294  0.3138  1.4351  0.5216
  124CHOL   H4215661   0.322   3.790   4.291 -2.5727  1.7187 -1.7981
  124CHOL    C515662   0.369   3.924   4.453  0.1298 -0.2084  0.6440
  124CHOL    C615663   0.467   3.914   4.541 -0.0067 -0.4400  0.2047
  124CHOL   H6115664   0.561   3.868   4.513  0.1664  0.1666 -0.2352
  124CHOL    C715665   0.454   3.959   4.684  0.2989  0.0090  0.2140
  124CHOL   H7115666   0.513   4.047   4.710 -1.7105  1.1247  1.0795
  124CHOL   H7215667   0.481   3.871   4.743 -0.6225 -1.9037 -2.1060
  124CHOL    C815668   0.311   3.973   4.733 -0.5892 -0.3547 -0.0126
  124CHOL   H8115669   0.256   3.880   4.725  0.7071 -1.5910  3.8590
  124CHOL    C915670   0.239   4.068   4.633 -0.4412 -0.0818 -0.7318
  124CHOL   H9115671   0.308   4.152   4.624  0.7621 -0.7898  1.4105
  124CHOL   C1015672   0.235   3.994   4.497 -0.2712 -0.3831 -0.5296
  124CHOL   C1115673   0.107   4.149   4.671  0.3711  0.3556 -0.1525
  124CHOL  H11115674   0.020   4.094   4.636  0.9491 -0.6404 -0.0453
  124CHOL  H11215675   0.105   4.249   4.628  0.9995  0.1183 -0.7627
  124CHOL   C1215676   0.097   4.174   4.828 -0.4979  1.0559  0.2779
  124CHOL  H12115677   5.939   4.192   4.842 -0.3432  1.9204  0.3834
  124CHOL  H12215678   0.154   4.258   4.867  0.0218  0.9425 -0.2298
  124CHOL   C1315679   0.135   4.048   4.914  0.9226  0.7575 -0.1130
  124CHOL   C1415680   0.294   4.018   4.879  0.2332  0.7737  0.0176
  124CHOL  H14115681   0.350   4.111   4.884  0.8554  0.4561 -0.8427
  124CHOL   C1515682   0.353   3.934   4.995 -0.2459 -0.8001 -0.2523
  124CHOL  H15115683   0.336   3.829   4.974  0.3704 -1.2923  1.5658
  124CHOL  H15215684   0.460   3.948   5.010  0.0782 -2.1210 -1.2135
  124CHOL   C1615685   0.273   3.981   5.128  1.1597  0.8888 -0.3904
  124CHOL  H16115686   0.336   4.043   5.192  0.6754  1.2098 -0.2134
  124CHOL  H16215687   0.252   3.893   5.189 -1.3398  0.4832 -1.7591
  124CHOL   C1715688   0.138   4.061   5.077  0.1841 -0.0752  0.9441
  124CHOL  H17115689   0.190   4.154   5.102  2.6367 -0.8927 -0.8951
  124CHOL   C1815690   0.052   3.929   4.874 -0.3970  0.4221  0.8690
  124CHOL  H18115691   5.903   3.924   4.921 -1.0667 -2.3129 -0.6659
  124CHOL  H18215692   0.026   3.928   4.768  1.2730 -1.1558  0.4407
  124CHOL  H18215693   0.111   3.841   4.901 -0.2886 -0.3265 -1.7312
  124CHOL   C1915694   0.114   3.881   4.497  0.5341 -0.0050 -0.0032
  124CHOL  H19115695   0.157   3.791   4.542  1.8886  0.4290 -0.4096
  124CHOL  H19215696   0.008   3.884   4.521  0.3550 -3.5835 -0.1580
  124CHOL  H19215697   0.090   3.846   4.397 -1.1693 -2.6824  1.2988
  124CHOL   C2015698   5.945   4.056   5.153  0.6175 -0.1727 -0.2750
  124CHOL  H20115699   0.008   4.125   5.237 -0.3333  0.7979 -0.9236
  124CHOL   C2115700   5.917   3.921   5.217  0.2245 -0.1614 -0.4594
  124CHOL  H21115701   5.927   3.848   5.137  1.5231  0.2314 -0.6637
  124CHOL  H21215702   0.038   3.900   5.298 -0.8608  0.2450  0.6187
  124CHOL  H21215703   5.819   3.917   5.265  0.7855 -1.5854  0.6060
  124CHOL   C2215704   5.831   4.111   5.058 -0.1130  0.8119 -0.3911
  124CHOL  H22115705   5.807   4.092   4.954 -0.4719  1.3207 -0.4021
  124CHOL  H22215706   5.879   4.208   5.048 -0.1000  0.5540 -3.3731
  124CHOL   C2315707   5.703   4.119   5.140 -0.3126  0.2670  0.3730
  124CHOL  H23115708   5.721   4.151   5.243  0.8060 -0.7537  0.5063
  124CHOL  H23215709   5.679   4.013   5.146 -0.0227  0.1687 -0.1280
  124CHOL   C2415710   5.591   4.206   5.077  0.3579  0.2102  0.3266
  124CHOL  H24115711   5.510   4.197   5.149  1.2940 -1.0549  1.2390
  124CHOL  H24215712   5.571   4.161   4.979  0.0364  1.2083 -0.0735
  124CHOL   C2515713   5.621   4.355   5.071 -0.2125  0.2420 -0.2662
  124CHOL  H25115714   5.686   4.388   4.990  1.8737  0.6139  1.5226
  124CHOL   C2615715   5.697   4.413   5.188  0.5174  0.3550  0.0281
  124CHOL  H26115716   5.796   4.367   5.181  0.7683  0.9313 -0.1803
  124CHOL  H26215717   5.702   4.521   5.198 -1.5456  0.3463  1.3896
  124CHOL  H26215718   5.656   4.376   5.282  0.0557  1.6992  0.3631
  124CHOL   C2715719   5.495   4.437   5.051 -0.0131 -0.3243  0.4563
  124CHOL  H27115720   5.446   4.435   4.953 -1.1168  0.0049  0.9855
  124CHOL  H27215721   5.415   4.392   5.110  1.1830  0.0191  2.3829
  124CHOL  H27215722   5.498   4.541   5.085 -1.5032 -0.0122 -0.2826
  125CHOL    C115723   0.085   2.110   5.097  0.1767 -0.4518  0.6662
  125CHOL   H1115724   0.185   2.107   5.141  0.7367 -0.1871 -0.5757
  125CHOL   H1215725   0.028   2.183   5.155 -0.9652 -0.2004 -0.7612
  125CHOL    C215726   0.088   2.153   4.948 -0.1775  0.2004  0.0581
  125CHOL   H2115727   0.141   2.247   4.940 -0.6290  0.4095 -0.5116
  125CHOL   H2215728   5.932   2.159   4.917  0.2384 -1.5787 -1.8648
  125CHOL    C315729   0.157   2.047   4.856 -0.7823  0.6034 -0.3527
  125CHOL   H3115730   0.261   2.041   4.889 -1.1752  2.3754  1.2708
  125CHOL    O315731   0.157   2.093   4.713  0.7368  0.1394  0.4713
  125CHOL    H315732   0.114   2.176   4.726 -2.4778 -1.6789  2.1227
  125CHOL    C415733   0.094   1.909   4.874 -0.3954 -0.4122 -0.8745
  125CHOL   H4115734   0.137   1.831   4.811 -0.5004 -0.6996 -0.5921
  125CHOL   H4215735   5.939   1.912   4.841 -1.4863  1.3740  2.4899
  125CHOL    C515736   0.083   1.874   5.013  0.2039  0.1377 -0.5303
  125CHOL    C615737   0.116   1.749   5.050 -0.1020  0.0470  0.9235
  125CHOL   H6115738   0.141   1.679   4.971 -0.6386 -1.5550  2.1379
  125CHOL    C715739   0.100   1.688   5.186  0.2655  0.5576 -0.5293
  125CHOL   H7115740   0.189   1.666   5.244  0.4733 -1.2307 -1.4824
  125CHOL   H7215741   0.052   1.593   5.162 -0.0236  0.6808 -0.4431
  125CHOL    C815742   0.012   1.777   5.279 -0.5463  0.1824 -0.6757
  125CHOL   H8115743   5.861   1.755   5.240 -0.0494  0.1662 -1.9782
  125CHOL    C915744   0.057   1.922   5.263  0.4529  0.0240  0.7080
  125CHOL   H9115745   0.164   1.913   5.283  0.7853 -1.0665 -1.4493
  125CHOL   C1015746   0.025   1.973   5.120 -0.4242 -0.0228  0.3866
  125CHOL   C1115747   5.947   2.034   5.367 -0.3408 -0.3585 -0.1079
  125CHOL  H11115748   5.841   2.056   5.352 -0.5378 -1.0039  0.3002
  125CHOL  H11215749   0.046   2.131   5.370 -3.8439  1.4286  1.4890
  125CHOL   C1215750   5.934   1.980   5.514  0.2016  0.0236 -0.4183
  125CHOL  H12115751   5.880   2.059   5.567 -0.2947  0.1169 -1.0582
  125CHOL  H12215752   0.084   1.979   5.561 -0.2088  1.8626  0.5347
  125CHOL   C1315753   5.867   1.836   5.515 -0.5744 -0.9993  0.4721
  125CHOL   C1415754   0.013   1.736   5.429  0.3517 -0.4861  0.4661
  125CHOL  H14115755   0.118   1.747   5.458  0.7384 -1.7145 -0.4406
  125CHOL   C1515756   5.917   1.588   5.467  0.6191 -0.4320  0.0713
  125CHOL  H15115757   0.060   1.530   5.473 -0.2627 -1.9723 -0.9612
  125CHOL  H15215758   5.862   1.532   5.391  0.3822  0.0619 -0.1270
  125CHOL   C1615759   5.840   1.594   5.602  0.1988 -0.1553 -0.0526
  125CHOL  H16115760   5.886   1.530   5.678  1.0686 -0.0774 -0.4994
  125CHOL  H16215761   5.746   1.541   5.586  0.3094 -0.8954  1.6745
  125CHOL   C1715762   5.843   1.753   5.651 -0.0042  0.5011  0.1882
  125CHOL  H17115763   5.931   1.717   5.702  0.1100  0.2448 -0.1836
  125CHOL   C1815764   5.725   1.846   5.454  0.0006  0.1177  0.6665
  125CHOL  H18115765   5.724   1.885   5.353 -0.3503  0.0048  0.6268
  125CHOL  H18215766   5.666   1.754   5.452  0.3357 -0.0814 -0.7323
  125CHOL  H18215767   5.662   1.915   5.510 -1.1553 -0.7147  0.4107
  125CHOL   C1915768   5.811   1.982   5.108 -0.1564  0.3365 -0.3852
  125CHOL  H19115769   5.770   2.008   5.010  0.7838  2.5105 -0.2258
  125CHOL  H19215770   5.760   1.886   5.111  2.0614 -0.8129  1.3275
  125CHOL  H19215771   5.743   2.043   5.169  0.8316  0.7483  0.3180
  125CHOL   C2015772   5.746   1.805   5.757  0.0678 -0.0355 -0.8048
  125CHOL  H20115773   5.772   1.751   5.848 -1.3422  1.4387  0.5175
  125CHOL   C2115774   5.596   1.759   5.741 -0.5738 -0.6519  0.0213
  125CHOL  H21115775   5.544   1.785   5.833 -0.2587 -0.4041  0.1296
  125CHOL  H21215776   5.541   1.807   5.661 -1.4428 -0.7486  0.5550
  125CHOL  H21215777   5.586   1.652   5.720  0.1988 -0.4092 -1.6603
  125CHOL   C2215778   5.749   1.956   5.774  0.7128  0.1175  0.3274
  125CHOL  H22115779   5.708   1.995   5.681  0.5006  1.7365  1.0688
  125CHOL  H22215780   5.856   1.978   5.777  1.4739 -3.4689  1.2360
  125CHOL   C2315781   5.674   2.034   5.892  0.0860 -0.3086 -0.0815
  125CHOL  H23115782   5.716   1.994   5.985  0.8557 -1.8964 -1.0832
  125CHOL  H23215783   5.568   2.010   5.887  0.3057 -0.9468 -2.6892
  125CHOL   C2415784   5.691   2.188   5.892  1.1330  0.6020  0.2834
  125CHOL  H24115785   5.624   2.219   5.812  2.4967  2.0172 -0.3445
  125CHOL  H24215786   5.797   2.204   5.872  0.7601  1.9338 -0.7140
  125CHOL   C2515787   5.656   2.267   6.022  0.1511  0.8178 -0.0871
  125CHOL  H25115788   5.721   2.241   6.105  1.5642  0.0234 -1.4107
  125CHOL   C2615789   5.514   2.235   6.065 -0.6661 -0.4127  0.2519
  125CHOL  H26115790   5.486   2.281   6.160  1.3538 -1.2676  1.2991
  125CHOL  H26215791   5.440   2.261   5.990  1.1071  0.1951 -1.3097
  125CHOL  H26215792   5.488   2.130   6.078 -1.5784 -0.1768  0.3695
  125CHOL   C2715793   5.672   2.419   5.986 -0.1555  0.2343  0.3754
  125CHOL  H27115794   5.616   2.447   5.897  0.0904 -0.4745 -0.0024
  125CHOL  H27215795   5.627   2.481   6.064 -2.0081  0.2536 -0.6794
  125CHOL  H27215796   5.776   2.437   5.958 -0.5827 -1.1433 -2.1972
  126SOL     OW15797   3.764   1.579   7.891 -0.5332  0.9006 -0.1584
  126SOL    HW115798   3.803   1.542   7.812 -0.1854 -0.2518  0.5425
  126SOL    HW215799   3.838   1.598   7.949 -0.7953  1.5977 -0.0427
  127SOL     OW15800   1.874   1.475   0.154 -0.0789  0.1729 -0.6456
  127SOL    HW115801   1.947   1.426   0.114  0.6737 -0.9169  1.9495
  127SOL    HW215802   1.847   1.420   0.227 -0.7769  2.5791  0.9248
  128SOL     OW15803   0.159   1.013  10.532 -0.2131 -0.0498 -0.5145
  128SOL    HW115804   0.071   1.015  10.495  0.1625  2.9036 -1.3441
  128SOL    HW215805   0.144   1.023  10.627 -0.7779 -0.1883 -0.5827
  129SOL     OW15806   0.783   2.487   0.677  0.3933 -0.2252  0.0348
  129SOL    HW115807   0.718   2.505   0.744 -0.6613  1.2681 -1.3294
  129SOL    HW215808   0.734   2.446   0.606  1.1665 -0.2257 -0.5100
  130SOL     OW15809   2.176   4.690   2.449  0.3014  0.2658 -0.1145
  130SOL    HW115810   2.137   4.616   2.495 -0.3433  0.5173 -0.2523
  130SOL    HW215811   2.152   4.677   2.357  0.5285  0.4314 -0.1999
  131SOL     OW15812   2.508   0.872   1.969 -0.6630 -0.1898 -0.2642
  131SOL    HW115813   2.594   0.859   2.009 -0.0366  2.2171 -0.7723
  131SOL    HW215814   2.519   0.838   1.880  0.1760  1.3326 -0.7547
  132SOL     OW15815   4.589   4.630   1.750 -0.0087  0.6979  0.0501
  132SOL    HW115816   4.560   4.539   1.755 -0.0876  0.7394  0.3566
  132SOL    HW215817   4.656   4.631   1.682  1.2979  0.0669  1.3118
  133SOL     OW15818   5.084   2.072  11.911  0.6642  0.0633  0.0428
  133SOL    HW115819   5.010   2.049  11.967  0.8413 -0.1501  0.1944
  133SOL    HW215820   5.050   2.140  11.853  0.2635 -0.2347 -0.0831
  134SOL     OW15821   1.573   4.173  11.745  0.0434 -0.2625  0.6099
  134SOL    HW115822   1.551   4.086  11.776 -1.0382  0.1663  1.0857
  134SOL    HW215823   1.493   4.224  11.759  0.4419  0.6293 -0.2938
  135SOL     OW15824   3.807   2.630  10.465 -0.1968  0.3789  0.0381
  135SOL    HW115825   3.728   2.596  10.507  0.4494 -1.3659 -0.0900
  135SOL    HW215826   3.842   2.695  10.526 -1.1119  0.3335  0.6112
  136SOL     OW15827   3.640   4.661   9.966 -0.8253  0.3071  0.5533
  136SOL    HW115828   3.702   4.649  10.037 -0.1932  1.4094  0.2115
  136SOL    HW215829   3.566   4.707  10.007  0.0947  2.1156  0.2603
  137SOL     OW15830   1.847   3.233   8.718  0.2850  0.3520  0.0372
  137SOL    HW115831   1.902   3.170   8.765  0.2176  1.3277  1.4806
  137SOL    HW215832   1.766   3.236   8.769  0.1929  1.4015 -0.1501
  138SOL     OW15833   1.386   5.331  11.251 -0.3070 -0.4977  0.0940
  138SOL    HW115834   1.388   5.236  11.240 -0.6870 -0.4242 -0.7194
  138SOL    HW215835   1.444   5.364  11.182 -1.8029 -0.0566 -0.9957
  139SOL     OW15836   5.572   2.559   0.045 -0.3808 -0.6198  0.5879
  139SOL    HW115837   5.487   2.528   0.079 -1.3359  0.8836 -0.3521
  139SOL    HW215838   5.611   2.605   0.119 -2.1224  1.9925 -0.0191
  140SOL     OW15839   5.678   2.022   1.144 -0.5364 -0.0295 -0.0905
  140SOL    HW115840   5.701   2.103   1.189 -0.6024  0.0031 -0.1153
  140SOL    HW215841   5.717   1.953   1.198 -0.2817  0.0307 -0.1940
  141SOL     OW15842   1.129   0.090   2.966 -0.1302 -0.6983  0.1987
  141SOL    HW115843   1.121   0.069   3.059  0.9597 -0.5460  0.3440
  141SOL    HW215844   1.079   0.170   2.955  1.3416  0.3739  1.0824
  142SOL     OW15845   3.367   1.321   1.127  0.1896  0.3709  0.2561
  142SOL    HW115846   3.350   1.311   1.033  0.2054 -0.1533  0.3115
  142SOL    HW215847   3.357   1.234   1.164 -2.8434  1.1022  1.2478
  143SOL     OW15848   3.454   0.450  11.214  0.1785  0.0865 -0.5832
  143SOL    HW115849   3.485   0.361  11.195  0.4105  0.3685 -1.5584
  143SOL    HW215850   3.392   0.470  11.144 -0.5988  0.3437  0.1597
  144SOL     OW15851   5.849   5.571  11.879  0.1457  0.1494  0.1368
  144SOL    HW115852   5.820   5.543  11.792  0.9869  2.1255 -0.8140
  144SOL    HW215853   5.944   5.565  11.876  0.1496 -0.4057  1.1526
  145SOL     OW15854   3.988   3.048   2.520 -0.4399 -0.8006  0.0164
  145SOL    HW115855   4.039   3.114   2.567  0.0082 -1.5002  0.5147
  145SOL    HW215856   3.953   3.095   2.444  0.3601 -0.1370  0.0486
  146SOL     OW15857   0.541   1.897  11.913  0.2824  0.3554  0.1374
  146SOL    HW115858   0.550   1.969  11.976 -0.3928  0.2913  0.3144
  146SOL    HW215859   0.613   1.838  11.935 -0.4935 -0.1240  1.4756
  147SOL     OW15860   5.257   1.940   3.181  0.0411  0.5916 -0.3097
  147SOL    HW115861   5.271   1.977   3.269  0.9559  1.1263 -0.6746
  147SOL    HW215862   5.301   1.855   3.183 -2.3021 -0.6320  0.6222
  148SOL     OW15863   2.623   3.178   2.767  0.1160  0.4602  0.2327
  148SOL    HW115864   2.530   3.182   2.790  0.4490  1.2701  1.4983
  148SOL    HW215865   2.669   3.201   2.848  1.3832  1.3956 -0.7259
  149SOL     OW15866   5.235   0.791   2.305  0.3964 -0.1514  0.0397
  149SOL    HW115867   5.326   0.781   2.277  0.0166 -0.9474 -0.9518
  149SOL    HW215868   5.207   0.702   2.326 -0.3208  0.0128 -0.2113
  150SOL     OW15869   0.080   3.056  12.248  0.4619 -0.2020 -0.0438
  150SOL    HW115870   0.061   3.016  12.333  2.1957 -0.3011  0.3161
  150SOL    HW215871   0.154   3.006  12.214 -0.7137 -0.6771 -2.0039
  151SOL     OW15872   5.121   2.977  11.979  0.1794  0.3831  0.3150
  151SOL    HW115873   5.141   3.025  11.898  0.6354  1.7975  1.2362
  151SOL    HW215874   5.150   2.888  11.962  1.0447  0.8594 -0.7871
  152SOL     OW15875   5.062   3.107   1.662 -0.6805  0.5558 -0.5017
  152SOL    HW115876   5.072   3.047   1.736  2.5942  1.5821 -0.0166
  152SOL    HW215877   5.023   3.186   1.700 -0.3462  0.5437 -0.1238
  153SOL     OW15878   1.133   2.719   1.392  0.1286 -0.1230 -0.6831
  153SOL    HW115879   1.050   2.742   1.351  0.0685  0.2630 -0.3441
  153SOL    HW215880   1.198   2.733   1.323 -0.1551 -1.0510 -1.1555
  154SOL     OW15881   0.686   1.171   8.272 -0.3424 -0.0115 -0.4164
  154SOL    HW115882   0.605   1.222   8.275 -0.8024 -0.7473 -0.2145
  154SOL    HW215883   0.718   1.184   8.182 -0.1489  1.0854 -0.1984
  155SOL     OW15884   5.640   4.963   1.909 -0.6273  0.0387  0.4399
  155SOL    HW115885   5.601   5.044   1.942 -0.2445  0.2118  0.4789
  155SOL    HW215886   5.566   4.905   1.893 -1.0827  1.2046 -1.7980
  156SOL     OW15887   3.850   1.764   8.616 -0.1036  0.0736 -0.1621
  156SOL    HW115888   3.812   1.852   8.611  1.2812  0.7042  0.1086
  156SOL    HW215889   3.863   1.739   8.524  0.8853  0.7862 -0.2306
  157SOL     OW15890   5.334   2.288  10.703 -0.0129  0.1834 -0.3596
  157SOL    HW115891   5.377   2.205  10.683 -0.0297  0.1074 -0.0804
  157SOL    HW215892   5.357   2.306  10.794  0.1135  0.5594 -0.4635
  158SOL     OW15893   3.347   0.074  12.469  0.3303  0.0172  0.3550
  158SOL    HW115894   3.416   0.069  12.403 -0.9603 -0.7713 -0.9538
  158SOL    HW215895   3.361  -0.004  12.524  1.2034  0.4969  0.8195
  159SOL     OW15896   3.676   4.066  10.704  0.2593  0.4549 -0.4371
  159SOL    HW115897   3.640   4.079  10.616 -0.2667  0.0345 -0.2894
  159SOL    HW215898   3.718   3.980  10.700  0.2843  0.4596 -0.2871
  160SOL     OW15899   1.619   1.379  10.088 -0.1743 -0.1175  0.2383
  160SOL    HW115900   1.563   1.326  10.145 -0.0546  1.0137  1.4528
  160SOL    HW215901   1.689   1.411  10.146  0.4316  0.3583 -0.7411
  161SOL     OW15902   4.382   4.168  11.754 -0.0318  0.5345 -0.0464
  161SOL    HW115903   4.353   4.259  11.753 -2.8536 -0.3097  0.5243
  161SOL    HW215904   4.395   4.148  11.847 -0.3212  0.1050 -0.0950
  162SOL     OW15905   2.643   2.230   9.340  0.0329 -0.4227 -0.3270
  162SOL    HW115906   2.707   2.222   9.270 -0.2117  1.1533 -0.7618
  162SOL    HW215907   2.683   2.187   9.416  0.8328 -1.0107 -1.0841
  163SOL     OW15908   4.890   1.852   9.604  0.1471 -0.2170 -0.4492
  163SOL    HW115909   4.831   1.893   9.540 -0.1762 -1.4270 -0.9507
  163SOL    HW215910   4.942   1.790   9.552 -0.2797 -1.3845  0.4839
  164SOL     OW15911   5.389   3.656   7.896  0.1453  0.2170  0.1918
  164SOL    HW115912   5.413   3.706   7.818 -0.6074  1.3134  0.6403
  164SOL    HW215913   5.369   3.723   7.962 -1.9845 -0.6570  0.4660
  165SOL     OW15914   0.450   0.532   0.480 -0.0897  0.3248 -0.0784
  165SOL    HW115915   0.367   0.550   0.526  0.0468  1.8252 -0.4000
  165SOL    HW215916   0.423   0.496   0.396 -0.4001 -0.0587  0.1830
  166SOL     OW15917   4.197   1.682  -0.005 -0.0384 -0.3249 -0.8577
  166SOL    HW115918   4.173   1.657   0.085  0.1453  0.1771 -0.6669
  166SOL    HW215919   4.280   1.728   0.004 -0.3991  0.4162 -1.1872
  167SOL     OW15920   5.669   2.513   2.542 -0.5161 -0.4126  0.2464
  167SOL    HW115921   5.645   2.559   2.622 -0.8499 -1.3293  0.6649
  167SOL    HW215922   5.587   2.503   2.494 -0.5466 -1.1644  0.4546
  168SOL     OW15923   0.023   4.914   2.213  0.4735 -0.3007  0.3600
  168SOL    HW115924   0.108   4.893   2.175  0.7546  0.0469  0.7901
  168SOL    HW215925   0.035   5.001   2.252 -0.5393  0.4954 -1.0278
  169SOL     OW15926   0.559   2.504   3.011  0.5446  0.2190 -0.0036
  169SOL    HW115927   0.564   2.423   3.062  0.4944  0.7456  0.8537
  169SOL    HW215928   0.648   2.540   3.014  0.2609  0.8709  0.7467
  170SOL     OW15929   2.815   3.622  10.833  0.8013  0.0442 -0.0816
  170SOL    HW115930   2.785   3.537  10.867  0.4396  0.3081  0.2702
  170SOL    HW215931   2.841   3.604  10.743  1.0226 -0.5085  0.0902
  171SOL     OW15932   1.320   0.694   1.386 -0.2197  0.0827 -0.0626
  171SOL    HW115933   1.262   0.768   1.368 -1.6302 -1.3491 -1.5937
  171SOL    HW215934   1.351   0.708   1.475  0.0636  2.8472 -0.5665
  172SOL     OW15935   1.443   3.055  10.920  0.3829 -0.0453  0.4251
  172SOL    HW115936   1.351   3.037  10.935  0.4166  0.3706  1.1330
  172SOL    HW215937   1.452   3.150  10.932  0.0859  0.6124 -3.8151
  173SOL     OW15938   4.319   0.260   9.762 -0.3217 -0.2416 -0.1056
  173SOL    HW115939   4.400   0.268   9.712 -1.1456 -0.6178 -1.5163
  173SOL    HW215940   4.291   0.350   9.778 -1.0402 -0.1287 -1.9424
  174SOL     OW15941   5.079   4.634   1.131 -0.9857  0.3264  0.7769
  174SOL    HW115942   5.016   4.606   1.065  1.1065  0.6376 -1.4305
  174SOL    HW215943   5.058   4.582   1.208 -1.8253 -1.9766 -0.9423
  175SOL     OW15944   3.332   1.241   2.971  0.3696 -0.3278 -0.3305
  175SOL    HW115945   3.383   1.302   2.919 -1.7891  1.5228 -0.3635
  175SOL    HW215946   3.312   1.289   3.052 -2.3375 -0.5090 -0.8341
  176SOL     OW15947   1.593   4.169   1.103  0.1755  0.0431  0.3446
  176SOL    HW115948   1.526   4.197   1.165 -0.4608  0.7627 -0.6501
  176SOL    HW215949   1.545   4.153   1.022  1.3343  1.6437 -0.6926
  177SOL     OW15950   0.453   5.100   7.899 -0.1253  0.4122 -0.1630
  177SOL    HW115951   0.421   5.010   7.884  1.9628 -0.4026  0.0752
  177SOL    HW215952   0.374   5.150   7.921 -1.3190 -1.3789 -0.2336
  178SOL     OW15953   4.054   3.067   1.812 -0.2594  0.2321  0.5262
  178SOL    HW115954   4.120   3.035   1.873  0.5626  1.3469  0.2537
  178SOL    HW215955   4.036   3.157   1.842 -1.0019  0.2349  0.0753
  179SOL     OW15956   3.504   0.967   1.632 -0.0713 -0.3635  0.0189
  179SOL    HW115957   3.513   1.022   1.710  0.5281 -0.6394  0.1446
  179SOL    HW215958   3.540   1.019   1.561  3.6088 -1.8677  0.6857
  180SOL     OW15959   5.913   2.216  12.170  0.3536  0.1773 -0.5096
  180SOL    HW115960   5.907   2.311  12.176  0.4716  0.1687 -0.2041
  180SOL    HW215961   5.856   2.184  12.240  0.1561  0.0203 -0.7417
  181SOL     OW15962   0.063   1.082   3.610  0.3588 -1.2770 -0.2331
  181SOL    HW115963   0.054   1.125   3.525 -0.3574  0.0329  0.4948
  181SOL    HW215964  -0.026   1.062   3.637  0.3391  1.0377  1.5753
  182SOL     OW15965   4.080   5.155   0.072 -0.1461  0.3780  0.3812
  182SOL    HW115966   4.175   5.163   0.078 -0.0023  0.6225 -1.7393
  182SOL    HW215967   4.064   5.064   0.048 -0.4311  0.3473  0.6877
  183SOL     OW15968   5.443   1.553  12.125  0.3304 -0.7768 -0.4358
  183SOL    HW115969   5.464   1.647  12.126  2.8757 -1.2931 -0.8062
  183SOL    HW215970   5.451   1.528  12.034 -1.1615 -1.1983 -0.4503
  184SOL     OW15971   0.254   5.729   1.069 -0.0631 -0.1454 -0.0397
  184SOL    HW115972   0.184   5.711   1.005  0.4096 -0.6024 -0.4329
  184SOL    HW215973   0.319   5.779   1.020  1.0457 -1.8603 -0.3647
  185SOL     OW15974   0.725   5.689   2.599  0.4537 -0.2297 -0.1710
  185SOL    HW115975   0.789   5.754   2.568  0.7155  0.3698  1.5662
  185SOL    HW215976   0.778   5.624   2.645 -0.2917  1.0044  2.4993
  186SOL     OW15977   2.510   0.209   1.506  0.0686  0.1181 -0.5477
  186SOL    HW115978   2.588   0.254   1.472  1.0280 -1.0606  0.0511
  186SOL    HW215979   2.488   0.257   1.585  0.4509  0.1906 -0.4820
  187SOL     OW15980   1.981   1.842  10.771 -0.1631 -0.3515  0.2004
  187SOL    HW115981   1.917   1.865  10.838 -1.9230 -1.4065 -1.0814
  187SOL    HW215982   1.952   1.889  10.693  0.9962 -0.3444 -0.2435
  188SOL     OW15983   4.142   1.599  11.202  0.4295  0.8708 -0.4590
  188SOL    HW115984   4.077   1.669  11.209  1.2690  1.7799 -1.6066
  188SOL    HW215985   4.198   1.626  11.129  1.0629 -0.7539 -0.5801
  189SOL     OW15986   2.318   2.447   0.775  0.2668 -0.0094  0.3999
  189SOL    HW115987   2.257   2.452   0.849 -0.7080  1.8410 -0.5163
  189SOL    HW215988   2.275   2.388   0.713  0.4538 -0.4588  0.6849
  190SOL     OW15989   0.456   4.893   0.206  0.2442  0.2844 -0.3801
  190SOL    HW115990   0.525   4.832   0.178  0.8902  0.2225  1.2753
  190SOL    HW215991   0.498   4.947   0.272 -1.3692  0.0782  0.8496
  191SOL     OW15992   3.434   2.790   8.686 -0.5159  0.6542  0.0562
  191SOL    HW115993   3.527   2.802   8.670 -0.5352  1.0404  0.2105
  191SOL    HW215994   3.396   2.781   8.598 -0.1763 -0.7915  0.0436
  192SOL     OW15995   4.263   4.341  11.116 -0.0188  0.0442 -0.1261
  192SOL    HW115996   4.264   4.271  11.181 -1.5476  0.7067  0.6273
  192SOL    HW215997   4.351   4.340  11.079 -0.0004 -2.2353 -0.0859
  193SOL     OW15998   2.988   5.864  11.964 -0.0307  0.1043  1.0714
  193SOL    HW115999   3.021   5.950  11.991 -0.2651  0.6433 -0.3103
  193SOL    HW216000   2.898   5.881  11.935 -0.1636 -0.6513  1.0314
  194SOL     OW16001   0.089   1.294   1.457 -0.2253 -0.2365  0.3328
  194SOL    HW116002   0.019   1.265   1.399 -0.7772 -0.8258  1.2728
  194SOL    HW216003   0.046   1.352   1.520  0.0565 -0.8735  1.1237
  195SOL     OW16004   3.420   5.486   0.303 -0.3441  0.8336 -0.4257
  195SOL    HW116005   3.352   5.545   0.333 -0.9409 -0.3377  0.5657
  195SOL    HW216006   3.502   5.522   0.338 -0.6882  1.1466  0.0554
  196SOL     OW16007   0.220   1.866  10.819  0.8834  0.0308  0.0029
  196SOL    HW116008   0.273   1.946  10.822 -0.2233  0.7602  0.9634
  196SOL    HW216009   0.248   1.821  10.740  0.5715  2.0556 -1.3139
  197SOL     OW16010   2.925   0.310   3.244  0.3996 -0.0107 -0.5162
  197SOL    HW116011   3.004   0.273   3.283  0.2587  0.6772  0.4455
  197SOL    HW216012   2.889   0.367   3.312  0.8044  2.1959 -2.0913
  198SOL     OW16013   1.761   4.211   8.883 -0.5564 -0.4076  0.3927
  198SOL    HW116014   1.811   4.130   8.870  2.5193  1.3763  0.6277
  198SOL    HW216015   1.751   4.217   8.978  2.6074  1.3579  0.6936
  199SOL     OW16016   2.946   2.129   2.426 -0.3454  0.3662 -0.6466
  199SOL    HW116017   3.017   2.191   2.412  2.3657 -1.8061  2.6654
  199SOL    HW216018   2.892   2.170   2.494  0.1063  0.1856 -0.1735
  200SOL     OW16019   2.141   4.237   9.891  0.3486 -0.4680 -0.2618
  200SOL    HW116020   2.193   4.289   9.952  1.1332 -0.5014 -0.8800
  200SOL    HW216021   2.186   4.248   9.807 -0.9727 -0.0654 -0.9179
  201SOL     OW16022   2.619   0.394   0.571 -0.3624  0.2483  0.6080
  201SOL    HW116023   2.577   0.387   0.657  0.5802 -0.8196  1.0032
  201SOL    HW216024   2.698   0.447   0.587 -0.4748  0.5098  0.2954
  202SOL     OW16025   5.635   2.876  12.329 -0.3940 -0.1183 -0.7141
  202SOL    HW116026   5.678   2.820  12.263 -2.4040  0.5942 -2.7082
  202SOL    HW216027   5.545   2.883  12.298 -1.1081  1.1224  1.5965
  203SOL     OW16028   2.737   4.483  11.774 -0.1641 -0.2777  0.2633
  203SOL    HW116029   2.774   4.523  11.695  0.8446  1.0616  1.4079
  203SOL    HW216030   2.802   4.418  11.800 -0.0619 -0.0701  0.5248
  204SOL     OW16031   0.592   5.685   9.080  0.4315  0.2700 -0.0807
  204SOL    HW116032   0.499   5.700   9.094 -0.0497 -1.0647 -1.6798
  204SOL    HW216033   0.628   5.676   9.168 -1.3489 -1.4007  0.5105
  205SOL     OW16034   5.929   1.542   3.944 -0.2628  0.3938 -0.0336
  205SOL    HW116035   5.891   1.630   3.945  1.3418  1.1068  0.5842
  205SOL    HW216036   5.971   1.534   3.859 -0.7854  0.0496 -0.2629
  206SOL     OW16037   4.016   5.549   9.778  0.2137  0.4255 -0.1205
  206SOL    HW116038   3.982   5.534   9.866 -0.3095  0.5725 -0.2908
  206SOL    HW216039   3.980   5.634   9.753 -1.2675 -0.4901 -1.2291
  207SOL     OW16040   4.907   2.769   0.051  0.0998  0.0806  0.1271
  207SOL    HW116041   4.940   2.780   0.141  1.0277 -0.4853 -0.1380
  207SOL    HW216042   4.945   2.686   0.022  0.7076  0.8225 -1.1958
  208SOL     OW16043   1.284   3.788   2.095 -0.2542 -0.3178  0.6039
  208SOL    HW116044   1.287   3.881   2.114 -1.2501 -0.3105  0.8053
  208SOL    HW216045   1.197   3.774   2.056  1.4899 -0.4410 -3.4943
  209SOL     OW16046   4.393   3.320   0.611 -0.2252 -0.3104 -0.4071
  209SOL    HW116047   4.462   3.319   0.678  1.5290 -1.2695 -2.1949
  209SOL    HW216048   4.386   3.229   0.582 -1.3525  0.0130 -1.1748
  210SOL     OW16049   0.737   1.133   1.911  0.1887  0.0773  0.3588
  210SOL    HW116050   0.713   1.047   1.878  1.4724  0.1332 -0.7924
  210SOL    HW216051   0.691   1.194   1.853  1.3264  0.1631 -0.4926
  211SOL     OW16052   4.850   3.230   9.119 -0.5226 -0.9497 -0.3747
  211SOL    HW116053   4.842   3.136   9.108  0.3713 -0.8419 -2.1189
  211SOL    HW216054   4.915   3.241   9.188  0.9636 -1.5969 -1.6507
  212SOL     OW16055   4.646   5.782   9.887 -0.5059 -0.0941 -0.4909
  212SOL    HW116056   4.574   5.725   9.913  0.0864 -1.3937 -1.6582
  212SOL    HW216057   4.643   5.854   9.951 -3.4188  0.3957 -1.0719
  213SOL     OW16058   5.773   3.444  10.530 -1.4962 -0.1048  0.5693
  213SOL    HW116059   5.804   3.465  10.618 -1.8174  1.5673  0.2897
  213SOL    HW216060   5.785   3.524  10.479 -3.3194 -0.3791 -0.3695
  214SOL     OW16061   0.752   0.879   1.853  0.0713  0.5715  0.1092
  214SOL    HW116062   0.799   0.887   1.770 -1.2595 -0.5162 -0.8009
  214SOL    HW216063   0.662   0.859   1.826  0.1076 -2.1123  1.8367
  215SOL     OW16064   4.020   3.490  11.256  0.6870  0.2848 -0.0004
  215SOL    HW116065   4.052   3.537  11.178  0.4058 -1.1900 -1.0186
  215SOL    HW216066   3.976   3.413  11.221 -0.9629  0.4901  1.5642
  216SOL     OW16067   5.765   4.931   0.793 -0.6375 -0.4361 -0.0419
  216SOL    HW116068   5.756   4.842   0.758 -1.8716 -0.1527 -0.4628
  216SOL    HW216069   5.680   4.972   0.777  0.3663  1.2857 -1.1388
  217SOL     OW16070   2.879   1.798  10.363  0.3141 -1.0028  0.4366
  217SOL    HW116071   2.953   1.834  10.411 -0.9047 -1.9897  3.1306
  217SOL    HW216072   2.918   1.742  10.295  2.0375 -1.8927  2.1357
  218SOL     OW16073   2.901   3.783  10.070 -0.2167 -0.2772 -0.0632
  218SOL    HW116074   2.993   3.790  10.045 -0.4439  0.2831 -0.7381
  218SOL    HW216075   2.903   3.775  10.165  0.4741  0.6545  0.0024
  219SOL     OW16076   4.566   3.976   1.632  0.0242 -0.1550  0.0689
  219SOL    HW116077   4.629   3.990   1.703  0.8470  1.1343 -0.8763
  219SOL    HW216078   4.580   3.885   1.606  0.9364 -0.1322  0.4330
  220SOL     OW16079   0.256   1.178   0.192 -0.0002  0.7989 -0.1006
  220SOL    HW116080   0.241   1.087   0.168  0.7168  1.1104 -1.8332
  220SOL    HW216081   0.169   1.218   0.191 -0.5864 -0.2974  2.6856
  221SOL     OW16082   4.606   3.154   9.517  0.8698  0.2335 -0.0893
  221SOL    HW116083   4.591   3.180   9.608  1.1518  0.9685 -0.2511
  221SOL    HW216084   4.533   3.097   9.496  1.2850 -0.6762  0.8902
  222SOL     OW16085   5.211   5.833  10.099  0.0781  0.9634 -0.1993
  222SOL    HW116086   5.273   5.828  10.025 -0.7105 -2.1857 -0.7353
  222SOL    HW216087   5.125   5.835  10.058 -0.2963  1.4069  0.6021
  223SOL     OW16088   0.804   2.365   3.851 -0.3740 -0.3430  0.2428
  223SOL    HW116089   0.892   2.363   3.889 -0.3046 -0.2957  0.0907
  223SOL    HW216090   0.745   2.356   3.925 -0.2366 -0.5735  0.3259
  224SOL     OW16091   5.042   5.408   8.412 -0.3251 -0.4459 -0.0051
  224SOL    HW116092   5.133   5.424   8.387 -1.3464  1.5406 -2.7396
  224SOL    HW216093   4.992   5.427   8.333 -3.2859  0.2416  1.9493
  225SOL     OW16094   1.195   0.663  11.880 -0.0097  0.0710 -0.3795
  225SOL    HW116095   1.112   0.695  11.844 -0.3239  0.7146  0.8805
  225SOL    HW216096   1.253   0.657  11.804 -1.5616 -1.5695 -1.4571
  226SOL     OW16097   3.553   4.714   9.534  0.4879  0.4491 -0.1218
  226SOL    HW116098   3.520   4.643   9.589 -2.6916  1.5815 -0.5066
  226SOL    HW216099   3.573   4.784   9.596 -0.5017  0.7515 -0.1360
  227SOL     OW16100   4.361   1.936   2.089 -0.0058 -0.3090 -0.0977
  227SOL    HW116101   4.326   2.017   2.126 -0.3085  0.4279 -1.9592
  227SOL    HW216102   4.314   1.866   2.135 -0.9617  0.5970  0.3126
  228SOL     OW16103   2.587   0.370   9.127  0.6200  0.2995 -0.0473
  228SOL    HW116104   2.574   0.378   9.033 -3.4281 -1.5627  0.2530
  228SOL    HW216105   2.521   0.428   9.166  2.1177  0.9174  1.7063
  229SOL     OW16106   0.866   3.075   3.571 -0.4615 -0.4900 -0.3354
  229SOL    HW116107   0.857   3.137   3.499 -1.6530  0.4484  0.5966
  229SOL    HW216108   0.803   3.006   3.552 -0.9061 -0.1495 -0.0855
  230SOL     OW16109   1.560   1.508   2.476  0.1086 -0.0550  0.0770
  230SOL    HW116110   1.525   1.429   2.434  0.4861 -0.5002  0.5929
  230SOL    HW216111   1.647   1.482   2.507 -0.0776  0.3387  0.9331
  231SOL     OW16112   2.717   2.903   1.698  0.0154 -0.4105  0.3064
  231SOL    HW116113   2.663   2.848   1.755 -0.5531  0.9318  1.0844
  231SOL    HW216114   2.807   2.878   1.719 -0.1682  0.3197  2.0740
  232SOL     OW16115   3.555   2.996   1.242  0.0031 -0.0070 -0.1835
  232SOL    HW116116   3.567   3.062   1.310  0.5268 -0.7627  0.4623
  232SOL    HW216117   3.490   3.034   1.183 -1.5926  0.0082  1.5462
  233SOL     OW16118   2.482   4.079   1.379 -0.0337 -0.4247 -0.4007
  233SOL    HW116119   2.517   4.115   1.460  2.6981 -1.9610 -0.8347
  233SOL    HW216120   2.479   4.152   1.318 -0.4475  0.3599  0.5576
  234SOL     OW16121   1.458   4.648   9.269  0.0952 -0.0194 -0.3447
  234SOL    HW116122   1.393   4.639   9.199  2.3256  0.3892 -2.5040
  234SOL    HW216123   1.416   4.705   9.333 -1.4892  0.6340 -1.9194
  235SOL     OW16124   1.602   3.012   3.077 -0.4156 -0.4781  0.1260
  235SOL    HW116125   1.555   3.078   3.026 -2.4012 -0.3519  2.0350
  235SOL    HW216126   1.573   2.929   3.040  0.2335 -0.3272 -0.7183
  236SOL     OW16127   2.509   3.439  11.535 -0.1084 -0.4616  0.3214
  236SOL    HW116128   2.552   3.524  11.547  0.1736 -0.5053 -0.3739
  236SOL    HW216129   2.425   3.461  11.493  0.5654 -0.6404 -1.1552
  237SOL     OW16130   2.313   5.548  10.691 -0.3527  0.6771  0.0841
  237SOL    HW116131   2.367   5.595  10.627 -0.7650 -1.3581 -1.8206
  237SOL    HW216132   2.376   5.499  10.744 -0.0886  1.3494  0.3955
  238SOL     OW16133   1.904   2.150   9.733  0.0417  0.1066 -0.4845
  238SOL    HW116134   1.903   2.064   9.774  0.7161  0.2083 -0.2468
  238SOL    HW216135   1.821   2.156   9.686 -0.4549 -0.2669  0.3390
  239SOL     OW16136   4.476   2.667   9.707  0.4290  0.3423 -0.0185
  239SOL    HW116137   4.533   2.654   9.783 -2.0707 -1.6817  1.5746
  239SOL    HW216138   4.389   2.640   9.736 -0.7436  0.2152 -3.3845
  240SOL     OW16139   4.254   4.568   9.938  0.5079  0.3848  0.4635
  240SOL    HW116140   4.164   4.534   9.935  0.0511  1.5869  0.0806
  240SOL    HW216141   4.243   4.661   9.960  1.5671  0.9563 -1.3527
  241SOL     OW16142   0.493   2.089   1.901  0.7881 -0.3054  0.5451
  241SOL    HW116143   0.521   1.999   1.917 -0.2108 -0.4467  1.5686
  241SOL    HW216144   0.539   2.140   1.968 -0.2027 -0.3352  1.2613
  242SOL     OW16145   0.910   3.986   1.339  0.3918  0.4238  0.9151
  242SOL    HW116146   0.879   3.942   1.418  0.7869  0.8479  1.3071
  242SOL    HW216147   0.831   4.023   1.300  0.3486  1.1884  1.7152
  243SOL     OW16148   1.051   3.289   7.965  0.3635 -0.2718  0.0661
  243SOL    HW116149   0.999   3.284   8.045  1.1667 -1.4535  0.5287
  243SOL    HW216150   0.987   3.299   7.894 -0.4340 -0.7742  0.7096
  244SOL     OW16151   2.953   1.890   9.418  0.5363  0.0473 -0.8736
  244SOL    HW116152   2.970   1.867   9.509  0.6479 -0.6859 -1.0718
  244SOL    HW216153   2.864   1.859   9.401  1.1157 -1.3645 -1.4870
  245SOL     OW16154   5.111   1.274  10.965 -0.0691 -0.3729 -0.1473
  245SOL    HW116155   5.086   1.211  11.032  0.1760  0.3101  0.5892
  245SOL    HW216156   5.205   1.284  10.975 -0.1311  0.2272 -0.1705
  246SOL     OW16157   0.839   5.060   7.601  0.4553  0.0912 -0.3003
  246SOL    HW116158   0.894   4.990   7.637  0.8686  1.2942  1.4352
  246SOL    HW216159   0.859   5.137   7.653 -2.4473  0.7064  0.0234
  247SOL     OW16160   3.066   2.009   7.692 -0.1787  0.0015  0.0672
  247SOL    HW116161   3.072   1.926   7.644  2.1204  0.4050 -0.4136
  247SOL    HW216162   3.006   2.062   7.640 -1.8051 -1.4040  0.4700
  248SOL     OW16163   1.769   1.813   9.584 -0.1742 -0.4978  0.2994
  248SOL    HW116164   1.847   1.840   9.535 -0.0951  0.2287  0.8104
  248SOL    HW216165   1.697   1.827   9.523 -0.3097  2.3040  1.0065
  249SOL     OW16166   1.519   2.771   2.968 -0.4808  0.2178 -0.1610
  249SOL    HW116167   1.448   2.824   2.934  0.9472  0.9234 -2.1401
  249SOL    HW216168   1.491   2.681   2.955 -0.3758  0.4822 -2.3858
  250SOL     OW16169   3.347   0.605   8.990 -0.3106  0.0929  0.0522
  250SOL    HW116170   3.426   0.587   8.939  2.2447  0.7300  3.5159
  250SOL    HW216171   3.333   0.526   9.041  0.6211  1.4396  2.4996
  251SOL     OW16172   0.781   3.902  12.171 -0.2191 -0.4967 -0.3198
  251SOL    HW116173   0.762   3.993  12.191 -1.7989 -0.5620 -1.4457
  251SOL    HW216174   0.695   3.862  12.155  0.7039 -1.2296 -3.8561
  252SOL     OW16175   3.579   5.311  12.442  0.0332  0.4288 -0.0711
  252SOL    HW116176   3.530   5.283  12.519 -1.1794 -0.1908 -1.0474
  252SOL    HW216177   3.654   5.359  12.477  0.5184 -1.4601  1.5463
  253SOL     OW16178   3.514   0.581   0.188 -0.0016  0.0069  0.2253
  253SOL    HW116179   3.487   0.548   0.274  3.0346  1.7877  1.9308
  253SOL    HW216180   3.498   0.675   0.192  1.6775  0.3444 -0.5435
  254SOL     OW16181   0.505   3.150  11.339 -0.0592  0.4813  0.5051
  254SOL    HW116182   0.590   3.169  11.301  0.1723 -2.0215 -0.3040
  254SOL    HW216183   0.444   3.154  11.265 -0.7774  2.9137  1.1912
  255SOL     OW16184   1.416   1.672   3.041 -0.3283  0.1276  0.2748
  255SOL    HW116185   1.494   1.675   3.097 -0.0840  1.0224 -0.0941
  255SOL    HW216186   1.352   1.623   3.091  0.8916 -1.7505  0.0657
  256SOL     OW16187   1.924   0.967   1.969 -0.1814  0.1331  0.2660
  256SOL    HW116188   1.940   0.956   1.875  0.3812 -2.9753  0.6717
  256SOL    HW216189   2.011   0.960   2.009 -0.5453  0.4031  1.1113
  257SOL     OW16190   5.722   5.275   2.015 -0.5580  0.0985  0.1952
  257SOL    HW116191   5.709   5.369   2.023  0.5635  0.3610 -0.7889
  257SOL    HW216192   5.692   5.239   2.099  0.3399  1.4853  1.1420
  258SOL     OW16193   1.162   4.042  10.290  0.0075 -0.2529 -0.1731
  258SOL    HW116194   1.197   4.104  10.227 -2.2510  1.8261  0.5044
  258SOL    HW216195   1.190   4.076  10.375 -0.4548 -0.6636  0.1505
  259SOL     OW16196   0.827   2.688   9.456 -0.0419 -0.4000 -0.3509
  259SOL    HW116197   0.811   2.775   9.492 -0.2380 -0.7148  0.3475
  259SOL    HW216198   0.845   2.703   9.363 -0.4787  0.3459 -0.3221
  260SOL     OW16199   0.334   0.247   2.548 -0.2592  0.2094  0.1621
  260SOL    HW116200   0.406   0.299   2.512 -1.2134 -0.2444 -2.5927
  260SOL    HW216201   0.301   0.299   2.621  0.6000  2.1522 -0.7860
  261SOL     OW16202   1.486   5.172  11.745  0.5232 -0.3245  0.1792
  261SOL    HW116203   1.435   5.123  11.680  0.1675  0.0259  0.1928
  261SOL    HW216204   1.576   5.143  11.731  0.1169 -2.2412  1.2945
  262SOL     OW16205   0.152   1.103   2.925  0.9004 -0.0656  0.1519
  262SOL    HW116206   0.206   1.182   2.928  0.9744 -0.1465  1.3853
  262SOL    HW216207   0.080   1.121   2.985  1.2016 -1.1339  0.8598
  263SOL     OW16208   4.257   2.410   1.786 -0.0249  0.2183  0.4542
  263SOL    HW116209   4.179   2.368   1.750  0.9452 -0.7772 -0.4947
  263SOL    HW216210   4.237   2.504   1.782 -1.4782 -0.0471  0.9449
  264SOL     OW16211   1.604   0.713  11.299  0.4561 -0.4720  0.2197
  264SOL    HW116212   1.660   0.788  11.316  1.7980 -2.3196  4.8931
  264SOL    HW216213   1.664   0.638  11.297 -1.3098 -1.9412  0.1553
  265SOL     OW16214   5.690   4.504   9.625  0.4495 -0.0254  0.1674
  265SOL    HW116215   5.629   4.540   9.561 -0.7868 -1.6761  0.3818
  265SOL    HW216216   5.770   4.487   9.574 -1.0849 -2.9596 -1.4203
  266SOL     OW16217   2.846   5.107  10.582 -0.1980  0.0352  0.6489
  266SOL    HW116218   2.876   5.108  10.492 -1.1953 -0.0381  0.3032
  266SOL    HW216219   2.920   5.074  10.633  0.3038 -0.0798 -0.1600
  267SOL     OW16220   3.753   2.663   0.480 -0.2575  0.3736  0.0321
  267SOL    HW116221   3.719   2.729   0.541 -0.9333  0.5434 -0.5146
  267SOL    HW216222   3.787   2.714   0.407  2.7859  0.2957  1.3201
  268SOL     OW16223   1.938   0.130  10.706 -0.1032  0.2396  0.4672
  268SOL    HW116224   1.862   0.152  10.653 -0.7262  0.2523  1.3583
  268SOL    HW216225   1.998   0.204  10.694 -0.7869  0.8534  0.7980
  269SOL     OW16226   3.572   5.055   3.479  0.0679 -0.5055 -0.7057
  269SOL    HW116227   3.608   5.043   3.391  0.5116 -0.6724 -0.5064
  269SOL    HW216228   3.548   5.148   3.482 -0.4379 -0.6202 -1.1815
  270SOL     OW16229   3.058   0.037  10.952  0.3535  0.3381  0.3258
  270SOL    HW116230   3.022  -0.000  11.033  2.0747 -0.6909  0.6524
  270SOL    HW216231   3.077   0.128  10.975  0.2178  0.2332  0.8813
  271SOL     OW16232   2.493   3.960   8.521  0.7810 -0.2346  1.1033
  271SOL    HW116233   2.423   3.919   8.471  1.1990  1.1329 -0.6532
  271SOL    HW216234   2.544   3.887   8.557  0.2725 -1.2372 -0.1969
  272SOL     OW16235   4.037   1.013   1.519  0.7785 -0.1997  0.1807
  272SOL    HW116236   4.022   0.918   1.522  0.6741 -0.1330  2.1538
  272SOL    HW216237   3.949   1.051   1.519  0.8335 -0.0742  0.5267
  273SOL     OW16238   3.877   0.662   1.651  0.3587  0.7495 -0.4549
  273SOL    HW116239   3.849   0.572   1.636 -0.1324  0.6138  1.1869
  273SOL    HW216240   3.964   0.667   1.612  0.5106 -0.5193 -0.2791
  274SOL     OW16241   2.254   2.911  10.891 -0.1435  0.0385  0.1031
  274SOL    HW116242   2.177   2.960  10.922  1.3830  2.6153 -0.0144
  274SOL    HW216243   2.218   2.844  10.833 -2.3245  1.0968  0.1617
  275SOL     OW16244   2.675   2.396   8.514 -0.3880  0.3911 -0.1143
  275SOL    HW116245   2.590   2.437   8.494 -1.3402 -0.5901  1.8427
  275SOL    HW216246   2.706   2.442   8.592  0.3254 -0.0468 -0.1411
  276SOL     OW16247   4.924   1.656  10.773  0.6420 -0.3980  0.0393
  276SOL    HW116248   4.907   1.722  10.706 -0.4158 -0.3275  0.3732
  276SOL    HW216249   5.012   1.676  10.804  0.4630  0.6554 -0.0985
  277SOL     OW16250   2.976   3.116   1.030  0.1582  0.2919  0.0698
  277SOL    HW116251   2.906   3.129   0.966 -0.5732  1.1972  1.0357
  277SOL    HW216252   3.055   3.150   0.987  0.2623 -1.7732 -1.4725
  278SOL     OW16253   1.555   5.428  11.861  0.5469 -0.3637  0.3674
  278SOL    HW116254   1.628   5.469  11.815  0.3215  0.7340  0.9762
  278SOL    HW216255   1.532   5.352  11.806  2.4706 -1.0379  0.4470
  279SOL     OW16256   3.711   2.157  10.808 -0.6689 -0.4938 -0.4986
  279SOL    HW116257   3.756   2.234  10.774  0.3434  0.3216  2.5253
  279SOL    HW216258   3.777   2.088  10.807 -0.6271 -0.4614 -0.2061
  280SOL     OW16259   4.958   2.457   2.654  0.4050  0.0946  0.5965
  280SOL    HW116260   4.937   2.367   2.629 -0.2804  0.0455  1.3410
  280SOL    HW216261   5.046   2.471   2.619  0.3589 -0.7270  0.1278
  281SOL     OW16262   1.727   1.783   2.550 -0.2271  0.3807  0.2501
  281SOL    HW116263   1.677   1.835   2.613 -2.4891 -2.2771  0.7332
  281SOL    HW216264   1.728   1.695   2.587  0.9759 -0.5882 -1.9901
  282SOL     OW16265   4.530   3.733   7.906 -0.7828 -0.1114  0.0520
  282SOL    HW116266   4.531   3.701   7.996 -0.0704 -1.9192 -0.5896
  282SOL    HW216267   4.615   3.709   7.870 -1.5776 -0.6403 -1.5248
  283SOL     OW16268   2.216   1.767  10.954 -0.1398 -0.3926  0.3088
  283SOL    HW116269   2.302   1.782  10.913 -0.9113  0.7880 -0.9211
  283SOL    HW216270   2.153   1.797  10.889 -1.4861 -0.8492  1.3798
  284SOL     OW16271   2.625   3.505  11.015 -0.0449 -0.3672 -0.0674
  284SOL    HW116272   2.546   3.476  11.060  0.3943 -2.3919 -0.5858
  284SOL    HW216273   2.620   3.601  11.019 -2.8282 -0.4451 -0.6173
  285SOL     OW16274   0.995   0.790  11.754 -0.3086 -0.0063  0.2016
  285SOL    HW116275   1.000   0.699  11.725 -0.8497 -0.1544  0.5570
  285SOL    HW216276   0.903   0.814  11.740 -0.5007  0.0167  1.5030
  286SOL     OW16277   4.787   0.332   9.713 -0.4713  0.5633 -0.4444
  286SOL    HW116278   4.755   0.333   9.803  0.9993  0.7671  0.0801
  286SOL    HW216279   4.770   0.243   9.682 -0.4160  0.3173  0.2319
  287SOL     OW16280   4.757   4.277  10.664  0.0677 -0.9302  0.1550
  287SOL    HW116281   4.728   4.257  10.753  2.0084  0.4204  1.1138
  287SOL    HW216282   4.838   4.227  10.653  1.9463  1.8952  0.5836
  288SOL     OW16283   5.889   0.589   2.251  0.1255 -0.1627  0.2466
  288SOL    HW116284   5.982   0.604   2.263  0.1000  0.3060 -0.1398
  288SOL    HW216285   5.846   0.650   2.312  0.0270  1.0817 -1.0588
  289SOL     OW16286   3.853   2.369  10.732 -0.1482 -0.9452 -0.4338
  289SOL    HW116287   3.834   2.460  10.753  1.0740 -1.0115  1.0444
  289SOL    HW216288   3.910   2.374  10.655  0.8991 -0.4030  0.3649
  290SOL     OW16289   4.860   2.046   0.701  0.3179 -0.4208  0.4604
  290SOL    HW116290   4.869   2.095   0.619  0.7964  0.0495  0.7898
  290SOL    HW216291   4.921   2.089   0.761 -1.7903  0.7823  1.8069
  291SOL     OW16292   5.929   0.182   2.642  0.3913  0.1173  0.2509
  291SOL    HW116293   6.000   0.118   2.643  2.0400  1.8996  0.5358
  291SOL    HW216294   5.861   0.144   2.697  1.2329 -1.4765  0.2227
  292SOL     OW16295   0.657   5.627   3.735  0.3407 -0.5641  0.2527
  292SOL    HW116296   0.747   5.650   3.760  0.3723 -1.7750  1.2945
  292SOL    HW216297   0.664   5.602   3.643  0.9784 -0.1117  0.1746
  293SOL     OW16298   1.141   2.740  10.305  0.3635  0.3672 -0.3692
  293SOL    HW116299   1.142   2.660  10.359 -0.0718 -0.9166 -2.2262
  293SOL    HW216300   1.109   2.711  10.220  1.3895  2.3077 -1.4480
  294SOL     OW16301   3.620   1.429   2.541 -0.5301  0.1867 -0.1681
  294SOL    HW116302   3.537   1.385   2.520 -0.8042  0.5213  0.2145
  294SOL    HW216303   3.602   1.522   2.527 -0.2498  0.2702  0.0176
  295SOL     OW16304   1.910   4.761   2.845 -0.3320 -0.2052 -0.4362
  295SOL    HW116305   1.836   4.735   2.789 -1.3256  1.2708  0.1453
  295SOL    HW216306   1.898   4.856   2.856  0.1634 -0.3902  1.8201
  296SOL     OW16307   2.560   4.145   9.494 -0.3844  0.2909 -0.0416
  296SOL    HW116308   2.592   4.073   9.548 -0.1528 -0.8391 -1.6336
  296SOL    HW216309   2.527   4.102   9.415 -2.9634  1.6902  0.2362
  297SOL     OW16310   4.604   3.818   8.446  0.0020 -0.3232 -0.4222
  297SOL    HW116311   4.687   3.839   8.490  0.0179 -1.0370 -0.1046
  297SOL    HW216312   4.548   3.784   8.515 -0.1044 -1.0916 -0.8807
  298SOL     OW16313   0.524   3.203   8.623  0.5243 -0.0457 -1.0426
  298SOL    HW116314   0.616   3.226   8.620  0.6756 -0.6703 -1.4176
  298SOL    HW216315   0.521   3.111   8.597  0.1913 -1.2015  2.8794
  299SOL     OW16316   3.205   3.513   9.746 -0.3522  0.3336 -0.4944
  299SOL    HW116317   3.115   3.545   9.753 -0.5696 -0.3442 -0.1290
  299SOL    HW216318   3.252   3.560   9.815 -1.0072 -1.2509  1.0922
  300SOL     OW16319   0.813   1.636  11.706  0.4475  0.2096 -0.3679
  300SOL    HW116320   0.790   1.728  11.708  0.3833  0.2182 -1.3682
  300SOL    HW216321   0.908   1.635  11.722  0.6260  0.5198 -1.3764
  301SOL     OW16322   1.690   3.765   8.313 -0.2278  0.5743 -0.2236
  301SOL    HW116323   1.768   3.754   8.368 -0.8137 -0.3188  0.4364
  301SOL    HW216324   1.725   3.789   8.227  0.7369  1.0134  0.2794
  302SOL     OW16325   0.219   2.179   8.509  0.3896  0.2607  0.1895
  302SOL    HW116326   0.196   2.122   8.437 -1.2532  0.5475  0.4527
  302SOL    HW216327   0.261   2.255   8.468  0.0567  0.1213 -0.4163
  303SOL     OW16328   4.892   4.420  11.621 -0.5707  0.3574 -0.6173
  303SOL    HW116329   4.960   4.435  11.687  0.1185  0.7124 -1.4074
  303SOL    HW216330   4.829   4.362  11.665  0.3144 -0.0947  0.0742
  304SOL     OW16331   2.443   4.964  11.778  0.7939  0.3596 -0.5599
  304SOL    HW116332   2.410   4.959  11.867  3.3577 -1.3807  0.3251
  304SOL    HW216333   2.373   4.927  11.724  0.0602 -0.4271  0.9207
  305SOL     OW16334   1.059   1.479   3.582  0.0900  0.8746 -0.5904
  305SOL    HW116335   1.037   1.388   3.600  0.4765  1.0944  1.0914
  305SOL    HW216336   1.040   1.490   3.489 -2.4896 -0.1752 -0.2268
  306SOL     OW16337   3.812   3.647   0.024 -0.2025  0.1405  0.0444
  306SOL    HW116338   3.889   3.700   0.005 -3.4653  3.9224 -3.6538
  306SOL    HW216339   3.797   3.659   0.118  1.4391  2.6159  0.0364
  307SOL     OW16340   1.283   2.230   2.717 -0.2169  0.3787 -0.1135
  307SOL    HW116341   1.341   2.291   2.672  0.0466  0.3105  0.1277
  307SOL    HW216342   1.338   2.189   2.783 -0.3705 -0.1928 -0.3366
  308SOL     OW16343   4.691   1.633  11.273 -0.0317 -0.1866 -0.9861
  308SOL    HW116344   4.651   1.553  11.241 -0.2206 -0.0548 -1.0850
  308SOL    HW216345   4.776   1.637  11.229 -0.0030 -0.3540 -0.9478
  309SOL     OW16346   2.640   1.154  10.527  0.9302  0.2731 -0.0312
  309SOL    HW116347   2.551   1.119  10.520  1.2288 -0.4014 -0.5072
  309SOL    HW216348   2.635   1.241  10.487  0.6975 -0.1455 -0.9205
  310SOL     OW16349   1.317   0.729   1.953 -0.3834  0.3044  0.0464
  310SOL    HW116350   1.238   0.765   1.912 -0.9798 -0.3288  0.6266
  310SOL    HW216351   1.297   0.637   1.966  0.8226 -0.0634 -0.6593
  311SOL     OW16352   5.114   3.411   0.253 -0.4979 -0.4266 -0.1461
  311SOL    HW116353   5.170   3.366   0.190 -0.3208 -0.2399 -0.1227
  311SOL    HW216354   5.027   3.411   0.213 -0.3736 -0.2527 -0.4158
  312SOL     OW16355   5.247   4.067   8.198 -0.4353  0.0819 -0.0668
  312SOL    HW116356   5.215   4.109   8.118 -2.6454  0.7397  1.1211
  312SOL    HW216357   5.277   4.139   8.253  0.2495 -0.2927  0.0565
  313SOL     OW16358   3.148   5.553   1.206 -0.2735  0.2479  0.1536
  313SOL    HW116359   3.136   5.638   1.249  0.9316 -0.4857  1.9973
  313SOL    HW216360   3.242   5.538   1.206 -0.4849 -1.2031  0.0829
  314SOL     OW16361   0.634   5.483   8.673  0.3756 -1.0468 -0.0932
  314SOL    HW116362   0.722   5.483   8.636  1.0246  0.8181  1.3424
  314SOL    HW216363   0.620   5.574   8.701 -2.2936 -1.1400 -0.9503
  315SOL     OW16364   3.267   2.723   9.515  0.1493 -0.0377  0.7916
  315SOL    HW116365   3.260   2.756   9.605 -0.2078 -0.1421  0.8035
  315SOL    HW216366   3.243   2.798   9.460 -0.6134 -0.2530  0.8173
  316SOL     OW16367   2.907   4.698  12.127  0.1810  0.0918 -0.2118
  316SOL    HW116368   2.972   4.764  12.102  0.9176 -1.1268 -1.5788
  316SOL    HW216369   2.830   4.749  12.154  1.1661  1.5184 -0.0649
  317SOL     OW16370   2.969   3.449   1.734  0.1168  0.4224 -0.0469
  317SOL    HW116371   3.020   3.507   1.676 -0.2423 -0.6145 -1.4142
  317SOL    HW216372   2.970   3.364   1.690 -0.7424 -0.2121  1.1424
  318SOL     OW16373   0.560   3.836   8.483 -0.2331  0.3362  0.5335
  318SOL    HW116374   0.499   3.814   8.413  2.6097  1.6955 -2.5092
  318SOL    HW216375   0.530   3.920   8.516  1.4867  2.3845 -2.8736
  319SOL     OW16376   5.134   3.130   8.911 -0.3741  0.1160 -0.9439
  319SOL    HW116377   5.162   3.220   8.890 -0.3563  0.1004 -0.9896
  319SOL    HW216378   5.187   3.106   8.987 -0.4292  0.1706 -0.8861
  320SOL     OW16379   5.889   0.157  11.873 -0.0439 -0.0339  0.5169
  320SOL    HW116380   5.980   0.183  11.860 -0.5131  0.0901 -3.2878
  320SOL    HW216381   5.894   0.077  11.926  2.0644  1.4244  2.6301
  321SOL     OW16382   0.671   1.731  10.792 -0.2341 -0.0294  0.0872
  321SOL    HW116383   0.652   1.760  10.702  2.3181  3.2165  0.5123
  321SOL    HW216384   0.592   1.753  10.841 -0.7046  0.5022 -0.8911
  322SOL     OW16385   1.753   3.183   4.435  0.2635 -0.1179  0.7690
  322SOL    HW116386   1.673   3.136   4.410  0.1169  0.3817  0.2903
  322SOL    HW216387   1.728   3.275   4.434  0.4568 -0.0436  2.0647
  323SOL     OW16388   4.981   1.780   1.266  0.0552  0.2368  0.2346
  323SOL    HW116389   5.006   1.689   1.280 -3.0662 -0.2379  3.3419
  323SOL    HW216390   4.893   1.776   1.228 -1.3928  1.9287  3.2533
  324SOL     OW16391   4.051   2.818   7.248  0.0916  0.1144 -0.2637
  324SOL    HW116392   4.064   2.902   7.204  0.8611  0.7243  1.0866
  324SOL    HW216393   4.138   2.778   7.248 -0.1708 -0.4558 -0.4471
  325SOL     OW16394   4.061   4.228   0.873  0.1628  0.4547  0.0463
  325SOL    HW116395   4.099   4.153   0.919 -1.6526 -0.0659  0.7318
  325SOL    HW216396   4.009   4.190   0.803 -1.0061  1.0476  0.5810
  326SOL     OW16397   2.189   3.232   0.777 -0.3232 -0.0651 -0.1112
  326SOL    HW116398   2.187   3.164   0.844  1.0105 -1.1331 -1.1287
  326SOL    HW216399   2.124   3.296   0.806 -0.9777 -1.3423  1.3084
  327SOL     OW16400   4.877   0.934   2.864 -0.3897 -0.1347 -0.1139
  327SOL    HW116401   4.876   0.987   2.785 -0.3540 -0.8816 -0.6150
  327SOL    HW216402   4.965   0.895   2.865 -0.9205 -1.3578 -0.5282
  328SOL     OW16403   5.374   0.908   9.466 -0.3707 -0.0529  0.1632
  328SOL    HW116404   5.313   0.861   9.410 -0.1309 -0.2607  0.0761
  328SOL    HW216405   5.366   0.866   9.551 -2.4752  1.7712  0.9218
  329SOL     OW16406   4.967   3.669   9.888 -0.1729 -0.3033 -0.1741
  329SOL    HW116407   5.050   3.672   9.840  0.4614 -1.2839  0.8359
  329SOL    HW216408   4.937   3.579   9.878  0.6164 -0.8721  2.3357
  330SOL     OW16409   4.797   3.464  10.480 -0.0981  0.4100 -0.6847
  330SOL    HW116410   4.724   3.517  10.448 -0.3436 -0.1893 -1.1222
  330SOL    HW216411   4.875   3.513  10.456 -0.3334  0.6914 -0.8776
  331SOL     OW16412   1.246   5.007   9.772 -0.5608 -0.4543  0.0758
  331SOL    HW116413   1.165   5.049   9.798  0.7802  2.1134  0.2507
  331SOL    HW216414   1.315   5.055   9.818  1.2961 -0.4933 -2.5150
  332SOL     OW16415   5.517   5.536  12.044 -0.3226 -0.2103 -0.3545
  332SOL    HW116416   5.496   5.555  11.952 -0.8998 -2.6081 -0.7438
  332SOL    HW216417   5.613   5.534  12.046 -0.2914  0.5156 -0.7535
  333SOL     OW16418   2.766   2.250   2.624  0.2840  0.9896 -0.3308
  333SOL    HW116419   2.799   2.301   2.699 -0.8851  0.1733  0.7529
  333SOL    HW216420   2.674   2.274   2.618 -0.5027 -1.6334  0.7404
  334SOL     OW16421   5.918   1.046   8.362  0.0062 -0.3372 -0.5595
  334SOL    HW116422   5.837   1.088   8.387  0.8218 -1.0503  3.6072
  334SOL    HW216423   5.892   0.958   8.334 -0.7127 -0.4046  0.3090
  335SOL     OW16424   4.671   3.100   3.250 -0.3719  0.2349 -0.1523
  335SOL    HW116425   4.708   3.140   3.328 -1.4444  1.2473 -0.1487
  335SOL    HW216426   4.625   3.022   3.282 -1.4536  1.0650  0.3219
  336SOL     OW16427   2.250   4.994   7.835 -0.2982  0.4974 -0.2670
  336SOL    HW116428   2.161   5.015   7.807 -0.7239  1.0748  1.4152
  336SOL    HW216429   2.241   4.974   7.928  1.2371 -0.0954 -0.2305
  337SOL     OW16430   0.947   5.416   3.738  0.0388  0.1839 -0.1106
  337SOL    HW116431   0.947   5.451   3.649  1.3053  0.1808 -0.1155
  337SOL    HW216432   0.934   5.494   3.793 -2.2110  0.0177 -0.3340
  338SOL     OW16433   2.645   0.068   3.717  0.8252  0.4677  0.1325
  338SOL    HW116434   2.731   0.088   3.754 -0.0888  1.1321  1.9329
  338SOL    HW216435   2.629  -0.024   3.740  1.8957 -0.3013 -1.9665
  339SOL     OW16436   4.936   1.073   0.608  0.1759 -0.0763 -0.1860
  339SOL    HW116437   4.936   1.131   0.684  0.8808 -1.4848  0.9054
  339SOL    HW216438   5.027   1.071   0.579  0.1710 -0.6853 -0.1728
  340SOL     OW16439   0.809   3.762   8.411 -0.0384 -0.3494 -0.1807
  340SOL    HW116440   0.730   3.773   8.464  1.1675  1.3957  1.3190
  340SOL    HW216441   0.790   3.808   8.330 -0.7056 -0.2722  0.0133
  341SOL     OW16442   1.566   5.763   2.511  0.3504  0.3244 -0.5951
  341SOL    HW116443   1.511   5.817   2.455  0.9515  0.8544 -0.6798
  341SOL    HW216444   1.609   5.702   2.450 -0.3316 -0.2681 -0.4997
  342SOL     OW16445   1.734   2.532   0.884 -0.0550  0.3989 -0.1476
  342SOL    HW116446   1.697   2.558   0.968  1.3564 -1.1299  0.9790
  342SOL    HW216447   1.721   2.437   0.880  0.5746  0.3439 -1.3023
  343SOL     OW16448   3.459   4.075  12.376 -0.3216  0.0288  0.2925
  343SOL    HW116449   3.471   4.144  12.311  2.0188 -1.2100 -0.6383
  343SOL    HW216450   3.478   3.994  12.329 -1.4442 -1.1443  1.7922
  344SOL     OW16451   3.537   4.534   7.809 -0.1164  0.4446  0.5366
  344SOL    HW116452   3.594   4.578   7.873  1.8179 -0.4695 -0.5215
  344SOL    HW216453   3.555   4.579   7.726 -0.2374 -0.4800  0.0051
  345SOL     OW16454   1.796   2.970   2.081  0.1067 -0.5365  0.1454
  345SOL    HW116455   1.883   2.963   2.122 -0.4150  0.9737  1.5841
  345SOL    HW216456   1.791   3.061   2.050 -0.7426 -0.7659 -0.4044
  346SOL     OW16457   4.375   3.017  12.075 -0.2338  0.0836  0.0408
  346SOL    HW116458   4.403   3.106  12.093  0.2764 -0.0551 -0.0504
  346SOL    HW216459   4.301   3.026  12.014 -0.7300  0.4731  0.6966
  347SOL     OW16460   0.914   3.723  12.347  0.8160  0.5503  0.0513
  347SOL    HW116461   1.008   3.708  12.339  0.8986  0.8874  0.3634
  347SOL    HW216462   0.897   3.799  12.291  0.2949 -1.0620 -2.0432
  348SOL     OW16463   1.392   0.198   2.299  0.0965  0.2074 -0.7352
  348SOL    HW116464   1.454   0.265   2.269 -0.7375  1.2623 -0.1401
  348SOL    HW216465   1.379   0.217   2.392  1.4640 -2.0896 -0.0432
  349SOL     OW16466   1.361   1.980  10.540  0.4787 -0.1257  0.2415
  349SOL    HW116467   1.387   1.913  10.603  2.1008  1.0155  0.8370
  349SOL    HW216468   1.432   1.981  10.476 -0.9830 -1.0206 -1.4157
  350SOL     OW16469   3.828   4.983   9.898  0.2069 -0.0234 -0.1660
  350SOL    HW116470   3.916   4.961   9.930  0.2720  1.3371  0.6228
  350SOL    HW216471   3.834   5.074   9.872 -0.7998 -0.1257 -0.7627
  351SOL     OW16472   3.228   4.587   3.392  0.1131 -0.4684  0.3742
  351SOL    HW116473   3.151   4.577   3.336  0.5415 -0.0354 -0.3020
  351SOL    HW216474   3.293   4.527   3.354 -0.2187 -1.5910  1.5502
  352SOL     OW16475   4.425   4.741  12.052 -0.1007 -0.0193 -0.3848
  352SOL    HW116476   4.439   4.811  12.115 -3.0435 -1.2990  1.8317
  352SOL    HW216477   4.395   4.785  11.973  1.8524  1.4842 -0.3089
  353SOL     OW16478   1.829   3.132   3.665  0.4093  0.4050  0.3308
  353SOL    HW116479   1.916   3.169   3.677 -0.1896  1.3888  1.6959
  353SOL    HW216480   1.845   3.039   3.647  1.7734  0.7422 -0.2521
  354SOL     OW16481   4.843   4.774   0.190  0.5687 -0.3150  0.0717
  354SOL    HW116482   4.839   4.685   0.226  2.2914 -2.2907 -4.3352
  354SOL    HW216483   4.936   4.791   0.175  0.2118  1.9835  0.1942
  355SOL     OW16484   0.792   3.758   2.404 -0.1613 -0.6517  0.1641
  355SOL    HW116485   0.796   3.785   2.496 -0.8916  0.3345 -0.0898
  355SOL    HW216486   0.768   3.837   2.357  4.2704 -0.1081 -1.4075
  356SOL     OW16487   0.260   5.579   0.314 -0.2443 -0.3873 -0.7305
  356SOL    HW116488   0.289   5.647   0.375 -1.6163 -1.2537  0.9607
  356SOL    HW216489   0.205   5.626   0.251  1.1857  0.5239 -1.3220
  357SOL     OW16490   5.805   1.989   8.986 -0.6758 -0.1079  0.3452
  357SOL    HW116491   5.783   2.027   9.071 -1.4527 -1.7967  0.9141
  357SOL    HW216492   5.724   1.997   8.935 -0.2419  0.8138 -0.2098
  358SOL     OW16493   3.022   5.292  -0.002  0.0546  0.4109  0.0274
  358SOL    HW116494   3.054   5.375   0.033  0.8236 -0.1783  0.7413
  358SOL    HW216495   3.016   5.234   0.074  0.7092 -0.5577 -0.6496
  359SOL     OW16496   4.342   0.634   1.947 -0.5741 -0.6116  0.1452
  359SOL    HW116497   4.292   0.715   1.937 -0.3767 -0.3556  1.1360
  359SOL    HW216498   4.283   0.565   1.917 -1.7256 -0.3748  1.7630
  360SOL     OW16499   1.376   3.183   3.285  0.0168 -0.1259  0.1580
  360SOL    HW116500   1.468   3.178   3.259 -0.1138  0.8901 -0.5318
  360SOL    HW216501   1.358   3.277   3.292 -0.9767 -0.3148  0.2313
  361SOL     OW16502   5.190   2.329  11.556 -0.3806  0.1105  0.6483
  361SOL    HW116503   5.119   2.286  11.604 -0.1668 -0.0081  0.8620
  361SOL    HW216504   5.177   2.302  11.465 -0.8674  0.4433  0.6126
  362SOL     OW16505   5.414   0.746   0.931 -0.0259  0.0578  0.1425
  362SOL    HW116506   5.420   0.714   0.840  1.3201  0.2543  0.1573
  362SOL    HW216507   5.334   0.799   0.932  0.0110  0.1522 -0.9673
  363SOL     OW16508   5.101   3.338   0.521 -0.0727 -0.2797 -0.4071
  363SOL    HW116509   5.127   3.246   0.522  1.5260  0.1543  0.6635
  363SOL    HW216510   5.116   3.366   0.431  1.8890 -0.4292 -0.1656
  364SOL     OW16511   1.296   3.478   2.530 -0.2897  0.3528  0.4583
  364SOL    HW116512   1.332   3.563   2.554  1.0166  0.1429 -0.6754
  364SOL    HW216513   1.275   3.487   2.437  0.3319 -0.7121  0.2024
  365SOL     OW16514   5.806   3.432   8.990  0.5122 -0.4877 -0.0082
  365SOL    HW116515   5.815   3.401   9.080  1.3426  2.9514  1.1737
  365SOL    HW216516   5.711   3.436   8.976  0.3739 -0.7327  0.8094
  366SOL     OW16517   2.547   4.776  11.375  0.6664 -0.5609 -0.3470
  366SOL    HW116518   2.551   4.760  11.469 -1.4613 -0.2931 -0.1984
  366SOL    HW216519   2.607   4.850  11.361  2.6410 -1.9506  0.4552
  367SOL     OW16520   3.978   0.944   3.958  0.1307  0.3486  0.2585
  367SOL    HW116521   3.920   0.931   3.883 -0.5830  0.9553  0.7112
  367SOL    HW216522   4.053   0.886   3.940  0.6616  1.5727 -1.6481
  368SOL     OW16523   2.720   5.716   3.243 -0.5614  0.1248  0.3261
  368SOL    HW116524   2.650   5.746   3.185 -0.7062  1.8802  1.3930
  368SOL    HW216525   2.678   5.705   3.328 -0.0705 -1.2171  0.4016
  369SOL     OW16526   4.001   4.943  12.277 -0.2202 -0.3439  0.5676
  369SOL    HW116527   3.928   5.002  12.295 -0.1203 -0.2521  0.6790
  369SOL    HW216528   3.992   4.920  12.185  0.4743  0.8547  0.2020
  370SOL     OW16529   4.723   0.191  10.893  0.0136 -0.1884  0.1449
  370SOL    HW116530   4.752   0.150  10.975 -2.7549 -0.7243  0.9154
  370SOL    HW216531   4.674   0.123  10.848 -1.0894  1.0359 -0.5349
  371SOL     OW16532   3.102   4.810   3.470  0.0094  0.2279  0.0785
  371SOL    HW116533   3.087   4.819   3.564  0.1126  1.1972  0.0129
  371SOL    HW216534   3.146   4.725   3.460 -3.9784 -2.0049  0.4190
  372SOL     OW16535   5.934   4.528   2.675  0.5715 -0.0996  0.2944
  372SOL    HW116536   5.839   4.530   2.688  0.4447  0.0318 -0.6131
  372SOL    HW216537   5.953   4.440   2.644  0.6862  0.0074  0.0550
  373SOL     OW16538   3.196   2.228   1.394 -0.1047  0.5601 -0.0471
  373SOL    HW116539   3.119   2.250   1.342 -0.6852 -0.7552  0.2206
  373SOL    HW216540   3.258   2.299   1.377  0.1184 -0.3181 -3.3592
  374SOL     OW16541   5.340   3.574   8.485 -0.0599  0.4242 -0.5133
  374SOL    HW116542   5.275   3.637   8.455 -2.0579 -1.7557 -0.8827
  374SOL    HW216543   5.347   3.589   8.579  1.7430  3.1914 -1.0327
  375SOL     OW16544   1.044   5.773  11.342 -0.0397  0.3315 -0.3085
  375SOL    HW116545   1.082   5.726  11.415  0.1239  1.0819  0.0968
  375SOL    HW216546   1.088   5.738  11.265  1.8783  1.5622  0.1916
  376SOL     OW16547   2.372   2.294  10.601 -0.2248  1.0806 -0.0917
  376SOL    HW116548   2.452   2.347  10.604 -1.0377  2.3056  0.2240
  376SOL    HW216549   2.343   2.288  10.691  0.3912 -0.7667  0.0089
  377SOL     OW16550   2.651   0.105   1.817  0.1658  0.0071 -0.4356
  377SOL    HW116551   2.671   0.186   1.771  0.0116 -0.3324 -1.1101
  377SOL    HW216552   2.663   0.036   1.752  1.3049 -0.6118  0.4052
  378SOL     OW16553   5.400   4.922  11.128  0.4965  0.1771 -0.4024
  378SOL    HW116554   5.462   4.993  11.114  0.3247  0.4083  0.0087
  378SOL    HW216555   5.319   4.966  11.153 -0.1328 -0.0683 -1.9693
  379SOL     OW16556   2.663   3.472   9.776  0.4636  0.2269  0.1284
  379SOL    HW116557   2.605   3.498   9.705  1.9960  0.3063 -1.1083
  379SOL    HW216558   2.656   3.376   9.779 -1.1983  0.3567  1.2762
  380SOL     OW16559   3.757   2.564   2.416  0.8577  0.6991  0.1301
  380SOL    HW116560   3.765   2.650   2.375 -1.8583  0.3070 -1.3582
  380SOL    HW216561   3.777   2.502   2.346  1.0235  0.0909  0.7107
  381SOL     OW16562   1.046   5.984  10.127  0.4104 -0.2487  0.5413
  381SOL    HW116563   1.123   5.934  10.100  0.7471  0.9738 -0.8013
  381SOL    HW216564   0.981   5.917  10.148  1.2708 -1.2700  0.0399
  382SOL     OW16565   4.410   0.615   0.194 -0.3439  0.1196 -0.2606
  382SOL    HW116566   4.488   0.618   0.249 -1.1650 -3.7505  1.3116
  382SOL    HW216567   4.440   0.645   0.108  2.3633  0.6560  0.8194
  383SOL     OW16568   2.021   5.940  11.163 -0.0538  0.0499  0.2164
  383SOL    HW116569   1.994   6.013  11.107  1.1655 -0.4094 -0.9944
  383SOL    HW216570   1.950   5.876  11.156  0.9190 -0.8077 -2.3029
  384SOL     OW16571   1.375   3.601   2.270  0.1753  0.4147  0.3584
  384SOL    HW116572   1.352   3.691   2.247  1.2031  0.5237 -0.2506
  384SOL    HW216573   1.468   3.604   2.291  0.6299 -0.8218 -1.3429
  385SOL     OW16574   1.762   4.577   0.351 -0.0383  0.7764 -0.0249
  385SOL    HW116575   1.675   4.601   0.382 -0.4299 -0.1597 -0.3814
  385SOL    HW216576   1.766   4.611   0.261  0.5459  2.1824  0.5163
  386SOL     OW16577   5.116   3.865   2.395 -0.7017  0.3939 -0.3354
  386SOL    HW116578   5.062   3.930   2.440 -0.8285  2.6205 -3.5840
  386SOL    HW216579   5.084   3.865   2.305  0.1112 -3.3340 -0.7162
  387SOL     OW16580   3.044   0.570  10.476 -0.0156  0.8295  0.3091
  387SOL    HW116581   3.087   0.567  10.562  0.9247  0.3554 -0.1618
  387SOL    HW216582   3.035   0.663  10.457  1.6197  0.9493  0.0296
  388SOL     OW16583   4.589   2.627  11.555 -0.1353  0.4113 -0.0713
  388SOL    HW116584   4.518   2.564  11.565 -0.0004  0.3907  0.7897
  388SOL    HW216585   4.554   2.708  11.594 -0.1360  0.7399 -0.7445
  389SOL     OW16586   4.424   3.005   0.278  0.5201  0.3566 -0.7935
  389SOL    HW116587   4.406   2.932   0.219 -1.6862 -0.0638  0.3174
  389SOL    HW216588   4.358   3.071   0.255  0.1556  0.5048  0.6197
  390SOL     OW16589   3.206   0.298   2.972 -0.0585  0.1040 -0.1063
  390SOL    HW116590   3.219   0.338   2.886 -2.1870  0.3848 -0.3250
  390SOL    HW216591   3.269   0.226   2.974  0.4330  0.4649 -1.6638
  391SOL     OW16592   2.101   0.117   2.994  0.1588 -0.2280  0.7769
  391SOL    HW116593   2.118   0.146   2.905  2.7930  1.1395  1.6745
  391SOL    HW216594   2.022   0.063   2.987  0.1224  0.1383 -2.2946
  392SOL     OW16595   3.081   4.195   3.128  0.3130 -0.6926 -0.3557
  392SOL    HW116596   3.091   4.166   3.038 -0.6227  1.5877 -1.2229
  392SOL    HW216597   3.129   4.277   3.133 -1.0045  0.0267  0.7868
  393SOL     OW16598   3.063   1.316  12.146 -0.2133 -0.0894  0.1235
  393SOL    HW116599   3.059   1.221  12.159 -0.5279  0.1451  1.7575
  393SOL    HW216600   3.157   1.335  12.140 -0.0311 -0.1525  2.4770
  394SOL     OW16601   3.949   0.244   8.197  0.2725 -0.1521 -0.0257
  394SOL    HW116602   3.926   0.278   8.111 -0.8946  1.0900  0.7596
  394SOL    HW216603   3.978   0.154   8.180 -1.5100 -0.4922 -1.5211
  395SOL     OW16604   3.237   4.596   8.954  0.1589  0.2310 -0.0531
  395SOL    HW116605   3.246   4.643   8.871 -0.5625  0.1861 -0.1593
  395SOL    HW216606   3.150   4.620   8.986  0.8308  1.0489  1.1867
  396SOL     OW16607   1.065   5.791  12.050 -0.2801  0.3573  0.1578
  396SOL    HW116608   1.067   5.707  12.003 -1.3930  0.5314 -0.2279
  396SOL    HW216609   1.156   5.808  12.073  0.1427 -0.2712 -0.9958
  397SOL     OW16610   0.879   0.981   3.309 -0.1278  0.7054  0.2386
  397SOL    HW116611   0.908   0.929   3.234 -1.6795 -0.8457  0.6777
  397SOL    HW216612   0.953   0.978   3.369 -0.0061 -0.6069  0.0492
  398SOL     OW16613   1.840   1.503   8.133 -0.8560  0.2260  0.3170
  398SOL    HW116614   1.830   1.430   8.073 -1.7940 -0.7573  1.6367
  398SOL    HW216615   1.916   1.480   8.187 -1.5347 -0.0690  1.1471
  399SOL     OW16616   1.734   1.907   3.791  0.0372 -0.1308  0.4468
  399SOL    HW116617   1.806   1.853   3.824  1.5741  0.0025 -2.4300
  399SOL    HW216618   1.693   1.853   3.724  0.2337  1.4164 -0.9496
  400SOL     OW16619   3.508   1.444   2.192  0.5044  0.5212 -0.1873
  400SOL    HW116620   3.555   1.472   2.113  1.6084 -0.8357 -0.0143
  400SOL    HW216621   3.532   1.353   2.204  0.2052  0.6637  1.6511
  401SOL     OW16622   0.283   2.185   1.693 -0.0172  0.3570  0.3476
  401SOL    HW116623   0.341   2.150   1.760  0.3438 -1.9986 -1.1731
  401SOL    HW216624   0.338   2.245   1.642  0.6988 -0.7416 -0.1785
  402SOL     OW16625   4.240   1.305   9.068 -0.1771  0.5600  0.3449
  402SOL    HW116626   4.296   1.379   9.091  1.3516 -0.2073 -0.8362
  402SOL    HW216627   4.271   1.233   9.123  0.8997 -0.2205 -1.2497
  403SOL     OW16628   0.482   4.845  12.136  0.6141 -0.0693 -0.3261
  403SOL    HW116629   0.440   4.918  12.182  1.8905 -1.0534  2.4971
  403SOL    HW216630   0.451   4.767  12.182 -0.2338 -1.3074 -2.9085
  404SOL     OW16631   5.709   5.779  10.098 -0.3434 -0.4999 -0.2944
  404SOL    HW116632   5.625   5.799  10.058 -0.6411 -1.4936 -0.1899
  404SOL    HW216633   5.709   5.683  10.107 -0.1099 -0.3242  1.6889
  405SOL     OW16634   4.272   0.028  12.065  0.4331  0.8043  0.2826
  405SOL    HW116635   4.257   0.012  12.158  0.4835  2.1700  0.5430
  405SOL    HW216636   4.195  -0.010  12.022  1.5995 -2.0817  0.6343
  406SOL     OW16637   5.015   5.315   2.883 -0.1604  0.2274 -0.0236
  406SOL    HW116638   4.925   5.282   2.876 -0.7546  1.6212  0.9513
  406SOL    HW216639   5.043   5.290   2.971  1.3102 -2.3825 -1.1805
  407SOL     OW16640   1.549   0.410   2.891  0.0033  0.0510  0.5665
  407SOL    HW116641   1.621   0.463   2.859 -0.3747 -0.1342 -0.6148
  407SOL    HW216642   1.511   0.462   2.962  0.5021  0.7298  0.3456
  408SOL     OW16643   0.614   0.378   8.241  0.7513 -0.2381 -0.3990
  408SOL    HW116644   0.676   0.427   8.294  0.5028 -1.5660  1.1735
  408SOL    HW216645   0.663   0.301   8.211  0.3704 -0.4090 -0.5973
  409SOL     OW16646   0.408   5.706  12.138 -0.7458 -0.2288  0.3001
  409SOL    HW116647   0.422   5.628  12.192  1.1083  0.2228  0.5289
  409SOL    HW216648   0.487   5.711  12.083 -2.2183 -0.2016 -1.8659
  410SOL     OW16649   5.804   1.793   0.591 -0.4178 -0.3668  0.2387
  410SOL    HW116650   5.850   1.844   0.658 -0.6220  0.1885 -0.0396
  410SOL    HW216651   5.849   1.709   0.589  1.7194  0.7765 -1.2789
  411SOL     OW16652   0.186   4.906   1.189 -0.1960  0.1783 -0.2201
  411SOL    HW116653   0.182   4.844   1.262 -1.7012  2.2351  1.5161
  411SOL    HW216654   0.122   4.873   1.126 -1.7038  0.4489  1.1265
  412SOL     OW16655   0.126   3.184   2.904 -0.1232  0.2824 -0.1266
  412SOL    HW116656   0.125   3.097   2.943  0.1458  0.1512 -0.4194
  412SOL    HW216657   0.069   3.177   2.828  0.4768  0.1780 -0.5643
  413SOL     OW16658   1.777   3.119   0.533 -0.3167 -0.2805  0.0028
  413SOL    HW116659   1.692   3.090   0.566  0.2503  0.4761  2.2028
  413SOL    HW216660   1.841   3.072   0.587  0.6409  1.4552  0.4299
  414SOL     OW16661   5.819   2.560   4.356  0.4689  0.0938 -0.0058
  414SOL    HW116662   5.898   2.594   4.312  1.5545 -0.7839  1.2207
  414SOL    HW216663   5.750   2.622   4.332  1.2141  0.1341 -2.2077
  415SOL     OW16664   1.923   2.987  11.495  0.0210 -0.1278  0.0259
  415SOL    HW116665   1.886   2.980  11.407 -2.4470  3.3933  0.6962
  415SOL    HW216666   1.885   2.913  11.543 -2.5623  0.8030 -0.5477
  416SOL     OW16667   4.712   2.585   7.723  0.9125  0.0682 -0.7310
  416SOL    HW116668   4.657   2.564   7.798  0.9548  1.2051 -0.3678
  416SOL    HW216669   4.653   2.627   7.661  1.2445  0.7301 -0.5994
  417SOL     OW16670   5.835   5.680   2.004 -0.3696 -0.0558 -0.3728
  417SOL    HW116671   5.906   5.725   2.050  0.7338 -2.5225  0.4097
  417SOL    HW216672   5.784   5.639   2.074 -1.5260  0.2144 -1.0524
  418SOL     OW16673   0.841   0.094   1.099 -0.1742  1.0347 -0.3360
  418SOL    HW116674   0.762   0.067   1.053  0.8812 -1.7256 -0.6030
  418SOL    HW216675   0.908   0.102   1.031  0.6381 -0.0904  0.3049
  419SOL     OW16676   1.886   5.043  10.821 -0.1436 -0.0724  0.1601
  419SOL    HW116677   1.947   4.971  10.803  0.4440 -0.0433  1.8831
  419SOL    HW216678   1.943   5.118  10.839 -0.7186  0.3809  0.0870
  420SOL     OW16679   3.631   5.627   1.102  0.0823  0.1601 -0.0589
  420SOL    HW116680   3.568   5.641   1.173  1.4237  1.3081  0.9494
  420SOL    HW216681   3.641   5.532   1.096 -1.4334 -0.0154  0.0284
  421SOL     OW16682   5.293   0.290  12.082 -0.5635 -0.0272 -0.0094
  421SOL    HW116683   5.240   0.296  12.162  0.2139  0.9203  0.4455
  421SOL    HW216684   5.382   0.277  12.113 -0.3322 -0.2333 -0.7474
  422SOL     OW16685   5.878   4.898   8.503  0.3246  0.2017  0.0955
  422SOL    HW116686   5.897   4.819   8.452  2.2615  0.9237 -0.3409
  422SOL    HW216687   5.962   4.921   8.544 -0.7575  0.7311  2.0719
  423SOL     OW16688   0.646   3.816   0.052 -0.0372  0.2461  0.4836
  423SOL    HW116689   0.709   3.744   0.059 -2.9228 -2.3862  0.7235
  423SOL    HW216690   0.675   3.880   0.117  1.2659 -1.8158  2.0194
  424SOL     OW16691   0.248   0.841   8.632  0.4065  0.1458 -0.6457
  424SOL    HW116692   0.172   0.788   8.608  0.4629  0.1704 -0.8838
  424SOL    HW216693   0.212   0.928   8.650  0.4425  0.2945 -1.2735
  425SOL     OW16694   2.388   0.855   9.118  0.3333  0.2108 -1.0023
  425SOL    HW116695   2.349   0.798   9.052  0.5027 -1.2846  0.1758
  425SOL    HW216696   2.480   0.862   9.092  0.5278 -0.8342 -0.6218
  426SOL     OW16697   2.332   4.322   1.316 -0.8755  0.2794  0.1198
  426SOL    HW116698   2.281   4.402   1.326 -1.0245  0.2576 -0.4380
  426SOL    HW216699   2.284   4.272   1.250 -1.5028 -0.8422  1.4027
  427SOL     OW16700   5.366   0.565  10.835  0.2295 -0.0512  0.1777
  427SOL    HW116701   5.319   0.507  10.895  1.8472 -0.0901  1.4193
  427SOL    HW216702   5.428   0.612  10.890  0.9201  0.7833 -1.2877
  428SOL     OW16703   0.576   1.934   9.928 -0.2372  0.0384  0.0929
  428SOL    HW116704   0.481   1.943   9.933 -0.1730  0.2564  0.8429
  428SOL    HW216705   0.610   2.010   9.974  0.3061 -0.0334 -0.1860
  429SOL     OW16706   1.566   1.545   2.027  0.2985 -0.9078  0.5002
  429SOL    HW116707   1.605   1.534   2.114 -0.2897 -2.0751  0.6146
  429SOL    HW216708   1.479   1.583   2.044  0.1437 -1.2275  0.4239
  430SOL     OW16709   3.840   0.256   2.758 -0.5708 -0.1616  0.0542
  430SOL    HW116710   3.818   0.340   2.718 -0.2820  0.2119  0.6696
  430SOL    HW216711   3.887   0.208   2.689 -2.0195 -0.4048 -0.7932
  431SOL     OW16712   0.415   3.884   9.942  0.3441  0.3642  0.1636
  431SOL    HW116713   0.381   3.818  10.002  0.7201  1.0585  1.1481
  431SOL    HW216714   0.337   3.925   9.905  0.0944 -1.1820 -1.1054
  432SOL     OW16715   2.307   3.925  10.316 -0.1987 -0.0844  0.5551
  432SOL    HW116716   2.365   3.850  10.326 -0.1753 -0.1007  0.3104
  432SOL    HW216717   2.242   3.915  10.385 -0.1042 -0.2447  0.6229
  433SOL     OW16718   1.325   0.195   1.735  0.5024  0.0089  0.1332
  433SOL    HW116719   1.350   0.188   1.643 -0.0706 -1.3129  0.0606
  433SOL    HW216720   1.299   0.287   1.746  1.4286  0.3868 -0.7940
  434SOL     OW16721   5.857   2.309   2.553 -0.0836  0.0938 -0.1426
  434SOL    HW116722   5.780   2.353   2.517  0.3039  1.3566  0.5577
  434SOL    HW216723   5.822   2.251   2.621 -0.2846  1.7775  1.2116
  435SOL     OW16724   0.851   0.197   1.725  0.6343 -0.0461  0.0062
  435SOL    HW116725   0.758   0.221   1.719  0.4119 -1.2825 -1.6081
  435SOL    HW216726   0.896   0.261   1.671  0.8399  1.0808  1.4738
  436SOL     OW16727   5.158   0.241  10.389 -0.0498  0.0025  0.0739
  436SOL    HW116728   5.145   0.242  10.484 -0.0044  0.0465  0.0788
  436SOL    HW216729   5.146   0.331  10.362 -1.7830 -0.2836 -0.1871
  437SOL     OW16730   2.855   0.406   3.012 -0.5531  0.2469 -0.1972
  437SOL    HW116731   2.825   0.488   3.051  0.9734  0.7808 -0.0912
  437SOL    HW216732   2.891   0.356   3.086  0.2145  0.2772 -0.5451
  438SOL     OW16733   3.668   1.022  10.722  0.5269 -0.2841  0.6603
  438SOL    HW116734   3.674   0.971  10.803  0.8056  2.0987  2.1963
  438SOL    HW216735   3.745   1.078  10.724 -0.5960  1.3019 -0.1889
  439SOL     OW16736   0.278   1.398   1.156 -0.1088 -0.2702 -0.2132
  439SOL    HW116737   0.249   1.438   1.238  0.5804  0.8768 -0.5235
  439SOL    HW216738   0.235   1.312   1.155 -1.2409  0.2690  0.6799
  440SOL     OW16739   3.591   3.638   0.413 -0.0116  0.5798  0.3375
  440SOL    HW116740   3.498   3.618   0.401  0.1348  0.5539 -0.8946
  440SOL    HW216741   3.601   3.656   0.506 -0.9280 -1.1305  0.7859
  441SOL     OW16742   2.227   0.357   2.499  0.3535 -0.4831  0.1628
  441SOL    HW116743   2.171   0.426   2.464 -1.6918 -1.6700  0.9939
  441SOL    HW216744   2.219   0.285   2.435  2.1016 -0.1680 -0.4593
  442SOL     OW16745   2.048   3.564   9.048  0.7460  0.1026 -0.0354
  442SOL    HW116746   2.067   3.574   9.141  0.6930  1.4801 -0.1562
  442SOL    HW216747   2.095   3.637   9.007 -1.1880  0.9433 -0.8259
  443SOL     OW16748   2.788   2.678   2.612  0.1041 -0.0543  0.1354
  443SOL    HW116749   2.859   2.737   2.587  0.2831 -1.1178 -1.9421
  443SOL    HW216750   2.783   2.615   2.541 -1.4312 -1.3507  1.3607
  444SOL     OW16751   4.557   3.327  10.280  0.2172 -0.0494 -0.5280
  444SOL    HW116752   4.574   3.418  10.303 -1.0037  0.0580  0.0219
  444SOL    HW216753   4.541   3.328  10.186  0.7871  0.2167 -0.6186
  445SOL     OW16754   5.757   1.107  10.080  0.2446 -0.3185  0.3732
  445SOL    HW116755   5.767   1.196  10.046  0.5248 -0.5043 -0.0313
  445SOL    HW216756   5.690   1.067  10.025  1.4140 -0.9482 -0.6186
  446SOL     OW16757   4.338   2.238  10.480  0.1653  0.1875 -0.6452
  446SOL    HW116758   4.286   2.168  10.520 -1.1588  1.0789 -0.7652
  446SOL    HW216759   4.365   2.202  10.395  0.2063 -0.4839 -0.3503
  447SOL     OW16760   4.011   3.720   8.596  0.1706 -0.3337  0.4397
  447SOL    HW116761   4.066   3.780   8.545 -0.6547  0.8748  0.9636
  447SOL    HW216762   3.990   3.650   8.534  0.1955  0.4931 -0.5298
  448SOL     OW16763   1.928   0.800   1.006 -0.3376  0.4234 -0.4450
  448SOL    HW116764   1.910   0.713   0.968  0.4561  0.2833 -0.5171
  448SOL    HW216765   1.987   0.782   1.079 -2.4002  0.6301  1.2949
  449SOL     OW16766   0.608   3.845   1.381 -0.0804 -0.0877 -0.6356
  449SOL    HW116767   0.528   3.863   1.432 -0.1077  0.9460 -1.0397
  449SOL    HW216768   0.610   3.749   1.374 -1.8504 -0.0836 -1.5115
  450SOL     OW16769   4.641   4.782   4.036  0.2207  0.0319 -0.0196
  450SOL    HW116770   4.552   4.760   4.009  0.2116  0.2153 -0.1411
  450SOL    HW216771   4.664   4.858   3.982 -0.3926  1.4234  1.6360
  451SOL     OW16772   3.835   4.041   1.569 -0.1587 -1.0370 -0.1564
  451SOL    HW116773   3.907   4.039   1.632 -0.7107  0.0424  0.5184
  451SOL    HW216774   3.849   4.121   1.519 -0.4963 -1.1918 -0.4982
  452SOL     OW16775   2.424   2.515   0.277 -0.8506  0.1679 -0.1181
  452SOL    HW116776   2.499   2.494   0.333 -0.2691 -0.1323 -1.0040
  452SOL    HW216777   2.375   2.581   0.327 -2.4579 -2.8805  2.5187
  453SOL     OW16778   0.292   2.342   2.998  0.4584  0.1545 -0.0586
  453SOL    HW116779   0.345   2.277   2.952 -0.9246 -0.5437 -0.7205
  453SOL    HW216780   0.344   2.422   2.996  1.0500 -0.2499 -1.5743
  454SOL     OW16781   3.049   2.666  10.900  0.2549  0.8600  0.5395
  454SOL    HW116782   3.070   2.575  10.882  0.1957  0.5759  1.8570
  454SOL    HW216783   3.082   2.682  10.988 -0.7694  1.7726  0.7766
  455SOL     OW16784   2.156   5.908   9.083 -0.0316  0.0744  0.1107
  455SOL    HW116785   2.134   5.970   9.013  0.9560 -0.2119 -0.4790
  455SOL    HW216786   2.133   5.823   9.047  3.3979 -0.3968 -1.1607
  456SOL     OW16787   2.940   0.072   1.205  0.1834  0.4631  0.3021
  456SOL    HW116788   2.874   0.026   1.153  1.2684 -0.2851 -0.4200
  456SOL    HW216789   3.005   0.005   1.226  1.5019  1.5314 -0.2893
  457SOL     OW16790   3.733   5.504  12.122 -0.0473  0.0303  0.4365
  457SOL    HW116791   3.719   5.425  12.173  2.9638 -1.3451 -0.6988
  457SOL    HW216792   3.747   5.472  12.032  2.0677  1.7137  0.1103
  458SOL     OW16793   4.321   4.640   1.743 -0.2356 -0.2736  0.1447
  458SOL    HW116794   4.282   4.572   1.798 -0.3955 -1.1517 -1.0163
  458SOL    HW216795   4.413   4.642   1.768 -0.5212  0.0720  1.1730
  459SOL     OW16796   1.129   0.331   2.540  0.2556 -0.2823  0.9015
  459SOL    HW116797   1.169   0.252   2.576  0.8759  0.7003  2.4079
  459SOL    HW216798   1.158   0.401   2.598 -0.3240  1.0505 -0.3916
  460SOL     OW16799   0.698   4.427   3.839  0.1614  0.1888 -0.3559
  460SOL    HW116800   0.660   4.367   3.774 -1.4553 -1.6501  2.1896
  460SOL    HW216801   0.631   4.494   3.852 -0.8495 -1.1673  1.6384
  461SOL     OW16802   3.504   1.357   0.545 -0.1432 -0.2306 -0.1585
  461SOL    HW116803   3.466   1.420   0.606 -0.6279  0.5786 -1.2859
  461SOL    HW216804   3.596   1.352   0.571  0.5400  2.9460 -1.6698
  462SOL     OW16805   1.187   0.663   0.490 -0.4132 -0.3179  0.1923
  462SOL    HW116806   1.147   0.742   0.454  0.4271 -0.0743 -0.2099
  462SOL    HW216807   1.190   0.602   0.417 -1.3582 -0.8427  0.5844
  463SOL     OW16808   3.992   5.059   2.445  0.4506  0.2166  0.4188
  463SOL    HW116809   3.900   5.078   2.430  0.4357  0.2858  0.5839
  463SOL    HW216810   3.996   4.964   2.454  0.7444 -0.0193 -1.8986
  464SOL     OW16811   4.043   2.332  11.582 -0.0527  0.2573  0.0081
  464SOL    HW116812   3.967   2.284  11.551  1.3660 -0.8301 -1.9197
  464SOL    HW216813   4.099   2.267  11.624 -0.5873  1.2098  2.2598
  465SOL     OW16814   3.097   3.554   0.859 -0.5593 -0.0689 -0.7353
  465SOL    HW116815   3.192   3.567   0.865 -0.5551 -0.4108 -0.0125
  465SOL    HW216816   3.069   3.617   0.793  0.1704  0.0366 -0.9584
  466SOL     OW16817   5.337   3.353  11.655 -0.5934 -0.0359  0.3008
  466SOL    HW116818   5.320   3.273  11.605 -0.5016  0.4681 -0.5433
  466SOL    HW216819   5.431   3.352  11.670 -0.6656 -0.3559  0.7660
  467SOL     OW16820   5.265   5.651  10.853 -0.2840  0.0618  0.4741
  467SOL    HW116821   5.184   5.602  10.870  0.5705 -1.8436 -0.7021
  467SOL    HW216822   5.328   5.614  10.915  0.4430 -0.5749 -0.6181
  468SOL     OW16823   0.479   0.223   0.520 -0.5525  0.4522 -0.0554
  468SOL    HW116824   0.550   0.284   0.504 -0.0430 -0.2637 -0.5318
  468SOL    HW216825   0.457   0.188   0.434 -0.9330  0.0687  0.1934
  469SOL     OW16826   3.176   1.995   9.635  0.2044 -0.2423 -0.0957
  469SOL    HW116827   3.187   1.906   9.668  0.2090 -0.2451 -0.1016
  469SOL    HW216828   3.081   2.004   9.624  0.1950 -0.2101  0.0048
  470SOL     OW16829   1.392   5.217  10.732 -0.7650  0.7477 -0.5678
  470SOL    HW116830   1.480   5.228  10.770 -1.4785  1.2509  0.9869
  470SOL    HW216831   1.403   5.150  10.664  0.7835  0.6717 -0.2593
  471SOL     OW16832   2.556   2.487   1.379  0.0824  0.5528 -0.1899
  471SOL    HW116833   2.497   2.484   1.454 -0.4162  0.4753 -0.5784
  471SOL    HW216834   2.530   2.413   1.325  0.4872  0.5617 -0.3995
  472SOL     OW16835   0.393   4.618   3.150  0.3758 -0.1872  0.8200
  472SOL    HW116836   0.340   4.554   3.103  1.7298 -1.8711  1.4958
  472SOL    HW216837   0.423   4.679   3.083  1.4387 -1.9601 -0.3838
  473SOL     OW16838   3.799   3.067  10.719  0.6817  0.0875 -0.3091
  473SOL    HW116839   3.705   3.080  10.730  0.3313 -1.5214 -1.1407
  473SOL    HW216840   3.818   3.096  10.630  0.8511 -0.1298 -0.3478
  474SOL     OW16841   0.227   1.786   0.468  0.3389  0.2125  0.3761
  474SOL    HW116842   0.236   1.879   0.447 -0.1530  0.8288  2.7307
  474SOL    HW216843   0.162   1.753   0.405  0.8202  1.3481 -0.7337
  475SOL     OW16844   1.867   0.943   3.918 -0.0907  0.3724 -0.1288
  475SOL    HW116845   1.953   0.932   3.876 -0.7856  0.9072 -1.7414
  475SOL    HW216846   1.863   1.035   3.942 -0.2960  0.3919 -0.2371
  476SOL     OW16847   0.809   1.503   0.483 -0.5633 -0.3458  0.0350
  476SOL    HW116848   0.879   1.534   0.541  0.3040 -0.9970 -0.6451
  476SOL    HW216849   0.792   1.578   0.425 -0.2758 -0.2572  0.0593
  477SOL     OW16850   3.723   3.249   1.887 -0.4226 -0.4903  0.2363
  477SOL    HW116851   3.631   3.241   1.861 -0.3551  0.8362 -0.4429
  477SOL    HW216852   3.724   3.223   1.979 -1.8236  1.3412  0.7947
  478SOL     OW16853   4.892   0.368  11.876  0.4251 -0.3956 -0.6153
  478SOL    HW116854   4.848   0.283  11.866 -0.2924  0.0752 -1.6051
  478SOL    HW216855   4.822   0.426  11.906  0.0614  0.6203 -3.2774
  479SOL     OW16856   0.802   4.853  10.132 -0.0766  0.0774  0.0593
  479SOL    HW116857   0.788   4.838  10.225  1.0543  2.1307  0.6013
  479SOL    HW216858   0.758   4.781  10.089 -1.4616 -0.3669  2.1516
  480SOL     OW16859   4.753   1.125   9.614 -0.1119  0.3469  0.9153
  480SOL    HW116860   4.703   1.169   9.683 -2.6678 -0.2379 -0.5103
  480SOL    HW216861   4.809   1.194   9.578 -1.3679  1.5368  1.1885
  481SOL     OW16862   2.868   0.797   1.222  0.4590  0.3680  0.4949
  481SOL    HW116863   2.816   0.866   1.181  1.3414  0.7830  0.0710
  481SOL    HW216864   2.947   0.790   1.169 -0.6042 -2.5592 -0.8248
  482SOL     OW16865   0.509   0.798   0.330  0.1935 -0.3336 -0.5570
  482SOL    HW116866   0.570   0.859   0.372 -1.5064  0.5660  0.6750
  482SOL    HW216867   0.449   0.772   0.400 -1.3082 -0.5975 -1.9169
  483SOL     OW16868   2.990   0.051  10.167 -0.6166  0.5101  0.2160
  483SOL    HW116869   2.967   0.140  10.194 -0.4798  0.6785 -0.2135
  483SOL    HW216870   3.053   0.063  10.096 -0.6516  0.0701  0.1084
  484SOL     OW16871   0.949   4.450   3.375  0.4759  0.9515 -0.3131
  484SOL    HW116872   0.907   4.472   3.291 -0.4009 -4.0957 -1.3510
  484SOL    HW216873   1.030   4.406   3.350  0.0842 -0.8401  1.4396
  485SOL     OW16874   0.318   0.360  12.104  0.4872  0.6194 -0.5999
  485SOL    HW116875   0.231   0.319  12.102 -0.2608  2.0082  1.5270
  485SOL    HW216876   0.328   0.399  12.017  0.5056 -2.5556 -2.0874
  486SOL     OW16877   0.303   2.745   3.692  0.7763  0.1961 -0.1719
  486SOL    HW116878   0.306   2.685   3.766 -0.5677  1.1973  0.7177
  486SOL    HW216879   0.299   2.832   3.732  0.3766  0.7640 -1.4233
  487SOL     OW16880   5.844   5.123  10.185 -0.0662  0.5420 -0.1647
  487SOL    HW116881   5.893   5.054  10.140 -0.1280  0.2943  0.1464
  487SOL    HW216882   5.777   5.150  10.121  0.0967  0.4697 -0.3681
  488SOL     OW16883   3.565   0.426   2.335 -0.2021  0.3245 -0.2558
  488SOL    HW116884   3.582   0.355   2.398  0.0882  0.6525  0.0391
  488SOL    HW216885   3.590   0.389   2.251 -1.8732 -0.5947 -0.3781
  489SOL     OW16886   5.109   0.629   3.689 -0.1212 -0.0052 -0.1103
  489SOL    HW116887   5.091   0.601   3.599 -0.9890  1.9478 -0.5676
  489SOL    HW216888   5.110   0.724   3.685 -3.6454  0.2538  2.5670
  490SOL     OW16889   5.534   2.770   1.995  0.0836  0.2288 -0.3550
  490SOL    HW116890   5.524   2.861   1.967 -2.3769  0.4321  0.9966
  490SOL    HW216891   5.474   2.721   1.939 -0.5375 -0.1706  0.6407
  491SOL     OW16892   1.210   1.716  10.497 -0.5642  0.5429 -0.2568
  491SOL    HW116893   1.241   1.751  10.580 -1.0740  0.9057 -0.2125
  491SOL    HW216894   1.150   1.645  10.521 -1.3860  1.2097 -0.2844
  492SOL     OW16895   4.499   1.828   8.271 -0.1938 -0.6123 -0.0289
  492SOL    HW116896   4.548   1.750   8.244  1.2498  0.1833  0.2589
  492SOL    HW216897   4.542   1.900   8.224 -2.2825 -0.1220 -1.2542
  493SOL     OW16898   0.362   3.752   8.303  0.2392 -0.1065  0.5055
  493SOL    HW116899   0.327   3.668   8.333  2.7071 -1.4298 -0.1418
  493SOL    HW216900   0.372   3.741   8.208 -2.5436  2.1555 -0.1162
  494SOL     OW16901   3.724   4.929  11.884  0.4207 -0.8730 -0.4216
  494SOL    HW116902   3.715   5.024  11.871  1.0227 -1.0404 -2.2836
  494SOL    HW216903   3.647   4.905  11.936 -0.3245  0.4700 -0.8507
  495SOL     OW16904   5.785   3.520  12.382  0.0636  0.0298  0.2032
  495SOL    HW116905   5.806   3.610  12.408  0.7550 -0.0839  0.0481
  495SOL    HW216906   5.736   3.530  12.301  0.3133  0.2631  0.0766
  496SOL     OW16907   2.754   4.462   9.787  0.2615 -0.0082  0.0545
  496SOL    HW116908   2.849   4.455   9.795  0.4150  0.6084 -1.1486
  496SOL    HW216909   2.738   4.555   9.773 -0.6826  0.1624  2.0780
  497SOL     OW16910   1.942   5.272   4.025  0.1075 -0.3895 -0.3502
  497SOL    HW116911   1.902   5.198   4.069  1.3578 -0.7191  0.2577
  497SOL    HW216912   1.910   5.267   3.935 -0.1066 -1.4488 -0.2222
  498SOL     OW16913   2.800   2.217   3.350 -0.6752  0.4141  0.1556
  498SOL    HW116914   2.819   2.291   3.292 -0.1969  0.1035 -0.1009
  498SOL    HW216915   2.865   2.225   3.420 -0.4232  0.0693 -0.0348
  499SOL     OW16916   1.984   4.984   7.773  0.0022 -0.4367  0.0043
  499SOL    HW116917   1.950   4.899   7.747  0.0518 -0.1636 -0.9582
  499SOL    HW216918   1.912   5.045   7.756  0.6425  0.0055 -1.1397
  500SOL     OW16919   0.384   4.004  10.586  0.0631 -0.3631 -0.0844
  500SOL    HW116920   0.437   4.070  10.542 -1.1519  0.1245 -0.8636
  500SOL    HW216921   0.417   4.001  10.675 -0.1208  1.5718  0.0637
  501SOL     OW16922   5.843   2.979   8.728  0.7098  0.0562  0.7895
  501SOL    HW116923   5.858   3.004   8.637  0.9682 -1.9059  0.2602
  501SOL    HW216924   5.872   2.888   8.733  0.9072  0.2084  2.8964
  502SOL     OW16925   4.928   4.512   1.722  0.2257 -0.3326  0.3447
  502SOL    HW116926   4.864   4.496   1.653 -1.3791 -0.1126  1.7562
  502SOL    HW216927   4.912   4.443   1.786  0.0782  0.8868  1.6468
  503SOL     OW16928   1.350   1.596   0.667  0.7722  0.4636  0.3126
  503SOL    HW116929   1.337   1.669   0.607  1.2656 -0.1420 -0.5380
  503SOL    HW216930   1.301   1.524   0.628  0.7343  0.1829  0.8687
  504SOL     OW16931   4.118   2.853   2.916  0.4602 -0.3456 -0.2810
  504SOL    HW116932   4.167   2.802   2.980 -0.3616 -0.1283  0.5254
  504SOL    HW216933   4.144   2.944   2.932 -2.2350  0.0666  1.9621
  505SOL     OW16934   4.960   1.294   0.762 -0.3788 -0.2822  0.6887
  505SOL    HW116935   5.046   1.297   0.805 -0.5043  0.4887  0.8984
  505SOL    HW216936   4.906   1.355   0.813 -1.1249 -0.9763  0.7225
  506SOL     OW16937   0.145   5.652  11.044  0.9999 -0.1192  0.0430
  506SOL    HW116938   0.140   5.744  11.016 -0.1195 -0.0958  0.3280
  506SOL    HW216939   0.209   5.652  11.116  0.4365  0.5510  0.5431
  507SOL     OW16940   5.333   0.694   8.680 -0.4944  0.1989 -0.1991
  507SOL    HW116941   5.388   0.645   8.741  0.5406  1.4918 -0.0818
  507SOL    HW216942   5.245   0.657   8.692  0.0013 -0.6662  0.8868
  508SOL     OW16943   4.236   3.343   9.298  0.6446 -0.0970 -0.7997
  508SOL    HW116944   4.304   3.275   9.301  1.4984  0.7474 -0.6348
  508SOL    HW216945   4.272   3.415   9.350 -0.2569  0.4757 -0.9548
  509SOL     OW16946   4.844   4.304  11.214  0.0182  0.6955 -0.2053
  509SOL    HW116947   4.905   4.376  11.229  2.2170 -1.0298 -0.4860
  509SOL    HW216948   4.856   4.246  11.290 -0.2428 -0.3655 -0.9584
  510SOL     OW16949   1.020   3.431  12.205  0.0917  0.4155  0.0292
  510SOL    HW116950   0.974   3.471  12.280  0.0569  0.1071  0.1753
  510SOL    HW216951   1.113   3.438  12.228  0.1251  1.0843 -0.2850
  511SOL     OW16952   5.603   2.191   1.973  0.1317 -0.1360 -0.1243
  511SOL    HW116953   5.532   2.231   1.922  0.1895  2.6681  1.9048
  511SOL    HW216954   5.672   2.258   1.975  0.9103 -0.9694  1.9340
  512SOL     OW16955   1.772   3.301   2.415 -0.0762 -1.0499  0.3914
  512SOL    HW116956   1.691   3.284   2.366 -0.2967  2.0713 -0.4028
  512SOL    HW216957   1.765   3.392   2.442  2.2850 -1.3359  2.0855
  513SOL     OW16958   1.598   0.143  10.263 -0.0292  0.0531  0.2011
  513SOL    HW116959   1.611   0.232  10.230 -1.5747  0.4287  0.5513
  513SOL    HW216960   1.504   0.136  10.276 -0.2807 -2.5579 -2.4047
  514SOL     OW16961   5.512   3.104   0.136 -0.1674 -0.8244  0.3639
  514SOL    HW116962   5.475   3.036   0.193  0.4551 -0.3363  1.3588
  514SOL    HW216963   5.533   3.176   0.196 -0.6109  0.1574 -0.6526
  515SOL     OW16964   0.425   1.111  12.042  0.2843 -0.2174  0.3301
  515SOL    HW116965   0.365   1.088  11.971 -1.8553 -0.9182  2.3120
  515SOL    HW216966   0.509   1.072  12.016  0.0522  1.1685 -2.6997
  516SOL     OW16967   1.390   3.883  12.392  0.2810 -0.6844 -0.6288
  516SOL    HW116968   1.362   3.948  12.328 -0.0893  0.2768  0.5056
  516SOL    HW216969   1.429   3.933  12.463  0.5597 -1.7293 -0.0237
  517SOL     OW16970   0.865   4.625   3.625  0.1894 -0.0507 -0.6166
  517SOL    HW116971   0.803   4.624   3.698  0.6507  1.4058 -0.2030
  517SOL    HW216972   0.815   4.587   3.552 -0.1228 -1.9426  0.5436
  518SOL     OW16973   1.203   3.030   3.146 -0.1285 -0.5482  0.1026
  518SOL    HW116974   1.277   3.076   3.186 -0.3650  0.3001 -0.4133
  518SOL    HW216975   1.202   2.945   3.189  0.5729 -0.2240  0.7882
  519SOL     OW16976   0.877   0.102   3.155 -0.2831  0.5254 -0.7269
  519SOL    HW116977   0.827   0.166   3.104 -1.2333  1.0787  0.8834
  519SOL    HW216978   0.822   0.024   3.158 -0.2027  0.4734 -0.5715
  520SOL     OW16979   4.464   3.489   1.516 -0.0308 -0.3650  0.0060
  520SOL    HW116980   4.463   3.405   1.469 -0.1297 -0.3735  0.0221
  520SOL    HW216981   4.379   3.492   1.560  1.0564 -1.5725  2.2974
  521SOL     OW16982   5.471   4.830   1.520  0.0966 -0.7126 -0.7183
  521SOL    HW116983   5.551   4.861   1.563 -0.0290 -1.0708 -0.2273
  521SOL    HW216984   5.408   4.900   1.533  0.3382 -0.4075 -1.1453
  522SOL     OW16985   1.814   2.641  12.430 -0.0961 -0.2905 -0.3261
  522SOL    HW116986   1.842   2.732  12.434 -0.4352 -0.2463  1.4718
  522SOL    HW216987   1.732   2.638  12.479 -0.0968 -1.5615 -0.3737
  523SOL     OW16988   0.778   4.676   7.761 -0.8784  0.2827  0.4795
  523SOL    HW116989   0.851   4.737   7.747 -0.7518 -0.1057 -0.6638
  523SOL    HW216990   0.702   4.722   7.726 -0.9262  0.1108  0.3559
  524SOL     OW16991   5.173   3.476   2.344 -0.8354  0.3702  0.5268
  524SOL    HW116992   5.265   3.464   2.368 -1.5024 -0.1453  2.9022
  524SOL    HW216993   5.176   3.500   2.251  1.7461  1.1743  0.7718
  525SOL     OW16994   4.945   2.465   9.408 -0.8172 -0.1336  0.1717
  525SOL    HW116995   4.914   2.522   9.337 -1.0127 -0.6334 -0.1497
  525SOL    HW216996   5.036   2.491   9.422 -0.0942 -1.5142 -1.7542
  526SOL     OW16997   4.063   4.234  10.600  0.0330 -0.4391  0.5990
  526SOL    HW116998   4.128   4.204  10.538  1.7341  1.8129  1.2442
  526SOL    HW216999   4.107   4.231  10.685 -1.1826 -0.3555  1.2458
  527SOL     OW17000   5.360   4.180  10.054  0.5715 -0.0878  0.3524
  527SOL    HW117001   5.330   4.122  10.124 -1.2296 -0.6749 -0.8873
  527SOL    HW217002   5.430   4.131  10.011  0.0274 -0.7516  0.2133
  528SOL     OW17003   1.946   5.861   2.402  0.2595 -0.2655  0.0536
  528SOL    HW117004   1.925   5.768   2.406  0.6304 -0.3982 -0.9685
  528SOL    HW217005   1.923   5.887   2.312  1.5613  0.2801 -0.1351
  529SOL     OW17006   1.417   0.058   0.846 -0.5005  0.2570 -0.5382
  529SOL    HW117007   1.368   0.138   0.832 -0.4373  0.3848 -0.0304
  529SOL    HW217008   1.480   0.079   0.915 -0.5966 -0.2786 -0.2817
  530SOL     OW17009   0.859   4.971   8.389  0.0419 -0.7322 -0.0681
  530SOL    HW117010   0.880   5.030   8.316  1.0604 -2.5151 -1.2325
  530SOL    HW217011   0.767   4.989   8.407 -0.9870 -2.0980 -3.5398
  531SOL     OW17012   5.688   0.714  11.470 -0.0293 -0.2245  0.2060
  531SOL    HW117013   5.745   0.639  11.453  0.0478 -0.4477  1.4612
  531SOL    HW217014   5.749   0.788  11.478 -0.1651  0.1926 -2.0885
  532SOL     OW17015   4.500   4.467   3.283 -0.0083 -0.1878 -0.4068
  532SOL    HW117016   4.552   4.477   3.203 -1.1209  0.8110 -1.0257
  532SOL    HW217017   4.472   4.376   3.283  0.8973 -0.4688 -0.5899
  533SOL     OW17018   1.468   0.054  11.734 -0.0355  0.4139 -0.6909
  533SOL    HW117019   1.470   0.038  11.639 -0.6232  0.0670 -0.6519
  533SOL    HW217020   1.503  -0.027  11.772  1.8778  1.2175 -0.6705
  534SOL     OW17021   5.227   3.547  11.457  0.4667 -0.0083 -0.2169
  534SOL    HW117022   5.243   3.486  11.529  1.4911  0.9317  0.3594
  534SOL    HW217023   5.138   3.527  11.428  1.3533 -2.9247 -1.1225
  535SOL     OW17024   4.414   3.833   1.330 -0.2137 -0.1332  0.5236
  535SOL    HW117025   4.442   3.780   1.405 -0.4596 -0.8485  0.1129
  535SOL    HW217026   4.334   3.791   1.300 -0.1510  0.1980 -0.0971
  536SOL     OW17027   2.796   5.324   2.232  0.3113  0.2152  0.1819
  536SOL    HW117028   2.882   5.320   2.190 -0.4830  1.0080 -1.5436
  536SOL    HW217029   2.765   5.413   2.215 -1.2732 -0.3660 -0.0701
  537SOL     OW17030   5.461   1.391  10.725  0.3900 -0.2602 -0.0566
  537SOL    HW117031   5.413   1.317  10.689  1.0934  0.0895 -1.8081
  537SOL    HW217032   5.496   1.360  10.808 -2.4412 -0.6590  1.0397
  538SOL     OW17033   2.370   2.813   0.039 -0.0972 -0.1093  0.2880
  538SOL    HW117034   2.405   2.802  -0.049 -0.4210  1.3262 -0.0289
  538SOL    HW217035   2.377   2.907   0.057  1.9288 -0.6512  2.6264
  539SOL     OW17036   2.294   5.175   2.479  0.4232 -0.7267  0.0696
  539SOL    HW117037   2.264   5.172   2.389 -0.0909 -0.7538  0.2416
  539SOL    HW217038   2.254   5.098   2.520  0.9069 -0.8901  0.2421
  540SOL     OW17039   2.489   3.568   3.354  0.1848 -0.2847  0.0244
  540SOL    HW117040   2.409   3.616   3.334 -0.3307 -1.6976 -1.4102
  540SOL    HW217041   2.469   3.519   3.433 -1.2484 -2.5096 -1.6396
  541SOL     OW17042   4.844   1.771   3.296 -0.0907  0.4048 -0.2802
  541SOL    HW117043   4.897   1.760   3.374 -1.2321 -0.7413  0.3460
  541SOL    HW217044   4.755   1.747   3.323 -0.4676 -0.1810 -1.9579
  542SOL     OW17045   4.876   4.140   2.878  0.2828  0.9869 -0.3072
  542SOL    HW117046   4.915   4.058   2.908  1.1119  0.3478 -2.9707
  542SOL    HW217047   4.907   4.206   2.940 -1.3448 -0.8496  2.5623
  543SOL     OW17048   5.053   1.997  11.493 -0.2902 -0.0318 -0.4237
  543SOL    HW117049   5.031   1.933  11.426  0.3003  0.0566 -0.7013
  543SOL    HW217050   4.969   2.020  11.533 -0.4662 -1.3182 -0.0140
  544SOL     OW17051   2.524   4.938   8.568 -0.4338  0.5078  0.1327
  544SOL    HW117052   2.575   4.905   8.643  0.4220 -0.6556 -0.9358
  544SOL    HW217053   2.587   4.987   8.516 -0.2343 -1.4695 -1.5270
  545SOL     OW17054   2.283   3.038   1.932 -0.1190  0.0925 -0.0304
  545SOL    HW117055   2.367   3.049   1.975  0.6817  2.1431 -2.0057
  545SOL    HW217056   2.302   2.985   1.855 -1.4239 -3.0084  1.6967
  546SOL     OW17057   2.781   1.797   1.960  0.2326 -0.0941 -0.3606
  546SOL    HW117058   2.837   1.791   2.038 -0.8187  1.1904  0.5186
  546SOL    HW217059   2.694   1.775   1.991  0.0063 -0.7368 -1.4343
  547SOL     OW17060   4.882   5.513  12.155  0.4802 -0.1003 -0.2024
  547SOL    HW117061   4.920   5.504  12.067 -1.8564  0.0619 -1.2848
  547SOL    HW217062   4.911   5.599  12.185  1.5946 -0.3029 -0.6643
  548SOL     OW17063   0.635   0.482  11.326  0.4766 -0.1415 -0.3879
  548SOL    HW117064   0.679   0.405  11.291 -0.4184 -0.6815 -0.3339
  548SOL    HW217065   0.574   0.509  11.258 -0.6079 -0.6457  0.3634
  549SOL     OW17066   1.955   2.981   2.498 -0.0842  0.0180 -0.3519
  549SOL    HW117067   1.883   3.034   2.531 -0.0658 -0.1938  0.0320
  549SOL    HW217068   2.033   3.020   2.538  0.0414  0.4220 -0.9864
  550SOL     OW17069   0.879   0.641  11.960  0.3937  0.6110 -0.7367
  550SOL    HW117070   0.900   0.554  11.926  1.1057  0.8793 -0.9975
  550SOL    HW217071   0.914   0.642  12.049  2.0032  1.2315 -1.3395
  551SOL     OW17072   3.864   4.823   9.213  0.4295  0.2732  0.6029
  551SOL    HW117073   3.917   4.900   9.191 -0.1758  1.0509  1.8174
  551SOL    HW217074   3.823   4.845   9.296 -0.2946 -1.1009  0.6268
  552SOL     OW17075   2.852   2.944  10.938 -0.2681 -0.0271 -0.2094
  552SOL    HW117076   2.788   3.015  10.930  1.6048  1.7940  0.5747
  552SOL    HW217077   2.889   2.936  10.850  0.0704  0.5253 -0.1233
  553SOL     OW17078   3.333   3.805   2.086 -0.0069  0.0735  0.0224
  553SOL    HW117079   3.318   3.859   2.164 -0.5254  0.6773 -0.4868
  553SOL    HW217080   3.254   3.752   2.078  0.7316 -1.1900  0.8435
  554SOL     OW17081   2.103   5.359   3.171  0.4642  0.5074  0.4685
  554SOL    HW117082   2.138   5.396   3.252  0.2802  0.5578  0.5277
  554SOL    HW217083   2.064   5.276   3.197 -1.0068  1.2520  0.7243
  555SOL     OW17084   0.767   4.773   1.754  0.4603 -0.5116  0.3564
  555SOL    HW117085   0.683   4.729   1.766  0.7473 -1.4950 -1.1482
  555SOL    HW217086   0.781   4.774   1.660  1.0491  1.7462  0.4295
  556SOL     OW17087   0.709   3.941   3.761 -0.1210 -0.1378  0.6121
  556SOL    HW117088   0.779   4.003   3.782 -1.0946  1.0467  0.4050
  556SOL    HW217089   0.700   3.888   3.841 -0.3382  1.0049  1.3534
  557SOL     OW17090   0.926   3.572   4.202 -0.4082  0.8107  0.3751
  557SOL    HW117091   0.841   3.549   4.238 -0.1764 -0.3686  0.2039
  557SOL    HW217092   0.917   3.558   4.108 -0.5384  2.3531  0.1402
  558SOL     OW17093   2.902   4.893   2.381  0.8226  0.1810 -0.1121
  558SOL    HW117094   2.835   4.959   2.364 -0.4570 -1.2485 -0.7917
  558SOL    HW217095   2.868   4.844   2.456  1.3635 -0.2152 -0.1282
  559SOL     OW17096   5.306   5.073   9.206 -0.3013 -0.1235 -0.1770
  559SOL    HW117097   5.400   5.060   9.191 -0.4102 -0.6520 -0.3973
  559SOL    HW217098   5.263   5.016   9.142 -0.7734  0.6612 -0.5672
  560SOL     OW17099   1.985   3.476  11.476  0.0639  0.3983  0.2685
  560SOL    HW117100   1.902   3.477  11.523  0.5273  0.3894  1.1080
  560SOL    HW217101   1.993   3.564  11.440 -1.0112 -0.0402 -1.0943
  561SOL     OW17102   4.799   4.650  11.137 -0.1809  0.4325 -0.6950
  561SOL    HW117103   4.869   4.612  11.189 -2.4017 -1.5251  0.9865
  561SOL    HW217104   4.790   4.591  11.062 -0.6172  0.1796 -0.4450
  562SOL     OW17105   5.824   5.818   4.127  0.3293  0.1669 -0.6886
  562SOL    HW117106   5.913   5.797   4.099  0.0445 -2.0376 -0.0543
  562SOL    HW217107   5.786   5.733   4.150 -1.6543  1.1841 -0.1355
  563SOL     OW17108   1.235   2.195   3.383  0.2654  0.1256  0.0306
  563SOL    HW117109   1.271   2.162   3.466  1.3465  0.2553 -0.3681
  563SOL    HW217110   1.161   2.138   3.365  0.8169 -0.7468  0.4313
  564SOL     OW17111   1.098   3.293   4.843  0.0481 -0.1447  0.2693
  564SOL    HW117112   1.145   3.353   4.785  0.0990 -1.0262 -0.6143
  564SOL    HW217113   1.029   3.256   4.788 -1.5487  0.9594  1.4864
  565SOL     OW17114   1.116   4.318   8.096  0.6960 -0.1718  0.1186
  565SOL    HW117115   1.075   4.233   8.114  1.2059 -0.6575 -1.0132
  565SOL    HW217116   1.048   4.368   8.051 -0.1801  0.6312  2.2453
  566SOL     OW17117   4.933   0.607   1.761 -0.2776 -0.3517 -0.8028
  566SOL    HW117118   4.924   0.687   1.813 -0.7867  0.5134 -2.2172
  566SOL    HW217119   5.028   0.597   1.748 -0.1848 -0.2490 -0.2173
  567SOL     OW17120   1.553   2.943  10.455 -0.6725  0.1091 -0.5323
  567SOL    HW117121   1.474   2.893  10.473 -0.8338 -0.2443 -2.1033
  567SOL    HW217122   1.613   2.880  10.415  0.0566  0.5896 -0.2027
  568SOL     OW17123   2.502   4.437   8.586 -0.1262 -0.0420  0.5089
  568SOL    HW117124   2.430   4.499   8.575  0.2258  0.4285  0.8040
  568SOL    HW217125   2.508   4.425   8.681 -1.6201 -2.2341  0.3498
  569SOL     OW17126   5.256   5.214  10.096 -0.6010 -0.2042 -0.1627
  569SOL    HW117127   5.223   5.242  10.182  1.7105  1.1085  0.3369
  569SOL    HW217128   5.248   5.118  10.097 -1.7544 -0.1136  1.0076
  570SOL     OW17129   1.517   5.489   2.930  0.5289 -0.4408  0.2486
  570SOL    HW117130   1.546   5.406   2.893 -1.5332 -1.5987  1.1185
  570SOL    HW217131   1.479   5.537   2.856 -2.6663 -2.3315  0.5650
  571SOL     OW17132   5.789   3.869   1.465  0.3802 -0.3764  0.5131
  571SOL    HW117133   5.828   3.782   1.454 -1.0816 -0.7957 -1.5654
  571SOL    HW217134   5.712   3.854   1.520  0.4817 -0.2869  0.6812
  572SOL     OW17135   3.485   0.093   8.845  0.0077  0.0472 -0.0189
  572SOL    HW117136   3.575   0.073   8.818 -0.1129  0.8266 -1.0557
  572SOL    HW217137   3.473   0.185   8.820 -1.0577 -0.0280  0.1898
  573SOL     OW17138   1.702   0.509   0.451  0.5008  0.2452 -1.0579
  573SOL    HW117139   1.687   0.604   0.454  0.9125  0.4031 -3.1573
  573SOL    HW217140   1.660   0.481   0.369  1.3068 -1.2142 -0.9868
  574SOL     OW17141   5.278   2.850   8.974  0.1440  0.0193 -0.0101
  574SOL    HW117142   5.363   2.877   9.009  0.3483  0.0728 -0.5458
  574SOL    HW217143   5.299   2.783   8.909 -0.2518 -0.2637  0.1490
  575SOL     OW17144   4.144   5.037  11.389 -0.3624 -0.5029  0.5264
  575SOL    HW117145   4.239   5.039  11.405 -0.4117  0.3900  0.7381
  575SOL    HW217146   4.120   5.129  11.376 -1.0850 -0.7857 -0.2235
  576SOL     OW17147   1.766   5.922  12.374  0.6177 -0.0548  0.0727
  576SOL    HW117148   1.815   5.989  12.327 -0.2951 -0.1524 -1.0590
  576SOL    HW217149   1.832   5.874  12.424  1.5141  0.5581 -0.5063
  577SOL     OW17150   3.114   0.143   2.262  0.6694 -0.9842  0.0307
  577SOL    HW117151   3.025   0.166   2.287  0.6842  0.4025 -1.1546
  577SOL    HW217152   3.169   0.178   2.332  0.4358 -0.1769 -0.1871
  578SOL     OW17153   3.396   2.440   7.889  0.3525  0.7868 -0.5253
  578SOL    HW117154   3.366   2.401   7.806  0.6931  0.0309 -0.2970
  578SOL    HW217155   3.354   2.526   7.891  0.7817  1.0486 -1.7601
  579SOL     OW17156   3.936   5.090   3.288  0.2036  0.1307 -0.3380
  579SOL    HW117157   3.858   5.038   3.269  0.8560 -0.2548 -2.0731
  579SOL    HW217158   3.903   5.168   3.333 -1.1695 -0.0884 -0.9336
  580SOL     OW17159   1.311   1.003   1.718  0.0158 -0.6806 -0.4817
  580SOL    HW117160   1.360   0.998   1.801  0.3620 -0.5023 -0.6705
  580SOL    HW217161   1.347   0.933   1.664 -0.1538 -0.7468 -0.5102
  581SOL     OW17162   1.445   4.299   9.323 -0.4185  0.2628 -0.7140
  581SOL    HW117163   1.392   4.374   9.296 -0.6793 -0.2959 -1.7910
  581SOL    HW217164   1.467   4.254   9.241  0.3577 -0.4240 -0.1459
  582SOL     OW17165   5.728   4.631  11.761  0.4677  0.1627 -0.0648
  582SOL    HW117166   5.714   4.668  11.674  2.7526 -1.1124 -1.0035
  582SOL    HW217167   5.811   4.669  11.791  1.3200 -1.8170  0.2100
  583SOL     OW17168   0.752   1.513   9.019 -0.0362  0.2836  0.0496
  583SOL    HW117169   0.657   1.508   9.016 -0.0975 -0.9734  2.5294
  583SOL    HW217170   0.775   1.478   9.105  2.7332 -0.4019 -0.9136
  584SOL     OW17171   1.139   2.651   2.917 -0.0473  0.6591  0.5193
  584SOL    HW117172   1.229   2.622   2.911 -0.2892 -0.3331  1.5981
  584SOL    HW217173   1.106   2.647   2.827  0.5421 -0.3568  0.3495
  585SOL     OW17174   0.338   2.665   4.214 -0.1517 -0.4331 -0.2553
  585SOL    HW117175   0.387   2.746   4.204 -0.1490 -0.6335 -2.1153
  585SOL    HW217176   0.380   2.604   4.154 -0.1007 -1.8455  1.1911
  586SOL     OW17177   2.416   2.511   8.426 -0.4837  0.2150 -0.4355
  586SOL    HW117178   2.394   2.440   8.487 -1.4850  0.6143 -0.3346
  586SOL    HW217179   2.438   2.466   8.345 -1.8743 -0.1821 -0.6013
  587SOL     OW17180   4.981   0.142   8.098  0.4630  0.5829 -0.4513
  587SOL    HW117181   5.046   0.205   8.128  0.8251  1.1193 -2.3065
  587SOL    HW217182   4.996   0.134   8.004 -1.5715  0.0520 -0.7668
  588SOL     OW17183   1.842   1.238   7.980  0.7171 -0.4524 -0.1704
  588SOL    HW117184   1.917   1.221   8.037  1.4647  1.2009 -0.6189
  588SOL    HW217185   1.844   1.168   7.916 -0.7878 -2.9914  2.4227
  589SOL     OW17186   1.838   4.367   1.429  0.1810  0.3468  0.4737
  589SOL    HW117187   1.885   4.299   1.477  1.6839 -0.0595 -1.5221
  589SOL    HW217188   1.890   4.447   1.444  1.5295 -0.0870 -1.6694
  590SOL     OW17189   0.694   0.056   8.864  0.0898  0.1087  0.2369
  590SOL    HW117190   0.772   0.103   8.833  0.5652 -1.0114 -0.2803
  590SOL    HW217191   0.705   0.052   8.959 -1.0622  3.0150  0.5567
  591SOL     OW17192   4.921   2.646  10.306  0.1455  0.2944  0.0516
  591SOL    HW117193   4.989   2.585  10.335 -0.9671 -0.8820  0.2385
  591SOL    HW217194   4.850   2.590  10.274 -0.7294  1.4995 -0.1721
  592SOL     OW17195   1.408   2.316   8.862 -0.0042  0.1461 -0.1313
  592SOL    HW117196   1.355   2.346   8.788  0.4516  1.5268  0.0888
  592SOL    HW217197   1.373   2.229   8.883 -0.0148 -0.3449 -2.0688
  593SOL     OW17198   3.711   3.261   2.734 -0.3423  0.1294  0.2093
  593SOL    HW117199   3.737   3.291   2.648 -1.9132 -0.4521 -0.5035
  593SOL    HW217200   3.648   3.190   2.717 -0.4730 -0.1782  1.8175
  594SOL     OW17201   3.817   4.716  11.689  0.4252 -0.5062 -0.3240
  594SOL    HW117202   3.775   4.798  11.715 -0.1716 -0.3309 -1.8176
  594SOL    HW217203   3.767   4.649  11.736  0.6986 -0.0465  0.6360
  595SOL     OW17204   1.459   0.060  11.453 -0.4409 -0.0151  0.5894
  595SOL    HW117205   1.404   0.041  11.377  2.3586  1.4947 -1.9065
  595SOL    HW217206   1.538   0.009  11.439  0.7603  1.5048  1.6592
  596SOL     OW17207   0.556   2.641   8.488 -0.5882  0.1910 -0.1473
  596SOL    HW117208   0.472   2.631   8.533 -0.0594 -0.8547  0.6452
  596SOL    HW217209   0.597   2.555   8.495  1.0922  1.0316  0.5936
  597SOL     OW17210   0.739   1.180  11.746 -0.0785 -0.4073 -0.1385
  597SOL    HW117211   0.746   1.122  11.821  1.3784  0.5836  0.5053
  597SOL    HW217212   0.646   1.177  11.722 -0.1882 -2.2421  0.4704
  598SOL     OW17213   3.050   4.060  10.361 -0.7136  0.5250 -0.2984
  598SOL    HW117214   3.076   4.075  10.452  1.2033  1.6169 -1.0097
  598SOL    HW217215   3.022   3.969  10.359  3.3042 -0.8303  0.4784
  599SOL     OW17216   0.908   2.125   4.548 -0.2300  0.4720  0.3789
  599SOL    HW117217   0.813   2.137   4.544 -0.3188 -0.4838 -0.5739
  599SOL    HW217218   0.941   2.171   4.471  0.2037  1.8814  1.3900
  600SOL     OW17219   2.919   5.149   1.199 -0.0802  0.4205 -0.5377
  600SOL    HW117220   2.837   5.132   1.152 -0.8955  0.6227  0.7914
  600SOL    HW217221   2.946   5.235   1.169 -0.9882  0.8699 -0.0861
  601SOL     OW17222   0.416   3.684   3.636  0.4392  0.2716  0.0069
  601SOL    HW117223   0.491   3.624   3.630 -0.8507 -1.4053  0.3535
  601SOL    HW217224   0.384   3.690   3.546  3.2810  4.0464 -0.8583
  602SOL     OW17225   4.087   2.516   9.097 -0.0955 -0.1620  0.4510
  602SOL    HW117226   4.013   2.503   9.037 -1.5490  2.8118  1.5125
  602SOL    HW217227   4.073   2.450   9.165  0.9983 -2.8777 -1.8588
  603SOL     OW17228   4.968   1.675  -0.016  0.2802 -0.5516 -0.1244
  603SOL    HW117229   5.006   1.757   0.018 -2.2180  0.4391  0.4048
  603SOL    HW217230   5.030   1.607   0.011  3.3278  1.2995 -2.0528
  604SOL     OW17231   3.501   5.932   9.926  0.4858 -0.3222  0.6574
  604SOL    HW117232   3.491   5.940  10.021 -0.1730  0.0549  0.5564
  604SOL    HW217233   3.413   5.913   9.894  0.2151  2.1144 -0.1364
  605SOL     OW17234   3.017   1.375   0.876  0.5432 -0.3452  0.2504
  605SOL    HW117235   3.017   1.363   0.971 -0.4355 -2.5908  0.0186
  605SOL    HW217236   2.935   1.421   0.857  0.4168 -0.4786  0.4611
  606SOL     OW17237   1.492   3.556  11.463 -0.1927  0.3912  0.3854
  606SOL    HW117238   1.497   3.489  11.395 -0.8318 -0.8370  1.5197
  606SOL    HW217239   1.403   3.549  11.498  0.3296  0.5278  1.8008
  607SOL     OW17240   2.674   4.395   3.541  0.8705 -0.0973  0.1987
  607SOL    HW117241   2.633   4.385   3.627  0.2928 -1.3888 -0.2177
  607SOL    HW217242   2.612   4.448   3.491  0.3674 -0.8678  0.0082
  608SOL     OW17243   1.997   3.643  11.108 -0.3438 -0.2677  0.2367
  608SOL    HW117244   2.021   3.563  11.061 -1.0560 -0.3850  0.0627
  608SOL    HW217245   2.005   3.713  11.043  0.7108 -0.1247  0.5049
  609SOL     OW17246   2.003   4.981   2.374 -0.4395  0.3262  0.8737
  609SOL    HW117247   2.055   5.038   2.318 -0.3926 -0.7970 -0.2631
  609SOL    HW217248   2.068   4.940   2.432 -0.4016  0.9539  1.2846
  610SOL     OW17249   1.895   4.630   9.320 -0.0248  0.0271 -0.3831
  610SOL    HW117250   1.968   4.568   9.329  0.5662  1.1121  3.1569
  610SOL    HW217251   1.838   4.591   9.254  1.9115 -2.7086 -0.5106
  611SOL     OW17252   3.521   1.564  11.499 -0.7364  0.0410 -0.5214
  611SOL    HW117253   3.514   1.597  11.410  0.2891  1.8320  0.0466
  611SOL    HW217254   3.475   1.628  11.552  2.8569  1.6092  0.8264
  612SOL     OW17255   4.226   3.702   2.622  0.2428  0.5021 -0.4685
  612SOL    HW117256   4.208   3.676   2.712  1.4894  1.4870  0.0671
  612SOL    HW217257   4.159   3.768   2.603 -1.1283 -0.9690 -0.8757
  613SOL     OW17258   0.511   2.641  10.801  0.3548  0.6751  0.0291
  613SOL    HW117259   0.536   2.580  10.731 -0.7813 -0.4430  0.5776
  613SOL    HW217260   0.461   2.709  10.756 -1.0981 -0.4847 -0.1500
  614SOL     OW17261   5.788   0.003  10.578 -0.2434 -0.1534 -0.0875
  614SOL    HW117262   5.737  -0.051  10.518 -1.2270  0.6521  0.0186
  614SOL    HW217263   5.834   0.065  10.521  0.4748 -0.7433 -0.1658
  615SOL     OW17264   0.689   0.901  10.742  0.3905 -0.0817 -0.1457
  615SOL    HW117265   0.673   0.923  10.833 -0.7518 -1.0283 -0.1131
  615SOL    HW217266   0.630   0.957  10.692  1.1889  0.6154 -0.3366
  616SOL     OW17267   4.330   2.925   9.736  0.1989 -0.4696  0.4334
  616SOL    HW117268   4.381   2.997   9.700  0.0085 -0.5630 -0.0306
  616SOL    HW217269   4.317   2.866   9.662 -0.9624 -0.2312  0.4387
  617SOL     OW17270   1.015   5.613  10.016 -0.0073 -0.5162  0.3026
  617SOL    HW117271   1.063   5.583  10.093  0.3801  0.4950  0.4738
  617SOL    HW217272   0.954   5.678  10.050  0.4601  0.2478 -0.2901
  618SOL     OW17273   5.288   0.090   2.066 -0.0653 -0.2935 -0.0304
  618SOL    HW117274   5.353   0.126   2.127 -0.3494  0.4846 -0.1804
  618SOL    HW217275   5.318   0.120   1.980 -0.4167 -0.2503 -0.1369
  619SOL     OW17276   1.498   4.211  11.074  0.1135  0.2196 -0.1960
  619SOL    HW117277   1.568   4.156  11.110  0.4651 -1.1801 -2.8657
  619SOL    HW217278   1.421   4.189  11.126  0.7579 -1.2187  0.1717
  620SOL     OW17279   3.087   2.989  10.682 -0.8359 -0.3600  0.4660
  620SOL    HW117280   3.123   3.008  10.595 -1.2550  0.4747  0.4712
  620SOL    HW217281   3.103   3.069  10.732  0.2903 -1.1920  1.4537
  621SOL     OW17282   1.150   2.483   3.268  0.7750  0.2440 -0.6179
  621SOL    HW117283   1.110   2.456   3.350 -1.5113  0.4954 -1.6036
  621SOL    HW217284   1.149   2.404   3.213  1.7580  0.2216 -0.6103
  622SOL     OW17285   3.960   5.551  11.083 -0.0271  0.2116  0.2793
  622SOL    HW117286   4.035   5.579  11.031 -0.6697 -0.7750 -1.1989
  622SOL    HW217287   3.969   5.455  11.087 -2.0697 -0.0742 -1.2634
  623SOL     OW17288   2.074   2.995   3.291  0.3078  0.3146 -0.4491
  623SOL    HW117289   2.127   3.009   3.369  1.3490 -0.1474 -1.0563
  623SOL    HW217290   2.076   2.900   3.279  0.9210  0.4585 -1.5505
  624SOL     OW17291   5.757   3.958  10.891 -0.2461 -0.6099 -0.0621
  624SOL    HW117292   5.795   4.044  10.871 -1.1556  0.0480  0.9427
  624SOL    HW217293   5.703   3.937  10.815 -3.0241  1.4861  1.2289
  625SOL     OW17294   5.197   3.258   0.033  0.5228  0.7029 -0.5956
  625SOL    HW117295   5.290   3.253   0.011  0.9816 -1.2547  1.5610
  625SOL    HW217296   5.153   3.210  -0.037  1.2456  0.5144 -0.9260
  626SOL     OW17297   0.779   4.336   1.882 -0.1154 -0.1901 -0.0541
  626SOL    HW117298   0.706   4.349   1.943 -0.7461 -3.3925 -0.0237
  626SOL    HW217299   0.739   4.344   1.795 -0.6894 -2.6459 -0.0425
  627SOL     OW17300   4.082   4.669  11.820 -0.2195  0.0114  0.1988
  627SOL    HW117301   4.022   4.670  11.746  1.5644  0.2658 -1.2690
  627SOL    HW217302   4.140   4.595  11.803  0.1507  0.0045  1.4133
  628SOL     OW17303   4.317   5.176  10.680 -0.1823 -0.0011  0.3483
  628SOL    HW117304   4.303   5.088  10.716 -0.9417 -0.0820 -0.1109
  628SOL    HW217305   4.254   5.231  10.726 -1.4802 -0.1900 -1.1302
  629SOL     OW17306   0.739   4.805   3.794  0.5139  0.2274 -0.7181
  629SOL    HW117307   0.717   4.856   3.717 -0.2038  1.9563  0.5898
  629SOL    HW217308   0.810   4.854   3.836  1.0224 -0.7856 -0.3852
  630SOL     OW17309   1.509   4.480   0.206  0.8323  0.9070  0.2921
  630SOL    HW117310   1.448   4.489   0.279 -0.0778  3.1399 -0.6595
  630SOL    HW217311   1.583   4.431   0.241 -0.8438 -0.5302  1.9076
  631SOL     OW17312   3.741   3.825  11.471  0.3523  0.2004 -0.1432
  631SOL    HW117313   3.653   3.790  11.487  0.0527  1.0916  0.1721
  631SOL    HW217314   3.754   3.891  11.538  0.7253  1.0419 -1.0264
  632SOL     OW17315   5.179   2.097  11.273 -0.4819 -0.5946 -0.0828
  632SOL    HW117316   5.128   2.042  11.332 -1.2202 -1.1866 -1.2572
  632SOL    HW217317   5.145   2.185  11.286  1.8008 -0.0625  3.0094
  633SOL     OW17318   2.556   2.335   2.172  0.3050  0.1093 -0.3557
  633SOL    HW117319   2.590   2.265   2.117 -0.6051 -1.2204  0.7203
  633SOL    HW217320   2.472   2.358   2.132  0.0982 -0.1702 -0.0832
  634SOL     OW17321   3.813   1.246   1.014 -0.4847  0.1249  0.0346
  634SOL    HW117322   3.835   1.316   1.076  1.7177 -0.2651 -0.2645
  634SOL    HW217323   3.805   1.168   1.068 -0.1241  0.0760  0.0181
  635SOL     OW17324   4.865   3.419   1.027 -0.1207  0.0891  0.3224
  635SOL    HW117325   4.829   3.457   0.946 -0.8847  1.6394  1.3399
  635SOL    HW217326   4.959   3.435   1.022 -0.2615  0.8661  0.0790
  636SOL     OW17327   0.183   5.350  11.184 -0.6613 -0.9750  0.3326
  636SOL    HW117328   0.230   5.382  11.260 -0.4924 -1.7961  0.5811
  636SOL    HW217329   0.167   5.257  11.203 -1.3953 -0.9680 -0.2364
  637SOL     OW17330   5.067   0.079   9.145 -0.3631  0.1959  0.0737
  637SOL    HW117331   5.049   0.097   9.237  1.8298 -1.8841  0.9761
  637SOL    HW217332   4.997   0.018   9.119 -1.0222  0.8357  0.3293
  638SOL     OW17333   4.293   4.109  10.755  0.5141 -0.3202 -0.2115
  638SOL    HW117334   4.308   4.021  10.722  0.8197 -0.3283 -0.0554
  638SOL    HW217335   4.268   4.097  10.847  1.0944 -0.2103 -0.0385
  639SOL     OW17336   1.632   3.378   0.093 -0.0951 -0.4545  0.1010
  639SOL    HW117337   1.593   3.375   0.006 -0.9523 -0.4118  0.4751
  639SOL    HW217338   1.586   3.309   0.142 -2.8007  2.4572  1.8074
  640SOL     OW17339   0.302   5.485   1.445  0.1431  0.8899 -0.3888
  640SOL    HW117340   0.326   5.542   1.519  1.6157  1.0069 -0.9597
  640SOL    HW217341   0.229   5.532   1.403 -0.6800  0.8475  0.9448
  641SOL     OW17342   5.688   3.951   2.858 -0.5421  0.5051 -0.0618
  641SOL    HW117343   5.654   4.024   2.806 -0.0586 -0.2927 -1.5230
  641SOL    HW217344   5.764   3.920   2.808 -1.5003 -1.8181 -0.1008
  642SOL     OW17345   4.415   3.348   2.677  0.2464 -0.3392 -1.1139
  642SOL    HW117346   4.340   3.306   2.636  0.1875  0.7785 -2.1908
  642SOL    HW217347   4.480   3.279   2.685 -0.6240 -1.1338 -0.8784
  643SOL     OW17348   3.721   3.559  10.523  0.3513  0.2493  0.4014
  643SOL    HW117349   3.686   3.577  10.436  1.3116 -0.2307 -0.0846
  643SOL    HW217350   3.727   3.644  10.565 -0.2773  0.4659  0.0669
  644SOL     OW17351   1.118   5.440   0.088  0.1132  0.3599 -0.1067
  644SOL    HW117352   1.187   5.374   0.091 -1.4424 -1.4082 -1.4720
  644SOL    HW217353   1.105   5.467   0.179  1.2587 -0.6987  0.3788
  645SOL     OW17354   2.624   3.770   1.842  0.0475 -0.5239 -0.4100
  645SOL    HW117355   2.654   3.680   1.832  1.7564  0.3409 -3.5633
  645SOL    HW217356   2.536   3.771   1.805  0.2786 -0.7590 -0.9644
  646SOL     OW17357   0.524   4.652   0.551 -0.1611  0.5184 -0.3253
  646SOL    HW117358   0.579   4.719   0.592 -0.3547  0.1735  0.5036
  646SOL    HW217359   0.441   4.696   0.534  0.2377  0.9272 -1.2050
  647SOL     OW17360   3.616   1.744   2.882 -0.0601  0.0547  0.6107
  647SOL    HW117361   3.528   1.781   2.877  0.3871  1.1348  0.7544
  647SOL    HW217362   3.657   1.768   2.799 -0.5563 -2.1650 -0.3182
  648SOL     OW17363   2.006   4.631   9.841  0.2123 -0.1430 -0.1362
  648SOL    HW117364   2.010   4.615   9.935 -1.2914 -0.4979 -0.1198
  648SOL    HW217365   1.970   4.720   9.834  1.5370  0.3892 -0.3629
  649SOL     OW17366   3.366   0.030   0.772 -0.0664 -0.2689  0.2242
  649SOL    HW117367   3.294   0.091   0.788  0.3059  0.3409 -0.4348
  649SOL    HW217368   3.445   0.080   0.790  0.2365 -0.6193 -0.1142
  650SOL     OW17369   1.954   0.185   4.320  0.0863 -0.0462 -0.7969
  650SOL    HW117370   1.908   0.109   4.356 -1.3609  1.6205  0.9799
  650SOL    HW217371   1.885   0.245   4.293  1.2135  0.7286 -2.0120
  651SOL     OW17372   3.087   2.492   7.763 -0.0233  0.3139 -0.1995
  651SOL    HW117373   3.093   2.396   7.765 -0.3066  0.3022  0.2800
  651SOL    HW217374   3.152   2.519   7.698  0.2259 -0.1911 -0.1638
  652SOL     OW17375   3.393   3.096   1.075  0.3663 -0.5394 -0.2641
  652SOL    HW117376   3.407   3.189   1.059  0.9244 -0.2813  1.7036
  652SOL    HW217377   3.298   3.085   1.066  0.3625  0.1022 -1.0849
  653SOL     OW17378   4.922   3.681   1.908 -0.6564 -0.0496 -0.4226
  653SOL    HW117379   4.867   3.606   1.884 -2.8889  2.4728 -3.6293
  653SOL    HW217380   5.010   3.655   1.880 -1.3499 -1.5664 -1.2818
  654SOL     OW17381   3.304   0.753  10.772 -0.1465  0.3520 -0.3810
  654SOL    HW117382   3.222   0.765  10.820 -0.8901  0.9771 -1.7905
  654SOL    HW217383   3.297   0.665  10.734 -1.2272  1.3077 -2.4784
  655SOL     OW17384   3.777   4.655  10.239 -0.1920  0.0175 -0.6126
  655SOL    HW117385   3.852   4.601  10.262  0.5019  0.3792 -1.9555
  655SOL    HW217386   3.701   4.607  10.272  0.3130 -2.3106 -2.7101
  656SOL     OW17387   3.681   5.858   7.876  0.4940  0.1082 -0.1069
  656SOL    HW117388   3.680   5.776   7.827 -1.8586 -0.1616  0.3166
  656SOL    HW217389   3.696   5.926   7.810 -1.4966 -0.3495 -1.0718
  657SOL     OW17390   1.616   2.044   8.966 -0.4314 -0.0415 -0.2418
  657SOL    HW117391   1.559   1.981   8.924  0.1724 -0.1992 -0.8344
  657SOL    HW217392   1.691   1.992   8.997  0.4672  0.4989 -1.4704
  658SOL     OW17393   4.091   2.942   3.512 -0.1370 -0.3486 -0.6243
  658SOL    HW117394   4.176   2.907   3.486  1.5452  2.6222  0.6366
  658SOL    HW217395   4.080   3.021   3.460 -0.0113  1.7248  2.3494
  659SOL     OW17396   1.445   2.120   7.978  0.0392 -0.0220  0.0524
  659SOL    HW117397   1.414   2.042   7.933  1.5200 -0.4716 -0.2007
  659SOL    HW217398   1.520   2.150   7.927  0.7080  0.4280  1.2630
  660SOL     OW17399   1.818   0.492   8.122 -0.6296  0.3679  0.3441
  660SOL    HW117400   1.885   0.551   8.089 -1.3020  0.2965 -1.1708
  660SOL    HW217401   1.843   0.405   8.091  0.3270 -0.1718  2.5198
  661SOL     OW17402   0.234   5.015   0.765 -0.3699 -0.0835 -0.3132
  661SOL    HW117403   0.258   5.071   0.839  0.0446  1.2671 -1.4471
  661SOL    HW217404   0.308   4.957   0.753  0.0186  0.4130 -0.3403
  662SOL     OW17405   0.574   3.697  10.501 -0.1961  0.2564 -0.0256
  662SOL    HW117406   0.599   3.607  10.521 -0.8166 -0.3775 -2.0473
  662SOL    HW217407   0.483   3.704  10.532  0.3881  0.7015  1.6415
  663SOL     OW17408   2.865   5.783   9.615 -0.0293  0.0486  0.2071
  663SOL    HW117409   2.901   5.724   9.549  1.6264 -0.9368  1.9617
  663SOL    HW217410   2.830   5.857   9.564  0.9322 -0.8310 -1.7771
  664SOL     OW17411   2.162   2.909  12.062  0.9196 -0.1315  0.3595
  664SOL    HW117412   2.228   2.976  12.044 -0.8929  1.5385 -0.3228
  664SOL    HW217413   2.194   2.831  12.017  2.0939  0.8296 -0.5093
  665SOL     OW17414   1.793   0.602   2.633  0.0673 -0.3737 -0.1731
  665SOL    HW117415   1.830   0.691   2.631 -1.7615  0.4092  0.0796
  665SOL    HW217416   1.837   0.560   2.707  0.0427  0.7345  0.4914
  666SOL     OW17417   4.335   4.721   1.446 -0.2460  0.1755  0.2907
  666SOL    HW117418   4.256   4.768   1.420 -2.0910 -1.4116  2.8470
  666SOL    HW217419   4.317   4.688   1.534  2.5499 -1.8117  0.2128
  667SOL     OW17420   2.075   5.086   0.958  0.1297 -0.4315 -0.0471
  667SOL    HW117421   2.146   5.143   0.930  0.7823 -0.7135  1.0179
  667SOL    HW217422   1.996   5.137   0.943  0.6469  0.3708 -0.0378
  668SOL     OW17423   5.679   0.983   0.982  0.4803 -0.1854  0.2650
  668SOL    HW117424   5.691   1.067   0.938 -2.0997  1.0182  1.7100
  668SOL    HW217425   5.640   0.927   0.916 -1.9483  1.1513  0.4795
  669SOL     OW17426   5.847   4.489   1.906 -0.0530 -0.4208  0.0243
  669SOL    HW117427   5.786   4.437   1.854  3.3703 -2.4359 -2.1517
  669SOL    HW217428   5.856   4.571   1.857  0.8288 -1.1004 -0.9741
  670SOL     OW17429   0.858   1.114   2.225 -0.6372 -0.1088 -0.1294
  670SOL    HW117430   0.907   1.111   2.143 -1.9676  0.5720 -0.9718
  670SOL    HW217431   0.925   1.125   2.293  0.6504 -2.7119 -0.9068
  671SOL     OW17432   5.962   4.318   0.925  0.2388 -0.6981 -0.4580
  671SOL    HW117433   6.004   4.356   0.848  1.0710 -0.9967 -0.1530
  671SOL    HW217434   5.875   4.357   0.926  1.2590  1.6412  0.1579
  672SOL     OW17435   2.721   4.854   9.513  0.5853 -0.1421 -0.5233
  672SOL    HW117436   2.731   4.912   9.438 -0.5532  0.4557 -0.2199
  672SOL    HW217437   2.810   4.843   9.547  1.1386 -0.6498 -2.1295
  673SOL     OW17438   0.264   2.058   0.431  0.0407 -0.3268 -0.5688
  673SOL    HW117439   0.352   2.093   0.437 -0.2978  0.5489 -0.7103
  673SOL    HW217440   0.206   2.134   0.437 -0.7177 -0.9222 -0.1093
  674SOL     OW17441   4.977   0.350  10.856 -0.2627  0.1150  0.7813
  674SOL    HW117442   4.957   0.437  10.820  0.0267  0.2868  1.0392
  674SOL    HW217443   4.891   0.308  10.863 -0.6177  1.0357  2.3588
  675SOL     OW17444   1.406   5.106  11.466  0.4266  0.4624  0.2981
  675SOL    HW117445   1.371   5.192  11.490  0.4702  0.6282 -0.2261
  675SOL    HW217446   1.332   5.062  11.424  0.4702  0.3219  0.3681
  676SOL     OW17447   3.788   2.037   2.194  0.1724  0.3006 -0.3391
  676SOL    HW117448   3.833   1.978   2.134  0.6675  0.4667 -0.1398
  676SOL    HW217449   3.841   2.035   2.274 -1.3185 -1.0997  0.6555
  677SOL     OW17450   1.067   4.952  10.159  0.3504  0.2414  0.4324
  677SOL    HW117451   1.112   4.893  10.097  2.0111  1.1998  0.7045
  677SOL    HW217452   0.976   4.922  10.157  0.8361 -1.2901 -0.6726
  678SOL     OW17453   3.427   2.863   7.474  0.4136  0.0057  0.5877
  678SOL    HW117454   3.482   2.935   7.441  0.4066 -0.6172 -0.8389
  678SOL    HW217455   3.464   2.785   7.432 -0.4554 -0.6343  1.0258
  679SOL     OW17456   4.524   0.132   1.371 -0.1913 -0.2577  0.0302
  679SOL    HW117457   4.502   0.157   1.461 -1.6746 -1.6794  0.0839
  679SOL    HW217458   4.619   0.147   1.365  0.4974 -2.8973  2.7627
  680SOL     OW17459   1.328   2.047   8.947 -0.2332  0.1003 -0.5481
  680SOL    HW117460   1.272   2.071   8.873  0.0685  0.2516 -0.7269
  680SOL    HW217461   1.368   1.964   8.922 -2.0415 -1.1183  0.4805
  681SOL     OW17462   1.579   4.196   1.434  0.0079 -0.3722 -0.3452
  681SOL    HW117463   1.554   4.282   1.470 -1.4539 -0.4936 -1.0254
  681SOL    HW217464   1.670   4.207   1.407 -0.0297  0.8442 -0.0275
  682SOL     OW17465   4.039   3.342   9.713  0.1807 -0.2968  0.1276
  682SOL    HW117466   4.034   3.396   9.635 -2.4129  0.4801  0.7855
  682SOL    HW217467   4.017   3.254   9.684  0.3823 -0.2398 -0.2037
  683SOL     OW17468   3.870   0.728  10.225  0.4087  0.0357  0.1254
  683SOL    HW117469   3.940   0.767  10.174  1.2393 -0.2423  1.0292
  683SOL    HW217470   3.793   0.783  10.208  0.8741  0.4100 -0.7738
  684SOL     OW17471   3.014   3.331  11.364  0.0141 -0.2042  0.4860
  684SOL    HW117472   2.929   3.324  11.321 -0.5503  0.9154  1.3830
  684SOL    HW217473   3.001   3.396  11.433  1.6457  0.1212  0.5217
  685SOL     OW17474   2.078   4.130   3.448 -0.3591 -0.6651 -0.6413
  685SOL    HW117475   2.089   4.035   3.450  0.9517 -0.5097 -0.3518
  685SOL    HW217476   2.038   4.148   3.363 -0.1012 -1.4146 -0.9207
  686SOL     OW17477   3.869   2.572  11.198  0.0884 -0.5423  0.1495
  686SOL    HW117478   3.826   2.493  11.168 -0.9963  0.1590 -0.1808
  686SOL    HW217479   3.890   2.554  11.290 -1.1960 -0.7875  0.4096
  687SOL     OW17480   0.224   1.135   1.088  0.5824 -0.0832 -0.0123
  687SOL    HW117481   0.172   1.084   1.026 -1.0725  0.2916  1.0674
  687SOL    HW217482   0.287   1.071   1.124 -1.4774 -1.4069  1.3385
  688SOL     OW17483   5.566   1.102   2.564  0.2677  0.1020 -0.8449
  688SOL    HW117484   5.572   1.009   2.543 -2.0996 -0.5362  1.0711
  688SOL    HW217485   5.479   1.128   2.534  0.5242  1.4781 -0.4553
  689SOL     OW17486   1.941   5.666  12.097 -0.1370 -0.8923  0.1998
  689SOL    HW117487   1.886   5.680  12.020  0.0904  0.4327  0.2734
  689SOL    HW217488   2.018   5.622  12.063 -0.5106 -1.2740 -0.1625
  690SOL     OW17489   5.872   1.866   2.863  0.2037 -0.0171  0.4598
  690SOL    HW117490   5.916   1.843   2.945 -1.7043  2.4873  2.2993
  690SOL    HW217491   5.782   1.835   2.875 -0.0496  0.2431 -0.7335
  691SOL     OW17492   3.944   4.489   1.600  0.0884  0.4323 -0.3624
  691SOL    HW117493   4.011   4.430   1.566 -0.7266 -2.0666  2.2409
  691SOL    HW217494   3.865   4.467   1.550  0.1944  0.5122 -0.5669
  692SOL     OW17495   0.279   3.640   1.616 -0.3097  0.2333  0.0212
  692SOL    HW117496   0.244   3.580   1.551  1.8022 -0.7841 -0.2437
  692SOL    HW217497   0.337   3.585   1.669  0.9342  1.8391  0.3498
  693SOL     OW17498   1.111   0.909   0.336 -0.1836  0.2592 -0.5804
  693SOL    HW117499   1.116   0.884   0.244 -2.1898  2.4978 -1.3341
  693SOL    HW217500   1.018   0.909   0.356  0.1877  0.6416  1.2203
  694SOL     OW17501   3.996   5.869  10.298  0.1270 -0.0514 -0.1532
  694SOL    HW117502   3.991   5.951  10.248 -0.6454  0.4676  0.7498
  694SOL    HW217503   3.905   5.849  10.320  0.4020 -0.6350  0.4603
  695SOL     OW17504   2.799   1.258   1.030 -0.3795  0.2737 -0.4914
  695SOL    HW117505   2.711   1.280   1.062 -0.4692 -0.1833 -0.4212
  695SOL    HW217506   2.858   1.301   1.091 -0.5383 -1.4105  0.8829
  696SOL     OW17507   4.875   0.238  10.296  0.0200 -0.4747 -0.2333
  696SOL    HW117508   4.953   0.275  10.255 -0.0603  3.0675  2.5409
  696SOL    HW217509   4.910   0.179  10.363  0.5704  2.7726  2.5348
  697SOL     OW17510   2.596   3.929  10.250  0.4760  0.0262  0.8494
  697SOL    HW117511   2.506   3.950  10.278  0.3823 -1.4602  1.7256
  697SOL    HW217512   2.650   3.995  10.295 -0.1029  0.4606  0.9244
  698SOL     OW17513   3.250   2.275  12.118 -0.3026 -0.5149 -0.7549
  698SOL    HW117514   3.163   2.236  12.110 -0.5763 -0.2693  0.8088
  698SOL    HW217515   3.234   2.369  12.129  0.2055 -0.3548 -1.3529
  699SOL     OW17516   3.791   4.145  12.049 -0.4107  0.6236  0.6622
  699SOL    HW117517   3.832   4.110  12.128 -0.4989  2.1896  1.4186
  699SOL    HW217518   3.863   4.181  11.999 -0.3181 -0.6140 -0.1285
  700SOL     OW17519   4.532   5.037   9.942  0.5841  0.5349  0.0828
  700SOL    HW117520   4.566   5.040  10.032  0.5754 -0.4026  0.1245
  700SOL    HW217521   4.610   5.044   9.887  0.7394 -0.3856  0.1725
  701SOL     OW17522   1.846   2.557   2.528  0.1008  0.5149  0.0477
  701SOL    HW117523   1.934   2.592   2.523  0.8950 -1.3986  0.2256
  701SOL    HW217524   1.819   2.546   2.436 -0.8441  3.1810 -0.0415
  702SOL     OW17525   1.372   2.598   1.942 -0.3463  0.3685  0.2031
  702SOL    HW117526   1.342   2.672   1.889 -1.6065  0.1777  0.6287
  702SOL    HW217527   1.455   2.627   1.979 -0.9090  1.6368  0.4985
  703SOL     OW17528   1.960   1.506   2.552  0.2826  0.2205  0.0802
  703SOL    HW117529   1.879   1.500   2.604 -0.1764  0.6545 -0.5717
  703SOL    HW217530   1.986   1.415   2.539 -0.9494 -0.0041 -0.9956
  704SOL     OW17531   0.874   0.623   1.593  0.3110 -0.0172 -0.2757
  704SOL    HW117532   0.796   0.678   1.592 -0.3085 -0.8070  1.3979
  704SOL    HW217533   0.924   0.654   1.668  1.3856  0.1760 -1.0635
  705SOL     OW17534   1.309   5.555  10.100 -0.2634  0.1719  0.1937
  705SOL    HW117535   1.246   5.551  10.171 -0.6015  0.9490 -0.0594
  705SOL    HW217536   1.308   5.647  10.072  1.0835  0.2344  0.2924
  706SOL     OW17537   1.862   0.769  10.025 -0.0384  0.1492  0.0285
  706SOL    HW117538   1.769   0.747  10.018 -0.1007  0.6578 -0.8094
  706SOL    HW217539   1.864   0.863  10.042  0.3148  0.0739  0.4252
  707SOL     OW17540   2.463   3.573   8.800 -0.8122 -0.3430 -0.5436
  707SOL    HW117541   2.446   3.515   8.874 -0.9666 -0.3746 -0.6026
  707SOL    HW217542   2.468   3.661   8.838  2.6058 -0.7360  0.0078
  708SOL     OW17543   0.046   3.008   3.795  0.0855 -0.1083 -0.4691
  708SOL    HW117544   0.140   3.022   3.796 -0.1158  1.3100 -0.8634
  708SOL    HW217545   0.030   2.960   3.713  0.8350 -3.3011  1.1488
  709SOL     OW17546   0.808   0.249   8.512  0.1175 -0.1367 -0.3840
  709SOL    HW117547   0.787   0.342   8.512 -1.0164 -0.3787 -0.5536
  709SOL    HW217548   0.843   0.231   8.425  0.1052  0.0799 -0.4338
  710SOL     OW17549   0.560   3.486   9.976  0.5527 -0.1305 -0.4689
  710SOL    HW117550   0.475   3.445   9.988  0.8282 -0.6781 -0.3607
  710SOL    HW217551   0.542   3.562   9.921 -0.0524 -0.0600 -0.1827
  711SOL     OW17552   1.662   1.075   9.488  0.8242 -0.1620  0.0803
  711SOL    HW117553   1.581   1.026   9.472  0.0597  0.9883  0.3514
  711SOL    HW217554   1.727   1.008   9.506 -0.3169 -1.0711  0.9398
  712SOL     OW17555   1.215   2.589  12.118 -0.2540  0.7067 -0.3150
  712SOL    HW117556   1.129   2.616  12.150  0.2331  1.1937  0.6078
  712SOL    HW217557   1.208   2.594  12.023 -1.0684  1.3074 -0.2272
  713SOL     OW17558   5.463   0.608   2.772  0.5405  0.2238 -0.7775
  713SOL    HW117559   5.551   0.578   2.750  0.4230 -1.1840  0.6116
  713SOL    HW217560   5.406   0.566   2.707  0.6126 -0.9659 -0.0909
  714SOL     OW17561   4.430   1.816  10.661  0.0208  0.2406 -0.0346
  714SOL    HW117562   4.394   1.777  10.581 -0.0766  1.8577 -0.7923
  714SOL    HW217563   4.525   1.809  10.650  0.0091  0.6179 -0.3588
  715SOL     OW17564   1.441   3.546  10.739 -0.0111  0.2708  0.0244
  715SOL    HW117565   1.421   3.635  10.768 -0.4334  0.7199 -1.5666
  715SOL    HW217566   1.489   3.558  10.657  0.4935 -0.9544  0.1279
  716SOL     OW17567   5.217   2.122  12.202  0.3657  0.0945 -0.8064
  716SOL    HW117568   5.203   2.029  12.215 -2.0693  0.3903 -1.1607
  716SOL    HW217569   5.207   2.136  12.108  0.0365  0.8075 -0.6716
  717SOL     OW17570   3.520   3.786  12.251  0.5323 -0.0147  0.3252
  717SOL    HW117571   3.615   3.794  12.255  0.5820 -1.0274  1.3604
  717SOL    HW217572   3.501   3.703  12.293 -0.7414 -0.3665 -0.9198
  718SOL     OW17573   1.582   4.057  10.714  0.1230 -0.6072 -0.3633
  718SOL    HW117574   1.609   3.986  10.656  0.7968 -0.3599 -0.3536
  718SOL    HW217575   1.659   4.073  10.770 -0.0999 -0.0190 -0.2188
  719SOL     OW17576   2.288   1.954   2.876 -0.4111 -0.0756  0.3521
  719SOL    HW117577   2.290   2.047   2.856 -1.8522 -0.0988  0.0756
  719SOL    HW217578   2.294   1.910   2.791  3.4582 -0.3111  0.6511
  720SOL     OW17579   0.087   2.481   9.534 -0.2585 -0.2848  0.2047
  720SOL    HW117580   0.008   2.518   9.495 -0.3323 -0.8194 -0.1674
  720SOL    HW217581   0.054   2.416   9.596 -0.1159 -0.3206  0.2431
  721SOL     OW17582   1.674   5.469  11.602  0.0737 -0.2955 -0.2665
  721SOL    HW117583   1.641   5.548  11.559 -0.1322  1.2962  2.6908
  721SOL    HW217584   1.767   5.488  11.618  0.2149 -0.9888 -0.2430
  722SOL     OW17585   0.898   5.522   2.739 -0.1505 -0.5031  0.8485
  722SOL    HW117586   0.980   5.572   2.748  0.6009 -1.6009  0.2288
  722SOL    HW217587   0.918   5.456   2.673 -1.1408 -1.6080  1.6438
  723SOL     OW17588   1.866   3.325   0.708 -0.1803 -0.1654 -0.0062
  723SOL    HW117589   1.869   3.420   0.714 -1.4682 -0.1710  0.8618
  723SOL    HW217590   1.815   3.306   0.629  1.3472 -0.1482 -1.0239
  724SOL     OW17591   4.150   3.262   2.578  0.4112  0.0902  0.3450
  724SOL    HW117592   4.156   3.280   2.484  0.7907  0.8111  0.5060
  724SOL    HW217593   4.094   3.332   2.612 -0.0286 -0.3796  0.6047
  725SOL     OW17594   3.272   2.738   3.894 -0.4659  0.0781  0.3574
  725SOL    HW117595   3.245   2.739   3.803  3.1233  0.9571 -0.7754
  725SOL    HW217596   3.320   2.820   3.906  0.9233 -0.9936  2.4523
  726SOL     OW17597   1.017   3.823   9.149  0.0771 -0.5705 -0.8568
  726SOL    HW117598   1.063   3.790   9.072  0.8409 -0.6167 -0.3763
  726SOL    HW217599   0.959   3.751   9.175  0.4530 -0.8793 -0.8707
  727SOL     OW17600   3.601   5.584  10.718 -0.6973  0.2827  0.3679
  727SOL    HW117601   3.593   5.616  10.628  0.7864 -0.8477 -0.1775
  727SOL    HW217602   3.576   5.659  10.772 -2.9413  0.5618 -0.9977
  728SOL     OW17603   2.446   2.336   1.148  0.1632  0.1083  0.6845
  728SOL    HW117604   2.355   2.307   1.147 -0.5860  2.1412  3.1491
  728SOL    HW217605   2.446   2.415   1.094  1.1894 -1.6264 -1.9741
  729SOL     OW17606   1.238   5.842  12.378  0.1880 -0.7403  0.6509
  729SOL    HW117607   1.266   5.806  12.293  0.5624 -1.5205  1.0948
  729SOL    HW217608   1.320   5.851  12.427  0.2180  1.6487  0.2082
  730SOL     OW17609   3.779   0.458   0.740 -0.4166 -0.8008  0.4858
  730SOL    HW117610   3.853   0.453   0.800 -0.5371 -1.3644  0.5883
  730SOL    HW217611   3.817   0.447   0.653 -0.4441 -1.6383  0.5745
  731SOL     OW17612   2.597   5.689   9.859 -0.3627  0.7724  0.0642
  731SOL    HW117613   2.686   5.691   9.893 -0.6176  1.8423  0.6816
  731SOL    HW217614   2.544   5.663   9.934 -0.5257 -0.3669 -0.4275
  732SOL     OW17615   2.246   2.654   2.824  0.3151 -0.3757 -0.1245
  732SOL    HW117616   2.192   2.663   2.746  0.8421 -0.2086 -0.4688
  732SOL    HW217617   2.183   2.643   2.895 -0.1603 -0.8592 -0.6144
  733SOL     OW17618   1.586   1.266  11.822 -0.1381 -0.1047 -0.4722
  733SOL    HW117619   1.540   1.258  11.906  0.2073  0.3042 -0.2364
  733SOL    HW217620   1.612   1.177  11.800  1.8331  0.0430  1.0488
  734SOL     OW17621   3.113   1.993   3.634  0.2748 -0.3795 -0.4621
  734SOL    HW117622   3.177   1.956   3.573  0.5745 -1.3494  0.4352
  734SOL    HW217623   3.160   2.002   3.717 -0.1629  0.8227 -0.3342
  735SOL     OW17624   3.831   4.765   1.458  0.1682  0.2459 -0.2275
  735SOL    HW117625   3.888   4.831   1.419  0.2172 -0.5741 -1.5582
  735SOL    HW217626   3.867   4.681   1.428 -1.9238 -0.2851 -1.3230
  736SOL     OW17627   0.100   5.463  10.842 -0.5567 -0.4115  0.4353
  736SOL    HW117628   0.108   5.521  10.917 -1.5303  0.6139 -0.2330
  736SOL    HW217629   0.006   5.462  10.823 -0.4780 -1.7004  0.0309
  737SOL     OW17630   2.281   4.453   2.865  0.6128 -0.2888 -0.6239
  737SOL    HW117631   2.288   4.530   2.921  0.1599 -0.3110 -0.5338
  737SOL    HW217632   2.343   4.470   2.794  0.0152  0.4730 -0.9709
  738SOL     OW17633   1.695   2.147  10.667  0.3961  0.0232 -0.1192
  738SOL    HW117634   1.684   2.241  10.683 -0.1652 -0.0688  0.0460
  738SOL    HW217635   1.775   2.141  10.614  2.3617  0.3520  2.6870
  739SOL     OW17636   5.218   3.527  10.391 -0.1034  0.1444  0.0030
  739SOL    HW117637   5.168   3.597  10.434  0.6218 -0.3950  1.7788
  739SOL    HW217638   5.309   3.545  10.413  0.1426 -1.0415  0.0013
  740SOL     OW17639   1.428   2.300   1.268 -0.2168 -0.0922  0.6254
  740SOL    HW117640   1.479   2.336   1.195  0.8614  1.5229  2.1444
  740SOL    HW217641   1.420   2.207   1.247  1.8666 -0.0622 -0.5268
  741SOL     OW17642   4.832   1.636   9.153  0.3379  0.2735 -0.1237
  741SOL    HW117643   4.814   1.649   9.060 -0.7172 -0.0248  0.0328
  741SOL    HW217644   4.760   1.681   9.198 -0.1597 -1.1235  0.5095
  742SOL     OW17645   0.861   5.665   8.912  0.0939  0.0509 -0.3533
  742SOL    HW117646   0.870   5.570   8.916 -0.2227  0.0689  0.7919
  742SOL    HW217647   0.771   5.683   8.938  0.0972  0.6578 -0.7327
  743SOL     OW17648   2.434   5.593   2.803 -0.4337 -0.7188 -0.1330
  743SOL    HW117649   2.415   5.499   2.808  1.8703 -1.2648 -0.9849
  743SOL    HW217650   2.447   5.620   2.894  0.5895 -1.6101 -0.0072
  744SOL     OW17651   1.782   5.534   3.591 -0.0301 -0.2164 -0.6681
  744SOL    HW117652   1.758   5.562   3.680 -0.7008  2.0768 -1.5401
  744SOL    HW217653   1.699   5.508   3.551 -0.1294  1.4865 -1.5627
  745SOL     OW17654   3.176   5.789  10.029  0.2495 -0.2026  0.6304
  745SOL    HW117655   3.164   5.884  10.027  0.3238 -0.1776  1.2278
  745SOL    HW217656   3.240   5.775  10.098  1.0867 -0.6056 -0.2152
  746SOL     OW17657   3.420   3.407   7.779 -0.3366 -0.9059  0.6667
  746SOL    HW117658   3.396   3.352   7.705 -0.5423  0.7482 -0.5350
  746SOL    HW217659   3.516   3.402   7.781 -0.2436  0.0505 -0.5344
  747SOL     OW17660   4.968   2.234  11.685  0.1487 -0.5943  0.2207
  747SOL    HW117661   4.928   2.315  11.715 -0.1939 -0.8349  0.4147
  747SOL    HW217662   4.898   2.190  11.636 -0.0213 -1.3126  1.1020
  748SOL     OW17663   4.600   3.327  11.892  0.1826 -0.5739 -0.1714
  748SOL    HW117664   4.625   3.279  11.814 -1.0730  0.4027 -1.2056
  748SOL    HW217665   4.511   3.360  11.873 -0.0494 -0.1351  1.5591
  749SOL     OW17666   0.603   3.392   2.693  0.1024  0.1283  0.2939
  749SOL    HW117667   0.592   3.369   2.601 -0.0647 -1.3300  0.6691
  749SOL    HW217668   0.517   3.376   2.732 -0.5074  3.0380  0.2470
  750SOL     OW17669   4.891   4.746   9.140  0.2260 -0.4193 -0.2536
  750SOL    HW117670   4.819   4.778   9.086 -0.8043 -1.7930  0.2757
  750SOL    HW217671   4.889   4.802   9.218  1.5113  1.3538 -1.4322
  751SOL     OW17672   4.018   1.124   2.479 -0.4550  0.1904 -0.3874
  751SOL    HW117673   4.056   1.105   2.393 -0.2969 -2.2093  0.1779
  751SOL    HW217674   3.931   1.084   2.476 -0.2281 -0.3989  0.7660
  752SOL     OW17675   4.439   0.124  11.463 -0.4252  0.4749  0.7454
  752SOL    HW117676   4.433   0.116  11.368  1.2563  0.5327  0.6097
  752SOL    HW217677   4.393   0.206  11.483  0.0354  0.9572 -0.1262
  753SOL     OW17678   5.636   4.808   9.532 -0.4543  0.6499 -0.3914
  753SOL    HW117679   5.597   4.728   9.498 -1.0870  0.4382  0.8223
  753SOL    HW217680   5.569   4.846   9.589  0.0026  1.8151 -0.6176
  754SOL     OW17681   3.186   5.443   2.400  0.1441 -0.2676 -0.6913
  754SOL    HW117682   3.137   5.512   2.444  1.3921  0.4035 -0.3484
  754SOL    HW217683   3.118   5.385   2.365 -0.9586  1.6622 -1.8715
  755SOL     OW17684   1.629   2.524  10.256  0.3323 -0.5458  0.1121
  755SOL    HW117685   1.640   2.597  10.196 -0.5478 -0.7624 -0.3247
  755SOL    HW217686   1.538   2.495  10.243  1.1638 -2.8066 -0.9569
  756SOL     OW17687   4.792   5.225   8.734  0.2509 -0.9213 -0.1396
  756SOL    HW117688   4.730   5.174   8.681 -0.7307  1.0725 -0.9292
  756SOL    HW217689   4.853   5.262   8.670  0.5157 -0.4786  0.3667
  757SOL     OW17690   3.449   1.217   2.520  0.2632  0.3351  0.4480
  757SOL    HW117691   3.407   1.150   2.467  1.7407  1.2884 -1.9888
  757SOL    HW217692   3.377   1.266   2.560 -0.8880  0.3888 -1.6849
  758SOL     OW17693   4.037   4.661   8.580 -0.4595 -0.5273 -0.1557
  758SOL    HW117694   3.951   4.620   8.593 -0.2077 -0.8020  0.6695
  758SOL    HW217695   4.084   4.645   8.661  0.7011 -1.1469 -0.9322
  759SOL     OW17696   0.497   0.433  10.864  0.4005  0.2248  0.2735
  759SOL    HW117697   0.585   0.396  10.860 -0.5038 -1.8154 -1.2606
  759SOL    HW217698   0.482   0.468  10.776 -0.0788  1.1958  0.7307
  760SOL     OW17699   3.411   5.851   2.652 -0.1718  0.6729 -0.1010
  760SOL    HW117700   3.437   5.858   2.560  1.1392  1.1889  0.2960
  760SOL    HW217701   3.403   5.757   2.667 -0.4437  0.5860 -0.7549
  761SOL     OW17702   5.821   5.518   2.731 -0.5176  0.1360  0.5084
  761SOL    HW117703   5.876   5.485   2.660  0.7181  1.3670  0.8675
  761SOL    HW217704   5.780   5.439   2.768 -0.2601 -0.6294 -0.8078
  762SOL     OW17705   5.798   5.772  11.271  0.2078  0.0604  0.5529
  762SOL    HW117706   5.832   5.697  11.223  0.5051  1.0566 -0.8124
  762SOL    HW217707   5.705   5.775  11.249  0.2067  0.1328  0.5666
  763SOL     OW17708   2.018   0.696   8.168  1.0432  0.1480 -0.2021
  763SOL    HW117709   2.062   0.781   8.167  3.3067 -0.9850 -0.0930
  763SOL    HW217710   2.069   0.642   8.107 -0.4334 -1.1101 -0.3519
  764SOL     OW17711   4.737   4.556   1.524  0.2744 -0.2965 -0.3645
  764SOL    HW117712   4.728   4.463   1.501  0.8082 -0.2075 -0.9405
  764SOL    HW217713   4.713   4.603   1.444  2.0097  0.0204 -0.7233
  765SOL     OW17714   4.045   4.981   2.891  0.6627 -0.1979 -0.2233
  765SOL    HW117715   3.984   5.034   2.942  0.9722  0.8583 -0.9303
  765SOL    HW217716   4.117   5.040   2.869  0.5469 -0.6164 -1.8559
  766SOL     OW17717   5.425   1.115   0.405 -0.4553 -0.6340 -0.8065
  766SOL    HW117718   5.515   1.127   0.434 -0.8029 -1.5484  0.6749
  766SOL    HW217719   5.432   1.105   0.310  0.8493  0.7272 -0.8651
  767SOL     OW17720   4.409   1.397   8.022  0.0502 -0.1673 -0.5553
  767SOL    HW117721   4.457   1.386   8.104 -1.5315 -1.7765  0.2002
  767SOL    HW217722   4.317   1.384   8.047 -0.5872  0.9659 -2.2935
  768SOL     OW17723   1.042   5.651   1.083 -0.5962  0.2521  0.5120
  768SOL    HW117724   0.971   5.592   1.110 -0.8358  0.1494 -0.3276
  768SOL    HW217725   1.007   5.698   1.008  0.6142 -0.5783 -0.5960
  769SOL     OW17726   5.389   3.730  11.985  0.5318  0.0515 -0.8721
  769SOL    HW117727   5.408   3.718  12.079 -0.0090  2.5409 -0.4196
  769SOL    HW217728   5.460   3.785  11.954  0.2075 -0.0225 -1.7413
  770SOL     OW17729   4.367   1.932   9.194  0.3107  0.2634 -0.6594
  770SOL    HW117730   4.320   1.916   9.112 -1.1478 -0.0945  0.2429
  770SOL    HW217731   4.329   1.871   9.256  2.4129 -0.4747 -0.0657
  771SOL     OW17732   3.109   1.144   1.438  0.3684 -0.5854 -0.0971
  771SOL    HW117733   3.056   1.222   1.421  1.0688  0.1888  1.1909
  771SOL    HW217734   3.054   1.090   1.494 -0.0958 -0.9837 -0.9414
  772SOL     OW17735   0.562   4.217  10.452  0.4806  0.1826 -0.2877
  772SOL    HW117736   0.585   4.274  10.526  0.4671  0.2587 -0.3409
  772SOL    HW217737   0.638   4.221  10.394  0.5797 -0.0457 -0.1758
  773SOL     OW17738   4.622   1.599   0.636 -0.7161 -0.5058  0.3201
  773SOL    HW117739   4.624   1.694   0.639 -0.9021 -0.4633 -0.9361
  773SOL    HW217740   4.696   1.572   0.691  1.0484  0.3978 -1.5600
  774SOL     OW17741   5.657   1.765   9.815 -0.1430  0.2486  0.0692
  774SOL    HW117742   5.585   1.710   9.845  1.1390 -1.8520 -0.6199
  774SOL    HW217743   5.728   1.745   9.876 -0.0824  2.2244  0.6778
  775SOL     OW17744   2.252   3.620   0.160  0.2650 -0.4436 -0.3368
  775SOL    HW117745   2.235   3.653   0.249  0.4446 -0.3363 -0.3409
  775SOL    HW217746   2.347   3.602   0.160  0.3083 -0.2121 -0.5849
  776SOL     OW17747   0.346   3.714   1.205 -0.8851  0.2340 -0.2172
  776SOL    HW117748   0.338   3.779   1.135  0.4129 -1.3768 -1.9094
  776SOL    HW217749   0.387   3.762   1.277  0.5413  1.1888 -1.6166
  777SOL     OW17750   2.330   0.843   2.629  0.3567 -0.0417  0.1402
  777SOL    HW117751   2.267   0.813   2.695  1.3222 -1.2815  0.5085
  777SOL    HW217752   2.346   0.766   2.574 -0.5670  1.0190 -1.6669
  778SOL     OW17753   5.635   1.902   0.158  0.0876  0.0649 -0.0075
  778SOL    HW117754   5.672   1.814   0.155 -0.3526 -0.0854 -1.2988
  778SOL    HW217755   5.615   1.923   0.067  1.4123  2.0432  0.1358
  779SOL     OW17756   2.735   5.107   3.957  0.1727 -0.5112  0.5355
  779SOL    HW117757   2.690   5.023   3.950  0.3360 -0.8279  3.0154
  779SOL    HW217758   2.822   5.086   3.990 -0.3823  0.7326  2.9425
  780SOL     OW17759   2.706   4.408  10.503 -0.6007  0.0491 -0.2679
  780SOL    HW117760   2.751   4.448  10.576  1.1550 -0.0123 -1.2905
  780SOL    HW217761   2.714   4.314  10.518 -0.8056  0.0409 -0.2012
  781SOL     OW17762   1.986   1.255   2.893 -0.2607 -0.1075 -0.2484
  781SOL    HW117763   2.068   1.269   2.845 -1.0710  0.1143 -1.5968
  781SOL    HW217764   1.921   1.237   2.825 -1.9147  2.4643  0.5768
  782SOL     OW17765   3.583   5.012   0.685 -0.1061 -0.1021 -0.1442
  782SOL    HW117766   3.624   5.077   0.628 -0.5918 -0.0492 -0.4361
  782SOL    HW217767   3.503   5.054   0.715 -0.6147 -0.7151 -0.6325
  783SOL     OW17768   5.758   1.521   3.342 -0.0097  0.5819  0.6341
  783SOL    HW117769   5.850   1.499   3.323  0.1151  2.1228 -0.7037
  783SOL    HW217770   5.761   1.566   3.426  0.2829 -0.6170  1.2673
  784SOL     OW17771   0.879   4.536   2.034 -0.4649 -0.0804  0.0587
  784SOL    HW117772   0.834   4.469   1.981 -0.9723 -1.1022  1.7561
  784SOL    HW217773   0.954   4.491   2.071  0.4399  0.8997 -0.5449
  785SOL     OW17774   2.597   2.094  10.596 -0.7592  0.0858 -0.0544
  785SOL    HW117775   2.548   2.157  10.542 -1.0005 -0.5282 -0.5660
  785SOL    HW217776   2.607   2.018  10.539  2.4354  0.8711 -0.6287
  786SOL     OW17777   3.931   5.312  10.607 -0.1462  0.6042  0.3545
  786SOL    HW117778   3.883   5.353  10.535  1.1590  1.1388 -0.2443
  786SOL    HW217779   3.931   5.219  10.586 -0.3793  0.6740  0.0382
  787SOL     OW17780   3.197   4.096   8.678 -0.0620  0.0620  0.0039
  787SOL    HW117781   3.223   4.005   8.690  0.4945  0.2491  0.2949
  787SOL    HW217782   3.230   4.140   8.757 -0.8979  0.3915  0.1724
  788SOL     OW17783   5.471   3.783  10.313 -0.1596 -0.1134  0.5450
  788SOL    HW117784   5.543   3.837  10.280  0.1430  0.0610  1.4713
  788SOL    HW217785   5.510   3.698  10.331 -0.4094 -0.3280  0.0855
  789SOL     OW17786   0.380   4.461  11.743 -0.4707  0.4199 -0.5985
  789SOL    HW117787   0.449   4.398  11.723  0.4512  1.5985 -1.2443
  789SOL    HW217788   0.317   4.413  11.796  1.1139 -0.5472  0.4266
  790SOL     OW17789   1.178   5.914  11.688  0.2517 -0.4637 -0.2386
  790SOL    HW117790   1.203   5.863  11.611  0.9870 -0.1840 -0.1922
  790SOL    HW217791   1.261   5.949  11.722 -0.2116  0.5767 -0.1521
  791SOL     OW17792   1.440   3.873   9.670 -0.4664  0.3098 -0.1322
  791SOL    HW117793   1.413   3.901   9.583 -0.6136 -1.0771 -0.5575
  791SOL    HW217794   1.459   3.779   9.660 -1.3215 -0.0687  1.5095
  792SOL     OW17795   2.608   4.088   0.611 -0.1793 -0.0353  0.8316
  792SOL    HW117796   2.592   4.084   0.705 -0.4369 -1.3973  0.7488
  792SOL    HW217797   2.635   4.178   0.594 -1.6849  0.6477  1.9609
  793SOL     OW17798   5.690   0.869   2.125  0.7814 -0.0659  0.0855
  793SOL    HW117799   5.779   0.905   2.116  0.7954  0.3367  1.7397
  793SOL    HW217800   5.697   0.782   2.086  1.6428  0.3653 -0.7554
  794SOL     OW17801   2.927   3.654  11.278  0.0361  0.1193 -0.4056
  794SOL    HW117802   2.917   3.576  11.333  1.4470  0.6348  0.6037
  794SOL    HW217803   3.014   3.643  11.238 -0.2212  0.6413 -1.1091
  795SOL     OW17804   1.726   3.488  11.590 -0.2514  0.1091  0.2554
  795SOL    HW117805   1.724   3.476  11.685  0.1065 -1.4524  0.0788
  795SOL    HW217806   1.636   3.512  11.567 -0.2293  0.9701  1.0378
  796SOL     OW17807   5.439   4.142   0.312 -0.9551 -0.3406 -0.5665
  796SOL    HW117808   5.378   4.070   0.297 -0.1626 -1.4178  1.1776
  796SOL    HW217809   5.468   4.130   0.403  0.5371  1.1544 -0.8210
  797SOL     OW17810   4.268   2.389   9.881  0.2571 -0.2985  0.2204
  797SOL    HW117811   4.268   2.334   9.802 -0.2950  0.6023 -0.4102
  797SOL    HW217812   4.221   2.468   9.856  0.5625  0.2380  1.2959
  798SOL     OW17813   1.248   4.897   0.377 -0.2406  0.1962  0.0094
  798SOL    HW117814   1.242   4.890   0.472  1.6082 -1.7507  0.0298
  798SOL    HW217815   1.211   4.816   0.344 -1.2377  1.0279 -0.9649
  799SOL     OW17816   4.443   2.486  10.440 -0.1042  0.7739  0.2586
  799SOL    HW117817   4.407   2.397  10.437  0.5422  0.4504  1.4256
  799SOL    HW217818   4.511   2.481  10.508  1.1612  1.7183 -0.9036
  800SOL     OW17819   2.679   5.045   1.415  0.5787 -0.4962 -0.6462
  800SOL    HW117820   2.641   5.010   1.496  0.8498  1.2931  0.2881
  800SOL    HW217821   2.754   5.097   1.445  0.1097  0.9671 -1.9636
  801SOL     OW17822   3.775   4.568   3.378  0.2756 -0.7049 -0.0113
  801SOL    HW117823   3.852   4.569   3.321  0.0285  0.2129 -0.3457
  801SOL    HW217824   3.782   4.648   3.430  0.4619 -1.5072  1.2125
  802SOL     OW17825   0.895   5.845   0.863 -0.2789  0.1781  0.7874
  802SOL    HW117826   0.827   5.909   0.839  0.3967  0.3160 -0.8304
  802SOL    HW217827   0.977   5.892   0.854  0.3657 -1.3430 -2.1426
  803SOL     OW17828   4.268   0.560   2.241  0.1419  0.2643 -0.5007
  803SOL    HW117829   4.203   0.593   2.179  1.6850  0.8873 -1.8189
  803SOL    HW217830   4.253   0.610   2.321 -2.3418 -1.0438 -0.0898
  804SOL     OW17831   4.649   4.259  11.709  0.2678  0.4416 -0.6287
  804SOL    HW117832   4.581   4.192  11.701  1.3335 -0.7819  0.2755
  804SOL    HW217833   4.604   4.342  11.695 -1.5517 -0.3011  0.6709
  805SOL     OW17834   5.469   3.195  10.046  0.1871 -0.0745 -0.2981
  805SOL    HW117835   5.390   3.156  10.086  0.7608 -0.2302  0.6924
  805SOL    HW217836   5.436   3.271   9.998 -0.2888  1.1241  1.8924
  806SOL     OW17837   1.923   2.053   3.510  0.1532  0.5186  0.5349
  806SOL    HW117838   2.002   2.006   3.534  0.5650  0.8004 -0.2375
  806SOL    HW217839   1.954   2.135   3.470 -0.5532  2.1291  3.1421
  807SOL     OW17840   2.901  -0.017   7.720 -0.0745  0.3142  0.3023
  807SOL    HW117841   2.988  -0.010   7.679 -0.4986  0.4083 -0.5864
  807SOL    HW217842   2.878   0.073   7.741  0.4794  0.1979  1.4784
  808SOL     OW17843   3.515   1.510   1.270  0.4286 -0.3232  0.0957
  808SOL    HW117844   3.465   1.443   1.224 -0.7435  0.1640  0.6545
  808SOL    HW217845   3.607   1.490   1.249  0.0288 -1.4428 -0.6154
  809SOL     OW17846   5.101   5.034   0.610  0.3374  0.2506 -0.0651
  809SOL    HW117847   5.082   4.962   0.670 -0.0222  1.1922  0.9781
  809SOL    HW217848   5.017   5.079   0.599  0.3623 -0.0199 -1.4292
  810SOL     OW17849   0.972  -0.005  11.035 -0.2990  0.8006 -0.1935
  810SOL    HW117850   0.945   0.078  11.074  0.6677  1.1242 -0.2118
  810SOL    HW217851   0.930  -0.006  10.949  0.7432  1.8735 -0.7262
  811SOL     OW17852   2.471   1.394   1.428 -0.6088  0.4569 -0.2584
  811SOL    HW117853   2.476   1.424   1.518 -2.0215 -1.1640  0.3988
  811SOL    HW217854   2.381   1.415   1.401 -0.8641 -0.9849 -0.5631
  812SOL     OW17855   1.841   4.379  11.711  0.4188  0.3365  0.4207
  812SOL    HW117856   1.792   4.433  11.650  0.0589  1.9681  2.1346
  812SOL    HW217857   1.776   4.317  11.746 -0.1258  1.5763  1.6355
  813SOL     OW17858   1.269   3.713  10.556  0.2808 -0.7008  1.0476
  813SOL    HW117859   1.319   3.783  10.514 -1.0584  0.0076  0.6093
  813SOL    HW217860   1.246   3.748  10.642 -0.8477 -0.3819  0.6227
  814SOL     OW17861   2.414   4.691  10.347 -0.3287  0.4651  0.1154
  814SOL    HW117862   2.441   4.654  10.431  3.8385  0.5393 -1.0785
  814SOL    HW217863   2.450   4.780  10.348  0.5775  0.1493 -2.0830
  815SOL     OW17864   2.282   0.135  11.663  0.2773 -1.3730 -0.3837
  815SOL    HW117865   2.375   0.125  11.644  0.0255 -1.8847 -1.3575
  815SOL    HW217866   2.279   0.193  11.740  1.3145  0.6736 -1.8275
  816SOL     OW17867   2.476   5.361   1.264  0.7465  0.4890  0.1103
  816SOL    HW117868   2.456   5.381   1.355  0.2808 -0.3406  0.1926
  816SOL    HW217869   2.467   5.266   1.257 -1.4742  0.7708 -1.3321
  817SOL     OW17870   4.047   1.396   3.029 -0.1047 -0.3164 -0.1289
  817SOL    HW117871   4.001   1.350   2.958  0.8330  3.3702 -3.3007
  817SOL    HW217872   4.139   1.372   3.017  0.1772  1.0497 -0.7700
  818SOL     OW17873   5.679   1.711   4.198 -0.4029 -0.4943 -0.4040
  818SOL    HW117874   5.737   1.641   4.227 -0.8600 -0.6947  0.0493
  818SOL    HW217875   5.633   1.738   4.278 -0.1745  0.3683 -0.5620
  819SOL     OW17876   5.831   4.824   3.620  0.0346 -0.7149  0.2564
  819SOL    HW117877   5.889   4.813   3.695  0.3189 -0.8677  0.0147
  819SOL    HW217878   5.757   4.875   3.654  0.1223 -0.8556  0.6579
  820SOL     OW17879   3.568   3.106   8.872 -0.0312 -0.3140 -0.5128
  820SOL    HW117880   3.580   3.130   8.780  0.2155  1.0978 -0.1247
  820SOL    HW217881   3.477   3.127   8.891  0.5132  1.4693  0.1636
  821SOL     OW17882   3.647   0.646  10.856 -0.0010  0.1177 -0.0198
  821SOL    HW117883   3.552   0.636  10.855 -0.1453  1.2281  1.4966
  821SOL    HW217884   3.662   0.740  10.865  1.2345 -0.0868  0.2703
  822SOL     OW17885   2.079   3.038  10.255 -0.6825  0.3860  0.4581
  822SOL    HW117886   2.140   3.031  10.181  1.6318  0.2161  2.3002
  822SOL    HW217887   2.104   3.120  10.298 -3.2576  1.4416 -0.0050
  823SOL     OW17888   1.311   0.577   3.231 -0.0155 -0.5911  0.3920
  823SOL    HW117889   1.400   0.557   3.202 -0.1210 -2.6566  1.3853
  823SOL    HW217890   1.313   0.670   3.254  1.3157 -0.1120 -1.6067
  824SOL     OW17891   1.313   4.661   2.515  0.2048  0.2826  0.0646
  824SOL    HW117892   1.330   4.636   2.606 -2.4901 -1.3588  0.1897
  824SOL    HW217893   1.366   4.602   2.463 -1.8723 -2.1039  0.5157
  825SOL     OW17894   3.681   3.154  11.594  0.1172 -0.2293  0.3616
  825SOL    HW117895   3.638   3.129  11.676 -0.7406 -1.8586 -0.5640
  825SOL    HW217896   3.762   3.103  11.593  1.3086  1.5840  1.3068
  826SOL     OW17897   2.949   5.774   2.802 -0.6124  0.0348 -1.0339
  826SOL    HW117898   2.857   5.753   2.816 -0.6688  1.8661  1.8591
  826SOL    HW217899   2.972   5.831   2.876  2.4478  0.8054 -2.4931
  827SOL     OW17900   2.850   2.564   9.751 -0.0809 -0.3247 -0.9266
  827SOL    HW117901   2.938   2.533   9.727  0.3982 -0.9449  1.4894
  827SOL    HW217902   2.805   2.486   9.783 -0.6351  0.4802  0.2832
  828SOL     OW17903   2.913   4.820   0.062 -0.0750  0.2147  0.2175
  828SOL    HW117904   2.881   4.743   0.014 -0.3020  1.8772 -2.4176
  828SOL    HW217905   3.006   4.802   0.077 -0.1129 -0.5443 -0.4236
  829SOL     OW17906   2.946   5.784   7.951  0.2349 -0.0118  0.0924
  829SOL    HW117907   2.910   5.812   7.867  1.1733  0.1904 -0.2375
  829SOL    HW217908   2.968   5.865   7.997  1.9344 -0.1636 -0.4233
  830SOL     OW17909   0.011   4.101  12.151 -0.6828 -0.0417  0.4691
  830SOL    HW117910  -0.052   4.033  12.129 -0.0213 -0.8133  0.9266
  830SOL    HW217911   0.094   4.070  12.114 -0.3799  0.5317  0.6510
  831SOL     OW17912   1.208   3.941  11.801 -0.3283  0.1961  0.0025
  831SOL    HW117913   1.220   3.853  11.765  1.4827  0.5334 -0.2869
  831SOL    HW217914   1.294   3.963  11.838 -0.1142  2.6671 -1.8380
  832SOL     OW17915   5.916   1.787   2.524  0.2890 -0.3544 -0.4428
  832SOL    HW117916   5.866   1.802   2.444  2.2206 -0.6276 -1.7606
  832SOL    HW217917   5.967   1.867   2.537  0.8712 -0.7542 -0.1731
  833SOL     OW17918   0.825   1.091  10.435  0.0644  0.0647  0.4224
  833SOL    HW117919   0.865   1.109  10.520 -1.0696 -1.6295  1.3300
  833SOL    HW217920   0.763   1.163  10.422  0.8829  0.8132  0.6022
  834SOL     OW17921   5.585   4.982   3.764  0.0757 -0.0714 -0.4626
  834SOL    HW117922   5.608   5.025   3.681 -0.2577 -0.0303 -0.5346
  834SOL    HW217923   5.515   4.922   3.742 -0.5826  0.5414 -0.0610
  835SOL     OW17924   5.664   0.336   1.596  0.1640  0.5874  0.1279
  835SOL    HW117925   5.582   0.294   1.620  0.8836 -1.0133 -0.1643
  835SOL    HW217926   5.730   0.267   1.603  1.4542  1.7819  0.1184
  836SOL     OW17927   1.541   5.250   0.971  0.1343  0.4879 -0.5487
  836SOL    HW117928   1.577   5.162   0.978  1.5071  1.0173 -0.7606
  836SOL    HW217929   1.446   5.237   0.970  0.1824 -0.7862  2.6401
  837SOL     OW17930   0.253   5.217   1.922  0.1974  0.2907  0.4638
  837SOL    HW117931   0.201   5.297   1.913 -0.4835 -0.2163 -0.1600
  837SOL    HW217932   0.189   5.146   1.917  0.8533 -0.3152  0.5540
  838SOL     OW17933   3.571   4.003   2.895 -0.5715  0.6473  0.4221
  838SOL    HW117934   3.652   3.955   2.877 -1.1985 -1.0229  1.9112
  838SOL    HW217935   3.524   4.003   2.812 -0.6904 -1.5939  0.4742
  839SOL     OW17936   2.304   2.756   1.495  0.1734 -0.3099  0.1046
  839SOL    HW117937   2.220   2.741   1.537 -1.0555 -0.0177 -2.1845
  839SOL    HW217938   2.324   2.673   1.451  1.8270 -0.8784  1.8413
  840SOL     OW17939   5.584   1.340  10.317 -0.3389  0.1068 -0.4138
  840SOL    HW117940   5.550   1.325  10.229 -2.0348 -1.6293  0.5008
  840SOL    HW217941   5.515   1.391  10.361  0.8533  1.6915 -0.3038
  841SOL     OW17942   0.799   3.848   2.663  0.1784  0.0885  0.4518
  841SOL    HW117943   0.737   3.904   2.710 -0.4847  1.1500 -1.6303
  841SOL    HW217944   0.795   3.765   2.710 -2.4404  0.2895  0.6951
  842SOL     OW17945   5.397   5.853   9.731  0.1733 -0.7355  0.3144
  842SOL    HW117946   5.436   5.790   9.670 -2.6622 -0.1535 -2.2249
  842SOL    HW217947   5.422   5.938   9.695 -0.6561 -0.3976  0.5344
  843SOL     OW17948   2.758   5.739   0.183  0.1485 -0.0689  0.0819
  843SOL    HW117949   2.853   5.739   0.194  0.2734  0.1649 -0.9839
  843SOL    HW217950   2.737   5.825   0.148 -0.4698 -0.0840  0.4068
  844SOL     OW17951   1.237   2.068   0.678 -0.3599 -0.1572  0.2675
  844SOL    HW117952   1.166   2.028   0.628 -0.4696 -0.8675  0.9793
  844SOL    HW217953   1.317   2.029   0.642 -0.3813  0.0019  0.0446
  845SOL     OW17954   1.716   4.613  10.799  0.0978  0.1180  0.2025
  845SOL    HW117955   1.688   4.553  10.868  1.4161 -0.9872 -0.2034
  845SOL    HW217956   1.706   4.700  10.838  0.4265 -0.4750  1.6473
  846SOL     OW17957   2.212   1.902   8.482 -0.0057 -0.8458  0.4099
  846SOL    HW117958   2.240   1.954   8.406 -0.9756  0.3676  0.8802
  846SOL    HW217959   2.156   1.834   8.444 -3.5572  1.9671  0.3728
  847SOL     OW17960   5.300   2.437   0.108  0.2481  0.4196  0.0241
  847SOL    HW117961   5.350   2.387   0.042 -0.0226 -1.6144  1.2978
  847SOL    HW217962   5.341   2.413   0.191 -2.6693 -1.1031  1.0806
  848SOL     OW17963   5.568   2.096  12.418 -0.0196  0.3263  0.4899
  848SOL    HW117964   5.649   2.147  12.426 -0.2249  1.0077 -1.3977
  848SOL    HW217965   5.500   2.162  12.401 -0.5346 -0.4409 -0.5136
  849SOL     OW17966   0.092   1.883   9.365 -0.0969  0.8364 -0.5847
  849SOL    HW117967   0.120   1.793   9.379  0.0329  0.7162 -1.6319
  849SOL    HW217968   0.123   1.930   9.443  0.2622  0.0794 -0.2716
  850SOL     OW17969   5.511   3.355   8.853  0.2657  0.2001 -0.0618
  850SOL    HW117970   5.416   3.345   8.867 -0.0230  2.9712  0.3483
  850SOL    HW217971   5.522   3.341   8.759 -0.8490  1.5757 -0.4261
  851SOL     OW17972   0.662   1.222   2.703  0.1680 -0.1346 -0.1864
  851SOL    HW117973   0.689   1.139   2.666  0.3904 -0.6299  1.0665
  851SOL    HW217974   0.706   1.227   2.788  1.2723  1.8995 -0.8406
  852SOL     OW17975   4.555   1.829   8.810 -0.4307 -0.4380 -0.1081
  852SOL    HW117976   4.469   1.787   8.809 -0.3471 -0.7142  1.9237
  852SOL    HW217977   4.582   1.832   8.718 -2.2196 -1.1550 -0.6678
  853SOL     OW17978   0.748   3.748   8.846  0.4333 -0.1058 -0.3693
  853SOL    HW117979   0.703   3.701   8.776 -0.0014  0.1328 -0.2578
  853SOL    HW217980   0.801   3.814   8.801  0.4631 -0.2120 -0.4906
  854SOL     OW17981   2.479   1.250   1.827  0.1542 -0.2329  0.9896
  854SOL    HW117982   2.447   1.169   1.787 -0.0243  0.2595  0.1298
  854SOL    HW217983   2.574   1.240   1.827  0.1341 -0.4378  0.8636
  855SOL     OW17984   4.242   4.370   3.406 -0.1195  0.2400  0.1060
  855SOL    HW117985   4.196   4.286   3.403  1.2982 -0.5125 -1.2793
  855SOL    HW217986   4.241   4.402   3.316 -0.2646  1.5032  0.5428
  856SOL     OW17987   2.555   4.953   2.642  0.1165 -0.4222 -0.1326
  856SOL    HW117988   2.627   5.014   2.660  0.2914 -0.1355 -1.7580
  856SOL    HW217989   2.598   4.871   2.618 -0.1150 -0.8964  1.0546
  857SOL     OW17990   0.826   4.338   4.430 -0.4384 -0.0656 -0.4252
  857SOL    HW117991   0.847   4.333   4.337  0.5225 -1.9860 -0.1322
  857SOL    HW217992   0.788   4.425   4.442 -0.6074  0.1837 -2.6136
  858SOL     OW17993   3.296   4.977   2.513 -0.1907 -0.7207  0.0046
  858SOL    HW117994   3.384   4.999   2.545 -0.4549  0.1956  0.1392
  858SOL    HW217995   3.311   4.932   2.430  0.4289 -1.0226  0.2784
  859SOL     OW17996   5.732   4.929  10.900 -0.3595 -0.1223 -0.2405
  859SOL    HW117997   5.672   4.925  10.975  0.6074  1.6410  0.6537
  859SOL    HW217998   5.674   4.938  10.824 -1.2323  2.3879  0.6810
  860SOL     OW17999   1.297   1.208   8.485  0.1341 -0.2757  0.0914
  860SOL    HW118000   1.308   1.211   8.390  0.3642  0.7206  0.1423
  860SOL    HW218001   1.215   1.160   8.498  0.4359 -0.9838 -0.5831
  861SOL     OW18002   5.731   3.661   7.697  0.3238 -0.0512  0.2748
  861SOL    HW118003   5.650   3.709   7.680  1.3963  2.2312  1.2909
  861SOL    HW218004   5.703   3.578   7.736 -1.5417  0.3014 -0.2762
  862SOL     OW18005   3.321   5.892  11.856 -0.3189  0.4789  0.0548
  862SOL    HW118006   3.236   5.912  11.817 -0.5871  2.5474  1.6404
  862SOL    HW218007   3.301   5.869  11.946  0.9488  2.6767  0.9285
  863SOL     OW18008   2.172   3.556   1.986 -0.2431 -0.4256  0.6361
  863SOL    HW118009   2.175   3.496   2.060  1.9389 -1.2044 -0.0409
  863SOL    HW218010   2.101   3.523   1.931  0.7299 -2.2270  0.4302
  864SOL     OW18011   0.437   3.809  11.456 -0.7502 -0.2398 -0.0664
  864SOL    HW118012   0.453   3.862  11.378  0.2969 -0.5453 -0.0762
  864SOL    HW218013   0.513   3.751  11.461 -0.2235  0.5796  1.8553
  865SOL     OW18014   0.173   1.984  11.603  0.0033 -0.2923  0.5455
  865SOL    HW118015   0.080   1.993  11.624 -0.0957  0.2114 -0.0738
  865SOL    HW218016   0.201   1.906  11.651 -1.1713 -1.5021 -0.6385
  866SOL     OW18017   3.493   3.511   8.693 -0.7017 -0.5900  0.4019
  866SOL    HW118018   3.428   3.519   8.763 -0.7301  0.5738  0.2489
  866SOL    HW218019   3.461   3.438   8.640 -2.1811  0.3098  0.0230
  867SOL     OW18020   3.996   4.674   0.483  0.0390  0.3187  0.0089
  867SOL    HW118021   4.049   4.599   0.509  1.0853  0.2050 -2.3446
  867SOL    HW218022   4.035   4.748   0.530  1.5724  0.0510 -0.8170
  868SOL     OW18023   0.917   3.619  11.324  0.7158  0.4128  0.0943
  868SOL    HW118024   0.856   3.629  11.252  0.6477  1.0556  0.2367
  868SOL    HW218025   0.952   3.530  11.314  1.9396  1.0699 -1.6813
  869SOL     OW18026   5.676   0.679   0.053 -0.2026  0.1295  0.0182
  869SOL    HW118027   5.606   0.629   0.012 -0.0004 -0.6706  0.6246
  869SOL    HW218028   5.685   0.641   0.140  1.9813 -0.7674 -0.5623
  870SOL     OW18029   4.871   5.565   8.115 -0.2095  0.2266  0.0050
  870SOL    HW118030   4.824   5.497   8.162 -0.7839  1.7341  1.6710
  870SOL    HW218031   4.962   5.553   8.139 -0.4311  0.6377  1.0847
  871SOL     OW18032   2.500   5.920   0.584 -0.2394 -0.1129  0.2248
  871SOL    HW118033   2.563   5.983   0.549 -0.4925  1.2737  2.1692
  871SOL    HW218034   2.533   5.834   0.557  0.2499  0.8234 -2.2435
  872SOL     OW18035   3.651   4.996   3.775 -0.0124  0.6207 -0.3307
  872SOL    HW118036   3.597   4.917   3.773 -0.3364  0.8127  0.6744
  872SOL    HW218037   3.595   5.064   3.739 -0.0896  0.6042 -0.2435
  873SOL     OW18038   5.061   4.859  11.017 -0.2497  0.2981 -0.2450
  873SOL    HW118039   4.990   4.878  11.079  0.9986 -0.2249  1.3775
  873SOL    HW218040   5.079   4.943  10.975 -0.6055  0.8303  0.6494
  874SOL     OW18041   1.872   2.638  10.967 -0.1608 -0.0150 -0.0175
  874SOL    HW118042   1.893   2.560  10.916 -1.5768 -0.5230  0.1391
  874SOL    HW218043   1.854   2.605  11.055 -1.6603  0.3661 -0.1740
  875SOL     OW18044   1.768   3.011   1.243 -0.8536 -0.4151 -0.4338
  875SOL    HW118045   1.740   2.944   1.305 -3.3114  1.9900  1.2037
  875SOL    HW218046   1.741   2.978   1.158 -0.6552 -2.1858  0.1748
  876SOL     OW18047   5.065   3.929  12.277 -0.0997 -0.2185 -0.5761
  876SOL    HW118048   5.145   3.982  12.280 -0.2097  0.1265 -2.6202
  876SOL    HW218049   5.060   3.900  12.186 -3.3361  1.3332 -0.9285
  877SOL     OW18050   5.673   2.348   9.357 -0.3379 -0.2188  0.4097
  877SOL    HW118051   5.600   2.355   9.419 -0.5334  1.7202 -0.0160
  877SOL    HW218052   5.735   2.416   9.384 -0.8494  1.2961 -2.0467
  878SOL     OW18053   3.097   3.556   2.751 -0.4997  0.3204 -0.6871
  878SOL    HW118054   3.059   3.476   2.787 -0.6534 -0.2015 -1.9983
  878SOL    HW218055   3.191   3.546   2.767 -0.4508 -0.4093 -1.4063
  879SOL     OW18056   4.849   4.256  10.944 -0.1861  0.3698  0.1091
  879SOL    HW118057   4.930   4.306  10.945 -0.7682  1.3209 -0.2462
  879SOL    HW218058   4.833   4.236  11.036  0.2749  0.4510  0.2110
  880SOL     OW18059   5.718   1.141   0.478 -0.4766 -0.2646  0.0753
  880SOL    HW118060   5.717   1.199   0.401 -1.7826  0.6112  0.7228
  880SOL    HW218061   5.751   1.058   0.445  0.2454  0.4909 -1.1532
  881SOL     OW18062   5.924   3.213   0.321  0.2529 -0.1081 -0.2242
  881SOL    HW118063   5.922   3.308   0.307 -0.7125 -0.0176  0.4640
  881SOL    HW218064   5.940   3.203   0.415  3.1422 -0.6746 -0.7133
  882SOL     OW18065   5.410   0.202   1.820  0.0517  0.5966 -0.2996
  882SOL    HW118066   5.372   0.200   1.732  0.1481  1.7116 -0.3712
  882SOL    HW218067   5.469   0.126   1.822 -2.5027 -1.4388 -0.0229
  883SOL     OW18068   3.239   3.867   9.141 -0.6346  0.7412 -0.4607
  883SOL    HW118069   3.226   3.775   9.164  0.5740  0.4445 -0.9206
  883SOL    HW218070   3.178   3.883   9.069 -0.1148  0.0103 -1.0749
  884SOL     OW18071   0.288   3.111  11.182 -0.1655 -0.0685  0.1410
  884SOL    HW118072   0.208   3.083  11.226  0.1915 -0.1507  0.7338
  884SOL    HW218073   0.305   3.041  11.118 -0.1109 -0.4545  0.5758
  885SOL     OW18074   3.333   5.196   2.094 -0.1748  0.0635 -0.1729
  885SOL    HW118075   3.398   5.128   2.078  2.3075  2.1786  0.5668
  885SOL    HW218076   3.298   5.217   2.007  2.0562  0.7294 -0.9473
  886SOL     OW18077   0.467   3.264  10.471  0.2804  0.3746 -0.0376
  886SOL    HW118078   0.503   3.311  10.546 -0.7858 -0.4060  0.9856
  886SOL    HW218079   0.528   3.191  10.458  1.9648  1.9956 -1.6612
  887SOL     OW18080   5.311   5.776   2.270 -0.3074  0.4297 -0.3251
  887SOL    HW118081   5.253   5.795   2.197  0.8421 -0.5830 -1.5242
  887SOL    HW218082   5.315   5.681   2.275 -0.3983  0.4790  1.0836
  888SOL     OW18083   5.231   2.844  11.479  0.1661 -0.4236  0.1505
  888SOL    HW118084   5.149   2.822  11.435  1.1291 -0.8994 -1.4483
  888SOL    HW218085   5.285   2.765  11.471  0.6197 -0.2603  1.5548
  889SOL     OW18086   2.125   0.006   0.136  0.1018 -0.5746  0.6765
  889SOL    HW118087   2.199   0.006   0.197 -0.3132 -1.8761  1.1979
  889SOL    HW218088   2.050   0.034   0.188  0.0315 -0.2297  0.3948
  890SOL     OW18089   1.312   3.715  11.753  0.8866 -0.2940  0.5990
  890SOL    HW118090   1.407   3.712  11.764  0.8457  0.3281  1.1869
  890SOL    HW218091   1.281   3.631  11.789  1.2970 -0.9410 -0.5475
  891SOL     OW18092   5.564   2.847   1.375  0.7357 -0.9972 -0.8662
  891SOL    HW118093   5.634   2.874   1.316  1.9218 -2.1278 -0.0196
  891SOL    HW218094   5.601   2.858   1.463 -0.1712 -1.5230 -0.4126
  892SOL     OW18095   5.535   4.243   3.243  0.0024  0.2897  0.4529
  892SOL    HW118096   5.585   4.265   3.321  1.7691 -0.2898 -0.4829
  892SOL    HW218097   5.519   4.149   3.250  2.0569 -0.2150 -0.8807
  893SOL     OW18098   0.784   3.892  11.462 -0.1394  0.3419 -0.8590
  893SOL    HW118099   0.822   3.943  11.533  0.2588  0.8679 -1.4535
  893SOL    HW218100   0.734   3.823  11.507 -0.3519  1.0052 -0.0648
  894SOL     OW18101   3.581   1.935  12.056  0.1126  0.0560  0.3213
  894SOL    HW118102   3.615   1.880  12.127  1.3687 -2.7630 -2.3179
  894SOL    HW218103   3.555   2.016  12.098 -1.6242 -2.4782  4.4259
  895SOL     OW18104   4.808   5.810  12.057 -0.2801 -0.1900  0.4478
  895SOL    HW118105   4.869   5.858  12.112 -1.2770  2.0168 -0.3090
  895SOL    HW218106   4.760   5.754  12.117  0.5838  0.1127  1.4265
  896SOL     OW18107   5.640   2.626   0.991 -0.6148 -0.2067  0.1961
  896SOL    HW118108   5.687   2.581   1.061  0.6943 -0.3016 -0.7231
  896SOL    HW218109   5.709   2.665   0.937 -1.5632 -0.5426 -1.2999
  897SOL     OW18110   3.916   0.611   7.672 -0.1010 -0.5326 -0.3526
  897SOL    HW118111   3.984   0.664   7.632 -0.2706  0.6902  0.9387
  897SOL    HW218112   3.963   0.541   7.717  0.2683 -0.0257  0.0532
  898SOL     OW18113   2.599   5.720   0.409 -0.2014  0.1913 -0.2650
  898SOL    HW118114   2.669   5.683   0.461 -0.6416 -0.5318 -0.1829
  898SOL    HW218115   2.633   5.721   0.319  0.2005  0.5696 -0.1113
  899SOL     OW18116   4.013   1.788  10.698 -0.0236  0.2233 -0.1614
  899SOL    HW118117   3.933   1.752  10.660  0.0894  0.7072 -0.8833
  899SOL    HW218118   4.077   1.716  10.695 -0.4132 -0.1446  0.3624
  900SOL     OW18119   3.634   0.515   1.506  0.1279  0.2691  0.0654
  900SOL    HW118120   3.605   0.598   1.544  0.3295  0.9107 -1.1833
  900SOL    HW218121   3.582   0.504   1.427  2.5527  0.9647 -1.6805
  901SOL     OW18122   0.211   3.068  11.574  0.1099  0.0181 -0.2068
  901SOL    HW118123   0.165   3.004  11.628  1.6449 -0.7434  0.2243
  901SOL    HW218124   0.272   3.111  11.635  0.3172  0.6685 -0.8682
  902SOL     OW18125   1.102   5.805  10.523  0.0435  0.1837  0.0364
  902SOL    HW118126   1.033   5.746  10.492 -1.1599  0.7361  1.5694
  902SOL    HW218127   1.179   5.781  10.472 -0.6397 -2.1750  0.0364
  903SOL     OW18128   0.878   4.307  11.393 -0.2439 -0.3091 -0.0374
  903SOL    HW118129   0.946   4.251  11.433  0.1417  1.3260  1.6900
  903SOL    HW218130   0.915   4.395  11.396 -1.7455  0.3601 -0.6759
  904SOL     OW18131   4.753   1.389  11.736  0.5072  0.7278 -0.2606
  904SOL    HW118132   4.705   1.403  11.817 -0.8560 -3.5964 -0.1856
  904SOL    HW218133   4.693   1.416  11.667  0.0162  0.4388  0.0471
  905SOL     OW18134   1.279   2.911   4.118 -0.1028 -0.6338  0.5447
  905SOL    HW118135   1.306   2.996   4.153  0.0977 -0.2072 -0.6224
  905SOL    HW218136   1.307   2.912   4.026 -2.8514 -0.6942 -0.3616
  906SOL     OW18137   4.765   0.558   0.150  0.2261 -0.0372 -0.1477
  906SOL    HW118138   4.819   0.632   0.176 -1.1311  0.5964  0.9422
  906SOL    HW218139   4.788   0.543   0.058  2.5909 -0.1204  0.4225
  907SOL     OW18140   4.912   4.844   2.435 -0.4523  0.0084  0.1909
  907SOL    HW118141   4.941   4.912   2.496 -1.9342  0.1143  0.8020
  907SOL    HW218142   4.942   4.875   2.349  0.8430  0.3166  0.7364
  908SOL     OW18143   5.443   3.180  12.397  0.2336 -0.6487 -0.3077
  908SOL    HW118144   5.418   3.108  12.339  1.3489 -0.8008 -0.6233
  908SOL    HW218145   5.490   3.138  12.469 -1.4570 -0.4958  0.9133
  909SOL     OW18146   2.269   3.963  11.245 -0.0778  0.5799 -0.0068
  909SOL    HW118147   2.346   3.993  11.293  0.1561  2.1991 -1.3841
  909SOL    HW218148   2.280   3.868  11.241  1.0761  0.6463  1.1072
  910SOL     OW18149   2.140   2.472   1.343 -0.2921  0.1756  0.8346
  910SOL    HW118150   2.166   2.560   1.317 -0.1998  0.0387  0.4471
  910SOL    HW218151   2.062   2.485   1.398 -2.7144  0.3082 -2.4611
  911SOL     OW18152   3.416   1.554   3.061  0.7889 -0.7840  0.2591
  911SOL    HW118153   3.475   1.553   3.137  0.7812 -1.5320  0.2572
  911SOL    HW218154   3.472   1.527   2.987  0.4763 -1.3905  0.2392
  912SOL     OW18155   4.515   4.388   9.272 -0.0810 -0.2046  0.2893
  912SOL    HW118156   4.440   4.330   9.274 -1.9635  2.0399 -1.5073
  912SOL    HW218157   4.519   4.427   9.359 -0.4516 -1.0151  0.6681
  913SOL     OW18158   5.502   1.985   1.793  0.9080  0.2517 -0.0860
  913SOL    HW118159   5.528   1.897   1.821  0.0797 -0.0703 -0.3191
  913SOL    HW218160   5.535   2.043   1.861 -1.7887 -0.5862  2.0164
  914SOL     OW18161   2.354   5.203   8.348  0.2294  0.2493 -0.0625
  914SOL    HW118162   2.348   5.107   8.342 -1.2006  0.3442 -0.3473
  914SOL    HW218163   2.415   5.227   8.278 -1.7998 -0.2177 -2.0653
  915SOL     OW18164   4.858   4.912   1.449 -0.0556  0.0303 -0.3341
  915SOL    HW118165   4.884   4.874   1.365 -0.1821 -0.2879 -0.2286
  915SOL    HW218166   4.764   4.895   1.454 -0.4085  1.6427 -0.9699
  916SOL     OW18167   4.100   3.868   9.847 -0.4621 -0.0437 -0.4074
  916SOL    HW118168   4.069   3.780   9.869  0.3794 -0.2372 -0.0019
  916SOL    HW218169   4.084   3.876   9.752 -0.1996 -0.7665 -0.5175
  917SOL     OW18170   1.339   4.453   8.214  0.6015 -0.6540  0.4017
  917SOL    HW118171   1.290   4.510   8.273 -0.0135  0.1840 -0.8958
  917SOL    HW218172   1.273   4.392   8.180  1.0135 -1.3341  0.8041
  918SOL     OW18173   5.965   4.299   9.606  0.3206 -0.0006 -0.0279
  918SOL    HW118174   5.951   4.354   9.529  3.3768  0.3976 -0.3414
  918SOL    HW218175   5.882   4.253   9.617 -0.6421  0.9638 -2.7445
  919SOL     OW18176   2.801   0.189   0.231  0.2442 -0.1395 -0.4335
  919SOL    HW118177   2.784   0.123   0.165  3.8571 -0.1602 -1.4152
  919SOL    HW218178   2.816   0.270   0.182  0.5532  0.3850  0.4939
  920SOL     OW18179   5.377   3.515   1.909  0.1811 -0.3495  0.0899
  920SOL    HW118180   5.429   3.589   1.942 -0.5570 -0.3054  1.1410
  920SOL    HW218181   5.398   3.443   1.968 -2.5768  0.2234  1.8478
  921SOL     OW18182   2.449   5.557  10.086 -0.4032  0.0582 -0.6232
  921SOL    HW118183   2.372   5.605  10.118 -2.1426 -1.7468 -1.9004
  921SOL    HW218184   2.521   5.586  10.142 -1.7311  2.8240 -0.2677
  922SOL     OW18185   0.581   5.038   2.403  0.3283 -0.2083  0.1080
  922SOL    HW118186   0.640   5.090   2.348 -1.8280  1.6886 -0.4924
  922SOL    HW218187   0.636   4.967   2.437  3.1105  1.8375  0.0775
  923SOL     OW18188   0.949   1.361  11.827  0.8713 -0.3502 -0.1370
  923SOL    HW118189   0.883   1.316  11.774  0.5666 -0.9194  0.7221
  923SOL    HW218190   0.901   1.431  11.871  1.1583  0.2328 -0.7309
  924SOL     OW18191   0.074   2.680  11.748  0.0219 -0.9679  0.5923
  924SOL    HW118192   0.053   2.773  11.749  0.9802 -0.7436  0.0272
  924SOL    HW218193   0.166   2.676  11.721 -0.0512 -2.0801  0.4803
  925SOL     OW18194   1.788   4.550  12.078 -0.1182 -0.1072 -0.6650
  925SOL    HW118195   1.881   4.553  12.055 -0.3879  0.9306 -1.6416
  925SOL    HW218196   1.764   4.642  12.092 -1.0455 -0.3595 -0.5928
  926SOL     OW18197   2.057   0.657   9.293  0.5686 -0.0946  0.2890
  926SOL    HW118198   2.108   0.612   9.361 -0.3033 -2.2824 -0.4608
  926SOL    HW218199   2.057   0.596   9.219 -1.7319  0.6009 -0.3042
  927SOL     OW18200   4.514   1.382   1.502 -0.2489  0.4865  0.1358
  927SOL    HW118201   4.479   1.358   1.416 -1.1145  1.1623  0.2875
  927SOL    HW218202   4.599   1.338   1.507 -1.8969 -2.8970  0.5372
  928SOL     OW18203   5.894   3.287   3.897 -0.0143 -0.3804  0.9651
  928SOL    HW118204   5.900   3.218   3.831  1.7137  0.5120  0.1452
  928SOL    HW218205   5.973   3.340   3.884 -1.4265  1.9299  1.3864
  929SOL     OW18206   4.088   3.349   1.471  0.5021  0.1078 -0.7678
  929SOL    HW118207   4.115   3.322   1.559 -2.3790 -0.3095  0.0442
  929SOL    HW218208   4.081   3.267   1.422  0.1652  0.1559 -0.8028
  930SOL     OW18209   1.206   3.380   3.754  0.3340  0.6509 -0.6818
  930SOL    HW118210   1.236   3.391   3.844 -0.9716 -0.7417 -0.0621
  930SOL    HW218211   1.282   3.405   3.700  1.5489  0.2510  0.8078
  931SOL     OW18212   0.278   5.401   4.179 -0.4990 -0.0628 -0.2671
  931SOL    HW118213   0.209   5.360   4.126 -1.1746 -0.2074  0.7191
  931SOL    HW218214   0.315   5.469   4.122 -1.9947  0.5541 -0.5182
  932SOL     OW18215   5.555   2.584   0.451 -0.1268 -0.4736  0.3349
  932SOL    HW118216   5.621   2.518   0.471 -1.0669 -1.7911 -0.8196
  932SOL    HW218217   5.564   2.649   0.521  0.9452 -1.7140  1.3742
  933SOL     OW18218   2.769   0.586   9.250  0.3751 -0.3898  0.3517
  933SOL    HW118219   2.787   0.502   9.209  0.6329  0.3609 -1.1383
  933SOL    HW218220   2.841   0.600   9.311  0.9765 -0.7015 -0.2791
  934SOL     OW18221   1.381   5.323   4.040 -0.3752  0.0707 -0.3182
  934SOL    HW118222   1.447   5.269   3.996 -1.4213 -1.4515 -0.0511
  934SOL    HW218223   1.391   5.303   4.133  0.1521  1.3928 -0.0779
  935SOL     OW18224   4.197   3.127  11.050  0.2459 -0.3160  0.2875
  935SOL    HW118225   4.134   3.160  10.987  1.1565  1.1811  0.1367
  935SOL    HW218226   4.256   3.200  11.066  0.6519 -1.0029  2.0841
  936SOL     OW18227   0.845   1.097   9.147 -0.1748  0.5490 -0.4922
  936SOL    HW118228   0.933   1.058   9.151 -0.0026  0.6071 -3.0789
  936SOL    HW218229   0.792   1.032   9.102 -1.1228  1.1418 -0.2432
  937SOL     OW18230   4.644   1.183  12.306 -0.0415  0.1060  0.1228
  937SOL    HW118231   4.662   1.162  12.398 -0.0668  0.5207  0.2216
  937SOL    HW218232   4.705   1.253  12.285 -1.2360  1.2202  0.3319
  938SOL     OW18233   2.137   4.552   0.042 -0.1616 -0.1098 -0.2601
  938SOL    HW118234   2.168   4.473   0.085 -1.1273 -2.9420 -4.5203
  938SOL    HW218235   2.216   4.599   0.017  0.4563 -0.6523  0.6762
  939SOL     OW18236   4.246   1.415  10.505  0.3475 -0.2465  0.4669
  939SOL    HW118237   4.192   1.491  10.481  1.6202  1.0492  1.5958
  939SOL    HW218238   4.307   1.404  10.432 -0.0502 -0.3802  0.1531
  940SOL     OW18239   1.647   1.733   4.354  0.4985 -0.0555 -0.5484
  940SOL    HW118240   1.641   1.749   4.449  0.5515 -0.7898 -0.4149
  940SOL    HW218241   1.741   1.731   4.336  0.5106 -1.0269 -0.4146
  941SOL     OW18242   0.080   3.882   9.381 -0.6135 -0.0956  0.2600
  941SOL    HW118243   0.004   3.862   9.436  2.7571 -2.4815  4.3922
  941SOL    HW218244   0.121   3.956   9.425  1.5875 -1.3939  0.4473
  942SOL     OW18245   3.612   3.934   9.674  0.5781  0.6154 -0.8972
  942SOL    HW118246   3.567   3.965   9.596  0.7949  0.8050 -0.9494
  942SOL    HW218247   3.680   3.999   9.689 -0.2791  1.2866  0.1979
  943SOL     OW18248   3.092   2.409  10.797 -0.3910 -0.0763  0.8010
  943SOL    HW118249   3.148   2.398  10.874 -1.2884 -0.8539  1.3524
  943SOL    HW218250   3.025   2.342  10.807 -2.1658  1.6605  0.8097
  944SOL     OW18251   4.509   1.090   2.360 -0.1961 -0.6781 -0.0639
  944SOL    HW118252   4.528   0.999   2.383 -1.2108 -0.9481 -0.2637
  944SOL    HW218253   4.566   1.108   2.285  0.0698 -1.1229  0.0294
  945SOL     OW18254   1.452   2.211   9.176 -0.3069 -0.1667 -0.3579
  945SOL    HW118255   1.458   2.155   9.098 -1.3617  1.1396 -1.4074
  945SOL    HW218256   1.358   2.217   9.194 -0.2430  1.5066 -0.4674
  946SOL     OW18257   3.465   0.131   3.426 -0.4637 -0.4499 -0.0321
  946SOL    HW118258   3.377   0.096   3.409  0.4899 -2.7572 -0.4522
  946SOL    HW218259   3.511   0.121   3.342  0.1096  1.0980  0.0766
  947SOL     OW18260   4.531   5.653   0.609 -0.2220  0.3824  0.8111
  947SOL    HW118261   4.448   5.696   0.631 -1.6177 -1.0790 -1.4494
  947SOL    HW218262   4.575   5.714   0.551  0.5471  1.4049  2.4538
  948SOL     OW18263   0.101   0.583  10.632 -0.2983  0.2135  0.2062
  948SOL    HW118264   0.165   0.649  10.655  1.3024 -1.6767  1.3699
  948SOL    HW218265   0.151   0.516  10.585 -1.3761 -1.3815  1.2917
  949SOL     OW18266   0.238   4.708   8.881  0.0096 -0.3600 -0.2572
  949SOL    HW118267   0.167   4.753   8.926 -0.5424 -2.5863  1.1555
  949SOL    HW218268   0.237   4.744   8.792 -0.5089  2.2637  0.7747
  950SOL     OW18269   3.995   4.785   2.460 -0.3476  0.1235 -0.2233
  950SOL    HW118270   3.914   4.751   2.420  1.0017 -1.7624 -1.4110
  950SOL    HW218271   4.006   4.733   2.539  1.0038 -1.3537 -1.3492
  951SOL     OW18272   3.381   1.912   2.804  0.5672 -0.2244 -0.1842
  951SOL    HW118273   3.340   1.922   2.718 -0.3851  0.5337  0.3360
  951SOL    HW218274   3.424   1.996   2.820 -1.0502  0.4120  0.9766
  952SOL     OW18275   3.744   1.018   4.184  0.2537  0.3859 -0.5385
  952SOL    HW118276   3.823   0.979   4.147  0.5734 -0.5584  1.0663
  952SOL    HW218277   3.767   1.109   4.200  1.1404  0.0287  0.2437
  953SOL     OW18278   0.383   0.256  11.141 -0.2941 -0.6727  0.2329
  953SOL    HW118279   0.403   0.349  11.132 -2.0803 -0.4107 -1.7154
  953SOL    HW218280   0.467   0.215  11.162  1.3423  0.8961 -2.8475
  954SOL     OW18281   0.262   5.291  11.778  0.0371  0.3492 -0.0298
  954SOL    HW118282   0.265   5.244  11.695  2.3654  0.1281  0.1478
  954SOL    HW218283   0.230   5.379  11.756  0.3932  0.2037 -1.1236
  955SOL     OW18284   4.209   0.601   3.599  0.6622  0.5714  0.3951
  955SOL    HW118285   4.301   0.576   3.594  0.3111 -0.3601 -1.6376
  955SOL    HW218286   4.161   0.519   3.587 -0.4475  1.1962  0.4792
  956SOL     OW18287   0.785   0.034   2.007  0.0850 -0.3216 -0.2083
  956SOL    HW118288   0.828   0.017   1.923 -0.3735 -3.1835  0.0708
  956SOL    HW218289   0.693   0.050   1.985  0.2290  0.3110 -0.3572
  957SOL     OW18290   0.726   4.299  10.023 -0.2722  0.2254 -0.0060
  957SOL    HW118291   0.733   4.261   9.935 -0.1304  1.3913 -0.5126
  957SOL    HW218292   0.683   4.231  10.075  3.0811 -1.9723 -0.0015
  958SOL     OW18293   3.594   3.516   1.791  0.1519 -0.1608 -0.0690
  958SOL    HW118294   3.508   3.475   1.793 -0.1159  0.4924  2.1355
  958SOL    HW218295   3.608   3.536   1.698 -1.7593 -0.8816 -0.5412
  959SOL     OW18296   1.519   3.656   1.994  0.2277  0.0342  0.2104
  959SOL    HW118297   1.570   3.728   1.956 -0.0998  0.1735  0.0244
  959SOL    HW218298   1.440   3.699   2.026 -0.7969 -0.4988 -1.5261
  960SOL     OW18299   5.571   2.010   0.752  0.3289 -0.3911  0.2074
  960SOL    HW118300   5.555   1.947   0.683 -0.7995  0.7056 -0.5532
  960SOL    HW218301   5.659   2.044   0.735 -0.6588  1.2355 -1.8058
  961SOL     OW18302   0.971   0.502   9.971 -0.4294  0.2103  0.0746
  961SOL    HW118303   1.061   0.526   9.991 -0.6063  0.2714  0.8288
  961SOL    HW218304   0.976   0.415   9.933  0.0796  0.7829 -1.2233
  962SOL     OW18305   5.134   1.335   8.324 -0.3142 -0.2635  0.3917
  962SOL    HW118306   5.053   1.346   8.275 -0.6738  1.2950  1.2884
  962SOL    HW218307   5.107   1.339   8.416  0.6294 -0.9098  0.7046
  963SOL     OW18308   2.419   2.523  12.199  0.2614 -0.6538  0.1243
  963SOL    HW118309   2.328   2.501  12.179 -0.4717  3.0691 -1.1024
  963SOL    HW218310   2.467   2.508  12.118  0.0606  0.6226 -0.2439
  964SOL     OW18311   4.382   4.452  10.306  0.3388  0.1715 -0.3870
  964SOL    HW118312   4.305   4.427  10.255  0.4294 -0.2040 -0.3441
  964SOL    HW218313   4.384   4.389  10.379 -0.8976  1.9038  1.1862
  965SOL     OW18314   2.475   0.212   9.807  0.6671  0.6477 -0.4996
  965SOL    HW118315   2.449   0.123   9.783 -1.1174  1.3522 -1.3115
  965SOL    HW218316   2.399   0.249   9.851  1.7504  1.4449  0.7412
  966SOL     OW18317   3.912   1.001   1.956 -0.2610 -0.3285 -1.1436
  966SOL    HW118318   3.873   0.919   1.985  1.3539 -1.3529 -1.7787
  966SOL    HW218319   3.889   1.065   2.024  0.1569 -1.7567  0.3635
  967SOL     OW18320   3.739   2.508   7.819  0.0333 -0.0787  0.6414
  967SOL    HW118321   3.715   2.593   7.856  3.0469  2.1549 -2.2435
  967SOL    HW218322   3.821   2.486   7.862  1.0030  0.1431 -1.0627
  968SOL     OW18323   4.856   1.802  10.513  0.3115 -0.2489  0.2010
  968SOL    HW118324   4.802   1.879  10.500 -0.3293 -0.2789  2.5263
  968SOL    HW218325   4.945   1.831  10.495 -0.0468  0.7413  0.0245
  969SOL     OW18326   5.149   3.709  10.723 -1.0640 -0.0508  0.3286
  969SOL    HW118327   5.195   3.787  10.691 -0.2487 -1.3944 -1.9346
  969SOL    HW218328   5.153   3.716  10.818  0.0641  2.0540  0.1564
  970SOL     OW18329   5.233   3.693   9.637  0.6125  0.4768 -0.1103
  970SOL    HW118330   5.240   3.692   9.542  1.6588  1.5281 -0.0603
  970SOL    HW218331   5.314   3.653   9.668  0.5923  0.7790  0.3446
  971SOL     OW18332   2.729   2.238   1.302 -0.0602 -0.6100 -0.4875
  971SOL    HW118333   2.702   2.185   1.377  0.4554 -1.0474 -0.6046
  971SOL    HW218334   2.683   2.198   1.228  0.4624 -0.9986 -0.6026
  972SOL     OW18335   1.665   0.944   8.922  0.0827  0.1340  0.7500
  972SOL    HW118336   1.628   1.017   8.872  0.2906  0.2532  0.7707
  972SOL    HW218337   1.710   0.890   8.857  0.5585  0.4147  0.8401
  973SOL     OW18338   0.587   0.812  12.011 -0.0400 -0.2413 -0.2752
  973SOL    HW118339   0.650   0.884  12.005 -1.4080  1.1932  1.9579
  973SOL    HW218340   0.631   0.746  12.065 -0.5840  0.9835  1.7374
  974SOL     OW18341   0.158   0.925   0.463  0.2311 -0.1141  0.1463
  974SOL    HW118342   0.222   0.863   0.498  0.3260 -0.1772 -0.1335
  974SOL    HW218343   0.210   1.002   0.439  0.1146  0.0714  0.4872
  975SOL     OW18344   2.704   4.319  10.041  0.3133  0.1693 -0.4632
  975SOL    HW118345   2.705   4.369  10.123 -0.9505 -1.5621  0.6619
  975SOL    HW218346   2.716   4.384   9.972  1.6801  1.6273  1.1261
  976SOL     OW18347   5.403   0.642   0.641 -0.0314  0.0970 -0.0111
  976SOL    HW118348   5.348   0.679   0.572  0.6863 -0.5126 -0.9241
  976SOL    HW218349   5.351   0.570   0.677 -1.0372  1.3766  1.1244
  977SOL     OW18350   4.597   5.147   8.557  0.3034  0.4049  0.2469
  977SOL    HW118351   4.574   5.097   8.479  1.2948  0.1410  0.1115
  977SOL    HW218352   4.539   5.223   8.555  1.8697  1.6233 -2.0123
  978SOL     OW18353   1.670   2.107  11.012  0.3004 -0.0821  0.4788
  978SOL    HW118354   1.696   2.165  10.940  0.4783 -1.3461 -0.4893
  978SOL    HW218355   1.696   2.154  11.091  1.9500  0.4226 -0.3368
  979SOL     OW18356   5.791   5.775   8.685 -0.3382 -0.0458 -0.1605
  979SOL    HW118357   5.816   5.736   8.602 -2.7694 -0.3053 -0.7945
  979SOL    HW218358   5.723   5.839   8.663  0.8172  1.7658  1.3290
  980SOL     OW18359   2.642   2.408  10.702  0.3347 -0.0125 -0.4606
  980SOL    HW118360   2.694   2.357  10.765  0.1261  0.6397  0.2510
  980SOL    HW218361   2.700   2.480  10.677 -0.3639  0.9654  0.6675
  981SOL     OW18362   0.873   4.617   4.213 -0.7814 -0.0594  0.0481
  981SOL    HW118363   0.828   4.626   4.297  0.1691  1.5230  0.4033
  981SOL    HW218364   0.905   4.705   4.193  1.2616 -0.9367 -0.7119
  982SOL     OW18365   0.079   1.684  11.516  0.1016 -0.0069  0.4663
  982SOL    HW118366   0.062   1.596  11.482  0.2759  0.1593 -0.0537
  982SOL    HW218367   0.112   1.670  11.605  1.5806 -0.5263 -0.1710
  983SOL     OW18368   0.655   4.038   9.486  0.0372  0.0310 -0.4326
  983SOL    HW118369   0.593   3.973   9.453 -0.1029  1.0413 -2.1814
  983SOL    HW218370   0.740   4.011   9.449  0.3018 -0.1730  0.3020
  984SOL     OW18371   3.280   5.734   8.173 -0.5661  0.1270 -0.1584
  984SOL    HW118372   3.299   5.812   8.121  1.6546 -0.9196 -0.9662
  984SOL    HW218373   3.351   5.728   8.236 -0.2784 -1.6507 -0.6118
  985SOL     OW18374   3.138   3.247   9.854 -0.2981  0.6559 -0.3503
  985SOL    HW118375   3.213   3.195   9.827  0.9234  0.8284  2.4999
  985SOL    HW218376   3.161   3.337   9.831 -0.0682  0.5835 -0.4029
  986SOL     OW18377   1.050   1.661   0.519  0.7622  0.2733 -0.1797
  986SOL    HW118378   1.030   1.754   0.534  0.6286  0.4129 -1.2226
  986SOL    HW218379   1.113   1.662   0.448  1.7725 -0.3702  0.6943
  987SOL     OW18380   2.057   5.622  10.654  0.4660 -0.0996 -0.5757
  987SOL    HW118381   2.141   5.575  10.648  0.8063  0.5164 -0.6746
  987SOL    HW218382   2.052   5.651  10.745  0.0465 -0.7010 -0.4016
  988SOL     OW18383   1.956   4.019   8.846 -0.0895 -0.0865  0.3344
  988SOL    HW118384   1.917   3.994   8.929 -0.6699 -1.6945 -0.3993
  988SOL    HW218385   2.034   3.965   8.838 -0.7566 -0.9141 -0.7651
  989SOL     OW18386   3.938   1.761   0.009 -0.0317 -0.4272  0.4502
  989SOL    HW118387   3.953   1.843   0.056 -0.0283  0.1837 -0.6063
  989SOL    HW218388   4.026   1.727  -0.007 -0.0087 -0.2864  0.2745
  990SOL     OW18389   4.141   5.682   2.149 -0.6147 -0.5142  0.1433
  990SOL    HW118390   4.143   5.656   2.241 -0.5173  0.0079  0.2898
  990SOL    HW218391   4.166   5.603   2.101 -2.3909 -1.2957  0.4663
  991SOL     OW18392   2.142   5.334   3.476 -0.8027 -0.2728  0.4531
  991SOL    HW118393   2.182   5.275   3.541  0.0127 -1.0100 -0.6928
  991SOL    HW218394   2.077   5.280   3.432  0.5627 -0.6084 -1.2083
  992SOL     OW18395   3.017   2.058  10.172 -0.2524  0.2750  0.3150
  992SOL    HW118396   3.036   2.101  10.256  0.4298  1.8247 -0.6020
  992SOL    HW218397   3.039   2.124  10.106  0.7164 -1.4621 -1.1522
  993SOL     OW18398   3.969   4.081   2.146  0.4866 -0.3499  0.3799
  993SOL    HW118399   4.011   4.151   2.195 -1.8578  1.9430 -0.8017
  993SOL    HW218400   3.897   4.052   2.202  0.0540 -0.2387 -0.1157
  994SOL     OW18401   4.541   4.928  10.379  0.1435  0.3051  0.4558
  994SOL    HW118402   4.633   4.957  10.376 -0.0778  1.0455  0.7870
  994SOL    HW218403   4.539   4.852  10.321  0.8505  0.6227 -0.0102
  995SOL     OW18404   5.006   1.035   0.234  0.2098  0.2590  0.0346
  995SOL    HW118405   5.033   1.035   0.142 -1.9824 -0.1406 -0.6336
  995SOL    HW218406   4.979   1.125   0.252 -1.4618 -0.1606 -0.3564
  996SOL     OW18407   3.141   5.382  12.179  0.2914 -0.6149  0.0603
  996SOL    HW118408   3.203   5.434  12.231  0.6779 -1.0374  0.0237
  996SOL    HW218409   3.085   5.340  12.243  0.0881 -0.2911  0.0977
  997SOL     OW18410   1.586   4.071   8.404 -0.4364 -0.2937  0.1108
  997SOL    HW118411   1.603   3.992   8.353  1.5724 -0.3483  0.8382
  997SOL    HW218412   1.491   4.070   8.418 -0.8864 -0.8449 -2.6559
  998SOL     OW18413   5.647   2.545  10.099 -0.2195 -0.4390 -0.2000
  998SOL    HW118414   5.594   2.575  10.025  0.1279 -0.0379 -0.2909
  998SOL    HW218415   5.592   2.562  10.176  1.1721  3.3757  0.0516
  999SOL     OW18416   4.514   5.604   8.220 -0.2104  0.6601 -0.2673
  999SOL    HW118417   4.531   5.578   8.130 -0.2233  0.5110 -0.2278
  999SOL    HW218418   4.548   5.532   8.273 -1.7355 -0.0604 -0.2246
 1000SOL     OW18419   4.698   2.235   0.545  0.0105  0.2315  0.3179
 1000SOL    HW118420   4.614   2.280   0.539 -1.2158 -1.8331  1.2539
 1000SOL    HW218421   4.710   2.193   0.460  0.1919  0.6993  0.1128
 1001SOL     OW18422   2.145   0.324   1.902 -0.1725  0.1022 -0.0525
 1001SOL    HW118423   2.131   0.240   1.859 -0.1345 -0.5535  1.1897
 1001SOL    HW218424   2.240   0.327   1.918  0.0340  1.0180 -1.3598
 1002SOL     OW18425   5.122   4.205   9.841  0.2245  0.4718 -0.5312
 1002SOL    HW118426   5.166   4.130   9.801  1.5456  2.0321 -2.1228
 1002SOL    HW218427   5.029   4.184   9.835  0.5577 -0.8886 -1.2774
 1003SOL     OW18428   0.211   2.035   9.560 -0.4970 -0.5821 -0.0077
 1003SOL    HW118429   0.286   1.981   9.534 -0.1458 -0.1225  0.0290
 1003SOL    HW218430   0.249   2.122   9.574 -0.6107 -0.8803  2.3675
 1004SOL     OW18431   3.435   3.540   0.142 -0.0846  0.0076  0.2762
 1004SOL    HW118432   3.362   3.503   0.190 -0.6701  1.0722  0.1981
 1004SOL    HW218433   3.511   3.488   0.170 -0.8102 -0.8937  0.5767
 1005SOL     OW18434   5.356   5.854   3.655  0.1376 -0.1054  0.0653
 1005SOL    HW118435   5.396   5.923   3.602  1.5304 -0.9785 -0.0503
 1005SOL    HW218436   5.407   5.853   3.736 -0.5594 -0.2700  0.5039
 1006SOL     OW18437   5.276   4.900   9.463 -0.4514  0.7368  0.3412
 1006SOL    HW118438   5.271   4.947   9.380  0.2668  1.4744  0.7041
 1006SOL    HW218439   5.281   4.970   9.529 -0.2784  0.1497  0.9506
 1007SOL     OW18440   1.588   4.559   0.643 -0.3954 -0.2273  0.0777
 1007SOL    HW118441   1.634   4.633   0.683 -1.0486  0.0742  0.2734
 1007SOL    HW218442   1.593   4.489   0.709  0.4847 -0.4600 -0.2283
 1008SOL     OW18443   3.316   1.656   2.801 -1.0168  0.3753 -0.6430
 1008SOL    HW118444   3.289   1.747   2.798 -1.4649  0.2354 -0.9992
 1008SOL    HW218445   3.339   1.640   2.892 -2.3080  0.4450 -0.2962
 1009SOL     OW18446   3.027   1.214   3.130 -0.2872  0.1966 -0.4671
 1009SOL    HW118447   2.999   1.301   3.100  0.9425  0.8265  0.1800
 1009SOL    HW218448   3.117   1.226   3.159 -0.7385 -0.8729  1.4832
 1010SOL     OW18449   3.385   1.646   3.849 -0.0276 -0.2521 -0.6006
 1010SOL    HW118450   3.385   1.607   3.937  0.7763  0.8900 -0.0678
 1010SOL    HW218451   3.457   1.602   3.804 -0.8306 -1.2697 -0.8814
 1011SOL     OW18452   4.499   4.607   9.037  0.1958  0.3413 -0.6005
 1011SOL    HW118453   4.544   4.545   9.094  1.6176  2.8737  1.1257
 1011SOL    HW218454   4.538   4.593   8.951  2.0845  0.3596  0.2366
 1012SOL     OW18455   4.180   5.870  11.647 -0.7614 -0.1318 -0.5645
 1012SOL    HW118456   4.145   5.959  11.640  2.2794  1.2787  0.8648
 1012SOL    HW218457   4.120   5.824  11.705 -0.3366  2.2052  1.8490
 1013SOL     OW18458   5.090   1.411   1.678 -0.2995  0.3482 -0.0117
 1013SOL    HW118459   5.018   1.408   1.741  0.3245  0.9145  0.7500
 1013SOL    HW218460   5.083   1.498   1.638 -1.3733 -0.4244 -1.5553
 1014SOL     OW18461   5.926   1.331   0.996  0.0458  0.5900  0.4613
 1014SOL    HW118462   6.021   1.329   0.989  0.0991 -1.4246  1.4592
 1014SOL    HW218463   5.897   1.378   0.918  1.7616 -0.2464 -0.7012
 1015SOL     OW18464   5.740   2.466   3.709 -0.0659  0.4175  0.2980
 1015SOL    HW118465   5.652   2.477   3.674 -0.8822 -0.9189  1.8498
 1015SOL    HW218466   5.797   2.472   3.632 -1.6377 -0.3829 -0.9701
 1016SOL     OW18467   1.299   1.565   2.113  0.6563  0.1063  0.2216
 1016SOL    HW118468   1.314   1.543   2.204 -0.1262  0.7809  0.5250
 1016SOL    HW218469   1.207   1.543   2.097  0.9602 -0.6094 -0.5822
 1017SOL     OW18470   2.690   4.712   9.735  0.1450 -0.1324 -0.1147
 1017SOL    HW118471   2.718   4.751   9.652  0.3586  1.6961  0.7760
 1017SOL    HW218472   2.633   4.779   9.774 -2.7067 -2.3550 -0.3189
 1018SOL     OW18473   2.379   0.255  10.450  0.2618  0.6482 -0.1847
 1018SOL    HW118474   2.440   0.323  10.477  0.9983  0.1224 -0.5128
 1018SOL    HW218475   2.410   0.176  10.496 -2.0783  1.0491  2.2424
 1019SOL     OW18476   4.986   4.500   2.686  0.6791  0.4899 -0.2552
 1019SOL    HW118477   5.005   4.593   2.693 -0.5313  0.6643  0.8523
 1019SOL    HW218478   4.906   4.487   2.737  1.3216 -1.3021  0.3615
 1020SOL     OW18479   3.170   4.733   9.952  0.0591 -0.3340 -0.2557
 1020SOL    HW118480   3.074   4.732   9.954  0.0432  0.8441 -0.3910
 1020SOL    HW218481   3.191   4.744   9.859  0.3607 -2.8577 -0.5349
 1021SOL     OW18482   0.106   1.209  12.111  0.1981  0.6860 -0.2236
 1021SOL    HW118483   0.196   1.239  12.104  1.6418 -3.6284 -1.7455
 1021SOL    HW218484   0.089   1.206  12.206  2.8426 -1.5432  0.2479
 1022SOL     OW18485   1.642   5.737   8.556  0.2340  0.2422 -0.3590
 1022SOL    HW118486   1.566   5.702   8.510 -0.1485  0.9613 -0.2662
 1022SOL    HW218487   1.704   5.664   8.558 -1.2486 -1.0037  1.4079
 1023SOL     OW18488   4.799   5.939   1.206 -0.1705 -0.0917 -0.8732
 1023SOL    HW118489   4.812   5.999   1.279  0.0507 -2.0013  0.7205
 1023SOL    HW218490   4.719   5.891   1.229  0.7579 -1.7904 -1.1011
 1024SOL     OW18491   5.041   4.100  11.859  0.5059 -0.3428  0.1464
 1024SOL    HW118492   5.042   4.050  11.777 -2.7972 -3.6930  1.9704
 1024SOL    HW218493   5.099   4.051  11.918  0.2725  0.1448  0.7905
 1025SOL     OW18494   2.639   2.496   3.423 -0.3346 -0.0499 -0.6893
 1025SOL    HW118495   2.643   2.591   3.411 -1.3288 -0.0911 -1.4896
 1025SOL    HW218496   2.715   2.462   3.376 -1.4460  0.1679 -2.7064
 1026SOL     OW18497   2.525   0.752   7.852  0.0507  0.0495  0.3804
 1026SOL    HW118498   2.505   0.666   7.814 -0.2238 -0.1570  0.9927
 1026SOL    HW218499   2.444   0.778   7.896  1.6106 -1.6519  4.5297
 1027SOL     OW18500   2.565   1.144   8.955  0.1471  0.3953 -0.6684
 1027SOL    HW118501   2.593   1.052   8.950 -1.0680 -0.0210 -0.1511
 1027SOL    HW218502   2.552   1.159   9.049 -0.7638  0.7445 -0.8443
 1028SOL     OW18503   2.866   4.068   8.894  0.9533  0.6023  0.3518
 1028SOL    HW118504   2.916   4.146   8.920  0.0206  1.1862  0.4063
 1028SOL    HW218505   2.823   4.094   8.812  2.5274 -0.6562 -0.9152
 1029SOL     OW18506   0.298   2.123  10.585  0.2875  0.1815 -0.2206
 1029SOL    HW118507   0.205   2.099  10.580 -0.1459  1.3240  1.7480
 1029SOL    HW218508   0.302   2.211  10.546  0.4847  0.2793  0.0213
 1030SOL     OW18509   0.536   1.502   0.713 -0.0532 -0.1420 -0.0673
 1030SOL    HW118510   0.550   1.571   0.778 -0.1947  0.4892 -0.6982
 1030SOL    HW218511   0.621   1.490   0.672  0.1170 -0.7783  0.4560
 1031SOL     OW18512   1.610   1.414  10.476 -0.2002  0.2025  0.0881
 1031SOL    HW118513   1.528   1.410  10.427  0.3411  3.3551 -1.2026
 1031SOL    HW218514   1.642   1.504  10.463  2.3048 -0.2648  2.4471
 1032SOL     OW18515   1.697   5.341  10.029  0.1771  0.2970  0.8955
 1032SOL    HW118516   1.695   5.260  10.079  1.7026  1.1279  2.3668
 1032SOL    HW218517   1.654   5.320   9.946  0.0454 -1.8412  1.4879
 1033SOL     OW18518   0.894   3.476   9.179  0.2304 -0.5484  0.7321
 1033SOL    HW118519   0.963   3.499   9.241  0.3711 -0.5186  0.5684
 1033SOL    HW218520   0.936   3.414   9.119  0.3816  0.1983  0.0616
 1034SOL     OW18521   1.916   3.775   8.528 -0.6352  0.6407 -0.6371
 1034SOL    HW118522   2.005   3.806   8.511 -0.5890  0.2867 -1.0746
 1034SOL    HW218523   1.869   3.851   8.562  0.3917  0.3209  1.6178
 1035SOL     OW18524   3.861   1.655   1.660 -0.4348 -0.0940  0.1092
 1035SOL    HW118525   3.868   1.673   1.753 -0.0299  1.8917 -0.2947
 1035SOL    HW218526   3.766   1.651   1.644 -0.5134 -2.5817  0.9751
 1036SOL     OW18527   2.089   0.679   0.462 -0.4451  0.1591  0.4920
 1036SOL    HW118528   2.066   0.617   0.532 -1.4644 -0.5540 -0.4584
 1036SOL    HW218529   2.080   0.629   0.381 -0.9880  1.4570 -0.2747
 1037SOL     OW18530   0.461   2.230   9.792 -0.2767  0.9631 -0.5162
 1037SOL    HW118531   0.453   2.243   9.698  0.6619 -3.0651 -1.2580
 1037SOL    HW218532   0.551   2.254   9.813 -0.6110  2.2704 -0.5493
 1038SOL     OW18533   4.176   4.625   8.804 -0.7765 -0.4890 -0.6796
 1038SOL    HW118534   4.121   4.667   8.871 -0.2273 -0.1006 -0.4639
 1038SOL    HW218535   4.163   4.531   8.817  0.1771 -0.4406  0.6963
 1039SOL     OW18536   5.266   5.356   9.325  0.1990 -0.3025  0.3438
 1039SOL    HW118537   5.232   5.378   9.238  0.4016  2.6023  0.9267
 1039SOL    HW218538   5.316   5.276   9.312 -1.2817 -0.9052 -1.8519
 1040SOL     OW18539   2.143   0.664   4.514 -0.5286  0.2080  0.2858
 1040SOL    HW118540   2.162   0.585   4.564 -0.7364  0.0828  0.1696
 1040SOL    HW218541   2.206   0.664   4.442 -0.1799  0.4259  0.5886
 1041SOL     OW18542   3.103   1.115   9.044  0.4548 -0.1104 -0.1872
 1041SOL    HW118543   3.121   1.174   9.118  1.3226 -1.6688  0.8602
 1041SOL    HW218544   3.176   1.131   8.983 -0.5183  1.5327 -0.9713
 1042SOL     OW18545   4.467   4.874   2.195  1.0030  0.7383 -0.9672
 1042SOL    HW118546   4.445   4.954   2.243  1.5521  0.5752 -0.4353
 1042SOL    HW218547   4.432   4.803   2.250 -0.4909  0.6566 -1.9928
 1043SOL     OW18548   4.061   0.170  11.631 -0.4004 -0.4973  0.5165
 1043SOL    HW118549   4.122   0.204  11.566 -0.6791 -0.3001  0.3563
 1043SOL    HW218550   4.061   0.236  11.701 -0.9821 -0.1433  0.1836
 1044SOL     OW18551   1.996   5.697  10.932  0.1683  0.2067  0.1512
 1044SOL    HW118552   2.055   5.771  10.920  1.3913 -0.8641 -0.4885
 1044SOL    HW218553   2.047   5.632  10.980 -0.4663 -0.7514 -0.4398
 1045SOL     OW18554   1.894   3.193  11.692  0.4646  0.5627 -0.5830
 1045SOL    HW118555   1.809   3.211  11.732  0.9529 -0.1880  0.8213
 1045SOL    HW218556   1.872   3.143  11.613 -0.3105 -1.5003  0.8940
 1046SOL     OW18557   0.487   1.578   9.879  0.6848  0.8879 -0.4612
 1046SOL    HW118558   0.393   1.560   9.886  0.4188  1.4895 -2.2900
 1046SOL    HW218559   0.518   1.575   9.969 -0.5906 -1.9432 -0.0749
 1047SOL     OW18560   2.082   4.051  10.068 -0.4905  0.5160 -0.3747
 1047SOL    HW118561   2.100   4.081  10.157  2.4322 -1.8979 -0.0607
 1047SOL    HW218562   2.100   4.127  10.013 -0.3837  1.4737  0.9530
 1048SOL     OW18563   5.678   0.553  12.194  0.1903 -0.7473  0.4780
 1048SOL    HW118564   5.757   0.564  12.141  0.9974  0.1207  1.8259
 1048SOL    HW218565   5.621   0.626  12.167  1.0765  0.3908  1.6076
 1049SOL     OW18566   4.002   4.382  11.407  0.0578  0.1693  0.0994
 1049SOL    HW118567   4.065   4.450  11.431 -0.4739  0.4696  0.6828
 1049SOL    HW218568   3.939   4.382  11.479  0.0543 -0.9530  0.1033
 1050SOL     OW18569   2.004   2.476   9.479  0.2824  0.2041  0.3276
 1050SOL    HW118570   1.969   2.460   9.567 -0.8317  0.2857 -0.0936
 1050SOL    HW218571   1.980   2.399   9.428 -0.4939  0.8616 -0.3249
 1051SOL     OW18572   2.621   0.645   2.992  0.4391 -0.3891  0.3261
 1051SOL    HW118573   2.681   0.690   3.051  2.0376 -0.7500 -1.0064
 1051SOL    HW218574   2.593   0.567   3.041 -0.0664  0.4867  1.4845
 1052SOL     OW18575   0.441   2.494   8.157  0.0419  0.2363  0.9779
 1052SOL    HW118576   0.437   2.584   8.190 -1.7971  0.4020  0.3615
 1052SOL    HW218577   0.398   2.499   8.072  1.3124 -0.9401  0.2530
 1053SOL     OW18578   1.416   3.291   1.398 -0.1296  0.1909  0.8718
 1053SOL    HW118579   1.365   3.295   1.479 -1.5539 -0.2648  0.0247
 1053SOL    HW218580   1.369   3.350   1.339  1.0782  0.7542  0.4772
 1054SOL     OW18581   5.864   3.761   2.607  0.0100  0.4837 -0.0505
 1054SOL    HW118582   5.818   3.689   2.563 -1.8886  1.2743  0.5638
 1054SOL    HW218583   5.944   3.772   2.556 -0.1959 -1.3087 -0.8401
 1055SOL     OW18584   1.524   4.668  11.341  0.1198 -0.5225 -0.0995
 1055SOL    HW118585   1.440   4.715  11.348  0.7776  0.6638  0.0110
 1055SOL    HW218586   1.584   4.733  11.306  1.2101 -1.1247  0.6404
 1056SOL     OW18587   4.381   4.541   1.252 -0.6863  0.0621  0.2653
 1056SOL    HW118588   4.362   4.602   1.323 -2.3510  0.0743 -0.1576
 1056SOL    HW218589   4.348   4.585   1.173 -1.0012 -0.9506 -0.1788
 1057SOL     OW18590   3.436   5.461   2.811 -0.6734 -0.2016  0.1718
 1057SOL    HW118591   3.379   5.471   2.887 -1.4566  0.6193 -0.5172
 1057SOL    HW218592   3.438   5.367   2.794  0.4728 -0.5284  1.9299
 1058SOL     OW18593   5.158   0.753  12.123  0.4081 -0.1971  0.3456
 1058SOL    HW118594   5.223   0.751  12.193 -0.8483 -0.0141  1.5428
 1058SOL    HW218595   5.095   0.820  12.149  0.7862  1.0250 -1.7746
 1059SOL     OW18596   5.504   4.187   0.069  0.2276 -0.2450 -0.7588
 1059SOL    HW118597   5.481   4.173   0.161 -0.2156 -1.0478 -0.9871
 1059SOL    HW218598   5.453   4.264   0.043  0.4786  0.0811 -0.2880
 1060SOL     OW18599   1.474   4.436   9.983  0.5017 -0.2570 -0.5514
 1060SOL    HW118600   1.436   4.361   9.939  1.0998 -1.6340  1.2345
 1060SOL    HW218601   1.565   4.438   9.954 -0.3598  1.8837 -3.3058
 1061SOL     OW18602   1.461   0.680   4.246 -0.2034 -0.1870 -0.0271
 1061SOL    HW118603   1.542   0.653   4.202  1.3901 -0.6671  3.0050
 1061SOL    HW218604   1.424   0.599   4.280 -1.3269  0.1716 -0.3911
 1062SOL     OW18605   1.352   0.126   3.917  0.7471  0.1635  0.0529
 1062SOL    HW118606   1.382   0.035   3.924  2.1078  0.4638 -1.4597
 1062SOL    HW218607   1.351   0.158   4.007  1.8581 -0.8646  0.4421
 1063SOL     OW18608   1.332   4.914   0.087 -0.0814 -0.3133  0.2524
 1063SOL    HW118609   1.398   4.956   0.143  0.8864 -1.8871  0.3225
 1063SOL    HW218610   1.269   4.876   0.149  0.6168 -1.4647  0.2562
 1064SOL     OW18611   0.681   0.042   0.769 -0.1339 -0.5156 -0.4269
 1064SOL    HW118612   0.644  -0.021   0.707  0.4490  1.0851 -2.4393
 1064SOL    HW218613   0.623   0.118   0.763  1.3921  0.6249 -0.9056
 1065SOL     OW18614   5.120   2.601  12.491 -0.2810  0.3319  0.1968
 1065SOL    HW118615   5.078   2.565  12.413  2.2235  0.4596 -1.2669
 1065SOL    HW218616   5.164   2.525  12.532  1.5850  0.9238 -0.6433
 1066SOL     OW18617   2.993   2.500   3.011  0.6097  0.1769 -0.0547
 1066SOL    HW118618   2.951   2.500   2.925  0.0530 -1.3850  0.2047
 1066SOL    HW218619   3.039   2.416   3.015 -0.7659 -0.5140  1.8467
 1067SOL     OW18620   1.329   1.065   9.469 -0.3185 -0.1922 -0.1980
 1067SOL    HW118621   1.338   1.158   9.489  0.0296 -0.2860  0.0797
 1067SOL    HW218622   1.343   1.059   9.375 -0.2709  0.0266 -0.2041
 1068SOL     OW18623   1.208   5.367   9.911  0.2960  0.4618 -0.1134
 1068SOL    HW118624   1.275   5.302   9.893  0.2680 -0.0293  1.4437
 1068SOL    HW218625   1.250   5.428   9.973 -0.1432  1.1060 -0.4393
 1069SOL     OW18626   0.417   1.911   9.471  0.1648 -0.3973 -0.0009
 1069SOL    HW118627   0.432   1.817   9.471  0.0386 -0.4190 -0.0611
 1069SOL    HW218628   0.475   1.945   9.403  2.9240  0.0247  2.4972
 1070SOL     OW18629   0.345   3.229   8.444 -0.3264  0.9166 -0.5396
 1070SOL    HW118630   0.420   3.237   8.503  0.0389  2.4500 -1.1768
 1070SOL    HW218631   0.311   3.141   8.460  0.7097  0.7463  0.8213
 1071SOL     OW18632   0.966   5.348   8.308 -0.8600  0.0217  0.7574
 1071SOL    HW118633   0.973   5.338   8.213  0.5775  2.8421  0.5170
 1071SOL    HW218634   1.011   5.272   8.344  0.9031  0.2676 -0.8376
 1072SOL     OW18635   3.835   0.266   3.485 -0.9249 -0.1283  0.3379
 1072SOL    HW118636   3.803   0.206   3.418  2.4476 -1.2235 -0.4311
 1072SOL    HW218637   3.840   0.351   3.440  0.9802 -0.7828 -0.7657
 1073SOL     OW18638   2.436   4.032   9.907  0.1665 -0.2564  0.2133
 1073SOL    HW118639   2.497   3.959   9.911 -1.0511 -1.2704  0.9848
 1073SOL    HW218640   2.363   4.000   9.855  0.6072  1.2065 -1.3593
 1074SOL     OW18641   4.317   5.880  11.137  0.2067 -0.1505  0.3789
 1074SOL    HW118642   4.345   5.863  11.047 -2.3187 -0.4403 -0.3996
 1074SOL    HW218643   4.364   5.959  11.162 -0.0066  0.6782 -1.6817
 1075SOL     OW18644   4.533   0.213   8.428  0.8591  0.7081 -0.3184
 1075SOL    HW118645   4.523   0.153   8.502  1.1043  1.2167  0.1294
 1075SOL    HW218646   4.444   0.245   8.412  1.0774  2.0419  0.9802
 1076SOL     OW18647   5.414   3.516   3.513 -0.2295 -0.3851  0.0502
 1076SOL    HW118648   5.432   3.586   3.576  0.2969  0.4685 -1.0267
 1076SOL    HW218649   5.470   3.537   3.438  0.6403 -2.4973  0.0861
 1077SOL     OW18650   4.652   0.767   3.549  0.3610 -0.0290  0.0469
 1077SOL    HW118651   4.739   0.765   3.589 -0.0622  1.3378  1.0844
 1077SOL    HW218652   4.662   0.827   3.475 -0.0618  1.3754  1.1034
 1078SOL     OW18653   5.689   2.089  10.799 -0.0241  0.1461  0.2010
 1078SOL    HW118654   5.635   2.019  10.763 -0.3954  0.1525  0.7294
 1078SOL    HW218655   5.707   2.147  10.725 -0.3200 -0.1275 -0.0864
 1079SOL     OW18656   0.994   0.862   2.007 -0.0189  0.0920 -0.2888
 1079SOL    HW118657   0.908   0.904   2.012  0.7434  1.9027 -1.4179
 1079SOL    HW218658   1.032   0.898   1.927  1.0741 -2.0913 -0.7807
 1080SOL     OW18659   2.201   1.007  10.353 -0.1969  0.5977  0.1626
 1080SOL    HW118660   2.254   0.933  10.322 -0.5471  0.4448 -0.0663
 1080SOL    HW218661   2.262   1.082  10.351  0.8070 -0.1108  2.5399
 1081SOL     OW18662   5.518   0.206   3.191 -0.1680 -0.8892  0.5449
 1081SOL    HW118663   5.521   0.298   3.164  3.1187 -1.7018 -2.0897
 1081SOL    HW218664   5.428   0.178   3.171 -0.0654  0.6722 -2.3546
 1082SOL     OW18665   1.303   0.970  11.876 -0.2317 -0.2351  0.0369
 1082SOL    HW118666   1.397   0.982  11.888 -0.5048  0.5695  1.3328
 1082SOL    HW218667   1.285   1.008  11.790  0.6918 -0.8166 -0.4311
 1083SOL     OW18668   1.047   3.780   7.715 -0.5881  0.5189  0.5910
 1083SOL    HW118669   0.957   3.792   7.744 -0.1550  1.5900  1.5364
 1083SOL    HW218670   1.067   3.858   7.664 -0.8062 -0.5999 -1.2445
 1084SOL     OW18671   5.266   0.364   8.811 -0.4020 -0.2638 -0.0738
 1084SOL    HW118672   5.203   0.335   8.745  0.2169 -0.8978 -0.3990
 1084SOL    HW218673   5.275   0.289   8.870  0.2150 -0.2628 -0.1622
 1085SOL     OW18674   1.046   2.082   0.904  0.3406  0.2776 -0.6507
 1085SOL    HW118675   1.064   2.176   0.910 -1.3181  0.7410 -2.3048
 1085SOL    HW218676   1.127   2.044   0.868  1.2687  0.9492  0.6908
 1086SOL     OW18677   4.545   1.802  12.200 -0.4662 -0.3692 -0.0328
 1086SOL    HW118678   4.547   1.753  12.119 -0.6035  1.8144 -1.4036
 1086SOL    HW218679   4.621   1.771  12.249 -0.3681 -1.6758 -0.9987
 1087SOL     OW18680   2.243   0.109   3.228 -0.2340 -0.2411 -1.1591
 1087SOL    HW118681   2.215   0.019   3.212 -0.0616 -0.6692  0.8481
 1087SOL    HW218682   2.224   0.155   3.146 -1.4569 -1.8252 -1.7841
 1088SOL     OW18683   0.616   0.678  12.255 -0.3343  0.4015 -0.4983
 1088SOL    HW118684   0.583   0.590  12.272 -0.0264  0.6684  1.6210
 1088SOL    HW218685   0.696   0.684  12.308  0.6818  1.3213 -2.0694
 1089SOL     OW18686   1.047   2.626   2.686 -0.1928  0.0914  0.1563
 1089SOL    HW118687   1.012   2.536   2.685  1.5168 -0.5857  0.3039
 1089SOL    HW218688   1.074   2.642   2.595  0.5137  0.0589  0.3613
 1090SOL     OW18689   5.312   0.764   2.943  0.6667  0.3216 -0.1449
 1090SOL    HW118690   5.373   0.699   2.906 -0.6732 -1.2776  0.3889
 1090SOL    HW218691   5.257   0.789   2.869 -0.6900 -1.3512  0.2578
 1091SOL     OW18692   3.028   4.487   7.863  0.0503  0.1477 -0.2599
 1091SOL    HW118693   2.997   4.478   7.953  0.9827 -3.4546 -0.2054
 1091SOL    HW218694   3.115   4.526   7.871 -0.4162  1.0922  0.2863
 1092SOL     OW18695   2.306   0.792  11.180  0.2820 -0.0881 -0.1761
 1092SOL    HW118696   2.258   0.832  11.253  1.4626 -0.5892  0.9064
 1092SOL    HW218697   2.272   0.703  11.175 -1.2808  0.5694 -1.6093
 1093SOL     OW18698   3.508   4.762  11.631  0.1755 -0.3763  0.2039
 1093SOL    HW118699   3.474   4.852  11.631 -0.9341 -0.7708 -0.9426
 1093SOL    HW218700   3.585   4.766  11.574  0.7646  0.0748  1.0300
 1094SOL     OW18701   2.971   0.867  11.703 -0.2042 -0.3248 -0.9214
 1094SOL    HW118702   2.904   0.840  11.765 -0.3680 -0.1284 -1.0106
 1094SOL    HW218703   2.954   0.814  11.625 -1.1235  0.7053 -1.4418
 1095SOL     OW18704   4.910   3.348   1.811 -0.0977  0.3196  0.0951
 1095SOL    HW118705   4.981   3.376   1.753  0.3683 -1.4530 -0.2132
 1095SOL    HW218706   4.935   3.380   1.898 -0.5938  2.6253 -0.5632
 1096SOL     OW18707   5.790   5.519   0.659  0.2286  0.1606 -0.4621
 1096SOL    HW118708   5.795   5.543   0.567  1.5404 -2.1550 -1.0132
 1096SOL    HW218709   5.724   5.450   0.662 -0.2251  0.6191  0.4315
 1097SOL     OW18710   5.011   3.566   7.412 -0.1555 -0.0986 -0.1214
 1097SOL    HW118711   5.092   3.592   7.455  0.2543  0.8035 -1.4226
 1097SOL    HW218712   4.943   3.583   7.478  0.5110  0.8479  0.3379
 1098SOL     OW18713   3.304   3.925   0.050  0.3358  0.0596  0.2421
 1098SOL    HW118714   3.267   3.972   0.125  0.8920  0.0005  0.5513
 1098SOL    HW218715   3.355   3.991   0.003 -0.4326  0.2264 -0.3792
 1099SOL     OW18716   3.868   0.487  10.825 -0.5508  0.3670 -0.2356
 1099SOL    HW118717   3.806   0.419  10.851 -0.2088  1.2334  3.0581
 1099SOL    HW218718   3.815   0.566  10.815 -0.5364  0.2459 -1.3795
 1100SOL     OW18719   3.380   5.483   9.218 -0.0581 -0.0763  0.5826
 1100SOL    HW118720   3.396   5.428   9.141 -0.6906 -0.0779  0.4442
 1100SOL    HW218721   3.339   5.424   9.281 -0.0454  0.0559  0.7141
 1101SOL     OW18722   0.559   3.524   0.583 -0.7471  0.1129  0.2397
 1101SOL    HW118723   0.515   3.458   0.529  1.8234  0.2395 -2.1334
 1101SOL    HW218724   0.535   3.607   0.543  0.9654  0.2261 -0.5873
 1102SOL     OW18725   1.805   5.592   1.443 -0.0711  0.0189  0.3488
 1102SOL    HW118726   1.790   5.605   1.536  1.4006 -0.8930  0.7327
 1102SOL    HW218727   1.786   5.499   1.428 -1.3764  0.4135 -0.4825
 1103SOL     OW18728   4.815   1.145   3.600 -0.2976  0.7223  0.4582
 1103SOL    HW118729   4.775   1.175   3.518 -0.6820 -1.4656 -0.1800
 1103SOL    HW218730   4.752   1.171   3.667  0.2170  2.9020  0.1386
 1104SOL     OW18731   5.841   1.570  11.000 -0.1558 -0.6633  0.5822
 1104SOL    HW118732   5.894   1.641  10.965  0.6483 -1.0343  1.0270
 1104SOL    HW218733   5.751   1.592  10.976  0.1460  0.2441  0.2907
 1105SOL     OW18734   1.125   1.240  10.527  0.3840  0.1008  0.3106
 1105SOL    HW118735   1.084   1.214  10.609 -0.2653 -1.9898 -0.6349
 1105SOL    HW218736   1.051   1.257  10.468  0.8285 -0.9046 -0.5700
 1106SOL     OW18737   3.156   2.406   8.902 -0.3476 -0.4879 -0.2024
 1106SOL    HW118738   3.241   2.402   8.947  1.1126  0.3522 -2.8029
 1106SOL    HW218739   3.106   2.471   8.951  1.6797  1.3572 -0.5220
 1107SOL     OW18740   4.864   1.003   1.192 -0.0498  0.7571  0.1950
 1107SOL    HW118741   4.832   0.949   1.121 -1.0761  1.0667  0.4066
 1107SOL    HW218742   4.946   1.040   1.160  1.0501 -1.4830  0.3302
 1108SOL     OW18743   0.999   4.050   3.825  0.7467 -0.4288 -0.2960
 1108SOL    HW118744   1.075   4.096   3.859  0.2699  1.4457 -1.7233
 1108SOL    HW218745   0.996   3.968   3.875  2.0799  0.7131  1.6917
 1109SOL     OW18746   4.893   1.649   7.842 -0.3747 -0.5653 -0.4476
 1109SOL    HW118747   4.817   1.609   7.801 -2.4929  2.4327  0.4171
 1109SOL    HW218748   4.933   1.701   7.773 -2.1125  1.9411  0.3680
 1110SOL     OW18749   0.275   4.313   7.960 -0.4906  0.2641 -0.4860
 1110SOL    HW118750   0.186   4.319   7.923 -0.6158  0.3033 -0.1879
 1110SOL    HW218751   0.291   4.401   7.995 -1.6327 -0.6038  2.3831
 1111SOL     OW18752   3.880   1.716   0.939  0.0852  0.1628  0.0910
 1111SOL    HW118753   3.821   1.691   0.868 -0.8347  1.0716  0.5087
 1111SOL    HW218754   3.841   1.677   1.017  0.9680 -0.6481  0.1355
 1112SOL     OW18755   2.521   5.191   0.890  0.2000 -0.1916 -0.1837
 1112SOL    HW118756   2.534   5.158   0.979 -0.3501 -0.9552 -0.3843
 1112SOL    HW218757   2.426   5.197   0.879  0.1452 -2.6250 -1.6046
 1113SOL     OW18758   0.963   3.596   8.040 -0.4496 -0.8472 -0.8944
 1113SOL    HW118759   0.953   3.691   8.040  0.3347 -0.7645 -1.2275
 1113SOL    HW218760   0.885   3.564   7.995  0.1976 -0.2677 -2.4537
 1114SOL     OW18761   2.518   5.663  11.076  0.0890  0.4918  0.3578
 1114SOL    HW118762   2.490   5.740  11.027  1.2860  1.1608  0.6803
 1114SOL    HW218763   2.491   5.680  11.166  0.1510  0.4379  0.3880
 1115SOL     OW18764   3.215   0.253  10.771  0.0574  0.4206 -0.8928
 1115SOL    HW118765   3.204   0.179  10.830  0.2390  0.0837 -1.2802
 1115SOL    HW218766   3.169   0.228  10.692 -1.2607  1.3929 -0.4567
 1116SOL     OW18767   2.504   5.912   1.012 -0.0369  0.9601  0.3356
 1116SOL    HW118768   2.565   5.878   1.077  0.4284  0.6985 -0.2388
 1116SOL    HW218769   2.512   6.007   1.019  0.5455  0.9235  0.1509
 1117SOL     OW18770   0.178   2.755   0.904 -0.0326  0.1536 -0.0412
 1117SOL    HW118771   0.238   2.743   0.978 -0.5643  2.2389  0.7626
 1117SOL    HW218772   0.091   2.761   0.944 -0.0637  3.9421 -0.5270
 1118SOL     OW18773   3.668   2.339  11.162 -0.5727 -0.8971  0.6666
 1118SOL    HW118774   3.651   2.333  11.256  0.4214 -1.7358  0.8088
 1118SOL    HW218775   3.626   2.261  11.125 -0.4994 -0.8507  0.4839
 1119SOL     OW18776   5.615   4.691   8.171 -0.1817 -1.1811 -0.0680
 1119SOL    HW118777   5.693   4.678   8.118 -0.4304 -0.2922 -0.6585
 1119SOL    HW218778   5.550   4.727   8.111 -1.0973 -2.0572  0.3809
 1120SOL     OW18779   2.229   3.661  11.972 -0.0307 -0.1728  0.3982
 1120SOL    HW118780   2.234   3.572  12.007 -0.2837 -0.1725  0.4365
 1120SOL    HW218781   2.140   3.668  11.938  1.0009 -1.0950 -2.6874
 1121SOL     OW18782   5.349   2.136   8.479 -0.0279  0.1603  0.1654
 1121SOL    HW118783   5.292   2.181   8.541 -2.0563 -1.3815 -0.5341
 1121SOL    HW218784   5.353   2.194   8.403 -2.1157 -0.5281 -0.4821
 1122SOL     OW18785   4.835   0.909   8.742 -0.2565 -0.4269 -0.1676
 1122SOL    HW118786   4.804   0.838   8.686  2.4935 -1.1069 -0.9001
 1122SOL    HW218787   4.924   0.883   8.767 -0.3312  1.3288  2.0266
 1123SOL     OW18788   2.790   2.640   9.141 -0.8745 -0.2427  0.1668
 1123SOL    HW118789   2.786   2.582   9.217 -0.5493  1.4246  1.4887
 1123SOL    HW218790   2.715   2.699   9.152  0.0715  0.9981  0.0100
 1124SOL     OW18791   2.032   2.798   1.930  0.5490  0.3216 -0.1597
 1124SOL    HW118792   2.003   2.726   1.987 -2.4158  0.0793 -1.8827
 1124SOL    HW218793   2.067   2.864   1.991  1.4228 -1.6840  1.5862
 1125SOL     OW18794   5.680   2.091   3.600 -0.1575 -0.1559  0.3033
 1125SOL    HW118795   5.626   2.038   3.541  1.3205 -0.1135 -1.1359
 1125SOL    HW218796   5.618   2.147   3.646 -1.4561 -1.0417 -0.3438
 1126SOL     OW18797   2.126   5.495   9.360 -0.1815  0.1073 -0.6325
 1126SOL    HW118798   2.126   5.401   9.374 -1.4179 -0.3275 -3.2531
 1126SOL    HW218799   2.048   5.526   9.406  0.0716 -0.1946 -0.0015
 1127SOL     OW18800   4.244   3.778  12.229  0.0245  0.4040 -0.1233
 1127SOL    HW118801   4.294   3.696  12.223  0.1012  0.5278 -1.3030
 1127SOL    HW218802   4.290   3.828  12.296  0.2587 -0.3269  0.2748
 1128SOL     OW18803   2.492   2.008   9.383  0.2965 -0.3745 -0.1397
 1128SOL    HW118804   2.516   2.009   9.290 -1.4027 -2.2316 -0.6499
 1128SOL    HW218805   2.495   2.100   9.409  1.8848  0.0741 -1.7249
 1129SOL     OW18806   4.736   0.124  11.209  0.3080  0.0903  0.3367
 1129SOL    HW118807   4.721   0.070  11.286 -0.0817 -0.3208 -0.0184
 1129SOL    HW218808   4.755   0.211  11.243  0.2368 -0.1119  0.8954
 1130SOL     OW18809   1.218   3.762   2.927  0.2579 -0.3769  0.1033
 1130SOL    HW118810   1.188   3.844   2.967  2.2455 -0.3257  1.5300
 1130SOL    HW218811   1.137   3.714   2.909 -0.8336  0.9650  1.2752
 1131SOL     OW18812   4.974   2.695   8.821 -0.3511  0.2227  0.1186
 1131SOL    HW118813   5.032   2.622   8.841  0.1500  1.3344  3.0482
 1131SOL    HW218814   4.988   2.713   8.728  2.7822 -0.5709  0.3944
 1132SOL     OW18815   5.944   1.355  11.156 -0.3310 -0.0052 -0.0419
 1132SOL    HW118816   5.862   1.310  11.172  0.0702 -0.6538  0.1940
 1132SOL    HW218817   5.918   1.440  11.121 -1.1473  0.5728  1.9323
 1133SOL     OW18818   5.497   0.757   2.313 -0.6622  0.1484 -0.1953
 1133SOL    HW118819   5.516   0.664   2.323 -0.9065 -0.0183 -1.2585
 1133SOL    HW218820   5.552   0.786   2.241 -0.5616  0.8459  0.1481
 1134SOL     OW18821   4.871   4.942   3.028  0.0747 -0.2402 -0.5435
 1134SOL    HW118822   4.800   4.930   3.091 -0.4778 -1.6973 -1.4026
 1134SOL    HW218823   4.939   4.989   3.076 -1.1093  0.3767  0.5602
 1135SOL     OW18824   1.580   0.446   1.172 -0.5257  0.0521 -0.0857
 1135SOL    HW118825   1.603   0.536   1.147  0.6770 -0.4549 -0.8354
 1135SOL    HW218826   1.489   0.452   1.199 -0.1916  1.6765  0.7451
 1136SOL     OW18827   4.833   2.277  10.300 -0.0706  0.5379 -0.4223
 1136SOL    HW118828   4.898   2.221  10.257  1.7510  1.4460  1.0715
 1136SOL    HW218829   4.761   2.282  10.237  0.4951 -1.9698 -1.3600
 1137SOL     OW18830   0.987   5.549   9.253  0.0033 -0.0957 -0.3472
 1137SOL    HW118831   0.949   5.637   9.248 -0.4195 -0.2897 -0.6053
 1137SOL    HW218832   0.993   5.531   9.346 -0.5048 -0.0481 -0.3052
 1138SOL     OW18833   4.314   3.056   0.624 -0.6335 -0.8468  0.0832
 1138SOL    HW118834   4.225   3.021   0.633 -0.8834  0.3558  2.5578
 1138SOL    HW218835   4.356   3.038   0.708  1.7274 -2.0047 -1.2769
 1139SOL     OW18836   2.667   1.428   2.308  0.1526  0.3528  0.6605
 1139SOL    HW118837   2.581   1.452   2.272  0.7466 -1.2514 -1.9982
 1139SOL    HW218838   2.662   1.333   2.319  2.1456 -0.0194 -1.2786
 1140SOL     OW18839   4.693   5.829  11.070 -0.1118 -0.3792  0.3143
 1140SOL    HW118840   4.773   5.777  11.057 -0.6129 -1.4877  1.5152
 1140SOL    HW218841   4.724   5.911  11.108  0.3723 -1.3059  2.0135
 1141SOL     OW18842   2.636   3.243   4.120  0.4454 -0.1734 -0.0028
 1141SOL    HW118843   2.609   3.199   4.039  0.3243  1.7502 -1.0371
 1141SOL    HW218844   2.722   3.279   4.100  0.6840 -0.1894  0.9478
 1142SOL     OW18845   1.618   2.031   2.673 -0.7597  0.7372 -0.2127
 1142SOL    HW118846   1.644   2.114   2.635 -1.9579  1.1102 -0.2154
 1142SOL    HW218847   1.556   2.054   2.742 -1.2837 -0.1671 -0.3715
 1143SOL     OW18848   3.439   0.470   0.437  0.4029 -0.0935 -0.0031
 1143SOL    HW118849   3.427   0.377   0.418 -1.6861 -0.6339  3.5684
 1143SOL    HW218850   3.350   0.505   0.443  1.1805  2.4753 -2.6572
 1144SOL     OW18851   2.627   2.822   8.659  0.0226 -0.9125  0.4022
 1144SOL    HW118852   2.597   2.873   8.734  0.5838  0.9615 -0.6019
 1144SOL    HW218853   2.548   2.779   8.626 -1.0664  1.6542 -0.4837
 1145SOL     OW18854   2.685   2.098   0.172 -0.3991  0.2290 -0.0994
 1145SOL    HW118855   2.591   2.113   0.178 -0.2447  1.3192 -0.3735
 1145SOL    HW218856   2.723   2.157   0.237  0.1648  0.4949 -0.6673
 1146SOL     OW18857   4.806   5.783   9.524 -0.0182  0.1407 -0.5362
 1146SOL    HW118858   4.738   5.730   9.565  1.2100 -0.6416  0.5152
 1146SOL    HW218859   4.773   5.799   9.436 -2.0269  0.6298  0.2820
 1147SOL     OW18860   2.321   1.432   1.165  0.5157  0.3813  0.4019
 1147SOL    HW118861   2.292   1.436   1.074  2.5237  0.4106 -0.2430
 1147SOL    HW218862   2.261   1.492   1.211  0.0197  1.0119 -1.0251
 1148SOL     OW18863   0.165   3.756   3.343  0.0489  0.1233 -0.1861
 1148SOL    HW118864   0.159   3.662   3.325  1.7736 -0.1903  0.8214
 1148SOL    HW218865   0.255   3.779   3.320 -0.3661  1.5556 -0.4531
 1149SOL     OW18866   1.233   2.655   3.662 -0.1275  0.0824 -0.2172
 1149SOL    HW118867   1.204   2.717   3.595 -0.2840 -0.4769 -0.6728
 1149SOL    HW218868   1.153   2.606   3.685  0.3220 -1.1000 -1.0824
 1150SOL     OW18869   1.616   5.068   2.346 -0.0683 -0.1677  0.0540
 1150SOL    HW118870   1.547   5.069   2.279  0.1245  1.7211 -0.1591
 1150SOL    HW218871   1.569   5.053   2.428 -0.9426  2.3127  0.0641
 1151SOL     OW18872   2.338   5.762   1.817  0.0249  0.5009 -0.1183
 1151SOL    HW118873   2.248   5.755   1.783  0.1022 -0.2570 -0.1868
 1151SOL    HW218874   2.372   5.843   1.780 -0.4243  0.4695 -0.6044
 1152SOL     OW18875   4.173   3.544  11.762 -0.9319  0.2338 -0.1638
 1152SOL    HW118876   4.084   3.563  11.791 -0.7884  0.8284 -0.0928
 1152SOL    HW218877   4.167   3.537  11.667 -1.2842 -1.0336 -0.0483
 1153SOL     OW18878   3.467   5.571  11.858 -0.4218  0.4705 -0.2597
 1153SOL    HW118879   3.420   5.502  11.811 -0.0611  0.5541 -0.7523
 1153SOL    HW218880   3.495   5.631  11.789  0.4750  0.3764  0.0156
 1154SOL     OW18881   5.407   3.649   8.729  0.3306 -0.0554  0.5150
 1154SOL    HW118882   5.496   3.613   8.730  0.3349 -0.0539  0.3333
 1154SOL    HW218883   5.371   3.625   8.814  1.0722  1.3788  1.2536
 1155SOL     OW18884   4.494   0.883  10.122  0.1519 -0.1833  0.1222
 1155SOL    HW118885   4.446   0.951  10.168 -0.3586 -0.8516  0.5874
 1155SOL    HW218886   4.431   0.846  10.060  0.5449  0.0360 -0.4234
 1156SOL     OW18887   0.410   5.775   2.338 -0.2630  0.0095  0.6654
 1156SOL    HW118888   0.502   5.752   2.329 -0.1873  1.5226 -3.8873
 1156SOL    HW218889   0.410   5.868   2.361 -0.6141  0.1729  0.0347
 1157SOL     OW18890   3.701   3.660   8.644  0.0014  0.8043 -0.0017
 1157SOL    HW118891   3.748   3.607   8.581  0.1082 -0.0731  0.8006
 1157SOL    HW218892   3.615   3.618   8.652 -0.4040  1.5567 -0.3941
 1158SOL     OW18893   4.232   2.091   2.315  0.1955 -0.5107 -0.1940
 1158SOL    HW118894   4.318   2.134   2.316 -0.1690  0.2394 -0.8158
 1158SOL    HW218895   4.238   2.026   2.385  0.6813  0.6845  0.9095
 1159SOL     OW18896   1.462   4.936   0.639 -0.5367 -0.0814 -0.2756
 1159SOL    HW118897   1.419   4.874   0.697  0.0303 -2.8656 -2.7302
 1159SOL    HW218898   1.408   5.015   0.644 -2.0753 -1.2115  1.8164
 1160SOL     OW18899   1.990   0.582  10.311 -0.3265  0.0126 -0.0141
 1160SOL    HW118900   1.933   0.658  10.313 -1.6899 -1.0094  0.5298
 1160SOL    HW218901   2.059   0.605  10.249 -2.4916  0.4486 -2.3194
 1161SOL     OW18902   2.594   1.647  12.492 -0.3617 -0.0646 -0.1323
 1161SOL    HW118903   2.631   1.636  12.404  0.3919 -2.1232  0.4219
 1161SOL    HW218904   2.504   1.674  12.476  0.6055  2.5620 -1.5036
 1162SOL     OW18905   5.300   0.475   2.585  0.6576  0.1893  0.2037
 1162SOL    HW118906   5.345   0.406   2.537  1.3241  0.0747  0.9862
 1162SOL    HW218907   5.208   0.466   2.560  0.9019 -0.3039 -0.5151
 1163SOL     OW18908   2.582   0.259   1.050 -0.0770  0.4493 -0.0992
 1163SOL    HW118909   2.536   0.310   1.116 -0.3911 -0.4805  0.4211
 1163SOL    HW218910   2.549   0.292   0.966 -0.8259  0.5994  0.2478
 1164SOL     OW18911   1.034   2.504   0.785  0.2969 -0.6168 -0.6292
 1164SOL    HW118912   1.042   2.411   0.807 -0.7763 -0.9079 -1.4097
 1164SOL    HW218913   0.951   2.510   0.737  0.2696  0.7749 -0.4279
 1165SOL     OW18914   5.764   3.794   3.676  0.4293 -0.2917 -0.0056
 1165SOL    HW118915   5.802   3.725   3.730 -0.5732 -0.4377  0.5246
 1165SOL    HW218916   5.671   3.771   3.670  0.0862  1.0367  0.2100
 1166SOL     OW18917   2.704   2.770   3.425 -0.5828  0.1714  0.6140
 1166SOL    HW118918   2.711   2.817   3.343 -0.2923 -0.8570  0.0402
 1166SOL    HW218919   2.636   2.816   3.474 -0.5452  0.9589 -0.0827
 1167SOL     OW18920   3.262   1.844   9.360 -0.8976 -0.3196  0.1191
 1167SOL    HW118921   3.195   1.893   9.407  0.9265  2.4590 -0.0510
 1167SOL    HW218922   3.330   1.827   9.425 -0.5926 -0.8338 -0.3280
 1168SOL     OW18923   2.243   5.427   8.819 -0.1846 -0.0590  0.2052
 1168SOL    HW118924   2.246   5.412   8.725 -2.4702  0.0036  0.0769
 1168SOL    HW218925   2.281   5.348   8.857 -1.1546 -0.9977 -0.7339
 1169SOL     OW18926   0.548   2.861   0.958 -0.4682 -0.4408 -0.1941
 1169SOL    HW118927   0.466   2.909   0.945  0.2677  1.7124  2.7153
 1169SOL    HW218928   0.612   2.910   0.906 -0.3795 -0.1782  0.1576
 1170SOL     OW18929   3.015   5.748   0.267 -0.4565  0.1190  0.7655
 1170SOL    HW118930   3.077   5.818   0.247 -0.0481 -0.5303 -0.2920
 1170SOL    HW218931   2.993   5.760   0.359  0.2146  1.1648  0.7888
 1171SOL     OW18932   4.794   3.655   3.200  0.6524 -0.1297  0.3191
 1171SOL    HW118933   4.835   3.732   3.162  1.7454 -0.8740 -0.0170
 1171SOL    HW218934   4.708   3.651   3.158  1.8741 -1.0141 -2.2140
 1172SOL     OW18935   0.545   2.350   1.326  0.0505 -0.9497  0.1936
 1172SOL    HW118936   0.627   2.309   1.353  0.5409  1.1278  1.9856
 1172SOL    HW218937   0.570   2.439   1.303 -1.7311 -0.2222  1.0190
 1173SOL     OW18938   1.253   1.065  10.140 -0.1805  0.0828 -0.1833
 1173SOL    HW118939   1.341   1.071  10.177 -0.1582 -3.3484  0.4989
 1173SOL    HW218940   1.267   1.061  10.045  0.4717 -1.2604 -0.0404
 1174SOL     OW18941   3.076   5.559   7.831  0.2001  0.3225  0.6272
 1174SOL    HW118942   3.134   5.631   7.807  1.9559 -0.1159  3.4174
 1174SOL    HW218943   2.999   5.602   7.870  0.5583  0.7491  0.8705
 1175SOL     OW18944   5.809   0.454   3.767  0.3118 -0.1225 -0.3537
 1175SOL    HW118945   5.728   0.505   3.765  0.8740  0.7759 -0.0532
 1175SOL    HW218946   5.780   0.364   3.746 -0.8228  0.0975  0.2088
 1176SOL     OW18947   4.753   1.183   1.654  0.1058 -0.8208  0.1672
 1176SOL    HW118948   4.662   1.154   1.657 -0.0164 -0.3665  0.7666
 1176SOL    HW218949   4.778   1.174   1.562 -1.5831  2.2559 -0.6587
 1177SOL     OW18950   0.234   2.698   1.616 -0.1092 -0.3048 -0.3008
 1177SOL    HW118951   0.328   2.698   1.633  0.0370 -2.7676 -0.8135
 1177SOL    HW218952   0.205   2.612   1.646 -1.9333 -0.1131 -1.4424
 1178SOL     OW18953   1.137   0.841   8.525  0.5419 -0.8381  0.7550
 1178SOL    HW118954   1.059   0.787   8.528 -0.0154 -0.1154 -0.2386
 1178SOL    HW218955   1.204   0.785   8.484 -0.1148 -0.6851 -0.5595
 1179SOL     OW18956   4.234   3.037   8.066  0.0501 -0.1024  0.0643
 1179SOL    HW118957   4.299   3.004   8.005 -0.8977 -0.5975 -0.7009
 1179SOL    HW218958   4.272   3.023   8.153  0.7370 -0.8478 -0.3554
 1180SOL     OW18959   4.101   5.734  10.051 -0.6016  0.6503 -0.2412
 1180SOL    HW118960   4.090   5.812   9.998 -1.4418  1.4853  1.1226
 1180SOL    HW218961   4.136   5.766  10.134 -2.4926 -0.2035  0.9237
 1181SOL     OW18962   4.368   4.129   2.178 -0.5114  0.5332 -0.2826
 1181SOL    HW118963   4.443   4.088   2.223 -1.1356  0.3850  0.6475
 1181SOL    HW218964   4.407   4.197   2.123  0.3097  0.4800  0.2233
 1182SOL     OW18965   5.383   0.991   1.115 -0.3142  0.4499  0.0223
 1182SOL    HW118966   5.462   0.996   1.061 -0.7684 -0.6957 -0.7582
 1182SOL    HW218967   5.413   0.953   1.198 -0.0764 -0.1397 -0.3316
 1183SOL     OW18968   2.112   2.710   3.669  0.3242 -0.2400 -0.1111
 1183SOL    HW118969   2.125   2.783   3.728  1.7564  0.9440 -1.8393
 1183SOL    HW218970   2.026   2.675   3.692 -0.3657  1.9693  0.7385
 1184SOL     OW18971   3.618   0.214   0.812 -0.0150 -0.4852 -0.2036
 1184SOL    HW118972   3.563   0.253   0.880 -0.7907 -0.6274 -0.7344
 1184SOL    HW218973   3.703   0.257   0.822 -0.0115 -0.7857  1.0975
 1185SOL     OW18974   4.492   0.852  11.972  0.9560 -0.3258  0.1170
 1185SOL    HW118975   4.569   0.849  12.030  0.5401 -0.3711  0.6632
 1185SOL    HW218976   4.506   0.931  11.920  0.9027  0.1947  0.8732
 1186SOL     OW18977   4.000   4.948   8.722  0.5684 -0.1023 -0.4692
 1186SOL    HW118978   3.910   4.974   8.740  0.2872 -0.3038 -1.5108
 1186SOL    HW218979   4.006   4.858   8.751  1.3239  0.8477  2.4580
 1187SOL     OW18980   3.383   2.678   0.602  0.6855 -0.2518  0.1101
 1187SOL    HW118981   3.370   2.701   0.510 -0.7186  1.4195  0.6928
 1187SOL    HW218982   3.467   2.718   0.625  1.6761 -1.7629 -0.7568
 1188SOL     OW18983   3.328   3.867   2.369 -0.5222  0.3115 -0.7241
 1188SOL    HW118984   3.325   3.959   2.395  1.8568  0.0184  0.6601
 1188SOL    HW218985   3.257   3.826   2.419 -1.1445  1.2501 -0.8234
 1189SOL     OW18986   3.185   0.574   2.086 -0.4610 -0.5554 -0.2480
 1189SOL    HW118987   3.092   0.574   2.110 -0.7394 -0.6064 -1.2999
 1189SOL    HW218988   3.207   0.482   2.073 -0.4419 -0.4894 -0.6832
 1190SOL     OW18989   0.784   0.599   1.958  0.1416 -0.2157 -0.5183
 1190SOL    HW118990   0.743   0.684   1.968  1.4393  0.3822 -0.1720
 1190SOL    HW218991   0.740   0.543   2.022 -1.0782  0.0440 -1.1159
 1191SOL     OW18992   5.594   1.439  12.313  0.0853 -0.1405 -0.0087
 1191SOL    HW118993   5.546   1.500  12.258 -2.1281 -1.0786  0.8435
 1191SOL    HW218994   5.530   1.372  12.337  1.8108 -1.4299  1.1365
 1192SOL     OW18995   1.935   2.351   1.543 -0.0268  0.4744 -0.0645
 1192SOL    HW118996   1.848   2.389   1.541  0.2471  1.1969  1.1952
 1192SOL    HW218997   1.923   2.263   1.579 -0.4425 -0.0332 -1.4240
 1193SOL     OW18998   2.043   3.588   0.951  0.0324  0.7413  0.1188
 1193SOL    HW118999   2.136   3.595   0.970  0.6096 -1.4674 -1.7307
 1193SOL    HW219000   2.004   3.555   1.031  0.9937  0.6878  0.5644
 1194SOL     OW19001   1.942   5.552  11.642 -0.0589  0.3476 -0.1816
 1194SOL    HW119002   2.012   5.575  11.581  0.8865  0.3726  0.8902
 1194SOL    HW219003   1.978   5.479  11.692 -0.7860  0.3936  0.4071
 1195SOL     OW19004   5.579   1.449   1.001 -0.1521  0.1455 -0.1392
 1195SOL    HW119005   5.537   1.514   0.945  2.7349  2.2021 -0.0203
 1195SOL    HW219006   5.649   1.413   0.948 -0.8002 -1.8507  0.3153
 1196SOL     OW19007   5.009   0.623   2.852  0.5119  0.2408  1.0064
 1196SOL    HW119008   5.053   0.661   2.777 -1.6661  0.7625 -0.0643
 1196SOL    HW219009   5.025   0.685   2.923  0.1296  1.2510  0.2227
 1197SOL     OW19010   1.553   4.895   0.975 -0.1027 -0.3156  0.5388
 1197SOL    HW119011   1.614   4.822   0.976 -0.2366 -0.4190  1.6658
 1197SOL    HW219012   1.476   4.861   0.930  0.3499 -0.4328 -0.1677
 1198SOL     OW19013  -0.003   0.748   2.778  0.2532  0.2981  0.2542
 1198SOL    HW119014   0.021   0.810   2.709  0.3826 -0.1302 -0.0879
 1198SOL    HW219015   0.080   0.710   2.806  0.0419 -0.8620 -0.6211
 1199SOL     OW19016   1.737   3.582  12.426 -0.7456 -0.2595  0.0696
 1199SOL    HW119017   1.766   3.665  12.465 -1.7597  0.3378 -0.3921
 1199SOL    HW219018   1.702   3.532  12.499 -1.8611  0.5098  0.0869
 1200SOL     OW19019   1.661   4.616   9.478  0.2076  0.0646 -0.1302
 1200SOL    HW119020   1.604   4.595   9.404  0.8097 -1.1976 -0.2402
 1200SOL    HW219021   1.750   4.608   9.444  0.4774  0.3032  0.5040
 1201SOL     OW19022   1.202   3.484  12.431 -0.2940 -0.0227  0.1265
 1201SOL    HW119023   1.295   3.508  12.430 -0.0684 -0.8822  0.3791
 1201SOL    HW219024   1.171   3.511  12.518  0.5114 -2.7208  1.2786
 1202SOL     OW19025   3.544   5.705   9.220  0.0594 -0.3604  0.0630
 1202SOL    HW119026   3.527   5.739   9.308  0.4619  2.1059 -0.7776
 1202SOL    HW219027   3.472   5.644   9.203  0.0284 -0.9104  2.1263
 1203SOL     OW19028   5.058   1.573  10.374  0.1437  0.5054 -0.7996
 1203SOL    HW119029   5.018   1.514  10.310  0.3554 -1.0535  0.4826
 1203SOL    HW219030   5.024   1.543  10.459  0.3601  2.1459 -0.1146
 1204SOL     OW19031   0.507   0.488   2.258 -0.8096  0.7243 -0.4038
 1204SOL    HW119032   0.538   0.579   2.249 -1.5912  0.9569 -0.8429
 1204SOL    HW219033   0.549   0.442   2.185 -0.3933  0.7301 -0.1690
 1205SOL     OW19034   4.563   1.346   0.756 -0.4836  0.2283 -0.1031
 1205SOL    HW119035   4.559   1.407   0.682  0.3076  0.5697  0.1192
 1205SOL    HW219036   4.624   1.388   0.817  0.0895 -0.8034  0.0444
 1206SOL     OW19037   1.038   3.187  11.662  0.0526 -0.0571 -0.0239
 1206SOL    HW119038   0.943   3.175  11.654 -0.2752  2.0093  0.5391
 1206SOL    HW219039   1.069   3.191  11.572 -0.7654  1.8115 -0.2549
 1207SOL     OW19040   3.677   4.851  10.783 -0.2613  0.2470 -0.3400
 1207SOL    HW119041   3.658   4.833  10.691  0.3154 -0.9664 -0.2339
 1207SOL    HW219042   3.756   4.800  10.801 -0.9585 -0.3306  1.1164
 1208SOL     OW19043   1.484   4.137   0.097 -0.3206 -0.1573 -0.0357
 1208SOL    HW119044   1.486   4.147   0.192 -0.6595  2.4243 -0.2769
 1208SOL    HW219045   1.572   4.161   0.069 -0.0244 -1.5376 -0.3603
 1209SOL     OW19046   3.174   5.592  11.280 -0.1981 -0.0709  0.8830
 1209SOL    HW119047   3.240   5.529  11.250 -0.7868 -0.0186 -0.5723
 1209SOL    HW219048   3.091   5.549  11.261 -0.6003  0.8964  0.4621
 1210SOL     OW19049   1.438   3.922  11.951 -0.0146 -0.1624  0.2975
 1210SOL    HW119050   1.483   3.935  12.035 -1.4154 -1.7614  1.3459
 1210SOL    HW219051   1.480   3.845  11.913 -1.0343 -0.9390  0.7168
 1211SOL     OW19052   5.816   2.455   0.514 -0.2275 -0.7045  0.0744
 1211SOL    HW119053   5.777   2.473   0.600  1.2348 -1.4018  0.9074
 1211SOL    HW219054   5.872   2.531   0.497  1.5191 -1.7534  0.9682
 1212SOL     OW19055   1.892   3.612   8.766  0.4456  0.1896 -0.2975
 1212SOL    HW119056   1.965   3.640   8.820  0.8873  0.0611 -0.8311
 1212SOL    HW219057   1.894   3.669   8.690  0.1691 -0.0102 -0.4544
 1213SOL     OW19058   2.821   4.544   9.208 -0.4813  0.0839  0.1676
 1213SOL    HW119059   2.825   4.525   9.301 -1.3425  1.0334  0.4079
 1213SOL    HW219060   2.808   4.458   9.167 -2.0561 -0.1272  1.0652
 1214SOL     OW19061   0.265   4.535   9.220  0.2204  0.3056  0.5447
 1214SOL    HW119062   0.192   4.499   9.269  0.5546  1.3262  1.8565
 1214SOL    HW219063   0.318   4.459   9.195 -0.1611 -0.2663  1.4505
 1215SOL     OW19064   0.675   4.790   8.644 -0.1161  0.4263 -0.5411
 1215SOL    HW119065   0.659   4.844   8.566 -0.1294  1.6156  0.2788
 1215SOL    HW219066   0.768   4.772   8.642 -0.2613 -0.2804 -1.3030
 1216SOL     OW19067   3.120   4.371   9.662 -0.1593  0.3703  0.3535
 1216SOL    HW119068   3.146   4.280   9.681 -1.2027  0.1116  0.5825
 1216SOL    HW219069   3.097   4.407   9.748 -2.3445  0.0214 -0.0713
 1217SOL     OW19070   2.875   1.160   2.581 -0.0645 -0.0929 -0.0800
 1217SOL    HW119071   2.831   1.153   2.665 -0.7375 -0.7590 -0.4770
 1217SOL    HW219072   2.969   1.156   2.602 -0.2501 -1.3258  0.5443
 1218SOL     OW19073   2.663   3.134  12.420 -0.1491  0.3166 -0.2318
 1218SOL    HW119074   2.615   3.212  12.449  1.6188  1.4164 -0.1963
 1218SOL    HW219075   2.730   3.168  12.360  2.0100 -0.9362  1.4181
 1219SOL     OW19076   3.266   2.120  11.656 -0.6779  0.1217 -0.7113
 1219SOL    HW119077   3.355   2.087  11.640 -0.3054  1.4540 -1.4988
 1219SOL    HW219078   3.272   2.165  11.741 -0.8332 -0.6145 -0.3118
 1220SOL     OW19079   4.952   2.640   0.983 -0.1032 -0.0576  0.5253
 1220SOL    HW119080   4.994   2.711   1.031 -0.0347  1.6565 -1.9601
 1220SOL    HW219081   4.866   2.674   0.960 -0.3370 -1.0473 -0.1119
 1221SOL     OW19082   3.454   0.723   1.601  0.2123 -0.5031 -0.6558
 1221SOL    HW119083   3.368   0.723   1.559 -0.9715 -0.4677  1.6728
 1221SOL    HW219084   3.475   0.816   1.612  0.3448 -0.5158 -0.7891
 1222SOL     OW19085   5.200   2.152   3.753 -0.1818  0.6252  0.0820
 1222SOL    HW119086   5.195   2.081   3.817 -1.0332 -0.5152 -1.2377
 1222SOL    HW219087   5.109   2.175   3.735  0.0802  2.3378  0.7851
 1223SOL     OW19088   4.106   1.928  11.597 -0.2157 -0.8587  0.1989
 1223SOL    HW119089   4.056   1.935  11.678  0.1687 -1.2976  0.4803
 1223SOL    HW219090   4.160   2.007  11.595 -0.7408 -0.5046  0.0187
 1224SOL     OW19091   4.865   0.504   9.504 -0.3526  0.1260 -0.3987
 1224SOL    HW119092   4.837   0.467   9.588 -0.6061 -0.8482 -0.9160
 1224SOL    HW219093   4.783   0.527   9.460 -0.2327  0.2562 -0.5560
 1225SOL     OW19094   2.345   2.144   1.417 -0.6465 -0.0807 -0.0516
 1225SOL    HW119095   2.330   2.049   1.417 -0.2673 -0.1577 -1.1242
 1225SOL    HW219096   2.308   2.174   1.334 -1.6874  0.8782  0.7443
 1226SOL     OW19097   2.653   3.526  10.045  0.1953  0.4473 -0.1131
 1226SOL    HW119098   2.593   3.455  10.065  3.1552 -1.4733  2.4714
 1226SOL    HW219099   2.667   3.520   9.951 -1.0966 -1.1418 -0.2267
 1227SOL     OW19100   5.746   5.261   2.804  0.0706 -0.3576  0.2569
 1227SOL    HW119101   5.761   5.274   2.898  0.5044 -0.7570  0.2439
 1227SOL    HW219102   5.706   5.174   2.798 -2.8468  0.9104  0.3490
 1228SOL     OW19103   3.657   5.916   2.257 -0.2648 -0.2039 -0.2116
 1228SOL    HW119104   3.727   5.852   2.240 -0.4016 -0.1262 -1.1383
 1228SOL    HW219105   3.688   5.967   2.332  0.4527 -0.4933 -0.3029
 1229SOL     OW19106   5.314   4.511   1.293 -0.1843 -0.0431 -0.0338
 1229SOL    HW119107   5.269   4.538   1.373 -0.4171  1.4559 -0.6661
 1229SOL    HW219108   5.256   4.445   1.255  0.6037 -1.8106  1.7370
 1230SOL     OW19109   3.707   3.529   3.322  0.2322  0.0193 -0.2261
 1230SOL    HW119110   3.675   3.573   3.244  0.8259 -0.6188 -0.8339
 1230SOL    HW219111   3.630   3.519   3.378 -0.3894 -0.4710 -1.1722
 1231SOL     OW19112   1.974   5.848   2.793  0.4572  0.4496 -0.0129
 1231SOL    HW119113   2.053   5.809   2.757  0.3642  0.7467 -0.5398
 1231SOL    HW219114   1.906   5.782   2.780 -0.3727  1.9196 -3.6246
 1232SOL     OW19115   4.787   2.739   3.796  0.5224  0.0412  0.4555
 1232SOL    HW119116   4.857   2.700   3.744 -1.5041 -1.2646 -1.3866
 1232SOL    HW219117   4.760   2.816   3.745  0.8105  0.7071  1.3018
 1233SOL     OW19118   5.218   2.804  11.143 -0.0195  0.1740 -0.2552
 1233SOL    HW119119   5.141   2.817  11.199  0.1475 -0.6515  0.1698
 1233SOL    HW219120   5.193   2.732  11.085  0.5441 -0.2879  0.0786
 1234SOL     OW19121   5.659   5.102   9.671 -0.8903 -0.3714  0.3253
 1234SOL    HW119122   5.630   5.082   9.760 -1.7846  0.0659  0.1347
 1234SOL    HW219123   5.693   5.019   9.638  0.0497 -0.3808  1.3016
 1235SOL     OW19124   4.045   1.466   1.577 -0.4868 -0.0227 -0.1991
 1235SOL    HW119125   3.960   1.504   1.600 -0.6082 -0.1806 -0.3901
 1235SOL    HW219126   4.091   1.536   1.530 -0.7468 -0.1479 -0.6400
 1236SOL     OW19127   1.076   3.421   2.698  0.3753 -0.2860  0.1635
 1236SOL    HW119128   1.159   3.422   2.650  1.0871 -2.1962  1.3101
 1236SOL    HW219129   1.032   3.342   2.668 -0.8599  0.4898 -0.1061
 1237SOL     OW19130   4.554   4.277   0.449  0.0105  0.2093 -0.0742
 1237SOL    HW119131   4.502   4.340   0.499 -0.8727 -0.5529 -0.0270
 1237SOL    HW219132   4.634   4.266   0.500 -0.1348  0.7454  0.2786
 1238SOL     OW19133   2.368   4.292  10.938 -0.1470  0.2311  0.8923
 1238SOL    HW119134   2.321   4.263  10.859  0.2834  0.1163  0.6731
 1238SOL    HW219135   2.300   4.304  11.004 -0.4744 -0.0153  0.6014
 1239SOL     OW19136   4.408   0.888   7.987  0.2286 -0.2274  0.3044
 1239SOL    HW119137   4.440   0.807   7.946  1.3029 -0.4665  1.5937
 1239SOL    HW219138   4.469   0.955   7.957 -1.0707  0.2647 -1.3348
 1240SOL     OW19139   2.021   3.436   2.601 -0.0118 -0.0973 -0.1102
 1240SOL    HW119140   1.968   3.497   2.652 -0.1637  0.9591 -1.4768
 1240SOL    HW219141   1.979   3.434   2.515  2.1263  0.7641 -1.2261
 1241SOL     OW19142   5.444   4.219   7.878  0.3609 -0.6379  0.4344
 1241SOL    HW119143   5.457   4.171   7.797  0.1659 -1.2812  0.7752
 1241SOL    HW219144   5.531   4.250   7.902  0.1776  0.9232 -0.8426
 1242SOL     OW19145   2.818   0.614   4.266  0.2049  0.1442 -0.0070
 1242SOL    HW119146   2.848   0.705   4.268 -0.4416  0.4002 -1.1119
 1242SOL    HW219147   2.735   0.615   4.313  1.4346 -0.3833  2.2327
 1243SOL     OW19148   5.779   4.309   2.549 -0.5506  0.5841  0.1562
 1243SOL    HW119149   5.785   4.213   2.554  0.6531  0.4867 -2.3032
 1243SOL    HW219150   5.712   4.325   2.483 -0.3046  1.4280  0.1112
 1244SOL     OW19151   4.146   5.690   9.421 -0.4390 -0.0467  0.3558
 1244SOL    HW119152   4.139   5.768   9.365 -1.3385 -0.2566  0.1623
 1244SOL    HW219153   4.218   5.709   9.481 -0.6844  0.9515  0.3366
 1245SOL     OW19154   2.160   1.929  11.615  0.0618  0.3697  0.4166
 1245SOL    HW119155   2.074   1.909  11.653  0.0704  0.5645  0.5398
 1245SOL    HW219156   2.140   1.963  11.528 -0.0375  1.3095  0.7993
 1246SOL     OW19157   2.508   1.737  12.049  0.9444 -0.2119 -0.1078
 1246SOL    HW119158   2.557   1.816  12.071  2.3112 -0.6976 -1.3255
 1246SOL    HW219159   2.426   1.768  12.012  0.6758  0.6214  1.1596
 1247SOL     OW19160   4.167   0.778   3.818  0.1519  0.1208  0.3959
 1247SOL    HW119161   4.165   0.700   3.762  1.8954 -0.9615  1.7655
 1247SOL    HW219162   4.225   0.839   3.772 -1.2261  0.6284 -0.6883
 1248SOL     OW19163   1.196   0.504   8.049 -0.0697  0.3271  0.5963
 1248SOL    HW119164   1.271   0.461   8.090  0.0924 -0.9105 -0.9341
 1248SOL    HW219165   1.132   0.512   8.119  0.4406 -1.1647  1.2573
 1249SOL     OW19166   1.759   4.460   9.921 -0.5453  0.0698  0.1471
 1249SOL    HW119167   1.783   4.370   9.897 -0.6300  0.2302 -0.5291
 1249SOL    HW219168   1.831   4.490   9.977  0.0060 -0.0411 -0.5018
 1250SOL     OW19169   3.640   5.198   3.119  0.7040 -0.4310  0.2822
 1250SOL    HW119170   3.645   5.269   3.056  2.8206 -2.5988 -2.0672
 1250SOL    HW219171   3.644   5.242   3.204  1.5243  2.2762 -1.0948
 1251SOL     OW19172   4.240   1.832   8.667 -0.1344 -0.4291 -0.4804
 1251SOL    HW119173   4.257   1.814   8.575 -0.0809 -0.9450 -0.3761
 1251SOL    HW219174   4.207   1.921   8.669 -1.8614 -1.0311 -1.2070
 1252SOL     OW19175   3.717   0.559   0.461  0.6169 -0.0901  0.3271
 1252SOL    HW119176   3.723   0.579   0.368  0.9392 -1.4387  0.0438
 1252SOL    HW219177   3.641   0.500   0.468  1.6091 -1.3459  0.6715
 1253SOL     OW19178   5.337   2.464   9.981  0.0302  0.1090 -0.5219
 1253SOL    HW119179   5.320   2.531   9.915  0.4300  0.6842 -0.0535
 1253SOL    HW219180   5.309   2.505  10.063 -1.0417 -0.8270 -0.4068
 1254SOL     OW19181   5.902   4.379   3.114  0.0925  0.2175  0.0767
 1254SOL    HW119182   5.901   4.434   3.193  2.9848  0.5409 -0.0558
 1254SOL    HW219183   5.828   4.412   3.062  1.1767  3.4218  0.4206
 1255SOL     OW19184   2.231   4.937   8.093 -0.1534  0.3591 -0.2898
 1255SOL    HW119185   2.152   4.886   8.111 -0.7268  1.8096  1.5447
 1255SOL    HW219186   2.269   4.953   8.179  0.8273  1.7069 -0.9495
 1256SOL     OW19187   2.945   2.760  10.678 -0.1527  0.6134  0.1536
 1256SOL    HW119188   2.970   2.852  10.669 -1.7685  0.9848 -0.6607
 1256SOL    HW219189   2.969   2.738  10.768  0.3203  1.8103  0.3402
 1257SOL     OW19190   0.484   4.528  10.845  0.3936  0.1962 -0.4992
 1257SOL    HW119191   0.489   4.445  10.797 -1.4656  0.3767 -1.0442
 1257SOL    HW219192   0.471   4.594  10.777  0.0560  0.7204  0.0685
 1258SOL     OW19193   1.542   4.114   9.081 -0.4083 -0.0361 -0.4049
 1258SOL    HW119194   1.535   4.077   8.993 -0.5155  1.3564 -1.0028
 1258SOL    HW219195   1.495   4.052   9.137 -0.4423 -0.8732 -1.3480
 1259SOL     OW19196   0.804   4.081   4.493 -0.0468 -0.5363 -0.4368
 1259SOL    HW119197   0.816   4.172   4.465 -1.1756 -0.2125  0.1345
 1259SOL    HW219198   0.891   4.055   4.525 -0.0666  0.7987  0.7536
 1260SOL     OW19199   5.359   0.145   1.539 -0.2517 -0.1656  0.1079
 1260SOL    HW119200   5.377   0.130   1.446  0.8842  3.8972 -0.4538
 1260SOL    HW219201   5.267   0.173   1.541  0.0064  0.6950  0.0686
 1261SOL     OW19202   5.023   3.687   2.796 -1.0206 -0.1947 -0.3457
 1261SOL    HW119203   5.066   3.665   2.713 -0.5674 -0.3515 -0.0700
 1261SOL    HW219204   4.942   3.731   2.770  0.8123  3.0629 -0.8634
 1262SOL     OW19205   1.629   4.519  11.544 -0.6842 -0.3503 -0.4277
 1262SOL    HW119206   1.572   4.451  11.510 -0.2390 -0.4275 -1.0404
 1262SOL    HW219207   1.622   4.591  11.480 -0.3025 -0.2615 -0.3764
 1263SOL     OW19208   0.504   2.950  11.534  0.0034 -0.0789 -0.9486
 1263SOL    HW119209   0.500   2.985  11.445 -1.7009  0.2505 -0.7746
 1263SOL    HW219210   0.429   2.990  11.578 -0.2886 -1.7301  0.0876
 1264SOL     OW19211   3.805   3.203   9.963  0.2232 -0.0932 -0.0772
 1264SOL    HW119212   3.763   3.289   9.968  1.4699  0.4962  0.5986
 1264SOL    HW219213   3.899   3.222   9.967  0.5400 -1.4349 -0.7249
 1265SOL     OW19214   0.453   4.101   1.287 -0.4549 -0.4680 -0.4085
 1265SOL    HW119215   0.413   4.172   1.336 -2.6675 -0.7148 -1.7927
 1265SOL    HW219216   0.431   4.022   1.336  2.2875 -0.2389  1.3153
 1266SOL     OW19217   3.018   4.460   9.901 -0.1630 -0.0288 -0.3522
 1266SOL    HW119218   2.976   4.537   9.938  2.5588  2.3712 -2.0456
 1266SOL    HW219219   3.071   4.425   9.973 -0.5147  0.3528  0.0968
 1267SOL     OW19220   2.661   1.116   4.304  0.4433  0.3970  0.4860
 1267SOL    HW119221   2.598   1.162   4.360  1.3811  1.2088  0.9091
 1267SOL    HW219222   2.608   1.068   4.241 -0.6074  0.3264  1.4246
 1268SOL     OW19223   2.991   5.911   3.024  0.4376 -0.2970  0.4087
 1268SOL    HW119224   2.999   5.944   3.114  0.5649  0.4046  0.1445
 1268SOL    HW219225   2.935   5.975   2.980  0.1928 -0.7591  0.0506
 1269SOL     OW19226   2.275   4.027   8.994 -0.1145 -0.4523  0.1906
 1269SOL    HW119227   2.218   4.098   8.962  0.1292 -0.4410 -0.2166
 1269SOL    HW219228   2.228   3.992   9.069 -1.0681 -0.9929 -0.6428
 1270SOL     OW19229   0.156   5.061   9.255  0.2403 -0.4076  0.1992
 1270SOL    HW119230   0.139   5.093   9.343  0.6598 -0.9533  0.4814
 1270SOL    HW219231   0.235   5.008   9.263  0.2412 -0.5204 -0.4898
 1271SOL     OW19232   5.191   4.333   0.303  0.4530  0.1511  0.6272
 1271SOL    HW119233   5.227   4.254   0.264 -0.1349  0.3431 -0.3248
 1271SOL    HW219234   5.244   4.348   0.382  2.3964  0.4114 -0.6995
 1272SOL     OW19235   0.390   2.814   1.995 -0.8588  0.4537 -0.2135
 1272SOL    HW119236   0.316   2.764   2.029 -2.3860  3.5579  1.2739
 1272SOL    HW219237   0.458   2.804   2.061 -0.2615 -1.6521 -1.1302
 1273SOL     OW19238   3.327   5.420   3.211 -0.4566 -0.1713  0.2954
 1273SOL    HW119239   3.275   5.419   3.131  0.6746 -0.2372 -0.4557
 1273SOL    HW219240   3.312   5.508   3.248 -0.9970 -0.1476  0.0267
 1274SOL     OW19241   5.188   0.900   2.065 -0.1118 -0.8363 -0.5894
 1274SOL    HW119242   5.202   0.861   2.152  1.1386  1.0092  0.0492
 1274SOL    HW219243   5.272   0.938   2.041 -1.2050  1.2193 -1.3175
 1275SOL     OW19244   4.979   1.500   3.132  0.5565 -0.0980  0.5260
 1275SOL    HW119245   5.074   1.491   3.130  0.4606 -1.2714  0.9339
 1275SOL    HW219246   4.957   1.502   3.225  0.0901 -0.9629  0.4471
 1276SOL     OW19247   0.521   4.632   3.844  0.2160 -0.7291  0.1642
 1276SOL    HW119248   0.440   4.680   3.826  0.8086  0.5332  0.7928
 1276SOL    HW219249   0.591   4.693   3.818  0.9677 -1.6227  0.0789
 1277SOL     OW19250   2.637   1.128   9.763  0.1306  0.1570  0.4459
 1277SOL    HW119251   2.594   1.096   9.843 -0.2302  1.3931  0.7527
 1277SOL    HW219252   2.626   1.057   9.700  2.1630 -1.7038  2.0667
 1278SOL     OW19253   3.982   3.413  12.193  0.3239  0.1374  0.0317
 1278SOL    HW119254   4.021   3.484  12.142  0.8892 -1.9315 -2.4918
 1278SOL    HW219255   4.046   3.397  12.263  1.6556  0.1335 -1.1481
 1279SOL     OW19256   5.076   0.354  11.228  0.2328 -0.0840 -0.1101
 1279SOL    HW119257   5.103   0.404  11.305 -1.5833  0.6540  0.0745
 1279SOL    HW219258   4.985   0.329  11.246  0.7863 -2.6610 -0.6184
 1280SOL     OW19259   2.804   1.510   0.592 -0.1612  0.2921  0.5697
 1280SOL    HW119260   2.800   1.536   0.684 -1.0111  1.6329  0.1666
 1280SOL    HW219261   2.720   1.469   0.575  0.2636 -0.5882  0.5707
 1281SOL     OW19262   5.688   2.818   1.623 -0.6016 -0.4830  0.1943
 1281SOL    HW119263   5.691   2.761   1.699 -0.7131 -0.9091 -0.1198
 1281SOL    HW219264   5.762   2.790   1.569  0.3040  0.7236  0.7876
 1282SOL     OW19265   2.189   2.177   0.955 -0.0723 -0.4071 -0.1949
 1282SOL    HW119266   2.159   2.252   0.904 -1.3783 -1.5253 -1.1106
 1282SOL    HW219267   2.180   2.205   1.046  0.0765  0.7802 -0.5372
 1283SOL     OW19268   4.899   4.454   9.014 -0.3505  0.1203  0.0443
 1283SOL    HW119269   4.855   4.537   9.031 -0.7333 -0.0088 -0.3004
 1283SOL    HW219270   4.992   4.473   9.025 -0.4431  0.5708  0.0528
 1284SOL     OW19271   4.268   1.089   9.774  0.1958 -0.2975  0.4302
 1284SOL    HW119272   4.177   1.113   9.793 -0.8837 -1.8958 -2.2540
 1284SOL    HW219273   4.262   1.040   9.692  3.7036  1.0248 -0.6974
 1285SOL     OW19274   0.080   0.178   1.632  1.0499  0.3029 -0.1625
 1285SOL    HW119275   0.032   0.107   1.674 -1.4839  1.4377 -0.9687
 1285SOL    HW219276   0.131   0.136   1.563  1.3112 -0.9670  0.7892
 1286SOL     OW19277   1.677   4.901   3.267  0.1625  0.2419 -0.5110
 1286SOL    HW119278   1.632   4.856   3.195 -1.1832  0.0418  0.4441
 1286SOL    HW219279   1.631   4.985   3.274 -1.3312 -0.7318  1.7254
 1287SOL     OW19280   3.430   3.655  10.840  0.1929 -0.3472  0.0212
 1287SOL    HW119281   3.399   3.596  10.908 -0.4320 -1.3996 -1.1770
 1287SOL    HW219282   3.526   3.650  10.846  0.1688  0.8987  1.9623
 1288SOL     OW19283   4.811   2.854   0.456  0.1469  0.1885 -0.0133
 1288SOL    HW119284   4.725   2.871   0.495  0.2949  1.4422 -0.2086
 1288SOL    HW219285   4.828   2.761   0.475 -0.8918  0.1332  0.7089
 1289SOL     OW19286   2.996   0.439   4.364 -0.4216 -0.2898 -0.2152
 1289SOL    HW119287   3.053   0.413   4.292 -0.2252  1.1264 -0.5992
 1289SOL    HW219288   2.929   0.495   4.323 -0.4753  0.2985  0.6494
 1290SOL     OW19289   4.742   5.639  10.494 -0.2768  0.5219 -0.2695
 1290SOL    HW119290   4.730   5.589  10.413 -0.3793 -1.6046  1.0142
 1290SOL    HW219291   4.837   5.640  10.506 -0.0963  2.9212 -1.6519
 1291SOL     OW19292   2.658   5.251  10.985 -0.3298 -0.4537  0.7201
 1291SOL    HW119293   2.641   5.179  10.923 -1.5384  1.1689 -0.8821
 1291SOL    HW219294   2.750   5.242  11.007 -0.2123 -1.8788 -0.2734
 1292SOL     OW19295   0.029   4.283   2.116  0.3236  0.8124  0.0314
 1292SOL    HW119296  -0.059   4.320   2.121  0.3495  0.9747 -0.6513
 1292SOL    HW219297   0.086   4.351   2.154 -0.2652 -0.8887  4.2087
 1293SOL     OW19298   1.052   4.532  11.449 -0.6623 -0.1062 -0.1945
 1293SOL    HW119299   1.130   4.492  11.410  0.5436  1.4101  0.6091
 1293SOL    HW219300   1.016   4.588  11.381  0.5405  1.3267  0.3379
 1294SOL     OW19301   2.561   1.258   3.303  0.4082  0.0230 -0.1730
 1294SOL    HW119302   2.513   1.317   3.361  0.7865  1.7614 -1.5720
 1294SOL    HW219303   2.622   1.315   3.257 -0.2086 -1.2148 -2.6035
 1295SOL     OW19304   0.400   1.190   2.054 -0.2160  0.0290  0.2005
 1295SOL    HW119305   0.327   1.252   2.062  0.3580  0.7693 -0.2561
 1295SOL    HW219306   0.452   1.224   1.981 -0.1966 -1.3000 -0.4183
 1296SOL     OW19307   4.616   0.718   8.622 -0.4496 -0.3096  0.7768
 1296SOL    HW119308   4.621   0.814   8.626  1.8679 -0.3646  0.0800
 1296SOL    HW219309   4.605   0.699   8.529  0.8567 -0.7596  0.7063
 1297SOL     OW19310   5.041   0.999  10.517 -0.2339 -0.1382 -0.0139
 1297SOL    HW119311   5.022   1.086  10.484 -0.6997 -0.4172 -0.4926
 1297SOL    HW219312   4.955   0.962  10.539  0.0623  0.0735  1.5938
 1298SOL     OW19313   2.360   1.676   7.844 -0.1539 -0.0674  0.2343
 1298SOL    HW119314   2.342   1.607   7.908 -0.8692 -0.6184 -0.5572
 1298SOL    HW219315   2.312   1.650   7.766 -0.5694  1.4128 -0.0244
 1299SOL     OW19316   0.724   5.128   7.871 -0.8958  0.1226 -0.0462
 1299SOL    HW119317   0.629   5.123   7.872 -0.8480 -0.9614  1.0907
 1299SOL    HW219318   0.753   5.042   7.903  0.4597  0.3277 -0.6795
 1300SOL     OW19319   0.278   2.354  12.267 -0.6051 -0.2990 -0.1038
 1300SOL    HW119320   0.212   2.285  12.262  0.0357 -0.8999 -0.3487
 1300SOL    HW219321   0.317   2.355  12.180  0.1845 -0.4218  0.2497
 1301SOL     OW19322   2.790   5.253   4.213 -0.4909 -0.0782  0.2240
 1301SOL    HW119323   2.755   5.304   4.140 -0.7601 -1.2209 -0.4508
 1301SOL    HW219324   2.884   5.245   4.194 -0.2773  0.8931  0.7853
 1302SOL     OW19325   1.876   2.581   3.214 -0.0667 -0.2843 -0.0623
 1302SOL    HW119326   1.841   2.660   3.173 -1.5073 -0.9441 -0.1341
 1302SOL    HW219327   1.917   2.611   3.295  1.3759  0.8189 -1.1599
 1303SOL     OW19328   4.267   1.580   1.901 -0.0355 -0.2163 -0.6119
 1303SOL    HW119329   4.238   1.632   1.977  0.3471  0.6396 -1.0376
 1303SOL    HW219330   4.360   1.563   1.918 -0.5665 -2.3280  0.3960
 1304SOL     OW19331   3.712   1.728   3.374  0.5300 -0.5410  0.3010
 1304SOL    HW119332   3.687   1.700   3.286 -0.7517  0.8242  0.2179
 1304SOL    HW219333   3.777   1.796   3.360  0.8421 -0.8068  0.4357
 1305SOL     OW19334  -0.014   1.797  10.914 -0.0346  0.3991  0.6236
 1305SOL    HW119335   0.071   1.826  10.880  0.4715 -0.0408  1.4844
 1305SOL    HW219336  -0.040   1.866  10.976  0.9238 -0.6947  2.2837
 1306SOL     OW19337   3.068   5.844  12.341 -0.6578  0.0213 -0.3035
 1306SOL    HW119338   3.137   5.787  12.375  0.6159  1.6830 -0.0360
 1306SOL    HW219339   3.087   5.850  12.247 -0.6521  0.1593 -0.2958
 1307SOL     OW19340   5.484   0.845  11.071 -1.0638 -0.2469 -0.8030
 1307SOL    HW119341   5.554   0.909  11.063 -1.7261  0.5934  0.1312
 1307SOL    HW219342   5.530   0.763  11.093 -0.3317  0.1678 -0.7574
 1308SOL     OW19343   2.971   1.724   1.286  0.7415  0.0106  0.3724
 1308SOL    HW119344   3.061   1.726   1.320  0.6533  1.0782  0.5501
 1308SOL    HW219345   2.919   1.769   1.353  0.3821  1.1028 -0.6344
 1309SOL     OW19346   1.324   4.268  11.795 -0.6613  0.4813  0.2145
 1309SOL    HW119347   1.241   4.252  11.749 -1.2582 -2.0163  2.0056
 1309SOL    HW219348   1.297   4.301  11.881  0.1048 -1.6349  1.3067
 1310SOL     OW19349   0.364   1.970   3.278 -0.5603  0.0690  0.1827
 1310SOL    HW119350   0.301   1.973   3.206  0.6735  1.5036 -0.8554
 1310SOL    HW219351   0.322   2.018   3.349 -0.5693  1.2055 -0.5729
 1311SOL     OW19352   2.420   3.675   7.839  0.2523  0.0368 -0.2856
 1311SOL    HW119353   2.502   3.724   7.830 -0.3276  0.7951 -1.5843
 1311SOL    HW219354   2.387   3.667   7.750 -0.3457 -1.5814  0.0624
 1312SOL     OW19355   4.940   1.980   0.219 -0.0543 -0.1903 -0.6328
 1312SOL    HW119356   4.965   1.988   0.311  1.0368  4.9237 -1.2492
 1312SOL    HW219357   5.020   1.953   0.175  0.3078  0.6358 -0.4928
 1313SOL     OW19358   3.724   2.534   3.907 -0.0282  0.1572 -0.1454
 1313SOL    HW119359   3.634   2.534   3.940  0.3608  0.6716  0.9313
 1313SOL    HW219360   3.729   2.610   3.849 -0.8316 -0.9841 -1.7596
 1314SOL     OW19361   2.393   5.341   2.179 -0.1510  1.1257 -0.7150
 1314SOL    HW119362   2.433   5.415   2.133 -0.5121  2.6651  1.3665
 1314SOL    HW219363   2.429   5.346   2.267 -0.5192 -0.9522 -0.4277
 1315SOL     OW19364   3.166   5.248   0.259 -0.4187 -0.0379  0.3632
 1315SOL    HW119365   3.210   5.291   0.332  2.6421 -0.2394 -1.2987
 1315SOL    HW219366   3.145   5.319   0.198 -0.3086 -0.2108  0.1197
 1316SOL     OW19367   2.480   3.856   0.507 -0.1133 -0.0691  0.5753
 1316SOL    HW119368   2.486   3.881   0.415 -2.3792  3.0774  1.1828
 1316SOL    HW219369   2.514   3.932   0.555 -2.4038 -0.1288  2.4187
 1317SOL     OW19370   3.914   3.612   0.604  0.2503  0.4108  0.3448
 1317SOL    HW119371   3.861   3.684   0.637  0.1699 -0.3542  1.9175
 1317SOL    HW219372   3.958   3.576   0.681  0.6734 -0.9114 -0.4844
 1318SOL     OW19373   2.064   4.031   2.634 -0.1586 -0.7276 -0.4499
 1318SOL    HW119374   2.027   4.006   2.718  1.4109  0.2276  0.5381
 1318SOL    HW219375   2.159   4.029   2.647  0.0891  0.4633 -1.8734
 1319SOL     OW19376   4.271   5.120   9.674  0.6180 -0.2565  0.4729
 1319SOL    HW119377   4.344   5.181   9.669  0.3277  0.0085 -0.6737
 1319SOL    HW219378   4.196   5.169   9.639 -0.4719  0.0069  3.0265
 1320SOL     OW19379   1.973   0.457  12.348 -0.5422  0.1396  0.1887
 1320SOL    HW119380   2.001   0.549  12.347  0.6483 -0.2103 -2.0913
 1320SOL    HW219381   2.013   0.421  12.427  2.6648  0.5346 -1.1777
 1321SOL     OW19382   2.913   1.414  10.160  0.3018  0.4023 -0.3248
 1321SOL    HW119383   2.928   1.436  10.252  0.6915  0.5852 -0.4296
 1321SOL    HW219384   2.845   1.476  10.132 -0.1455  0.0411 -0.0335
 1322SOL     OW19385   3.730   5.173   2.155  0.0933  0.3005  0.2930
 1322SOL    HW119386   3.764   5.214   2.076  0.3258 -0.5591 -0.0581
 1322SOL    HW219387   3.760   5.230   2.226 -0.3947  1.2481 -0.2568
 1323SOL     OW19388   1.823   0.279   7.927 -0.5866  0.0774  0.1335
 1323SOL    HW119389   1.864   0.231   7.855 -1.7044 -0.5785 -0.0742
 1323SOL    HW219390   1.785   0.357   7.885  0.5167  0.7380  0.3407
 1324SOL     OW19391   4.022   1.082  10.113 -0.4736  0.6372  0.1469
 1324SOL    HW119392   4.096   1.021  10.114 -0.9319  0.0681 -0.2639
 1324SOL    HW219393   3.991   1.083  10.204  0.7848  1.8150  0.5941
 1325SOL     OW19394   3.098   1.938   2.647  0.2098 -0.1184  0.2458
 1325SOL    HW119395   3.016   1.890   2.631 -0.4566  0.8066  0.8927
 1325SOL    HW219396   3.070   2.025   2.673  1.4137  0.1874  0.5134
 1326SOL     OW19397   1.355   5.727  10.412  0.3334  0.3180 -0.1637
 1326SOL    HW119398   1.412   5.701  10.485 -0.2993 -0.8583 -0.0690
 1326SOL    HW219399   1.338   5.645  10.365 -1.4364  0.6048 -0.0615
 1327SOL     OW19400   4.113   1.992   8.084 -0.0217 -0.1903  0.1148
 1327SOL    HW119401   4.142   1.974   7.995 -0.9002 -0.7555 -0.0728
 1327SOL    HW219402   4.075   1.909   8.114 -3.4727  1.0884 -0.4752
 1328SOL     OW19403   4.266   2.193   8.902 -0.3581  0.1546 -0.3745
 1328SOL    HW119404   4.353   2.195   8.942 -0.5224 -0.2212  0.0148
 1328SOL    HW219405   4.213   2.143   8.964 -0.4353 -1.1067 -1.4489
 1329SOL     OW19406   0.278   0.900   2.191 -0.0286 -0.1016  0.0577
 1329SOL    HW119407   0.308   0.919   2.102 -3.1665  0.7184 -0.8768
 1329SOL    HW219408   0.257   0.806   2.189 -3.6663  0.6332 -1.2688
 1330SOL     OW19409   3.349   4.452   9.959  0.1651  0.2335  0.0784
 1330SOL    HW119410   3.375   4.444  10.051  1.1488  1.4277 -0.0813
 1330SOL    HW219411   3.253   4.454   9.962  0.1952  0.8718  1.1382
 1331SOL     OW19412   0.929   2.334   1.084  0.8043 -0.1458  0.5063
 1331SOL    HW119413   1.016   2.320   1.123  0.2848  0.2709  1.8708
 1331SOL    HW219414   0.929   2.425   1.057  1.2544 -0.5027 -0.7212
 1332SOL     OW19415   3.015   1.914  10.549  0.2437  0.1627 -0.1677
 1332SOL    HW119416   3.044   1.997  10.512 -1.1636 -0.3377 -2.4912
 1332SOL    HW219417   2.958   1.939  10.622 -0.2006  1.2496 -0.8747
 1333SOL     OW19418   2.861   1.784   2.597 -0.2280 -0.4737 -0.6045
 1333SOL    HW119419   2.833   1.747   2.513  1.3740  1.6198 -2.1070
 1333SOL    HW219420   2.779   1.802   2.643 -1.1483 -1.2908 -1.8717
 1334SOL     OW19421   4.868   2.378   1.067 -0.1652 -0.5411  0.4561
 1334SOL    HW119422   4.906   2.463   1.046 -1.6560 -0.0090 -0.1221
 1334SOL    HW219423   4.784   2.399   1.108 -0.9674 -1.7445 -0.5404
 1335SOL     OW19424   0.261   1.200  11.785 -0.0561  0.5718 -0.5695
 1335SOL    HW119425   0.186   1.260  11.778 -0.4390  0.0157 -1.3487
 1335SOL    HW219426   0.329   1.252  11.827 -0.6257  1.3297 -0.5595
 1336SOL     OW19427   2.739   5.933  10.010  0.3901 -0.3666  0.5146
 1336SOL    HW119428   2.753   5.981   9.928  3.0005  0.2013  1.2661
 1336SOL    HW219429   2.766   5.843   9.990  1.4798 -0.1239  0.8754
 1337SOL     OW19430   4.895   1.106  10.877  0.1903  0.5177  0.1246
 1337SOL    HW119431   4.823   1.129  10.935 -0.6222 -0.0677 -0.6395
 1337SOL    HW219432   4.930   1.189  10.847  0.4678  0.8211  1.2661
 1338SOL     OW19433   3.004   0.457   1.204  0.0585 -0.0384  0.4375
 1338SOL    HW119434   3.036   0.426   1.288  0.8539  1.6088  0.7547
 1338SOL    HW219435   3.025   0.387   1.142  1.8528 -0.1110  1.1275
 1339SOL     OW19436   3.318   3.580   0.458  0.0411 -0.2910  0.2084
 1339SOL    HW119437   3.230   3.561   0.491  0.6118 -0.2308  1.8024
 1339SOL    HW219438   3.362   3.495   0.457 -0.4244 -0.5239 -1.8036
 1340SOL     OW19439   4.532   0.430   7.651 -0.1294  0.0831  0.1080
 1340SOL    HW119440   4.483   0.379   7.586  0.1571 -0.6124  0.4255
 1340SOL    HW219441   4.506   0.392   7.735  0.5063  0.0884  0.3127
 1341SOL     OW19442   3.865   2.178   4.109  0.2849  0.7269  0.1904
 1341SOL    HW119443   3.864   2.273   4.104 -1.6247  0.6131 -1.6442
 1341SOL    HW219444   3.798   2.156   4.174  0.3205  0.6026  0.1872
 1342SOL     OW19445   2.521   1.416   2.996 -0.0601  0.1803  0.0884
 1342SOL    HW119446   2.535   1.390   2.905  1.1058 -0.5798  0.4709
 1342SOL    HW219447   2.467   1.495   2.990  0.9181  0.7763 -1.2962
 1343SOL     OW19448   2.161   5.525  11.934  0.0652  0.0378  0.7472
 1343SOL    HW119449   2.177   5.523  11.840  1.3982  0.5734  0.9587
 1343SOL    HW219450   2.200   5.445  11.967 -1.8146 -0.9505  0.6451
 1344SOL     OW19451   5.683   2.726  11.404  0.2532  0.4791 -0.4297
 1344SOL    HW119452   5.635   2.795  11.450  0.7078  0.0615  0.6636
 1344SOL    HW219453   5.775   2.744  11.424  0.3685 -0.4902 -0.0936
 1345SOL     OW19454   3.539   3.693  11.599  0.4581  0.3682  0.2176
 1345SOL    HW119455   3.614   3.646  11.637  0.4182  0.2991  0.2116
 1345SOL    HW219456   3.463   3.651  11.639  0.4582  1.1662  1.0607
 1346SOL     OW19457   5.530   1.671  11.154 -0.0836  0.5308  0.1512
 1346SOL    HW119458   5.524   1.642  11.063 -0.3006  0.0036  0.3317
 1346SOL    HW219459   5.490   1.759  11.154  3.0214  1.9903 -0.9091
 1347SOL     OW19460   4.979   1.820  11.313  0.5594 -0.0718 -0.3581
 1347SOL    HW119461   4.951   1.801  11.223  1.1551 -1.9081 -0.1715
 1347SOL    HW219462   5.044   1.753  11.333  1.1517  0.9061  1.1206
 1348SOL     OW19463   1.299   2.547  10.644  0.5987  0.1313 -0.0233
 1348SOL    HW119464   1.226   2.526  10.585  1.1434 -0.2332 -0.5870
 1348SOL    HW219465   1.348   2.465  10.650  1.6968  0.7157 -0.7089
 1349SOL     OW19466   4.166   0.374   1.112  0.1454  0.3962  0.1161
 1349SOL    HW119467   4.262   0.381   1.106  0.0837  0.9474 -0.2178
 1349SOL    HW219468   4.152   0.315   1.186  0.7406  0.6258  0.4192
 1350SOL     OW19469   5.669   5.204   2.255 -0.2636  0.2095  0.0641
 1350SOL    HW119470   5.664   5.260   2.333  0.0924  1.3715 -0.7203
 1350SOL    HW219471   5.642   5.118   2.285  0.4267  0.5097  1.6073
 1351SOL     OW19472   5.835   0.419   2.513  0.4017  0.6109 -0.3014
 1351SOL    HW119473   5.878   0.336   2.534 -0.9020 -0.3965 -1.5337
 1351SOL    HW219474   5.886   0.455   2.441  0.0913  0.1568 -0.7501
 1352SOL     OW19475   2.416   5.557   9.475 -0.0706  0.5031 -0.2333
 1352SOL    HW119476   2.369   5.604   9.407  0.2582 -0.7054 -1.3144
 1352SOL    HW219477   2.406   5.465   9.452 -0.6531  0.0253  1.8120
 1353SOL     OW19478   4.946   5.591   2.979 -0.1912  0.2407 -0.0785
 1353SOL    HW119479   4.984   5.587   2.891  0.8168  0.6574  0.3359
 1353SOL    HW219480   4.880   5.522   2.979  0.1892 -0.1392 -0.9780
 1354SOL     OW19481   4.616   4.564  12.072 -1.0130  0.4992  0.5140
 1354SOL    HW119482   4.550   4.631  12.052 -1.0196  0.0265 -1.1156
 1354SOL    HW219483   4.683   4.576  12.004 -1.2700 -1.4922 -0.1056
 1355SOL     OW19484   3.152   4.867   8.806  0.6460  0.1408  0.0956
 1355SOL    HW119485   3.109   4.921   8.872 -1.5214  0.0955 -1.2356
 1355SOL    HW219486   3.185   4.928   8.741  2.6123  0.1691  1.0475
 1356SOL     OW19487   3.816   4.710   2.049  0.4449 -0.0047  0.2763
 1356SOL    HW119488   3.747   4.756   2.001 -0.6425 -0.7726  1.0858
 1356SOL    HW219489   3.896   4.731   2.000 -0.4594  0.1957 -1.1749
 1357SOL     OW19490   4.683   0.129   9.458  0.1431  0.0047  0.0680
 1357SOL    HW119491   4.605   0.166   9.501  0.9136  1.7158  0.0614
 1357SOL    HW219492   4.676   0.159   9.367  0.0464 -1.1015 -0.2938
 1358SOL     OW19493   4.015   1.145   8.251  0.0497  0.4161  0.2854
 1358SOL    HW119494   4.064   1.166   8.172  1.7472 -1.6878  0.7298
 1358SOL    HW219495   3.946   1.211   8.255  0.2205  0.8297 -2.6840
 1359SOL     OW19496   1.964   4.135  12.038  0.2857  0.1222 -0.6258
 1359SOL    HW119497   2.056   4.120  12.063  0.2102  0.4013 -0.1677
 1359SOL    HW219498   1.963   4.124  11.943  0.9807  1.0330 -0.7442
 1360SOL     OW19499   3.989   3.977   8.394 -0.2350 -0.3331 -0.3649
 1360SOL    HW119500   4.072   4.008   8.360  0.3069 -0.5830  0.6983
 1360SOL    HW219501   3.968   3.899   8.342  1.4217 -1.7033  0.9732
 1361SOL     OW19502   5.437   5.613   1.660  0.6033 -0.6131 -0.0563
 1361SOL    HW119503   5.458   5.693   1.612  0.1811 -0.3336  0.2155
 1361SOL    HW219504   5.372   5.568   1.606  2.0556 -1.5982 -1.0189
 1362SOL     OW19505   2.110   1.516   8.529 -0.0575 -0.0135  0.2304
 1362SOL    HW119506   2.116   1.515   8.434 -3.4822  1.3236 -0.0756
 1362SOL    HW219507   2.186   1.566   8.558  2.2061 -2.2563 -1.6207
 1363SOL     OW19508   3.379   4.660   3.117 -0.2273  0.3883  0.1111
 1363SOL    HW119509   3.434   4.624   3.186  0.3113 -1.4860 -1.2425
 1363SOL    HW219510   3.346   4.743   3.152  1.3526  0.2590  1.9408
 1364SOL     OW19511   0.629   4.364  11.272  0.2630 -0.6530 -0.1702
 1364SOL    HW119512   0.643   4.459  11.273  0.6780 -0.7145  0.0807
 1364SOL    HW219513   0.712   4.328  11.302  0.1742 -1.1064 -0.4617
 1365SOL     OW19514   4.939   0.851  11.003 -0.3182  0.6484 -0.0229
 1365SOL    HW119515   5.025   0.823  11.035 -0.4346  0.2707 -0.0381
 1365SOL    HW219516   4.946   0.947  10.998  0.4612  0.5592 -1.0358
 1366SOL     OW19517   2.324   1.633   9.388 -0.0967  0.2762  0.4838
 1366SOL    HW119518   2.411   1.646   9.424  0.2724 -0.9653  0.0852
 1366SOL    HW219519   2.321   1.690   9.311 -0.0253  1.1092  1.0897
 1367SOL     OW19520   3.765  -0.006  11.557  0.8312  0.3035 -0.0363
 1367SOL    HW119521   3.771   0.073  11.503 -3.6432  0.5176 -0.4088
 1367SOL    HW219522   3.738   0.025  11.643  3.1905 -0.5146  1.0615
 1368SOL     OW19523  -0.024   3.283  12.113 -0.3559 -0.1355 -0.9333
 1368SOL    HW119524  -0.009   3.210  12.172 -0.6130 -0.0613 -0.7742
 1368SOL    HW219525   0.063   3.312  12.087 -0.1813  1.0436  0.8746
 1369SOL     OW19526   2.420   1.126   1.047  0.0443 -0.0319  0.1573
 1369SOL    HW119527   2.344   1.087   1.090 -0.1168 -1.4001 -1.3144
 1369SOL    HW219528   2.485   1.055   1.046  0.3596  0.2770 -1.0383
 1370SOL     OW19529   2.224   4.046  11.967 -0.5364  0.2507  0.0399
 1370SOL    HW119530   2.239   4.015  11.878  0.1270  0.3017  0.1233
 1370SOL    HW219531   2.304   4.094  11.989 -1.3924  1.6947  0.0497
 1371SOL     OW19532   5.197   5.636  12.380 -0.2807  0.2340 -0.6676
 1371SOL    HW119533   5.237   5.573  12.321  0.3711  0.2396 -0.2311
 1371SOL    HW219534   5.163   5.584  12.452 -0.1792  0.3306 -0.5495
 1372SOL     OW19535   0.250   3.987   3.651 -0.1551 -0.0618 -0.1375
 1372SOL    HW119536   0.162   3.977   3.614  0.5670  0.0940 -1.9974
 1372SOL    HW219537   0.300   4.029   3.581  1.3378  0.0640  0.9848
 1373SOL     OW19538   0.693   5.470   3.511  0.2029  0.3452  0.8963
 1373SOL    HW119539   0.635   5.477   3.435  0.9515 -1.9151  0.0745
 1373SOL    HW219540   0.781   5.465   3.475  0.8143  2.2264  2.0681
 1374SOL     OW19541   2.604   0.583   2.725 -0.3928 -0.3884  0.3527
 1374SOL    HW119542   2.602   0.631   2.808 -0.8100  2.0535 -1.0097
 1374SOL    HW219543   2.517   0.597   2.688  0.0411 -0.8120 -0.8458
 1375SOL     OW19544   4.868   1.966  10.869 -0.2756  0.3266  0.4650
 1375SOL    HW119545   4.876   2.045  10.815  1.4934  0.1055  0.3760
 1375SOL    HW219546   4.776   1.941  10.861 -0.2414  0.7879 -1.7515
 1376SOL     OW19547   1.226   5.790   3.503  0.4968 -0.2863  0.3470
 1376SOL    HW119548   1.231   5.833   3.589  1.5374 -0.9657  0.6362
 1376SOL    HW219549   1.147   5.826   3.463 -0.4203 -0.5153  1.8997
 1377SOL     OW19550   5.473   0.845   3.653 -0.0171  0.4297 -0.3670
 1377SOL    HW119551   5.498   0.935   3.675  0.9412 -0.3038  1.6958
 1377SOL    HW219552   5.432   0.852   3.567 -1.2517  3.0439  0.3749
 1378SOL     OW19553   1.934   3.372   1.577  0.4143 -0.2141  0.2216
 1378SOL    HW119554   2.007   3.376   1.515  0.3219 -1.9344 -0.0322
 1378SOL    HW219555   1.874   3.309   1.538 -0.9447  0.7383  0.7248
 1379SOL     OW19556   1.802   0.622   3.306 -0.2535  0.4097  0.1954
 1379SOL    HW119557   1.793   0.550   3.368  0.5815 -0.0141 -0.1546
 1379SOL    HW219558   1.837   0.694   3.358  2.4573 -0.5850 -0.1774
 1380SOL     OW19559   2.417   4.621   2.014 -0.0621  0.4825  0.2221
 1380SOL    HW119560   2.381   4.558   2.076 -2.2949  0.6745 -0.8253
 1380SOL    HW219561   2.460   4.687   2.069  1.8778 -1.6718  1.3366
 1381SOL     OW19562   0.160   1.370   1.901  0.5605 -0.6318 -0.5428
 1381SOL    HW119563   0.253   1.385   1.885  0.6738 -0.0617  0.5642
 1381SOL    HW219564   0.121   1.457   1.906  0.3289 -0.8020  0.9742
 1382SOL     OW19565   3.169   2.241   1.926 -0.0030 -0.2254  0.3779
 1382SOL    HW119566   3.126   2.162   1.959 -0.2986  0.4830  1.7164
 1382SOL    HW219567   3.141   2.246   1.834 -0.4685 -1.3404  0.4392
 1383SOL     OW19568   5.238   5.063   2.267  0.2248 -0.0790  0.4419
 1383SOL    HW119569   5.202   5.093   2.351  0.1424  1.7241 -0.2162
 1383SOL    HW219570   5.270   5.143   2.224 -1.3479 -0.7152 -2.0224
 1384SOL     OW19571   3.828   4.406  11.590  0.3034 -0.2479  0.4556
 1384SOL    HW119572   3.761   4.338  11.582 -1.3365  1.6377 -2.6920
 1384SOL    HW219573   3.799   4.460  11.664 -2.0702  0.8966 -1.2339
 1385SOL     OW19574   0.240   4.884   2.803  0.1806  0.2139 -1.1363
 1385SOL    HW119575   0.194   4.967   2.817  1.5260  0.9352 -0.8519
 1385SOL    HW219576   0.315   4.907   2.747  1.1973 -0.5890 -0.1332
 1386SOL     OW19577   5.646   1.530   0.180 -0.6037 -0.1796  0.0571
 1386SOL    HW119578   5.722   1.574   0.141 -1.5126  2.3327  0.9806
 1386SOL    HW219579   5.575   1.546   0.118 -0.8652 -0.6802  0.2246
 1387SOL     OW19580   1.011   3.632   1.474  0.0514 -0.1406  0.2980
 1387SOL    HW119581   1.079   3.699   1.463 -2.1075  3.2885  5.6746
 1387SOL    HW219582   1.039   3.583   1.552 -0.4638 -2.9903 -1.2341
 1388SOL     OW19583   5.326   4.826   3.099  0.6815  0.1496  0.5606
 1388SOL    HW119584   5.307   4.796   3.010 -0.2704  0.5290  0.6340
 1388SOL    HW219585   5.370   4.752   3.140  1.9930  0.3017 -0.5187
 1389SOL     OW19586   5.419   1.103   8.135  0.2831 -0.2400  0.0324
 1389SOL    HW119587   5.495   1.055   8.169 -0.9815 -3.0095 -0.8430
 1389SOL    HW219588   5.373   1.038   8.081 -1.1551  2.2185 -1.7726
 1390SOL     OW19589   1.004   4.316  11.010 -0.3823 -0.2022  0.5901
 1390SOL    HW119590   1.088   4.270  11.017 -0.3504 -0.2225  0.1063
 1390SOL    HW219591   1.028   4.408  10.997 -0.4221 -0.4312 -1.1156
 1391SOL     OW19592   4.992   0.182   0.009 -0.6133 -0.5091 -0.0115
 1391SOL    HW119593   4.912   0.144  -0.025 -1.5124 -0.1038  1.5759
 1391SOL    HW219594   5.016   0.127   0.084 -0.5120  0.5121  0.7321
 1392SOL     OW19595   3.363   4.214  11.704 -0.2085  0.9929 -0.0512
 1392SOL    HW119596   3.280   4.243  11.668 -1.3548 -0.4178  1.4031
 1392SOL    HW219597   3.356   4.118  11.710  0.1787  1.1081  3.2351
 1393SOL     OW19598   2.940   4.487   8.113  0.2132  0.2565 -0.2915
 1393SOL    HW119599   2.893   4.406   8.132  0.5946  0.0431 -0.2604
 1393SOL    HW219600   2.992   4.503   8.191  1.0706 -0.1166 -0.7860
 1394SOL     OW19601   5.297   5.935  10.914 -0.1532 -1.0792 -0.1931
 1394SOL    HW119602   5.228   5.972  10.970  0.6090  0.4730 -0.2463
 1394SOL    HW219603   5.271   5.844  10.902 -2.2696 -0.5086 -0.2984
 1395SOL     OW19604   2.519   0.999   0.462  0.1851 -0.4360  0.3785
 1395SOL    HW119605   2.593   1.046   0.424 -0.5389  0.4341  0.0325
 1395SOL    HW219606   2.447   1.061   0.459  0.1211 -0.2810  3.3004
 1396SOL     OW19607   1.445   2.691   0.748 -0.8457  0.2986 -0.5051
 1396SOL    HW119608   1.466   2.636   0.672 -1.4299 -0.5548 -0.0664
 1396SOL    HW219609   1.357   2.724   0.730 -1.5439 -1.0225  0.4231
 1397SOL     OW19610   1.619   1.896   1.336  0.2316  0.5195 -0.4201
 1397SOL    HW119611   1.675   1.900   1.414 -0.9591  2.6738  0.3662
 1397SOL    HW219612   1.564   1.820   1.350 -0.8654  1.6338  1.5038
 1398SOL     OW19613   2.749   4.045  10.008 -0.2204 -0.2377 -0.6314
 1398SOL    HW119614   2.739   4.140  10.015 -1.7902 -0.4640  0.3732
 1398SOL    HW219615   2.749   4.014  10.098 -2.1504 -1.4279 -1.0235
 1399SOL     OW19616   0.091   2.530   1.216  0.4865  0.4330 -0.1228
 1399SOL    HW119617   0.129   2.456   1.262  0.7653  0.0501 -0.9524
 1399SOL    HW219618   0.161   2.596   1.213  0.4172  0.5168  0.1459
 1400SOL     OW19619   4.586   5.390   9.033 -0.7447 -0.5870 -0.2760
 1400SOL    HW119620   4.531   5.331   8.981 -0.7601 -1.5378  0.7977
 1400SOL    HW219621   4.524   5.446   9.079 -0.7172  0.7348 -1.8071
 1401SOL     OW19622   0.129   3.019  10.880  0.2602 -0.0330 -0.0420
 1401SOL    HW119623   0.080   2.977  10.809 -0.8238  0.4258  0.4235
 1401SOL    HW219624   0.103   2.971  10.958 -0.8685  1.3810  0.4741
 1402SOL     OW19625   5.117   5.580  11.594  0.1942 -0.2418 -0.4086
 1402SOL    HW119626   5.141   5.576  11.502  1.1608 -1.3319 -0.1153
 1402SOL    HW219627   5.083   5.669  11.606 -3.2864 -1.1660 -2.6133
 1403SOL     OW19628   3.856   2.916   3.657 -0.1674 -0.1127 -0.5739
 1403SOL    HW119629   3.822   2.904   3.568  0.1249 -0.3440 -0.6609
 1403SOL    HW219630   3.951   2.907   3.646 -0.2278 -1.6724 -0.0067
 1404SOL     OW19631   1.713   1.542  12.419  0.2467 -0.6197  0.2101
 1404SOL    HW119632   1.761   1.538  12.336  1.3195  1.5944  0.6768
 1404SOL    HW219633   1.776   1.516  12.485  0.4065  0.8231  0.6597
 1405SOL     OW19634   3.124   4.673   1.752 -0.1247  0.3375 -0.2607
 1405SOL    HW119635   3.154   4.585   1.730 -0.1812  0.7288 -1.9817
 1405SOL    HW219636   3.088   4.708   1.669  1.8920  2.7973 -0.1594
 1406SOL     OW19637   2.603   0.486  10.502 -0.7685 -0.1168  0.6504
 1406SOL    HW119638   2.671   0.476  10.435  1.0650 -0.0091  2.4435
 1406SOL    HW219639   2.556   0.566  10.478  0.0936  0.1005 -0.3209
 1407SOL     OW19640   1.998   3.275  12.285 -0.0009 -0.5838 -0.5566
 1407SOL    HW119641   2.034   3.285  12.373  0.1153 -0.0732 -0.6547
 1407SOL    HW219642   1.909   3.242  12.298  0.3595 -1.4399 -0.2897
 1408SOL     OW19643   5.205   1.958   0.440 -0.2657  0.1513  0.1230
 1408SOL    HW119644   5.281   1.904   0.464 -0.6716 -0.3709  0.2493
 1408SOL    HW219645   5.132   1.896   0.437 -0.3235  0.2827 -1.9974
 1409SOL     OW19646   5.397   5.250   8.303 -0.1544 -0.8874  0.6893
 1409SOL    HW119647   5.352   5.334   8.312  0.1315 -0.5180 -1.1868
 1409SOL    HW219648   5.488   5.269   8.325 -0.1789 -0.8150  0.7309
 1410SOL     OW19649   2.179   5.208   3.753 -0.2453 -0.0202 -0.4156
 1410SOL    HW119650   2.259   5.163   3.782  0.8089  1.0387 -1.6388
 1410SOL    HW219651   2.109   5.164   3.801  0.8655 -2.2766 -0.7919
 1411SOL     OW19652   4.280   3.867   7.736  0.1706 -0.3235 -0.5705
 1411SOL    HW119653   4.317   3.872   7.824 -0.2445 -1.5693 -0.3200
 1411SOL    HW219654   4.188   3.843   7.750  0.2011 -0.9286 -1.3624
 1412SOL     OW19655   0.573   2.424   8.913  0.5734 -0.0809 -0.8205
 1412SOL    HW119656   0.539   2.362   8.977  0.6307 -1.4447 -2.0862
 1412SOL    HW219657   0.662   2.444   8.942 -1.2717  3.7659  2.7071
 1413SOL     OW19658   4.130   4.606   2.870 -0.0035  0.3705 -0.4655
 1413SOL    HW119659   4.071   4.643   2.935 -0.3815  0.9139 -1.1037
 1413SOL    HW219660   4.076   4.596   2.792  0.2925 -0.8268 -0.5289
 1414SOL     OW19661   2.168   3.441   2.268 -0.4031  0.1581 -0.4084
 1414SOL    HW119662   2.120   3.359   2.269 -1.2411  0.6529  0.9180
 1414SOL    HW219663   2.101   3.509   2.265  0.1702  0.8601  1.6811
 1415SOL     OW19664   0.354   0.946   2.495  0.9348  0.8193  0.7098
 1415SOL    HW119665   0.334   0.895   2.416  0.0012 -0.4892  1.7546
 1415SOL    HW219666   0.382   1.031   2.462  0.4912  0.3227 -1.0302
 1416SOL     OW19667   1.750   0.452  10.026  0.2589 -0.2044 -0.3469
 1416SOL    HW119668   1.731   0.466   9.933 -2.6482 -0.2380  0.1932
 1416SOL    HW219669   1.664   0.440  10.066  1.3990  0.8434  2.5188
 1417SOL     OW19670   0.160   3.823   8.697  0.9851  0.0778  0.5856
 1417SOL    HW119671   0.186   3.893   8.757 -2.0148  0.3921  1.5835
 1417SOL    HW219672   0.203   3.745   8.733  1.2056  0.7104  1.7306
 1418SOL     OW19673   0.843   1.391  10.065 -0.2467  0.3339  0.1303
 1418SOL    HW119674   0.855   1.485  10.059  0.9041  0.1816 -0.0687
 1418SOL    HW219675   0.928   1.354  10.040 -0.3092 -0.7180  1.3973
 1419SOL     OW19676   1.651   0.096   7.995  0.6280 -0.1182  0.3852
 1419SOL    HW119677   1.717   0.165   7.985  0.3649 -0.0446 -1.0212
 1419SOL    HW219678   1.652   0.050   7.911  0.6634 -1.7236  1.2457
 1420SOL     OW19679   3.037   2.834  12.416  0.1905 -0.2321 -0.5818
 1420SOL    HW119680   3.006   2.925  12.416  1.9458  0.4003 -2.4817
 1420SOL    HW219681   2.987   2.792  12.346  0.8797 -0.1837 -1.1066
 1421SOL     OW19682   2.633   0.824  10.039  0.3938 -0.7282  0.0526
 1421SOL    HW119683   2.576   0.900  10.031  1.1635 -0.2164 -0.5936
 1421SOL    HW219684   2.577   0.750  10.014 -0.2243 -0.3330  0.2520
 1422SOL     OW19685   5.894   1.749   3.119 -0.3113  0.1893 -0.7957
 1422SOL    HW119686   5.802   1.725   3.114 -0.6765  1.0542  1.2480
 1422SOL    HW219687   5.927   1.703   3.197  0.4120  1.6493 -0.2141
 1423SOL     OW19688   1.763   4.331   4.259 -0.6880 -0.5719 -0.0384
 1423SOL    HW119689   1.834   4.316   4.321 -0.1802 -3.7875 -1.2745
 1423SOL    HW219690   1.796   4.296   4.176 -2.0637  1.9371 -1.6979
 1424SOL     OW19691   2.169   4.921   3.121 -0.6744  0.1711  0.0420
 1424SOL    HW119692   2.235   4.893   3.185 -1.0013 -0.2852  0.1832
 1424SOL    HW219693   2.090   4.934   3.173 -0.8415  0.1688 -0.2106
 1425SOL     OW19694   5.164   0.803  10.636  0.7926  0.0482  0.3434
 1425SOL    HW119695   5.234   0.777  10.576  1.2937 -0.8098  1.2897
 1425SOL    HW219696   5.120   0.877  10.592  0.9658 -0.7575 -1.1989
 1426SOL     OW19697   5.838   2.475   2.849  0.1015 -0.3675  0.2807
 1426SOL    HW119698   5.891   2.414   2.797  0.7924  0.1297  0.3911
 1426SOL    HW219699   5.898   2.546   2.872 -0.8171  0.6057 -0.2670
 1427SOL     OW19700   5.430   1.100   0.153  0.0053 -0.0819 -0.3610
 1427SOL    HW119701   5.438   1.055   0.070 -1.1040  1.6020 -1.4169
 1427SOL    HW219702   5.350   1.153   0.144 -0.8200 -0.8188  2.2098
 1428SOL     OW19703   2.908   5.108  12.227  0.3727 -0.4795 -0.2227
 1428SOL    HW119704   2.839   5.043  12.239  0.0456 -0.2873 -1.0714
 1428SOL    HW219705   2.985   5.069  12.268 -0.2039 -0.7522  0.6066
 1429SOL     OW19706   1.251   4.784  11.106  0.3736 -0.2159  1.0280
 1429SOL    HW119707   1.266   4.783  11.201  0.4012 -1.0961  1.0106
 1429SOL    HW219708   1.326   4.740  11.069  1.9719  2.9144  0.3479
 1430SOL     OW19709   5.661   3.849   9.329 -0.2249 -0.8079 -0.0270
 1430SOL    HW119710   5.648   3.942   9.308  0.7148 -0.6753 -0.0177
 1430SOL    HW219711   5.700   3.849   9.416 -0.1402 -1.2158 -0.0625
 1431SOL     OW19712   0.992   4.452  12.106  0.6927 -0.5533 -0.0871
 1431SOL    HW119713   0.966   4.516  12.173 -0.7723  0.3417 -1.4756
 1431SOL    HW219714   1.087   4.462  12.099  0.8106 -0.3500  1.5333
 1432SOL     OW19715   3.074   5.335   1.030  0.6139 -0.3820 -0.6231
 1432SOL    HW119716   2.999   5.367   0.978 -1.6471 -1.9828  1.5599
 1432SOL    HW219717   3.088   5.403   1.095  1.0383 -0.1002 -1.0077
 1433SOL     OW19718   5.017   5.079   9.023 -0.1040 -0.9416  0.1797
 1433SOL    HW119719   5.052   5.123   8.946 -1.4246  0.1789  0.2010
 1433SOL    HW219720   5.055   4.991   9.021 -1.7243 -1.6175 -2.8670
 1434SOL     OW19721   1.280   5.160   0.674  0.4331  0.0937  0.3131
 1434SOL    HW119722   1.272   5.219   0.598 -2.6356  0.1498  0.6038
 1434SOL    HW219723   1.214   5.191   0.736  0.2728 -2.2707  1.4087
 1435SOL     OW19724   5.344   4.487   1.896  0.1112  0.4585  0.3694
 1435SOL    HW119725   5.270   4.426   1.905 -0.7902  1.3366 -0.8192
 1435SOL    HW219726   5.367   4.511   1.986 -0.4962 -0.4978  0.7811
 1436SOL     OW19727   2.758   4.870   1.043  0.2670  0.1321  0.6186
 1436SOL    HW119728   2.721   4.939   1.098 -0.4190  0.1315  0.1588
 1436SOL    HW219729   2.742   4.900   0.954  1.6354  0.2774  0.4116
 1437SOL     OW19730   0.332   3.355   3.557  0.6267 -0.7864 -0.5212
 1437SOL    HW119731   0.350   3.395   3.472  1.0054  1.6798  0.7050
 1437SOL    HW219732   0.414   3.313   3.582  0.5586 -1.3916 -1.2911
 1438SOL     OW19733   1.786   5.823   9.783 -0.2412  0.0702  0.2086
 1438SOL    HW119734   1.786   5.740   9.830  0.0225 -0.3651 -0.5468
 1438SOL    HW219735   1.720   5.812   9.715 -0.0156  0.3826 -0.0625
 1439SOL     OW19736   1.934   5.577   2.381 -0.2413 -0.0797  0.0408
 1439SOL    HW119737   1.963   5.544   2.296 -1.0030 -0.2153 -0.1656
 1439SOL    HW219738   1.927   5.500   2.436 -1.2468 -0.1777 -0.2139
 1440SOL     OW19739   4.464   3.342   1.938  0.3691 -0.4193 -0.7375
 1440SOL    HW119740   4.523   3.375   1.869  0.6381 -0.9021 -0.7445
 1440SOL    HW219741   4.381   3.385   1.921  0.2762 -0.9611 -1.7131
 1441SOL     OW19742   1.754   3.130  10.814  0.8744 -0.1942 -0.6895
 1441SOL    HW119743   1.846   3.144  10.789  0.8051  4.6202  1.1540
 1441SOL    HW219744   1.705   3.174  10.745  0.1562  0.6013  0.3132
 1442SOL     OW19745   5.891   1.633   1.513  0.6837  0.4685  0.4225
 1442SOL    HW119746   5.985   1.616   1.520  0.3850 -2.1505 -0.9417
 1442SOL    HW219747   5.850   1.554   1.548 -1.0308  1.6186  1.0855
 1443SOL     OW19748   0.883   4.420   4.038  0.2502 -0.2694  0.1612
 1443SOL    HW119749   0.869   4.484   4.107 -0.3253 -1.0861  0.8004
 1443SOL    HW219750   0.807   4.429   3.980 -0.0021 -0.6167  0.4379
 1444SOL     OW19751   1.272   0.440  10.842 -0.0865  0.1423 -0.4435
 1444SOL    HW119752   1.347   0.412  10.896 -0.2347 -0.4872 -0.5578
 1444SOL    HW219753   1.303   0.518  10.797  0.5682 -0.2110 -0.6216
 1445SOL     OW19754   1.115   5.489   0.698  0.8207  0.6927 -0.1885
 1445SOL    HW119755   1.207   5.503   0.720  0.3725  0.3021  2.0914
 1445SOL    HW219756   1.083   5.576   0.673  1.5762  1.0095 -0.0582
 1446SOL     OW19757   4.699   4.470  10.191  0.0363  0.4721 -0.0691
 1446SOL    HW119758   4.747   4.508  10.264 -0.3336 -1.9085  1.4595
 1446SOL    HW219759   4.608   4.497  10.205 -0.0558 -0.0769  0.4555
 1447SOL     OW19760   3.542   2.478   8.112 -0.4249  0.7408 -0.2169
 1447SOL    HW119761   3.505   2.461   8.026 -1.2706  1.8078 -0.0742
 1447SOL    HW219762   3.548   2.391   8.153 -0.6854  0.3117 -1.0703
 1448SOL     OW19763   1.199   4.290  12.253 -0.0581  0.3024  0.2345
 1448SOL    HW119764   1.251   4.347  12.196  0.3310 -0.6184 -0.3429
 1448SOL    HW219765   1.255   4.214  12.269 -0.4639  0.2051  1.2233
 1449SOL     OW19766   4.286   2.653   2.701 -0.3131 -0.4070 -0.0523
 1449SOL    HW119767   4.248   2.609   2.778  0.1640  1.1036  1.0795
 1449SOL    HW219768   4.229   2.627   2.628 -1.0868 -1.4480  0.9034
 1450SOL     OW19769   2.240   5.646   8.556  0.3238  0.4081 -0.4646
 1450SOL    HW119770   2.260   5.554   8.538  1.1303  0.4033  0.4484
 1450SOL    HW219771   2.270   5.693   8.478  1.9509  0.1543  0.0043
 1451SOL     OW19772   0.783   2.890   8.109 -0.2543  0.3030 -0.0764
 1451SOL    HW119773   0.851   2.831   8.143 -2.7319 -1.4727  1.9228
 1451SOL    HW219774   0.799   2.973   8.155 -0.3203 -0.5434  1.5129
 1452SOL     OW19775   3.193   2.066   8.612  0.2309 -0.2125 -0.1256
 1452SOL    HW119776   3.150   2.039   8.694  0.4621 -0.6916 -0.1599
 1452SOL    HW219777   3.130   2.042   8.544  1.2747 -2.5569 -0.3251
 1453SOL     OW19778   1.879   1.823   8.165 -0.2474 -0.6371 -0.3534
 1453SOL    HW119779   1.820   1.763   8.120  1.0167 -0.4371 -2.3592
 1453SOL    HW219780   1.859   1.909   8.128 -1.2196  0.0364  1.6367
 1454SOL     OW19781   0.045   5.902  10.902 -0.2340  0.3603 -0.4254
 1454SOL    HW119782  -0.013   5.969  10.866  0.8140  1.0583 -0.8379
 1454SOL    HW219783   0.096   5.947  10.969  1.4161  0.3389 -1.6156
 1455SOL     OW19784   0.385   2.391   2.379 -0.1255 -0.2413 -0.0928
 1455SOL    HW119785   0.371   2.350   2.464 -0.0363 -2.4668 -1.1355
 1455SOL    HW219786   0.333   2.472   2.383 -2.3229 -1.6685  1.0893
 1456SOL     OW19787   1.414   2.244  12.437  0.0661  0.5623  0.4902
 1456SOL    HW119788   1.454   2.291  12.364  1.8377  2.2192  2.4644
 1456SOL    HW219789   1.474   2.173  12.456 -0.9914 -0.5914 -0.4002
 1457SOL     OW19790   5.273   2.673  12.181  0.7443  0.6911  0.7408
 1457SOL    HW119791   5.259   2.744  12.118  1.1849 -0.0433 -0.2041
 1457SOL    HW219792   5.345   2.622  12.143  1.3612  0.5296  2.1083
 1458SOL     OW19793   2.381   5.655   3.074 -0.1068 -0.0526  0.1764
 1458SOL    HW119794   2.357   5.627   3.163 -2.5786 -0.5532 -0.6124
 1458SOL    HW219795   2.408   5.747   3.085 -2.2421  0.4972  1.1807
 1459SOL     OW19796   2.086   4.138  11.486 -0.6615 -0.4852  0.1742
 1459SOL    HW119797   2.080   4.209  11.550 -0.2211 -0.1733 -0.1197
 1459SOL    HW219798   2.099   4.183  11.402 -0.9199 -0.8984 -0.0891
 1460SOL     OW19799   1.938   4.660   7.858  0.5073 -0.1455 -0.0324
 1460SOL    HW119800   1.928   4.655   7.763  1.5696 -0.3463 -0.1391
 1460SOL    HW219801   1.917   4.573   7.889 -0.0591 -0.0234 -0.0557
 1461SOL     OW19802   1.944   1.356   0.803  0.0317  0.3800  0.2286
 1461SOL    HW119803   1.885   1.312   0.865  1.2060 -1.4571  0.1062
 1461SOL    HW219804   1.888   1.419   0.757 -1.3045  0.3325  1.7300
 1462SOL     OW19805   3.687   0.572  11.107 -0.3817  0.7420 -0.3452
 1462SOL    HW119806   3.683   0.570  11.011 -0.3777  1.0093 -0.3529
 1462SOL    HW219807   3.604   0.532  11.135 -0.3685  0.6310 -0.4602
 1463SOL     OW19808   4.812   2.071   1.351  0.9552 -0.0128 -0.2905
 1463SOL    HW119809   4.767   2.002   1.303  1.3036 -0.8289  0.5248
 1463SOL    HW219810   4.890   2.028   1.387  1.6894  1.0505 -0.5904
 1464SOL     OW19811   4.063   2.899  11.725 -0.2954  0.1598 -0.4794
 1464SOL    HW119812   4.042   2.990  11.747 -0.1638  0.1361 -0.2529
 1464SOL    HW219813   4.015   2.847  11.789  0.5539  0.1063  0.1223
 1465SOL     OW19814   4.618   1.467   2.918  0.0427 -0.2041  0.0655
 1465SOL    HW119815   4.656   1.393   2.871  0.2982 -0.5373  0.7876
 1465SOL    HW219816   4.537   1.433   2.955 -0.4083  0.1933 -0.5346
 1466SOL     OW19817   0.446   3.123  12.053 -0.3052  0.3475 -0.2451
 1466SOL    HW119818   0.474   3.113  12.144  1.3437  0.6519 -0.6945
 1466SOL    HW219819   0.388   3.200  12.054 -2.4847 -1.2588  0.9742
 1467SOL     OW19820   4.348   3.419  11.917  0.1454 -0.2833 -0.2387
 1467SOL    HW119821   4.379   3.505  11.944 -1.1891 -0.1518  0.8969
 1467SOL    HW219822   4.281   3.437  11.852  0.7913 -0.5140 -0.9832
 1468SOL     OW19823   0.922   4.392   0.888  0.0941  0.5311  0.2248
 1468SOL    HW119824   0.895   4.300   0.892  2.7701 -0.2965 -0.2311
 1468SOL    HW219825   0.965   4.408   0.972 -0.1700  1.3304  0.2137
 1469SOL     OW19826   4.702   0.125   1.916  0.2889 -0.3528  0.1201
 1469SOL    HW119827   4.647   0.185   1.966  0.1324  1.1120 -1.7801
 1469SOL    HW219828   4.761   0.087   1.981 -1.7045 -0.5611  1.8826
 1470SOL     OW19829   2.953   1.411   2.459 -0.0035 -0.5618  0.0670
 1470SOL    HW119830   2.999   1.446   2.535  3.2439 -2.2744 -1.0114
 1470SOL    HW219831   2.900   1.339   2.494 -0.4196  0.2124  1.0535
 1471SOL     OW19832   4.038   5.276  10.012  0.1319  0.6161 -0.1882
 1471SOL    HW119833   4.045   5.206  10.077 -0.6586 -0.2977 -1.0802
 1471SOL    HW219834   4.125   5.315  10.011  0.7990 -0.8126 -0.1790
 1472SOL     OW19835   2.165   4.682   1.859  0.1251 -0.6082  0.4914
 1472SOL    HW119836   2.227   4.630   1.910  0.7563 -0.8601 -0.5277
 1472SOL    HW219837   2.150   4.760   1.913  1.3638 -0.5242  0.7252
 1473SOL     OW19838   0.805   2.388   9.075 -0.5562  0.1268 -0.8518
 1473SOL    HW119839   0.876   2.324   9.071 -1.1211 -0.5005 -0.9404
 1473SOL    HW219840   0.744   2.353   9.141 -1.1711  0.2600 -1.3441
 1474SOL     OW19841   0.240   5.295  10.162  0.1463 -0.4542 -0.3554
 1474SOL    HW119842   0.186   5.218  10.179 -0.9186  0.4712  0.5144
 1474SOL    HW219843   0.289   5.308  10.243 -1.8801  1.5136  0.6109
 1475SOL     OW19844   3.240   2.729  10.650  0.0787  0.3259  0.0884
 1475SOL    HW119845   3.208   2.673  10.721 -0.5389  0.4317 -0.1043
 1475SOL    HW219846   3.200   2.814  10.666 -3.7267 -0.7801 -2.9071
 1476SOL     OW19847   1.488   1.568   1.665 -0.1809  0.0833 -0.0667
 1476SOL    HW119848   1.537   1.641   1.704 -0.3695 -1.4921  3.2937
 1476SOL    HW219849   1.398   1.581   1.695 -0.5639 -0.5938 -0.9034
 1477SOL     OW19850   0.749   1.007   2.548 -0.3857 -0.4807  0.4634
 1477SOL    HW119851   0.709   0.941   2.491 -0.1313 -1.2336  1.1548
 1477SOL    HW219852   0.791   1.069   2.487  0.0035 -1.3513 -0.1620
 1478SOL     OW19853   0.085   1.743   8.284  0.0102  0.1716 -0.1051
 1478SOL    HW119854   0.117   1.653   8.286  0.0664  0.1915 -0.0992
 1478SOL    HW219855   0.004   1.738   8.234  1.3596  0.5546 -2.3857
 1479SOL     OW19856   2.277   4.914  11.391 -0.0177  0.0968 -0.3869
 1479SOL    HW119857   2.212   4.867  11.339 -0.6418 -0.1416  0.5863
 1479SOL    HW219858   2.354   4.857  11.390 -1.2901 -1.7557  2.1038
 1480SOL     OW19859   1.363   4.839   1.815  0.0124  0.0397 -0.3571
 1480SOL    HW119860   1.270   4.817   1.809 -0.0381  0.4972 -1.2488
 1480SOL    HW219861   1.365   4.921   1.865  0.2145 -2.0111  3.2108
 1481SOL     OW19862   2.291   4.702   0.657  0.2355  0.0679 -0.0426
 1481SOL    HW119863   2.332   4.736   0.577  0.8856  1.5359  0.8883
 1481SOL    HW219864   2.244   4.777   0.693  1.9062  0.0850  2.2023
 1482SOL     OW19865   5.286   1.116  10.239  0.0671 -0.4962 -0.4418
 1482SOL    HW119866   5.342   1.043  10.266  0.7759 -0.0118 -0.5900
 1482SOL    HW219867   5.201   1.098  10.280  0.7048 -0.5509  0.8778
 1483SOL     OW19868   4.335   1.058  10.274 -0.0714 -0.5347  0.5731
 1483SOL    HW119869   4.379   1.063  10.359  1.2319  0.8138 -0.1635
 1483SOL    HW219870   4.370   1.131  10.224 -1.5356 -0.7406 -0.8153
 1484SOL     OW19871   1.815   2.900   9.237  0.3051 -0.3726  0.3935
 1484SOL    HW119872   1.850   2.857   9.315  0.6928 -0.3753  0.2208
 1484SOL    HW219873   1.768   2.830   9.190  0.0134 -0.3545  0.6558
 1485SOL     OW19874   3.058   0.250   1.034  0.1752  0.3903 -0.6847
 1485SOL    HW119875   3.104   0.209   0.961  0.3120 -0.9627  0.1352
 1485SOL    HW219876   3.002   0.180   1.068 -1.3882  1.5887 -0.7533
 1486SOL     OW19877   5.087   1.592  11.644  0.5985 -0.3605 -0.0625
 1486SOL    HW119878   5.019   1.543  11.597 -0.0243 -0.1629  0.6272
 1486SOL    HW219879   5.158   1.601  11.580 -0.0884 -0.4281 -0.8480
 1487SOL     OW19880   2.997  -0.001   2.537  0.0253  0.0872  0.0946
 1487SOL    HW119881   2.964   0.029   2.452 -0.7563  0.8485  0.6507
 1487SOL    HW219882   2.936   0.036   2.600  1.6443  1.0661  1.1263
 1488SOL     OW19883   3.212   2.297   2.454 -0.3657 -0.9194 -0.3816
 1488SOL    HW119884   3.248   2.211   2.476 -0.2747 -0.8531 -0.2675
 1488SOL    HW219885   3.256   2.321   2.372 -0.9553 -1.3154 -0.8130
 1489SOL     OW19886   0.293   3.065   2.168 -0.4933  0.0147  0.4073
 1489SOL    HW119887   0.198   3.080   2.161 -0.0810  2.2395 -0.8545
 1489SOL    HW219888   0.307   2.981   2.124 -1.5664  0.8734 -1.6618
 1490SOL     OW19889   3.583   1.432   9.225 -0.6145  0.3168 -0.0067
 1490SOL    HW119890   3.539   1.347   9.216  1.0689 -0.5305 -0.3840
 1490SOL    HW219891   3.555   1.465   9.310  2.2455 -2.7072  2.2279
 1491SOL     OW19892   5.293   0.923   9.051  0.1797  0.0906  0.3576
 1491SOL    HW119893   5.368   0.936   8.993 -1.0951  0.6718 -1.2017
 1491SOL    HW219894   5.314   0.975   9.129  0.5198  1.8414 -0.8738
 1492SOL     OW19895   5.342   2.530  11.201  0.0017 -0.0368  0.2710
 1492SOL    HW119896   5.291   2.610  11.205 -0.6874 -0.4230 -0.5369
 1492SOL    HW219897   5.279   2.460  11.216  0.3237 -0.5103 -0.5361
 1493SOL     OW19898   0.516   4.683  11.667  0.4993  0.2945 -0.4450
 1493SOL    HW119899   0.479   4.744  11.731  0.9989  0.1670 -0.0305
 1493SOL    HW219900   0.473   4.599  11.686  0.7741  0.2176 -0.1706
 1494SOL     OW19901   3.299   5.412  12.396 -0.2361 -0.0862 -0.0028
 1494SOL    HW119902   3.254   5.330  12.374  0.4654 -1.0652  2.1056
 1494SOL    HW219903   3.387   5.401  12.360 -0.0546 -0.3734  0.5279
 1495SOL     OW19904   1.537   4.315   2.134 -0.2565  0.4602  0.0341
 1495SOL    HW119905   1.470   4.328   2.202 -1.6741 -1.9432 -0.8024
 1495SOL    HW219906   1.540   4.220   2.122  3.2114  0.5303 -0.1175
 1496SOL     OW19907   1.675   2.452   1.366 -0.6863  0.2902 -0.0404
 1496SOL    HW119908   1.594   2.402   1.375 -0.4020  0.1214  1.8702
 1496SOL    HW219909   1.656   2.537   1.406 -0.0587  0.4119  0.0154
 1497SOL     OW19910   0.059   5.154   3.165  0.0802 -0.1267  0.4077
 1497SOL    HW119911   0.145   5.168   3.204  1.3911 -4.0817 -0.7973
 1497SOL    HW219912   0.012   5.101   3.230 -1.6480  2.3318  1.2333
 1498SOL     OW19913   3.971   3.866   2.600  0.2566 -0.2809  0.0740
 1498SOL    HW119914   4.032   3.927   2.559  1.4596 -1.3630  0.2405
 1498SOL    HW219915   3.886   3.909   2.592  0.8732  0.7482 -1.1068
 1499SOL     OW19916   0.377   4.482   8.853 -0.8648  0.2127  0.0423
 1499SOL    HW119917   0.335   4.567   8.845 -0.6761  0.1900 -1.3246
 1499SOL    HW219918   0.415   4.482   8.941 -2.5638  0.7502  0.8062
 1500SOL     OW19919   5.000   3.848   9.414  0.3627 -0.1554  0.6453
 1500SOL    HW119920   4.947   3.867   9.336  0.4523  0.5269  0.7395
 1500SOL    HW219921   5.035   3.934   9.440  0.2016 -0.3540  1.5323
 1501SOL     OW19922   0.546   2.968   8.875  0.2534  0.3509  0.4757
 1501SOL    HW119923   0.510   2.974   8.963 -0.6623  0.8233  0.0710
 1501SOL    HW219924   0.477   3.001   8.818 -0.1803 -2.4748 -0.6835
 1502SOL     OW19925   5.867   0.211  10.373  0.3478 -0.4169 -0.1485
 1502SOL    HW119926   5.772   0.203  10.382  0.3189 -0.7179 -0.6669
 1502SOL    HW219927   5.879   0.235  10.281  0.8201 -1.1138 -0.2692
 1503SOL     OW19928   2.380   5.110  10.748 -0.7187  0.1084 -0.2959
 1503SOL    HW119929   2.439   5.044  10.786 -2.2590 -0.0314  1.9124
 1503SOL    HW219930   2.437   5.163  10.692  1.0538 -1.4398 -0.0200
 1504SOL     OW19931   4.621   3.909  11.205 -0.0149  0.2399 -0.4482
 1504SOL    HW119932   4.705   3.926  11.246 -0.5253  3.1910 -0.5518
 1504SOL    HW219933   4.620   3.964  11.127 -1.6776 -0.4612 -0.9536
 1505SOL     OW19934   5.590   5.020   3.135  0.0475  0.0153  0.3658
 1505SOL    HW119935   5.679   5.017   3.099  0.5392 -0.7451  1.5916
 1505SOL    HW219936   5.557   4.931   3.125 -1.3177  0.7463 -1.8549
 1506SOL     OW19937   1.717   1.585   9.015  0.3265 -0.6501 -0.0341
 1506SOL    HW119938   1.701   1.661   9.070 -0.7683 -0.6679 -0.3110
 1506SOL    HW219939   1.666   1.601   8.935  2.0861 -0.5180 -1.1485
 1507SOL     OW19940   5.203   1.192   2.236 -0.2895 -0.1386  0.2226
 1507SOL    HW119941   5.170   1.115   2.190 -0.4772  0.4472 -0.6231
 1507SOL    HW219942   5.261   1.235   2.173 -0.8932  0.9061  0.3684
 1508SOL     OW19943   5.589   1.756   8.591  0.0436  0.5808 -0.1909
 1508SOL    HW119944   5.615   1.752   8.683  0.3746 -0.7124 -0.3249
 1508SOL    HW219945   5.598   1.666   8.560 -1.1016  0.7983 -1.2052
 1509SOL     OW19946   0.185   0.928  12.055 -0.0132 -0.1988 -0.1090
 1509SOL    HW119947   0.152   1.015  12.075 -0.5443  0.0522 -1.9826
 1509SOL    HW219948   0.218   0.895  12.138  2.6853  2.8440  0.1294
 1510SOL     OW19949   1.968   4.487   3.988  0.1394  0.2541 -0.0124
 1510SOL    HW119950   2.028   4.562   3.987 -0.3159  0.6447  0.7931
 1510SOL    HW219951   2.005   4.428   4.054 -0.4321  0.5570  0.5827
 1511SOL     OW19952   0.887   3.019   8.414 -0.1228 -0.7562  0.1564
 1511SOL    HW119953   0.943   2.943   8.434  1.4746 -0.4158 -2.7321
 1511SOL    HW219954   0.799   2.990   8.437  0.6866 -2.8424  0.7977
 1512SOL     OW19955   1.400   0.979   4.351 -0.0641 -0.5802  0.4229
 1512SOL    HW119956   1.319   0.989   4.402  0.7094  0.9360  1.4055
 1512SOL    HW219957   1.432   1.069   4.341  0.7979 -1.0532 -1.1049
 1513SOL     OW19958   1.247   0.135  11.068  0.4482 -1.0456 -0.8220
 1513SOL    HW119959   1.198   0.082  11.005  0.5467  0.4523 -2.1933
 1513SOL    HW219960   1.328   0.157  11.023  1.2088 -1.2560  0.4225
 1514SOL     OW19961   2.023   2.993   0.227 -0.4916 -0.1918 -0.2570
 1514SOL    HW119962   2.074   3.059   0.275  0.6864  0.9450 -2.9188
 1514SOL    HW219963   1.938   3.035   0.212 -0.1349  0.3059 -0.9497
 1515SOL     OW19964   0.010   5.466  10.103  0.0322  0.0429  0.1686
 1515SOL    HW119965   0.090   5.415  10.106 -0.2290 -0.3371  0.9882
 1515SOL    HW219966  -0.011   5.474  10.010  1.8569  1.4703 -0.1402
 1516SOL     OW19967   1.484   0.044   8.181  0.0170 -0.3373  0.1984
 1516SOL    HW119968   1.527   0.103   8.243  0.4926  0.1236 -0.5651
 1516SOL    HW219969   1.534   0.054   8.100  1.9009 -3.9091  0.8202
 1517SOL     OW19970   0.790   3.453   3.833 -0.0349 -0.1940  0.7095
 1517SOL    HW119971   0.718   3.446   3.896  0.3686 -2.9756  0.9234
 1517SOL    HW219972   0.819   3.363   3.819  1.4740  0.6007 -1.6384
 1518SOL     OW19973   1.059   4.153   3.583  0.1594 -0.0184  0.4964
 1518SOL    HW119974   1.143   4.198   3.581  0.9614 -1.4715  0.8437
 1518SOL    HW219975   1.040   4.141   3.676 -1.0297  1.3683  0.4531
 1519SOL     OW19976   3.699   0.754  10.481 -0.6077  0.2973 -0.2449
 1519SOL    HW119977   3.787   0.716  10.475 -0.7806  0.1699 -2.1345
 1519SOL    HW219978   3.708   0.823  10.546  0.7082 -0.2102  0.1453
 1520SOL     OW19979   1.664   2.167   4.098 -0.2356 -0.3582  0.5924
 1520SOL    HW119980   1.641   2.223   4.172  0.6552  1.7945 -0.7200
 1520SOL    HW219981   1.754   2.137   4.117  0.2961  0.8437  0.0131
 1521SOL     OW19982   2.211   2.042  10.562 -0.4307 -0.2739 -0.2283
 1521SOL    HW119983   2.260   2.124  10.557 -3.1043  1.4619  0.9728
 1521SOL    HW219984   2.178   2.028  10.473 -0.4601  0.2816 -0.3066
 1522SOL     OW19985   1.708   0.727   9.753 -0.1290  1.3154  0.0255
 1522SOL    HW119986   1.799   0.749   9.734  0.9158 -1.1821  1.7471
 1522SOL    HW219987   1.705   0.631   9.745 -2.2090  1.2161  1.5740
 1523SOL     OW19988   1.584   2.971   8.441  0.0634  0.3004  0.0541
 1523SOL    HW119989   1.588   3.066   8.427 -0.1101  0.4650  1.0867
 1523SOL    HW219990   1.561   2.961   8.533 -1.6163 -0.7501 -0.4531
 1524SOL     OW19991   2.712   3.105   9.192 -0.3049 -0.1562 -0.1588
 1524SOL    HW119992   2.670   3.185   9.224 -0.0887  0.9412 -2.5409
 1524SOL    HW219993   2.679   3.036   9.250 -0.7022  1.6118  1.7508
 1525SOL     OW19994   1.451   3.001   1.462 -0.0257 -0.4666  0.2627
 1525SOL    HW119995   1.379   2.971   1.516 -0.6092 -0.0333 -0.2689
 1525SOL    HW219996   1.461   3.093   1.484 -0.7864 -0.0803 -0.9279
 1526SOL     OW19997   4.046   4.051   8.746  0.0907 -0.1422 -0.2277
 1526SOL    HW119998   3.986   4.121   8.774 -2.2885 -1.1513 -2.5993
 1526SOL    HW219999   4.056   3.996   8.824 -2.3876 -0.1502  0.1164
 1527SOL     OW20000   2.199   1.306   3.528  0.3917 -0.4933  0.4125
 1527SOL    HW120001   2.110   1.318   3.561 -0.0882 -1.3224 -0.5699
 1527SOL    HW220002   2.225   1.394   3.500  0.8364  0.2584  2.9705
 1528SOL     OW20003   5.093   5.453  12.004 -0.0578  0.3830 -0.0911
 1528SOL    HW120004   5.169   5.467  12.059 -0.2854 -0.6087  0.4787
 1528SOL    HW220005   5.119   5.486  11.918  0.9254  0.2533  0.1568
 1529SOL     OW20006   5.967   5.789  10.244 -0.2809 -0.6749  0.1887
 1529SOL    HW120007   5.991   5.880  10.226 -1.5976 -0.0534  1.4817
 1529SOL    HW220008   5.881   5.778  10.203  0.1114 -1.5041 -0.4282
 1530SOL     OW20009   3.932   3.080   0.848  0.0131 -0.0713 -0.1011
 1530SOL    HW120010   3.916   3.171   0.874 -0.9816  0.0343 -1.0946
 1530SOL    HW220011   3.875   3.029   0.905 -0.0070 -0.0248 -0.0782
 1531SOL     OW20012   3.403   0.682  11.916  0.0321  0.6718 -0.1713
 1531SOL    HW120013   3.346   0.673  11.839  0.5880  2.0070 -0.7625
 1531SOL    HW220014   3.344   0.715  11.985 -1.1019 -3.2316  0.8520
 1532SOL     OW20015   3.752   2.866   2.616 -0.1833  0.3325 -0.2268
 1532SOL    HW120016   3.803   2.792   2.651  1.8158  1.6821 -0.1799
 1532SOL    HW220017   3.818   2.923   2.576 -1.8240  1.5595 -1.2091
 1533SOL     OW20018   3.230   0.131   2.559 -0.2635 -0.2232 -0.0931
 1533SOL    HW120019   3.304   0.071   2.562  0.4677  0.6833  0.4277
 1533SOL    HW220020   3.152   0.075   2.559  0.4180 -1.1709 -0.3456
 1534SOL     OW20021   5.957   1.556  10.293 -0.5968 -0.6209  0.3995
 1534SOL    HW120022   5.925   1.472  10.328 -0.3885 -0.6152  0.6122
 1534SOL    HW220023   5.914   1.565  10.209  0.9181 -1.9172 -0.5559
 1535SOL     OW20024   2.002   4.589  10.111  0.0564  1.0582 -0.0451
 1535SOL    HW120025   2.041   4.506  10.137  1.4193  0.8675 -2.6206
 1535SOL    HW220026   2.069   4.655  10.131  0.5286  1.0801 -1.6856
 1536SOL     OW20027   4.282   4.690   3.222 -0.4852 -0.1438 -0.1312
 1536SOL    HW120028   4.367   4.714   3.258 -1.2350 -0.9628  2.2506
 1536SOL    HW220029   4.244   4.773   3.193  1.0800  0.2333 -1.1837
 1537SOL     OW20030   3.850   1.244   1.820 -0.3915  0.1796 -0.0782
 1537SOL    HW120031   3.856   1.232   1.725 -1.2689  1.4288 -0.3044
 1537SOL    HW220032   3.888   1.164   1.857  0.9940  0.1617 -1.4786
 1538SOL     OW20033   5.910   2.818  11.000  0.2271  0.0045 -0.0065
 1538SOL    HW120034   5.906   2.824  11.095 -0.0964  2.0431 -0.1162
 1538SOL    HW220035   5.923   2.725  10.982 -0.4117 -0.4989  1.9975
 1539SOL     OW20036   1.298   4.143   8.405 -0.8398  0.2162 -0.5679
 1539SOL    HW120037   1.304   4.135   8.309 -0.4045 -2.9797 -0.3217
 1539SOL    HW220038   1.207   4.123   8.425 -1.0599  1.4144 -0.3456
 1540SOL     OW20039   3.951   3.460   2.703 -0.4073  0.0642  0.1856
 1540SOL    HW120040   3.890   3.424   2.638 -0.3208 -0.2690  0.2901
 1540SOL    HW220041   3.901   3.527   2.748  0.3444  2.2601 -2.0955
 1541SOL     OW20042   5.699   0.434   9.439  0.0331  0.3045 -0.0451
 1541SOL    HW120043   5.739   0.361   9.392 -0.3292  0.2731 -0.3030
 1541SOL    HW220044   5.605   0.423   9.425 -0.0514  0.5458  0.3165
 1542SOL     OW20045   3.557   2.081   9.397  0.2227 -0.8529  0.1834
 1542SOL    HW120046   3.617   2.131   9.342  0.7790 -1.8356 -0.1157
 1542SOL    HW220047   3.472   2.122   9.384  0.5776 -0.3166 -0.4610
 1543SOL     OW20048   5.795   2.849   8.048  0.0227  0.1286  0.2166
 1543SOL    HW120049   5.832   2.935   8.028 -0.7065  0.7885  1.5866
 1543SOL    HW220050   5.704   2.855   8.019 -0.3535  0.2320  1.4151
 1544SOL     OW20051   5.183   1.362   8.602  0.5434  0.5712  0.4207
 1544SOL    HW120052   5.255   1.411   8.641  1.0392 -0.9671  1.4808
 1544SOL    HW220053   5.170   1.288   8.661  0.1392 -0.8335 -1.3878
 1545SOL     OW20054   2.926   0.246   3.542  0.2894 -0.0273 -0.6395
 1545SOL    HW120055   2.978   0.169   3.521  0.3339  0.0874 -0.9633
 1545SOL    HW220056   2.945   0.264   3.634 -0.3250 -0.8653 -0.3466
 1546SOL     OW20057   2.701   1.104  11.764 -0.1783 -0.4334  0.2290
 1546SOL    HW120058   2.678   1.078  11.853 -0.5882  0.6760  0.4640
 1546SOL    HW220059   2.752   1.185  11.775 -0.4521 -0.1454 -0.5521
 1547SOL     OW20060   5.585   0.765   9.770 -0.2747  0.0508 -0.1594
 1547SOL    HW120061   5.616   0.679   9.800 -1.3834  0.0994  1.1901
 1547SOL    HW220062   5.629   0.778   9.686 -0.7169 -2.1874 -0.7747
 1548SOL     OW20063   3.781   3.285   3.027 -0.9119 -0.2766  0.3052
 1548SOL    HW120064   3.800   3.262   2.936 -0.8816 -1.0138  0.4980
 1548SOL    HW220065   3.739   3.207   3.064 -0.7940 -0.0347  0.9656
 1549SOL     OW20066   1.041   1.599   9.346  0.1368  0.3331  0.0384
 1549SOL    HW120067   1.040   1.503   9.347 -0.5188  0.3160 -1.1616
 1549SOL    HW220068   0.952   1.623   9.320  0.3267  1.2693  0.2343
 1550SOL     OW20069   5.676   2.272   2.935  0.5014  0.1087 -0.0738
 1550SOL    HW120070   5.682   2.360   2.898 -0.6200  0.9209  1.5930
 1550SOL    HW220071   5.644   2.286   3.025  0.2701 -1.9992  0.1985
 1551SOL     OW20072   4.943   5.380  11.205 -0.2979  0.4745 -0.1807
 1551SOL    HW120073   4.914   5.338  11.286  3.2458 -1.0628  0.4246
 1551SOL    HW220074   4.883   5.348  11.138 -1.0379 -1.1754  1.2289
 1552SOL     OW20075   3.797   2.876   1.396  0.3430  0.3072  0.1422
 1552SOL    HW120076   3.793   2.941   1.325  0.1172  1.8000  1.5003
 1552SOL    HW220077   3.746   2.915   1.467 -0.0067 -1.4846  0.9032
 1553SOL     OW20078   2.158   3.953  10.551  0.4403  0.3202 -0.2063
 1553SOL    HW120079   2.088   3.962  10.615  1.1253  0.5493  0.5221
 1553SOL    HW220080   2.214   3.884  10.585  2.1441  2.0842  0.7245
 1554SOL     OW20081   0.071   5.157  12.494 -0.3613  0.2839 -1.1045
 1554SOL    HW120082   0.094   5.241  12.534  0.8355 -0.6356  0.2163
 1554SOL    HW220083   0.059   5.177  12.401 -1.9646  2.2385 -0.5003
 1555SOL     OW20084   0.691   2.829   3.755 -0.2009 -1.0345 -0.2741
 1555SOL    HW120085   0.638   2.761   3.796  0.9493 -1.4293  0.5814
 1555SOL    HW220086   0.633   2.868   3.690 -1.4967 -1.5318  0.5610
 1556SOL     OW20087   5.693   5.912   1.115 -0.0511  0.6101  0.0032
 1556SOL    HW120088   5.720   5.844   1.054  0.2374  1.0095 -0.3142
 1556SOL    HW220089   5.659   5.982   1.060  1.1597  1.3975  0.2309
 1557SOL     OW20090   3.610   2.171   8.290 -0.0821 -0.2003 -0.1738
 1557SOL    HW120091   3.693   2.132   8.263 -0.5072 -1.1598 -0.1147
 1557SOL    HW220092   3.543   2.109   8.260 -0.5962 -1.0826  2.6615
 1558SOL     OW20093   5.458   2.236   3.732  0.5474  0.0178  0.2514
 1558SOL    HW120094   5.366   2.235   3.759  0.0513  0.9049 -1.3500
 1558SOL    HW220095   5.485   2.327   3.740  0.8320  0.0278 -0.7540
 1559SOL     OW20096   5.984   2.275  10.262 -0.3331  0.8588  0.2142
 1559SOL    HW120097   5.938   2.359  10.271 -1.5440  0.1846  0.5450
 1559SOL    HW220098   5.921   2.211  10.294  1.2367  0.0014  1.6630
 1560SOL     OW20099   5.253   3.027  10.185  0.2457  0.6426 -0.3832
 1560SOL    HW120100   5.222   2.938  10.166  1.5633 -0.1268  0.9450
 1560SOL    HW220101   5.192   3.060  10.250 -0.4316  0.8312 -1.1074
 1561SOL     OW20102   0.626   1.577  10.124 -0.1901 -0.7666 -0.6409
 1561SOL    HW120103   0.703   1.633  10.117  0.4559 -1.5492  0.1381
 1561SOL    HW220104   0.659   1.489  10.110 -0.5893 -1.3351  1.8297
 1562SOL     OW20105   2.374   1.469   3.854  0.3277  0.3840  0.0851
 1562SOL    HW120106   2.356   1.434   3.767 -0.4198  0.7682  0.0745
 1562SOL    HW220107   2.287   1.476   3.895  0.6010  0.9220  0.5840
 1563SOL     OW20108   5.269   5.618   1.878  0.1277 -0.2766  0.0167
 1563SOL    HW120109   5.187   5.644   1.835 -0.9146  0.4874  2.3991
 1563SOL    HW220110   5.332   5.613   1.807 -1.5436  0.9868 -1.6132
 1564SOL     OW20111   0.131   5.837   9.688  0.1111  0.8821  0.2723
 1564SOL    HW120112   0.193   5.819   9.759 -0.4526 -1.5000  0.1865
 1564SOL    HW220113   0.152   5.772   9.621 -0.6157  1.9006 -0.9611
 1565SOL     OW20114   4.231   4.739   9.368 -0.0790 -0.2500 -0.7994
 1565SOL    HW120115   4.316   4.779   9.347  0.3080 -0.8857 -0.4980
 1565SOL    HW220116   4.250   4.684   9.445 -0.9384  0.2104 -0.2490
 1566SOL     OW20117   3.513   3.153  10.010  0.6179  0.2653  0.4377
 1566SOL    HW120118   3.569   3.112   9.944  0.4944 -0.3833  0.7381
 1566SOL    HW220119   3.511   3.246   9.985 -0.6917 -0.2195 -1.3923
 1567SOL     OW20120   4.493   3.112  10.590  0.2480  0.4956 -0.6959
 1567SOL    HW120121   4.540   3.192  10.613 -0.2659  0.2413  1.3130
 1567SOL    HW220122   4.401   3.133  10.604  0.1725 -0.7397  0.8293
 1568SOL     OW20123   5.347   1.080   1.409 -0.5547 -0.3803 -0.3693
 1568SOL    HW120124   5.423   1.138   1.414 -1.1205  0.2731  0.8573
 1568SOL    HW220125   5.273   1.136   1.431 -1.1664 -1.4493  0.3079
 1569SOL     OW20126   4.797   5.078   0.350  0.0578  0.1013 -0.0750
 1569SOL    HW120127   4.766   4.992   0.324 -0.2520  0.6762 -1.6424
 1569SOL    HW220128   4.841   5.063   0.434 -2.4381 -1.1145  1.0666
 1570SOL     OW20129   1.419   2.024   1.641 -1.0884  0.2370 -0.6877
 1570SOL    HW120130   1.363   2.098   1.665  0.7719  1.4552  0.0419
 1570SOL    HW220131   1.508   2.055   1.658 -0.2577 -2.1482 -0.4567
 1571SOL     OW20132   3.447   1.645  11.252 -0.0070  0.3459 -0.8874
 1571SOL    HW120133   3.412   1.728  11.220 -0.6963  1.0132  1.4964
 1571SOL    HW220134   3.386   1.579  11.217 -0.1979  0.9412 -1.7076
 1572SOL     OW20135   3.483   2.398   0.761  0.5391 -0.0244  0.4159
 1572SOL    HW120136   3.391   2.424   0.753  0.0549 -1.5581  0.7171
 1572SOL    HW220137   3.527   2.475   0.796 -0.4172  1.1159 -0.8065
 1573SOL     OW20138   3.339   3.171   2.728 -0.0953  0.1391 -0.6999
 1573SOL    HW120139   3.426   3.135   2.744 -0.1035  0.2218 -0.4673
 1573SOL    HW220140   3.282   3.123   2.789 -0.5754 -1.4877 -2.3658
 1574SOL     OW20141   1.725   1.964   2.348 -0.4178 -0.1352  0.1437
 1574SOL    HW120142   1.637   1.998   2.362 -0.7176 -1.3022  1.2378
 1574SOL    HW220143   1.745   1.916   2.429 -0.1954 -2.9118 -1.5048
 1575SOL     OW20144   0.781   3.139   9.223 -0.8910 -0.0072 -0.7129
 1575SOL    HW120145   0.768   3.208   9.288  1.0391  0.6572 -0.9847
 1575SOL    HW220146   0.782   3.058   9.274 -2.3330  0.2291 -0.2921
 1576SOL     OW20147   2.011   2.748   2.651 -0.3701  0.2405 -0.4032
 1576SOL    HW120148   1.936   2.729   2.708  1.1002 -1.0558  1.1722
 1576SOL    HW220149   1.980   2.815   2.591 -2.3896  0.6445  1.0572
 1577SOL     OW20150   4.329   4.927   2.582  0.5016  0.1145 -0.0710
 1577SOL    HW120151   4.301   4.983   2.509  0.6986 -0.2570 -0.4321
 1577SOL    HW220152   4.424   4.921   2.573  0.8679  2.3429  1.8388
 1578SOL     OW20153   4.855   1.154  12.011  0.0938  0.7334 -0.5244
 1578SOL    HW120154   4.926   1.090  12.007 -0.3079  0.0872  2.2138
 1578SOL    HW220155   4.827   1.163  11.919  0.2600 -2.8854 -1.0229
 1579SOL     OW20156   0.246   5.748  10.627  0.2501 -0.3546 -0.2472
 1579SOL    HW120157   0.293   5.809  10.684  0.7685 -0.8377 -0.1459
 1579SOL    HW220158   0.161   5.789  10.612  1.3228  1.3711 -1.8321
 1580SOL     OW20159   1.571   2.231  11.568 -0.2451 -0.3287 -0.3946
 1580SOL    HW120160   1.518   2.283  11.508  0.3145 -0.4616 -1.0165
 1580SOL    HW220161   1.522   2.232  11.650  0.0361  1.6721 -0.2121
 1581SOL     OW20162   5.778   3.703  10.477  0.4692  0.3600 -0.3698
 1581SOL    HW120163   5.713   3.737  10.538  0.1764  1.0201 -1.0449
 1581SOL    HW220164   5.836   3.778  10.459  1.4410 -0.2198  0.2379
 1582SOL     OW20165   3.411   3.540   1.270 -0.3729 -0.0829  0.2977
 1582SOL    HW120166   3.374   3.625   1.245 -1.2791 -0.6397 -0.3044
 1582SOL    HW220167   3.338   3.494   1.312 -0.5065 -1.3723 -1.2917
 1583SOL     OW20168   3.592   0.424   8.220 -0.1888 -0.2566  0.0919
 1583SOL    HW120169   3.624   0.421   8.130 -0.9953 -2.5729 -0.1616
 1583SOL    HW220170   3.608   0.514   8.249 -1.2039  0.9173 -2.8328
 1584SOL     OW20171   2.429   0.646   3.910  0.0299 -0.3161  0.1816
 1584SOL    HW120172   2.396   0.618   3.824  2.7326  0.5812 -1.1999
 1584SOL    HW220173   2.403   0.738   3.917 -1.9308 -0.9146  1.2507
 1585SOL     OW20174   5.388   0.241   2.469 -0.1259  0.0074  0.0754
 1585SOL    HW120175   5.339   0.169   2.430  1.4100 -0.8515 -0.3093
 1585SOL    HW220176   5.394   0.219   2.562  0.2285 -0.2974 -0.0184
 1586SOL     OW20177   1.469   3.847   0.407 -0.1269  0.0344 -0.1731
 1586SOL    HW120178   1.473   3.751   0.404  0.4146 -0.0230  1.7234
 1586SOL    HW220179   1.561   3.875   0.404 -0.3266  0.5648 -2.0235
 1587SOL     OW20180   4.997   4.488  11.893 -0.0302 -0.3408 -0.3142
 1587SOL    HW120181   5.082   4.503  11.852 -0.4577 -0.1401 -1.1441
 1587SOL    HW220182   5.016   4.432  11.968  0.5895 -1.9222 -1.6226
 1588SOL     OW20183   5.813   2.133   0.717  0.0640  0.2143 -0.1490
 1588SOL    HW120184   5.873   2.059   0.728 -1.5477 -1.0767  0.0286
 1588SOL    HW220185   5.868   2.210   0.731  2.0821 -0.8850 -1.7070
 1589SOL     OW20186   1.094   2.004  10.474  0.1607 -0.5787  0.4082
 1589SOL    HW120187   1.172   2.044  10.512 -0.2250  0.1122  0.4775
 1589SOL    HW220188   1.094   1.914  10.507  1.5158 -0.9112 -0.4545
 1590SOL     OW20189   1.805   5.494  11.240  0.4016  0.1537  0.3397
 1590SOL    HW120190   1.764   5.423  11.190  1.5459  0.4513 -1.0773
 1590SOL    HW220191   1.887   5.456  11.272  0.5369  0.5191  0.4289
 1591SOL     OW20192   3.934   2.933   8.115  0.0012  0.0109 -0.3743
 1591SOL    HW120193   3.932   2.849   8.161 -1.1779 -0.1837 -0.7665
 1591SOL    HW220194   4.025   2.941   8.085  0.9059  0.2984  2.2370
 1592SOL     OW20195   0.819   1.450  12.323  0.1713 -0.1427 -0.0047
 1592SOL    HW120196   0.736   1.499  12.324  1.1919  1.6568 -1.1664
 1592SOL    HW220197   0.802   1.376  12.264 -0.7876 -0.1237  0.2290
 1593SOL     OW20198   2.066   3.948   1.047  0.0634  0.2365  0.4200
 1593SOL    HW120199   2.071   3.861   1.088  2.0018  0.2491  0.2686
 1593SOL    HW220200   2.131   3.944   0.977 -2.2672  0.6562 -1.8264
 1594SOL     OW20201   5.496   3.496  10.421 -0.0314  0.3885 -0.6070
 1594SOL    HW120202   5.571   3.437  10.409  0.1142  0.2690  0.8034
 1594SOL    HW220203   5.493   3.512  10.515 -0.6107  1.9389 -0.8741
 1595SOL     OW20204   4.240   4.555  11.442 -0.2863  0.1903 -0.0584
 1595SOL    HW120205   4.306   4.537  11.375 -0.3244  0.1210 -0.0787
 1595SOL    HW220206   4.285   4.608  11.507  0.5583 -2.0449  1.2589
 1596SOL     OW20207   2.125   0.720   2.793 -0.2757  0.3189  0.4589
 1596SOL    HW120208   2.194   0.738   2.856  1.5943  0.5746 -1.5819
 1596SOL    HW220209   2.131   0.625   2.778 -0.8068  0.2355  0.7458
 1597SOL     OW20210   1.804   5.030   4.098  0.4295  0.4843 -0.2926
 1597SOL    HW120211   1.827   4.947   4.056 -1.4938 -0.3867  0.3187
 1597SOL    HW220212   1.857   5.031   4.179  0.8468  0.1104 -0.5544
 1598SOL     OW20213   5.577   4.992   2.819  0.0905 -0.6351  0.0435
 1598SOL    HW120214   5.599   4.938   2.743  1.7439  0.7602 -0.5069
 1598SOL    HW220215   5.618   4.947   2.893  0.1909 -0.9391 -0.1945
 1599SOL     OW20216   2.174   3.101  11.723 -0.0263  0.1969 -0.4038
 1599SOL    HW120217   2.181   3.173  11.786  0.8603 -1.1598  1.0860
 1599SOL    HW220218   2.080   3.086  11.714 -0.1548 -0.0680  1.1648
 1600SOL     OW20219   3.884   1.294   8.503 -0.1698  0.4508 -0.4584
 1600SOL    HW120220   3.839   1.340   8.433 -0.4592  1.8012  0.5798
 1600SOL    HW220221   3.885   1.357   8.576 -0.6384 -1.2090  1.0215
 1601SOL     OW20222   3.324   1.498   2.575 -0.6944  1.1346 -0.3279
 1601SOL    HW120223   3.352   1.544   2.495  0.3439 -0.1716 -0.7310
 1601SOL    HW220224   3.336   1.563   2.645  1.6189  1.2270 -0.7662
 1602SOL     OW20225   4.387   3.475   2.294  0.1343  0.3511 -0.3976
 1602SOL    HW120226   4.378   3.542   2.226  1.7261  0.7919 -0.1885
 1602SOL    HW220227   4.375   3.522   2.376  2.5790  0.6722 -0.1806
 1603SOL     OW20228   3.656  -0.009   9.700 -0.4213  0.3404 -0.1345
 1603SOL    HW120229   3.596  -0.047   9.764  0.6181 -0.1656  0.5579
 1603SOL    HW220230   3.672   0.080   9.733 -0.3987  0.3077 -0.0568
 1604SOL     OW20231   3.643   2.434  11.434 -0.4989 -0.3817 -0.4243
 1604SOL    HW120232   3.716   2.492  11.454 -0.5306  0.1604 -1.8200
 1604SOL    HW220233   3.592   2.431  11.515  0.9637 -0.6328  0.5164
 1605SOL     OW20234   2.525   2.688   2.151  0.3180 -0.5811  0.2833
 1605SOL    HW120235   2.489   2.620   2.207 -0.2304  0.1752  0.8618
 1605SOL    HW220236   2.581   2.740   2.209 -2.8345  2.2156  0.9836
 1606SOL     OW20237   5.452   3.679   0.991 -0.4042  0.2392  0.0609
 1606SOL    HW120238   5.486   3.600   1.033 -1.7473  1.6857  4.0386
 1606SOL    HW220239   5.478   3.751   1.048 -0.6302  2.5764 -2.6340
 1607SOL     OW20240   1.541   1.295   9.002 -0.1297 -1.1881  0.1909
 1607SOL    HW120241   1.545   1.221   8.942  0.0230  0.5911 -2.0756
 1607SOL    HW220242   1.632   1.309   9.029  0.0478 -0.9784 -0.4910
 1608SOL     OW20243   3.908   3.151   9.563 -0.1840 -0.4228 -0.2599
 1608SOL    HW120244   3.835   3.191   9.610 -0.3469 -0.5241 -0.4271
 1608SOL    HW220245   3.899   3.183   9.474  1.7361  2.0506  0.3609
 1609SOL     OW20246   0.753   3.335   3.450  0.3267 -0.7563 -0.5765
 1609SOL    HW120247   0.839   3.377   3.451 -1.0815  2.2829 -0.0624
 1609SOL    HW220248   0.739   3.311   3.358  1.1225  0.0712 -0.9198
 1610SOL     OW20249   0.448   2.167   2.879 -0.2200  0.6105 -0.0880
 1610SOL    HW120250   0.508   2.149   2.951  1.2355  3.0438 -0.6332
 1610SOL    HW220251   0.477   2.109   2.808 -1.9888 -2.1755  1.3623
 1611SOL     OW20252   0.586   3.416   0.823 -0.4946 -0.0432  0.3814
 1611SOL    HW120253   0.516   3.351   0.824  0.3058 -0.8990  0.5487
 1611SOL    HW220254   0.578   3.458   0.737 -0.3957 -1.0296 -0.1160
 1612SOL     OW20255   4.958   3.249   8.527 -0.8009 -0.4720 -0.2891
 1612SOL    HW120256   4.932   3.186   8.594 -1.6860  0.4121  0.2056
 1612SOL    HW220257   4.882   3.257   8.469  0.3612 -2.0972 -2.0823
 1613SOL     OW20258   3.526   3.149  10.776 -0.0440  0.0856 -0.1641
 1613SOL    HW120259   3.469   3.129  10.702 -0.0674 -0.3463 -0.0280
 1613SOL    HW220260   3.486   3.104  10.850  0.4903 -0.2404 -0.0732
 1614SOL     OW20261   4.857   0.724   0.517 -0.0353  0.6826  0.0070
 1614SOL    HW120262   4.808   0.783   0.575 -0.1488  0.8687 -0.2786
 1614SOL    HW220263   4.891   0.656   0.576 -0.8565  0.4030  0.1706
 1615SOL     OW20264   3.346   2.896   7.750 -0.4733 -0.3005 -0.7846
 1615SOL    HW120265   3.426   2.942   7.776  0.0086 -1.5135 -0.0262
 1615SOL    HW220266   3.350   2.892   7.655  1.7771 -2.6769 -0.6819
 1616SOL     OW20267   2.869   1.836   0.708 -0.1925 -0.7648 -0.9063
 1616SOL    HW120268   2.776   1.843   0.731  0.3166  1.9222  0.5624
 1616SOL    HW220269   2.903   1.770   0.768 -0.5084  0.6316  0.8626
 1617SOL     OW20270   1.058   4.341   9.139  0.6204 -0.3217 -1.0038
 1617SOL    HW120271   1.024   4.394   9.212  1.9950 -0.9919  0.1329
 1617SOL    HW220272   1.147   4.373   9.125  0.8618 -1.1651 -1.4449
 1618SOL     OW20273   5.343   4.496  11.994 -0.1413 -0.2636  0.2735
 1618SOL    HW120274   5.309   4.501  11.905  1.8140 -1.6768 -0.5924
 1618SOL    HW220275   5.429   4.539  11.990 -0.0558 -0.2928  1.4662
 1619SOL     OW20276   5.712   1.347   9.617 -0.1925 -0.0153 -0.2280
 1619SOL    HW120277   5.791   1.321   9.663 -0.7842  0.1583  0.9080
 1619SOL    HW220278   5.657   1.268   9.617  0.0652 -0.2034 -1.2141
 1620SOL     OW20279   3.540   1.174   8.219 -0.3174  0.7537  0.0977
 1620SOL    HW120280   3.479   1.140   8.285  0.4342 -0.6048  0.0986
 1620SOL    HW220281   3.613   1.112   8.219  0.6015  1.8186 -0.6277
 1621SOL     OW20282   1.652   1.286   2.105 -0.4668  0.4142  0.0991
 1621SOL    HW120283   1.637   1.202   2.149  0.6507  1.0928  1.8459
 1621SOL    HW220284   1.572   1.336   2.121 -0.6200  0.1587  0.1526
 1622SOL     OW20285   1.379   3.791   2.607  0.0195 -0.9649  0.1361
 1622SOL    HW120286   1.288   3.791   2.634 -0.1482  0.8477 -0.3594
 1622SOL    HW220287   1.422   3.731   2.668 -1.3440 -1.1911  0.8908
 1623SOL     OW20288   2.429   3.432  10.718  0.4772 -0.2978  0.2042
 1623SOL    HW120289   2.394   3.351  10.682 -0.5568  0.4549 -0.5277
 1623SOL    HW220290   2.468   3.407  10.801 -1.3510 -1.2633  0.7912
 1624SOL     OW20291   5.133   3.160  10.897 -0.2619 -1.0396  0.1924
 1624SOL    HW120292   5.175   3.169  10.982 -0.3398 -0.0776  0.1266
 1624SOL    HW220293   5.166   3.233  10.845 -0.0103 -1.7635 -0.6957
 1625SOL     OW20294   2.959   1.565   8.375 -0.2857 -0.1692  0.0848
 1625SOL    HW120295   3.044   1.605   8.393 -0.2022  0.2807 -1.2340
 1625SOL    HW220296   2.918   1.624   8.312 -1.0763 -1.0179 -0.2103
 1626SOL     OW20297   3.259   2.053  11.259  0.0563 -0.3433 -0.5579
 1626SOL    HW120298   3.221   2.052  11.171 -0.4774 -1.6044 -0.3275
 1626SOL    HW220299   3.185   2.070  11.317 -0.5359 -4.4061  0.0357
 1627SOL     OW20300   0.226   5.853   9.133 -0.3139  0.0030 -0.0414
 1627SOL    HW120301   0.133   5.831   9.127 -0.6929  1.8985 -2.0459
 1627SOL    HW220302   0.229   5.948   9.119  1.8109  0.1898  1.3933
 1628SOL     OW20303   0.990   4.929   3.869 -0.3627  0.3481 -0.0086
 1628SOL    HW120304   0.988   4.995   3.800 -1.2859  0.1754 -0.1555
 1628SOL    HW220305   1.078   4.892   3.865  0.1466  1.5235  0.0357
 1629SOL     OW20306   3.006   5.174   9.589  0.5951 -0.5345 -0.2489
 1629SOL    HW120307   3.043   5.136   9.669 -0.8922 -2.0236 -0.2321
 1629SOL    HW220308   2.950   5.245   9.620  0.4052 -0.7934  0.0073
 1630SOL     OW20309   3.965   4.325  11.916  0.2514 -0.5353 -0.1035
 1630SOL    HW120310   3.910   4.401  11.896  1.6985  0.2954 -1.0330
 1630SOL    HW220311   3.999   4.297  11.831  0.2197 -1.8547  0.3062
 1631SOL     OW20312   2.735   1.976   4.159  0.3898 -0.4831  0.5205
 1631SOL    HW120313   2.672   2.043   4.132 -0.4607 -1.1669  0.7840
 1631SOL    HW220314   2.778   1.949   4.077 -0.7962 -1.1521  0.0936
 1632SOL     OW20315   3.391   4.840  10.614 -0.8602  0.5710  0.1384
 1632SOL    HW120316   3.466   4.805  10.566  0.1645 -0.0770  2.1102
 1632SOL    HW220317   3.386   4.932  10.589  0.9895  0.7647  0.4345
 1633SOL     OW20318   0.761   3.908  10.807 -0.4288 -0.0120  0.6400
 1633SOL    HW120319   0.761   3.938  10.716 -1.0799 -2.1544 -0.1092
 1633SOL    HW220320   0.840   3.855  10.815 -1.4270 -1.5295  0.6981
 1634SOL     OW20321   3.541   2.935   0.093 -0.1587 -0.7217 -0.0896
 1634SOL    HW120322   3.607   2.892   0.038 -1.0050 -1.4840 -0.5374
 1634SOL    HW220323   3.467   2.950   0.034 -0.3644  0.1775  0.3908
 1635SOL     OW20324   5.042   5.819  12.219 -0.0310  0.0215  0.2564
 1635SOL    HW120325   5.092   5.748  12.259 -1.3954 -1.1686 -0.0918
 1635SOL    HW220326   5.107   5.877  12.181  1.0329 -2.1401 -1.2710
 1636SOL     OW20327   2.839   2.803   9.439  0.1915 -0.4716  0.3454
 1636SOL    HW120328   2.754   2.844   9.456  0.7612 -0.1425  2.5576
 1636SOL    HW220329   2.823   2.710   9.450  0.7415 -0.2085  3.7602
 1637SOL     OW20330   5.496   3.642   9.660  0.0442  0.2989 -0.1252
 1637SOL    HW120331   5.561   3.596   9.607 -0.1442 -0.3730  0.2151
 1637SOL    HW220332   5.528   3.732   9.665  2.3092 -0.5862  2.1499
 1638SOL     OW20333   0.801   1.171   7.972  0.1898  0.1774 -0.2392
 1638SOL    HW120334   0.891   1.191   7.996  0.1041 -0.2738  0.4657
 1638SOL    HW220335   0.758   1.256   7.967  0.5460  0.3651 -0.1672
 1639SOL     OW20336   0.134   3.078   2.546  0.2484 -0.0957 -1.1548
 1639SOL    HW120337   0.075   3.067   2.621  0.7773 -0.8505 -0.8407
 1639SOL    HW220338   0.123   3.169   2.520  0.8563  0.4544  0.5122
 1640SOL     OW20339   4.041   1.896   1.147  0.1383  0.3232 -0.9887
 1640SOL    HW120340   4.000   1.813   1.123 -3.0291  1.8699 -1.2032
 1640SOL    HW220341   4.002   1.919   1.231  1.5476  1.2128 -0.5652
 1641SOL     OW20342   4.791   0.447   8.002  0.1379 -0.2105 -0.1893
 1641SOL    HW120343   4.848   0.453   8.078 -0.8015  1.3813  0.4100
 1641SOL    HW220344   4.838   0.493   7.933 -0.6812  1.6827  0.4819
 1642SOL     OW20345   5.407   4.384   3.971 -0.7970 -0.5227 -0.7401
 1642SOL    HW120346   5.419   4.388   4.066 -1.1193  0.9885 -0.7643
 1642SOL    HW220347   5.312   4.380   3.959 -0.7522 -0.8632 -1.0075
 1643SOL     OW20348   2.309   3.526  10.395 -0.1478  0.0405  0.7200
 1643SOL    HW120349   2.383   3.554  10.448 -0.3992  2.8245 -0.3085
 1643SOL    HW220350   2.325   3.564  10.309 -1.9939 -0.6448  0.0362
 1644SOL     OW20351   1.780   2.472  11.511  0.5158  0.1679 -0.1145
 1644SOL    HW120352   1.864   2.488  11.554 -0.2333  1.4032  0.9188
 1644SOL    HW220353   1.723   2.440  11.582 -0.8331  2.5530 -0.0681
 1645SOL     OW20354   4.488   4.703  10.210 -0.6700 -0.4237 -0.1769
 1645SOL    HW120355   4.512   4.696  10.118  0.6250 -3.1117  0.3314
 1645SOL    HW220356   4.431   4.628  10.226  1.1295 -1.4214  1.7824
 1646SOL     OW20357   5.017   5.462   0.962  0.4693 -0.3376  0.0129
 1646SOL    HW120358   4.987   5.388   1.013  3.3369  0.0979  2.4266
 1646SOL    HW220359   4.996   5.539   1.016  3.0696  0.1625  0.3496
 1647SOL     OW20360   4.627   4.037   8.999  0.1673 -0.1044 -0.0416
 1647SOL    HW120361   4.532   4.040   9.004  0.1643 -0.7700  0.5527
 1647SOL    HW220362   4.653   4.123   8.966 -0.6610 -0.0785 -0.6393
 1648SOL     OW20363   3.376   4.215   0.294  0.3670 -0.4199  0.5142
 1648SOL    HW120364   3.340   4.207   0.205 -0.9033  0.0746  0.9850
 1648SOL    HW220365   3.389   4.309   0.305  1.9042 -0.5981  0.3159
 1649SOL     OW20366   3.183   4.090   9.737 -0.1886 -0.1534 -0.4527
 1649SOL    HW120367   3.168   4.043   9.819  0.1377 -0.2362 -0.4376
 1649SOL    HW220368   3.232   4.028   9.682 -1.7708 -0.6657 -1.2994
 1650SOL     OW20369   3.748   3.743   1.622 -0.1361 -0.7581 -0.0398
 1650SOL    HW120370   3.767   3.836   1.617 -0.4868 -0.7041 -0.3966
 1650SOL    HW220371   3.751   3.712   1.531  0.0927 -1.1165  0.0869
 1651SOL     OW20372   5.909   2.508  12.469 -0.2590 -0.6135  0.4029
 1651SOL    HW120373   5.971   2.454  12.518 -1.7871 -1.6136  1.2561
 1651SOL    HW220374   5.941   2.505  12.379  2.9780  1.7798  1.3675
 1652SOL     OW20375   3.686   5.386  11.850 -0.2726 -0.3059 -0.0167
 1652SOL    HW120376   3.631   5.463  11.840  1.1294  0.4653 -2.2450
 1652SOL    HW220377   3.625   5.313  11.858 -1.6181  1.0462  2.6750
 1653SOL     OW20378   2.922   4.468   9.473 -0.2889  0.0626  0.1790
 1653SOL    HW120379   2.843   4.429   9.509  0.3206  0.1800  1.7189
 1653SOL    HW220380   2.992   4.437   9.530  1.1631 -2.0617 -2.6339
 1654SOL     OW20381   1.496   4.334  11.336 -0.0244 -0.3139 -0.2348
 1654SOL    HW120382   1.550   4.278  11.392 -1.5618 -1.2683  0.3366
 1654SOL    HW220383   1.558   4.371  11.273  1.6597  0.3503  1.7272
 1655SOL     OW20384   5.642   3.467  11.179  0.4665  0.8826  0.0680
 1655SOL    HW120385   5.560   3.515  11.167  0.6585  0.9019 -1.2589
 1655SOL    HW220386   5.678   3.458  11.091  1.4932  0.1602  0.5436
 1656SOL     OW20387   2.685   1.655  10.710  0.0869  0.2704  0.6587
 1656SOL    HW120388   2.760   1.615  10.664 -1.1048 -2.4712  1.0003
 1656SOL    HW220389   2.669   1.737  10.663  0.8239 -0.9988 -1.9166
 1657SOL     OW20390   2.121   1.190   1.177 -0.1645  0.4119  0.2639
 1657SOL    HW120391   2.027   1.183   1.160  0.2674 -0.7132 -1.8600
 1657SOL    HW220392   2.153   1.250   1.109  1.2408 -2.2199 -1.4640
 1658SOL     OW20393   2.784   4.967   3.699 -0.4942 -0.4055  0.1854
 1658SOL    HW120394   2.876   4.941   3.696 -0.7316 -1.2531  0.1419
 1658SOL    HW220395   2.777   5.021   3.778 -0.2260 -1.3807  0.8747
 1659SOL     OW20396   0.994   1.885   9.476  0.5425 -0.1989  0.3281
 1659SOL    HW120397   1.045   1.812   9.442  1.7700 -0.0122  1.7216
 1659SOL    HW220398   1.012   1.885   9.570 -0.3006  1.2287  0.5058
 1660SOL     OW20399   3.967   4.049   1.881  0.0745  0.2921  0.1970
 1660SOL    HW120400   3.995   4.046   1.973  0.4928 -0.3511  0.0504
 1660SOL    HW220401   3.882   4.093   1.884 -0.1013 -0.0795  0.9479
 1661SOL     OW20402   0.071   4.813   0.183 -0.3641  0.2643 -0.3957
 1661SOL    HW120403   0.044   4.793   0.273 -1.1900 -0.2916 -0.7578
 1661SOL    HW220404   0.013   4.885   0.157 -0.1987  0.3516 -0.5234
 1662SOL     OW20405   5.533   4.287   2.402  0.2304  0.1987  0.3315
 1662SOL    HW120406   5.447   4.320   2.429 -0.7156 -1.4793 -0.4698
 1662SOL    HW220407   5.528   4.193   2.421  1.4611 -0.1028 -0.7995
 1663SOL     OW20408   3.167   0.136   3.282  0.2259 -0.3095  0.3225
 1663SOL    HW120409   3.215   0.127   3.200  0.9662 -0.3081  0.7566
 1663SOL    HW220410   3.191   0.058   3.333  0.9917  0.4665  1.1653
 1664SOL     OW20411   5.280   3.710   1.738  0.1994  0.1475 -0.3776
 1664SOL    HW120412   5.297   3.638   1.799  1.1531 -0.0905 -0.9218
 1664SOL    HW220413   5.283   3.789   1.792 -4.3208 -0.4144  0.9389
 1665SOL     OW20414   1.005   5.255   0.484 -0.5515  0.4436  0.3777
 1665SOL    HW120415   0.963   5.277   0.567 -1.5611  0.0194 -0.0077
 1665SOL    HW220416   1.094   5.288   0.492  0.5574 -2.9539  3.0841
 1666SOL     OW20417   0.535   1.046  11.433  0.1646  0.2869 -0.7103
 1666SOL    HW120418   0.514   1.057  11.526  1.2009 -1.3975 -0.2612
 1666SOL    HW220419   0.487   0.968  11.407  1.7685 -0.6146 -0.9882
 1667SOL     OW20420   3.598   1.190   2.290 -0.1219  0.3024 -0.5167
 1667SOL    HW120421   3.515   1.152   2.259  0.2362 -0.2634 -0.8008
 1667SOL    HW220422   3.587   1.196   2.385 -0.4410  0.1015 -0.5374
 1668SOL     OW20423   1.425   2.087  11.272 -0.0616  0.1523  0.4904
 1668SOL    HW120424   1.466   2.081  11.358  0.1328  0.4975  0.4253
 1668SOL    HW220425   1.427   1.997  11.238  0.0656  0.0549  0.7507
 1669SOL     OW20426   3.791   0.515  11.708 -0.5726 -0.2468  0.4278
 1669SOL    HW120427   3.851   0.546  11.640  1.4789 -2.2845  1.2281
 1669SOL    HW220428   3.817   0.562  11.787 -0.5990 -0.4685  0.5727
 1670SOL     OW20429   4.869   2.353   9.699 -0.2856  0.2059  0.0542
 1670SOL    HW120430   4.935   2.286   9.718 -0.4684  0.4019  1.3911
 1670SOL    HW220431   4.867   2.358   9.603  1.0972 -0.3427 -0.0111
 1671SOL     OW20432   3.736   5.337   1.339  0.6176 -0.9621  0.2162
 1671SOL    HW120433   3.730   5.408   1.275 -1.2235  0.5140  1.9468
 1671SOL    HW220434   3.828   5.336   1.365  0.9184 -0.0515 -0.7610
 1672SOL     OW20435   4.147   3.666   8.322  0.4272  0.1585 -0.4714
 1672SOL    HW120436   4.225   3.720   8.311 -0.4829  2.1132  2.1540
 1672SOL    HW220437   4.077   3.717   8.281 -0.2819  0.6039  1.2705
 1673SOL     OW20438   0.744   4.313  10.886 -0.2721 -0.0400  0.2115
 1673SOL    HW120439   0.826   4.325  10.934 -1.3577 -1.1651  2.3971
 1673SOL    HW220440   0.737   4.218  10.875 -0.5468  0.1432 -1.3075
 1674SOL     OW20441   0.764   0.457   8.952  0.4236  0.2875 -0.0092
 1674SOL    HW120442   0.706   0.455   8.876  0.5234 -2.4719 -0.0624
 1674SOL    HW220443   0.719   0.511   9.016 -0.6333  0.9021 -1.2420
 1675SOL     OW20444   1.862   0.353   2.499  0.8361 -0.1639 -0.9219
 1675SOL    HW120445   1.820   0.422   2.551  2.2235 -1.1797  1.6371
 1675SOL    HW220446   1.935   0.398   2.455  0.0902  0.5444 -1.4733
 1676SOL     OW20447   1.422   3.685   4.281 -0.1216  1.2758 -0.2453
 1676SOL    HW120448   1.416   3.601   4.235  3.3995  0.0384  1.4126
 1676SOL    HW220449   1.492   3.732   4.236 -0.5220  2.3653  0.2666
 1677SOL     OW20450   1.379   0.537   0.622  0.2016 -0.5270  0.8543
 1677SOL    HW120451   1.453   0.591   0.649  0.2518  0.7335 -1.6775
 1677SOL    HW220452   1.310   0.600   0.601 -0.1801 -1.4664 -0.8460
 1678SOL     OW20453   0.846   0.081  11.505 -0.5184  0.0964 -0.8802
 1678SOL    HW120454   0.798   0.017  11.555  0.0533 -0.2122 -0.7204
 1678SOL    HW220455   0.934   0.045  11.497 -0.3177  0.6348 -1.1937
 1679SOL     OW20456   4.646   1.126   1.332  0.8647  0.5440  0.2109
 1679SOL    HW120457   4.640   1.216   1.299 -0.4614  1.1969  2.0952
 1679SOL    HW220458   4.710   1.084   1.276  0.2702  2.1922 -1.7825
 1680SOL     OW20459   2.570   0.812   1.331  0.3118  0.0704  0.4187
 1680SOL    HW120460   2.628   0.846   1.263 -1.4743  0.5448 -0.9201
 1680SOL    HW220461   2.482   0.824   1.295 -0.7478  1.4775  3.3078
 1681SOL     OW20462   0.348   4.288   1.492 -0.4111  0.0996 -0.0633
 1681SOL    HW120463   0.352   4.379   1.462  0.6265  0.4498  1.0772
 1681SOL    HW220464   0.256   4.273   1.513 -0.2275  1.6590  1.9970
 1682SOL     OW20465   3.170   2.639   1.442 -0.2808 -0.1158  0.3396
 1682SOL    HW120466   3.188   2.694   1.518 -1.5846 -0.7940  1.1637
 1682SOL    HW220467   3.216   2.681   1.370 -1.0613  1.9427  1.0069
 1683SOL     OW20468   3.763   1.017   3.765 -0.2876 -0.1133 -0.0473
 1683SOL    HW120469   3.727   0.960   3.696 -1.2075 -0.3930  0.6591
 1683SOL    HW220470   3.706   1.003   3.840 -0.7976  2.0701  0.0106
 1684SOL     OW20471   4.265   0.278  10.739  0.4068  0.0193  0.1905
 1684SOL    HW120472   4.204   0.296  10.668 -0.5101 -0.1607  0.9284
 1684SOL    HW220473   4.273   0.182  10.740  2.0522  0.1181 -1.0226
 1685SOL     OW20474   0.244   3.913   1.718  0.2808  0.8165 -0.4082
 1685SOL    HW120475   0.161   3.944   1.683  0.3039  0.4501 -0.7835
 1685SOL    HW220476   0.233   3.819   1.727  0.1554  0.9446  0.8882
 1686SOL     OW20477   4.774   4.174   1.089 -0.1286 -0.4652 -0.0840
 1686SOL    HW120478   4.712   4.142   1.154 -0.5025  0.3369 -0.0411
 1686SOL    HW220479   4.748   4.265   1.073  0.4404 -0.4153 -0.7749
 1687SOL     OW20480   1.499   2.586   3.720 -0.3931 -0.2745  0.1934
 1687SOL    HW120481   1.411   2.618   3.698 -0.2811 -0.4243 -0.4863
 1687SOL    HW220482   1.525   2.533   3.645 -0.1900 -1.1958  0.9040
 1688SOL     OW20483   1.944   3.928   3.295  0.7769  0.0041 -0.9434
 1688SOL    HW120484   1.938   3.971   3.210 -1.9713  0.2677 -0.6478
 1688SOL    HW220485   1.867   3.957   3.342  0.2327 -3.1716  0.2242
 1689SOL     OW20486   1.417   5.436   2.098  0.1408  0.1093 -0.5724
 1689SOL    HW120487   1.374   5.521   2.106 -1.9603 -0.8238 -1.6172
 1689SOL    HW220488   1.418   5.402   2.187  0.3266  0.9084 -0.2627
 1690SOL     OW20489   2.955   4.091   9.496 -0.9666  0.2788 -0.4544
 1690SOL    HW120490   2.935   4.114   9.587 -2.0391  1.8669 -1.0675
 1690SOL    HW220491   2.882   4.127   9.445  0.1747  0.3726 -2.0636
 1691SOL     OW20492   0.673   3.545   2.059  0.7771  0.2820  0.5759
 1691SOL    HW120493   0.676   3.636   2.028  0.4947  0.2373  0.4156
 1691SOL    HW220494   0.669   3.492   1.979 -2.3711  0.2477  0.6824
 1692SOL     OW20495   4.519   2.902   0.515 -0.3660  0.7660 -0.0521
 1692SOL    HW120496   4.510   2.915   0.421 -0.6486 -0.8523 -0.2593
 1692SOL    HW220497   4.440   2.942   0.552 -1.2401 -0.3643 -0.6691
 1693SOL     OW20498   0.573   2.400   3.643 -0.3650  0.0084 -0.2156
 1693SOL    HW120499   0.657   2.403   3.688 -0.2597  0.9565 -0.4474
 1693SOL    HW220500   0.508   2.404   3.713 -0.2316 -2.0475  0.0390
 1694SOL     OW20501   0.240   4.077   8.771 -0.0625 -0.4014 -0.1773
 1694SOL    HW120502   0.256   4.080   8.866  2.3347 -0.8627 -0.5310
 1694SOL    HW220503   0.211   4.166   8.749  0.2353 -0.0446  0.8501
 1695SOL     OW20504   4.309   4.906  11.870 -0.1822 -0.0519 -0.4409
 1695SOL    HW120505   4.228   4.900  11.819 -0.5157 -0.7848  0.1572
 1695SOL    HW220506   4.305   4.991  11.913 -1.0856 -0.4577  0.3092
 1696SOL     OW20507   0.621   0.333   1.635 -0.1196 -0.4645  0.3652
 1696SOL    HW120508   0.562   0.289   1.574 -0.7729 -1.4352  1.6776
 1696SOL    HW220509   0.695   0.361   1.581 -1.3270 -0.0857 -1.1139
 1697SOL     OW20510   5.128   0.240  12.294  0.1245  0.9908 -0.0230
 1697SOL    HW120511   5.085   0.213  12.375  1.6591 -0.1180  0.4296
 1697SOL    HW220512   5.058   0.235  12.228 -0.4743 -0.7368  0.7114
 1698SOL     OW20513   3.873   0.639   0.241 -0.0995  0.4310 -0.0549
 1698SOL    HW120514   3.811   0.615   0.172 -1.8363  0.3498  1.4774
 1698SOL    HW220515   3.955   0.596   0.216 -1.2361 -1.2566 -1.0079
 1699SOL     OW20516   1.460   0.536   1.768 -0.1230  0.2091  0.5958
 1699SOL    HW120517   1.512   0.573   1.839 -0.4863  1.3281  0.2922
 1699SOL    HW220518   1.518   0.473   1.726 -0.3670 -1.5522  2.7658
 1700SOL     OW20519   2.024   2.136   0.349 -0.8129  0.0891 -0.0397
 1700SOL    HW120520   2.095   2.188   0.314 -0.6190 -0.5244 -0.5692
 1700SOL    HW220521   1.973   2.109   0.273 -1.4249  0.2502  0.3050
 1701SOL     OW20522   5.526   5.614   4.065  0.5759  0.7465 -0.3578
 1701SOL    HW120523   5.605   5.587   4.112 -0.4622 -0.2036  0.8576
 1701SOL    HW220524   5.457   5.557   4.098 -0.6140  1.4881 -1.4956
 1702SOL     OW20525   4.896   4.777   1.970  0.4076  0.1041  0.4838
 1702SOL    HW120526   4.899   4.780   1.875  0.3986  2.9301  0.5240
 1702SOL    HW220527   4.802   4.773   1.991  0.4613 -2.8237  0.3898
 1703SOL     OW20528   2.524   5.460  10.872 -0.6968 -0.0618 -0.0579
 1703SOL    HW120529   2.535   5.534  10.932 -3.0124  0.7454 -0.5632
 1703SOL    HW220530   2.578   5.390  10.909  2.0243  2.0563  0.1092
 1704SOL     OW20531   0.323   1.178   1.505 -0.7404 -0.5752  0.0105
 1704SOL    HW120532   0.233   1.209   1.513 -1.0367 -1.3877 -0.0325
 1704SOL    HW220533   0.339   1.176   1.410 -0.8040 -0.7737  0.0028
 1705SOL     OW20534   5.323   3.447   7.715 -0.4907 -0.3928  0.4891
 1705SOL    HW120535   5.363   3.504   7.780 -0.9682  0.2459  0.2300
 1705SOL    HW220536   5.281   3.506   7.653 -1.4276 -1.0285  0.4941
 1706SOL     OW20537   4.227   3.205   8.404 -0.5901  0.4153 -0.3033
 1706SOL    HW120538   4.137   3.181   8.428  0.1048 -0.3562  1.6203
 1706SOL    HW220539   4.228   3.301   8.409 -1.1715  0.4030  0.1759
 1707SOL     OW20540   5.787   0.333   0.308  0.3527  0.0970  0.1920
 1707SOL    HW120541   5.698   0.344   0.274  0.6918  0.2205 -0.6890
 1707SOL    HW220542   5.782   0.258   0.367 -0.6313  0.9768  1.2562
 1708SOL     OW20543   0.039   0.978   0.933 -0.2526 -0.0660  0.1284
 1708SOL    HW120544   0.001   0.902   0.889 -0.4563  0.8408 -1.2747
 1708SOL    HW220545  -0.017   1.052   0.907 -0.2381  0.5331  1.7077
 1709SOL     OW20546   4.715   5.539  10.222  0.2368 -0.1618 -0.1383
 1709SOL    HW120547   4.714   5.529  10.126 -0.8284  3.3486 -0.5776
 1709SOL    HW220548   4.652   5.475  10.253  0.6801 -1.4421 -1.7632
 1710SOL     OW20549   2.055   2.393   3.612 -0.4059 -0.5849  0.0139
 1710SOL    HW120550   2.144   2.413   3.641 -0.1387 -0.2780 -0.9993
 1710SOL    HW220551   2.065   2.358   3.524 -1.2894 -0.5369 -0.1186
 1711SOL     OW20552   3.092   5.122  11.761 -0.3962  0.1183  0.0508
 1711SOL    HW120553   3.171   5.132  11.814 -0.3583 -0.3800  0.0975
 1711SOL    HW220554   3.020   5.145  11.820 -0.1959  1.9887 -0.4163
 1712SOL     OW20555   0.675   3.985   2.291  0.1469 -0.5498  0.0303
 1712SOL    HW120556   0.623   4.056   2.254  1.0134  0.0230 -0.0993
 1712SOL    HW220557   0.756   4.027   2.321  0.2609 -1.3214  0.8234
 1713SOL     OW20558   5.538   0.389   9.858 -0.4848 -0.4682  0.0562
 1713SOL    HW120559   5.448   0.420   9.851  0.5009  2.4431 -0.5300
 1713SOL    HW220560   5.543   0.347   9.943 -2.5901 -1.3120 -0.2233
 1714SOL     OW20561   0.096   4.482   1.573  0.4145 -0.2328  0.4423
 1714SOL    HW120562   0.147   4.435   1.639  0.0017 -0.5470  0.5413
 1714SOL    HW220563   0.033   4.533   1.623  0.2747 -0.2654  0.3025
 1715SOL     OW20564   2.648   0.474   7.740  0.1187 -0.7641 -0.7437
 1715SOL    HW120565   2.561   0.460   7.703 -0.4033  0.7128 -0.1104
 1715SOL    HW220566   2.696   0.520   7.671 -0.2740  0.3444 -0.2747
 1716SOL     OW20567   0.770   1.199  10.985  0.3161  0.1134 -0.2958
 1716SOL    HW120568   0.706   1.235  10.923  0.1241 -0.2314 -0.3003
 1716SOL    HW220569   0.803   1.275  11.032  0.4778  0.3847 -0.8408
 1717SOL     OW20570   3.600   1.177   3.241 -0.3672  0.1000 -0.6279
 1717SOL    HW120571   3.671   1.238   3.223  0.0640 -0.7029 -1.7192
 1717SOL    HW220572   3.546   1.221   3.306  1.2472  0.6323  0.3740
 1718SOL     OW20573   3.250   0.756  12.109  0.2921 -0.3250 -0.1934
 1718SOL    HW120574   3.287   0.790  12.191 -1.5783 -0.4992  0.7534
 1718SOL    HW220575   3.155   0.768  12.119 -0.1070 -2.1284 -1.5369
 1719SOL     OW20576   3.990   4.520  10.391  0.3663 -0.2760  0.2169
 1719SOL    HW120577   3.928   4.519  10.464 -0.2107 -0.0127 -0.2666
 1719SOL    HW220578   4.071   4.551  10.430 -0.8874  3.5004  0.0411
 1720SOL     OW20579   0.410   4.282   2.316 -0.0462  0.0769 -0.2457
 1720SOL    HW120580   0.436   4.371   2.291  0.3383  0.0136 -0.0721
 1720SOL    HW220581   0.472   4.257   2.384 -1.3804  0.4418  1.1380
 1721SOL     OW20582   4.175   5.114   2.248 -0.0906  0.0912  0.3293
 1721SOL    HW120583   4.134   5.193   2.211 -1.7289  0.0169  1.9267
 1721SOL    HW220584   4.109   5.078   2.307  1.1038 -1.8308  0.5294
 1722SOL     OW20585   1.949   1.666   2.109  0.2365  0.3230  0.4766
 1722SOL    HW120586   1.893   1.648   2.034 -0.3886  0.6149  0.8691
 1722SOL    HW220587   1.956   1.761   2.111 -0.0298  0.3319  0.9972
 1723SOL     OW20588   1.214   4.693  10.664 -0.0760  0.0501 -0.1193
 1723SOL    HW120589   1.150   4.632  10.625  1.0941  0.8665 -3.4831
 1723SOL    HW220590   1.166   4.775  10.672 -0.3271 -0.1253  0.2337
 1724SOL     OW20591   2.611   0.923   4.527  0.3070 -0.3846 -0.2430
 1724SOL    HW120592   2.691   0.972   4.514  1.0098 -0.9623  1.7432
 1724SOL    HW220593   2.541   0.987   4.515  1.1401  0.6108  0.1120
 1725SOL     OW20594   1.942   0.409  11.642  0.0858 -0.0411  0.7562
 1725SOL    HW120595   2.016   0.379  11.591  0.5004 -0.0893  1.3741
 1725SOL    HW220596   1.975   0.414  11.732  0.3453  3.3069  0.5297
 1726SOL     OW20597   0.207   0.582   8.842 -0.4653 -0.5660 -0.1194
 1726SOL    HW120598   0.160   0.624   8.915 -2.6477 -0.9729 -1.2560
 1726SOL    HW220599   0.247   0.655   8.795  0.2913 -0.2336  1.0049
 1727SOL     OW20600   4.610   1.476  11.989 -0.0698 -0.2033  0.0094
 1727SOL    HW120601   4.604   1.565  11.954 -0.4157 -0.6044 -0.9462
 1727SOL    HW220602   4.520   1.454  12.014 -0.3322 -1.0701 -1.6855
 1728SOL     OW20603   2.816   1.855  11.014 -0.4195 -0.3166  0.6077
 1728SOL    HW120604   2.895   1.908  11.022  0.7661 -1.1921 -3.6954
 1728SOL    HW220605   2.838   1.772  11.055  0.9014 -0.5269 -0.4985
 1729SOL     OW20606   2.134   3.248   1.861  0.3505  0.1054 -0.8463
 1729SOL    HW120607   2.197   3.179   1.879  0.5348  0.7669  1.2144
 1729SOL    HW220608   2.137   3.260   1.766  2.5051 -0.6508 -0.8985
 1730SOL     OW20609   4.800   5.623  10.860  0.2065 -0.4664  0.0614
 1730SOL    HW120610   4.851   5.675  10.797 -0.3478  1.1075  0.8668
 1730SOL    HW220611   4.863   5.563  10.898  0.6282 -1.1755 -1.7261
 1731SOL     OW20612   5.874   0.146   0.895 -0.3928  0.4705 -0.0656
 1731SOL    HW120613   5.842   0.180   0.812 -1.6946 -0.5031  0.0100
 1731SOL    HW220614   5.899   0.055   0.875 -0.1365  0.4249  0.4638
 1732SOL     OW20615   2.067   4.715   2.180 -0.0533  0.4753 -0.1448
 1732SOL    HW120616   2.097   4.775   2.112 -0.3997  0.6085 -0.1780
 1732SOL    HW220617   1.976   4.696   2.158  0.0341 -0.0056 -0.0950
 1733SOL     OW20618   4.641   4.374  12.244  0.4232  0.6008  0.6504
 1733SOL    HW120619   4.708   4.313  12.213 -0.4862 -0.9208  1.5841
 1733SOL    HW220620   4.631   4.437  12.173 -1.4348 -2.6192 -2.0796
 1734SOL     OW20621   0.084   3.173   0.738 -0.3609  0.6716  0.5272
 1734SOL    HW120622   0.117   3.222   0.663 -0.1701 -1.1828 -0.6483
 1734SOL    HW220623   0.159   3.120   0.767 -0.6461  0.8144  1.5561
 1735SOL     OW20624   0.035   3.575   4.105 -0.1328  0.4689 -0.3036
 1735SOL    HW120625  -0.018   3.538   4.035  0.6964  0.5922 -1.0096
 1735SOL    HW220626  -0.013   3.653   4.134 -0.9532 -0.1179 -0.0798
 1736SOL     OW20627   2.293   0.399   4.039  0.3254 -0.4220  0.0510
 1736SOL    HW120628   2.331   0.458   3.974  0.0846  0.0230  0.3088
 1736SOL    HW220629   2.356   0.397   4.110  0.0355  0.0267  0.3209
 1737SOL     OW20630   0.933   1.179  12.478  0.2127 -0.3247 -0.0927
 1737SOL    HW120631   1.010   1.163  12.423  0.8369 -0.3255  0.7642
 1737SOL    HW220632   0.965   1.239  12.546 -0.4603 -0.5799  0.4552
 1738SOL     OW20633   4.690   0.172   8.792  0.7109  0.5540 -0.1743
 1738SOL    HW120634   4.768   0.117   8.785  0.6878  0.2488  1.7648
 1738SOL    HW220635   4.722   0.255   8.827 -0.1531 -0.3638  2.8696
 1739SOL     OW20636   2.818   3.739   2.525  0.1301 -0.3609 -0.2627
 1739SOL    HW120637   2.846   3.649   2.505 -1.0592 -0.6246 -0.7828
 1739SOL    HW220638   2.771   3.768   2.447  0.4374  0.6934 -0.0655
 1740SOL     OW20639   1.900   4.571  12.372  0.1397  0.2375  0.0309
 1740SOL    HW120640   1.958   4.574  12.448  1.0937  0.6801 -0.7039
 1740SOL    HW220641   1.949   4.521  12.306 -0.3191  0.5907 -0.5884
 1741SOL     OW20642   0.509   2.627   3.863  0.1816 -0.2330  0.1240
 1741SOL    HW120643   0.559   2.647   3.942  0.9759 -1.3119 -0.0931
 1741SOL    HW220644   0.485   2.535   3.873  0.0680 -0.3030 -0.7639
 1742SOL     OW20645   2.399   1.764   1.508  0.0105 -0.0008  0.0719
 1742SOL    HW120646   2.474   1.774   1.565  1.7096 -2.3561 -1.6491
 1742SOL    HW220647   2.356   1.683   1.538 -0.0130 -0.3730 -0.9406
 1743SOL     OW20648   0.546   1.690   1.650  0.0688 -0.4259  0.3019
 1743SOL    HW120649   0.512   1.768   1.694 -1.1201 -0.8290  0.0998
 1743SOL    HW220650   0.610   1.725   1.587 -0.9386  0.4605 -0.2581
 1744SOL     OW20651   1.288   2.511   9.007 -0.0118 -0.2239 -0.3911
 1744SOL    HW120652   1.267   2.536   8.917  1.8790  1.0253 -0.5141
 1744SOL    HW220653   1.361   2.450   8.999  2.2828  2.3133  0.3942
 1745SOL     OW20654   2.003   2.443   1.772 -0.3614 -0.2552  0.1868
 1745SOL    HW120655   2.001   2.423   1.679 -0.3045 -0.3148  0.1973
 1745SOL    HW220656   2.046   2.367   1.812 -2.5478 -1.3534  0.5561
 1746SOL     OW20657   5.698   3.075   0.957 -0.0427  0.1850  0.0710
 1746SOL    HW120658   5.604   3.093   0.956  0.0556  0.6447 -1.3000
 1746SOL    HW220659   5.735   3.143   1.013 -0.3491  0.9118 -0.6067
 1747SOL     OW20660   4.258   1.850   8.397  0.4315 -0.2989 -0.0902
 1747SOL    HW120661   4.237   1.943   8.389  1.8393  0.0372 -0.0638
 1747SOL    HW220662   4.330   1.837   8.335 -0.8645 -1.7381 -1.3173
 1748SOL     OW20663   2.140   5.938   9.451  0.4752  0.7930 -0.3662
 1748SOL    HW120664   2.189   5.996   9.510 -0.5903  0.6324  0.6804
 1748SOL    HW220665   2.207   5.882   9.412  1.1783  0.8257  0.7708
 1749SOL     OW20666   2.231   5.164  10.962 -0.1436  0.4506  0.2103
 1749SOL    HW120667   2.255   5.087  11.013  3.6104  1.2888 -0.1476
 1749SOL    HW220668   2.280   5.155  10.880  0.3489  3.1824  0.1411
 1750SOL     OW20669   4.636   1.393  10.678 -0.4598 -0.4577 -0.6089
 1750SOL    HW120670   4.626   1.302  10.706 -1.4534  0.2687  1.4424
 1750SOL    HW220671   4.702   1.429  10.737 -1.7568  0.7821  0.1063
 1751SOL     OW20672   4.235   5.171   9.219  0.2914 -0.0229 -0.5395
 1751SOL    HW120673   4.178   5.106   9.260  2.8771 -0.6881  2.0799
 1751SOL    HW220674   4.296   5.120   9.165  0.7505  0.4207 -0.4442
 1752SOL     OW20675   0.092   3.655  10.020 -0.7712  0.2277  0.3340
 1752SOL    HW120676   0.049   3.571  10.002  1.7665 -0.8835 -0.8553
 1752SOL    HW220677   0.153   3.636  10.092  2.9621 -0.1392 -2.7457
 1753SOL     OW20678   4.471   1.002  12.246  0.3590  0.5731  0.2075
 1753SOL    HW120679   4.532   1.056  12.296  1.3729 -0.5207  0.2019
 1753SOL    HW220680   4.489   1.024  12.154 -1.3970  2.4721  0.2826
 1754SOL     OW20681   4.458   0.161  11.161  0.1935  0.1069  0.1807
 1754SOL    HW120682   4.427   0.221  11.093 -2.1005 -0.2164  0.8772
 1754SOL    HW220683   4.549   0.142  11.137 -0.5417  0.0155 -2.7966
 1755SOL     OW20684   3.410   4.138  10.072 -0.2126 -0.2539  0.1817
 1755SOL    HW120685   3.315   4.139  10.059 -0.5827 -1.0517  2.6104
 1755SOL    HW220686   3.435   4.046  10.064  0.3205 -0.0901 -0.0849
 1756SOL     OW20687   2.601   2.057   1.121  0.4023  0.1455 -0.3444
 1756SOL    HW120688   2.556   1.987   1.073  0.9425 -0.2012 -0.3566
 1756SOL    HW220689   2.548   2.135   1.105 -0.3852 -0.3254 -0.0666
 1757SOL     OW20690   2.465   5.379   0.358 -0.4863 -0.0848  0.5040
 1757SOL    HW120691   2.385   5.429   0.376  0.2108  0.9596  0.6935
 1757SOL    HW220692   2.508   5.427   0.287 -0.2659 -0.9190  0.0628
 1758SOL     OW20693   3.872   2.287  10.032 -0.0502 -0.0393  0.5904
 1758SOL    HW120694   3.872   2.253   9.942 -0.1365 -1.2085  1.0189
 1758SOL    HW220695   3.816   2.226  10.080 -0.0381  0.6069  1.4284
 1759SOL     OW20696   2.564   3.927  11.607  0.8836 -0.1293  0.4615
 1759SOL    HW120697   2.559   3.973  11.691  0.7782 -0.4924  0.6599
 1759SOL    HW220698   2.553   3.995  11.541  2.3580  0.3613  0.7024
 1760SOL     OW20699   0.443   2.862  10.436  0.3667  0.2344  0.1364
 1760SOL    HW120700   0.464   2.781  10.388  0.5881  0.9298 -0.9517
 1760SOL    HW220701   0.348   2.863  10.441  0.3303  0.2914 -0.5264
 1761SOL     OW20702   0.288   2.235  11.551 -0.2010  0.4776 -0.0921
 1761SOL    HW120703   0.236   2.155  11.559 -0.4983  0.6868  0.0911
 1761SOL    HW220704   0.370   2.215  11.595  0.0350  0.0061 -0.7384
 1762SOL     OW20705   3.538   4.042   8.700 -0.0687 -0.1720 -0.4102
 1762SOL    HW120706   3.617   4.011   8.656  1.2753  1.7141  0.5982
 1762SOL    HW220707   3.485   3.963   8.713  0.4516 -1.0902 -3.3946
 1763SOL     OW20708   5.103   0.547   2.314  0.6041 -0.2188  0.0878
 1763SOL    HW120709   5.013   0.577   2.300  0.8118  0.0766 -0.6450
 1763SOL    HW220710   5.096   0.482   2.384  0.0694  1.1502  1.3276
 1764SOL     OW20711   3.433   3.940  11.349 -0.4125 -0.3352 -0.2310
 1764SOL    HW120712   3.451   3.863  11.295  0.1400 -0.1934 -0.2465
 1764SOL    HW220713   3.342   3.963  11.327  0.0256  0.1345 -1.6322
 1765SOL     OW20714   4.747   1.435   7.658 -0.2709  0.2712 -0.6687
 1765SOL    HW120715   4.824   1.433   7.601 -0.0993 -1.7139 -0.4277
 1765SOL    HW220716   4.674   1.410   7.601 -0.7099  1.8578 -0.8288
 1766SOL     OW20717   1.785   2.572   3.961 -0.0203  0.4996 -0.1595
 1766SOL    HW120718   1.776   2.545   3.870 -0.8387  0.0568  0.0424
 1766SOL    HW220719   1.800   2.666   3.957  1.4003  0.2605 -0.8093
 1767SOL     OW20720   0.112   2.368   0.366 -0.2348  0.1259  0.1345
 1767SOL    HW120721   0.139   2.456   0.393  2.1689 -1.0159  1.6505
 1767SOL    HW220722   0.040   2.346   0.426 -0.0371  0.6017  0.5491
 1768SOL     OW20723   0.186   4.401  10.794  0.2220 -0.3163  0.0385
 1768SOL    HW120724   0.262   4.351  10.824  0.0828  0.1331  1.1542
 1768SOL    HW220725   0.181   4.475  10.854 -0.4100  0.2779 -0.7476
 1769SOL     OW20726   3.589   2.748   1.127 -0.3641  0.9869  0.2635
 1769SOL    HW120727   3.594   2.840   1.152  1.8163  1.8035 -2.7498
 1769SOL    HW220728   3.681   2.720   1.121 -0.9911 -1.3304  0.8817
 1770SOL     OW20729   1.237   4.511   7.897 -0.0133  0.4068  0.1066
 1770SOL    HW120730   1.157   4.460   7.906  0.7377 -0.8411 -0.0506
 1770SOL    HW220731   1.219   4.573   7.827 -0.8206  0.0865  0.0309
 1771SOL     OW20732   0.140   4.060  10.244  0.1046 -0.5605  0.5179
 1771SOL    HW120733   0.170   4.065  10.153 -0.6924 -0.6648  0.2389
 1771SOL    HW220734   0.175   4.138  10.286 -1.3191  0.6324 -0.4439
 1772SOL     OW20735   4.140   1.221   8.004 -0.6075  0.0383 -0.6236
 1772SOL    HW120736   4.129   1.315   7.994  0.3922  0.1640 -0.5851
 1772SOL    HW220737   4.221   1.201   7.958 -0.0738 -0.5752  0.5626
 1773SOL     OW20738   4.824   5.577   8.682  0.6187  0.0477  0.1787
 1773SOL    HW120739   4.914   5.545   8.680  0.7289  0.3776 -0.2765
 1773SOL    HW220740   4.777   5.520   8.622  0.4515 -0.3358  0.6721
 1774SOL     OW20741   1.217   1.070   8.250 -0.1111  0.3330 -0.1095
 1774SOL    HW120742   1.242   1.158   8.225 -1.4283  0.5142 -0.8552
 1774SOL    HW220743   1.135   1.081   8.299  0.1220 -0.4039  0.4588
 1775SOL     OW20744   3.722   5.160  12.044 -0.2544 -0.3257 -0.5023
 1775SOL    HW120745   3.656   5.129  12.106  0.3185 -0.5986 -0.0202
 1775SOL    HW220746   3.800   5.173  12.097  0.3339 -0.8764 -1.2359
 1776SOL     OW20747   4.189   3.038   8.987  0.5840  0.6504  0.0659
 1776SOL    HW120748   4.158   3.033   8.896  1.0594  0.0566 -0.0616
 1776SOL    HW220749   4.194   3.132   9.004 -3.5906  0.8318  0.8862
 1777SOL     OW20750   0.280   2.044   9.153 -0.1460 -0.0024 -0.0128
 1777SOL    HW120751   0.272   2.045   9.057 -0.4291  0.0180  0.0104
 1777SOL    HW220752   0.213   1.982   9.182 -0.5205  0.5106  0.2180
 1778SOL     OW20753   4.246   2.685  11.351  0.2973 -0.2454  0.6379
 1778SOL    HW120754   4.304   2.761  11.356  0.1188  0.0251 -1.0792
 1778SOL    HW220755   4.190   2.703  11.275  0.6015 -2.3063 -0.1022
 1779SOL     OW20756   4.071   3.485   2.163  0.0016 -0.3389 -0.0168
 1779SOL    HW120757   4.138   3.487   2.095  0.1125 -0.2133  0.0954
 1779SOL    HW220758   4.043   3.576   2.173  0.8611 -0.1642  0.9659
 1780SOL     OW20759   5.507   3.456   1.658 -0.1221  0.8010 -0.3202
 1780SOL    HW120760   5.589   3.411   1.675 -0.6164 -0.8250 -2.0005
 1780SOL    HW220761   5.483   3.496   1.742  0.9104 -1.1644  0.9606
 1781SOL     OW20762   0.598   5.818   0.548 -0.3171  0.2961 -0.2459
 1781SOL    HW120763   0.676   5.780   0.508 -0.9216 -1.6046  0.3273
 1781SOL    HW220764   0.559   5.746   0.598 -1.6962  1.5818  0.5778
 1782SOL     OW20765   5.487   4.865  10.157 -0.3946 -0.0750 -0.3162
 1782SOL    HW120766   5.455   4.941  10.205  2.2329  0.3750  0.8007
 1782SOL    HW220767   5.416   4.843  10.097 -0.8709  3.7991 -1.2935
 1783SOL     OW20768   1.359   5.800   3.951  0.4770  0.4408 -0.1710
 1783SOL    HW120769   1.419   5.731   3.924 -1.0261 -1.9596  2.3737
 1783SOL    HW220770   1.277   5.780   3.906 -0.2247 -0.0106  1.2695
 1784SOL     OW20771   3.907   3.357  10.369  0.2044  0.2744  0.2845
 1784SOL    HW120772   3.997   3.323  10.359  0.1262  0.3221 -0.6746
 1784SOL    HW220773   3.917   3.435  10.422  0.7395  0.2911  0.1687
 1785SOL     OW20774   3.470   5.721   3.013 -0.3964  0.0711  0.6748
 1785SOL    HW120775   3.454   5.729   3.107 -0.1493 -0.8040  0.7929
 1785SOL    HW220776   3.386   5.696   2.976 -0.3447 -0.1918  0.7364
 1786SOL     OW20777   4.211   2.522  10.875 -0.0802  0.6115  0.0229
 1786SOL    HW120778   4.259   2.590  10.828  1.5827 -0.8627 -0.4431
 1786SOL    HW220779   4.175   2.466  10.807 -0.7831  0.5720  0.4239
 1787SOL     OW20780   2.992   2.502   2.068 -0.1618  0.6250  0.1450
 1787SOL    HW120781   2.999   2.415   2.106 -1.6674  0.2878 -0.3324
 1787SOL    HW220782   3.060   2.504   2.001  0.6206  0.2262  0.9085
 1788SOL     OW20783   5.843   3.499   3.399 -0.0861 -0.3705 -0.3842
 1788SOL    HW120784   5.787   3.576   3.390 -0.2912 -0.6178 -1.2489
 1788SOL    HW220785   5.857   3.469   3.309 -0.1981 -1.4848 -0.0338
 1789SOL     OW20786   2.323   3.897   0.894  0.3001 -0.0398 -0.1652
 1789SOL    HW120787   2.355   3.861   0.977 -0.3371 -0.3216 -0.0333
 1789SOL    HW220788   2.302   3.820   0.842  2.5408  0.1005 -1.3440
 1790SOL     OW20789   0.270   5.673  11.332 -0.2910 -0.2099  0.5162
 1790SOL    HW120790   0.340   5.720  11.377  0.4202  0.2990 -1.0708
 1790SOL    HW220791   0.197   5.735  11.331 -0.5122 -0.4509  1.4954
 1791SOL     OW20792   3.281   5.347   1.416 -0.7094  0.0571  0.3093
 1791SOL    HW120793   3.357   5.311   1.461 -0.0807  0.8311 -0.1139
 1791SOL    HW220794   3.265   5.288   1.342  0.3503  0.6804 -0.4208
 1792SOL     OW20795   5.560   4.381  10.961  0.2471  0.1721  0.0280
 1792SOL    HW120796   5.637   4.432  10.989  0.6516  0.0084 -0.7629
 1792SOL    HW220797   5.489   4.445  10.957  0.9666  0.8762 -1.8609
 1793SOL     OW20798   5.359   0.864   3.415 -0.4342  0.3527 -0.2441
 1793SOL    HW120799   5.393   0.861   3.325  1.3774 -0.5311  0.4359
 1793SOL    HW220800   5.279   0.916   3.409  0.5136  1.6596 -2.0901
 1794SOL     OW20801   0.246   0.284  10.815  0.0792 -0.1359 -0.1669
 1794SOL    HW120802   0.332   0.305  10.851 -0.2086 -0.8365  0.9278
 1794SOL    HW220803   0.249   0.320  10.726  1.0440  0.9605  0.2839
 1795SOL     OW20804   4.350   2.419  11.295  0.5943  0.0683  0.0255
 1795SOL    HW120805   4.325   2.510  11.309 -0.2905 -0.0447 -0.7283
 1795SOL    HW220806   4.399   2.395  11.373  2.1599  1.6516 -0.4339
 1796SOL     OW20807   2.722   5.383   3.981 -0.6513 -0.2211 -0.3138
 1796SOL    HW120808   2.634   5.412   3.956  0.0638  0.0908 -2.5419
 1796SOL    HW220809   2.725   5.291   3.954 -1.4285 -1.2796  2.8739
 1797SOL     OW20810   4.851   3.907   8.527 -0.5971  0.0487  0.1706
 1797SOL    HW120811   4.877   3.971   8.593  0.6231  0.8818 -1.0823
 1797SOL    HW220812   4.933   3.871   8.494 -1.2952 -3.3185  1.9297
 1798SOL     OW20813   2.842   0.253   7.769 -0.0461 -0.3422  0.0510
 1798SOL    HW120814   2.899   0.329   7.782  1.1525 -1.0492 -0.9362
 1798SOL    HW220815   2.753   0.287   7.778  0.5073  0.9694  0.6403
 1799SOL     OW20816   5.435   4.772   1.883 -0.5584 -0.2106  0.1537
 1799SOL    HW120817   5.450   4.707   1.951 -1.2895  1.0177  1.5256
 1799SOL    HW220818   5.415   4.721   1.805  1.4997 -1.6637  0.5392
 1800SOL     OW20819   5.134   1.301   1.414 -0.2419  0.5185 -0.2723
 1800SOL    HW120820   5.144   1.330   1.505  0.1543  1.1130 -0.4994
 1800SOL    HW220821   5.039   1.304   1.399 -0.3186  0.3145  0.1541
 1801SOL     OW20822   4.310   1.348   1.297 -0.6653  0.1415  0.0710
 1801SOL    HW120823   4.348   1.263   1.318  0.2415  0.0781 -1.7077
 1801SOL    HW220824   4.317   1.354   1.202 -1.6298  1.7895  0.0837
 1802SOL     OW20825   0.127   1.114   2.224 -0.2658 -0.2865  0.1238
 1802SOL    HW120826   0.198   1.050   2.226 -0.3218 -0.3082  1.7330
 1802SOL    HW220827   0.170   1.198   2.209 -0.1652 -0.6428 -1.7158
 1803SOL     OW20828   5.911   1.289   9.058 -0.3058  0.3361  0.5232
 1803SOL    HW120829   5.930   1.310   9.149  0.4703 -0.8351  0.6491
 1803SOL    HW220830   5.963   1.352   9.008 -0.1645  0.5115  0.8884
 1804SOL     OW20831   2.035   2.732   3.380  0.3255  0.3297  0.5543
 1804SOL    HW120832   2.005   2.794   3.447  0.2431 -0.8427  1.6222
 1804SOL    HW220833   2.101   2.679   3.424  1.1786  0.3513 -0.6638
 1805SOL     OW20834   2.465   3.174   3.914  0.7555 -0.2249  0.0051
 1805SOL    HW120835   2.494   3.084   3.895  0.0272 -0.0071 -2.3349
 1805SOL    HW220836   2.393   3.163   3.976 -1.5803 -1.5587 -2.7957
 1806SOL     OW20837   5.442   2.102  10.441 -0.1047  0.3792  0.8762
 1806SOL    HW120838   5.499   2.025  10.438 -1.1487 -0.3820  0.2774
 1806SOL    HW220839   5.432   2.128  10.349  0.6262  1.5199  1.1116
 1807SOL     OW20840   3.407   1.547   4.099 -0.2973  0.0328  0.3092
 1807SOL    HW120841   3.473   1.597   4.145 -0.9281 -0.2387  1.5306
 1807SOL    HW220842   3.324   1.577   4.135 -1.0289  2.1530 -2.9514
 1808SOL     OW20843   3.962   4.213   0.075 -0.2682  0.0633  0.6545
 1808SOL    HW120844   3.896   4.282   0.067  0.0349  0.1198 -2.2602
 1808SOL    HW220845   3.912   4.133   0.084 -0.7383  0.2166 -0.4807
 1809SOL     OW20846   1.867   0.061   1.914  0.5014  0.5094  0.0131
 1809SOL    HW120847   1.879   0.002   1.989 -0.0287  0.1005 -0.2141
 1809SOL    HW220848   1.955   0.078   1.881  0.6996  0.3098  0.4386
 1810SOL     OW20849   5.210   0.772   0.484  0.0259 -0.3059  0.3883
 1810SOL    HW120850   5.131   0.765   0.537 -0.2117  1.0346  0.2372
 1810SOL    HW220851   5.181   0.812   0.402  0.8584  0.1961  0.3317
 1811SOL     OW20852   1.612   0.199   1.918  0.1876  0.4430 -0.9374
 1811SOL    HW120853   1.583   0.137   1.985 -1.9101  1.6320 -0.6831
 1811SOL    HW220854   1.707   0.194   1.919  0.0897 -1.7578  0.0278
 1812SOL     OW20855   0.568   1.456   1.324 -0.0039  0.1599 -0.0406
 1812SOL    HW120856   0.500   1.524   1.322  0.3424  0.5215  0.4782
 1812SOL    HW220857   0.525   1.379   1.288 -1.3334 -0.2054  2.2205
 1813SOL     OW20858   0.326   1.476  11.222  0.1580 -0.0847  0.1253
 1813SOL    HW120859   0.289   1.542  11.281  0.3121 -0.4097  0.5823
 1813SOL    HW220860   0.325   1.395  11.272  0.2227 -0.3760 -0.3439
 1814SOL     OW20861   0.845   4.463   2.309  0.1339 -0.3236  0.4407
 1814SOL    HW120862   0.796   4.492   2.386 -2.9781 -2.5776 -0.5512
 1814SOL    HW220863   0.804   4.509   2.236  2.6302  1.3018  0.0161
 1815SOL     OW20864   1.738   1.929   3.338 -0.3424 -0.5324  0.4847
 1815SOL    HW120865   1.800   1.857   3.326 -0.7165 -1.0303  1.4729
 1815SOL    HW220866   1.777   1.983   3.407  0.4569  0.8056 -0.9848
 1816SOL     OW20867   0.762   3.780   7.794 -0.3447  0.0547 -0.2170
 1816SOL    HW120868   0.703   3.713   7.830 -1.7930  1.6129  0.4025
 1816SOL    HW220869   0.809   3.814   7.871  1.7766 -1.5157 -0.7657
 1817SOL     OW20870   1.030   2.755   8.389  0.4329 -0.2199  0.2187
 1817SOL    HW120871   0.981   2.739   8.308  0.3610 -0.3554  0.2888
 1817SOL    HW220872   1.120   2.765   8.360  0.4622 -0.6252  0.1599
 1818SOL     OW20873   4.713   3.590   8.788  0.0469  0.0573  0.3099
 1818SOL    HW120874   4.696   3.531   8.714  2.4202 -0.2997  0.0049
 1818SOL    HW220875   4.771   3.541   8.845  0.9381  1.5740  0.7405
 1819SOL     OW20876   4.621   2.682   1.746 -0.1857 -0.2727  0.4669
 1819SOL    HW120877   4.607   2.645   1.659  0.0598  2.4814 -0.8073
 1819SOL    HW220878   4.702   2.733   1.737 -1.0690  1.3936  1.8420
 1820SOL     OW20879   2.974   3.344   2.854  0.2337  0.0280 -0.1864
 1820SOL    HW120880   2.974   3.269   2.794 -0.8600  0.1297 -0.3238
 1820SOL    HW220881   2.895   3.333   2.906  0.5048  0.6451  0.3588
 1821SOL     OW20882   0.401   4.911  11.826 -0.5307 -0.4175 -0.3824
 1821SOL    HW120883   0.437   4.993  11.792 -1.0565  0.1200  0.3451
 1821SOL    HW220884   0.453   4.892  11.904 -2.7171  1.1130  1.4888
 1822SOL     OW20885   4.429   5.878  10.456  0.0826 -0.2333 -0.3299
 1822SOL    HW120886   4.445   5.851  10.365 -1.3641  0.5206 -0.8178
 1822SOL    HW220887   4.426   5.796  10.505  2.8290 -0.5605 -0.6215
 1823SOL     OW20888   4.136   0.406   1.908  0.3643  0.2640 -0.0982
 1823SOL    HW120889   4.146   0.337   1.973  1.4683 -2.1870 -2.7858
 1823SOL    HW220890   4.059   0.380   1.857  0.9453  0.8854 -1.3155
 1824SOL     OW20891   3.125   0.130  10.560 -0.4140  0.3141 -0.5718
 1824SOL    HW120892   3.202   0.138  10.505 -0.7417  1.0789 -0.9292
 1824SOL    HW220893   3.136   0.046  10.606  1.7648  1.5152  1.1613
 1825SOL     OW20894   0.220   4.446  12.121  0.1621 -0.3131  0.5013
 1825SOL    HW120895   0.296   4.415  12.170 -0.1566 -2.5144 -0.3623
 1825SOL    HW220896   0.155   4.467  12.188  0.5679 -1.0357  1.1265
 1826SOL     OW20897   2.735   1.670   2.380  0.2974 -0.1620 -0.7608
 1826SOL    HW120898   2.667   1.722   2.338  0.6575  0.9026 -0.0671
 1826SOL    HW220899   2.710   1.579   2.365 -1.2503  0.2221 -0.5309
 1827SOL     OW20900   0.165   2.095   3.503 -0.3660  0.1727 -0.2635
 1827SOL    HW120901   0.102   2.063   3.567 -0.6415 -0.3239 -0.7733
 1827SOL    HW220902   0.168   2.189   3.516 -1.1466  0.1862 -0.1744
 1828SOL     OW20903   1.137   5.377   1.234  0.3915 -0.8192 -1.1575
 1828SOL    HW120904   1.177   5.381   1.321  0.3786  1.2582 -1.2192
 1828SOL    HW220905   1.087   5.295   1.235  1.1477 -1.2989  0.4518
 1829SOL     OW20906   3.943   4.529  12.368  0.6401  0.0063 -0.2030
 1829SOL    HW120907   3.984   4.457  12.318  3.0299  0.5646  0.8750
 1829SOL    HW220908   3.896   4.486  12.439 -2.3443 -0.7686 -2.5345
 1830SOL     OW20909   4.233   1.080   1.351 -0.3435 -0.1739 -0.6479
 1830SOL    HW120910   4.201   1.043   1.269 -1.0727 -1.1864  0.0881
 1830SOL    HW220911   4.167   1.057   1.416  0.4519  0.2192  0.3218
 1831SOL     OW20912   3.204   4.269   7.900 -0.0686  0.5219 -0.5006
 1831SOL    HW120913   3.148   4.342   7.872  0.1724  0.8210 -0.2200
 1831SOL    HW220914   3.144   4.205   7.937 -0.2825  0.5935 -0.7275
 1832SOL     OW20915   0.439   5.371   8.502  0.5713 -0.0951  0.1944
 1832SOL    HW120916   0.484   5.329   8.428  0.3939  1.8781 -1.0784
 1832SOL    HW220917   0.509   5.402   8.559  0.7070 -1.8848  1.0182
 1833SOL     OW20918   3.199   3.272  11.156 -0.1293  0.3875 -0.0645
 1833SOL    HW120919   3.174   3.300  11.244 -1.0123 -0.1173 -0.1476
 1833SOL    HW220920   3.119   3.282  11.104  0.5768  1.3419 -0.9684
 1834SOL     OW20921   3.481   1.473   1.799  0.0739  0.0038 -0.1965
 1834SOL    HW120922   3.389   1.497   1.797  0.3289  1.0389  0.3835
 1834SOL    HW220923   3.515   1.511   1.880  1.2483  0.5305 -0.9145
 1835SOL     OW20924   2.933   4.350   3.495  0.1205  0.3022 -0.4551
 1835SOL    HW120925   2.838   4.344   3.505  0.3924 -1.1143  1.6032
 1835SOL    HW220926   2.957   4.273   3.443  0.2379  0.2094 -0.2655
 1836SOL     OW20927   5.181   4.633  11.104 -0.3566  0.4143  0.0090
 1836SOL    HW120928   5.125   4.703  11.072 -1.7281 -0.6989 -0.0643
 1836SOL    HW220929   5.124   4.578  11.158  1.3237  0.8258  2.2934
 1837SOL     OW20930   1.112   5.008  11.365 -0.5617 -0.4181 -0.2434
 1837SOL    HW120931   1.055   5.004  11.289 -1.1972  1.3351  0.1178
 1837SOL    HW220932   1.053   4.993  11.439 -0.6690  1.8252  0.1620
 1838SOL     OW20933   0.448   1.426   8.737 -0.3373  0.2853 -0.4984
 1838SOL    HW120934   0.501   1.419   8.658 -0.2697 -0.0168 -0.4270
 1838SOL    HW220935   0.451   1.339   8.776 -0.5557  0.3727 -0.2822
 1839SOL     OW20936   4.781   0.984   0.391 -0.2821 -0.6986 -0.0357
 1839SOL    HW120937   4.851   0.997   0.327  0.7289 -0.5074  1.0906
 1839SOL    HW220938   4.823   0.999   0.476 -1.8929  0.2266  0.6108
 1840SOL     OW20939   0.204   5.714   1.859  0.1899  0.2733  0.6978
 1840SOL    HW120940   0.223   5.766   1.937  0.4968  0.8937  0.2124
 1840SOL    HW220941   0.173   5.630   1.893  0.8922  0.3321  1.4828
 1841SOL     OW20942   2.870   1.300   9.801  0.0535 -0.7704  0.0261
 1841SOL    HW120943   2.879   1.211   9.835 -1.3190 -0.7795  0.4056
 1841SOL    HW220944   2.776   1.316   9.800  0.3489  1.5437  2.2901
 1842SOL     OW20945   5.070   4.031   3.244 -0.4427  0.6878  0.2437
 1842SOL    HW120946   5.028   4.037   3.330 -0.8761  2.2332 -0.0568
 1842SOL    HW220947   5.133   3.960   3.253 -1.1749  0.1774  1.5381
 1843SOL     OW20948   2.371   4.810  10.964  0.1463 -0.4440  0.2474
 1843SOL    HW120949   2.421   4.736  10.998  0.5364  0.1501  1.0083
 1843SOL    HW220950   2.390   4.881  11.026  0.8896  0.6711 -1.2420
 1844SOL     OW20951   1.562   1.803   1.756 -0.2199  0.0624  0.6666
 1844SOL    HW120952   1.571   1.854   1.837 -1.0774  0.5184  0.4722
 1844SOL    HW220953   1.485   1.839   1.712 -0.2553 -0.7387  0.0469
 1845SOL     OW20954   1.711   3.588   9.468  0.0357  0.9478 -0.2520
 1845SOL    HW120955   1.654   3.550   9.402 -0.0320 -1.0236  0.8923
 1845SOL    HW220956   1.656   3.597   9.546  0.8372  0.6035  0.3663
 1846SOL     OW20957   2.417   5.157   0.190  0.2879 -0.3381 -0.2375
 1846SOL    HW120958   2.467   5.084   0.226  2.4497  0.0015 -2.4213
 1846SOL    HW220959   2.458   5.235   0.226 -2.1297 -0.1313  2.2343
 1847SOL     OW20960   4.990   1.261   2.382  0.5349  0.1783 -0.1053
 1847SOL    HW120961   4.947   1.182   2.413 -0.7353  0.6781 -0.5702
 1847SOL    HW220962   5.069   1.229   2.337 -1.1082 -0.9879 -2.2216
 1848SOL     OW20963   1.574   4.341   2.775  0.2318 -0.1871 -0.3057
 1848SOL    HW120964   1.595   4.249   2.758  1.5774  0.1403 -0.4625
 1848SOL    HW220965   1.530   4.370   2.694  0.7297 -0.4163 -0.6632
 1849SOL     OW20966   0.612   2.918   8.463 -0.2666 -0.6509  0.4709
 1849SOL    HW120967   0.620   2.822   8.471  0.7611 -0.4733  1.6798
 1849SOL    HW220968   0.519   2.932   8.447  0.0458 -2.0704 -3.1772
 1850SOL     OW20969   1.914   3.785   2.577 -0.5581  0.2033 -0.3545
 1850SOL    HW120970   1.979   3.852   2.556  1.4342 -1.6361 -0.2138
 1850SOL    HW220971   1.939   3.753   2.663 -0.3997 -1.9677 -1.1703
 1851SOL     OW20972   5.605   5.250   3.882 -0.1043  0.1140 -0.0032
 1851SOL    HW120973   5.619   5.298   3.800  0.2135 -0.0648 -0.0554
 1851SOL    HW220974   5.590   5.159   3.855 -1.0166  0.2397  0.0751
 1852SOL     OW20975   3.036   2.817   3.374 -0.4552  0.4940 -0.7267
 1852SOL    HW120976   3.113   2.833   3.319  0.2257  1.1368  0.3992
 1852SOL    HW220977   3.047   2.727   3.404  0.1535  0.7747 -0.1019
 1853SOL     OW20978   3.354   5.072  10.402  0.4599  0.2133  0.2233
 1853SOL    HW120979   3.404   5.072  10.321  1.4207  0.4714  0.8144
 1853SOL    HW220980   3.385   5.148  10.451 -0.0350  0.0025  0.8840
 1854SOL     OW20981   2.705   1.155   0.298  0.4936 -0.4266  0.0456
 1854SOL    HW120982   2.720   1.118   0.211 -0.3229  0.3955 -0.4571
 1854SOL    HW220983   2.632   1.216   0.286  1.0880  0.5124  1.0828
 1855SOL     OW20984   2.832   4.736   3.533  0.1744 -0.5600 -0.2320
 1855SOL    HW120985   2.893   4.759   3.603  1.5143 -0.1928 -1.5010
 1855SOL    HW220986   2.751   4.782   3.557  1.0364  0.6939  0.3693
 1856SOL     OW20987   3.711   3.256   8.352 -0.5403 -0.8272  0.3703
 1856SOL    HW120988   3.749   3.294   8.273  0.1606 -0.3866  0.9090
 1856SOL    HW220989   3.728   3.162   8.344  2.0829 -0.4863  1.3265
 1857SOL     OW20990   5.492   1.638   2.532 -0.2275  0.5147 -0.2291
 1857SOL    HW120991   5.516   1.730   2.528 -2.2112  1.1660  2.0305
 1857SOL    HW220992   5.556   1.599   2.592  0.5265  0.3977 -1.0787
 1858SOL     OW20993   5.344   0.600   0.211 -0.2722  0.7830 -0.4031
 1858SOL    HW120994   5.275   0.631   0.152 -2.4065 -0.7442  1.2247
 1858SOL    HW220995   5.338   0.657   0.287  0.5864  0.9381 -0.4483
 1859SOL     OW20996   5.630   1.867  12.307 -0.4872  0.0356 -0.2451
 1859SOL    HW120997   5.587   1.948  12.335 -0.8273  0.2338 -1.3378
 1859SOL    HW220998   5.619   1.865  12.212 -0.2189 -1.1406 -0.2589
 1860SOL     OW20999   3.053   3.480  12.373 -0.1272  0.1335 -0.0900
 1860SOL    HW121000   3.099   3.487  12.289  0.2965  3.0701  0.3262
 1860SOL    HW221001   3.103   3.535  12.433 -2.2539  0.7063  1.2357
 1861SOL     OW21002   5.383   0.301   0.619  0.2085 -0.7360 -0.9508
 1861SOL    HW121003   5.388   0.211   0.649  2.7945 -0.8081 -1.4925
 1861SOL    HW221004   5.462   0.342   0.652 -0.9354  1.3599 -0.7035
 1862SOL     OW21005   5.323   0.199   0.194 -0.8923  0.2151  0.2766
 1862SOL    HW121006   5.305   0.234   0.107 -1.9200 -0.5509  0.1739
 1862SOL    HW221007   5.244   0.151   0.218 -1.1324  1.4768  2.1703
 1863SOL     OW21008   0.430   2.184  11.128  0.3871  0.0773  0.2901
 1863SOL    HW121009   0.409   2.250  11.193 -0.3615  1.1821 -1.0415
 1863SOL    HW221010   0.345   2.151  11.099  0.6653  0.2258 -0.7477
 1864SOL     OW21011   4.699   3.826  10.234 -0.0165 -0.1981 -0.4790
 1864SOL    HW121012   4.745   3.802  10.153 -1.2472 -1.2695 -0.8814
 1864SOL    HW221013   4.651   3.906  10.211 -1.4490 -1.2661 -1.2164
 1865SOL     OW21014   3.282   2.032   2.465  0.5872 -0.0420  0.3963
 1865SOL    HW121015   3.219   2.006   2.533 -0.5062  1.4798  0.0033
 1865SOL    HW221016   3.269   1.969   2.394 -1.3099  0.8919 -0.1297
 1866SOL     OW21017   3.871   2.398  12.104  0.2647 -0.6323 -0.4389
 1866SOL    HW121018   3.810   2.377  12.174  1.7008 -1.0625  0.7228
 1866SOL    HW221019   3.922   2.318  12.092  0.2348 -0.4643 -1.7802
 1867SOL     OW21020   0.628   1.989   9.279 -0.1665  0.1825  0.2580
 1867SOL    HW121021   0.587   1.941   9.208  3.5769  0.1500 -2.0193
 1867SOL    HW221022   0.659   1.921   9.339 -1.6674  0.1343  1.0011
 1868SOL     OW21023   5.743   5.923   3.738 -0.0678  0.1536  0.0106
 1868SOL    HW121024   5.669   5.899   3.794  0.3139  1.6064  1.1760
 1868SOL    HW221025   5.721   6.011   3.707  0.1965 -0.2481 -1.3286
 1869SOL     OW21026   4.189   2.567  11.848 -0.2655  0.4022  0.0568
 1869SOL    HW121027   4.198   2.565  11.753 -0.3949 -0.1285  0.0567
 1869SOL    HW221028   4.095   2.560  11.864 -0.2828  0.9236  0.2148
 1870SOL     OW21029   2.288   4.449  10.012  0.0646 -0.3684  0.2981
 1870SOL    HW121030   2.333   4.523  10.054  0.4260 -0.3667 -0.0952
 1870SOL    HW221031   2.353   4.412   9.953 -1.4973  1.8007 -2.9423
 1871SOL     OW21032   1.321   5.795  11.222  0.0534 -0.5749  0.3759
 1871SOL    HW121033   1.295   5.804  11.130 -1.8323 -0.6128  0.8693
 1871SOL    HW221034   1.376   5.717  11.224  2.8278  1.2857 -1.2355
 1872SOL     OW21035   5.583   2.580  10.684 -0.0020  0.4904  0.0450
 1872SOL    HW121036   5.677   2.599  10.683  0.1095  0.3964  3.4647
 1872SOL    HW221037   5.572   2.512  10.618  2.1821  1.0947 -0.9972
 1873SOL     OW21038   1.740   0.682   9.075  0.0833  0.2137 -0.2087
 1873SOL    HW121039   1.712   0.773   9.077  1.2437  0.5908 -0.2121
 1873SOL    HW221040   1.819   0.683   9.021  1.2303 -0.4430  1.3927
 1874SOL     OW21041   4.872   4.821   1.190 -0.0240 -0.3309 -0.5211
 1874SOL    HW121042   4.874   4.908   1.150 -2.2939 -0.6365 -1.4037
 1874SOL    HW221043   4.945   4.774   1.149  1.6477  1.3405  0.4769
 1875SOL     OW21044   5.577   0.392   0.829  0.2986  0.3502  0.0635
 1875SOL    HW121045   5.621   0.455   0.886  1.0968  0.1003 -0.2652
 1875SOL    HW221046   5.515   0.348   0.886  1.5233 -0.3247  0.9074
 1876SOL     OW21047   4.194   3.517  11.034 -0.1687 -0.1020  0.1992
 1876SOL    HW121048   4.227   3.599  11.072 -0.9942 -0.1237  0.9701
 1876SOL    HW221049   4.272   3.462  11.026  0.0703  0.0157  1.6034
 1877SOL     OW21050   3.352   0.613  11.638  0.1614 -0.0996 -0.2123
 1877SOL    HW121051   3.389   0.550  11.576  0.9507 -0.0034  0.1484
 1877SOL    HW221052   3.291   0.563  11.691 -0.5841 -0.1655 -1.1304
 1878SOL     OW21053   2.552   4.621   9.433 -0.6470  0.0977 -0.4634
 1878SOL    HW121054   2.585   4.700   9.477 -0.8429  0.4359 -0.9160
 1878SOL    HW221055   2.473   4.650   9.388 -1.2952 -0.5996  0.2127
 1879SOL     OW21056   5.393   5.133   8.577  0.1603 -0.2343 -0.3891
 1879SOL    HW121057   5.352   5.179   8.504  0.2391  0.8249  0.2270
 1879SOL    HW221058   5.487   5.153   8.568 -0.1887  2.8384  2.0082
 1880SOL     OW21059   0.805   4.785   1.483 -0.4623  0.0788 -0.4178
 1880SOL    HW121060   0.861   4.713   1.454  0.2895  0.4368  0.1082
 1880SOL    HW221061   0.719   4.766   1.445  0.5947  0.7785 -3.3167
 1881SOL     OW21062   4.555   4.964   7.684  0.2454 -0.1744  0.2371
 1881SOL    HW121063   4.470   5.008   7.680  1.2681  1.9046  1.1385
 1881SOL    HW221064   4.563   4.934   7.774  0.9228  0.5441  0.4185
 1882SOL     OW21065   3.387   5.123   3.192 -0.3931 -0.2862  0.0802
 1882SOL    HW121066   3.468   5.156   3.151  0.4399 -0.1348  1.8197
 1882SOL    HW221067   3.343   5.201   3.225 -0.1892 -0.5639  1.0221
 1883SOL     OW21068   5.296   4.185   1.936  0.0761  0.1320 -0.4059
 1883SOL    HW121069   5.293   4.198   2.031  1.8884 -1.0121 -0.1547
 1883SOL    HW221070   5.357   4.253   1.905 -2.3387  2.0488 -1.0852
 1884SOL     OW21071   1.042   1.258   1.337  0.0742 -0.0506  0.0441
 1884SOL    HW121072   0.964   1.311   1.356  2.1779  2.7635  1.2684
 1884SOL    HW221073   1.063   1.278   1.246 -0.6937 -0.9374 -0.3385
 1885SOL     OW21074   2.582   1.857   4.572  0.1731  0.2232  0.9692
 1885SOL    HW121075   2.494   1.847   4.536 -0.8123  2.1145  2.7636
 1885SOL    HW221076   2.569   1.869   4.666  2.3811  0.2359  1.3227
 1886SOL     OW21077   4.593   0.824   1.575  0.6761  0.0841  0.3481
 1886SOL    HW121078   4.567   0.863   1.491 -0.4549  0.2161  0.7474
 1886SOL    HW221079   4.527   0.757   1.592  1.7504 -0.9664  0.4092
 1887SOL     OW21080   2.151   4.522   1.343 -0.2303 -0.2409 -0.0203
 1887SOL    HW121081   2.064   4.552   1.369 -0.7562 -0.7333 -1.2107
 1887SOL    HW221082   2.169   4.569   1.262  0.4404 -0.4691 -0.0052
 1888SOL     OW21083   1.235   4.319   3.322 -0.3881  0.0365  0.6317
 1888SOL    HW121084   1.241   4.414   3.320  1.1414 -0.0617 -0.1358
 1888SOL    HW221085   1.256   4.292   3.232  0.4830 -1.0888  1.1689
 1889SOL     OW21086   0.026   5.125  12.159  0.1952  0.0997  0.5042
 1889SOL    HW121087  -0.003   5.150  12.071  0.1264  1.3422  0.8690
 1889SOL    HW221088   0.062   5.037  12.148  1.1746  0.6599 -0.9902
 1890SOL     OW21089   5.823   0.777   2.436  0.8200  0.0336  0.0090
 1890SOL    HW121090   5.848   0.869   2.425 -1.8483  0.9136  0.8905
 1890SOL    HW221091   5.737   0.781   2.477  1.4810 -2.8981  1.7841
 1891SOL     OW21092   3.490   0.799  12.390 -0.7434  0.6031 -0.4883
 1891SOL    HW121093   3.534   0.810  12.474 -1.2591  0.5066 -0.2037
 1891SOL    HW221094   3.398   0.784  12.412 -0.9089  0.7161 -1.0734
 1892SOL     OW21095   2.352   0.812   4.292 -0.1258  0.2400 -0.4108
 1892SOL    HW121096   2.399   0.816   4.209  1.0309  0.0819  0.2323
 1892SOL    HW221097   2.407   0.758   4.348 -0.4280  1.1366  0.7641
 1893SOL     OW21098   0.232   3.816  11.191 -0.4441 -0.0854 -0.8310
 1893SOL    HW121099   0.204   3.899  11.152  0.8578  0.4796 -0.6020
 1893SOL    HW221100   0.292   3.779  11.126 -0.0425 -0.2275 -0.3845
 1894SOL     OW21101   0.792   0.681  11.007  0.4654  0.0404  0.7114
 1894SOL    HW121102   0.759   0.762  11.045 -0.7476 -0.1360  0.0511
 1894SOL    HW221103   0.721   0.650  10.951  1.7002 -0.4077 -0.6349
 1895SOL     OW21104   0.600   4.662   1.102  0.4485  0.2195  0.1200
 1895SOL    HW121105   0.581   4.571   1.080  1.8611  0.0220 -0.2933
 1895SOL    HW221106   0.528   4.711   1.062 -0.8255 -0.7898  1.1384
 1896SOL     OW21107   5.123   0.166  11.030  0.3394  0.5892 -0.0510
 1896SOL    HW121108   5.112   0.246  11.081  0.7201 -0.0210  1.0194
 1896SOL    HW221109   5.105   0.192  10.940  0.5687  1.8977  0.2697
 1897SOL     OW21110   1.418   2.429  11.468  0.0246 -0.3312 -0.3068
 1897SOL    HW121111   1.480   2.501  11.464  0.0996 -0.2988  1.4256
 1897SOL    HW221112   1.360   2.443  11.392  0.3167  1.2762 -0.2432
 1898SOL     OW21113   3.643   2.366   9.554 -0.2331  0.3170 -0.2519
 1898SOL    HW121114   3.578   2.435   9.570 -0.3571  0.3154 -0.7364
 1898SOL    HW221115   3.596   2.285   9.570  0.5857  0.3854  2.7838
 1899SOL     OW21116   5.855   1.602   9.009 -0.3643 -0.2973  0.1562
 1899SOL    HW121117   5.795   1.568   9.076 -1.0110  3.1015  1.4075
 1899SOL    HW221118   5.925   1.645   9.059  1.3302 -1.2884 -1.3361
 1900SOL     OW21119   4.678   0.581   0.928  0.2195 -1.1410  0.3099
 1900SOL    HW121120   4.755   0.545   0.973  0.0698 -0.9353  0.7394
 1900SOL    HW221121   4.629   0.625   0.997 -1.0754 -2.5816  0.3412
 1901SOL     OW21122   0.407   5.563  11.845 -0.6195 -0.2448 -0.6041
 1901SOL    HW121123   0.365   5.541  11.762 -0.4458 -2.4615 -0.1263
 1901SOL    HW221124   0.339   5.549  11.911 -0.4327  0.4469 -0.2571
 1902SOL     OW21125   1.935   0.547   0.694 -0.2790 -0.2632 -0.2218
 1902SOL    HW121126   1.861   0.600   0.663  0.0188  1.6167  2.1506
 1902SOL    HW221127   1.930   0.552   0.789  2.6841 -0.4324 -0.0225
 1903SOL     OW21128   1.564   2.625   0.133  0.1789  0.2565  0.1662
 1903SOL    HW121129   1.604   2.625   0.219  0.2213  0.0249  0.1464
 1903SOL    HW221130   1.476   2.661   0.147  0.5214  1.1068  0.1527
 1904SOL     OW21131   2.082   4.351  10.215 -0.1544  0.5983 -0.1595
 1904SOL    HW121132   2.173   4.328  10.195  0.2770  1.5705  0.6373
 1904SOL    HW221133   2.051   4.278  10.269  0.0152  0.0515 -0.8011
 1905SOL     OW21134   4.182   2.572  10.372 -0.0144  0.0108 -0.3132
 1905SOL    HW121135   4.159   2.629  10.446  1.3994  0.0959  0.0770
 1905SOL    HW221136   4.272   2.543  10.391 -0.5405 -1.9746 -0.7434
 1906SOL     OW21137   2.224   1.995   9.439  0.8233  0.2847  0.1590
 1906SOL    HW121138   2.206   1.940   9.363  0.4243 -2.6626  2.2864
 1906SOL    HW221139   2.317   2.015   9.433  1.0764 -1.0319 -0.3846
 1907SOL     OW21140   2.007   0.581   3.660  0.5112 -0.3694  0.4984
 1907SOL    HW121141   2.102   0.580   3.649  0.5881 -0.2526  1.1248
 1907SOL    HW221142   1.981   0.669   3.633  0.4725 -0.6665 -0.4855
 1908SOL     OW21143   2.565   1.694   9.599 -0.1574 -0.7665 -0.0966
 1908SOL    HW121144   2.492   1.725   9.652 -0.7864 -1.0901 -0.7654
 1908SOL    HW221145   2.603   1.623   9.650 -1.0198 -1.3576 -0.2562
 1909SOL     OW21146   1.074   1.500   3.982 -0.3500 -0.2548 -0.0161
 1909SOL    HW121147   1.032   1.414   3.980 -0.5958 -0.2000  1.7546
 1909SOL    HW221148   1.126   1.499   4.062 -0.3634  1.2533  0.0294
 1910SOL     OW21149   1.716   4.557   9.137 -0.1341  0.3065 -0.2927
 1910SOL    HW121150   1.688   4.468   9.115  0.8839 -0.1334  0.2060
 1910SOL    HW221151   1.634   4.607   9.141 -0.7535 -0.7094 -0.0914
 1911SOL     OW21152   1.215   0.271   8.962 -0.0781 -0.2358 -0.3554
 1911SOL    HW121153   1.124   0.271   8.992 -0.1533  0.3349 -0.5925
 1911SOL    HW221154   1.216   0.327   8.885  0.2631 -1.1143 -1.0075
 1912SOL     OW21155   4.311   4.309  12.220 -0.6069 -0.0615  0.1881
 1912SOL    HW121156   4.330   4.279  12.309  3.6230  0.4140 -0.4358
 1912SOL    HW221157   4.316   4.404  12.225 -0.3211 -0.0336 -0.5277
 1913SOL     OW21158   2.843   0.645   0.854  0.1923 -0.0592  0.0644
 1913SOL    HW121159   2.861   0.575   0.791  4.7529  1.0380 -0.0606
 1913SOL    HW221160   2.834   0.723   0.800 -0.1183  0.2084  0.5068
 1914SOL     OW21161   3.186   4.270  10.579 -0.0794 -0.0935 -0.2602
 1914SOL    HW121162   3.254   4.333  10.600  1.0213 -1.7503  1.2882
 1914SOL    HW221163   3.228   4.207  10.520 -0.2128 -1.1664  0.7611
 1915SOL     OW21164   4.038   5.053   1.827 -0.4841  0.2301  0.7048
 1915SOL    HW121165   4.029   4.977   1.885 -0.6518  0.3841  0.8799
 1915SOL    HW221166   3.989   5.030   1.748 -1.1505  0.4637  1.0561
 1916SOL     OW21167   4.595   3.902   9.264 -0.7795 -0.2036 -0.6278
 1916SOL    HW121168   4.617   3.944   9.181  1.1692  0.6384  0.2907
 1916SOL    HW221169   4.651   3.825   9.268  1.1155  1.1982  1.0869
 1917SOL     OW21170   3.200   1.240   2.364 -0.8154  0.2071 -0.3112
 1917SOL    HW121171   3.153   1.159   2.385 -1.3278  0.9076  1.2874
 1917SOL    HW221172   3.182   1.298   2.437  0.9712  1.1755 -0.6104
 1918SOL     OW21173   1.681   1.067  12.198 -0.0702 -0.3598 -0.1596
 1918SOL    HW121174   1.712   0.983  12.233 -2.7980 -0.9410  0.9420
 1918SOL    HW221175   1.683   1.127  12.273 -3.2666 -0.8751  0.3781
 1919SOL     OW21176   5.655   2.191   8.637  0.5919  0.5044  0.3383
 1919SOL    HW121177   5.734   2.243   8.652  2.3226 -2.6698  2.9022
 1919SOL    HW221178   5.661   2.166   8.545  2.9395 -0.1794  0.6426
 1920SOL     OW21179   5.337   0.803  12.323  0.3810 -0.6149  0.0722
 1920SOL    HW121180   5.395   0.727  12.326  1.2712  0.0954  1.0755
 1920SOL    HW221181   5.285   0.796  12.403 -0.1394 -0.6250 -0.2608
 1921SOL     OW21182   0.950   4.459   7.929 -0.1760  0.1869 -0.2620
 1921SOL    HW121183   0.858   4.466   7.956  0.0799  1.0011  0.4090
 1921SOL    HW221184   0.951   4.498   7.842 -0.1022  2.0618  0.5501
 1922SOL     OW21185   1.323   5.773  10.924  0.4344 -0.1629 -0.5818
 1922SOL    HW121186   1.288   5.847  10.874 -0.1073 -0.6726 -0.9654
 1922SOL    HW221187   1.366   5.718  10.859  1.2860  0.0564 -0.2277
 1923SOL     OW21188   4.021   5.165  10.274 -0.1274  0.0060  0.7255
 1923SOL    HW121189   4.018   5.132  10.364  1.1265  0.2413  0.8606
 1923SOL    HW221190   3.946   5.123  10.232 -0.0522 -1.0295  1.5727
 1924SOL     OW21191   4.786   3.467   2.841  0.3141  0.0602 -0.5154
 1924SOL    HW121192   4.718   3.479   2.907  1.0892 -1.7706  0.6575
 1924SOL    HW221193   4.783   3.547   2.789  0.6274  2.1992  2.6121
 1925SOL     OW21194   0.655   1.903   3.665  0.4681 -0.2480  0.2585
 1925SOL    HW121195   0.741   1.865   3.648  0.4373 -0.3668  0.3654
 1925SOL    HW221196   0.660   1.935   3.755  0.6819  0.5141 -0.0171
 1926SOL     OW21197   2.906   2.790   3.065  0.4098  0.0432 -0.0322
 1926SOL    HW121198   2.890   2.696   3.075  1.4033 -0.1732 -0.3763
 1926SOL    HW221199   2.922   2.822   3.154  4.6279 -0.9952 -0.3048
 1927SOL     OW21200   2.272   4.860   8.830  0.4758  0.0098  0.1230
 1927SOL    HW121201   2.239   4.772   8.817  0.5747 -0.0012 -0.0591
 1927SOL    HW221202   2.279   4.870   8.925  0.5213 -0.1989  0.1416
 1928SOL     OW21203   5.298   3.074   0.456  0.0331 -0.5544  0.1346
 1928SOL    HW121204   5.286   3.018   0.379  0.9571  1.3188 -1.4260
 1928SOL    HW221205   5.382   3.047   0.493 -1.9263 -3.7013  2.4713
 1929SOL     OW21206   4.359   1.219   3.605 -0.2695 -0.0376  0.3048
 1929SOL    HW121207   4.347   1.256   3.518 -1.5294 -1.9187 -0.3547
 1929SOL    HW221208   4.315   1.281   3.664 -0.3404  0.6910 -0.5119
 1930SOL     OW21209   1.172   2.136   2.243 -0.1354 -0.4679 -0.1250
 1930SOL    HW121210   1.205   2.207   2.187  0.5876 -0.2081  0.6227
 1930SOL    HW221211   1.102   2.178   2.294  0.3207 -0.2715  0.3488
 1931SOL     OW21212   3.428   5.044   9.528  0.2886  0.0786  0.1670
 1931SOL    HW121213   3.387   5.094   9.457 -0.2177  1.5368  1.4533
 1931SOL    HW221214   3.495   5.102   9.563  1.2972 -1.0697  0.1792
 1932SOL     OW21215   5.561   0.058   0.881 -0.5325  0.0373 -0.2914
 1932SOL    HW121216   5.566   0.021   0.792 -2.5914 -0.8400 -0.0512
 1932SOL    HW221217   5.519   0.144   0.869 -0.3729  0.1285 -0.2102
 1933SOL     OW21218   4.760   3.570   8.409  0.3027 -0.1262 -0.2931
 1933SOL    HW121219   4.692   3.637   8.412 -0.2301 -0.6971  0.2764
 1933SOL    HW221220   4.820   3.594   8.480 -1.5825 -2.0701  2.0117
 1934SOL     OW21221   5.000   1.793   0.846 -0.2354  0.2172 -0.2348
 1934SOL    HW121222   5.017   1.849   0.922  1.7065  1.0464 -1.2260
 1934SOL    HW221223   4.970   1.854   0.778 -4.1935 -0.8042  0.4875
 1935SOL     OW21224   5.716   3.810   0.899  0.3362  0.0757 -0.0185
 1935SOL    HW121225   5.702   3.899   0.931  0.2522  0.5064 -1.2131
 1935SOL    HW221226   5.752   3.762   0.974 -1.5812  0.5759  1.2371
 1936SOL     OW21227   2.232   3.973  10.912 -0.1586 -0.9302  0.0798
 1936SOL    HW121228   2.327   3.972  10.901  0.0122  0.5000  1.1492
 1936SOL    HW221229   2.216   4.048  10.970 -1.9458 -1.0806 -0.1869
 1937SOL     OW21230   2.169   4.643   9.096  0.1245  0.2837 -0.3553
 1937SOL    HW121231   2.106   4.713   9.110 -0.4126 -0.4190  0.8336
 1937SOL    HW221232   2.163   4.623   9.003 -0.6704  0.9228 -0.4402
 1938SOL     OW21233   5.941   1.340   9.320  0.8588  0.1479 -0.0074
 1938SOL    HW121234   5.866   1.310   9.371  0.4757  0.0529 -0.6292
 1938SOL    HW221235   6.001   1.377   9.386  0.7631 -0.7759  0.6177
 1939SOL     OW21236   1.697   4.889  10.654  0.2849  0.2228 -0.1482
 1939SOL    HW121237   1.723   4.977  10.681 -0.9469  0.7690 -0.6972
 1939SOL    HW221238   1.604   4.897  10.635 -0.1669 -1.5515  1.2130
 1940SOL     OW21239   3.468   2.881   8.067  0.1031 -0.2033  0.3352
 1940SOL    HW121240   3.392   2.928   8.101 -0.1618  1.3292 -2.2322
 1940SOL    HW221241   3.541   2.940   8.082  0.0388  0.3334 -1.3636
 1941SOL     OW21242   5.714   1.845  11.252 -0.4017 -0.4189 -0.6951
 1941SOL    HW121243   5.755   1.886  11.175 -0.7658  0.2216 -0.5559
 1941SOL    HW221244   5.662   1.773  11.216  0.9529 -1.3266 -0.8557
 1942SOL     OW21245   3.776   4.503   2.913 -0.1389  0.3746  0.2590
 1942SOL    HW121246   3.847   4.478   2.854  0.1730  0.1670  0.7220
 1942SOL    HW221247   3.706   4.440   2.893  0.1873 -0.0785  0.5343
 1943SOL     OW21248   2.952   0.530   1.592 -0.2543  0.8726 -0.5116
 1943SOL    HW121249   3.028   0.507   1.539 -1.0559 -1.3884 -0.7593
 1943SOL    HW221250   2.988   0.556   1.677  0.7993 -0.3361 -0.5738
 1944SOL     OW21251   4.595   4.208   3.087  0.7337 -0.1785  0.6586
 1944SOL    HW121252   4.560   4.259   3.014  1.5701  1.1665  1.1793
 1944SOL    HW221253   4.519   4.160   3.120  0.3600 -0.8668 -1.1211
 1945SOL     OW21254   1.191   4.594   9.733  0.3409 -0.0118 -0.3015
 1945SOL    HW121255   1.134   4.558   9.664  0.5310 -1.9680  0.5469
 1945SOL    HW221256   1.258   4.643   9.686 -0.5577  0.1438 -1.4332
 1946SOL     OW21257   2.531   5.427  11.447  0.2096 -0.0895 -0.4790
 1946SOL    HW121258   2.479   5.381  11.382 -1.4342 -0.2645  0.9146
 1946SOL    HW221259   2.548   5.362  11.515  0.3907  0.5508  0.1009
 1947SOL     OW21260   2.403   1.467   2.209  0.2189  0.1355 -0.2365
 1947SOL    HW121261   2.363   1.546   2.174 -1.4005 -0.2285  0.7195
 1947SOL    HW221262   2.332   1.402   2.211  1.7490 -1.6717 -1.9352
 1948SOL     OW21263   0.940   0.599   0.279  0.3957  0.0417  0.1917
 1948SOL    HW121264   0.859   0.582   0.231  0.2472  1.3446 -0.0293
 1948SOL    HW221265   0.916   0.594   0.371 -0.4274  2.6061  0.1471
 1949SOL     OW21266   3.769   5.886   2.661  0.0057 -0.4094  0.2177
 1949SOL    HW121267   3.746   5.800   2.696 -1.4486 -0.6866 -1.3333
 1949SOL    HW221268   3.710   5.947   2.707 -0.1668 -0.4598  0.0654
 1950SOL     OW21269   1.003   5.016   0.352 -0.2868 -0.1028  0.5884
 1950SOL    HW121270   1.096   4.995   0.356 -0.2366 -0.3983 -1.7630
 1950SOL    HW221271   0.995   5.099   0.400  1.4698  0.8049 -0.6305
 1951SOL     OW21272   4.176   3.630   3.819  0.2493  0.0284 -0.5190
 1951SOL    HW121273   4.182   3.536   3.836  0.9434 -0.0212 -1.0301
 1951SOL    HW221274   4.092   3.641   3.775  0.1056 -0.3280 -0.3404
 1952SOL     OW21275   5.259   1.671  10.621  0.1544 -0.2400  0.0609
 1952SOL    HW121276   5.204   1.731  10.571 -0.4996  0.7704  1.9043
 1952SOL    HW221277   5.339   1.661  10.570 -0.9826 -0.2511 -1.7540
 1953SOL     OW21278   0.958   1.672  10.882 -0.1846  0.3523 -0.0036
 1953SOL    HW121279   0.884   1.697  10.826 -2.1254 -2.5468  1.1496
 1953SOL    HW221280   1.016   1.749  10.881 -2.7006  2.3158 -1.7270
 1954SOL     OW21281   5.611   4.364   3.027 -0.7283  0.4654 -0.4178
 1954SOL    HW121282   5.578   4.320   3.106 -1.1924  1.0756 -0.2641
 1954SOL    HW221283   5.630   4.293   2.966 -1.9626  0.0688 -0.3595
 1955SOL     OW21284   4.687   5.484   0.376  0.4379  0.1231 -0.0396
 1955SOL    HW121285   4.678   5.405   0.324  1.1485 -0.2924  0.4511
 1955SOL    HW221286   4.608   5.487   0.429  0.3477 -0.1892 -0.1557
 1956SOL     OW21287   3.686   2.558   0.854 -0.5710  0.0202  0.6754
 1956SOL    HW121288   3.739   2.576   0.932  0.1128 -1.7297  0.6432
 1956SOL    HW221289   3.744   2.509   0.796 -1.9466 -1.2061  0.2822
 1957SOL     OW21290   1.013   3.369   3.398 -0.1187 -0.1065  0.7938
 1957SOL    HW121291   1.083   3.392   3.459  0.0110  1.0390  0.2187
 1957SOL    HW221292   1.026   3.427   3.324  0.2871 -2.0988 -0.7594
 1958SOL     OW21293   1.877   5.921  10.056 -0.2452  0.1588 -0.3557
 1958SOL    HW121294   1.835   5.890   9.976  1.5625 -1.0932 -0.8631
 1958SOL    HW221295   1.821   5.888  10.127  0.6057 -2.7458 -0.9607
 1959SOL     OW21296   2.252   4.382   0.874 -0.1546 -0.0718  0.2722
 1959SOL    HW121297   2.211   4.403   0.790  1.7330  2.1653 -0.1277
 1959SOL    HW221298   2.198   4.311   0.909 -1.5890 -0.3650 -2.3445
 1960SOL     OW21299   4.571   3.133  11.031  0.6676 -0.3228  0.2751
 1960SOL    HW121300   4.582   3.206  11.093  0.1397  1.0061 -1.1495
 1960SOL    HW221301   4.655   3.089  11.031  0.7181 -0.2854  1.8539
 1961SOL     OW21302   0.460   5.054   2.009  0.2801 -0.5154 -0.7042
 1961SOL    HW121303   0.528   5.103   2.055  0.6077 -0.5822 -1.1072
 1961SOL    HW221304   0.386   5.115   2.004  0.6626 -0.0758 -1.1469
 1962SOL     OW21305   1.271   0.436   0.983  0.3468  0.3939 -0.0287
 1962SOL    HW121306   1.242   0.447   1.074 -3.4747 -1.4472 -0.9055
 1962SOL    HW221307   1.243   0.516   0.939  0.3944  0.4249 -0.0042
 1963SOL     OW21308   2.285   1.951   0.297 -0.7185  0.2343 -0.0042
 1963SOL    HW121309   2.330   2.034   0.277  1.7935 -1.3691 -1.2856
 1963SOL    HW221310   2.264   1.914   0.211 -0.6842 -1.0691  0.5351
 1964SOL     OW21311   4.656   2.996  11.983  0.4855  0.8251 -0.2005
 1964SOL    HW121312   4.637   2.906  11.958  1.8489 -0.0582  1.8062
 1964SOL    HW221313   4.575   3.028  12.022  0.2150  0.2021 -0.2490
 1965SOL     OW21314   5.035   4.007  10.969  0.7845 -0.1416 -0.5976
 1965SOL    HW121315   5.120   3.984  10.932  0.8760  0.3930 -0.7253
 1965SOL    HW221316   4.975   4.004  10.894  0.7049 -0.4561 -0.5205
 1966SOL     OW21317   0.784   4.805   9.802 -0.1813  0.7980  0.6235
 1966SOL    HW121318   0.766   4.748   9.876 -0.0898  0.1052  0.1152
 1966SOL    HW221319   0.769   4.893   9.835  0.7113  0.5498  1.7267
 1967SOL     OW21320   4.657   3.468   1.809  0.0651  0.7700  0.2674
 1967SOL    HW121321   4.670   3.540   1.747  0.8947  0.1910 -0.2418
 1967SOL    HW221322   4.720   3.401   1.781 -2.1845 -1.0438 -0.5950
 1968SOL     OW21323   5.464   2.367   0.309 -0.6033 -0.4080  0.2716
 1968SOL    HW121324   5.502   2.419   0.379 -0.4911 -1.7941  1.2626
 1968SOL    HW221325   5.495   2.278   0.326 -0.8470 -0.8189 -1.3403
 1969SOL     OW21326   0.625   3.055  10.456  0.2207 -0.3484  0.6448
 1969SOL    HW121327   0.560   2.987  10.442  0.3688 -0.4645  0.5170
 1969SOL    HW221328   0.693   3.037  10.392 -0.3503  0.6742 -0.2727
 1970SOL     OW21329   5.291   0.876   9.995 -0.0932  1.2177 -0.1610
 1970SOL    HW121330   5.290   0.926   9.913  3.5961  0.5305 -0.7160
 1970SOL    HW221331   5.359   0.918  10.048  1.7452 -1.9409  0.1338
 1971SOL     OW21332   0.849   2.035   2.742  0.5075 -0.3722  0.3750
 1971SOL    HW121333   0.927   1.996   2.703 -0.1448 -0.1079 -1.2403
 1971SOL    HW221334   0.841   1.993   2.828  1.4336 -1.6807 -0.1675
 1972SOL     OW21335   0.424   3.280   0.124 -0.0272 -0.1580  0.4389
 1972SOL    HW121336   0.458   3.234   0.047  0.5258  1.5355 -0.3395
 1972SOL    HW221337   0.329   3.265   0.121 -0.1485  0.7968 -1.1955
 1973SOL     OW21338   3.588   4.770   0.776  0.0031 -0.2714 -0.0649
 1973SOL    HW121339   3.655   4.726   0.723  0.6348  1.5262 -0.7771
 1973SOL    HW221340   3.596   4.863   0.754 -1.8915  0.1252  0.7854
 1974SOL     OW21341   4.394   0.591   9.131 -0.8086  0.0871  0.4961
 1974SOL    HW121342   4.407   0.652   9.059  0.3902  2.0465  2.3158
 1974SOL    HW221343   4.468   0.530   9.125  0.1222  1.1435  0.9018
 1975SOL     OW21344   5.163   5.860   0.493  0.9315 -0.0730 -0.0805
 1975SOL    HW121345   5.136   5.769   0.480  0.6453  0.1494 -1.1688
 1975SOL    HW221346   5.120   5.887   0.574  1.8274 -1.2052  0.7844
 1976SOL     OW21347   1.145   4.639   0.973 -0.1278 -0.2442 -0.6439
 1976SOL    HW121348   1.059   4.660   1.010  0.1966  1.6059 -0.8842
 1976SOL    HW221349   1.207   4.655   1.044  0.0264 -1.6887 -0.4335
 1977SOL     OW21350   0.633   1.143   3.027 -0.2320  0.5943 -0.1731
 1977SOL    HW121351   0.664   1.151   3.117  0.0383 -3.3653  0.1784
 1977SOL    HW221352   0.540   1.121   3.035 -0.3891  0.9780 -0.8895
 1978SOL     OW21353   0.826   0.641   2.479  0.6078  0.2249 -0.0774
 1978SOL    HW121354   0.852   0.643   2.387  0.7115 -0.7312 -0.0736
 1978SOL    HW221355   0.816   0.548   2.499  0.3903  0.4377  0.8241
 1979SOL     OW21356   3.106   3.081   2.405 -0.2344 -0.0911  0.4681
 1979SOL    HW121357   3.105   3.047   2.315 -1.1576 -0.1192  0.4888
 1979SOL    HW221358   3.198   3.103   2.421  0.4486 -2.7481  0.4987
 1980SOL     OW21359   2.665   1.019  10.924  0.2866  0.6505  0.7435
 1980SOL    HW121360   2.652   1.108  10.956 -0.2142  1.3514 -1.3072
 1980SOL    HW221361   2.586   0.972  10.952 -1.4653  1.9648 -1.8084
 1981SOL     OW21362   3.969   5.146   9.034 -0.1996  0.2199  0.1073
 1981SOL    HW121363   3.909   5.174   9.103 -0.2547  0.5307 -0.0605
 1981SOL    HW221364   3.955   5.209   8.963  1.0500  0.9215  0.4574
 1982SOL     OW21365   3.179   5.163   9.848 -0.1488 -0.7568  0.0236
 1982SOL    HW121366   3.251   5.226   9.850  0.0131 -0.9363 -0.0506
 1982SOL    HW221367   3.219   5.080   9.876 -0.0583 -1.1159 -1.1412
 1983SOL     OW21368   4.271   2.429   8.175 -0.3235 -0.0706  0.2368
 1983SOL    HW121369   4.247   2.515   8.210  0.4339  0.6420 -0.9978
 1983SOL    HW221370   4.358   2.441   8.138 -0.8811 -0.9687 -1.3994
 1984SOL     OW21371   5.647   0.140   9.080  0.3073 -0.2899  0.1131
 1984SOL    HW121372   5.574   0.174   9.132  0.2827 -2.3314  1.4679
 1984SOL    HW221373   5.616   0.056   9.047  1.0028  0.1637 -1.7313
 1985SOL     OW21374   3.643   4.801  10.497 -0.7347  0.2740 -0.4896
 1985SOL    HW121375   3.724   4.753  10.514 -1.1362 -0.2915 -0.1697
 1985SOL    HW221376   3.667   4.866  10.431  0.0412  0.2832 -0.1982
 1986SOL     OW21377   0.003   4.906   9.615  0.3638  0.6717  0.2442
 1986SOL    HW121378   0.079   4.881   9.668 -0.3959  1.5279  1.7478
 1986SOL    HW221379  -0.072   4.872   9.663 -0.3030  1.0525 -0.5211
 1987SOL     OW21380   2.759   4.916  11.959  0.5599  0.5113 -0.2983
 1987SOL    HW121381   2.739   5.007  11.936  2.9836  0.7377 -1.7375
 1987SOL    HW221382   2.693   4.891  12.023  0.8481  3.8281  1.3785
 1988SOL     OW21383   0.284   3.473   3.298 -0.3139 -0.0206 -0.2382
 1988SOL    HW121384   0.235   3.416   3.237  1.3724 -2.5952  0.7242
 1988SOL    HW221385   0.349   3.516   3.243 -0.0951 -0.8126 -0.6200
 1989SOL     OW21386   1.581   3.621   9.691  0.0849  0.6147 -0.3869
 1989SOL    HW121387   1.622   3.662   9.768  0.1916  1.6974 -1.0204
 1989SOL    HW221388   1.584   3.527   9.710  2.2446  0.7138 -0.0935
 1990SOL     OW21389   3.805   1.986   9.762  0.3338 -0.0050  0.2389
 1990SOL    HW121390   3.865   2.060   9.761  0.3570 -0.0257 -0.2503
 1990SOL    HW221391   3.797   1.961   9.670  1.2360 -1.3461  0.5140
 1991SOL     OW21392   2.286   2.489   2.494  0.1350 -0.2245 -0.1949
 1991SOL    HW121393   2.225   2.430   2.540 -0.8429  0.5723 -0.4581
 1991SOL    HW221394   2.241   2.573   2.491 -0.1603 -0.4350 -3.2866
 1992SOL     OW21395   2.011   2.249  12.415  0.5174 -0.6927 -0.3123
 1992SOL    HW121396   1.986   2.272  12.325  1.0417 -0.9865 -0.5389
 1992SOL    HW221397   2.029   2.333  12.457  1.7216 -0.6247 -0.9264
 1993SOL     OW21398   4.777   3.881   8.851 -0.3270 -0.2344 -0.3357
 1993SOL    HW121399   4.741   3.793   8.852 -0.9501  0.0213  0.2479
 1993SOL    HW221400   4.710   3.935   8.893 -0.7920  0.8308 -2.3793
 1994SOL     OW21401   1.071   0.476  10.351  0.1885  0.3533  0.0653
 1994SOL    HW121402   1.148   0.486  10.295  0.1286 -0.7614 -0.2282
 1994SOL    HW221403   1.057   0.382  10.355 -1.7635  0.5950 -0.7114
 1995SOL     OW21404   3.813   4.259  10.042  0.1615 -0.1043  0.0061
 1995SOL    HW121405   3.843   4.168  10.036  0.6921  0.1086 -0.6422
 1995SOL    HW221406   3.737   4.263   9.983  0.3039 -0.0597 -0.1755
 1996SOL     OW21407   3.637   4.861   9.763  0.1021  0.7030 -0.3934
 1996SOL    HW121408   3.641   4.772   9.799 -0.7640  0.6607 -0.4027
 1996SOL    HW221409   3.710   4.906   9.805 -0.0217  0.2499  0.3288
 1997SOL     OW21410   0.960   5.401   9.842 -0.0231 -0.0475 -0.3736
 1997SOL    HW121411   1.042   5.387   9.889  0.5105 -0.6985 -1.4866
 1997SOL    HW221412   0.932   5.489   9.868 -0.7904 -1.1347  2.7154
 1998SOL     OW21413   3.997   4.241   8.450  0.0028  0.3361 -0.3772
 1998SOL    HW121414   3.990   4.147   8.433 -0.6415  0.2894  0.1121
 1998SOL    HW221415   4.049   4.275   8.377 -1.8482 -0.0123 -1.8782
 1999SOL     OW21416   3.800   3.002   1.075  0.2629  0.2956  0.2189
 1999SOL    HW121417   3.788   3.086   1.120 -0.1572  0.8527 -0.9066
 1999SOL    HW221418   3.715   2.984   1.035 -0.0454 -1.3455  1.5687
 2000SOL     OW21419   2.231   5.286   0.897  0.0353 -0.1892 -0.0763
 2000SOL    HW121420   2.154   5.332   0.931 -0.1800  0.2344 -1.1297
 2000SOL    HW221421   2.293   5.356   0.877  0.1531 -0.4412 -0.5805
 2001SOL     OW21422   2.257   3.644  12.400 -0.2011 -0.1438  0.3209
 2001SOL    HW121423   2.201   3.719  12.383  2.7852  2.2162  0.5693
 2001SOL    HW221424   2.244   3.625  12.493 -0.0089  0.8741  0.5588
 2002SOL     OW21425   0.671   4.109   3.189  0.4099  0.1254  0.2886
 2002SOL    HW121426   0.716   4.136   3.268  0.1784  0.6211  0.2539
 2002SOL    HW221427   0.646   4.191   3.146 -0.2773 -0.1406  0.1679
 2003SOL     OW21428   2.530   5.391   2.564  0.3567  0.3127  0.3425
 2003SOL    HW121429   2.614   5.349   2.585  0.3012 -0.0747 -0.2076
 2003SOL    HW221430   2.475   5.374   2.640 -0.1653 -1.9352 -0.5181
 2004SOL     OW21431   4.050   4.503   2.011 -0.2255  0.5850 -0.9083
 2004SOL    HW121432   3.994   4.466   1.943  0.0756 -2.4895  0.4211
 2004SOL    HW221433   3.990   4.524   2.083  0.0368 -1.1382 -0.1378
 2005SOL     OW21434   0.894   2.751   3.534  0.3852  0.4221  0.3162
 2005SOL    HW121435   0.835   2.799   3.592 -0.7070 -0.0633 -0.3489
 2005SOL    HW221436   0.928   2.679   3.588 -0.0892  0.3694  0.5515
 2006SOL     OW21437   3.757   4.023   3.141 -0.3305  0.0961  0.4496
 2006SOL    HW121438   3.776   4.116   3.152 -0.7681  0.2143  0.2280
 2006SOL    HW221439   3.756   4.010   3.046 -1.5450  0.1354  0.4482
 2007SOL     OW21440   5.502   1.762   3.254 -0.4653 -0.0115  0.5128
 2007SOL    HW121441   5.579   1.712   3.227 -1.2658 -0.4760 -0.9288
 2007SOL    HW221442   5.538   1.842   3.293  0.7295  0.0143 -0.6161
 2008SOL     OW21443   2.939   5.246   8.662  0.2617  0.0424 -0.6494
 2008SOL    HW121444   2.870   5.223   8.724  1.8126 -4.7241 -0.5280
 2008SOL    HW221445   2.892   5.288   8.589 -2.3027  0.1033  0.9671
 2009SOL     OW21446   2.426   0.727   3.443 -0.1326  0.2205 -0.5770
 2009SOL    HW121447   2.423   0.748   3.349  1.0814 -2.8770 -1.3717
 2009SOL    HW221448   2.520   0.726   3.464 -0.2233 -2.0555 -0.0993
 2010SOL     OW21449   1.709   2.437  10.587 -0.1381 -0.2480 -0.4943
 2010SOL    HW121450   1.710   2.442  10.683  0.1055 -0.7429 -0.4696
 2010SOL    HW221451   1.678   2.524  10.559 -4.0395 -1.3553  0.1401
 2011SOL     OW21452   5.676   2.842   9.393  0.3596  0.7416 -0.2658
 2011SOL    HW121453   5.714   2.902   9.457  0.2866 -0.1404  0.6274
 2011SOL    HW221454   5.727   2.855   9.313  2.7052 -0.5481  0.9567
 2012SOL     OW21455   0.990   0.001   3.445 -0.1476 -0.2089 -0.2241
 2012SOL    HW121456   1.015   0.092   3.464 -2.9211  0.1490  2.0992
 2012SOL    HW221457   0.951   0.004   3.358 -0.8361  0.9732  0.1093
 2013SOL     OW21458   3.599   2.718   3.323  0.1410  0.0082 -0.0165
 2013SOL    HW121459   3.623   2.625   3.316  2.2473  0.5859 -0.6529
 2013SOL    HW221460   3.527   2.719   3.386  0.1881 -2.0479  0.1032
 2014SOL     OW21461   1.849   0.939   8.695 -0.1900  0.1227  0.3294
 2014SOL    HW121462   1.940   0.918   8.716 -0.4210 -0.6696  0.5518
 2014SOL    HW221463   1.842   1.032   8.715  0.1018 -0.1934  2.0237
 2015SOL     OW21464   4.587   1.804   8.538 -0.3104  0.4249 -0.3286
 2015SOL    HW121465   4.629   1.725   8.503  0.1522  0.0320  1.0845
 2015SOL    HW221466   4.565   1.855   8.460  0.2441 -0.6580 -1.2227
 2016SOL     OW21467   0.302   2.759  11.344  0.1083  0.1365  0.0077
 2016SOL    HW121468   0.299   2.797  11.256  0.3332 -0.7919 -0.4131
 2016SOL    HW221469   0.371   2.692  11.339  0.1842  0.1387  0.9132
 2017SOL     OW21470   1.638   3.167   9.484  0.4007  0.0239  0.3101
 2017SOL    HW121471   1.559   3.169   9.430  1.3840 -1.8818 -1.2367
 2017SOL    HW221472   1.692   3.238   9.449  0.2375  0.0021  0.0045
 2018SOL     OW21473   2.172   5.163   2.218 -0.2690 -0.2492 -0.1950
 2018SOL    HW121474   2.123   5.241   2.193 -2.5015 -2.0025 -1.5694
 2018SOL    HW221475   2.234   5.150   2.146 -0.8411 -0.4998 -0.6489
 2019SOL     OW21476   4.354   0.509   9.923 -0.0160 -0.6996 -0.4310
 2019SOL    HW121477   4.329   0.598   9.897 -1.3746 -0.9371 -0.0145
 2019SOL    HW221478   4.279   0.478   9.975  0.6326 -1.9254 -0.2166
 2020SOL     OW21479   5.815   2.362   9.893  0.3212  0.4027 -0.1695
 2020SOL    HW121480   5.815   2.457   9.901 -0.9851  0.4821 -0.9244
 2020SOL    HW221481   5.883   2.342   9.829 -1.9166  1.1271 -2.8823
 2021SOL     OW21482   1.372   3.764   3.510  0.3062 -0.0449  0.1313
 2021SOL    HW121483   1.312   3.745   3.582 -1.2191 -1.1663 -1.4198
 2021SOL    HW221484   1.325   3.827   3.455  0.5580 -0.8911 -1.0664
 2022SOL     OW21485   3.752   4.156  10.424 -0.1837 -0.4260 -0.1548
 2022SOL    HW121486   3.825   4.200  10.468 -0.0573  0.0237 -0.8128
 2022SOL    HW221487   3.790   4.075  10.391 -0.0170 -0.2576 -0.3767
 2023SOL     OW21488   3.357   3.657   0.955 -0.1745 -0.3043  0.3067
 2023SOL    HW121489   3.443   3.660   0.997 -0.0996 -0.9010  0.2043
 2023SOL    HW221490   3.326   3.747   0.958  1.3625  0.3095 -1.5210
 2024SOL     OW21491   4.028   3.814  12.448 -0.5847 -0.0150 -0.2934
 2024SOL    HW121492   4.091   3.798  12.377 -0.4655 -0.5925 -0.0563
 2024SOL    HW221493   4.079   3.801  12.528 -1.0403 -0.5966 -0.0998
 2025SOL     OW21494   1.373   4.165  10.833 -0.2458 -0.6210  0.2786
 2025SOL    HW121495   1.410   4.198  10.915 -0.4888 -1.3260  0.6818
 2025SOL    HW221496   1.445   4.121  10.790  0.5816  2.0443 -1.1632
 2026SOL     OW21497   2.589   4.697   7.770  0.2683  0.0782  0.4013
 2026SOL    HW121498   2.532   4.668   7.699  0.4387 -1.3015  0.8130
 2026SOL    HW221499   2.570   4.790   7.780 -2.5918 -0.5309  1.1345
 2027SOL     OW21500   2.925   5.420  11.278 -0.0942  0.2718 -0.2443
 2027SOL    HW121501   2.982   5.360  11.230 -2.0475 -1.8552  0.0185
 2027SOL    HW221502   2.887   5.475  11.210  1.5768  1.1359 -0.5099
 2028SOL     OW21503   0.813   0.285   3.784  0.0381  0.4437  0.0135
 2028SOL    HW121504   0.792   0.192   3.786 -1.1138  0.7186  1.5023
 2028SOL    HW221505   0.775   0.320   3.865  1.8286  1.9114  0.2452
 2029SOL     OW21506   3.934   3.924  10.380 -1.0348  0.1443  0.3935
 2029SOL    HW121507   4.006   3.986  10.391 -1.2158  0.6363 -1.0880
 2029SOL    HW221508   3.976   3.841  10.357 -0.9116  0.3436 -0.1164
 2030SOL     OW21509   4.730   5.878   0.693 -0.3163  0.4579  0.0004
 2030SOL    HW121510   4.682   5.947   0.739  0.7253  1.0808  0.1683
 2030SOL    HW221511   4.779   5.924   0.625  0.6955 -0.0650  0.3665
 2031SOL     OW21512   4.379   5.145   0.118 -0.0819 -0.0463 -0.1506
 2031SOL    HW121513   4.381   5.241   0.115 -2.7790  0.0481 -0.5670
 2031SOL    HW221514   4.428   5.118   0.040  0.7704  0.9769  0.0087
 2032SOL     OW21515   5.492   4.067   0.595  0.2363 -0.1903 -0.0522
 2032SOL    HW121516   5.530   3.979   0.594 -0.7555 -0.6310 -0.6189
 2032SOL    HW221517   5.441   4.070   0.676  0.2621 -0.1364 -0.0369
 2033SOL     OW21518   4.941   2.404   8.219 -0.4263 -0.1018 -0.3442
 2033SOL    HW121519   5.008   2.459   8.179 -0.6647 -0.1166 -0.7586
 2033SOL    HW221520   4.877   2.390   8.151 -0.5912 -0.5247 -0.1038
 2034SOL     OW21521   5.341   2.656   7.936 -0.1036  0.2960  0.3124
 2034SOL    HW121522   5.394   2.591   7.983  0.7095 -0.5106 -1.6669
 2034SOL    HW221523   5.380   2.660   7.849 -1.7500  1.5836 -0.3890
 2035SOL     OW21524   2.053   1.985  11.016  0.1271 -0.0201  0.5991
 2035SOL    HW121525   2.133   1.932  11.019  0.8914  0.9620 -1.4348
 2035SOL    HW221526   1.982   1.921  11.020  1.0335 -1.0561  0.3487
 2036SOL     OW21527   4.902   1.206   3.260  0.4421  0.1544  0.5901
 2036SOL    HW121528   4.928   1.290   3.297 -0.8099  1.0935 -0.5684
 2036SOL    HW221529   4.978   1.177   3.210  0.4866  1.2064  0.0140
 2037SOL     OW21530   3.690   1.190   2.700  0.7682 -0.2737 -0.1957
 2037SOL    HW121531   3.681   1.097   2.678 -1.0163 -0.1714  0.0408
 2037SOL    HW221532   3.655   1.236   2.623 -0.9178  0.1549  0.8108
 2038SOL     OW21533   0.735   3.391   1.228  0.0194 -0.0838  0.6115
 2038SOL    HW121534   0.747   3.412   1.135 -0.7054  0.0935  0.5523
 2038SOL    HW221535   0.719   3.297   1.230  0.1938 -0.1155  0.5759
 2039SOL     OW21536   0.437   0.255   1.884 -0.5278 -0.9558  0.0486
 2039SOL    HW121537   0.360   0.311   1.901 -2.1132 -2.9986 -0.2539
 2039SOL    HW221538   0.456   0.268   1.792  1.2131  1.6274  0.7106
 2040SOL     OW21539   3.063   3.099  11.893  0.6734  0.0095 -0.0489
 2040SOL    HW121540   3.090   3.090  11.801  0.0203 -2.6263 -0.0140
 2040SOL    HW221541   2.971   3.075  11.893  0.4240  0.9758  1.1508
 2041SOL     OW21542   2.698   5.652   9.229 -0.3617 -0.6009 -0.5091
 2041SOL    HW121543   2.692   5.574   9.285  1.0781 -0.6254 -0.3599
 2041SOL    HW221544   2.652   5.628   9.149 -1.0835 -1.1225  0.0501
 2042SOL     OW21545   0.811   5.499  11.546 -0.3183 -0.4806  0.0032
 2042SOL    HW121546   0.871   5.536  11.611 -0.3748  1.0070 -0.7620
 2042SOL    HW221547   0.866   5.480  11.470 -0.8198  1.0637 -0.7703
 2043SOL     OW21548   5.498   3.252   8.600  0.0858 -0.4841  0.3820
 2043SOL    HW121549   5.561   3.215   8.538  0.5876 -0.1948  0.7163
 2043SOL    HW221550   5.420   3.269   8.547  0.6957  0.2809 -0.2927
 2044SOL     OW21551   3.691   5.912  10.571 -0.1688 -0.1396  0.2876
 2044SOL    HW121552   3.618   5.916  10.633 -0.1118  1.0831  0.2753
 2044SOL    HW221553   3.711   6.003  10.551  2.6278 -0.3849  1.7786
 2045SOL     OW21554   4.044   1.156  12.110 -0.7044  0.8225 -0.3406
 2045SOL    HW121555   4.024   1.243  12.074  1.7842  1.4005 -0.4445
 2045SOL    HW221556   4.084   1.109  12.037 -0.5008  0.1549  0.1995
 2046SOL     OW21557   5.797   3.913   9.585 -0.0681 -0.3370 -0.4832
 2046SOL    HW121558   5.727   3.903   9.649  0.0814  1.0471 -0.0875
 2046SOL    HW221559   5.803   4.007   9.570  2.1690 -0.3703  0.0268
 2047SOL     OW21560   0.524   0.409  11.564  0.6019  0.7614  0.1262
 2047SOL    HW121561   0.548   0.437  11.476  0.7438  1.2020  0.3013
 2047SOL    HW221562   0.567   0.472  11.622  0.0415  0.8195  0.4851
 2048SOL     OW21563   0.280   1.704   3.191 -0.2982 -0.1696  0.1518
 2048SOL    HW121564   0.321   1.773   3.243  0.2115 -0.3014 -0.0623
 2048SOL    HW221565   0.344   1.686   3.121 -0.2329 -1.1577  0.4547
 2049SOL     OW21566   0.554   5.802   9.750  0.2301 -0.6615  0.6247
 2049SOL    HW121567   0.506   5.884   9.739 -0.9487 -1.4022  0.0938
 2049SOL    HW221568   0.542   5.779   9.842  0.6229 -0.2027  0.7906
 2050SOL     OW21569   4.311   0.377  12.414  0.7029 -0.0328 -0.2187
 2050SOL    HW121570   4.283   0.349  12.327  2.1037  0.5053 -0.8625
 2050SOL    HW221571   4.305   0.473  12.412 -0.9434 -0.0995  0.8702
 2051SOL     OW21572   1.831   2.736   9.464  0.3314 -1.0955  0.0000
 2051SOL    HW121573   1.842   2.645   9.493 -3.4990 -2.0034 -1.2046
 2051SOL    HW221574   1.799   2.782   9.541 -0.6001 -1.4151 -0.1961
 2052SOL     OW21575   5.772   2.634   1.800  0.1743  0.1002 -0.9808
 2052SOL    HW121576   5.774   2.686   1.881  2.1585 -0.1536 -0.8277
 2052SOL    HW221577   5.783   2.544   1.830 -0.2309 -0.1109 -1.4656
 2053SOL     OW21578   0.392   1.796  11.677  0.0170  0.0380  0.5444
 2053SOL    HW121579   0.375   1.801  11.771 -0.8187  0.0725  0.3971
 2053SOL    HW221580   0.432   1.880  11.655 -1.7247  0.8938  0.4992
 2054SOL     OW21581   4.593   1.716  11.868  0.3538 -0.4578  0.1223
 2054SOL    HW121582   4.646   1.785  11.829 -0.0249 -0.7771 -0.9783
 2054SOL    HW221583   4.502   1.744  11.853  0.1559  0.4441  2.6127
 2055SOL     OW21584   0.131   0.931   3.973  0.7331 -0.0157  0.3427
 2055SOL    HW121585   0.138   0.907   3.880  1.6486  0.6295  0.2321
 2055SOL    HW221586   0.175   0.859   4.019  0.9980  0.0603  0.2138
 2056SOL     OW21587   0.790   3.389   4.482 -0.1956 -0.7026 -0.3190
 2056SOL    HW121588   0.747   3.417   4.401 -1.6731  0.6768  0.9258
 2056SOL    HW221589   0.719   3.368   4.541  0.8374  0.3543  1.3387
 2057SOL     OW21590   2.354   0.054   3.682 -0.2201 -0.0753 -0.3112
 2057SOL    HW121591   2.304   0.067   3.601 -0.1857  0.3910 -0.2627
 2057SOL    HW221592   2.444   0.039   3.653 -0.3202 -0.5398 -0.3854
 2058SOL     OW21593   1.899   0.988   3.208 -0.2519  0.0187  0.3100
 2058SOL    HW121594   1.828   1.052   3.215  1.8165  2.3129  0.9893
 2058SOL    HW221595   1.978   1.041   3.201  1.4269 -2.4874 -0.1916
 2059SOL     OW21596   2.600   2.142   1.536  0.5796 -0.4654  0.6904
 2059SOL    HW121597   2.516   2.117   1.499  1.4414  0.1066 -1.7282
 2059SOL    HW221598   2.579   2.210   1.600 -0.7085  0.4729 -0.6993
 2060SOL     OW21599   2.635   0.497   4.608  0.1495 -0.1004  0.4574
 2060SOL    HW121600   2.706   0.477   4.669  0.1609  2.8791  1.4794
 2060SOL    HW221601   2.589   0.414   4.598  3.9406 -2.1957 -0.4882
 2061SOL     OW21602   4.693   0.433  10.375 -0.0775  0.1201  0.0840
 2061SOL    HW121603   4.731   0.354  10.337 -0.1518  0.3740 -0.5239
 2061SOL    HW221604   4.763   0.470  10.429 -0.7458 -1.5484  2.1894
 2062SOL     OW21605   1.054   1.740   3.006  0.1391 -0.4459 -0.0246
 2062SOL    HW121606   1.129   1.753   2.948  2.9923 -0.5377  3.4930
 2062SOL    HW221607   1.057   1.813   3.067 -1.7345 -1.2959  1.1384
 2063SOL     OW21608   3.162   2.525   4.079 -0.1261  0.7642 -0.6511
 2063SOL    HW121609   3.174   2.443   4.030  1.1018  0.4601  0.1335
 2063SOL    HW221610   3.200   2.592   4.022  0.2778  0.5642 -0.6237
 2064SOL     OW21611   1.690   0.628  11.792 -0.0329  0.9291 -0.0092
 2064SOL    HW121612   1.693   0.683  11.713 -1.0106 -1.0085 -1.4331
 2064SOL    HW221613   1.736   0.548  11.767 -0.6931  0.1428  1.2824
 2065SOL     OW21614   0.371   3.472  10.318 -0.3170 -0.6627 -0.4560
 2065SOL    HW121615   0.402   3.412  10.386 -0.2581 -0.8144 -0.6128
 2065SOL    HW221616   0.312   3.532  10.363 -0.6956 -1.0958 -0.3698
 2066SOL     OW21617   2.305   2.971  10.100  0.4217 -0.6991 -0.1063
 2066SOL    HW121618   2.307   2.888  10.052  1.7204  0.0592 -1.4256
 2066SOL    HW221619   2.385   2.970  10.152  0.4583 -0.2697 -0.1514
 2067SOL     OW21620   5.430   4.779   7.984 -0.2216 -0.0216  0.2965
 2067SOL    HW121621   5.391   4.866   7.985 -0.8473 -0.3014  0.0450
 2067SOL    HW221622   5.386   4.733   7.913 -0.8512 -0.9796  1.2882
 2068SOL     OW21623   2.594   3.115  10.643  0.2451 -0.0793 -0.1969
 2068SOL    HW121624   2.636   3.049  10.586 -1.4902 -0.7881 -0.7096
 2068SOL    HW221625   2.666   3.155  10.691  1.5757 -0.7496 -1.5801
 2069SOL     OW21626   1.388   2.139  10.881 -0.0229 -0.1201 -0.0282
 2069SOL    HW121627   1.477   2.150  10.915 -0.3416 -1.2066  1.2069
 2069SOL    HW221628   1.375   2.215  10.825  1.3241  0.5861  0.5664
 2070SOL     OW21629   1.756   4.648   2.650  0.6600 -0.0075 -0.5205
 2070SOL    HW121630   1.779   4.730   2.608 -1.9928  0.4643 -1.1667
 2070SOL    HW221631   1.713   4.596   2.581 -1.3385 -0.2811  0.8629
 2071SOL     OW21632   5.309   1.245   1.708  0.4086 -0.0984  0.0555
 2071SOL    HW121633   5.219   1.277   1.703  0.4133 -0.0983 -0.0550
 2071SOL    HW221634   5.306   1.174   1.771 -0.0529 -1.3623 -1.3525
 2072SOL     OW21635   4.205   5.791   8.784  0.3876  0.2388 -0.0551
 2072SOL    HW121636   4.148   5.819   8.711 -0.3435  0.0275  0.4287
 2072SOL    HW221637   4.244   5.873   8.816 -1.2435  0.6534  0.9368
 2073SOL     OW21638   3.783   2.155  11.787 -0.0267 -0.1917 -0.3559
 2073SOL    HW121639   3.813   2.160  11.696  0.8435  0.2958 -0.0549
 2073SOL    HW221640   3.820   2.073  11.819 -0.8264 -0.6548 -0.6127
 2074SOL     OW21641   0.200   0.871  11.260  0.2772 -0.0282  0.2213
 2074SOL    HW121642   0.201   0.849  11.353  4.2996 -2.2185 -0.2531
 2074SOL    HW221643   0.165   0.793  11.217 -0.4466  0.5335 -0.2344
 2075SOL     OW21644   2.920   4.477   2.326 -0.1834 -0.4024 -0.4979
 2075SOL    HW121645   2.832   4.484   2.363  0.2796 -0.5188  0.6341
 2075SOL    HW221646   2.942   4.566   2.299  0.5034  0.1678  1.8884
 2076SOL     OW21647   2.780   0.572   8.604  0.3868  0.2385 -0.0388
 2076SOL    HW121648   2.700   0.614   8.637  0.8488 -0.1138  1.5365
 2076SOL    HW221649   2.850   0.608   8.658  1.2033 -0.1085 -0.8517
 2077SOL     OW21650   2.218   4.904   3.651 -0.1791 -0.2562  0.0200
 2077SOL    HW121651   2.270   4.838   3.698  1.3124 -0.1365 -1.4356
 2077SOL    HW221652   2.275   4.981   3.646 -1.4286  0.7244  0.5721
 2078SOL     OW21653   5.448   1.420  11.267  0.2401  0.5374 -0.1340
 2078SOL    HW121654   5.426   1.440  11.358  1.6299 -0.7902  0.5245
 2078SOL    HW221655   5.463   1.505  11.227 -0.1956  1.1340  0.9357
 2079SOL     OW21656   0.132   2.133   0.969  0.2132  0.3943 -0.5996
 2079SOL    HW121657   0.083   2.212   0.945  1.7182  1.6840  0.4180
 2079SOL    HW221658   0.118   2.125   1.064  0.3525 -0.3645 -0.6427
 2080SOL     OW21659   2.563   1.402   9.947 -0.0468  0.2902 -0.2997
 2080SOL    HW121660   2.471   1.392   9.923  0.0290  1.1470 -0.9684
 2080SOL    HW221661   2.607   1.423   9.864  1.1921 -2.8796 -0.5098
 2081SOL     OW21662   3.445   3.127   8.472  0.5303  0.1736  0.4129
 2081SOL    HW121663   3.420   3.039   8.444  0.5116 -0.2770  1.8083
 2081SOL    HW221664   3.438   3.180   8.393 -2.2090 -0.5048  0.1435
 2082SOL     OW21665   3.991   5.499   0.886  0.1170 -0.3850 -0.0640
 2082SOL    HW121666   4.023   5.426   0.832 -0.3641 -1.5924  1.2436
 2082SOL    HW221667   4.070   5.534   0.928  0.3087 -0.3838 -0.4263
 2083SOL     OW21668   0.248   0.089   0.612  0.1595 -0.1851  0.2140
 2083SOL    HW121669   0.331   0.089   0.564 -1.4776 -0.5256 -2.7060
 2083SOL    HW221670   0.208   0.173   0.591 -1.1111 -0.8179  0.0524
 2084SOL     OW21671   3.794   1.997   0.892  0.0799 -0.0388 -0.4228
 2084SOL    HW121672   3.853   1.924   0.910 -0.6943  0.0580  2.8662
 2084SOL    HW221673   3.723   1.959   0.839 -0.0258 -1.5461  0.7846
 2085SOL     OW21674   1.084   0.145  11.947 -0.4528 -0.0819  0.8391
 2085SOL    HW121675   1.139   0.138  12.025  0.5024 -0.3475  0.1535
 2085SOL    HW221676   1.077   0.055  11.915  0.1267  0.1790 -0.0359
 2086SOL     OW21677   0.636   3.215   0.588 -0.1642 -0.0769  0.2971
 2086SOL    HW121678   0.583   3.196   0.510 -0.4088 -0.7991  0.6356
 2086SOL    HW221679   0.584   3.181   0.661 -0.1485  1.0041  0.8241
 2087SOL     OW21680   0.969   4.069  10.079 -0.1222  0.0981  0.5321
 2087SOL    HW121681   0.917   4.148  10.093  0.6708  0.4508  1.5920
 2087SOL    HW221682   1.023   4.062  10.158  0.4426 -1.0152  0.0550
 2088SOL     OW21683   5.839   5.280   4.091  0.1576 -0.0185 -0.7649
 2088SOL    HW121684   5.868   5.201   4.136  0.3932  0.8077  0.5559
 2088SOL    HW221685   5.770   5.249   4.032 -1.1854 -0.9314  1.2056
 2089SOL     OW21686   2.082   0.810   3.317 -0.3315 -0.0982  0.0975
 2089SOL    HW121687   2.018   0.818   3.387 -1.1565 -0.2765 -0.6268
 2089SOL    HW221688   2.038   0.844   3.239  0.9799  1.2026 -0.0982
 2090SOL     OW21689   4.189   4.750  10.228  0.0178  0.1599 -0.3156
 2090SOL    HW121690   4.136   4.680  10.268 -1.4839  2.0235  1.0476
 2090SOL    HW221691   4.246   4.779  10.299  1.7247 -0.6984 -1.3195
 2091SOL     OW21692   1.442   5.216  12.233 -0.1430 -0.1640 -0.3931
 2091SOL    HW121693   1.364   5.266  12.257 -0.8638 -1.7281  0.6434
 2091SOL    HW221694   1.411   5.153  12.168  0.2794 -0.7226 -0.0548
 2092SOL     OW21695   3.400   1.146  10.203  0.1257 -0.6046  0.3770
 2092SOL    HW121696   3.433   1.235  10.195 -2.3238  0.1299 -2.8551
 2092SOL    HW221697   3.346   1.147  10.283 -0.5621  1.0591 -0.0938
 2093SOL     OW21698   5.491   5.947  12.417 -0.1945 -0.7855  0.6042
 2093SOL    HW121699   5.418   5.927  12.476  0.4122 -1.3086  1.1914
 2093SOL    HW221700   5.520   5.862  12.384  0.5434 -0.6470  0.8642
 2094SOL     OW21701   0.089   3.534   2.746  0.1709 -0.3186  0.2669
 2094SOL    HW121702   0.024   3.598   2.775  0.3017  0.4846 -1.1345
 2094SOL    HW221703   0.168   3.557   2.794  0.2110  0.5896 -0.2055
 2095SOL     OW21704   2.951   5.629   2.289  0.0113  0.1049 -0.0145
 2095SOL    HW121705   2.962   5.562   2.222  0.7008  0.2542 -0.0513
 2095SOL    HW221706   2.858   5.625   2.311 -0.2553  0.2011 -1.1166
 2096SOL     OW21707   5.771   3.229   3.520  0.0608  0.0123  0.2776
 2096SOL    HW121708   5.706   3.234   3.590 -1.7748  1.8435 -1.4678
 2096SOL    HW221709   5.789   3.320   3.497  2.8440 -0.4855  0.3317
 2097SOL     OW21710   1.424   5.257   9.136 -0.6640  0.1667 -0.0397
 2097SOL    HW121711   1.356   5.206   9.092 -1.4112  0.4153  0.8015
 2097SOL    HW221712   1.376   5.313   9.197  0.3914 -0.9620  1.8866
 2098SOL     OW21713   0.082   1.763   0.197 -0.5875 -0.5865 -0.6643
 2098SOL    HW121714   0.036   1.846   0.213 -0.0708 -0.4234  0.0269
 2098SOL    HW221715   0.116   1.770   0.108  2.8964  1.6487  0.7238
 2099SOL     OW21716   4.658   0.543   0.406  0.6574 -0.6300 -0.0576
 2099SOL    HW121717   4.728   0.553   0.470  0.7772  0.6648 -0.3690
 2099SOL    HW221718   4.703   0.512   0.327  0.5967 -1.6527  0.3062
 2100SOL     OW21719   2.062   1.323   1.448  0.4966 -0.1044 -0.7582
 2100SOL    HW121720   2.103   1.299   1.364  0.1260  1.4080 -1.3867
 2100SOL    HW221721   2.038   1.415   1.437 -1.0536 -0.3623  0.4269
 2101SOL     OW21722   3.354   5.892  11.064  0.2540  0.3199 -0.4314
 2101SOL    HW121723   3.285   5.846  11.017  0.8700 -2.5551  1.3421
 2101SOL    HW221724   3.315   5.918  11.147  1.0977 -0.7785  0.3287
 2102SOL     OW21725   1.035   0.214   0.936 -0.4182  0.3270  1.0160
 2102SOL    HW121726   1.124   0.250   0.943 -0.4914  0.3497  1.8773
 2102SOL    HW221727   0.997   0.259   0.861  0.7130 -0.5634 -0.1222
 2103SOL     OW21728   0.312   2.997   3.851  0.2830  0.5265 -0.2584
 2103SOL    HW121729   0.350   3.084   3.839 -0.2258  0.9910  1.3811
 2103SOL    HW221730   0.351   2.964   3.932  1.2805 -1.2428 -1.4007
 2104SOL     OW21731   5.139   2.637   2.971 -0.7799  0.1422 -0.2758
 2104SOL    HW121732   5.141   2.610   3.062  0.5844 -3.4319 -1.3029
 2104SOL    HW221733   5.082   2.714   2.970 -0.9063  0.1599  3.5346
 2105SOL     OW21734   5.029   0.796  10.167 -0.4974  0.0167 -0.3762
 2105SOL    HW121735   5.118   0.761  10.166  0.4263  2.2572  0.1946
 2105SOL    HW221736   5.002   0.790  10.258 -0.4219  0.5438 -0.3161
 2106SOL     OW21737   4.273   3.611   9.459  0.5273 -0.2925 -0.0205
 2106SOL    HW121738   4.320   3.633   9.539 -0.9480  4.6002 -0.3703
 2106SOL    HW221739   4.181   3.609   9.484  0.2222 -1.0681 -1.1419
 2107SOL     OW21740   2.152   3.091   1.533 -0.2786  0.4269  0.7040
 2107SOL    HW121741   2.210   3.029   1.576 -1.5782 -0.2311  1.5324
 2107SOL    HW221742   2.065   3.071   1.567 -1.1114  0.9314 -1.0385
 2108SOL     OW21743   3.412   1.290  10.941 -0.0178  0.9452  0.9075
 2108SOL    HW121744   3.331   1.319  10.898  0.9034  2.4236  0.1358
 2108SOL    HW221745   3.452   1.370  10.973  1.6545  0.3355  0.3922
 2109SOL     OW21746   0.619   2.793  11.020  0.3095  0.0111 -0.1317
 2109SOL    HW121747   0.669   2.868  10.989  1.2312 -1.2385 -1.7228
 2109SOL    HW221748   0.617   2.732  10.946 -0.8670 -1.3149  0.9473
 2110SOL     OW21749   2.771   3.067   3.705  0.1946  0.0272 -0.3125
 2110SOL    HW121750   2.830   3.112   3.765  0.5473  0.7668 -1.2042
 2110SOL    HW221751   2.816   3.067   3.621  0.3839 -2.3829 -0.2440
 2111SOL     OW21752   2.719   3.993   3.482 -0.2159  0.0171 -0.1066
 2111SOL    HW121753   2.736   4.086   3.465  0.0432 -0.1102 -0.5322
 2111SOL    HW221754   2.790   3.966   3.540  0.5045 -0.2761 -1.1222
 2112SOL     OW21755   4.847   2.425  10.922  0.5640 -0.5192 -0.0365
 2112SOL    HW121756   4.777   2.488  10.904 -0.2811 -0.8524  2.0299
 2112SOL    HW221757   4.924   2.480  10.937  0.7571 -0.1471 -2.1396
 2113SOL     OW21758   1.454   2.126   3.169 -0.1240 -0.0561 -0.2435
 2113SOL    HW121759   1.548   2.131   3.155  0.2795  0.1687  2.2601
 2113SOL    HW221760   1.438   2.182   3.246 -2.1690 -0.7606 -0.1180
 2114SOL     OW21761   5.738   3.199   1.990  0.2411 -0.2132  0.1203
 2114SOL    HW121762   5.735   3.144   1.912  0.6297  1.3452 -1.0173
 2114SOL    HW221763   5.646   3.220   2.009  0.2498  1.0770 -1.1539
 2115SOL     OW21764   5.241   3.355   0.758 -0.1499 -0.1823  0.1904
 2115SOL    HW121765   5.313   3.297   0.736  0.8774  0.9590  0.5164
 2115SOL    HW221766   5.180   3.348   0.685  0.7102 -0.4720 -0.4945
 2116SOL     OW21767   2.837   1.788  12.033  0.2357 -0.4829  0.1857
 2116SOL    HW121768   2.829   1.852  12.104 -1.0540 -0.7353  0.2964
 2116SOL    HW221769   2.874   1.710  12.075  1.5678  0.0952  0.1071
 2117SOL     OW21770   3.763   3.303  11.202 -0.2838  0.5430 -0.4863
 2117SOL    HW121771   3.769   3.213  11.233 -0.0440  0.2357 -1.4065
 2117SOL    HW221772   3.744   3.295  11.109 -0.3184  1.4477 -0.5599
 2118SOL     OW21773   0.829   1.566   8.703 -0.1821  0.1296 -0.7543
 2118SOL    HW121774   0.868   1.577   8.790 -1.4501 -0.4222 -0.1057
 2118SOL    HW221775   0.855   1.479   8.675  0.3594  0.3683 -0.9947
 2119SOL     OW21776   5.718   4.470   0.877 -0.5651  0.1520 -0.8614
 2119SOL    HW121777   5.711   4.485   0.971  1.8131  1.2831 -0.8241
 2119SOL    HW221778   5.634   4.431   0.853 -1.0505 -0.5587  1.7898
 2120SOL     OW21779   4.525   0.789   2.388  0.4648  0.5097 -0.5700
 2120SOL    HW121780   4.525   0.769   2.481  1.9346 -0.3498 -0.7362
 2120SOL    HW221781   4.595   0.734   2.352  0.3053  1.2738 -2.0783
 2121SOL     OW21782   0.846   4.043   8.844  0.2195  0.4278 -0.2974
 2121SOL    HW121783   0.934   4.011   8.867 -0.6829 -3.4567 -1.7479
 2121SOL    HW221784   0.854   4.073   8.754  0.1823  0.4670 -0.2888
 2122SOL     OW21785   0.620   2.097  11.352  0.3300 -0.2296 -0.4075
 2122SOL    HW121786   0.654   2.162  11.290  2.1161 -1.2659 -0.5529
 2122SOL    HW221787   0.527   2.118  11.359  1.0636  3.0346  0.4081
 2123SOL     OW21788   0.629   5.588  11.257  0.0795  0.4087 -0.0099
 2123SOL    HW121789   0.696   5.656  11.251  0.7775 -0.2904 -0.2249
 2123SOL    HW221790   0.549   5.630  11.225  1.0680  0.3839 -2.6226
 2124SOL     OW21791   4.740   2.180  11.304  0.0639 -0.4035 -0.0885
 2124SOL    HW121792   4.780   2.266  11.305 -1.2994  0.2368  0.9055
 2124SOL    HW221793   4.687   2.178  11.224  0.3898 -0.4553 -0.3014
 2125SOL     OW21794   1.974   0.082   1.131  0.0679 -0.1781  0.0629
 2125SOL    HW121795   1.948   0.062   1.221  0.0832  1.4544  0.4406
 2125SOL    HW221796   2.057   0.036   1.119 -0.3591 -1.1036  0.5942
 2126SOL     OW21797   2.055   5.112  10.319 -0.0679 -0.1195  0.5414
 2126SOL    HW121798   2.078   5.205  10.318  1.6374 -0.5266 -1.2464
 2126SOL    HW221799   2.092   5.079  10.401  1.1177  0.3664  0.2098
 2127SOL     OW21800   0.555   1.797   7.754 -0.2383 -0.3088  0.1999
 2127SOL    HW121801   0.628   1.858   7.737 -0.6105  0.3602  0.9135
 2127SOL    HW221802   0.571   1.767   7.844 -1.0457  0.1429  0.5013
 2128SOL     OW21803   5.431   4.019   0.915  0.5415 -0.4736 -0.1186
 2128SOL    HW121804   5.364   3.952   0.932  0.3343 -0.0247  0.8676
 2128SOL    HW221805   5.415   4.086   0.982 -0.8338  1.7759 -2.6262
 2129SOL     OW21806   5.172   0.304   1.636  1.1752  0.2944  0.4036
 2129SOL    HW121807   5.113   0.248   1.686  1.7340  0.4450  1.2402
 2129SOL    HW221808   5.114   0.361   1.585  0.5965  0.5258  1.3088
 2130SOL     OW21809   5.029   4.117   1.898 -0.0255 -0.2731 -0.4940
 2130SOL    HW121810   5.123   4.133   1.910 -0.5905  1.2640  2.2465
 2130SOL    HW221811   5.008   4.047   1.960 -0.7455 -0.5541 -1.0359
 2131SOL     OW21812   1.229   3.913   0.539 -0.1874  0.4125  0.4242
 2131SOL    HW121813   1.289   3.879   0.472 -0.8090  2.3714 -1.2034
 2131SOL    HW221814   1.275   3.987   0.578 -0.4089  0.1679  1.1521
 2132SOL     OW21815   1.619   0.964   2.443 -0.1597  0.0732  0.6153
 2132SOL    HW121816   1.539   0.911   2.441 -1.1059  1.4427  1.2866
 2132SOL    HW221817   1.595   1.041   2.494  1.3208  0.9485  0.0060
 2133SOL     OW21818   1.107   4.370   9.990 -0.0475 -0.2671  0.2999
 2133SOL    HW121819   1.137   4.453   9.953 -0.8479 -1.3847 -3.1063
 2133SOL    HW221820   1.065   4.393  10.072  2.0314  2.3787  0.6882
 2134SOL     OW21821   4.924   0.220  12.118 -0.3529 -0.6645  0.1826
 2134SOL    HW121822   4.938   0.202  12.025 -0.2653 -1.4052  0.3391
 2134SOL    HW221823   4.829   0.215  12.129 -0.3399 -0.8774  0.1975
 2135SOL     OW21824   0.460   4.729  10.681  0.2054  0.0538 -0.4536
 2135SOL    HW121825   0.375   4.755  10.646 -0.2182 -0.8465 -0.1104
 2135SOL    HW221826   0.509   4.700  10.604  0.5650  1.4923 -0.7957
 2136SOL     OW21827   4.549   0.728  10.485  0.2941  0.2519 -0.4633
 2136SOL    HW121828   4.536   0.802  10.425 -0.7504  1.9111  1.7404
 2136SOL    HW221829   4.460   0.700  10.507  0.6832 -1.0212 -0.4620
 2137SOL     OW21830   3.758   4.958  10.264  0.4614 -0.3560  0.3370
 2137SOL    HW121831   3.685   4.988  10.211  0.8553  2.2039  1.1750
 2137SOL    HW221832   3.791   4.881  10.218 -1.9313 -0.7829 -0.7282
 2138SOL     OW21833   4.940   1.904   1.687 -0.2573 -0.3843  0.3683
 2138SOL    HW121834   4.962   1.964   1.615  0.7563  0.2914  1.2130
 2138SOL    HW221835   4.853   1.872   1.666 -0.8757  1.4909 -0.0513
 2139SOL     OW21836   2.430   3.363   1.713  0.4300 -0.2473 -0.6200
 2139SOL    HW121837   2.367   3.372   1.785  1.9011  1.1028  0.5281
 2139SOL    HW221838   2.492   3.298   1.744  0.2418 -0.7505 -1.2929
 2140SOL     OW21839   5.594   1.753   2.891  0.5678 -0.0134  0.0741
 2140SOL    HW121840   5.573   1.671   2.845  0.9759 -0.0541 -0.0385
 2140SOL    HW221841   5.509   1.784   2.923  0.1864  0.3337 -1.2214
 2141SOL     OW21842   3.561   1.983   2.543 -0.1353 -0.1144  0.0870
 2141SOL    HW121843   3.488   2.021   2.495 -1.3234 -0.9161  1.2141
 2141SOL    HW221844   3.604   2.057   2.585 -2.3874  0.0585  2.2202
 2142SOL     OW21845   4.089   0.605   2.987  0.6581  0.2011 -0.1106
 2142SOL    HW121846   4.135   0.653   3.056  1.6018 -0.4024 -0.3074
 2142SOL    HW221847   4.000   0.594   3.020  1.0214  0.1979  0.8652
 2143SOL     OW21848   3.111   4.057  10.914  0.5123 -0.0769 -0.0550
 2143SOL    HW121849   3.065   3.983  10.955  0.6137 -0.4794 -0.6429
 2143SOL    HW221850   3.198   4.022  10.895  0.6164  0.2514 -0.1760
 2144SOL     OW21851   0.671   4.486   7.957  0.6373 -0.1454 -0.2816
 2144SOL    HW121852   0.587   4.518   7.988  0.2004 -1.0321 -0.5195
 2144SOL    HW221853   0.699   4.550   7.892  0.5821  0.6335  0.4557
 2145SOL     OW21854   1.019   3.737  10.877 -0.0001  0.0661 -0.2567
 2145SOL    HW121855   1.068   3.659  10.850 -0.0299 -0.2381  0.5433
 2145SOL    HW221856   1.083   3.808  10.874  0.2884 -0.1817  0.0037
 2146SOL     OW21857   3.345   3.206  12.322 -0.6489  0.4227  0.5814
 2146SOL    HW121858   3.397   3.251  12.388  0.0951 -2.7914  2.2789
 2146SOL    HW221859   3.402   3.199  12.246 -0.4489  1.4715  0.6289
 2147SOL     OW21860   5.958   1.230   8.675  0.2136  0.0335  0.0431
 2147SOL    HW121861   5.911   1.312   8.690 -1.3000 -0.8004 -0.1259
 2147SOL    HW221862   5.890   1.163   8.669  1.4511 -1.3175  0.6311
 2148SOL     OW21863   2.315   1.744   8.208  0.0982 -0.0189 -0.5248
 2148SOL    HW121864   2.372   1.746   8.285  0.0853  0.5738 -0.5289
 2148SOL    HW221865   2.227   1.739   8.244  0.0155  1.5295 -0.4665
 2149SOL     OW21866   5.580   0.970   9.925 -0.1405  0.2872 -0.1090
 2149SOL    HW121867   5.588   0.897   9.864 -0.7751  0.2782 -0.1811
 2149SOL    HW221868   5.489   0.999   9.917  0.5228  2.1702 -1.3603
 2150SOL     OW21869   4.893   2.963   2.084  0.3245 -0.3732 -0.3067
 2150SOL    HW121870   4.836   2.889   2.063 -0.4313  0.1154 -0.0062
 2150SOL    HW221871   4.833   3.037   2.098  1.0645  0.2715 -0.4950
 2151SOL     OW21872   4.298   2.689   9.149 -0.2350 -0.2195 -0.0941
 2151SOL    HW121873   4.225   2.632   9.128 -0.4087 -0.2813  0.6496
 2151SOL    HW221874   4.278   2.771   9.103 -1.2137  0.0592  0.7969
 2152SOL     OW21875   4.861   0.469   1.082  0.6206  0.3302 -0.3957
 2152SOL    HW121876   4.927   0.537   1.064  0.4000  0.3141 -1.2759
 2152SOL    HW221877   4.832   0.487   1.171  3.6684 -1.2183  0.9789
 2153SOL     OW21878   5.867   5.454   1.066  0.0480 -0.5829  0.0025
 2153SOL    HW121879   5.904   5.463   1.154 -0.3977  0.6054  0.0705
 2153SOL    HW221880   5.832   5.541   1.045 -2.3157 -1.5512 -0.2442
 2154SOL     OW21881   4.521   1.151  11.999  0.0074  0.1938 -0.2916
 2154SOL    HW121882   4.455   1.220  11.998 -0.0838  0.0988 -1.3255
 2154SOL    HW221883   4.597   1.191  12.042 -1.5625 -0.5155  3.3896
 2155SOL     OW21884   2.944   5.770   9.040  0.0970  0.4471  0.2694
 2155SOL    HW121885   2.889   5.693   9.053  0.3883  0.1431 -0.2897
 2155SOL    HW221886   3.031   5.743   9.069  0.5549  0.0491 -1.3698
 2156SOL     OW21887   2.542   2.819   9.644  0.1014 -0.6864  0.3131
 2156SOL    HW121888   2.533   2.907   9.608  0.2366  0.1688  2.3140
 2156SOL    HW221889   2.495   2.763   9.582 -1.8337  1.0703  0.1198
 2157SOL     OW21890   5.889   0.927   1.513 -0.3124  0.1610  0.0022
 2157SOL    HW121891   5.888   1.004   1.570 -0.0347 -0.7466  1.2667
 2157SOL    HW221892   5.906   0.961   1.425  1.8631  1.3661  0.8561
 2158SOL     OW21893   4.755   0.885   0.979 -0.0243 -0.4154  0.2417
 2158SOL    HW121894   4.810   0.844   0.913 -1.4584 -1.3330 -0.3969
 2158SOL    HW221895   4.708   0.954   0.931 -0.3077 -0.4066  0.5312
 2159SOL     OW21896   1.574   5.820   3.294 -0.3288 -0.7787 -0.3069
 2159SOL    HW121897   1.557   5.851   3.205 -3.1216 -2.1370 -0.3200
 2159SOL    HW221898   1.528   5.883   3.350  2.6344  0.9085  0.3104
 2160SOL     OW21899   3.654   3.565   0.884 -0.4259  0.7879  0.4989
 2160SOL    HW121900   3.658   3.612   0.968 -1.8988  2.4029 -0.2929
 2160SOL    HW221901   3.622   3.631   0.822  1.0092 -0.2820 -1.4190
 2161SOL     OW21902   4.996   4.934   2.190  0.3870 -0.0837 -0.8082
 2161SOL    HW121903   5.091   4.948   2.185  0.0433  1.8627 -2.1844
 2161SOL    HW221904   4.972   4.901   2.104 -0.3138  0.2507 -0.7425
 2162SOL     OW21905   1.339   0.215   2.839  0.0999  0.1878 -0.5703
 2162SOL    HW121906   1.266   0.182   2.892  0.3222  0.3148 -0.1763
 2162SOL    HW221907   1.404   0.243   2.904  1.2597 -1.5849 -0.9284
 2163SOL     OW21908   4.038   5.581  11.470  0.6695  0.3849 -0.1262
 2163SOL    HW121909   4.048   5.666  11.428 -0.5083  1.3899  1.5908
 2163SOL    HW221910   3.948   5.554  11.450  0.6954  0.0326  0.2174
 2164SOL     OW21911   2.687   1.602  12.221 -0.3343  0.3813 -0.4105
 2164SOL    HW121912   2.773   1.597  12.180 -0.8628  0.1854 -1.5120
 2164SOL    HW221913   2.631   1.642  12.154 -1.1531  0.2950  0.2142
 2165SOL     OW21914   5.437   1.621   9.897  0.5917 -0.4819  0.3642
 2165SOL    HW121915   5.490   1.545   9.921 -1.0307 -1.2038  1.6841
 2165SOL    HW221916   5.361   1.618   9.954 -1.7676 -0.4168 -2.6353
 2166SOL     OW21917   4.690   0.935   3.319 -0.6526 -0.2820 -0.4842
 2166SOL    HW121918   4.684   1.022   3.359 -1.2209  0.7578 -2.7059
 2166SOL    HW221919   4.705   0.953   3.226 -0.9458 -2.5713 -1.0041
 2167SOL     OW21920   3.770   1.959  11.350  0.1869 -0.5003 -0.3777
 2167SOL    HW121921   3.689   1.971  11.300 -1.1421  1.0200  1.9887
 2167SOL    HW221922   3.740   1.931  11.437  2.2988 -1.2572  0.1409
 2168SOL     OW21923   5.239   0.451   9.922  0.0279  0.8188  0.8221
 2168SOL    HW121924   5.190   0.523   9.882 -1.9341 -0.1190  1.4714
 2168SOL    HW221925   5.182   0.421   9.993  2.2372  0.6994  2.5923
 2169SOL     OW21926   1.879   4.873   0.937 -0.5823  0.0288 -0.1673
 2169SOL    HW121927   1.930   4.946   0.972  0.1296  0.1268 -1.3853
 2169SOL    HW221928   1.814   4.854   1.005  0.3298  0.6646  0.8839
 2170SOL     OW21929   4.366   0.627  12.133 -0.4127  0.2123 -0.8158
 2170SOL    HW121930   4.380   0.712  12.091 -1.1203  1.0410  0.5814
 2170SOL    HW221931   4.325   0.573  12.065 -0.6455  1.2179 -1.4895
 2171SOL     OW21932   0.771   1.808   2.319  0.1461  0.0057  0.3306
 2171SOL    HW121933   0.850   1.828   2.370  1.3521 -0.9578 -1.1107
 2171SOL    HW221934   0.768   1.876   2.251 -0.4024  0.1856  0.5352
 2172SOL     OW21935   1.508   4.364   3.709  0.1883  0.0743  0.0362
 2172SOL    HW121936   1.537   4.442   3.756  0.1434 -0.1887  0.4981
 2172SOL    HW221937   1.476   4.305   3.777 -2.4371  0.7763 -0.4954
 2173SOL     OW21938   4.956   3.972   1.176 -0.0617 -0.6396  0.3323
 2173SOL    HW121939   4.865   4.000   1.181 -0.0174 -0.6435  1.4495
 2173SOL    HW221940   4.953   3.890   1.126 -0.4926  0.0645 -0.8081
 2174SOL     OW21941   1.767   0.783   7.893  0.0783 -0.5518 -0.2306
 2174SOL    HW121942   1.721   0.740   7.965 -0.4772  1.7842  0.8494
 2174SOL    HW221943   1.703   0.844   7.857  0.6677 -1.0162 -2.1170
 2175SOL     OW21944   5.354   0.562  11.268 -0.1762  0.5326  0.7693
 2175SOL    HW121945   5.356   0.482  11.320  1.6717 -1.6522 -2.4775
 2175SOL    HW221946   5.303   0.539  11.191  1.6860  1.9373 -0.9426
 2176SOL     OW21947   1.863   1.853  11.459 -1.0828  0.8095 -0.2371
 2176SOL    HW121948   1.865   1.772  11.407 -1.7056  0.1364  0.7789
 2176SOL    HW221949   1.774   1.886  11.446 -1.1892  0.7248  0.2668
 2177SOL     OW21950   1.993   3.295  10.520  1.0516  0.5526  0.0949
 2177SOL    HW121951   2.045   3.323  10.445 -2.5569  0.4112 -2.6239
 2177SOL    HW221952   1.933   3.229  10.484 -1.1114  0.8330  2.9751
 2178SOL     OW21953   4.150   1.255   0.959  0.1286  0.1321  0.4197
 2178SOL    HW121954   4.122   1.173   1.001 -0.2808 -0.2621 -0.6186
 2178SOL    HW221955   4.158   1.233   0.866 -0.5152  1.4194  0.0545
 2179SOL     OW21956   1.939   4.860   3.871  0.0039 -0.5134  0.1733
 2179SOL    HW121957   1.945   4.768   3.899  2.0465  0.0947  1.8374
 2179SOL    HW221958   2.029   4.884   3.847  0.0994  1.8955  2.6262
 2180SOL     OW21959   3.476   1.111   3.502  0.1526  0.2320  0.6607
 2180SOL    HW121960   3.405   1.062   3.460 -0.4130  0.0068  1.8742
 2180SOL    HW221961   3.543   1.045   3.521  1.6966  0.7783 -2.5104
 2181SOL     OW21962   4.984   2.536  11.522 -0.2236  0.0945  0.1253
 2181SOL    HW121963   4.962   2.618  11.566 -0.1531 -0.2509  0.8063
 2181SOL    HW221964   5.059   2.501  11.571  0.3137  0.0616 -0.7014
 2182SOL     OW21965   4.483   5.646  11.301  0.1884  0.2885 -0.1458
 2182SOL    HW121966   4.411   5.641  11.364 -1.3556 -0.4554 -1.9331
 2182SOL    HW221967   4.448   5.699  11.229  1.2719 -0.4468 -1.2233
 2183SOL     OW21968   2.577   0.909   3.286 -0.5798 -0.0359  0.0106
 2183SOL    HW121969   2.612   0.845   3.348 -1.9947 -1.2088 -0.3584
 2183SOL    HW221970   2.655   0.947   3.245  0.3116 -2.0641 -0.2802
 2184SOL     OW21971   3.397   5.074   8.827  0.5787  0.3934  0.1115
 2184SOL    HW121972   3.363   5.078   8.738  1.1271  1.8860 -0.0429
 2184SOL    HW221973   3.399   4.981   8.847 -1.7788  0.1691 -0.5580
 2185SOL     OW21974   4.618   1.981   8.087 -0.6335  0.1221 -0.2149
 2185SOL    HW121975   4.697   2.021   8.051 -0.2422  0.1369  0.6519
 2185SOL    HW221976   4.593   1.914   8.023 -0.2892  0.5534 -0.8030
 2186SOL     OW21977   1.251   0.961   8.979  0.1540 -0.1701  0.7884
 2186SOL    HW121978   1.207   0.990   8.899  3.9862 -0.6647 -1.5965
 2186SOL    HW221979   1.190   0.897   9.017 -1.6317 -0.1286 -1.8749
 2187SOL     OW21980   5.643   3.691  11.356  0.1588 -0.1082 -0.2694
 2187SOL    HW121981   5.644   3.641  11.274 -0.3342  0.0138 -0.3508
 2187SOL    HW221982   5.622   3.781  11.329 -0.2361 -0.1127  0.0196
 2188SOL     OW21983   3.321   0.013   9.477 -0.3027 -0.5692 -0.4539
 2188SOL    HW121984   3.226   0.021   9.471 -0.1711  2.3612  0.6099
 2188SOL    HW221985   3.355   0.085   9.424  1.2106  1.5495  3.2021
 2189SOL     OW21986   2.388   5.432   9.197 -0.5666  0.4978  0.4781
 2189SOL    HW121987   2.402   5.498   9.129 -1.8110  0.6947  0.4053
 2189SOL    HW221988   2.390   5.348   9.151  0.1719  0.5276  0.4442
 2190SOL     OW21989   5.382   1.501  11.541 -0.1885 -0.3632 -0.0896
 2190SOL    HW121990   5.381   1.579  11.596 -0.3440 -0.1547 -0.3848
 2190SOL    HW221991   5.414   1.431  11.598  1.3107  0.2118 -0.2069
 2191SOL     OW21992   2.157   1.078  11.994 -0.4498 -0.1566 -0.4653
 2191SOL    HW121993   2.236   1.116  11.957  0.2667  0.3255  1.5232
 2191SOL    HW221994   2.106   1.153  12.024 -1.4035 -0.4989 -1.1813
 2192SOL     OW21995   0.103   1.819  12.411 -0.2206 -0.0090 -0.6092
 2192SOL    HW121996   0.046   1.785  12.343 -1.0955 -1.9415  1.0092
 2192SOL    HW221997   0.159   1.883  12.367  0.9054 -2.9508 -3.6436
 2193SOL     OW21998   4.621   1.636  10.549  0.5569  0.1761 -0.2365
 2193SOL    HW121999   4.636   1.557  10.601  1.9486 -0.2542 -1.2427
 2193SOL    HW222000   4.709   1.673  10.536 -0.0751  1.8401  0.1421
 2194SOL     OW22001   5.385   0.205  10.766  0.4653 -0.7599 -1.0363
 2194SOL    HW122002   5.341   0.125  10.795 -0.1847  0.9952  3.0116
 2194SOL    HW222003   5.476   0.193  10.793  0.2421  0.1136  0.1250
 2195SOL     OW22004   4.611   2.211  11.060  0.0929  0.1625 -0.6033
 2195SOL    HW122005   4.629   2.185  10.970 -0.3155  0.5238 -0.7887
 2195SOL    HW222006   4.516   2.217  11.065  0.0874 -0.4293  0.0144
 2196SOL     OW22007   5.269   5.502   0.887 -0.3207 -0.2667  0.1410
 2196SOL    HW122008   5.184   5.478   0.922 -0.1487 -0.2481  0.5728
 2196SOL    HW222009   5.311   5.419   0.866  0.5289 -0.3859  2.2253
 2197SOL     OW22010   2.572   2.217  10.323 -0.3211 -0.2399 -0.1492
 2197SOL    HW122011   2.618   2.292  10.285  0.4940 -0.4129  0.4777
 2197SOL    HW222012   2.633   2.144  10.312 -0.6838 -0.5890  0.1601
 2198SOL     OW22013   5.723   5.226  10.398 -0.1661  0.1165  0.7805
 2198SOL    HW122014   5.766   5.176  10.328  1.3443  0.3261  1.5388
 2198SOL    HW222015   5.784   5.296  10.418 -0.0284 -0.6214  3.1186
 2199SOL     OW22016   4.695   1.852   1.596  0.1117 -0.1119  0.0250
 2199SOL    HW122017   4.650   1.932   1.623 -0.9809 -0.7363  0.0771
 2199SOL    HW222018   4.632   1.806   1.541  0.7730 -0.8883 -0.0934
 2200SOL     OW22019   4.079   2.281   8.072 -0.1006 -0.2381  0.4326
 2200SOL    HW122020   4.094   2.190   8.099  2.0334  0.1374  0.5760
 2200SOL    HW222021   4.148   2.331   8.116 -0.6931  1.3305 -0.3784
 2201SOL     OW22022   4.497   4.502  10.989  0.7539 -0.3190  0.4774
 2201SOL    HW122023   4.501   4.476  11.081  0.4263 -0.8208  0.3470
 2201SOL    HW222024   4.477   4.422  10.942 -1.3841  0.3487  0.1770
 2202SOL     OW22025   0.599   2.601   0.871 -0.1785 -0.1999  0.3544
 2202SOL    HW122026   0.583   2.693   0.889 -0.3895 -0.1808  0.0796
 2202SOL    HW222027   0.518   2.570   0.830 -0.3240 -0.6555  0.9847
 2203SOL     OW22028   0.781   5.611  10.972  0.1695  0.1691 -0.1862
 2203SOL    HW122029   0.796   5.644  11.061  0.9971 -2.2942  0.6435
 2203SOL    HW222030   0.686   5.598  10.968 -0.0665  1.8467 -0.2482
 2204SOL     OW22031   1.194   0.620   2.974  0.6210  0.6066  0.0020
 2204SOL    HW122032   1.230   0.556   3.035  0.8881 -0.3314 -1.1274
 2204SOL    HW222033   1.101   0.598   2.968  0.1678  1.9775  1.6245
 2205SOL     OW22034   3.084   2.523  11.282 -0.0690 -0.1290  0.8699
 2205SOL    HW122035   3.008   2.484  11.239 -0.7762  2.0053  0.0944
 2205SOL    HW222036   3.047   2.595  11.334  1.5413  1.7974 -0.5841
 2206SOL     OW22037   4.420   5.145   2.051 -0.3975 -0.3393 -0.0293
 2206SOL    HW122038   4.367   5.073   2.017 -0.8907 -0.3504  0.7511
 2206SOL    HW222039   4.510   5.123   2.025 -0.8669  0.2059 -2.2649
 2207SOL     OW22040   2.776   0.805  11.916 -0.1965  0.4143  0.2574
 2207SOL    HW122041   2.765   0.895  11.945  0.2932  0.0361  1.6713
 2207SOL    HW222042   2.754   0.807  11.823 -0.2040  1.9809  0.2753
 2208SOL     OW22043   5.607   3.884  11.902 -0.2159  0.9070 -0.1507
 2208SOL    HW122044   5.572   3.827  11.834 -1.7702  1.6834 -0.0083
 2208SOL    HW222045   5.656   3.951  11.855  1.5311 -0.4412 -0.3245
 2209SOL     OW22046   5.695   5.076   8.810  0.3392  0.4394 -0.1521
 2209SOL    HW122047   5.709   5.153   8.754  0.2841  1.5381  1.3013
 2209SOL    HW222048   5.648   5.014   8.754  1.0384  1.1663 -1.5856
 2210SOL     OW22049   5.615   3.197   9.052  0.0159 -0.4458  0.3796
 2210SOL    HW122050   5.594   3.204   8.959  1.6538  1.5016  0.1166
 2210SOL    HW222051   5.544   3.243   9.097 -0.3622 -0.6955  0.0327
 2211SOL     OW22052   2.177   4.995   0.372 -0.3731  0.4290 -0.0019
 2211SOL    HW122053   2.203   5.030   0.458  0.1097 -1.6937  0.7476
 2211SOL    HW222054   2.086   5.021   0.362 -0.4375  0.6858  1.1738
 2212SOL     OW22055   5.051   3.814   1.555 -0.3094  0.3411 -0.0860
 2212SOL    HW122056   5.064   3.824   1.460 -1.0875  2.5653  0.0272
 2212SOL    HW222057   5.132   3.772   1.585 -0.5443 -1.5049 -1.8950
 2213SOL     OW22058   4.441   2.723   2.195  0.8813  0.0167  0.0438
 2213SOL    HW122059   4.459   2.817   2.191  0.1753  0.1297 -0.5986
 2213SOL    HW222060   4.475   2.689   2.112  0.3296 -0.1468 -0.1182
 2214SOL     OW22061   2.192   0.668   9.734 -0.5679 -0.3404 -0.3915
 2214SOL    HW122062   2.127   0.731   9.703 -1.3263 -1.2060 -0.5701
 2214SOL    HW222063   2.144   0.612   9.795  0.6650  0.7107  1.5823
 2215SOL     OW22064   0.704   1.373   3.481 -0.3831  0.6358  0.0108
 2215SOL    HW122065   0.643   1.445   3.462 -0.8961  0.2346  0.1337
 2215SOL    HW222066   0.683   1.347   3.571  1.9181  2.4185  1.1211
 2216SOL     OW22067   2.037   2.693  11.392 -0.5713  0.2265 -0.6065
 2216SOL    HW122068   2.068   2.605  11.370  0.6440  0.5918 -0.4295
 2216SOL    HW222069   2.031   2.738  11.308 -3.5211 -0.7277 -0.9592
 2217SOL     OW22070   4.254   5.045  12.319  0.0036 -0.0025  0.0106
 2217SOL    HW122071   4.237   5.136  12.293  0.6558 -0.3614 -1.7252
 2217SOL    HW222072   4.179   4.996  12.284 -1.6571  0.1737  3.0900
 2218SOL     OW22073   5.476   4.852   0.082  0.3094  0.0576  0.1741
 2218SOL    HW122074   5.405   4.812   0.033  0.9585 -0.8135 -0.0569
 2218SOL    HW222075   5.476   4.807   0.167 -0.6245  1.3606  0.8960
 2219SOL     OW22076   1.858   4.034   9.428  0.0114 -0.0333 -0.0950
 2219SOL    HW122077   1.771   3.994   9.422  0.6083 -1.0260 -2.5057
 2219SOL    HW222078   1.842   4.120   9.468 -1.9809 -0.5028  0.1628
 2220SOL     OW22079   0.913   3.767   1.181 -0.3744 -0.0275  0.3180
 2220SOL    HW122080   0.913   3.851   1.226  1.6113 -0.2585  0.7965
 2220SOL    HW222081   0.914   3.702   1.252 -1.4390 -0.4547 -0.0504
 2221SOL     OW22082   1.743   1.161   0.669 -0.0830 -0.4714  0.1020
 2221SOL    HW122083   1.820   1.211   0.694 -0.7657  0.1364  1.0173
 2221SOL    HW222084   1.694   1.220   0.611 -0.7567 -0.1622  0.9691
 2222SOL     OW22085   0.591   4.692   9.650  0.0477  0.5782  0.3746
 2222SOL    HW122086   0.649   4.721   9.720 -0.8255  0.7946  1.0253
 2222SOL    HW222087   0.566   4.603   9.675  0.7106  0.1983 -0.3043
 2223SOL     OW22088   1.823   0.500  12.115  0.5674 -0.0439 -0.1835
 2223SOL    HW122089   1.732   0.476  12.132  0.4742  0.3546 -0.1091
 2223SOL    HW222090   1.869   0.476  12.196  0.5070 -0.1438 -0.1784
 2224SOL     OW22091   1.657   3.501  10.938 -0.8332  0.0759 -0.6755
 2224SOL    HW122092   1.627   3.410  10.941  0.1622 -0.2028  1.2952
 2224SOL    HW222093   1.583   3.549  10.901 -2.5843 -1.0393  1.2862
 2225SOL     OW22094   3.251   0.375   9.131 -0.0738 -0.4029 -0.2591
 2225SOL    HW122095   3.174   0.327   9.163 -0.5343  0.3594 -0.2247
 2225SOL    HW222096   3.309   0.306   9.096  0.3431 -1.2443  1.9823
 2226SOL     OW22097   4.411   5.499  10.973  0.8530  0.1256 -0.0641
 2226SOL    HW122098   4.472   5.570  10.990  2.0784 -0.7294 -0.7876
 2226SOL    HW222099   4.331   5.542  10.944  0.1624  1.3982  3.4793
 2227SOL     OW22100   2.693   3.213   7.953  0.3441  0.4207 -0.0129
 2227SOL    HW122101   2.711   3.264   8.032  0.8551  0.1331  0.0638
 2227SOL    HW222102   2.634   3.268   7.901 -1.1119  0.0219  1.1902
 2228SOL     OW22103   3.210   3.888   8.018 -0.4979 -0.4382  0.5300
 2228SOL    HW122104   3.137   3.870   7.958 -1.0005 -0.2197  1.0642
 2228SOL    HW222105   3.266   3.949   7.969 -0.3388 -1.1027 -0.1303
 2229SOL     OW22106   1.455   3.092  12.448 -0.4396 -0.2734  0.1947
 2229SOL    HW122107   1.397   3.018  12.469  0.4229 -1.3370 -1.1073
 2229SOL    HW222108   1.402   3.147  12.391 -0.3825 -0.9546 -0.5308
 2230SOL     OW22109   1.798   2.030   7.999 -0.4876  0.2473  0.0947
 2230SOL    HW122110   1.759   2.046   7.913 -1.4482  2.9702  0.9838
 2230SOL    HW222111   1.832   2.115   8.026  2.2211 -1.1411  1.2766
 2231SOL     OW22112   5.604   4.246   2.149 -0.0459  0.1470 -0.0759
 2231SOL    HW122113   5.571   4.263   2.237  0.6305 -0.4807  0.3014
 2231SOL    HW222114   5.657   4.323   2.129  1.7672 -0.7916  1.0295
 2232SOL     OW22115  -0.035   5.394   9.015 -0.2148 -0.9254 -0.5329
 2232SOL    HW122116  -0.006   5.405   8.925 -0.4781 -0.0164 -0.5032
 2232SOL    HW222117   0.044   5.400   9.068  0.0038 -1.9230 -0.7346
 2233SOL     OW22118   2.203   1.587   3.541  0.0412 -0.2323  0.5914
 2233SOL    HW122119   2.281   1.611   3.492  0.8583 -1.5297  1.2213
 2233SOL    HW222120   2.182   1.665   3.592 -0.6987  1.0512 -1.6331
 2234SOL     OW22121   4.855   0.277   0.875 -0.1496  0.5711  0.3688
 2234SOL    HW122122   4.880   0.334   0.948 -0.3683  1.2308 -0.0568
 2234SOL    HW222123   4.795   0.213   0.912 -0.8049  1.3277  0.6367
 2235SOL     OW22124   0.128   4.035   0.064  0.5300  0.1549 -0.4055
 2235SOL    HW122125   0.075   4.099   0.015 -0.4419  0.5827  1.1430
 2235SOL    HW222126   0.181   4.089   0.123 -2.2873 -0.4960  2.8840
 2236SOL     OW22127   0.424   0.757   1.586 -0.2807  0.3279 -0.5367
 2236SOL    HW122128   0.495   0.699   1.612  1.3247  1.7029 -1.7551
 2236SOL    HW222129   0.462   0.845   1.589 -1.8087  1.0535 -1.5941
 2237SOL     OW22130   3.019   4.315  10.796 -0.1409 -0.1209  0.7445
 2237SOL    HW122131   3.092   4.309  10.734  0.4489  1.6600  1.2338
 2237SOL    HW222132   3.027   4.236  10.850  1.9306  0.4149  1.2946
 2238SOL     OW22133   1.523   2.191   0.619  0.0827 -0.3147  0.7021
 2238SOL    HW122134   1.557   2.209   0.531  0.2406  0.4195  0.9101
 2238SOL    HW222135   1.429   2.206   0.611  0.2334  0.8157  0.9178
 2239SOL     OW22136   1.797   4.846  12.036 -0.1005  0.0627  0.0208
 2239SOL    HW122137   1.791   4.941  12.046 -1.5800  0.0436 -0.5832
 2239SOL    HW222138   1.706   4.816  12.034  0.3679 -1.4948  1.3664
 2240SOL     OW22139   4.570   5.686  11.641 -0.0422 -0.1557  0.2450
 2240SOL    HW122140   4.488   5.706  11.596 -0.1417  0.5609  0.7366
 2240SOL    HW222141   4.547   5.618  11.704 -0.3712  0.4260  0.7526
 2241SOL     OW22142   2.410   0.068   2.457  0.5531  0.4158  0.4217
 2241SOL    HW122143   2.362   0.037   2.534  0.1784  1.5610  0.6539
 2241SOL    HW222144   2.348   0.059   2.385  0.3186  0.9630  0.5516
 2242SOL     OW22145   1.907   5.180   3.429  0.0595  0.2353 -0.2439
 2242SOL    HW122146   1.919   5.085   3.438 -0.7286  0.2660  1.2908
 2242SOL    HW222147   1.865   5.207   3.511 -0.3957  1.8013 -0.9700
 2243SOL     OW22148   0.754   3.378   1.532 -0.2302  0.6166  0.1023
 2243SOL    HW122149   0.818   3.414   1.471  1.0561  1.2202  1.7647
 2243SOL    HW222150   0.754   3.284   1.515  1.0989  0.6160  0.0636
 2244SOL     OW22151   3.663   0.237   2.539  0.4360 -0.2077  0.3206
 2244SOL    HW122152   3.708   0.314   2.572 -1.3581  0.8047  0.4840
 2244SOL    HW222153   3.646   0.184   2.616 -0.4271  0.3747  0.5418
 2245SOL     OW22154   2.744   2.186   8.365  0.0834 -0.1339 -0.2410
 2245SOL    HW122155   2.738   2.264   8.419 -0.2502 -0.7757  0.6642
 2245SOL    HW222156   2.743   2.219   8.275 -3.4447  0.7349  0.0264
 2246SOL     OW22157   2.669   3.178   1.787 -0.3546 -0.3141 -0.0500
 2246SOL    HW122158   2.707   3.189   1.874 -0.7277  0.8703 -0.0254
 2246SOL    HW222159   2.725   3.113   1.744  2.0014  1.7257 -0.1824
 2247SOL     OW22160   2.798   5.881   8.832  0.5032  0.0715  0.0643
 2247SOL    HW122161   2.836   5.904   8.917 -0.3997 -0.2917  0.5713
 2247SOL    HW222162   2.817   5.788   8.822  0.2816  0.0287  0.0405
 2248SOL     OW22163   4.835   1.807  11.563  0.0249  0.4262 -0.4512
 2248SOL    HW122164   4.809   1.806  11.470  0.0805 -0.7636 -0.4641
 2248SOL    HW222165   4.901   1.738  11.570 -0.8397 -0.3169  0.7076
 2249SOL     OW22166   2.376   4.064   2.209 -0.4660 -0.5723 -0.5974
 2249SOL    HW122167   2.322   4.108   2.143  0.0826 -0.2171 -0.8164
 2249SOL    HW222168   2.458   4.113   2.208  0.0095 -1.3671 -0.5635
 2250SOL     OW22169   4.548   1.553   1.959  0.0436  0.2366  0.2119
 2250SOL    HW122170   4.545   1.488   1.888 -0.7111  1.2438 -0.7059
 2250SOL    HW222171   4.538   1.502   2.039 -1.3406 -0.6997 -0.5427
 2251SOL     OW22172   3.773   3.229   0.619 -0.8134  0.4172 -0.0311
 2251SOL    HW122173   3.820   3.211   0.700 -0.4075 -1.7696 -0.7133
 2251SOL    HW222174   3.825   3.297   0.576  0.3361 -0.1594  0.4171
 2252SOL     OW22175   1.453   3.397   0.768 -0.6849  0.2977  0.1578
 2252SOL    HW122176   1.456   3.302   0.783  0.2754  0.5662  1.7612
 2252SOL    HW222177   1.473   3.407   0.675 -2.8648 -1.1929 -0.5221
 2253SOL     OW22178   1.893   5.046   0.440 -0.3863  0.3747 -0.3553
 2253SOL    HW122179   1.859   5.133   0.421  0.3129  1.0892  1.5210
 2253SOL    HW222180   1.829   5.008   0.500 -0.6715 -0.3844 -1.1396
 2254SOL     OW22181   0.438   1.194   2.454 -0.3754  0.1026 -0.2469
 2254SOL    HW122182   0.529   1.207   2.478 -0.5325 -1.0646  1.0606
 2254SOL    HW222183   0.408   1.280   2.424  1.3150  0.3338 -1.3129
 2255SOL     OW22184   2.878   0.697   8.834  0.4169  0.1390  0.3064
 2255SOL    HW122185   2.906   0.785   8.809  1.8785 -0.6627 -0.9812
 2255SOL    HW222186   2.924   0.679   8.916  3.5370 -1.0488 -1.6334
 2256SOL     OW22187   1.678   3.628   2.978  0.2172 -0.4371 -0.3599
 2256SOL    HW122188   1.674   3.532   2.979  0.1716 -0.5202 -3.3392
 2256SOL    HW222189   1.599   3.655   2.931  0.9725  0.9768 -0.8582
 2257SOL     OW22190   0.214   2.300   8.788 -0.0388  0.2656  0.1275
 2257SOL    HW122191   0.254   2.233   8.732  0.8704  0.2367  0.8027
 2257SOL    HW222192   0.120   2.296   8.766  0.0456 -1.0127 -0.0655
 2258SOL     OW22193   3.930   1.875   2.014 -0.3302  0.7716 -0.2107
 2258SOL    HW122194   3.850   1.845   1.971  0.1919 -0.8563 -0.0720
 2258SOL    HW222195   3.984   1.910   1.943  1.3178 -3.5987 -1.2595
 2259SOL     OW22196   2.808   4.666   1.876 -0.1682 -0.4377 -0.4326
 2259SOL    HW122197   2.719   4.646   1.847 -1.3208 -0.6879  2.9959
 2259SOL    HW222198   2.818   4.759   1.860 -1.2814 -0.2803 -0.2506
 2260SOL     OW22199   0.767   1.786  12.013 -0.4682 -0.3700  0.3036
 2260SOL    HW122200   0.835   1.737  12.060 -0.2848  0.1081  0.5438
 2260SOL    HW222201   0.797   1.877  12.015 -1.9621  0.1200  1.9545
 2261SOL     OW22202   5.691   0.643   9.273  0.4921  0.1566 -0.4387
 2261SOL    HW122203   5.604   0.634   9.232  0.1711  0.3506  0.1946
 2261SOL    HW222204   5.696   0.569   9.333 -0.2778  1.5663  1.4118
 2262SOL     OW22205   5.598   2.272   9.747 -0.1638  0.2701 -0.6185
 2262SOL    HW122206   5.643   2.300   9.827 -2.1145  1.4572  0.1023
 2262SOL    HW222207   5.656   2.206   9.709 -0.5938 -2.6245  3.4028
 2263SOL     OW22208   0.926   1.169   0.960  0.2922 -0.2883 -0.1209
 2263SOL    HW122209   0.937   1.256   0.999  0.4528 -0.9010  1.2113
 2263SOL    HW222210   0.952   1.181   0.869 -2.9377  1.8783 -0.8778
 2264SOL     OW22211   3.378   5.745  10.547  0.2440  0.5294  0.2623
 2264SOL    HW122212   3.354   5.783  10.463  1.1911  0.4286 -0.0594
 2264SOL    HW222213   3.321   5.788  10.610  0.5878  1.7304 -0.2376
 2265SOL     OW22214   0.860   5.095  12.195  0.1609 -0.2538  0.3235
 2265SOL    HW122215   0.820   5.059  12.116  0.0672 -0.9891  0.7038
 2265SOL    HW222216   0.792   5.087  12.262  0.6052 -0.6089  0.7339
 2266SOL     OW22217   0.246   3.495   8.469 -0.0762  0.0883 -0.3530
 2266SOL    HW122218   0.162   3.492   8.424 -0.5942  0.7411  0.5527
 2266SOL    HW222219   0.267   3.403   8.487 -1.0102 -0.0193  0.1858
 2267SOL     OW22220   1.089   4.180  11.719  0.0247  0.0422 -0.0667
 2267SOL    HW122221   0.994   4.179  11.722 -0.0400  0.0002 -1.6817
 2267SOL    HW222222   1.115   4.096  11.756 -0.6120 -0.3840 -0.5597
 2268SOL     OW22223   2.536   5.426   3.050  0.1009  0.4931 -0.3683
 2268SOL    HW122224   2.490   5.509   3.040  0.2288  0.5391 -0.5705
 2268SOL    HW222225   2.538   5.412   3.145  1.2811  1.3937 -0.2509
 2269SOL     OW22226   5.013   1.647   9.856  0.0292 -0.1602 -0.2677
 2269SOL    HW122227   5.097   1.632   9.898  0.1142 -0.5401 -0.5777
 2269SOL    HW222228   5.007   1.580   9.788 -0.7770 -0.4956  0.1321
 2270SOL     OW22229   0.510   0.764  11.380  0.2495 -0.3513  0.2216
 2270SOL    HW122230   0.422   0.748  11.414  0.5958 -0.2917  1.1839
 2270SOL    HW222231   0.555   0.680  11.387  0.3101 -0.3485 -0.1302
 2271SOL     OW22232   4.112   4.534   8.158  0.3273 -0.1946  0.2253
 2271SOL    HW122233   4.022   4.566   8.164  0.5755  0.1421  2.6989
 2271SOL    HW222234   4.105   4.440   8.175  0.2418 -0.5373 -1.5720
 2272SOL     OW22235   3.290   0.385   2.328  0.7355  0.4244 -0.3167
 2272SOL    HW122236   3.270   0.401   2.236  1.2224 -0.4130 -0.5713
 2272SOL    HW222237   3.385   0.377   2.331  0.9921  3.4121  0.7394
 2273SOL     OW22238   4.801   5.763  11.769  0.2668  0.3462  0.0795
 2273SOL    HW122239   4.809   5.765  11.864 -0.2604 -0.7412  0.1580
 2273SOL    HW222240   4.709   5.745  11.753  0.1993  1.3020 -0.6540
 2274SOL     OW22241   1.903   5.824   0.301  0.3027  0.1484 -0.1634
 2274SOL    HW122242   1.860   5.788   0.378  1.8898 -2.2627 -0.3731
 2274SOL    HW222243   1.962   5.891   0.336 -3.6231  3.7636  0.1064
 2275SOL     OW22244   3.597   2.158   1.355 -0.1756  0.7805 -0.4022
 2275SOL    HW122245   3.657   2.121   1.290 -0.5925  2.1827 -1.6091
 2275SOL    HW222246   3.512   2.121   1.333  0.0193 -0.3008  0.5962
 2276SOL     OW22247   5.663   1.163   8.399  0.0983 -0.1454 -0.3399
 2276SOL    HW122248   5.585   1.216   8.379 -0.0296 -0.8406 -1.7758
 2276SOL    HW222249   5.650   1.082   8.350  1.1450 -0.7771  0.4125
 2277SOL     OW22250   0.031   3.483  11.683  0.3545  0.5162 -0.2098
 2277SOL    HW122251  -0.040   3.539  11.713 -2.4211 -2.2303 -1.4387
 2277SOL    HW222252   0.032   3.494  11.588  0.0360 -1.1767 -0.4326
 2278SOL     OW22253   1.148   5.560   8.369  0.3159 -0.4852  0.0746
 2278SOL    HW122254   1.084   5.620   8.408 -0.5675  0.0039 -2.0910
 2278SOL    HW222255   1.095   5.490   8.330  1.1871 -0.9087 -0.3681
 2279SOL     OW22256   0.967   4.264  10.525  0.2845 -0.5590 -0.2093
 2279SOL    HW122257   0.910   4.220  10.462 -2.2943 -1.0691  2.3539
 2279SOL    HW222258   1.044   4.207  10.532  0.3957 -0.7392 -2.4617
 2280SOL     OW22259   3.075   4.716  11.592 -0.4082  0.2302  0.7653
 2280SOL    HW122260   3.062   4.755  11.679 -0.2105  1.6107  0.1854
 2280SOL    HW222261   3.151   4.761  11.556  0.8190 -1.8259  0.7066
 2281SOL     OW22262   4.936   5.434   1.228  0.2310 -0.1428 -0.1966
 2281SOL    HW122263   4.909   5.363   1.286  1.4427 -0.4499  0.0135
 2281SOL    HW222264   4.862   5.495   1.228 -0.9169 -1.5056 -0.5465
 2282SOL     OW22265   5.277   2.752  11.908  0.3289 -0.3841  0.2405
 2282SOL    HW122266   5.210   2.687  11.885 -1.6068  1.5520  0.3112
 2282SOL    HW222267   5.342   2.744  11.838 -0.8891 -1.0049 -0.8583
 2283SOL     OW22268   1.832   2.211  11.382  0.0905 -0.0809  0.5939
 2283SOL    HW122269   1.825   2.159  11.462  1.2128 -0.8886  0.1692
 2283SOL    HW222270   1.801   2.298  11.408 -1.1706 -0.7712  1.4684
 2284SOL     OW22271   5.557   3.607   9.361 -0.0036 -0.0001 -0.1493
 2284SOL    HW122272   5.626   3.568   9.415  1.5786  0.0016 -2.0894
 2284SOL    HW222273   5.584   3.698   9.351 -0.5292  0.1110 -0.5761
 2285SOL     OW22274   0.676   5.675   1.475 -0.3187  0.4325 -0.0225
 2285SOL    HW122275   0.630   5.602   1.516 -0.0159  0.6456  0.7208
 2285SOL    HW222276   0.738   5.634   1.415 -1.6626  0.1511 -1.2476
 2286SOL     OW22277   5.654   2.144  11.805  0.0119 -0.0741  0.0964
 2286SOL    HW122278   5.635   2.185  11.889 -1.9829 -1.2025  0.2171
 2286SOL    HW222279   5.579   2.167  11.750  0.2050 -1.2292 -0.6705
 2287SOL     OW22280   5.250   4.556   0.178  0.3545 -0.3077  0.1336
 2287SOL    HW122281   5.231   4.475   0.225 -0.4334 -0.9145 -1.2169
 2287SOL    HW222282   5.289   4.614   0.244  0.2825 -1.5377  1.2594
 2288SOL     OW22283   2.383   0.071   1.739  0.4840 -0.0814  0.2623
 2288SOL    HW122284   2.449   0.057   1.807  0.1961  1.5758  0.9104
 2288SOL    HW222285   2.432   0.080   1.658  0.9440 -0.3065  0.5137
 2289SOL     OW22286   5.550   1.891   2.608 -0.1002 -0.0137 -0.0464
 2289SOL    HW122287   5.643   1.900   2.588 -0.7217  1.3087 -2.4741
 2289SOL    HW222288   5.520   1.980   2.626 -1.4059 -0.1202 -1.6231
 2290SOL     OW22289   3.385   0.927   8.251  0.1230  0.2193 -0.3963
 2290SOL    HW122290   3.402   0.967   8.166  0.8304  2.4382  0.7416
 2290SOL    HW222291   3.308   0.872   8.236  0.8619 -0.2461 -2.6962
 2291SOL     OW22292   2.093   5.080  10.000 -0.1523 -0.6171  0.5223
 2291SOL    HW122293   2.145   5.018   9.948  1.6630  1.6196 -0.4248
 2291SOL    HW222294   2.132   5.077  10.087  0.2318 -0.4897  0.3582
 2292SOL     OW22295   0.036   4.663  11.550  0.1634 -0.3615 -0.1398
 2292SOL    HW122296  -0.039   4.612  11.520 -0.9262  1.6552 -0.9293
 2292SOL    HW222297   0.101   4.651  11.480  0.2025 -1.2570  0.0392
 2293SOL     OW22298   0.027   0.426   1.610 -0.1562 -0.1208 -0.2314
 2293SOL    HW122299   0.108   0.440   1.562  0.4537 -0.6219  0.6469
 2293SOL    HW222300   0.034   0.338   1.645 -0.1985  0.5400  1.5158
 2294SOL     OW22301   2.667   2.150  11.370  0.1607 -0.2495  0.6624
 2294SOL    HW122302   2.602   2.214  11.342 -1.0228 -1.2733  1.0729
 2294SOL    HW222303   2.723   2.199  11.431 -0.4126  0.5405  0.5659
 2295SOL     OW22304   0.099   3.500   3.611 -0.1819 -0.7263 -0.1768
 2295SOL    HW122305   0.170   3.456   3.564  0.3244  0.6819 -0.7506
 2295SOL    HW222306   0.039   3.528   3.543  0.2183  0.7290  0.0524
 2296SOL     OW22307   2.689   0.144   0.488  0.0148 -0.3547  0.8926
 2296SOL    HW122308   2.659   0.231   0.514  2.2821  0.9098 -0.6341
 2296SOL    HW222309   2.720   0.154   0.398 -2.5728 -3.4555 -0.4723
 2297SOL     OW22310   1.552   5.294   1.349  0.1073 -0.7246  0.3164
 2297SOL    HW122311   1.509   5.379   1.343 -0.3663 -0.7673  2.5910
 2297SOL    HW222312   1.490   5.233   1.309 -0.2634 -0.2548  0.1684
 2298SOL     OW22313   0.536   2.087  12.099 -0.2600 -0.2171 -0.4958
 2298SOL    HW122314   0.596   2.162  12.102  0.1003 -0.5282  0.1759
 2298SOL    HW222315   0.549   2.042  12.182  0.2364 -1.5968 -1.3040
 2299SOL     OW22316   4.623   3.329  11.453  0.0739 -0.0834 -0.3669
 2299SOL    HW122317   4.531   3.344  11.477 -0.2611 -1.9363 -0.3704
 2299SOL    HW222318   4.633   3.373  11.369 -1.9025 -2.8911 -2.2005
 2300SOL     OW22319   4.435   3.758   0.246  0.3000  0.1549 -0.3854
 2300SOL    HW122320   4.419   3.705   0.324 -0.9588  2.0526  0.6645
 2300SOL    HW222321   4.530   3.758   0.236  0.3275 -2.2967 -0.4157
 2301SOL     OW22322   2.720   2.873  12.483  0.5754 -0.8420 -0.4206
 2301SOL    HW122323   2.656   2.833  12.424  0.7272 -2.0400  0.2010
 2301SOL    HW222324   2.715   2.967  12.465 -2.3930 -0.7599  0.6368
 2302SOL     OW22325   3.074   1.053  12.110 -0.2726  0.0698 -0.1866
 2302SOL    HW122326   3.132   1.050  12.034 -0.3680  2.2533 -0.3793
 2302SOL    HW222327   3.022   0.973  12.103  0.4474 -0.2931 -1.8205
 2303SOL     OW22328   2.960   3.517   3.412  0.2543  0.2768 -0.1905
 2303SOL    HW122329   2.898   3.566   3.359 -1.3406 -0.0780  1.2957
 2303SOL    HW222330   3.004   3.458   3.350  0.2456  1.6510 -1.5160
 2304SOL     OW22331   4.545   2.256   0.962 -0.0969  0.4651  0.3023
 2304SOL    HW122332   4.510   2.338   0.998 -1.8595  0.0933 -0.5482
 2304SOL    HW222333   4.598   2.284   0.887 -0.6828  0.8132  0.0215
 2305SOL     OW22334   5.435   1.331   9.191  0.5403 -0.0682  0.1757
 2305SOL    HW122335   5.394   1.313   9.106 -0.2617  0.6359  0.4018
 2305SOL    HW222336   5.481   1.251   9.213  0.5247 -0.3518 -0.8039
 2306SOL     OW22337   5.758   0.383  11.171  0.0547  0.5407 -0.0030
 2306SOL    HW122338   5.709   0.320  11.224 -1.1914  0.5192 -1.1510
 2306SOL    HW222339   5.842   0.340  11.154 -0.4978 -0.4917 -0.1533
 2307SOL     OW22340   0.505   4.907  10.908  0.3812  0.2341 -0.2059
 2307SOL    HW122341   0.464   4.853  10.976  1.2725 -1.2533 -0.8300
 2307SOL    HW222342   0.506   4.852  10.831 -1.7026  2.3260 -1.8077
 2308SOL     OW22343   5.097   5.073   0.120 -0.4489 -0.1051 -0.4031
 2308SOL    HW122344   5.063   5.070   0.031  1.0320 -0.5253 -0.9676
 2308SOL    HW222345   5.192   5.077   0.110 -0.2206 -0.9997  1.1578
 2309SOL     OW22346   0.709   1.703   1.096  0.4789  0.2584  0.6809
 2309SOL    HW122347   0.779   1.762   1.069  1.7962 -1.2333  0.7641
 2309SOL    HW222348   0.686   1.732   1.185  0.0675  1.5594  0.1704
 2310SOL     OW22349   5.213   0.014   0.879  0.1979  0.6600  0.3891
 2310SOL    HW122350   5.172  -0.057   0.829  1.0483 -0.6425  1.5086
 2310SOL    HW222351   5.144   0.043   0.940 -0.0129  0.5114  0.2228
 2311SOL     OW22352   3.820   1.049   0.467 -0.5674  0.0238 -0.5894
 2311SOL    HW122353   3.766   1.071   0.543  0.8601  3.3052 -0.4110
 2311SOL    HW222354   3.758   1.047   0.394 -1.6604 -1.2444  0.3543
 2312SOL     OW22355   5.787   4.537  11.092 -0.2278 -0.1957  0.1667
 2312SOL    HW122356   5.792   4.628  11.123  0.6125 -0.0353 -0.4227
 2312SOL    HW222357   5.753   4.488  11.167  0.0631  0.4740  0.7444
 2313SOL     OW22358   4.449   2.602   9.377  1.1240  0.2536 -0.4504
 2313SOL    HW122359   4.377   2.574   9.433  1.6570 -2.6336 -1.1085
 2313SOL    HW222360   4.407   2.630   9.296  0.6154  0.6672 -0.0469
 2314SOL     OW22361   2.862   2.020   1.037 -0.1161  0.2944  0.9560
 2314SOL    HW122362   2.861   1.933   0.997 -0.4424  0.9732 -0.5143
 2314SOL    HW222363   2.777   2.027   1.080 -0.5664  0.3512  0.0649
 2315SOL     OW22364   4.753   4.033   3.819 -0.0119  0.6050  0.0671
 2315SOL    HW122365   4.767   3.958   3.760  0.7727  0.8482 -0.0630
 2315SOL    HW222366   4.756   4.109   3.761 -3.5313  0.6109 -0.2376
 2316SOL     OW22367   3.205   0.643  10.040  0.0090 -0.0668 -0.4322
 2316SOL    HW122368   3.157   0.725  10.032 -0.8077 -0.5761 -0.7521
 2316SOL    HW222369   3.212   0.628  10.134  0.1168  0.3373 -0.3754
 2317SOL     OW22370   1.636   4.760   1.823 -0.2445 -0.4626 -0.4276
 2317SOL    HW122371   1.683   4.842   1.810 -0.7425 -0.0954  0.1071
 2317SOL    HW222372   1.547   4.777   1.793 -0.2323 -0.9526 -0.7680
 2318SOL     OW22373   1.192   0.601  12.347  0.1240  0.2148 -0.4175
 2318SOL    HW122374   1.275   0.646  12.365  0.4992 -0.1983 -1.0875
 2318SOL    HW222375   1.213   0.508  12.356 -0.8616  0.1879  1.8597
 2319SOL     OW22376   1.639   4.349   3.066  0.1798  0.1989 -0.2779
 2319SOL    HW122377   1.656   4.349   2.972  0.1230  0.1761 -0.2886
 2319SOL    HW222378   1.666   4.437   3.094 -1.1466  0.6998 -0.5568
 2320SOL     OW22379   2.338   2.413   1.995  0.0880  0.1654  0.1140
 2320SOL    HW122380   2.301   2.477   1.935 -0.2614 -1.5088 -1.4713
 2320SOL    HW222381   2.268   2.351   2.011  0.8296 -0.5583  0.6125
 2321SOL     OW22382   4.241   5.495   2.984  0.5363  0.3041  0.2092
 2321SOL    HW122383   4.308   5.433   2.954 -0.0886 -0.7697  1.0083
 2321SOL    HW222384   4.261   5.508   3.077  1.3762  2.2276 -0.2129
 2322SOL     OW22385   1.116   0.473   8.511 -0.2373  0.1496  0.4384
 2322SOL    HW122386   1.095   0.461   8.418  1.9040 -0.2290 -0.0219
 2322SOL    HW222387   1.045   0.527   8.545 -1.3419 -0.1873 -1.2946
 2323SOL     OW22388   2.723   5.236   8.829  0.4780 -0.1848  0.4834
 2323SOL    HW122389   2.638   5.249   8.788  1.2449  1.0670 -0.7477
 2323SOL    HW222390   2.712   5.156   8.881 -0.6301 -1.6241 -1.8769
 2324SOL     OW22391   3.817   2.764   0.230  0.1609 -0.4060 -0.5141
 2324SOL    HW122392   3.879   2.779   0.159 -0.5396 -1.1313 -1.3023
 2324SOL    HW222393   3.746   2.714   0.189 -0.4829 -0.4125  0.5871
 2325SOL     OW22394   5.809   5.493   9.245 -0.7869  0.1246  0.4387
 2325SOL    HW122395   5.827   5.430   9.176 -1.5850  0.2568  0.0983
 2325SOL    HW222396   5.840   5.451   9.325  0.1345 -0.0291 -0.0033
 2326SOL     OW22397   5.483   1.959   2.303 -0.8624  0.1300  0.4766
 2326SOL    HW122398   5.399   1.913   2.305 -1.2916  0.8794 -0.0473
 2326SOL    HW222399   5.477   2.024   2.373 -0.5371 -0.1235  0.7416
 2327SOL     OW22400   1.316   5.724   0.775 -0.1475  0.7256 -0.5620
 2327SOL    HW122401   1.409   5.702   0.766 -0.2505  0.4322 -0.9400
 2327SOL    HW222402   1.315   5.819   0.789  0.1528  0.8734 -1.5216
 2328SOL     OW22403   5.461   1.639   9.018  0.0685 -0.5731 -0.0472
 2328SOL    HW122404   5.506   1.686   8.947  0.3379  1.2676  1.3089
 2328SOL    HW222405   5.525   1.636   9.089 -0.5478 -1.5120  0.4747
 2329SOL     OW22406   2.683   2.870   2.310 -0.5854 -0.4386  0.1818
 2329SOL    HW122407   2.644   2.908   2.389 -0.7143 -1.1551  0.4636
 2329SOL    HW222408   2.763   2.920   2.297 -0.5425 -0.3373  0.7874
 2330SOL     OW22409   4.979   5.097  10.163 -0.3212 -0.0801 -0.6050
 2330SOL    HW122410   4.944   5.161  10.100  2.0302 -0.1679 -2.0595
 2330SOL    HW222411   5.029   5.150  10.225 -1.1632 -0.1805  0.1667
 2331SOL     OW22412   3.813   4.502  12.114 -0.1110  0.0058  0.0807
 2331SOL    HW122413   3.859   4.549  12.184  0.0348 -0.7937  0.5249
 2331SOL    HW222414   3.829   4.410  12.133 -1.2099 -0.2541 -0.2428
 2332SOL     OW22415   5.025   0.087   1.073  0.2274  0.0953 -0.0310
 2332SOL    HW122416   5.059   0.146   1.140 -0.3249  0.2486  0.1105
 2332SOL    HW222417   4.945   0.050   1.111 -0.3790  0.5958 -0.8190
 2333SOL     OW22418   5.656   5.608   2.243  0.2971  0.1645 -0.2296
 2333SOL    HW122419   5.612   5.575   2.164 -0.2173  1.2266 -0.3991
 2333SOL    HW222420   5.606   5.686   2.266  2.3114  1.5727 -0.5971
 2334SOL     OW22421   5.799   1.078   8.027  0.1566  0.0381 -0.3038
 2334SOL    HW122422   5.778   1.007   8.088  1.9985 -0.3106 -0.0538
 2334SOL    HW222423   5.889   1.102   8.048  0.4779  0.5742 -2.2240
 2335SOL     OW22424   3.356   1.597   0.646 -0.2921 -0.3173 -0.7487
 2335SOL    HW122425   3.287   1.663   0.655 -0.8514 -1.1502  1.2844
 2335SOL    HW222426   3.426   1.642   0.597 -0.9654  1.5309 -0.0521
 2336SOL     OW22427   2.915   2.261   2.161 -0.1321  0.2381 -0.5654
 2336SOL    HW122428   2.940   2.198   2.094  0.1160 -0.8969  0.5761
 2336SOL    HW222429   2.915   2.211   2.243 -1.0683  1.4431  0.1944
 2337SOL     OW22430   3.315   1.680  10.519  0.1097  0.3319 -0.0003
 2337SOL    HW122431   3.277   1.685  10.431 -1.3989  0.7959  0.6602
 2337SOL    HW222432   3.364   1.762  10.528 -0.1771  0.5316 -0.2126
 2338SOL     OW22433   2.034   5.575   9.833  0.1661 -0.3553 -0.1390
 2338SOL    HW122434   2.027   5.485   9.803  1.3380 -0.8254  0.9626
 2338SOL    HW222435   2.110   5.610   9.786  0.9434 -0.5650  0.9456
 2339SOL     OW22436   0.510   2.411   0.302  0.1663 -0.2039 -0.7494
 2339SOL    HW122437   0.591   2.361   0.288  0.5265 -0.0955  0.8711
 2339SOL    HW222438   0.514   2.481   0.237  1.4681 -0.0965 -0.5774
 2340SOL     OW22439   5.203   4.525   1.652  0.4135 -0.3690 -0.3745
 2340SOL    HW122440   5.274   4.538   1.715 -0.3892  0.6929  0.3358
 2340SOL    HW222441   5.123   4.540   1.703 -0.3080 -1.4169 -1.1979
 2341SOL     OW22442   1.814   0.752   2.114  0.3817  0.1967 -0.0990
 2341SOL    HW122443   1.878   0.684   2.092  0.6072  0.1128  0.7933
 2341SOL    HW222444   1.826   0.819   2.047 -1.6533 -1.8103 -2.5353
 2342SOL     OW22445   1.260   5.219   8.879 -0.0194  0.2325 -0.1783
 2342SOL    HW122446   1.227   5.233   8.791 -1.5607 -1.0552  0.1960
 2342SOL    HW222447   1.246   5.303   8.923 -1.6411  0.0873 -0.3951
 2343SOL     OW22448   3.116   5.299   1.642 -0.5282  0.0004 -0.2641
 2343SOL    HW122449   3.176   5.322   1.571 -1.1957 -1.4712 -1.3291
 2343SOL    HW222450   3.031   5.289   1.598 -1.2606  0.6054  0.9899
 2344SOL     OW22451   0.121   5.123   9.529 -0.3804  0.4875 -0.5286
 2344SOL    HW122452   0.097   5.188   9.595 -1.4095 -0.7871  0.3915
 2344SOL    HW222453   0.078   5.042   9.559  1.1155 -0.6855 -1.4798
 2345SOL     OW22454   3.224   5.472  11.576 -0.1943 -0.4145 -0.1409
 2345SOL    HW122455   3.248   5.564  11.579 -1.6739 -0.0539  1.8007
 2345SOL    HW222456   3.168   5.463  11.499  2.4692 -0.3768 -2.1617
 2346SOL     OW22457   5.973   5.382   0.828  0.0051 -0.0553 -0.1101
 2346SOL    HW122458   5.939   5.431   0.904 -0.9203 -0.1020 -0.4882
 2346SOL    HW222459   5.917   5.408   0.756  0.7978 -0.1226 -0.7620
 2347SOL     OW22460   0.817   2.673   2.877  0.1274 -0.0291 -0.1223
 2347SOL    HW122461   0.876   2.689   2.804  0.0663  0.2173 -0.1171
 2347SOL    HW222462   0.862   2.606   2.930 -0.4204 -1.1684 -1.0673
 2348SOL     OW22463   0.692   2.951   3.987  0.1060  0.4509  0.2905
 2348SOL    HW122464   0.675   2.929   3.896  1.0164  1.9439 -0.2616
 2348SOL    HW222465   0.761   2.891   4.014  0.4210  0.5646 -0.2635
 2349SOL     OW22466   4.533   0.268   3.582  0.2355 -0.1875  1.2296
 2349SOL    HW122467   4.539   0.177   3.613  1.6751 -0.9466 -1.1128
 2349SOL    HW222468   4.446   0.275   3.545  0.0652 -0.5767  1.5492
 2350SOL     OW22469   2.076   0.157   2.366  0.1057  0.8133 -0.1035
 2350SOL    HW122470   2.033   0.073   2.383 -1.3559  1.0609 -2.3368
 2350SOL    HW222471   2.053   0.211   2.441 -1.5317  0.1762 -0.1168
 2351SOL     OW22472   4.630   3.947   1.211  0.5473 -0.8556  0.5491
 2351SOL    HW122473   4.659   3.882   1.275 -1.4446 -0.9556  1.3766
 2351SOL    HW222474   4.535   3.939   1.209  0.2738  1.8826  0.5343
 2352SOL     OW22475   2.191   2.223  11.545  0.3322  0.1520 -0.2136
 2352SOL    HW122476   2.188   2.312  11.509  0.4818  0.1334 -0.2764
 2352SOL    HW222477   2.171   2.167  11.470  2.4150  0.0088 -0.7066
 2353SOL     OW22478   1.812   4.913   2.176  0.1232 -0.1354 -0.0648
 2353SOL    HW122479   1.747   4.928   2.244  2.4832  0.1255  2.2318
 2353SOL    HW222480   1.896   4.936   2.217  1.8748 -2.2028 -2.2931
 2354SOL     OW22481   5.631   3.242   2.310  0.4436 -0.0898 -0.0481
 2354SOL    HW122482   5.722   3.270   2.323  0.6206 -1.2116  1.3032
 2354SOL    HW222483   5.625   3.158   2.356 -1.3915  0.1467  0.1850
 2355SOL     OW22484   0.561   1.816   3.393 -0.4892  0.1460 -0.3622
 2355SOL    HW122485   0.577   1.865   3.473 -1.4633 -0.7524  0.3937
 2355SOL    HW222486   0.502   1.871   3.342  1.0169  1.2204 -0.9615
 2356SOL     OW22487   3.271   1.977   3.073  0.0858  0.3920 -0.4100
 2356SOL    HW122488   3.217   1.910   3.030  0.5437 -0.0511 -0.2933
 2356SOL    HW222489   3.359   1.964   3.037  0.5895 -0.3411  1.0921
 2357SOL     OW22490   4.819   4.384   9.968  0.3840 -0.1888 -0.6542
 2357SOL    HW122491   4.791   4.418  10.053  1.3868  0.4285 -0.5594
 2357SOL    HW222492   4.754   4.318   9.946 -0.8984  0.9189 -0.2493
 2358SOL     OW22493   3.899   3.615  11.690 -0.5048 -0.3005 -0.1128
 2358SOL    HW122494   3.856   3.670  11.624  3.2822  0.1314 -2.3614
 2358SOL    HW222495   3.910   3.530  11.647 -0.7828 -0.9454  1.0845
 2359SOL     OW22496   0.633   4.557   3.453 -0.3834 -0.4093 -0.2014
 2359SOL    HW122497   0.630   4.462   3.464 -0.5565 -0.1667  2.1003
 2359SOL    HW222498   0.542   4.584   3.452 -0.3206 -0.0351  1.6988
 2360SOL     OW22499   1.032   4.872   8.955  0.4006 -0.4328  0.4591
 2360SOL    HW122500   1.019   4.964   8.934 -0.2190 -0.7686 -0.7224
 2360SOL    HW222501   1.115   4.849   8.913  1.3359 -0.0342  2.0664
 2361SOL     OW22502   2.141   3.997   0.348 -0.5342 -0.2716 -0.5036
 2361SOL    HW122503   2.070   4.044   0.305 -0.3261  0.3111 -0.2274
 2361SOL    HW222504   2.169   4.056   0.418  3.3266  1.6275 -3.4557
 2362SOL     OW22505   5.503   2.679   3.123  0.2797 -0.4425  0.0429
 2362SOL    HW122506   5.584   2.629   3.129 -0.8538 -2.2985  0.4967
 2362SOL    HW222507   5.475   2.690   3.214  0.0134  0.1518 -0.1083
 2363SOL     OW22508   5.299   3.612  12.441 -0.2603  0.1902 -0.0236
 2363SOL    HW122509   5.348   3.537  12.407  0.1807  0.2010  0.5675
 2363SOL    HW222510   5.208   3.596  12.415 -0.2530 -0.8089  0.5430
 2364SOL     OW22511   0.575   3.603   8.664 -0.0298 -0.2191 -0.4590
 2364SOL    HW122512   0.505   3.538   8.677  1.2375 -1.8454 -1.5741
 2364SOL    HW222513   0.537   3.667   8.604 -0.6270 -1.0074 -0.9319
 2365SOL     OW22514   0.222   5.050  10.959 -0.8306  0.2665 -0.2028
 2365SOL    HW122515   0.308   5.068  10.998 -0.8513 -0.0807  0.0144
 2365SOL    HW222516   0.225   5.092  10.873 -0.2120 -0.2828 -0.4548
 2366SOL     OW22517   2.284   3.264  11.235 -0.2167 -0.1068 -0.2523
 2366SOL    HW122518   2.241   3.231  11.313 -1.2167 -1.3874 -1.3224
 2366SOL    HW222519   2.336   3.191  11.202 -0.3499  0.2062 -1.1740
 2367SOL     OW22520   2.582   1.550   1.045  0.0239  0.1489  0.1218
 2367SOL    HW122521   2.568   1.458   1.065  0.2983  0.2248  0.6788
 2367SOL    HW222522   2.596   1.591   1.130  2.9985  0.1688 -0.3257
 2368SOL     OW22523   4.003   4.414   9.909 -0.3964 -0.1142 -0.3047
 2368SOL    HW122524   3.979   4.434   9.819 -0.5544 -4.2874 -1.2931
 2368SOL    HW222525   3.923   4.378   9.948 -0.1545  1.0540  1.3239
 2369SOL     OW22526   4.662   5.044   1.937  0.3458  0.4236 -0.0459
 2369SOL    HW122527   4.742   5.067   1.890  0.9084 -1.6491 -0.1467
 2369SOL    HW222528   4.613   4.988   1.877 -1.6737  2.4603 -0.3691
 2370SOL     OW22529   2.989   3.863   0.428  0.2346  0.2297 -0.8035
 2370SOL    HW122530   2.989   3.797   0.358  0.9627 -0.1721 -0.4345
 2370SOL    HW222531   2.922   3.926   0.402 -0.2867 -0.5192 -1.2982
 2371SOL     OW22532   0.678   4.798   8.906  0.1715 -0.6381 -0.2808
 2371SOL    HW122533   0.666   4.808   8.812  0.5332 -1.6263 -0.4371
 2371SOL    HW222534   0.712   4.709   8.917  1.9851  0.1348  0.6118
 2372SOL     OW22535   0.194   4.749   9.728 -0.3746 -0.1129  0.0070
 2372SOL    HW122536   0.237   4.688   9.667  0.6762  0.2642  0.3690
 2372SOL    HW222537   0.262   4.771   9.791 -1.0252  0.7269  0.4109
 2373SOL     OW22538   1.660   4.120   8.120  0.2542 -0.0643 -0.2200
 2373SOL    HW122539   1.658   4.197   8.064 -0.4369  1.7780  2.2303
 2373SOL    HW222540   1.591   4.136   8.185 -0.1893 -2.9588  0.1013
 2374SOL     OW22541   0.636   5.353   9.760 -0.0604 -0.4922 -0.3434
 2374SOL    HW122542   0.720   5.327   9.721 -0.4319  0.1602 -1.6270
 2374SOL    HW222543   0.648   5.342   9.854  1.5366 -0.1838 -0.5056
 2375SOL     OW22544   3.839   0.631  11.933 -0.0188  0.1536 -0.0442
 2375SOL    HW122545   3.786   0.609  12.010 -1.6684  1.2302 -0.8491
 2375SOL    HW222546   3.913   0.679  11.969  0.6431 -1.6830  1.1419
 2376SOL     OW22547   1.896   2.484   9.726  0.3610 -0.0761  0.0959
 2376SOL    HW122548   1.815   2.533   9.712  0.1228 -1.1018 -2.4774
 2376SOL    HW222549   1.884   2.441   9.811 -1.4132  0.4728  0.1423
 2377SOL     OW22550   3.417   2.332   3.335  0.0602  0.0613 -0.4967
 2377SOL    HW122551   3.358   2.303   3.266 -0.3881  1.1705 -0.5944
 2377SOL    HW222552   3.472   2.399   3.294 -0.3912  0.9279  0.2615
 2378SOL     OW22553   5.497   0.196  11.745  0.0249 -0.1969 -0.5665
 2378SOL    HW122554   5.539   0.251  11.811  1.7135 -1.0945 -0.8594
 2378SOL    HW222555   5.555   0.202  11.669 -1.0271 -0.4937 -1.4034
 2379SOL     OW22556   1.512   0.712   1.206  0.8035 -0.1703  0.3049
 2379SOL    HW122557   1.444   0.700   1.272  1.6931 -1.8696  0.9561
 2379SOL    HW222558   1.467   0.748   1.130 -0.7561 -0.9571  0.8451
 2380SOL     OW22559   0.168   3.190   0.131  0.6021  0.0806  0.4100
 2380SOL    HW122560   0.133   3.230   0.051  1.3192  0.9404  0.5204
 2380SOL    HW222561   0.102   3.207   0.197  0.0011 -0.6390  0.0059
 2381SOL     OW22562   4.703   2.172  12.094  0.4254  0.0008 -0.7664
 2381SOL    HW122563   4.755   2.092  12.104 -1.1855 -1.0126 -0.3939
 2381SOL    HW222564   4.728   2.226  12.169  0.1335 -0.9415  0.0172
 2382SOL     OW22565   0.524   2.054  11.684  0.8263 -0.2827 -0.1323
 2382SOL    HW122566   0.598   2.011  11.642  0.8675 -1.9070  1.5892
 2382SOL    HW222567   0.526   2.025  11.775 -0.6757  1.3282  0.4605
 2383SOL     OW22568   0.889   5.373  10.188 -0.1106  0.4315 -0.1623
 2383SOL    HW122569   0.972   5.345  10.149  0.5683  2.0707  0.0659
 2383SOL    HW222570   0.874   5.312  10.260  0.8625  0.0839 -0.2523
 2384SOL     OW22571   4.209   3.923   8.568  0.4975  0.0023 -0.3191
 2384SOL    HW122572   4.149   3.980   8.615  1.3944 -0.8255  1.8957
 2384SOL    HW222573   4.226   3.968   8.485 -0.2183  2.0397  0.6272
 2385SOL     OW22574   2.274   4.612   8.521  0.2070  0.4551 -0.3038
 2385SOL    HW122575   2.199   4.652   8.477  1.2866 -0.0631 -2.7383
 2385SOL    HW222576   2.237   4.566   8.596 -1.8362  0.5627 -1.2094
 2386SOL     OW22577   1.010   3.057  10.115 -0.3254  0.1657  0.1737
 2386SOL    HW122578   1.079   2.996  10.090  0.1380  1.3247 -1.3721
 2386SOL    HW222579   1.052   3.116  10.178 -0.2530  0.0910  0.1956
 2387SOL     OW22580   1.474   3.144   0.230  0.2629  0.5614  0.4879
 2387SOL    HW122581   1.449   3.142   0.138  1.2580  0.7218  0.2068
 2387SOL    HW222582   1.425   3.072   0.270 -0.4694  0.7340 -0.0845
 2388SOL     OW22583   4.765   4.638  10.660  0.1893 -0.1842 -0.5873
 2388SOL    HW122584   4.775   4.730  10.685 -1.6812 -0.2724  0.5698
 2388SOL    HW222585   4.779   4.637  10.566 -0.7791  1.4593 -0.7610
 2389SOL     OW22586   5.584   4.961  11.773  0.5605 -0.5339  0.1176
 2389SOL    HW122587   5.590   5.042  11.823  0.2880 -0.4901  0.0811
 2389SOL    HW222588   5.675   4.935  11.758  0.6448 -0.7319  0.9371
 2390SOL     OW22589   3.068   2.236   7.825  0.0668 -0.2003  0.2864
 2390SOL    HW122590   3.014   2.196   7.893 -1.5103  0.6616 -0.4130
 2390SOL    HW222591   3.083   2.166   7.762  0.6734 -0.7337  1.0259
 2391SOL     OW22592   1.555   4.392   1.860 -0.3853 -0.4718  0.1349
 2391SOL    HW122593   1.541   4.340   1.939 -0.4283  1.7934  1.6424
 2391SOL    HW222594   1.491   4.463   1.865  0.0776  0.1071 -1.5779
 2392SOL     OW22595   3.838   5.105   0.438  0.4894  0.0081  0.3743
 2392SOL    HW122596   3.794   5.058   0.367 -0.8911  0.2448  1.0597
 2392SOL    HW222597   3.899   5.164   0.393  0.5555 -0.7542 -0.5646
 2393SOL     OW22598   5.515   5.847   9.034 -0.3813 -0.1802 -0.4959
 2393SOL    HW122599   5.431   5.814   9.066 -0.8408 -0.6961 -2.2020
 2393SOL    HW222600   5.579   5.818   9.099 -1.4387 -0.2347  0.5389
 2394SOL     OW22601   3.937   0.590  10.572 -0.0523  0.0964  0.1882
 2394SOL    HW122602   4.029   0.586  10.546 -0.5133  0.3891 -1.5533
 2394SOL    HW222603   3.935   0.552  10.660  2.0156  1.8462  1.0555
 2395SOL     OW22604   2.936   0.640   8.164  0.3737  0.3119 -0.3643
 2395SOL    HW122605   2.916   0.705   8.096  1.5533  0.0714 -0.9540
 2395SOL    HW222606   2.863   0.647   8.226 -1.2532 -0.1798 -2.1746
 2396SOL     OW22607   5.894   4.128  11.136  0.5544  0.1993 -0.0003
 2396SOL    HW122608   5.966   4.069  11.112 -0.6149 -0.6456 -1.5139
 2396SOL    HW222609   5.865   4.098  11.222  0.6259 -0.8039 -0.3188
 2397SOL     OW22610   4.370   1.051  10.636  0.4703  0.3636 -0.4432
 2397SOL    HW122611   4.442   1.050  10.573 -0.1694  1.9302 -1.2088
 2397SOL    HW222612   4.412   1.072  10.720  1.2682 -1.3698 -0.3632
 2398SOL     OW22613   0.324   1.134   4.136 -0.4243  0.3035 -0.1456
 2398SOL    HW122614   0.325   1.055   4.190 -1.1674  0.5252  0.2010
 2398SOL    HW222615   0.347   1.103   4.048 -1.2297 -0.3993 -0.1239
 2399SOL     OW22616   3.437   1.677   2.378 -0.0110  0.8318  0.2221
 2399SOL    HW122617   3.509   1.718   2.426 -0.5004 -0.7928  2.4427
 2399SOL    HW222618   3.479   1.624   2.311  0.8172  0.6038  0.9194
 2400SOL     OW22619   2.588   0.495   8.029 -0.0562 -0.4302  0.3200
 2400SOL    HW122620   2.582   0.477   7.935  0.1961 -1.7963  0.5625
 2400SOL    HW222621   2.670   0.545   8.039 -0.8088  0.9752 -0.3602
 2401SOL     OW22622   0.600   4.713   0.077  0.3106  0.9308 -0.1550
 2401SOL    HW122623   0.600   4.618   0.094 -0.2104  0.9480 -0.0614
 2401SOL    HW222624   0.567   4.722  -0.012 -0.6337  1.0910  0.2066
 2402SOL     OW22625   1.094   0.791  11.360  0.5440  0.5501  0.2176
 2402SOL    HW122626   1.136   0.845  11.428 -0.0467  1.0130  0.2197
 2402SOL    HW222627   1.159   0.725  11.338  0.0023 -0.8773  2.7135
 2403SOL     OW22628   4.608   0.491   3.224 -0.2071  0.1495  0.1036
 2403SOL    HW122629   4.560   0.410   3.204  0.3564 -0.3393  0.7375
 2403SOL    HW222630   4.548   0.561   3.195  0.3051 -0.5086 -2.7622
 2404SOL     OW22631   0.166   0.549   2.454  0.4009  0.3615 -0.1334
 2404SOL    HW122632   0.125   0.588   2.531  1.0518 -0.7777  0.8089
 2404SOL    HW222633   0.253   0.523   2.484  1.8074  2.6428 -2.0620
 2405SOL     OW22634   3.781   1.583  10.625 -0.7951  0.3872 -0.6207
 2405SOL    HW122635   3.834   1.526  10.570 -1.5841  1.1103 -2.1562
 2405SOL    HW222636   3.711   1.527  10.657 -1.1598  0.2966 -1.5498
 2406SOL     OW22637   1.136   3.504   1.688  0.4179 -0.0245 -0.2173
 2406SOL    HW122638   1.222   3.547   1.699  1.3328 -1.7307 -0.5652
 2406SOL    HW222639   1.107   3.487   1.778  0.0053  1.3932 -0.0723
 2407SOL     OW22640   2.475   1.409  12.075  0.0535  0.0180 -0.0933
 2407SOL    HW122641   2.410   1.478  12.089 -0.0731  0.4527 -2.5002
 2407SOL    HW222642   2.539   1.448  12.016 -0.3034 -2.0680 -1.9394
 2408SOL     OW22643   5.184   5.321  11.098  0.3150  0.3882 -0.1196
 2408SOL    HW122644   5.107   5.299  11.150  0.1306  1.4426  0.0624
 2408SOL    HW222645   5.251   5.345  11.163  0.1835  1.3946 -0.3475
 2409SOL     OW22646   5.089   0.367   2.970 -0.2056  0.4511 -0.2125
 2409SOL    HW122647   5.103   0.438   2.908  0.5942 -1.2564 -2.0390
 2409SOL    HW222648   5.029   0.307   2.925 -1.3781  0.2584  1.5499
 2410SOL     OW22649   5.865   0.865   0.047 -0.7245 -0.3589  0.4848
 2410SOL    HW122650   5.784   0.826   0.079  0.7847 -3.3347  0.8764
 2410SOL    HW222651   5.895   0.805  -0.021  0.8848  0.9573  0.0059
 2411SOL     OW22652   4.404   2.433  11.598 -0.2408  0.0336  0.6801
 2411SOL    HW122653   4.370   2.345  11.612 -0.3601  0.0125  0.2607
 2411SOL    HW222654   4.326   2.489  11.595 -0.0816  0.4788  3.1232
 2412SOL     OW22655   2.285   0.079   2.065 -0.2599 -0.3835  0.0353
 2412SOL    HW122656   2.321   0.166   2.051 -1.8213  0.3611  0.4710
 2412SOL    HW222657   2.192   0.094   2.084 -0.9834 -2.2586 -1.7618
 2413SOL     OW22658   2.320   0.668   8.871  0.8436 -0.3068  0.2535
 2413SOL    HW122659   2.291   0.613   8.944 -0.6104  1.9403  1.4344
 2413SOL    HW222660   2.415   0.662   8.873  0.8330 -0.1979  2.4216
 2414SOL     OW22661   2.015   5.090  11.754  0.3334 -0.1444 -0.6219
 2414SOL    HW122662   2.089   5.055  11.704  0.3511 -0.2304 -0.5354
 2414SOL    HW222663   2.042   5.082  11.846  1.9172  3.4896 -0.6390
 2415SOL     OW22664   0.079   1.072   3.207 -0.4590  0.1951  0.2369
 2415SOL    HW122665   0.174   1.061   3.212 -0.5580 -1.0128 -0.5336
 2415SOL    HW222666   0.057   1.122   3.286  0.7814  0.2616  0.5492
 2416SOL     OW22667   2.830   1.587   9.261 -0.3842 -0.1607 -0.5485
 2416SOL    HW122668   2.875   1.540   9.331 -1.4424 -0.5364 -0.1060
 2416SOL    HW222669   2.814   1.674   9.298  1.2741  0.4605 -1.2455
 2417SOL     OW22670   4.481   1.391   8.859 -0.1359  0.2316  0.3254
 2417SOL    HW122671   4.548   1.416   8.796 -1.5086  1.7594 -0.5623
 2417SOL    HW222672   4.452   1.473   8.898  0.2863 -0.6510  2.5409
 2418SOL     OW22673   0.753   0.342  10.809 -0.1196 -0.2419  0.2185
 2418SOL    HW122674   0.769   0.397  10.732  1.2045 -1.8301 -0.6911
 2418SOL    HW222675   0.818   0.370  10.873 -1.0124  0.8644  0.6559
 2419SOL     OW22676   2.265   3.228   1.093 -0.1157  0.2363  0.0651
 2419SOL    HW122677   2.290   3.263   1.178 -1.0863 -2.1823  1.3892
 2419SOL    HW222678   2.334   3.164   1.072 -1.7594 -1.8328  0.7847
 2420SOL     OW22679   5.809   4.466  11.413  0.3713 -0.5992 -0.2519
 2420SOL    HW122680   5.743   4.414  11.368  1.5047 -0.5488 -2.0384
 2420SOL    HW222681   5.892   4.437  11.375  1.0676  2.0865 -0.8866
 2421SOL     OW22682   0.994   1.176   1.988  0.0200 -0.5899  0.1919
 2421SOL    HW122683   1.044   1.251   1.958  0.1897 -0.2573  1.2820
 2421SOL    HW222684   0.907   1.187   1.950  0.0295  0.1920  0.3930
 2422SOL     OW22685   0.939   5.196   1.316  0.0720  0.0182 -0.4808
 2422SOL    HW122686   0.880   5.145   1.260  0.2541  0.6379 -1.2451
 2422SOL    HW222687   0.945   5.145   1.397 -0.6253 -0.6131 -0.8186
 2423SOL     OW22688   1.039   0.934  11.981 -0.2260  0.1520 -0.2535
 2423SOL    HW122689   1.122   0.975  11.956  0.7831 -0.6369  1.6822
 2423SOL    HW222690   1.026   0.865  11.916  0.4499  0.5088 -0.7823
 2424SOL     OW22691   2.916   2.459   2.759  0.3372 -0.2328 -0.6603
 2424SOL    HW122692   3.002   2.444   2.718  1.3064  0.8267  0.9085
 2424SOL    HW222693   2.873   2.523   2.703  0.8637 -0.2499 -1.0840
 2425SOL     OW22694   2.838   1.688   8.166  0.6006 -0.6161  0.4086
 2425SOL    HW122695   2.755   1.701   8.121 -0.1309 -0.0529  1.9136
 2425SOL    HW222696   2.896   1.756   8.130  0.1024 -0.3304  0.1456
 2426SOL     OW22697   3.519   4.754  11.220 -0.3426 -0.1555  0.3323
 2426SOL    HW122698   3.557   4.676  11.259  2.0233  0.6833 -0.2354
 2426SOL    HW222699   3.444   4.722  11.170  0.1050 -1.9399  0.7704
 2427SOL     OW22700   0.478   0.429  12.303  0.4156  0.2283  0.0060
 2427SOL    HW122701   0.431   0.416  12.220  0.5116 -0.8739  0.1195
 2427SOL    HW222702   0.409   0.429  12.369  0.5170 -0.7687  0.1120
 2428SOL     OW22703   3.609   5.570   2.167 -0.0754 -0.2924  0.6296
 2428SOL    HW122704   3.523   5.528   2.165 -0.3617  0.2949  0.4449
 2428SOL    HW222705   3.632   5.573   2.260 -0.9630  0.9525  0.8369
 2429SOL     OW22706   2.864   0.695   9.903 -0.1287 -0.2896 -0.2886
 2429SOL    HW122707   2.920   0.689   9.980  0.3842  0.8376 -0.5521
 2429SOL    HW222708   2.794   0.754   9.929  1.0228  1.5638 -1.2240
 2430SOL     OW22709   0.812   3.165   8.215  0.1121  0.0334 -0.0990
 2430SOL    HW122710   0.837   3.119   8.295 -0.5851  0.1779  0.2017
 2430SOL    HW222711   0.870   3.242   8.213  0.5845 -0.3180 -0.0818
 2431SOL     OW22712   0.343   1.215   3.629 -0.6184  0.3266 -0.2711
 2431SOL    HW122713   0.344   1.242   3.537 -1.0301  0.9991 -0.0820
 2431SOL    HW222714   0.269   1.154   3.635  0.1030 -0.5904 -0.6265
 2432SOL     OW22715   1.627   1.271  12.370 -0.2138  0.1778  0.2023
 2432SOL    HW122716   1.673   1.346  12.408 -0.7492  0.3035  0.5986
 2432SOL    HW222717   1.556   1.252  12.431  0.0611 -0.8046  0.2227
 2433SOL     OW22718   0.965   2.018  11.670 -0.3634  0.2628 -0.0220
 2433SOL    HW122719   0.884   1.997  11.624 -0.3545  0.6839 -0.2315
 2433SOL    HW222720   0.957   1.974  11.754 -1.3553  1.3501  0.4474
 2434SOL     OW22721   5.194   5.304   1.131 -0.3733 -0.8074 -0.5728
 2434SOL    HW122722   5.221   5.395   1.120  1.3509 -0.9100  2.4107
 2434SOL    HW222723   5.249   5.256   1.069  1.6357 -0.2632  0.7606
 2435SOL     OW22724   0.565   5.498   3.224 -0.2067  0.0786  0.1660
 2435SOL    HW122725   0.546   5.574   3.279  2.5492  1.7664 -1.0935
 2435SOL    HW222726   0.524   5.518   3.140  0.1157 -0.0216 -0.0190
 2436SOL     OW22727   3.050   1.738   7.572  0.0343 -0.7103  0.1196
 2436SOL    HW122728   3.025   1.696   7.654  1.0112 -0.5988  0.4820
 2436SOL    HW222729   2.981   1.713   7.510 -1.4207  0.2890  1.2934
 2437SOL     OW22730   2.490   3.801   1.379 -0.0599 -0.2837 -0.6276
 2437SOL    HW122731   2.501   3.896   1.384 -1.2912 -0.0748 -1.7581
 2437SOL    HW222732   2.546   3.767   1.448  1.9317  1.1567 -1.4935
 2438SOL     OW22733   1.444   4.597  12.435 -0.0686 -0.8080 -0.1648
 2438SOL    HW122734   1.453   4.543  12.513  0.2981  3.3152  2.8317
 2438SOL    HW222735   1.358   4.638  12.444 -0.8731 -1.7230 -3.0078
 2439SOL     OW22736   0.128   0.067   1.157 -0.1933 -0.5710  1.0699
 2439SOL    HW122737   0.044   0.098   1.124 -0.4342 -1.8796  0.4035
 2439SOL    HW222738   0.142  -0.016   1.112  3.1690  1.2867 -1.5569
 2440SOL     OW22739   3.691   0.230  11.911 -0.1539  0.2768  0.5547
 2440SOL    HW122740   3.647   0.287  11.974 -0.2407  1.1464 -0.2754
 2440SOL    HW222741   3.642   0.242  11.829  1.7736  1.4784 -0.4658
 2441SOL     OW22742   0.966   4.560   9.564 -0.2540  0.1108  0.1531
 2441SOL    HW122743   0.931   4.648   9.551 -2.1456 -0.8465 -1.6147
 2441SOL    HW222744   0.903   4.503   9.519  0.4943 -2.2050  1.9556
 2442SOL     OW22745   4.835   2.095   1.016 -0.5836  0.0090  0.2235
 2442SOL    HW122746   4.929   2.081   1.032 -0.2049  1.0515 -0.9294
 2442SOL    HW222747   4.826   2.191   1.016 -1.7085 -0.0993  0.6691
 2443SOL     OW22748   1.659   5.640   2.290  0.1835  0.4162  0.2756
 2443SOL    HW122749   1.746   5.638   2.331 -0.3078  2.3012  1.4781
 2443SOL    HW222750   1.621   5.555   2.310  1.9869 -0.6647 -0.7891
 2444SOL     OW22751   2.960   2.593   0.421 -0.1298 -0.1397  0.1862
 2444SOL    HW122752   3.000   2.507   0.415  1.1418  0.4950 -0.4634
 2444SOL    HW222753   2.986   2.638   0.341 -0.8164  0.8385  0.5043
 2445SOL     OW22754   4.657   5.384   1.055  0.1515 -0.0508 -0.0764
 2445SOL    HW122755   4.646   5.335   1.136  2.8893  1.1387  1.1017
 2445SOL    HW222756   4.689   5.470   1.083  1.4357  0.2849 -2.4122
 2446SOL     OW22757   3.385   0.133   1.817  0.4261 -0.0368 -0.4967
 2446SOL    HW122758   3.469   0.100   1.786  1.1505  1.6629 -0.4330
 2446SOL    HW222759   3.351   0.184   1.744  0.2555  0.6576  0.0497
 2447SOL     OW22760   3.813   1.384   8.261  0.3861 -0.3802  0.3684
 2447SOL    HW122761   3.853   1.453   8.209  1.0201 -0.1359  1.1670
 2447SOL    HW222762   3.732   1.363   8.215 -1.7287  3.4755  2.0617
 2448SOL     OW22763   1.601   2.906  11.698 -0.3655 -0.2483  0.4623
 2448SOL    HW122764   1.611   2.909  11.603  0.0926  1.4986  0.5505
 2448SOL    HW222765   1.568   2.818  11.716 -1.0883 -0.3675 -1.3717
 2449SOL     OW22766   5.485   5.615  11.433 -0.0204  0.1324 -0.3281
 2449SOL    HW122767   5.429   5.693  11.442 -2.0139 -1.5209  2.2442
 2449SOL    HW222768   5.556   5.630  11.496  0.5806  0.6466 -1.1121
 2450SOL     OW22769   3.011   4.667   9.066  0.2250  0.0702  0.3109
 2450SOL    HW122770   2.959   4.717   9.002  2.1545  2.8588  0.8336
 2450SOL    HW222771   2.946   4.627   9.123 -1.4626  0.0669 -1.5362
 2451SOL     OW22772   1.405   0.815   7.569 -0.4152  0.2784  0.7056
 2451SOL    HW122773   1.381   0.894   7.521 -0.9444  0.8336  1.8603
 2451SOL    HW222774   1.350   0.746   7.531 -0.7331  0.6826  0.4341
 2452SOL     OW22775   3.840   5.711   2.207  0.3547  0.4002 -0.4215
 2452SOL    HW122776   3.924   5.738   2.169  0.1354  0.1962 -1.0543
 2452SOL    HW222777   3.816   5.632   2.159 -0.8834  1.2391 -1.2205
 2453SOL     OW22778   2.776   5.884  11.103 -0.2797  0.3991 -1.2828
 2453SOL    HW122779   2.851   5.917  11.153 -1.2307 -0.2189  0.6006
 2453SOL    HW222780   2.798   5.793  11.083 -0.4027  0.3111 -1.0107
 2454SOL     OW22781   2.242   0.389   9.332  0.6735 -0.4597 -0.1487
 2454SOL    HW122782   2.234   0.323   9.263 -0.4006 -2.5605  1.9124
 2454SOL    HW222783   2.268   0.340   9.410  0.0998  1.5702  1.3882
 2455SOL     OW22784   2.869   4.691   9.967  0.0380  0.0653 -0.4513
 2455SOL    HW122785   2.807   4.732  10.027 -0.6414 -1.0927 -0.3575
 2455SOL    HW222786   2.835   4.710   9.880  0.4171  0.7773 -0.4544
 2456SOL     OW22787   2.241   4.960   8.354  0.2510  0.2816 -0.0134
 2456SOL    HW122788   2.199   4.874   8.359 -1.2592  1.0407  0.6959
 2456SOL    HW222789   2.243   4.991   8.445  1.3969  0.7070 -0.1793
 2457SOL     OW22790   3.888   5.273   9.502  0.2925  0.0265  0.3667
 2457SOL    HW122791   3.950   5.341   9.473 -0.5529  1.0474  0.9401
 2457SOL    HW222792   3.941   5.193   9.503  1.9530  1.0747  1.9835
 2458SOL     OW22793   3.775   1.682  11.807 -0.7981  0.3263  0.4075
 2458SOL    HW122794   3.682   1.691  11.826 -0.9475  0.9347 -0.6075
 2458SOL    HW222795   3.788   1.588  11.793 -1.0334  0.0968  1.6885
 2459SOL     OW22796   5.228   2.227   9.416  0.6957  0.1181 -0.1294
 2459SOL    HW122797   5.274   2.217   9.500 -0.0400 -1.5722  0.1025
 2459SOL    HW222798   5.163   2.295   9.433 -0.7558 -1.5362  1.3141
 2460SOL     OW22799   1.679   5.717   9.356 -0.1193  0.1925 -0.6745
 2460SOL    HW122800   1.706   5.774   9.428 -0.4839 -1.2821  0.6520
 2460SOL    HW222801   1.754   5.718   9.296  0.4496  0.9239  0.0217
 2461SOL     OW22802   1.766   5.257   3.140  0.5048  0.2684 -0.0116
 2461SOL    HW122803   1.748   5.351   3.136  0.9055  0.3669  0.3668
 2461SOL    HW222804   1.769   5.238   3.234  2.3177  0.2611 -0.0428
 2462SOL     OW22805   5.028   1.431  11.854 -0.7703  1.1008 -0.3338
 2462SOL    HW122806   4.940   1.425  11.819 -1.0724  1.4830  0.3655
 2462SOL    HW222807   5.074   1.491  11.795 -0.9112  0.7299 -0.8236
 2463SOL     OW22808   2.205   1.468  11.860 -0.2283 -0.2109 -0.0340
 2463SOL    HW122809   2.280   1.471  11.800 -0.6855 -1.5188 -0.6736
 2463SOL    HW222810   2.132   1.500  11.808 -0.2665  0.4094  0.3902
 2464SOL     OW22811   5.823   3.032   0.724 -0.5235  0.4381 -0.8600
 2464SOL    HW122812   5.784   3.025   0.811 -0.2683 -1.6566 -0.8720
 2464SOL    HW222813   5.898   3.091   0.736 -0.6344  0.3599  0.2924
 2465SOL     OW22814   4.932   3.045   2.729  0.2799 -0.2846  0.0013
 2465SOL    HW122815   5.016   3.009   2.700 -0.2003 -0.8095 -0.7776
 2465SOL    HW222816   4.868   3.009   2.667  0.0020  3.4243 -1.9757
 2466SOL     OW22817   3.558   5.116   1.015 -0.2632 -0.0087  0.5011
 2466SOL    HW122818   3.651   5.130   1.002 -0.5540  1.1929 -0.3456
 2466SOL    HW222819   3.540   5.030   0.977  0.7894 -0.9645  2.1098
 2467SOL     OW22820   4.451   0.081   9.186  0.4178 -0.8288  0.1226
 2467SOL    HW122821   4.396   0.105   9.260 -1.5032  2.1666 -2.1536
 2467SOL    HW222822   4.525   0.142   9.189 -0.3258  0.1528 -1.1267
 2468SOL     OW22823   5.262   2.418   0.806  0.0671 -0.2165  0.6873
 2468SOL    HW122824   5.308   2.404   0.889  2.3436  1.5843 -0.1875
 2468SOL    HW222825   5.309   2.362   0.743 -0.9113 -0.6968  0.3686
 2469SOL     OW22826   2.423   5.739   2.305  0.0235  0.0475 -0.4029
 2469SOL    HW122827   2.514   5.728   2.332 -0.2247  1.2118  0.9500
 2469SOL    HW222828   2.371   5.706   2.378 -0.6423  0.6026 -0.6125
 2470SOL     OW22829   4.288   2.554   8.849  0.0645 -0.4573 -0.3025
 2470SOL    HW122830   4.225   2.505   8.900  0.1710 -0.6716 -0.3747
 2470SOL    HW222831   4.371   2.509   8.864 -0.2198 -1.6180 -2.0974
 2471SOL     OW22832   4.797   5.543   9.182  0.1527  0.1823  0.5924
 2471SOL    HW122833   4.702   5.533   9.190  0.4207 -1.3600  2.3617
 2471SOL    HW222834   4.819   5.497   9.101 -0.7586  1.8309 -0.6272
 2472SOL     OW22835   5.663   4.518  12.381 -0.2507 -0.1309  0.2435
 2472SOL    HW122836   5.601   4.506  12.453 -1.0654 -1.6212 -0.6803
 2472SOL    HW222837   5.628   4.465  12.310  1.7078 -0.4195 -0.5466
 2473SOL     OW22838   1.264   2.489   8.472 -0.0934 -0.2169  0.0764
 2473SOL    HW122839   1.196   2.524   8.414 -0.1888 -2.9675 -1.5532
 2473SOL    HW222840   1.346   2.511   8.430 -0.1529 -1.8855 -0.9514
 2474SOL     OW22841   5.287   4.357   2.475 -0.4588 -0.2667 -0.0253
 2474SOL    HW122842   5.245   4.389   2.396 -1.8852 -0.8034  0.4949
 2474SOL    HW222843   5.220   4.303   2.518  0.6266 -0.8151  1.0257
 2475SOL     OW22844   2.332   3.432  12.240 -0.2235  0.0207  0.2406
 2475SOL    HW122845   2.257   3.405  12.186 -0.1489  0.8008 -0.2725
 2475SOL    HW222846   2.298   3.505  12.292  0.9608  2.3559 -2.1480
 2476SOL     OW22847   2.543   3.791  11.046  0.5489  0.9255 -0.2304
 2476SOL    HW122848   2.585   3.866  11.089  0.4854  0.4345  0.6988
 2476SOL    HW222849   2.475   3.764  11.108  1.9756 -1.2489  0.4459
 2477SOL     OW22850   0.131   1.999   8.940  0.1419 -0.4195 -0.3321
 2477SOL    HW122851   0.117   2.007   8.846  1.6674  0.9134 -0.4672
 2477SOL    HW222852   0.048   2.024   8.979  0.7801  3.3902 -1.2246
 2478SOL     OW22853   1.291   1.065   2.788 -0.2157 -0.4966 -0.3225
 2478SOL    HW122854   1.269   0.974   2.770  1.3086 -0.9365 -0.0089
 2478SOL    HW222855   1.269   1.077   2.881 -0.1466 -0.6267 -0.2883
 2479SOL     OW22856   3.668   5.305  10.755 -0.0538 -0.3081  0.1943
 2479SOL    HW122857   3.642   5.395  10.736 -0.8071 -0.5301  0.1882
 2479SOL    HW222858   3.764   5.310  10.764  0.1292  0.1403 -1.7648
 2480SOL     OW22859   2.120   5.472   1.302 -0.0977 -0.1030  0.2513
 2480SOL    HW122860   2.075   5.491   1.384 -0.1495  0.0205  0.1938
 2480SOL    HW222861   2.205   5.437   1.329  0.5339  1.4928  0.3466
 2481SOL     OW22862   5.506   4.156  10.819  0.3509 -0.0665  0.4455
 2481SOL    HW122863   5.585   4.124  10.776  1.2051  0.8655  1.2934
 2481SOL    HW222864   5.532   4.239  10.859 -1.3861  0.8501 -0.2759
 2482SOL     OW22865   5.069   2.086   2.772  0.3382  0.3451 -0.3832
 2482SOL    HW122866   5.102   2.138   2.846  0.3877 -0.8610  0.4408
 2482SOL    HW222867   5.141   2.027   2.750 -0.7666 -1.4122  0.5859
 2483SOL     OW22868   0.687   0.211  11.265 -0.2469 -0.2896  0.0802
 2483SOL    HW122869   0.770   0.228  11.221 -0.8866 -0.8245 -1.3482
 2483SOL    HW222870   0.712   0.170  11.348  0.9513  0.4005  0.0785
 2484SOL     OW22871   0.737   2.188   1.435  0.1493 -0.1418 -0.1352
 2484SOL    HW122872   0.739   2.161   1.526 -1.0578 -1.1444 -0.3832
 2484SOL    HW222873   0.825   2.172   1.402 -0.1259 -2.3230  0.1530
 2485SOL     OW22874   5.705   2.363  12.011 -0.3842 -0.1256  0.6450
 2485SOL    HW122875   5.725   2.415  11.933 -1.3763 -1.5031 -0.5765
 2485SOL    HW222876   5.788   2.323  12.036 -0.2408 -0.4297 -0.2929
 2486SOL     OW22877   5.790   0.520   1.419  0.4283 -0.3679  0.1981
 2486SOL    HW122878   5.880   0.527   1.449 -0.0654 -1.2719  1.9909
 2486SOL    HW222879   5.744   0.477   1.491 -1.4995  0.3375 -0.5625
 2487SOL     OW22880   5.252   3.191   9.494  0.9662  0.9531  0.0421
 2487SOL    HW122881   5.239   3.106   9.536 -0.5272  1.1442  0.0036
 2487SOL    HW222882   5.342   3.216   9.515  0.5517  0.6066  2.3279
 2488SOL     OW22883   0.517   0.353   4.244 -0.5378  0.0648 -0.1935
 2488SOL    HW122884   0.507   0.350   4.340 -0.7407 -0.3757 -0.2250
 2488SOL    HW222885   0.443   0.405   4.214  0.3212  1.4321  0.0008
 2489SOL     OW22886   2.282   5.027   8.619 -0.0727  0.1755  0.3371
 2489SOL    HW122887   2.376   5.011   8.606  0.1515  0.1204  1.9727
 2489SOL    HW222888   2.253   4.955   8.674 -1.2044 -0.1036 -0.6151
 2490SOL     OW22889   2.576   5.513   2.064 -0.1635 -0.1765 -0.9354
 2490SOL    HW122890   2.631   5.516   1.986 -0.5493  0.8047 -1.1807
 2490SOL    HW222891   2.535   5.600   2.068  1.4480  0.5394  1.4876
 2491SOL     OW22892   0.497   1.543   3.457 -0.2522 -0.2863  0.6175
 2491SOL    HW122893   0.457   1.568   3.540 -2.3266  0.4946 -0.5617
 2491SOL    HW222894   0.509   1.626   3.411 -1.3693 -0.8774 -0.8103
 2492SOL     OW22895   0.437   5.835   1.390 -0.3793 -0.7525 -0.3784
 2492SOL    HW122896   0.493   5.777   1.443  0.3619  0.0029 -0.3035
 2492SOL    HW222897   0.491   5.857   1.314 -0.4256  0.3013 -0.1113
 2493SOL     OW22898   4.846   3.322   0.110  0.3930 -0.2615 -0.4392
 2493SOL    HW122899   4.784   3.250   0.121  0.0659  0.2277  0.9509
 2493SOL    HW222900   4.930   3.280   0.091  0.6279 -1.0920  2.2809
 2494SOL     OW22901   0.213   2.891   8.218 -0.1510 -0.0833  0.1301
 2494SOL    HW122902   0.136   2.947   8.209 -1.1079 -1.4115 -0.0400
 2494SOL    HW222903   0.199   2.821   8.154 -0.4025 -2.1381  2.3912
 2495SOL     OW22904   5.528   4.571   1.434 -0.5861 -0.3475 -0.4701
 2495SOL    HW122905   5.457   4.573   1.371  0.5947  1.6335 -1.8053
 2495SOL    HW222906   5.517   4.651   1.486  0.9131  0.2329 -1.0086
 2496SOL     OW22907   1.031   3.756  11.541  0.5099  0.3625 -0.9398
 2496SOL    HW122908   0.968   3.734  11.472  1.1459 -0.8791 -1.1592
 2496SOL    HW222909   0.999   3.710  11.619 -0.6140  2.3614 -0.1856
 2497SOL     OW22910   4.809   2.575   3.127  0.3313 -0.2371 -0.3960
 2497SOL    HW122911   4.892   2.606   3.163  0.7370 -0.3715 -1.2113
 2497SOL    HW222912   4.834   2.512   3.060 -0.4446 -0.6810 -0.2809
 2498SOL     OW22913   3.336   4.963  11.932 -0.3370 -0.1563 -0.5725
 2498SOL    HW122914   3.309   5.043  11.977 -0.7029  0.3236 -1.6186
 2498SOL    HW222915   3.259   4.906  11.936 -0.2353 -0.2717 -0.2423
 2499SOL     OW22916   3.625   5.110   8.445  0.1874  0.2521 -0.9638
 2499SOL    HW122917   3.683   5.076   8.377  1.1121 -0.6593  0.2355
 2499SOL    HW222918   3.559   5.043   8.457  0.2866  0.2013 -0.6688
 2500SOL     OW22919   5.684   4.799   8.650 -0.5864  0.2301  0.0474
 2500SOL    HW122920   5.724   4.761   8.729 -0.4530  1.2362  0.4759
 2500SOL    HW222921   5.758   4.838   8.603 -0.3348 -2.2100 -1.6668
 2501SOL     OW22922   5.127   3.047   1.942 -0.4710  0.4609  0.5776
 2501SOL    HW122923   5.121   3.142   1.946  0.0896  0.4759  1.2091
 2501SOL    HW222924   5.094   3.017   2.026  1.3545  0.2122  1.2333
 2502SOL     OW22925   2.410   3.346   2.241  0.2230 -0.4713  0.3676
 2502SOL    HW122926   2.318   3.370   2.252 -0.0220 -1.4713  0.5129
 2502SOL    HW222927   2.438   3.318   2.328 -0.2618 -3.3448 -0.3527
 2503SOL     OW22928   4.999   3.342  12.212 -0.4388  0.3225  0.3576
 2503SOL    HW122929   5.018   3.434  12.232  2.5501 -0.6256  2.2865
 2503SOL    HW222930   4.984   3.301  12.298 -2.8603 -0.7907 -0.5526
 2504SOL     OW22931   4.981   5.290   2.324 -0.4017  0.2324 -0.8991
 2504SOL    HW122932   5.023   5.266   2.407 -1.5389  1.0322 -0.0853
 2504SOL    HW222933   4.957   5.206   2.284 -0.8065 -0.1159  0.0721
 2505SOL     OW22934   2.605   1.978   8.844  0.1477  0.2221 -0.3696
 2505SOL    HW122935   2.658   2.005   8.769 -0.3996  2.0163 -0.1357
 2505SOL    HW222936   2.515   1.997   8.819 -0.1106  0.0624  0.4184
 2506SOL     OW22937   1.798   1.157   2.754  0.0790  0.8993  0.9824
 2506SOL    HW122938   1.710   1.167   2.789 -0.5028 -1.2362  0.1583
 2506SOL    HW222939   1.827   1.072   2.785  1.8733  1.5754  1.2377
 2507SOL     OW22940   1.395   4.906  10.690  0.2031 -0.1173 -0.1465
 2507SOL    HW122941   1.333   4.836  10.714 -0.6506  1.0814  1.1799
 2507SOL    HW222942   1.347   4.958  10.626  0.1848  0.2804  0.1920
 2508SOL     OW22943   1.248   1.890   1.478  0.2453  0.3687 -0.2615
 2508SOL    HW122944   1.327   1.919   1.524  0.6131 -1.1192  0.0879
 2508SOL    HW222945   1.270   1.897   1.385  0.0529  1.8992 -0.2050
 2509SOL     OW22946   5.589   3.918   9.735 -0.0687 -0.4384  0.3219
 2509SOL    HW122947   5.540   3.997   9.712 -2.1895 -1.6856  0.3324
 2509SOL    HW222948   5.576   3.908   9.829  0.6701 -0.4800  0.4192
 2510SOL     OW22949   4.189   1.347  10.939 -0.0621  0.2014  0.0052
 2510SOL    HW122950   4.186   1.257  10.907 -1.4103  0.3528 -0.3275
 2510SOL    HW222951   4.098   1.376  10.938  0.2495  1.2551  1.0147
 2511SOL     OW22952   4.731   3.865   0.326  0.0760 -0.0417 -0.3084
 2511SOL    HW122953   4.700   3.779   0.352  0.6351  0.2190  1.2653
 2511SOL    HW222954   4.758   3.907   0.408 -0.4161  1.7125 -1.0265
 2512SOL     OW22955   0.458   3.233   3.118 -0.0269  0.0032 -0.1623
 2512SOL    HW122956   0.445   3.326   3.100  0.2414 -0.0419 -0.6125
 2512SOL    HW222957   0.403   3.188   3.053 -0.6745 -0.1519  0.4773
 2513SOL     OW22958   1.763   1.528   0.698 -0.3009 -0.0982 -0.2550
 2513SOL    HW122959   1.700   1.566   0.759 -1.3129 -1.5660 -0.3615
 2513SOL    HW222960   1.744   1.570   0.614 -2.0848 -1.5488 -0.6019
 2514SOL     OW22961   0.139   2.927   9.503  0.4496  0.1767  0.1843
 2514SOL    HW122962   0.140   2.832   9.510  0.5809  0.0192 -1.5668
 2514SOL    HW222963   0.230   2.953   9.512  0.7659 -0.1126 -1.8954
 2515SOL     OW22964   3.753   5.566  11.290 -0.0423  0.5958 -0.2092
 2515SOL    HW122965   3.747   5.472  11.273  2.4705 -0.2028  2.8189
 2515SOL    HW222966   3.832   5.594  11.245  1.5290  0.3373  2.2767
 2516SOL     OW22967   5.027   1.425   2.615  0.0756 -0.4056 -0.0037
 2516SOL    HW122968   4.998   1.361   2.549 -2.8118  1.5187 -0.6906
 2516SOL    HW222969   5.088   1.481   2.568 -0.5432 -0.1660 -0.5252
 2517SOL     OW22970   2.266   0.626   3.217 -0.2670  0.0803 -0.1208
 2517SOL    HW122971   2.214   0.549   3.194 -1.7046  0.7158  0.9320
 2517SOL    HW222972   2.212   0.673   3.280  0.4711  2.1181 -0.9926
 2518SOL     OW22973   0.141   3.401   9.627 -0.1379  0.2280  0.1881
 2518SOL    HW122974   0.117   3.493   9.638 -1.6184 -0.1037 -0.0677
 2518SOL    HW222975   0.179   3.396   9.539  0.4564  0.6946  0.4207
 2519SOL     OW22976   2.885   1.101  10.161 -0.1347  0.2636  0.1758
 2519SOL    HW122977   2.869   1.194  10.147  0.7002  0.1946 -1.3827
 2519SOL    HW222978   2.886   1.064  10.073 -0.8418 -1.2838  0.8157
 2520SOL     OW22979   3.301   3.513   1.795  0.0545 -0.4208  0.7063
 2520SOL    HW122980   3.214   3.498   1.757 -0.3985  0.1146  1.5151
 2520SOL    HW222981   3.321   3.604   1.773  0.1967 -0.3911  0.9584
 2521SOL     OW22982   2.586   5.078  11.339  0.4825  0.3821 -0.4724
 2521SOL    HW122983   2.587   5.128  11.421  0.6752  0.0578 -0.2732
 2521SOL    HW222984   2.551   5.139  11.274 -4.8027 -0.9639  0.8621
 2522SOL     OW22985   4.886   0.864   3.630  0.5521 -0.4033 -0.0865
 2522SOL    HW122986   4.980   0.844   3.636  0.7271  0.5153  0.4055
 2522SOL    HW222987   4.883   0.953   3.596 -0.1146 -0.0082  0.9760
 2523SOL     OW22988   1.275   2.968  11.670 -0.0528 -0.5921 -0.0061
 2523SOL    HW122989   1.303   3.059  11.665  0.4641 -0.7967 -0.9611
 2523SOL    HW222990   1.249   2.956  11.761  1.2304  0.1183  0.4610
 2524SOL     OW22991   5.675   2.596  12.270  0.2658 -0.0199  0.7147
 2524SOL    HW122992   5.627   2.595  12.353 -1.1119  0.6119 -0.0536
 2524SOL    HW222993   5.616   2.554  12.207  1.5845 -1.1232  0.1947
 2525SOL     OW22994   4.410   3.845  11.359  0.3217 -0.2538 -0.0655
 2525SOL    HW122995   4.430   3.886  11.443 -0.2511 -1.3457  0.6000
 2525SOL    HW222996   4.488   3.861  11.306  0.2871  1.3111  0.3318
 2526SOL     OW22997   5.146   1.129   8.776 -0.0708  0.0810  0.8057
 2526SOL    HW122998   5.074   1.079   8.815  0.7140 -0.9154  1.0114
 2526SOL    HW222999   5.225   1.083   8.805  0.6181  0.7447  0.0022
 2527SOL     OW23000   4.150   3.736   1.235  0.8229 -0.6150  0.0891
 2527SOL    HW123001   4.134   3.642   1.224  0.2905 -0.4677 -0.3941
 2527SOL    HW223002   4.133   3.774   1.149  0.3749  0.0189  0.4554
 2528SOL     OW23003   1.810   0.774  11.562 -0.5706  0.2330 -0.2574
 2528SOL    HW123004   1.835   0.811  11.477  2.2401 -1.4317 -0.2270
 2528SOL    HW223005   1.847   0.685  11.561 -0.0851  0.3395  2.8714
 2529SOL     OW23006   0.323   1.341   0.678  0.2580 -0.4445  0.6648
 2529SOL    HW123007   0.274   1.376   0.752  1.7519  2.0640  0.5292
 2529SOL    HW223008   0.405   1.390   0.678  0.5101 -0.7666 -2.3194
 2530SOL     OW23009   1.336   1.922   0.954 -0.1819 -0.0066 -0.4843
 2530SOL    HW123010   1.397   1.941   0.882 -2.7788  1.5532 -2.3719
 2530SOL    HW223011   1.373   1.967   1.030  0.7891  1.3073 -1.7107
 2531SOL     OW23012   2.580   5.237   3.718  0.1637  0.3321 -0.2160
 2531SOL    HW123013   2.542   5.173   3.777  2.7032  0.2851  1.4470
 2531SOL    HW223014   2.573   5.321   3.765  1.3339  0.4476 -0.2240
 2532SOL     OW23015   5.318   2.017   0.152  0.3456  0.0359  0.1673
 2532SOL    HW123016   5.380   2.037   0.082  0.4331 -2.9040 -0.6590
 2532SOL    HW223017   5.353   2.063   0.229  3.2568 -1.0823 -0.4127
 2533SOL     OW23018   5.106   1.913  12.482 -0.2703 -0.1799 -0.0682
 2533SOL    HW123019   5.133   1.885  12.395  1.0325 -0.4849  0.4158
 2533SOL    HW223020   5.184   1.956  12.518 -1.0578  0.6859  0.6300
 2534SOL     OW23021   4.491   1.272   9.486 -0.2002  0.3476 -0.4864
 2534SOL    HW123022   4.578   1.308   9.471 -1.0233  2.1534 -1.1635
 2534SOL    HW223023   4.491   1.245   9.578  2.1947 -2.9602 -1.4022
 2535SOL     OW23024   3.167   0.410   1.450  0.4890 -0.1468  0.2450
 2535SOL    HW123025   3.170   0.331   1.505  0.2684  0.0725  0.5790
 2535SOL    HW223026   3.257   0.423   1.422  0.6048 -0.2739  0.5472
 2536SOL     OW23027   2.231   0.184   1.472 -0.2668 -0.8791 -0.4710
 2536SOL    HW123028   2.215   0.263   1.420 -2.6900 -0.9311  0.1384
 2536SOL    HW223029   2.326   0.183   1.484 -0.0932  1.4335 -1.2711
 2537SOL     OW23030   3.600   3.693   1.099  0.4232  0.0304  0.4072
 2537SOL    HW123031   3.616   3.771   1.153 -0.3150  0.1024  0.5290
 2537SOL    HW223032   3.589   3.622   1.163  1.4960 -0.2491  0.2828
 2538SOL     OW23033   3.099   4.073   2.870 -0.3414 -0.1697 -0.1285
 2538SOL    HW123034   3.114   3.983   2.898 -2.1340 -0.2498  0.6916
 2538SOL    HW223035   3.077   4.065   2.777  3.3376 -0.1416 -1.0674
 2539SOL     OW23036   0.328   0.941   3.277  0.0243  0.1604  0.6288
 2539SOL    HW123037   0.319   0.860   3.327  0.0149 -0.6084 -0.5954
 2539SOL    HW223038   0.310   0.915   3.187 -0.7334  1.6779  0.3302
 2540SOL     OW23039   5.185   1.807   1.915 -0.3740 -0.3534  0.3969
 2540SOL    HW123040   5.251   1.872   1.937  0.4981 -1.4632  1.1461
 2540SOL    HW223041   5.130   1.849   1.849  1.2383  0.4755 -0.4397
 2541SOL     OW23042   5.567   5.753  10.892 -0.0052 -0.1972 -0.3011
 2541SOL    HW123043   5.603   5.837  10.920  0.7267  0.0280 -1.8887
 2541SOL    HW223044   5.554   5.705  10.974  2.6307  0.2154  0.4148
 2542SOL     OW23045   3.341   1.925  10.910  0.0378 -0.8555  0.3721
 2542SOL    HW123046   3.395   1.851  10.883 -0.5086 -0.5657 -1.6003
 2542SOL    HW223047   3.272   1.931  10.844 -1.1356  0.1517  1.6251
 2543SOL     OW23048   5.377   1.581   0.470  1.0814 -0.1437  0.4436
 2543SOL    HW123049   5.343   1.619   0.388 -1.3020  0.3660  1.6201
 2543SOL    HW223050   5.323   1.504   0.484  1.9287 -0.6041  1.2083
 2544SOL     OW23051   0.653   0.043   9.383 -0.3412  0.0893 -0.1812
 2544SOL    HW123052   0.625   0.109   9.446  1.8471  1.2754 -0.4133
 2544SOL    HW223053   0.721  -0.007   9.428 -0.6016 -0.7402 -0.6891
 2545SOL     OW23054   4.155   5.497   2.717 -0.2004 -0.5915 -0.3445
 2545SOL    HW123055   4.205   5.493   2.798 -1.6155 -1.9709  0.4848
 2545SOL    HW223056   4.071   5.534   2.743 -0.6109 -0.8952 -1.2154
 2546SOL     OW23057   5.375   5.372   2.312  0.0353 -0.1235  0.2196
 2546SOL    HW123058   5.392   5.308   2.243  0.7034  1.2050 -0.8834
 2546SOL    HW223059   5.325   5.441   2.268  0.8740  0.9563  0.9339
 2547SOL     OW23060   2.120   3.977   2.338  0.1272 -0.1700  0.4116
 2547SOL    HW123061   2.165   3.921   2.401 -0.9127  0.9719  2.2157
 2547SOL    HW223062   2.190   4.018   2.288  1.0943  0.9803  2.6526
 2548SOL     OW23063   1.127   5.726   8.890  0.1352  0.3526  0.4264
 2548SOL    HW123064   1.039   5.690   8.901 -0.4225  2.0074  1.6187
 2548SOL    HW223065   1.177   5.688   8.962  0.4715 -0.7979 -0.4082
 2549SOL     OW23066   4.809   2.466  11.758 -0.8500 -0.3070 -0.2895
 2549SOL    HW123067   4.752   2.444  11.684 -1.7655 -0.2463  0.3932
 2549SOL    HW223068   4.821   2.561  11.751 -0.4299 -0.3844 -0.7079
 2550SOL     OW23069   1.539   3.222   9.065 -0.3849 -0.6585  0.3343
 2550SOL    HW123070   1.559   3.213   8.972  0.7553 -4.3670  0.8398
 2550SOL    HW223071   1.443   3.214   9.069 -0.6375  1.5094 -0.6598
 2551SOL     OW23072   4.814   1.660   2.455  0.0215 -0.0637 -0.2575
 2551SOL    HW123073   4.721   1.664   2.433 -0.6889 -1.6726  2.3724
 2551SOL    HW223074   4.850   1.596   2.393 -1.2306 -1.7698  0.7329
 2552SOL     OW23075   2.498   2.959  10.304  0.4172  0.1726 -1.1521
 2552SOL    HW123076   2.589   2.941  10.330 -0.4876 -0.3196  1.9605
 2552SOL    HW223077   2.449   2.951  10.386 -2.3324  1.1640 -2.6611
 2553SOL     OW23078   1.418   1.216  11.133  0.5243  0.1460  0.2078
 2553SOL    HW123079   1.350   1.157  11.165  0.7017 -0.3251 -0.2958
 2553SOL    HW223080   1.479   1.160  11.087  1.1684  0.5964  0.5077
 2554SOL     OW23081   5.814   0.687   3.057  0.1690  0.7447  0.6216
 2554SOL    HW123082   5.763   0.768   3.055  2.0272  1.9500  1.1387
 2554SOL    HW223083   5.844   0.676   2.967 -0.9398  0.0338  0.3157
 2555SOL     OW23084   0.287   0.399   2.784 -0.0803  0.8745  0.3598
 2555SOL    HW123085   0.255   0.469   2.841 -2.0228 -0.4921  0.9853
 2555SOL    HW223086   0.226   0.326   2.798  1.1791 -0.5255 -1.2059
 2556SOL     OW23087   2.687   1.898   9.813  0.1443  0.1977  0.1354
 2556SOL    HW123088   2.615   1.837   9.802  0.4181 -0.1540  0.2851
 2556SOL    HW223089   2.659   1.956   9.884  0.0707 -0.0281  0.2916
 2557SOL     OW23090   2.780   3.595  10.465  0.0901 -0.1740  0.1867
 2557SOL    HW123091   2.810   3.511  10.430 -0.6272  0.0807 -1.0998
 2557SOL    HW223092   2.693   3.576  10.500 -0.8390  0.3821 -1.7313
 2558SOL     OW23093   2.985   1.682   2.251  0.4532  0.0462  0.3044
 2558SOL    HW123094   2.943   1.602   2.281  1.9134  0.0470  2.4861
 2558SOL    HW223095   2.922   1.752   2.270  0.0313 -0.3436  0.3340
 2559SOL     OW23096   1.439   3.756  11.268 -0.5415  0.0656  0.2935
 2559SOL    HW123097   1.375   3.805  11.320 -1.8852 -1.0645 -0.2564
 2559SOL    HW223098   1.481   3.697  11.331 -2.1090 -1.2442  0.1521
 2560SOL     OW23099   1.184   2.558  11.571  0.5714 -0.0865 -0.4097
 2560SOL    HW123100   1.106   2.504  11.581 -0.6675  1.7232 -0.1983
 2560SOL    HW223101   1.256   2.495  11.570 -0.9227 -1.8253 -1.2977
 2561SOL     OW23102   1.684   1.697  10.470 -0.0167 -0.3181 -0.2070
 2561SOL    HW123103   1.695   1.741  10.554  0.2922 -0.6874 -0.0523
 2561SOL    HW223104   1.598   1.726  10.439  0.5694  1.1166 -0.5335
 2562SOL     OW23105   2.880   4.130  11.698 -0.8735 -0.5080 -0.6507
 2562SOL    HW123106   2.831   4.127  11.780  0.2771  1.3406  0.1333
 2562SOL    HW223107   2.868   4.043  11.661 -2.4598 -0.9800  0.8498
 2563SOL     OW23108   1.300   2.746   2.548  0.1548  0.0984  0.4298
 2563SOL    HW123109   1.367   2.736   2.480  0.3028 -0.3010  0.6252
 2563SOL    HW223110   1.303   2.662   2.596  0.8995  0.8271  1.6886
 2564SOL     OW23111   5.225   1.260   0.069 -0.6105  0.1236 -0.4473
 2564SOL    HW123112   5.150   1.201   0.065 -1.1080  0.6959  0.3757
 2564SOL    HW223113   5.187   1.347   0.081  0.1423  0.5490 -1.1049
 2565SOL     OW23114   2.932   1.856   9.676 -0.2218  0.2057 -0.1846
 2565SOL    HW123115   2.845   1.865   9.715 -0.1920 -0.1089 -0.0483
 2565SOL    HW223116   2.962   1.769   9.702  0.1619  0.3361 -0.1822
 2566SOL     OW23117   5.386   4.352   9.801 -0.0569 -0.5437 -0.1486
 2566SOL    HW123118   5.470   4.390   9.827  0.4567 -1.6293 -0.1785
 2566SOL    HW223119   5.339   4.339   9.883  0.4031 -1.2986  0.0025
 2567SOL     OW23120   3.293   0.734   0.853  0.4612  1.0206 -0.0001
 2567SOL    HW123121   3.316   0.742   0.761 -1.2032  0.3588 -0.4947
 2567SOL    HW223122   3.283   0.640   0.868 -0.0034  1.1649  0.6587
 2568SOL     OW23123   3.539   4.470  12.353  0.0578 -0.3625 -0.0807
 2568SOL    HW123124   3.529   4.420  12.272 -0.3244 -1.0612  0.3986
 2568SOL    HW223125   3.452   4.502  12.373  0.1710 -0.1021  0.0042
 2569SOL     OW23126   4.801   5.468   1.908  0.4543  0.7093  0.2728
 2569SOL    HW123127   4.852   5.475   1.988 -1.3752  0.4031  1.4922
 2569SOL    HW223128   4.713   5.445   1.937 -0.0761 -0.1036 -1.8761
 2570SOL     OW23129   3.971   1.688   3.606 -0.0683 -0.3205  0.0317
 2570SOL    HW123130   3.949   1.740   3.684 -2.2390  1.0935 -1.4744
 2570SOL    HW223131   3.909   1.616   3.607 -1.0681  0.5122 -1.1615
 2571SOL     OW23132   3.619   2.557   1.943  0.1196  0.3666 -0.2105
 2571SOL    HW123133   3.689   2.496   1.968  0.4469  0.1211 -1.6741
 2571SOL    HW223134   3.540   2.503   1.942  0.6747 -0.4872 -3.1968
 2572SOL     OW23135   1.738   3.565   2.521 -0.6532 -0.9825 -0.4155
 2572SOL    HW123136   1.693   3.587   2.440 -2.3929  1.3398  1.1135
 2572SOL    HW223137   1.793   3.641   2.540 -1.2302 -0.9493  1.2254
 2573SOL     OW23138   2.091   4.636   8.830 -0.5371  0.7361  0.0103
 2573SOL    HW123139   2.001   4.647   8.861 -1.5823 -1.7053 -1.9319
 2573SOL    HW223140   2.084   4.572   8.759  2.6944  0.8090 -0.4563
 2574SOL     OW23141   3.149   0.045   0.225 -0.4221 -0.2106  0.0469
 2574SOL    HW123142   3.098   0.070   0.149  0.3894  1.0715 -0.0924
 2574SOL    HW223143   3.234   0.020   0.189  0.1034  0.8041  0.5543
 2575SOL     OW23144   5.177   4.573  11.483  0.0464 -0.5666  0.1305
 2575SOL    HW123145   5.200   4.662  11.457 -0.5357  0.2521  2.3547
 2575SOL    HW223146   5.227   4.517  11.423  2.3526  1.2370  0.3048
 2576SOL     OW23147   3.720   2.608   1.422 -0.0340  0.8023  0.6253
 2576SOL    HW123148   3.639   2.610   1.472  0.0054  0.7414  0.6929
 2576SOL    HW223149   3.751   2.699   1.424  0.7725  0.5183  2.0310
 2577SOL     OW23150   1.434   1.268   0.047 -0.1890  0.2196 -0.0680
 2577SOL    HW123151   1.380   1.279   0.125  0.3053  0.2362  0.2681
 2577SOL    HW223152   1.441   1.174   0.036 -0.9883  0.2120 -0.5973
 2578SOL     OW23153   5.028   1.265   9.881 -0.2444 -0.4001 -0.5904
 2578SOL    HW123154   5.001   1.187   9.930  1.9656 -0.0892  1.2056
 2578SOL    HW223155   4.949   1.319   9.877 -0.2745  0.0282  3.6392
 2579SOL     OW23156   3.277   4.652   9.410 -0.4772  0.5857 -0.5620
 2579SOL    HW123157   3.281   4.560   9.437 -2.0356  0.3157 -1.1912
 2579SOL    HW223158   3.366   4.673   9.383  0.2333 -0.3041  1.0054
 2580SOL     OW23159   2.380   2.682   9.394 -0.5073 -0.3955  0.0138
 2580SOL    HW123160   2.286   2.686   9.412 -0.3889  0.1054  0.5473
 2580SOL    HW223161   2.410   2.603   9.439 -0.8470 -1.0983 -0.9875
 2581SOL     OW23162   3.749   3.822  11.921 -0.3616 -0.0466 -0.7809
 2581SOL    HW123163   3.775   3.849  12.009 -2.3910  1.0931 -0.4853
 2581SOL    HW223164   3.807   3.749  11.899 -0.1810 -0.6778  1.7034
 2582SOL     OW23165   4.792   2.958   9.002 -0.4823  0.9041  0.8402
 2582SOL    HW123166   4.733   2.953   8.927 -0.4559 -0.3351  0.8851
 2582SOL    HW223167   4.742   2.919   9.074  0.5972 -0.7215  0.7338
 2583SOL     OW23168   0.352   5.703   3.621  0.3097 -0.2279 -0.2786
 2583SOL    HW123169   0.409   5.693   3.698  1.6892  3.1100 -0.7909
 2583SOL    HW223170   0.266   5.725   3.658 -0.0304 -2.5938  0.4055
 2584SOL     OW23171   4.360   0.620   1.105 -0.1998  0.0052 -0.6689
 2584SOL    HW123172   4.437   0.655   1.149 -0.3392  0.3036 -0.6561
 2584SOL    HW223173   4.368   0.525   1.112 -0.2620  0.0554  0.0665
 2585SOL     OW23174   0.932   1.043   2.868 -0.4376  0.0953 -0.4782
 2585SOL    HW123175   0.927   1.137   2.884 -0.7449  0.7153 -3.8898
 2585SOL    HW223176   1.015   1.016   2.908 -0.3412  1.8005  0.5058
 2586SOL     OW23177   2.032   3.213   2.314  0.0378  0.1293 -0.4178
 2586SOL    HW123178   1.943   3.224   2.346  0.7304 -0.6080  1.8417
 2586SOL    HW223179   2.086   3.213   2.393  2.0499  0.6732 -1.7632
 2587SOL     OW23180   1.725   4.315   0.295  0.9049 -0.2167 -0.2365
 2587SOL    HW123181   1.805   4.263   0.300  1.1011  0.0872 -0.2015
 2587SOL    HW223182   1.753   4.404   0.316  0.5273 -0.1417 -0.0475
 2588SOL     OW23183   1.736   0.818   1.332 -0.4910 -0.1221 -0.0490
 2588SOL    HW123184   1.725   0.911   1.312 -0.3035 -0.1229 -0.1541
 2588SOL    HW223185   1.667   0.775   1.281  0.3572 -0.1829 -1.1740
 2589SOL     OW23186   3.250   4.573   2.343  0.0653  0.0273  0.3854
 2589SOL    HW123187   3.225   4.496   2.395 -1.0786 -0.1575 -0.4215
 2589SOL    HW223188   3.167   4.616   2.322  0.5960  0.6802 -0.4024
 2590SOL     OW23189   5.880   0.554  11.336 -0.4820 -0.3129  0.4253
 2590SOL    HW123190   5.872   0.493  11.262  2.8309  0.2167 -0.4468
 2590SOL    HW223191   5.880   0.641  11.296  0.3821  0.0146  1.1021
 2591SOL     OW23192   1.689   0.049   2.310 -0.0515  0.4455 -0.4254
 2591SOL    HW123193   1.752   0.049   2.383 -1.5794 -0.8467  0.9355
 2591SOL    HW223194   1.698   0.137   2.272  2.5766  0.2852 -0.2959
 2592SOL     OW23195   1.523   3.056   4.370 -0.8462  0.3097 -0.1956
 2592SOL    HW123196   1.461   3.079   4.300 -1.4274 -1.8629 -0.4395
 2592SOL    HW223197   1.470   3.013   4.436  0.0154  0.6238  0.7067
 2593SOL     OW23198   3.458   4.949   0.238 -0.6200  0.7819  0.2133
 2593SOL    HW123199   3.512   4.899   0.177 -1.6698 -0.5958  0.3948
 2593SOL    HW223200   3.484   5.040   0.224 -0.0983  0.3785 -1.5408
 2594SOL     OW23201   3.707   4.483  11.840  0.4166  0.0141  0.3152
 2594SOL    HW123202   3.611   4.485  11.832  0.4883 -0.1493 -0.5633
 2594SOL    HW223203   3.723   4.508  11.931 -0.4388  0.6528  0.2992
 2595SOL     OW23204   1.717   4.067   2.911 -0.1379  0.2757 -0.2762
 2595SOL    HW123205   1.677   4.027   2.834  1.5522 -1.9283 -0.0650
 2595SOL    HW223206   1.658   4.047   2.983 -0.6651  0.5360 -0.6298
 2596SOL     OW23207   3.347   4.091  10.378 -0.5979 -0.4730 -0.2024
 2596SOL    HW123208   3.395   4.170  10.354  0.1236 -0.9127 -0.2247
 2596SOL    HW223209   3.288   4.076  10.305 -0.2729 -0.3217 -0.4979
 2597SOL     OW23210   3.523   5.362   0.904  0.1819  0.1067 -0.0330
 2597SOL    HW123211   3.521   5.282   0.957  0.9995 -0.4202 -0.7735
 2597SOL    HW223212   3.616   5.378   0.888  0.0083  1.0476 -0.1363
 2598SOL     OW23213   2.938   5.728  10.571 -0.7314  0.1496  0.0784
 2598SOL    HW123214   2.848   5.697  10.560 -0.8868  0.3993  0.6193
 2598SOL    HW223215   2.972   5.733  10.482 -1.1333 -0.3040 -0.1056
 2599SOL     OW23216   4.373   1.314   3.318  0.4316  0.3888  0.3524
 2599SOL    HW123217   4.367   1.323   3.223 -0.7096  0.1273  0.4015
 2599SOL    HW223218   4.461   1.277   3.332  0.1517 -0.7043 -0.6774
 2600SOL     OW23219   5.792   1.799   2.287  0.0711  0.2995  0.8717
 2600SOL    HW123220   5.725   1.752   2.238 -1.0711  0.5481  2.1910
 2600SOL    HW223221   5.797   1.885   2.245  1.4535 -0.6037 -0.9038
 2601SOL     OW23222   2.588   5.386   3.329 -0.2462  0.0228  0.4609
 2601SOL    HW123223   2.683   5.380   3.341  0.0215  2.9976  0.2452
 2601SOL    HW223224   2.557   5.430   3.408 -1.2173  0.4622 -0.1514
 2602SOL     OW23225   3.640   4.729   1.042  0.2711 -0.4430 -0.6549
 2602SOL    HW123226   3.603   4.759   0.959 -0.7898 -2.5555 -0.9654
 2602SOL    HW223227   3.683   4.646   1.021 -0.3248 -1.1812  0.9885
 2603SOL     OW23228   3.211   5.752   0.709  0.4356  0.5596 -0.1249
 2603SOL    HW123229   3.282   5.814   0.723  0.5254  0.8369 -1.7903
 2603SOL    HW223230   3.233   5.678   0.766  0.1033  2.1914  2.2213
 2604SOL     OW23231   5.009   1.844   7.677 -0.1636  0.4323  0.1714
 2604SOL    HW123232   4.950   1.919   7.685  0.2002  0.6394  1.0125
 2604SOL    HW223233   5.080   1.875   7.621  0.1659  0.8337  0.8028
 2605SOL     OW23234   0.399   3.720  10.844 -0.2023  0.0183 -0.5026
 2605SOL    HW123235   0.303   3.730  10.845 -0.1190  1.0610 -1.6809
 2605SOL    HW223236   0.415   3.639  10.892 -1.8193 -1.4012 -2.2755
 2606SOL     OW23237   3.010   3.696   0.173  0.6355  0.3454 -0.7863
 2606SOL    HW123238   3.077   3.679   0.107  0.0589  0.3500 -1.3835
 2606SOL    HW223239   3.021   3.626   0.237  1.6644  0.7447 -0.5028
 2607SOL     OW23240   4.635   3.157   0.186  0.0308 -0.2010 -0.5110
 2607SOL    HW123241   4.662   3.074   0.145 -0.3641  0.7480 -2.7583
 2607SOL    HW223242   4.580   3.130   0.259  0.5800 -1.9510 -0.7000
 2608SOL     OW23243   3.122   1.783   2.963  0.0159 -0.1673  0.4475
 2608SOL    HW123244   3.124   1.691   2.988  0.0693 -0.6929 -1.3853
 2608SOL    HW223245   3.035   1.814   2.988 -0.2721 -0.9235  0.3726
 2609SOL     OW23246   1.720   1.301   9.843  0.1478 -0.0775  0.6447
 2609SOL    HW123247   1.665   1.342   9.909  0.5384 -1.3870  1.7922
 2609SOL    HW223248   1.688   1.211   9.837  1.0824 -0.3815  0.1095
 2610SOL     OW23249   0.320   0.791  12.247 -0.6011 -0.4451  0.2523
 2610SOL    HW123250   0.400   0.815  12.201  0.6263 -2.3442  1.3588
 2610SOL    HW223251   0.349   0.739  12.321 -2.5769  1.9767  2.8585
 2611SOL     OW23252   2.515   0.611  12.381  0.0958 -0.0333 -0.0418
 2611SOL    HW123253   2.598   0.650  12.353 -0.7056  0.9354 -1.1461
 2611SOL    HW223254   2.526   0.596  12.475  0.8022  1.9767  0.2349
 2612SOL     OW23255   0.161   0.711   9.448 -0.1925  0.0768 -0.4422
 2612SOL    HW123256   0.126   0.630   9.410 -0.4306 -0.3529  0.6923
 2612SOL    HW223257   0.222   0.681   9.515  1.0997  0.8290 -1.2554
 2613SOL     OW23258   2.589   4.573   1.404 -0.1947 -0.0142 -0.1102
 2613SOL    HW123259   2.675   4.614   1.408  0.1926 -0.9520  2.4889
 2613SOL    HW223260   2.591   4.506   1.472 -3.1091  0.2532  0.3386
 2614SOL     OW23261   4.771   2.598  12.367  0.2750  0.4041  0.5089
 2614SOL    HW123262   4.767   2.683  12.410 -0.9965  0.6814 -0.1287
 2614SOL    HW223263   4.844   2.603  12.307  0.6410  0.7984  0.9860
 2615SOL     OW23264   3.813   4.952   0.231 -0.4054  0.3755  0.2541
 2615SOL    HW123265   3.768   4.979   0.151 -1.6340  0.1958  0.8769
 2615SOL    HW223266   3.902   4.929   0.202 -1.7212 -2.7212 -1.5620
 2616SOL     OW23267   4.357   4.059   1.768 -0.3798 -0.1807  0.0283
 2616SOL    HW123268   4.426   4.028   1.709 -1.0704 -1.2538 -0.2463
 2616SOL    HW223269   4.403   4.095   1.843  0.4732 -1.0956 -0.0488
 2617SOL     OW23270   2.020   4.720  11.947 -0.2485  0.1483  0.3199
 2617SOL    HW123271   1.948   4.769  11.987 -0.4632  0.4142 -0.3917
 2617SOL    HW223272   2.098   4.747  11.995  0.0279  3.0625 -1.6878
 2618SOL     OW23273   3.303   2.905  11.316  0.3988 -0.4767 -0.2653
 2618SOL    HW123274   3.355   2.965  11.369  0.4555 -0.8611  0.1149
 2618SOL    HW223275   3.320   2.818  11.353  2.0782 -1.0146 -2.1926
 2619SOL     OW23276   2.987   4.970   0.373 -0.1956 -0.4678 -0.2019
 2619SOL    HW123277   2.963   4.877   0.371 -0.4775 -0.4282  0.9079
 2619SOL    HW223278   3.078   4.971   0.403  0.6019 -0.4993 -2.4492
 2620SOL     OW23279   0.511   0.421   9.187  0.2797  0.0539 -0.1977
 2620SOL    HW123280   0.430   0.448   9.144  1.6920  0.3067 -2.8099
 2620SOL    HW223281   0.575   0.487   9.161  1.8397 -1.3464  0.0138
 2621SOL     OW23282   0.943   1.644   8.207 -0.4385 -0.1224  0.7692
 2621SOL    HW123283   0.965   1.569   8.263 -3.0796 -2.2780 -0.9440
 2621SOL    HW223284   1.014   1.646   8.142 -0.9117 -1.8651  0.1645
 2622SOL     OW23285   0.798   5.720   8.091  0.4397  0.2885  0.2059
 2622SOL    HW123286   0.832   5.773   8.163  2.9086  0.2592 -0.8675
 2622SOL    HW223287   0.768   5.784   8.026  0.4763  0.3408  0.2390
 2623SOL     OW23288   5.131   5.749   0.750 -0.5941 -0.6065 -0.5222
 2623SOL    HW123289   5.184   5.669   0.748 -0.6240 -0.6577  0.4803
 2623SOL    HW223290   5.057   5.728   0.806  0.3283  0.6806  1.2480
 2624SOL     OW23291   3.874   3.750   9.089 -0.2920 -0.2507  0.7034
 2624SOL    HW123292   3.904   3.671   9.135 -0.6727 -0.2728  0.9154
 2624SOL    HW223293   3.837   3.717   9.007  2.6548 -0.0340 -0.8145
 2625SOL     OW23294   1.362   2.665  10.902  0.3518  0.3266 -0.2619
 2625SOL    HW123295   1.319   2.612  10.835  1.8728 -3.5934  1.7067
 2625SOL    HW223296   1.290   2.693  10.960 -0.1826 -2.1844  0.3522
 2626SOL     OW23297   5.755   3.452   0.886 -0.4573 -0.0472 -0.5456
 2626SOL    HW123298   5.806   3.532   0.869  1.1495 -1.2180 -1.2988
 2626SOL    HW223299   5.818   3.381   0.877 -1.5380 -1.3211  1.6244
 2627SOL     OW23300   2.871   4.084   0.744 -0.4111  0.2707  0.2268
 2627SOL    HW123301   2.810   4.157   0.754 -2.6386 -1.1905 -2.2854
 2627SOL    HW223302   2.822   4.007   0.771  1.4220 -0.5186  1.3686
 2628SOL     OW23303   3.989   1.204   3.896  0.4318  0.4682  0.0903
 2628SOL    HW123304   3.900   1.201   3.861  0.6524  1.5126 -0.5722
 2628SOL    HW223305   4.004   1.115   3.930 -0.3727 -0.0888 -0.9813
 2629SOL     OW23306   4.154   0.839   1.947 -0.4992 -0.4162  0.3673
 2629SOL    HW123307   4.080   0.898   1.961  1.1418  1.4243  1.6099
 2629SOL    HW223308   4.197   0.873   1.868 -0.3361 -0.8160  0.2817
 2630SOL     OW23309   1.157   3.709   8.940  0.5582  0.1713  0.0113
 2630SOL    HW123310   1.147   3.633   8.883  0.9415  1.1241 -1.3496
 2630SOL    HW223311   1.249   3.732   8.933  1.2868 -1.4409  3.3104
 2631SOL     OW23312   4.383   2.497  12.075 -0.6560 -0.2823 -0.2619
 2631SOL    HW123313   4.414   2.588  12.081  0.4270 -0.7289  1.6310
 2631SOL    HW223314   4.326   2.496  11.999 -0.6641  1.9917 -0.3414
 2632SOL     OW23315   0.222   0.759  11.498  0.4491  0.5171 -0.0713
 2632SOL    HW123316   0.251   0.674  11.532 -0.1660 -0.6862 -2.4680
 2632SOL    HW223317   0.162   0.793  11.564  1.1959 -0.5960  1.2037
 2633SOL     OW23318   1.754   2.176   1.790 -0.1056 -0.0091 -0.5714
 2633SOL    HW123319   1.789   2.145   1.873 -0.1359 -0.0925 -0.5886
 2633SOL    HW223320   1.665   2.203   1.810 -0.0431  0.1706 -0.5328
 2634SOL     OW23321   5.685   2.102   8.319  0.6258 -0.7450  0.2474
 2634SOL    HW123322   5.612   2.084   8.260  1.3302 -0.6436 -0.6660
 2634SOL    HW223323   5.746   2.154   8.266  0.2295  1.3412  1.7466
 2635SOL     OW23324   0.660   1.194   8.798 -0.5053 -0.1478 -0.3474
 2635SOL    HW123325   0.655   1.139   8.720  0.6159 -1.3759  0.4137
 2635SOL    HW223326   0.592   1.159   8.857 -1.6711  1.0790 -0.9437
 2636SOL     OW23327   1.502   5.409  10.250 -0.2330 -0.8147  0.2186
 2636SOL    HW123328   1.446   5.461  10.191 -1.6615 -1.1301  1.2612
 2636SOL    HW223329   1.589   5.446  10.239 -0.9320  0.7542 -0.2653
 2637SOL     OW23330   1.680   2.152   1.037 -0.1067  0.3753  0.3086
 2637SOL    HW123331   1.733   2.100   0.976 -2.4316  0.2479 -1.6535
 2637SOL    HW223332   1.743   2.180   1.104  2.2106 -0.7491 -1.3032
 2638SOL     OW23333   3.228   4.258   3.334  0.3559 -0.3812 -0.3984
 2638SOL    HW123334   3.175   4.214   3.268 -0.3381  0.1680 -0.2112
 2638SOL    HW223335   3.291   4.192   3.362 -1.8998 -1.9066  1.2944
 2639SOL     OW23336   0.722   5.907   7.920 -0.2873  0.0408  0.2981
 2639SOL    HW123337   0.639   5.944   7.950 -0.7793  0.7805 -1.8874
 2639SOL    HW223338   0.783   5.980   7.920  0.0026 -0.1959  0.5271
 2640SOL     OW23339   2.653   2.525   0.435  0.0551 -1.0960 -0.1516
 2640SOL    HW123340   2.686   2.459   0.374 -1.5529 -1.4808 -0.6395
 2640SOL    HW223341   2.722   2.534   0.501  0.8114 -2.3826 -0.7488
 2641SOL     OW23342   4.144   1.618  11.964 -0.2382  0.0400 -0.1123
 2641SOL    HW123343   4.106   1.662  12.041 -0.5869  0.4530 -0.5104
 2641SOL    HW223344   4.099   1.659  11.890 -0.0399 -0.4895 -0.5249
 2642SOL     OW23345   4.972   1.751   2.731  0.2231  0.5652  0.3366
 2642SOL    HW123346   4.969   1.664   2.691  0.3652  1.3407 -1.4092
 2642SOL    HW223347   5.063   1.780   2.718 -0.4903  2.0701 -1.5299
 2643SOL     OW23348   3.006   3.538   1.985 -0.0229  0.1852 -0.3688
 2643SOL    HW123349   3.018   3.633   1.972  0.5412  0.0316 -1.0300
 2643SOL    HW223350   2.979   3.506   1.899 -0.2733 -0.2485 -0.1288
 2644SOL     OW23351   4.192   3.259   2.323  0.2397  0.5015 -0.2231
 2644SOL    HW123352   4.247   3.336   2.310  1.8979 -0.5594  0.3984
 2644SOL    HW223353   4.181   3.222   2.235  2.0122 -0.2672 -0.1489
 2645SOL     OW23354   0.238   1.194   8.454  0.2674  0.0944  0.2866
 2645SOL    HW123355   0.145   1.206   8.475  0.4162  1.4337  0.2227
 2645SOL    HW223356   0.254   1.257   8.383  1.3785  0.3044  0.7220
 2646SOL     OW23357   2.615   3.035   1.495 -0.3095 -0.2709 -0.0577
 2646SOL    HW123358   2.672   2.978   1.546  1.0457  0.2351 -0.9654
 2646SOL    HW223359   2.651   3.123   1.509  0.6117 -0.2093 -2.5230
 2647SOL     OW23360   1.339   1.682  11.536 -0.2105 -0.2415 -0.0796
 2647SOL    HW123361   1.386   1.624  11.596  0.8280 -0.2799 -0.8967
 2647SOL    HW223362   1.273   1.626  11.494 -0.8085 -0.2563  0.8797
 2648SOL     OW23363   0.096   4.742   2.996 -0.2466 -0.8218 -0.0277
 2648SOL    HW123364   0.148   4.786   2.928 -0.2577 -0.1072  0.4166
 2648SOL    HW223365   0.129   4.652   2.998  0.4750 -0.5637 -0.2484
 2649SOL     OW23366   2.602   4.290   1.228 -0.2151  0.1465  0.4246
 2649SOL    HW123367   2.546   4.346   1.282  0.2957  0.8422  0.2292
 2649SOL    HW223368   2.561   4.292   1.142 -1.1298 -1.1002  0.8158
 2650SOL     OW23369   4.601   0.559  11.336  0.1110  0.2782 -0.1458
 2650SOL    HW123370   4.576   0.652  11.330 -1.7492 -0.1734  0.5036
 2650SOL    HW223371   4.564   0.520  11.257 -1.2803 -0.4073  0.8426
 2651SOL     OW23372   5.509   5.122  10.298 -0.6604  0.5258 -0.4562
 2651SOL    HW123373   5.586   5.144  10.351 -0.6015 -0.1410 -0.2624
 2651SOL    HW223374   5.528   5.160  10.212  0.0500  0.0466 -0.5172
 2652SOL     OW23375   4.942   3.021   0.888  0.4166  0.1617  0.3212
 2652SOL    HW123376   4.983   2.999   0.804  0.2682  2.3339 -0.3313
 2652SOL    HW223377   5.012   3.009   0.952 -0.2776 -4.5428  0.3626
 2653SOL     OW23378   3.153   3.456   2.476  0.0898 -0.0398 -0.1760
 2653SOL    HW123379   3.110   3.509   2.543  0.3798 -0.2296  0.1609
 2653SOL    HW223380   3.158   3.514   2.400  1.4746  0.8283  0.5528
 2654SOL     OW23381   2.216   0.961  12.267 -0.0441  0.0344 -0.4953
 2654SOL    HW123382   2.242   1.010  12.189 -0.2916 -0.0818 -0.6520
 2654SOL    HW223383   2.144   0.905  12.237 -1.1826  1.1244  0.1840
 2655SOL     OW23384   4.896   1.386   8.976  0.1252  0.1292 -0.5267
 2655SOL    HW123385   4.844   1.467   8.975 -1.0229 -0.5407  1.2703
 2655SOL    HW223386   4.831   1.316   8.983  1.1934 -0.8257  0.0877
 2656SOL     OW23387   1.907   1.446  11.447 -0.0700  0.3569 -0.1212
 2656SOL    HW123388   1.940   1.503  11.516 -0.2669  0.7225 -0.3292
 2656SOL    HW223389   1.872   1.370  11.494  4.2727 -1.7848  0.0181
 2657SOL     OW23390   0.712   2.950   9.550 -0.1730 -0.1790  0.0508
 2657SOL    HW123391   0.770   3.000   9.607  0.8629  0.4808 -1.5635
 2657SOL    HW223392   0.624   2.967   9.585  0.4300  0.2749  1.3890
 2658SOL     OW23393   3.553   5.333   3.345  0.3532 -0.3351  0.1262
 2658SOL    HW123394   3.461   5.343   3.322  0.5658  0.4222 -0.3990
 2658SOL    HW223395   3.591   5.420   3.334  1.4109 -0.9106 -0.9263
 2659SOL     OW23396   3.552   0.684   2.316  0.5407 -0.3575 -0.2144
 2659SOL    HW123397   3.458   0.700   2.308  0.0479 -1.3878  2.7711
 2659SOL    HW223398   3.558   0.592   2.342  2.3951 -0.2969 -0.3529
 2660SOL     OW23399   3.107   5.513   0.151  0.0562  0.2591 -0.1874
 2660SOL    HW123400   3.050   5.586   0.173 -0.2748 -0.8199  2.8822
 2660SOL    HW223401   3.193   5.539   0.184  0.7280  0.7103 -2.2549
 2661SOL     OW23402   1.489   5.061   8.825  0.5375 -0.1055  0.2348
 2661SOL    HW123403   1.407   5.105   8.846  0.1484  0.7507 -2.8738
 2661SOL    HW223404   1.486   4.980   8.876 -1.9802  0.1727  0.6177
 2662SOL     OW23405   2.536   5.159  10.528  0.1703  0.2144 -0.6858
 2662SOL    HW123406   2.607   5.191  10.472  0.2897 -0.8197 -1.1406
 2662SOL    HW223407   2.458   5.206  10.498  0.0563 -0.9990 -2.3437
 2663SOL     OW23408   4.127   3.578   3.214  0.1051 -0.1179  0.0462
 2663SOL    HW123409   4.100   3.576   3.305 -0.0056  0.5825  0.0342
 2663SOL    HW223410   4.195   3.511   3.207  0.1577 -0.1290  0.6524
 2664SOL     OW23411   3.232   3.165   8.617 -0.3341  0.4146  0.1646
 2664SOL    HW123412   3.322   3.164   8.587 -0.5014 -0.7469 -0.3295
 2664SOL    HW223413   3.179   3.157   8.538 -0.8302 -0.2645  0.5460
 2665SOL     OW23414   5.819   4.995   3.016  0.2722 -0.5086  0.2589
 2665SOL    HW123415   5.865   5.029   2.940 -0.0702  1.6132  0.9677
 2665SOL    HW223416   5.878   5.012   3.090 -1.1236  1.2161  1.0137
 2666SOL     OW23417   3.975   0.735   7.327  0.5790  0.3886 -0.4747
 2666SOL    HW123418   3.950   0.645   7.306 -1.9970  1.1467 -0.7963
 2666SOL    HW223419   4.024   0.727   7.410 -1.7949 -1.0651  0.8426
 2667SOL     OW23420   4.209   2.266   0.143 -0.2574 -0.4067  0.0151
 2667SOL    HW123421   4.210   2.192   0.204 -0.4738 -1.0458 -0.7488
 2667SOL    HW223422   4.277   2.325   0.176 -0.0197 -0.9861  0.5742
 2668SOL     OW23423   1.943   1.510  11.198 -0.5102  0.5580 -0.0515
 2668SOL    HW123424   2.036   1.527  11.184 -0.1148 -1.9707 -0.7993
 2668SOL    HW223425   1.936   1.493  11.291  0.4987 -3.0836 -0.5772
 2669SOL     OW23426   4.599   4.376   2.165  0.2856 -0.5145 -0.1996
 2669SOL    HW123427   4.528   4.422   2.121  0.2447 -0.9287 -0.5678
 2669SOL    HW223428   4.647   4.445   2.211  1.5691  0.2354 -2.5922
 2670SOL     OW23429   5.241   1.979  11.696  0.4340 -0.0498 -0.4619
 2670SOL    HW123430   5.174   1.976  11.763  0.3902 -0.7820 -0.5402
 2670SOL    HW223431   5.193   1.976  11.613  0.6284 -2.0533 -0.5178
 2671SOL     OW23432   3.955   1.919   3.481 -0.1562  0.0816 -0.4887
 2671SOL    HW123433   3.958   1.829   3.513  1.3883  0.2312 -0.1795
 2671SOL    HW223434   4.027   1.963   3.527 -1.6058  1.7545  0.2164
 2672SOL     OW23435   5.225   2.542   9.723 -0.0887  0.1351  0.2361
 2672SOL    HW123436   5.235   2.535   9.628  0.4766 -1.5544  0.3965
 2672SOL    HW223437   5.158   2.477   9.744 -1.1297  1.3916  0.8530
 2673SOL     OW23438   5.066   2.691   8.581 -0.5120 -0.0300 -0.6498
 2673SOL    HW123439   5.002   2.673   8.512  1.7098 -1.8100 -2.3354
 2673SOL    HW223440   5.131   2.622   8.571  1.6430  1.7005  1.0548
 2674SOL     OW23441   3.540   4.301   8.757 -0.0398 -0.0402 -0.0639
 2674SOL    HW123442   3.610   4.336   8.702  0.2245 -0.6280 -0.1058
 2674SOL    HW223443   3.532   4.209   8.731 -1.1647  0.1407 -0.4048
 2675SOL     OW23444   3.515   4.244   3.220 -0.0061 -0.1787 -0.1452
 2675SOL    HW123445   3.489   4.330   3.255 -1.0799 -0.2007 -0.8518
 2675SOL    HW223446   3.593   4.220   3.270  2.0027  2.4937 -1.8294
 2676SOL     OW23447   4.419   5.391   2.362 -0.6622 -0.0541  0.2106
 2676SOL    HW123448   4.369   5.364   2.439 -0.0343 -0.2412  0.5589
 2676SOL    HW223449   4.386   5.478   2.341 -2.6206 -1.0100 -0.8433
 2677SOL     OW23450   3.614   5.571   2.448 -0.0874 -0.2117 -0.8266
 2677SOL    HW123451   3.550   5.504   2.468 -0.7618  0.6838  0.0648
 2677SOL    HW223452   3.562   5.650   2.432  0.6777  0.0659 -2.0569
 2678SOL     OW23453   0.239   1.392   3.022  0.2378  0.5099 -0.4860
 2678SOL    HW123454   0.308   1.362   2.962 -0.4004 -1.1771 -0.4102
 2678SOL    HW223455   0.286   1.417   3.102  0.7133 -1.4793 -0.1089
 2679SOL     OW23456   4.971   5.303   0.246 -0.2925  0.3485 -0.0340
 2679SOL    HW123457   5.024   5.224   0.234 -1.5915 -0.7692  1.4266
 2679SOL    HW223458   4.881   5.272   0.246 -1.0045  2.2077 -2.2948
 2680SOL     OW23459   0.642   1.731   9.690  0.2203 -0.6323  0.1300
 2680SOL    HW123460   0.631   1.812   9.740 -1.4457 -0.2347 -0.8275
 2680SOL    HW223461   0.589   1.667   9.738 -0.1483 -0.6263 -0.2604
 2681SOL     OW23462   0.155   3.774   0.086 -0.1538  0.0185 -0.3905
 2681SOL    HW123463   0.250   3.766   0.091 -0.2219  0.0680  1.1431
 2681SOL    HW223464   0.138   3.868   0.088 -0.2479  0.0104 -0.6537
 2682SOL     OW23465   3.016   5.144   9.296 -0.1947  0.4383  0.1564
 2682SOL    HW123466   3.110   5.162   9.292  0.2751 -2.1003 -1.2869
 2682SOL    HW223467   2.998   5.132   9.389  1.9871 -4.1466  0.0786
 2683SOL     OW23468   2.160   1.550   9.635  0.1718 -0.3198  0.2727
 2683SOL    HW123469   2.239   1.547   9.581 -0.4373 -0.1259 -0.6389
 2683SOL    HW223470   2.105   1.480   9.600 -1.1094  1.1650 -0.7504
 2684SOL     OW23471   5.145   0.670   0.064  0.2714 -0.6388 -0.4352
 2684SOL    HW123472   5.120   0.624  -0.016 -0.8630 -1.6993  0.5221
 2684SOL    HW223473   5.062   0.701   0.101  0.4898 -2.5090  1.7419
 2685SOL     OW23474   1.415   3.314   0.464 -0.3597 -0.4664 -0.7367
 2685SOL    HW123475   1.340   3.254   0.460  0.2471 -1.1544 -1.9821
 2685SOL    HW223476   1.478   3.278   0.402  0.3032  1.0738 -0.9713
 2686SOL     OW23477   0.222   1.660   9.429  0.3366 -0.2033 -0.0590
 2686SOL    HW123478   0.173   1.583   9.458  0.7162 -0.9510 -1.3427
 2686SOL    HW223479   0.314   1.636   9.442  0.4684 -0.1163 -0.8222
 2687SOL     OW23480   1.523   1.635   3.621 -0.5254  0.7387  0.8400
 2687SOL    HW123481   1.459   1.654   3.690 -1.3793 -0.9493  0.5538
 2687SOL    HW223482   1.539   1.541   3.629  1.4062  1.0142  0.4467
 2688SOL     OW23483   2.358   1.194  10.437  0.0563 -0.0695 -0.2129
 2688SOL    HW123484   2.291   1.217  10.501 -0.6776  0.2911 -1.1079
 2688SOL    HW223485   2.352   1.262  10.370  1.0296 -0.2716 -0.5128
 2689SOL     OW23486   2.296   0.326   3.503 -0.5281 -0.0270 -0.9294
 2689SOL    HW123487   2.353   0.258   3.466 -0.8090  0.1463 -1.6980
 2689SOL    HW223488   2.216   0.322   3.450  0.0565  1.9394 -2.0289
 2690SOL     OW23489   2.387   2.464   1.594  0.1793  0.0639  0.4366
 2690SOL    HW123490   2.336   2.503   1.665  2.2348  0.7983  1.5319
 2690SOL    HW223491   2.448   2.405   1.639 -0.4027 -1.6123 -0.9362
 2691SOL     OW23492   1.682   0.723   8.722 -0.2091 -0.0423  0.8285
 2691SOL    HW123493   1.706   0.644   8.674 -0.4471 -0.2826  1.1045
 2691SOL    HW223494   1.743   0.789   8.690 -1.3264  0.1881 -0.9076
 2692SOL     OW23495   2.857   5.367   9.196  0.4779  0.2739 -0.1255
 2692SOL    HW123496   2.919   5.303   9.230 -0.5460 -0.5964  0.1274
 2692SOL    HW223497   2.801   5.388   9.271 -0.3023  0.1306 -0.6607
 2693SOL     OW23498   4.728   0.625  10.649  0.3766 -0.2819  0.0026
 2693SOL    HW123499   4.650   0.640  10.596  0.4362 -2.3484 -0.7185
 2693SOL    HW223500   4.709   0.543  10.696  0.4701  1.2778  2.9155
 2694SOL     OW23501   5.567   4.993   9.194 -0.2969 -0.4220 -0.3892
 2694SOL    HW123502   5.645   5.001   9.140 -0.6146 -0.4284 -0.8562
 2694SOL    HW223503   5.595   5.020   9.281 -0.1060  0.9049 -0.8415
 2695SOL     OW23504   2.035   1.738   9.467 -0.4270 -0.5068  0.1383
 2695SOL    HW123505   2.095   1.690   9.524  0.3588  0.1003 -0.1614
 2695SOL    HW223506   2.068   1.722   9.379  0.1405  0.9887  0.0702
 2696SOL     OW23507   5.780   4.654   8.908 -0.1304  0.2917  0.5879
 2696SOL    HW123508   5.873   4.652   8.887  0.1849  1.5047  1.7480
 2696SOL    HW223509   5.776   4.696   8.994 -1.7118 -0.2234  0.7859
 2697SOL     OW23510   4.450   0.344   1.159 -0.3338  0.3398  0.5477
 2697SOL    HW123511   4.531   0.318   1.116 -1.0457 -0.9580 -0.0541
 2697SOL    HW223512   4.461   0.318   1.250 -0.4518 -0.7128  0.2612
 2698SOL     OW23513   2.136   4.426  11.945  0.1459 -0.1883  0.1244
 2698SOL    HW123514   2.147   4.408  12.038 -2.0685 -1.7202  0.1180
 2698SOL    HW223515   2.083   4.506  11.942  0.8106  0.2539  0.1809
 2699SOL     OW23516   4.616   2.191   9.721  0.3237  0.3112 -0.0606
 2699SOL    HW123517   4.584   2.272   9.760 -1.4168 -1.4051  2.1971
 2699SOL    HW223518   4.685   2.219   9.660 -2.2338  3.7186 -1.5452
 2700SOL     OW23519   3.585   0.618   2.858  0.6461  0.0486  0.2806
 2700SOL    HW123520   3.544   0.615   2.944  0.0905  0.4253  0.0303
 2700SOL    HW223521   3.513   0.610   2.796  0.8843  1.1823 -0.1629
 2701SOL     OW23522   0.737   0.922   1.596 -0.2075  0.4280  0.2647
 2701SOL    HW123523   0.798   0.917   1.523 -2.1497 -0.7822 -1.3321
 2701SOL    HW223524   0.671   0.986   1.568 -0.7350  0.2796  1.1432
 2702SOL     OW23525   4.872   5.743   1.906  0.1945 -0.1282  0.3500
 2702SOL    HW123526   4.860   5.649   1.897  0.7424 -0.1838  0.1743
 2702SOL    HW223527   4.930   5.767   1.834  2.0772 -0.0605  1.8470
 2703SOL     OW23528   2.374   2.579   9.082  0.2447 -0.3879 -0.1278
 2703SOL    HW123529   2.397   2.506   9.140  0.1638  0.7232  1.3402
 2703SOL    HW223530   2.427   2.652   9.113  0.2552  0.2156 -1.5268
 2704SOL     OW23531   5.796   3.958   8.453 -0.2571 -0.1184 -0.2938
 2704SOL    HW123532   5.807   3.905   8.532 -0.7813 -0.7032 -0.6166
 2704SOL    HW223533   5.861   4.028   8.463 -2.0004  1.2686  1.8917
 2705SOL     OW23534   5.778   1.538  12.021  0.3785  0.2699  0.4048
 2705SOL    HW123535   5.777   1.442  12.018 -0.3324  0.2937 -0.3090
 2705SOL    HW223536   5.783   1.564  11.930  0.9246  0.9221  0.6179
 2706SOL     OW23537   1.006   1.352   0.171  0.5137  0.8455  0.4207
 2706SOL    HW123538   1.091   1.397   0.169  0.5981  0.6876  0.4668
 2706SOL    HW223539   0.951   1.409   0.225  1.2733 -0.2762  2.4243
 2707SOL     OW23540   1.815   2.552  11.259  0.0091 -0.0646  0.7820
 2707SOL    HW123541   1.733   2.602  11.257  0.9516  1.4949  0.8564
 2707SOL    HW223542   1.836   2.544  11.352  0.5739  0.5850  0.7130
 2708SOL     OW23543   0.686   2.984   2.338  0.1974 -0.5507  0.4098
 2708SOL    HW123544   0.627   3.059   2.340 -0.0285 -0.6724 -0.9315
 2708SOL    HW223545   0.708   2.967   2.429  2.3188  2.7770  0.5902
 2709SOL     OW23546   0.886   2.522  11.446 -0.6879 -0.2570 -0.0352
 2709SOL    HW123547   0.816   2.518  11.510 -0.3773 -0.4752  0.2918
 2709SOL    HW223548   0.842   2.525  11.361 -1.0796 -0.8453  0.1492
 2710SOL     OW23549   5.164   4.076   1.342  0.2730 -0.4934 -0.1087
 2710SOL    HW123550   5.127   4.130   1.412  2.5573  0.2523  0.5793
 2710SOL    HW223551   5.095   4.072   1.276 -0.8321  1.2855  0.8813
 2711SOL     OW23552   5.830   0.749   0.763 -0.3015 -0.1169  0.0699
 2711SOL    HW123553   5.848   0.746   0.669  2.0452 -0.2069  0.4906
 2711SOL    HW223554   5.786   0.666   0.781 -0.9196 -0.0322 -0.9593
 2712SOL     OW23555   3.701   2.242   9.238  0.1004 -0.0572  0.2564
 2712SOL    HW123556   3.715   2.271   9.148  2.5149  0.0135  0.6196
 2712SOL    HW223557   3.691   2.322   9.289  1.4761  0.0008  0.4531
 2713SOL     OW23558   4.608   2.677   2.854  0.3723  0.5005 -0.1970
 2713SOL    HW123559   4.563   2.622   2.918 -0.1695 -0.4115 -1.3357
 2713SOL    HW223560   4.657   2.740   2.906  1.2821 -1.2784  1.1343
 2714SOL     OW23561   2.911   2.102   7.992 -0.4523  0.5089 -0.3491
 2714SOL    HW123562   2.841   2.157   8.029 -1.6200 -1.7614  0.9032
 2714SOL    HW223563   2.868   2.019   7.972  1.0757  0.3154 -3.1030
 2715SOL     OW23564   4.799   1.379  12.153 -0.2075 -0.2567  0.8639
 2715SOL    HW123565   4.808   1.301  12.098  0.0129  0.1987  0.2518
 2715SOL    HW223566   4.728   1.429  12.112  1.6703  1.3339 -0.5266
 2716SOL     OW23567   4.235   2.680   8.249  0.4194  0.3578  0.0412
 2716SOL    HW123568   4.284   2.762   8.241  0.6021  0.1200 -1.4629
 2716SOL    HW223569   4.169   2.697   8.316 -0.4694  2.1805 -1.2940
 2717SOL     OW23570   3.758   4.364   8.557  0.3536  0.3284  0.7845
 2717SOL    HW123571   3.769   4.454   8.526  1.9817  0.4239  1.6103
 2717SOL    HW223572   3.842   4.322   8.540  0.7477 -0.0823  3.4684
 2718SOL     OW23573   2.426   2.272  11.694  0.8531  0.2285  0.7311
 2718SOL    HW123574   2.336   2.253  11.668  1.8119 -1.4175 -1.5644
 2718SOL    HW223575   2.445   2.207  11.761  0.4058  0.4726  1.1017
 2719SOL     OW23576   1.768   4.263   9.234  0.5850 -0.2712  0.0287
 2719SOL    HW123577   1.692   4.209   9.211  0.7795 -1.1452  1.3974
 2719SOL    HW223578   1.775   4.254   9.329  2.2657  0.0177 -0.0682
 2720SOL     OW23579   2.083   2.033  11.359 -0.2147  0.3148  0.0538
 2720SOL    HW123580   2.000   1.986  11.351 -0.0061 -0.1133  0.3505
 2720SOL    HW223581   2.130   2.013  11.278 -0.5823  0.9150 -0.3105
 2721SOL     OW23582   2.429   2.608  10.671  0.3366  0.3746  0.2209
 2721SOL    HW123583   2.480   2.591  10.592  0.0370 -1.7314  0.4441
 2721SOL    HW223584   2.482   2.572  10.742 -1.0162 -1.0357  0.5517
 2722SOL     OW23585   1.896   4.652   1.727 -0.0078 -0.0857 -0.0340
 2722SOL    HW123586   1.821   4.660   1.785 -0.5844 -0.3892 -0.7250
 2722SOL    HW223587   1.972   4.665   1.784 -0.6244  2.3648  0.3059
 2723SOL     OW23588   4.654   3.265   8.097  0.0445  0.4915 -0.5314
 2723SOL    HW123589   4.677   3.182   8.055  0.7929  0.0218  0.7678
 2723SOL    HW223590   4.671   3.331   8.030  1.9462 -0.1758 -0.7452
 2724SOL     OW23591   1.501   4.621  10.581 -0.0898 -0.3750 -0.0476
 2724SOL    HW123592   1.475   4.699  10.531  1.4900 -0.4728 -1.0526
 2724SOL    HW223593   1.576   4.650  10.633 -1.0239 -0.5840  1.4448
 2725SOL     OW23594   5.019   1.233  10.381  0.2180  0.0756  0.1540
 2725SOL    HW123595   5.050   1.310  10.428  0.9672  1.6158 -2.7209
 2725SOL    HW223596   4.959   1.268  10.315  1.4685 -1.6485 -1.9567
 2726SOL     OW23597   4.609   3.386   9.393 -0.0580 -0.8589  0.5409
 2726SOL    HW123598   4.618   3.456   9.457  0.9849 -0.4900  0.0058
 2726SOL    HW223599   4.603   3.306   9.445  0.5654 -0.5473  1.1018
 2727SOL     OW23600   2.320   0.601   1.560  0.1438 -0.0669  0.2280
 2727SOL    HW123601   2.252   0.566   1.617  1.3354  0.6241  2.1023
 2727SOL    HW223602   2.273   0.661   1.502 -0.9105  0.1171  1.2452
 2728SOL     OW23603   3.385   4.764  10.867 -0.2228  0.0599 -0.5866
 2728SOL    HW123604   3.442   4.814  10.926 -1.0695 -0.6870  0.9020
 2728SOL    HW223605   3.409   4.793  10.779 -0.3073  2.6562  0.2163
 2729SOL     OW23606   1.544   1.612   0.845 -0.2759 -0.0578  0.3211
 2729SOL    HW123607   1.472   1.620   0.784  0.0731  0.5164 -0.0228
 2729SOL    HW223608   1.515   1.661   0.922  0.1224  0.9672 -0.1704
 2730SOL     OW23609   3.614   5.344  10.111 -0.4131 -0.1723 -0.6112
 2730SOL    HW123610   3.626   5.368  10.019  3.0464  3.1691  0.5667
 2730SOL    HW223611   3.536   5.392  10.138 -1.2136 -0.8456 -1.6815
 2731SOL     OW23612   5.862   1.012  10.417  0.5718 -0.1827  0.3631
 2731SOL    HW123613   5.849   0.943  10.352 -1.0020  0.1540  0.2882
 2731SOL    HW223614   5.773   1.033  10.447  1.1903  0.4758  1.7726
 2732SOL     OW23615   4.355   0.361  10.989  0.1430 -0.3504 -0.2236
 2732SOL    HW123616   4.309   0.441  11.015  2.8561  1.0569  0.4449
 2732SOL    HW223617   4.301   0.324  10.919 -2.3026  0.8806  0.9467
 2733SOL     OW23618   5.295   3.337   9.904  0.4028 -0.3781 -0.0733
 2733SOL    HW123619   5.295   3.395   9.980  0.5864 -1.4426  0.7526
 2733SOL    HW223620   5.208   3.297   9.904  0.4177 -0.4107 -0.4005
 2734SOL     OW23621   0.116   1.381   3.513 -0.2654 -0.5973  0.7092
 2734SOL    HW123622   0.181   1.427   3.567 -1.9229  1.0194  1.3759
 2734SOL    HW223623   0.108   1.433   3.434 -1.4230 -0.2628  1.0323
 2735SOL     OW23624   4.518   4.018   0.868 -0.2265  0.1389 -0.0617
 2735SOL    HW123625   4.603   3.982   0.844 -0.3697  0.0017 -0.3670
 2735SOL    HW223626   4.473   4.033   0.784 -0.0556  1.3167  0.0396
 2736SOL     OW23627   1.674   2.524   2.258  0.2883  0.6443 -0.5581
 2736SOL    HW123628   1.695   2.447   2.204 -0.4183 -0.7823  1.1330
 2736SOL    HW223629   1.663   2.595   2.195  1.5611 -0.5045 -2.1262
 2737SOL     OW23630   0.720   0.903   2.946 -0.0088 -0.0090  0.1702
 2737SOL    HW123631   0.679   0.976   2.992  1.0021 -0.1892  1.4063
 2737SOL    HW223632   0.808   0.934   2.923  0.2929 -0.6858  0.3618
 2738SOL     OW23633   1.580   5.155   1.761  0.0774 -0.0687  0.3037
 2738SOL    HW123634   1.574   5.103   1.842  2.6816 -2.8008 -1.1541
 2738SOL    HW223635   1.674   5.164   1.746 -0.3446  3.8090 -0.3806
 2739SOL     OW23636   1.023   0.825   3.149 -0.5401  0.6349  0.4454
 2739SOL    HW123637   0.976   0.751   3.112 -2.0752  1.5662  0.4699
 2739SOL    HW223638   1.070   0.789   3.225  2.1272 -1.1573 -1.9491
 2740SOL     OW23639   1.452   0.777   1.637 -0.5422  0.6368  0.2219
 2740SOL    HW123640   1.541   0.792   1.606 -0.9750  0.4505 -1.1415
 2740SOL    HW223641   1.456   0.696   1.687 -0.6012 -1.2555 -2.7242
 2741SOL     OW23642   2.936   4.156  11.307 -0.0285 -0.0802 -0.8128
 2741SOL    HW123643   2.858   4.120  11.266 -0.7183  0.9183 -0.4036
 2741SOL    HW223644   2.985   4.194  11.234  0.1172 -0.7833 -1.0817
 2742SOL     OW23645   5.886   1.958   8.076 -0.3345 -0.4937 -0.0738
 2742SOL    HW123646   5.901   2.051   8.092  1.6722 -0.7554 -0.3439
 2742SOL    HW223647   5.811   1.956   8.017  0.5478  1.0348 -1.2792
 2743SOL     OW23648   1.519   4.735   3.622 -0.6923  0.6943 -0.1480
 2743SOL    HW123649   1.554   4.669   3.683 -0.8154  1.5292  0.8381
 2743SOL    HW223650   1.480   4.801   3.679  0.8347  2.4192 -1.0655
 2744SOL     OW23651   3.622   5.649   0.355 -0.1739 -0.2985 -0.3884
 2744SOL    HW123652   3.637   5.728   0.407  2.0201 -0.4237 -0.7843
 2744SOL    HW223653   3.671   5.664   0.274 -0.3975 -1.7349 -0.7947
 2745SOL     OW23654   5.834   2.012  11.038  0.2622 -0.0806  0.1202
 2745SOL    HW123655   5.829   2.104  11.063 -0.6170 -0.7767  2.6528
 2745SOL    HW223656   5.784   2.007  10.957 -1.5783  1.2864  1.1265
 2746SOL     OW23657   0.320   2.657   2.437 -0.1627 -0.1038 -0.3968
 2746SOL    HW123658   0.393   2.662   2.499  1.2039 -0.0234 -1.9812
 2746SOL    HW223659   0.242   2.660   2.492  1.0203 -0.0291  1.3226
 2747SOL     OW23660   1.207   3.082   0.487  0.3847 -0.0737 -0.2129
 2747SOL    HW123661   1.266   3.006   0.482 -1.0253 -1.5040  3.4140
 2747SOL    HW223662   1.120   3.047   0.470 -0.0216  1.1455 -0.7225
 2748SOL     OW23663   4.122   5.203   3.697 -0.4444 -0.1193  0.8147
 2748SOL    HW123664   4.117   5.298   3.699 -0.4705 -0.1334  1.3468
 2748SOL    HW223665   4.136   5.182   3.604  1.0039  0.4691  0.8937
 2749SOL     OW23666   3.939   1.844  10.316  0.7135 -0.3453  0.5722
 2749SOL    HW123667   3.917   1.794  10.237 -0.5092 -0.4393  0.9656
 2749SOL    HW223668   3.856   1.854  10.362  0.8798  2.3404  0.3510
 2750SOL     OW23669   5.439   3.479   2.422  0.7614  0.6786  0.0320
 2750SOL    HW123670   5.434   3.479   2.518  3.7684  2.3847  0.2538
 2750SOL    HW223671   5.494   3.403   2.401 -0.0024  0.2286 -0.3660
 2751SOL     OW23672   0.977   0.245   9.531 -0.3636  0.0905 -1.0258
 2751SOL    HW123673   0.938   0.319   9.578 -1.6413 -0.3647 -1.3505
 2751SOL    HW223674   1.006   0.185   9.600  0.7922  0.9298 -0.7565
 2752SOL     OW23675   4.573   0.484   1.881 -0.2673 -0.5220 -0.1787
 2752SOL    HW123676   4.596   0.516   1.794 -0.9050  0.6026  0.0502
 2752SOL    HW223677   4.492   0.531   1.903  0.1534 -0.4218  1.2101
 2753SOL     OW23678   0.260   2.430   9.066  0.3989 -0.0034 -0.0375
 2753SOL    HW123679   0.214   2.401   8.987 -0.5019  1.4680 -0.0669
 2753SOL    HW223680   0.332   2.368   9.076 -1.3908 -2.1786 -0.1794
 2754SOL     OW23681   3.046   0.995  12.382 -0.0262 -0.0187  0.0925
 2754SOL    HW123682   3.091   1.054  12.321 -1.0096  1.5587  0.8483
 2754SOL    HW223683   3.096   0.914  12.379  1.9218  1.1757 -0.2639
 2755SOL     OW23684   1.561   1.562  11.348 -0.4249 -0.1117  0.2519
 2755SOL    HW123685   1.477   1.608  11.351 -0.5090 -0.2284 -0.2552
 2755SOL    HW223686   1.560   1.505  11.424 -1.3168 -1.0068 -0.4297
 2756SOL     OW23687   1.970   2.572   2.051 -0.1114  0.2484  0.6379
 2756SOL    HW123688   1.885   2.529   2.051 -0.3040  0.6012 -0.5557
 2756SOL    HW223689   2.028   2.511   2.004 -0.0486  0.6519  0.1876
 2757SOL     OW23690   5.410   0.748  11.491 -0.1069 -0.2672  0.1959
 2757SOL    HW123691   5.396   0.696  11.412  1.3867 -0.1158 -0.1949
 2757SOL    HW223692   5.474   0.814  11.464 -1.9215  1.7291  0.7093
 2758SOL     OW23693   0.806   5.772  11.956  0.2539  0.3081  0.1037
 2758SOL    HW123694   0.751   5.747  12.030  0.2617  1.2978  0.4512
 2758SOL    HW223695   0.896   5.766  11.989  0.3051 -0.1526 -0.1099
 2759SOL     OW23696   4.610   4.622  12.395  0.1203 -0.1302  0.0272
 2759SOL    HW123697   4.555   4.698  12.379  0.9548  0.4451 -0.1699
 2759SOL    HW223698   4.610   4.573  12.313  1.9935  1.2449 -0.8473
 2760SOL     OW23699   4.360   3.782   0.942  0.1095  0.2416 -0.3640
 2760SOL    HW123700   4.350   3.717   0.872 -0.1580 -1.4193  1.1601
 2760SOL    HW223701   4.448   3.767   0.976 -0.0382  0.5161  0.1500
 2761SOL     OW23702   5.124   0.236  10.652 -0.2748 -0.5920 -0.4086
 2761SOL    HW123703   5.215   0.244  10.680 -0.3948  0.5080 -0.2907
 2761SOL    HW223704   5.074   0.280  10.721 -0.9993 -2.2293  0.1133
 2762SOL     OW23705   5.059   4.592   3.026 -0.2087  0.0911 -0.0969
 2762SOL    HW123706   5.026   4.628   2.944  2.4779  0.2959 -1.1386
 2762SOL    HW223707   5.074   4.500   3.007  0.2060  0.0902  0.2347
 2763SOL     OW23708   1.616   1.571  11.911  0.1623  0.0896  0.0073
 2763SOL    HW123709   1.631   1.481  11.883 -0.6693  0.2245 -0.8952
 2763SOL    HW223710   1.523   1.574  11.933  0.5514  0.2848  1.7423
 2764SOL     OW23711   3.640   5.905  11.308 -0.6662  0.1126  0.2072
 2764SOL    HW123712   3.725   5.898  11.264  0.0883  0.2546  1.6275
 2764SOL    HW223713   3.603   5.817  11.303 -0.9503  0.2921 -1.3883
 2765SOL     OW23714   4.812   0.380  11.323  0.0258 -0.8844 -0.3628
 2765SOL    HW123715   4.847   0.379  11.412  1.3175  0.2946 -0.8453
 2765SOL    HW223716   4.758   0.458  11.318 -0.2821 -1.1037 -0.5316
 2766SOL     OW23717   2.974   4.367  11.778 -0.0329  0.3589  0.0101
 2766SOL    HW123718   3.050   4.400  11.730 -0.1595 -0.2548 -0.6231
 2766SOL    HW223719   2.967   4.275  11.752  0.0402 -0.0514  1.4002
 2767SOL     OW23720   4.413  -0.002   0.927 -0.2788 -0.2807 -0.1191
 2767SOL    HW123721   4.413   0.028   0.836  0.8749 -0.3059 -0.1314
 2767SOL    HW223722   4.320  -0.006   0.951 -0.5365  0.8281 -0.9235
 2768SOL     OW23723   5.487   3.116   8.180 -0.5147  0.2415 -0.4800
 2768SOL    HW123724   5.582   3.110   8.167 -0.8014 -1.2964 -1.9296
 2768SOL    HW223725   5.472   3.209   8.200  1.4256  0.2825  0.9754
 2769SOL     OW23726   0.565   4.937  10.371  0.2134  0.4328  0.4617
 2769SOL    HW123727   0.580   4.843  10.367 -0.1126  0.4236 -1.0669
 2769SOL    HW223728   0.472   4.947  10.347  0.4765  1.1928 -0.2777
 2770SOL     OW23729   1.236   0.452   1.252 -0.2476  0.9729 -0.8560
 2770SOL    HW123730   1.267   0.535   1.290  0.1889  0.9971 -1.2549
 2770SOL    HW223731   1.195   0.406   1.325  1.3013  0.6715 -0.1585
 2771SOL     OW23732   2.544   2.475  11.028 -0.2485 -0.5215  0.1522
 2771SOL    HW123733   2.627   2.498  10.986 -0.7190  1.3061  0.2087
 2771SOL    HW223734   2.562   2.481  11.122  0.6628 -4.1097  0.2661
 2772SOL     OW23735   4.663   2.295   1.423  0.3640 -0.0761 -0.1305
 2772SOL    HW123736   4.615   2.245   1.490  0.2628  0.2429  0.0401
 2772SOL    HW223737   4.733   2.237   1.395 -0.9850 -1.1125 -1.4279
 2773SOL     OW23738   3.824   3.519   8.920  0.3206 -0.0189  0.5832
 2773SOL    HW123739   3.917   3.529   8.898  0.1008 -0.1230 -0.4056
 2773SOL    HW223740   3.777   3.560   8.848 -0.4454 -2.0256 -0.1041
 2774SOL     OW23741   4.881   3.199  11.496 -0.0188  0.0431  0.3352
 2774SOL    HW123742   4.792   3.221  11.523 -0.3840 -1.5807  0.5549
 2774SOL    HW223743   4.870   3.159  11.410  0.7093  1.5046 -0.4482
 2775SOL     OW23744   4.614   0.848  11.420  0.1714  0.3396  0.2446
 2775SOL    HW123745   4.683   0.821  11.481 -0.0758 -1.3591 -0.1804
 2775SOL    HW223746   4.647   0.928  11.380  1.3606  0.2123  0.9377
 2776SOL     OW23747   0.278   2.937   1.276  0.1511  0.3291 -0.4545
 2776SOL    HW123748   0.204   2.879   1.292 -0.0893  0.9610  0.8154
 2776SOL    HW223749   0.354   2.880   1.273  0.1978  0.1209  2.9265
 2777SOL     OW23750   4.555   1.685   1.453 -0.2124 -0.0919  0.1592
 2777SOL    HW123751   4.520   1.661   1.367  1.5324 -0.8888 -0.3437
 2777SOL    HW223752   4.541   1.607   1.507  0.8297 -0.4286 -0.0557
 2778SOL     OW23753   1.543   4.263   2.468  0.1574  0.3014 -0.0696
 2778SOL    HW123754   1.455   4.250   2.434 -0.4601  1.8609  0.8269
 2778SOL    HW223755   1.569   4.178   2.502 -1.8195  0.2353  1.4380
 2779SOL     OW23756   4.252   0.624   0.858 -0.1815  0.0766 -0.1099
 2779SOL    HW123757   4.300   0.645   0.938  1.4970 -2.6884 -0.3245
 2779SOL    HW223758   4.168   0.588   0.888  0.3290 -0.6885  0.4154
 2780SOL     OW23759   4.318   2.290   3.282  0.1673  0.6784  0.1147
 2780SOL    HW123760   4.319   2.195   3.298  0.1268  0.5839 -0.4564
 2780SOL    HW223761   4.271   2.325   3.358 -2.1431 -0.0109 -0.9682
 2781SOL     OW23762   1.107   1.321  10.101  0.0587  0.2760  0.0237
 2781SOL    HW123763   1.141   1.270  10.027 -0.0967 -0.1461  0.2423
 2781SOL    HW223764   1.172   1.310  10.170  0.5832  1.2922 -0.3015
 2782SOL     OW23765   0.027   5.588   8.821  0.5047 -0.0401 -0.7656
 2782SOL    HW123766   0.081   5.582   8.741  0.0810  1.1884 -1.1550
 2782SOL    HW223767  -0.050   5.638   8.794 -0.9969 -2.0202 -0.2804
 2783SOL     OW23768   2.054   1.598   1.443  0.6316  0.1944 -0.6987
 2783SOL    HW123769   2.019   1.584   1.531 -3.4471  0.1442 -2.2548
 2783SOL    HW223770   2.074   1.691   1.440 -1.6041  0.7073 -0.4975
 2784SOL     OW23771   0.881   0.969  11.319 -0.2448 -0.0345 -0.9436
 2784SOL    HW123772   0.966   0.927  11.311 -0.6078 -1.6285  2.6126
 2784SOL    HW223773   0.890   1.028  11.394 -2.6835 -1.5300  0.6184
 2785SOL     OW23774   1.478   3.003   1.980  0.2715 -0.2153  0.6800
 2785SOL    HW123775   1.508   2.974   2.066 -1.3306 -1.8490  0.7207
 2785SOL    HW223776   1.403   3.059   1.998  0.8234  0.6186  0.4075
 2786SOL     OW23777   2.416   2.003   1.804  0.0999 -0.4611  0.2569
 2786SOL    HW123778   2.383   2.087   1.773 -0.7178 -0.0882  2.0633
 2786SOL    HW223779   2.511   2.010   1.795  0.0587  0.8002  0.7262
 2787SOL     OW23780   3.934   2.620   3.128  0.2344  0.0998  0.8809
 2787SOL    HW123781   3.978   2.598   3.210  1.2627  1.5540  0.7483
 2787SOL    HW223782   3.936   2.716   3.125 -0.6197  0.0886 -0.3998
 2788SOL     OW23783   2.473   2.957   8.888  0.8368  0.1555  0.3744
 2788SOL    HW123784   2.409   3.025   8.909 -0.2708 -0.8481  0.3281
 2788SOL    HW223785   2.509   2.930   8.972  0.5476  0.1100  0.4856
 2789SOL     OW23786   1.576   0.587   3.144  0.0852  0.0897 -0.0807
 2789SOL    HW123787   1.644   0.582   3.211  1.2242  0.1924 -1.1877
 2789SOL    HW223788   1.590   0.673   3.104 -1.2761  0.4806  0.2663
 2790SOL     OW23789   4.177   0.501   0.416 -0.6357 -0.9153 -0.4162
 2790SOL    HW123790   4.265   0.464   0.417  0.8344  2.3504  0.0313
 2790SOL    HW223791   4.162   0.524   0.324  0.4209  1.6154  0.0029
 2791SOL     OW23792   1.568   0.185   1.073 -0.0129 -0.6250  0.0674
 2791SOL    HW123793   1.607   0.266   1.107 -0.7823 -0.8196  1.4467
 2791SOL    HW223794   1.642   0.125   1.063  0.5324  0.1789 -0.7524
 2792SOL     OW23795   3.437   0.291   1.529 -0.8245  0.4050 -0.3277
 2792SOL    HW123796   3.528   0.275   1.506 -1.1412 -1.9968 -0.0217
 2792SOL    HW223797   3.441   0.360   1.596  0.6927  0.8396 -0.8476
 2793SOL     OW23798   1.727   4.682   0.094  0.5971 -0.1745 -0.2115
 2793SOL    HW123799   1.635   4.678   0.067 -0.1648  0.1113  2.2473
 2793SOL    HW223800   1.776   4.684   0.012 -1.5304 -1.5626 -1.5611
 2794SOL     OW23801   1.771   5.601  11.874 -0.1633  0.0413 -0.2502
 2794SOL    HW123802   1.825   5.623  11.798 -0.5207  1.5010 -0.1101
 2794SOL    HW223803   1.797   5.512  11.897  1.1479  0.1937 -1.0567
 2795SOL     OW23804   3.308   2.987   2.940 -0.4973  0.5646 -0.0320
 2795SOL    HW123805   3.388   2.959   2.896  0.0046 -0.0963  1.2626
 2795SOL    HW223806   3.239   2.931   2.903 -0.1183  0.1544 -0.1263
 2796SOL     OW23807   2.240   4.581   1.059  0.2996 -0.3676  0.2202
 2796SOL    HW123808   2.201   4.653   1.009  0.9322  0.7929  1.3551
 2796SOL    HW223809   2.239   4.507   0.999  2.2709  1.3124 -1.9932
 2797SOL     OW23810   2.958   2.485  10.199 -0.4254 -0.0094  0.6536
 2797SOL    HW123811   2.904   2.530  10.134  1.8147  1.6538 -0.1216
 2797SOL    HW223812   2.897   2.431  10.248 -2.7705  1.8006 -0.2073
 2798SOL     OW23813   4.622   2.725   8.367  1.0697 -0.2745 -0.0381
 2798SOL    HW123814   4.612   2.813   8.330 -0.6082 -0.4877 -0.1205
 2798SOL    HW223815   4.605   2.736   8.460  1.4885 -0.3976  0.0512
 2799SOL     OW23816   1.668   5.492   0.518 -0.4827  0.2343  0.4311
 2799SOL    HW123817   1.717   5.554   0.464  1.2410 -0.6245  0.9657
 2799SOL    HW223818   1.659   5.536   0.602 -0.9008  0.5256  0.2325
 2800SOL     OW23819   5.463   1.665  12.498 -0.1906 -0.2967 -0.6289
 2800SOL    HW123820   5.393   1.611  12.463  1.4249 -3.4243  0.7800
 2800SOL    HW223821   5.519   1.684  12.423 -1.7362  1.0003 -1.4786
 2801SOL     OW23822   1.788   4.697   0.744  0.5271 -0.4326  0.7947
 2801SOL    HW123823   1.827   4.730   0.825  0.5953  1.1279  0.1377
 2801SOL    HW223824   1.860   4.653   0.699  1.8088  3.2397 -0.8504
 2802SOL     OW23825   0.921   5.421   8.889 -0.2643 -0.8526 -0.1680
 2802SOL    HW123826   0.939   5.394   8.979  1.4774 -1.1011 -0.5727
 2802SOL    HW223827   0.960   5.353   8.834  1.8165  1.0247 -1.1484
 2803SOL     OW23828   4.519   5.020   0.512  0.2830  0.3109 -0.5130
 2803SOL    HW123829   4.524   5.029   0.417  0.5775  0.0502 -0.5228
 2803SOL    HW223830   4.487   4.931   0.526 -0.1550  0.4862 -0.3730
 2804SOL     OW23831   4.624   2.131   0.060 -0.1913  0.1449 -0.0784
 2804SOL    HW123832   4.652   2.219   0.033 -2.0395  0.4060 -1.1906
 2804SOL    HW223833   4.544   2.115   0.010  0.3936 -2.3798 -0.2670
 2805SOL     OW23834   1.618   4.428   9.670 -0.8138 -0.1073 -0.0402
 2805SOL    HW123835   1.612   4.483   9.592  1.5150 -0.2389 -0.3546
 2805SOL    HW223836   1.654   4.485   9.738  0.8805 -1.0114 -0.1570
 2806SOL     OW23837   1.287   4.495   9.060  0.2290  0.1984  0.0092
 2806SOL    HW123838   1.263   4.561   8.995 -1.2271  0.3148  0.6331
 2806SOL    HW223839   1.378   4.473   9.040  0.2035  1.1686 -1.2497
 2807SOL     OW23840   1.330   5.004  10.441 -0.3713 -0.6480  0.1027
 2807SOL    HW123841   1.236   5.021  10.440 -0.1063  0.8889 -0.0341
 2807SOL    HW223842   1.365   5.055  10.368  0.7976  0.2494  1.2540
 2808SOL     OW23843   0.557   1.778   2.535 -0.1609 -0.8899  0.7649
 2808SOL    HW123844   0.471   1.803   2.500 -0.1752 -0.3418  1.1785
 2808SOL    HW223845   0.614   1.774   2.458  0.2133  1.9994  0.8456
 2809SOL     OW23846   1.792   0.023   0.925  0.3799  0.4182  0.3673
 2809SOL    HW123847   1.725  -0.037   0.956  2.6812 -2.2070  0.4891
 2809SOL    HW223848   1.850   0.036   1.000  0.2456  2.3452  0.1690
 2810SOL     OW23849   0.542   2.847   1.298  0.4482  0.0578  0.0190
 2810SOL    HW123850   0.561   2.876   1.387  0.9355 -1.9518  0.5781
 2810SOL    HW223851   0.552   2.926   1.244  0.0417  1.3016  1.7471
 2811SOL     OW23852   5.339   1.840  11.251 -0.4167 -0.2964 -0.1498
 2811SOL    HW123853   5.285   1.771  11.290 -0.2765  0.8114  2.1502
 2811SOL    HW223854   5.278   1.890  11.197 -0.7985 -1.4373 -0.7987
 2812SOL     OW23855   0.597   5.307   8.257 -0.2776 -0.6065  0.6647
 2812SOL    HW123856   0.602   5.224   8.210  3.1460  0.1664 -0.4289
 2812SOL    HW223857   0.624   5.373   8.194 -1.4837  1.1911  1.9682
 2813SOL     OW23858   2.176   3.283  10.310  0.4683 -0.0750 -0.6800
 2813SOL    HW123859   2.185   3.290  10.215  1.2541 -1.8859 -0.7692
 2813SOL    HW223860   2.224   3.358  10.345  0.0223  0.6954 -1.7214
 2814SOL     OW23861   2.099   1.963  12.124 -0.2778 -0.3583 -0.0874
 2814SOL    HW123862   2.038   2.023  12.082 -2.1973 -0.7566  2.0067
 2814SOL    HW223863   2.171   2.018  12.154 -1.8079  0.8606  1.4133
 2815SOL     OW23864   0.666   0.250   2.997 -0.7660 -0.3367  0.0587
 2815SOL    HW123865   0.619   0.322   2.956  1.4012 -0.0372 -2.0406
 2815SOL    HW223866   0.663   0.179   2.932 -1.3244 -1.5124  1.3449
 2816SOL     OW23867   0.584   0.621   3.520 -0.0667  0.5109  0.4299
 2816SOL    HW123868   0.497   0.632   3.482 -0.0460 -0.0714  0.2151
 2816SOL    HW223869   0.588   0.528   3.544  0.4554  0.5628  0.5384
 2817SOL     OW23870   3.054   0.784   8.549 -0.1696 -0.2200  0.4417
 2817SOL    HW123871   2.982   0.841   8.576 -0.1801  0.3321 -0.7473
 2817SOL    HW223872   3.110   0.779   8.626 -1.8906 -1.3484  1.6890
 2818SOL     OW23873   4.930   0.101  10.514  0.3880 -0.2536 -0.6342
 2818SOL    HW123874   4.934   0.010  10.543 -1.4372 -0.0716  0.2700
 2818SOL    HW223875   4.978   0.150  10.581 -0.4473 -0.3119  0.0194
 2819SOL     OW23876   0.992   0.351   9.082 -0.2602  0.1604  0.6036
 2819SOL    HW123877   0.915   0.369   9.029  0.3585 -0.6263 -0.5927
 2819SOL    HW223878   0.958   0.308   9.161 -0.8202 -2.8520 -1.2169
 2820SOL     OW23879   2.909   5.820  11.512  0.2095  0.0517 -0.6799
 2820SOL    HW123880   2.905   5.725  11.523  0.8011  0.1938  0.9953
 2820SOL    HW223881   2.952   5.833  11.428  0.8157 -1.1708 -0.5751
 2821SOL     OW23882   2.797   1.451   2.068  0.1528 -0.1017  0.3135
 2821SOL    HW123883   2.874   1.414   2.112  0.1756  2.0228  2.1709
 2821SOL    HW223884   2.728   1.448   2.135 -0.2768  1.6715 -0.0342
 2822SOL     OW23885   1.690   1.841  10.698 -0.2363  0.1139  0.3938
 2822SOL    HW123886   1.670   1.818  10.788  1.2335  0.6370  0.8659
 2822SOL    HW223887   1.693   1.937  10.697 -0.0853  0.1075 -0.1701
 2823SOL     OW23888   5.906   2.002   0.229 -0.1683 -0.4567  0.2701
 2823SOL    HW123889   5.900   2.067   0.299 -1.0045 -1.3609  1.0487
 2823SOL    HW223890   5.815   1.977   0.212 -0.0878  0.6407 -2.0009
 2824SOL     OW23891   3.187   3.782  11.960  0.0829  0.0845  0.5626
 2824SOL    HW123892   3.282   3.795  11.960  0.3126 -1.4719  1.7648
 2824SOL    HW223893   3.159   3.818  11.875  1.6380  1.1714  0.4753
 2825SOL     OW23894   5.463   0.976   2.027 -0.8319  0.4374 -0.7601
 2825SOL    HW123895   5.537   0.935   2.071 -1.4440  0.3189  0.1501
 2825SOL    HW223896   5.465   0.939   1.938 -1.9101 -2.2572  0.2868
 2826SOL     OW23897   2.914   5.194  10.091  0.0866 -0.2984 -0.2602
 2826SOL    HW123898   2.999   5.167  10.127  0.0809  0.7579  0.5887
 2826SOL    HW223899   2.937   5.255  10.021  0.0302  0.8588  0.6996
 2827SOL     OW23900   5.145   2.816   2.606  0.2162  0.0831  0.3510
 2827SOL    HW123901   5.131   2.742   2.665  0.4604 -1.0378 -0.9596
 2827SOL    HW223902   5.197   2.878   2.657 -0.0273 -0.6237  1.4861
 2828SOL     OW23903   5.330   5.243   2.066 -0.1031  0.3066 -0.4452
 2828SOL    HW123904   5.310   5.303   1.994 -1.7199  0.7432  0.3432
 2828SOL    HW223905   5.315   5.156   2.030 -0.0565  0.4798 -0.8897
 2829SOL     OW23906   0.171   4.613   3.740  0.1741 -0.6067  0.4770
 2829SOL    HW123907   0.250   4.667   3.734  0.0883 -0.5656 -0.4221
 2829SOL    HW223908   0.103   4.673   3.772  0.2637 -0.3853  0.2517
 2830SOL     OW23909   4.209   4.951  10.829  0.5334  0.4371  0.5298
 2830SOL    HW123910   4.271   4.880  10.846  0.4423  0.6222  1.6306
 2830SOL    HW223911   4.192   4.990  10.915 -1.1399  0.3628  0.2511
 2831SOL     OW23912   3.198   1.074   3.688 -0.2740 -0.2192  0.0090
 2831SOL    HW123913   3.136   1.048   3.756  0.8859  1.7910  1.8640
 2831SOL    HW223914   3.254   0.997   3.678 -0.6750 -0.6634  1.0371
 2832SOL     OW23915   4.479   0.550   3.581 -0.0775  0.5729  0.0171
 2832SOL    HW123916   4.543   0.618   3.602  1.1239  0.1076 -2.0441
 2832SOL    HW223917   4.528   0.468   3.583 -1.0940 -0.0395  0.5707
 2833SOL     OW23918   4.539   5.678   9.107  0.1706  0.3249 -0.3597
 2833SOL    HW123919   4.597   5.685   9.031  1.1699  2.0204  0.5243
 2833SOL    HW223920   4.452   5.694   9.072  0.5046  0.1445 -1.3035
 2834SOL     OW23921   4.083   3.224   2.051  0.3938 -0.2445 -0.3309
 2834SOL    HW123922   4.176   3.232   2.028  0.0516  1.5630 -1.2508
 2834SOL    HW223923   4.054   3.315   2.063 -1.3616 -0.7564 -0.5536
 2835SOL     OW23924   1.558   0.614   7.952 -0.2032 -0.4540 -0.0360
 2835SOL    HW123925   1.619   0.566   7.896 -0.6457 -0.4300 -0.5490
 2835SOL    HW223926   1.528   0.550   8.016  0.7396 -0.3374  0.5326
 2836SOL     OW23927   2.563   3.734   8.274 -0.6017 -0.0551  0.5094
 2836SOL    HW123928   2.473   3.762   8.291 -0.5562  0.1364  0.4377
 2836SOL    HW223929   2.558   3.683   8.193 -0.7896 -0.7999  0.9807
 2837SOL     OW23930   3.367   4.044   3.460  0.0232  0.1136 -0.3637
 2837SOL    HW123931   3.396   3.953   3.458 -0.8225 -0.2678  2.5208
 2837SOL    HW223932   3.292   4.044   3.519 -0.8040  2.4786 -1.3500
 2838SOL     OW23933   3.699   4.581   8.359 -0.1949  0.2699 -0.4607
 2838SOL    HW123934   3.734   4.666   8.387  1.2239 -0.3554 -0.2829
 2838SOL    HW223935   3.766   4.546   8.301 -0.5400 -0.9532 -0.1203
 2839SOL     OW23936   0.837   0.169   2.623 -0.5812 -0.2719 -0.6856
 2839SOL    HW123937   0.872   0.170   2.534 -1.8351 -2.7757 -1.2576
 2839SOL    HW223938   0.814   0.261   2.640 -2.0799 -0.0175 -3.6855
 2840SOL     OW23939   1.314   0.707  10.407 -0.2084 -0.4114 -0.2822
 2840SOL    HW123940   1.245   0.772  10.398 -1.6887 -1.7611  0.9739
 2840SOL    HW223941   1.329   0.701  10.502 -0.2719 -2.0452 -0.3559
 2841SOL     OW23942   4.162   4.382  10.162  0.0067 -0.0628  0.3244
 2841SOL    HW123943   4.105   4.386  10.239  0.1886 -0.6560  0.4946
 2841SOL    HW223944   4.102   4.385  10.088 -0.0906  1.9933  0.4528
 2842SOL     OW23945   2.288   0.581   3.637 -0.1988  0.0013  0.6309
 2842SOL    HW123946   2.329   0.649   3.584 -0.7942  0.1815  0.3995
 2842SOL    HW223947   2.304   0.500   3.588  0.5944 -0.0404  0.9561
 2843SOL     OW23948   0.864   5.675   3.306  0.7208 -0.2756 -0.2378
 2843SOL    HW123949   0.900   5.661   3.393  0.7919  0.1007 -0.2017
 2843SOL    HW223950   0.792   5.737   3.320  1.9640  1.3145 -0.6849
 2844SOL     OW23951   2.790   3.643   3.252  0.3437  0.5014 -0.2228
 2844SOL    HW123952   2.738   3.696   3.313  0.7142 -0.0370  0.5744
 2844SOL    HW223953   2.732   3.628   3.178 -0.4760  0.3437  0.4330
 2845SOL     OW23954   2.326   4.533   4.116  0.2817 -0.4194  0.6651
 2845SOL    HW123955   2.405   4.562   4.163  0.3136  0.4154  0.1065
 2845SOL    HW223956   2.359   4.478   4.046  0.3399 -0.4551  0.7201
 2846SOL     OW23957   3.220   0.471   0.967  0.1890 -0.0963  0.2847
 2846SOL    HW123958   3.127   0.452   0.974  0.3617 -0.8067  0.7012
 2846SOL    HW223959   3.261   0.416   1.034  1.0592 -0.9406 -0.9202
 2847SOL     OW23960   5.569   1.671  10.869  0.0739 -0.4280  0.1632
 2847SOL    HW123961   5.505   1.742  10.877 -0.0161 -0.5952  0.9484
 2847SOL    HW223962   5.565   1.646  10.777 -1.2001 -0.6330  0.2668
 2848SOL     OW23963   3.557   4.282  12.144  0.2660 -0.0916  0.2947
 2848SOL    HW123964   3.616   4.226  12.093  0.8137  0.4123  0.3753
 2848SOL    HW223965   3.477   4.286  12.091  1.1359  1.1339 -0.9490
 2849SOL     OW23966   4.227   5.080   1.503 -0.5686  0.4641  0.1898
 2849SOL    HW123967   4.313   5.117   1.484 -0.0618 -0.3916  0.7923
 2849SOL    HW223968   4.191   5.135   1.572 -0.1431  0.3134  0.5353
 2850SOL     OW23969   3.620   5.820   1.524  0.1564  0.3696 -0.4908
 2850SOL    HW123970   3.667   5.740   1.548  0.2926  1.1791  2.0928
 2850SOL    HW223971   3.559   5.792   1.456  0.1777 -1.9562  0.3843
 2851SOL     OW23972   4.222   4.501   2.325 -0.4444  0.8792  0.1793
 2851SOL    HW123973   4.195   4.585   2.289 -2.1362  0.3134  0.0458
 2851SOL    HW223974   4.281   4.523   2.397 -0.2965  2.1503 -0.3233
 2852SOL     OW23975   2.057   0.889   1.741  0.2661  0.7038  0.3562
 2852SOL    HW123976   2.127   0.930   1.689 -1.9068  1.7905 -1.8431
 2852SOL    HW223977   2.065   0.796   1.720  0.9014  0.8417 -0.0711
 2853SOL     OW23978   0.629   1.322   9.412 -0.8067 -0.6512 -0.5041
 2853SOL    HW123979   0.697   1.374   9.368 -1.1094  1.3839  1.3356
 2853SOL    HW223980   0.654   1.232   9.395  1.1910  0.0701 -1.6541
 2854SOL     OW23981   4.112   4.948   0.826  0.2896  0.3031 -0.1719
 2854SOL    HW123982   4.029   4.958   0.871  0.3883  2.1849 -0.3519
 2854SOL    HW223983   4.093   4.969   0.734  0.6391 -0.8161 -0.5071
 2855SOL     OW23984   5.405   2.942   9.885  0.3897 -0.0715  0.0124
 2855SOL    HW123985   5.314   2.913   9.883  0.9321 -1.9028  0.3769
 2855SOL    HW223986   5.405   3.022   9.938 -1.0419  0.1046 -0.2515
 2856SOL     OW23987   3.804   3.833  10.636  0.4445 -0.4567  0.0949
 2856SOL    HW123988   3.816   3.842  10.542  1.5752 -3.0455 -0.0625
 2856SOL    HW223989   3.892   3.842  10.672  0.5862 -3.1528  0.5248
 2857SOL     OW23990   5.197   5.961   2.871 -0.4798 -0.3293  0.1942
 2857SOL    HW123991   5.117   5.973   2.820  1.8701 -3.3273 -4.4777
 2857SOL    HW223992   5.192   5.871   2.904  0.7239 -0.3581  0.3298
 2858SOL     OW23993   0.097   3.481   0.187 -0.4156 -0.4240  0.0139
 2858SOL    HW123994   0.149   3.490   0.267 -0.7906  1.1423  0.1045
 2858SOL    HW223995   0.097   3.569   0.149 -0.8600 -0.9924 -1.3267
 2859SOL     OW23996   1.920   2.891  10.876 -0.0767  0.5624  0.6028
 2859SOL    HW123997   1.840   2.917  10.830 -0.1705  1.0934  1.0585
 2859SOL    HW223998   1.896   2.810  10.920  0.4650 -0.7882 -1.5082
 2860SOL     OW23999   4.995   5.939   8.774  0.1066 -0.5789 -0.7203
 2860SOL    HW124000   5.048   5.875   8.822  1.8872 -0.4378 -2.4298
 2860SOL    HW224001   5.022   6.023   8.811  0.4259 -0.5670 -0.9784
 2861SOL     OW24002   3.960   0.318  11.900 -0.1481 -0.0835 -0.4078
 2861SOL    HW124003   3.866   0.313  11.920 -0.2908 -1.5240 -1.3783
 2861SOL    HW224004   3.976   0.412  11.888 -1.5440  0.1570 -0.5611
 2862SOL     OW24005   5.800   5.977   9.412 -0.8161  0.5071  0.4848
 2862SOL    HW124006   5.729   5.920   9.382 -0.9685 -0.3065  2.3380
 2862SOL    HW224007   5.854   5.922   9.467  0.6932  1.4082 -0.0620
 2863SOL     OW24008   4.322   3.072   8.716 -0.6711 -0.3766  0.0113
 2863SOL    HW124009   4.389   3.088   8.650 -1.5013  0.7000 -0.5933
 2863SOL    HW224010   4.284   3.159   8.733 -1.8615 -0.9556  0.3823
 2864SOL     OW24011   5.638   0.083   9.779 -0.0317  0.8824 -0.2117
 2864SOL    HW124012   5.586   0.122   9.708  0.4823 -1.1264 -1.7524
 2864SOL    HW224013   5.693   0.154   9.810  0.6839  1.4911 -2.7320
 2865SOL     OW24014   3.434   1.494   9.719 -0.0825  0.2675 -0.5573
 2865SOL    HW124015   3.502   1.510   9.785  1.3310 -0.5818 -1.7764
 2865SOL    HW224016   3.393   1.413   9.747  2.2197 -1.4772 -2.0656
 2866SOL     OW24017   1.812   0.093   3.266  0.0118 -0.2383  0.1421
 2866SOL    HW124018   1.830   0.051   3.182 -0.0432  0.5149 -0.2531
 2866SOL    HW224019   1.786   0.021   3.324  0.0404 -0.7601 -0.4843
 2867SOL     OW24020   0.343   3.858   1.442  0.6519  0.1654  0.3799
 2867SOL    HW124021   0.317   3.803   1.515 -0.5391 -0.1691 -0.2847
 2867SOL    HW224022   0.267   3.915   1.427  2.1175  2.4804  1.5159
 2868SOL     OW24023   3.914   2.122   2.647  0.1736  0.6062  1.0015
 2868SOL    HW124024   3.824   2.139   2.618  0.9308 -0.8467 -2.5689
 2868SOL    HW224025   3.905   2.078   2.731 -2.4043  1.2494  1.1026
 2869SOL     OW24026   3.007   3.804   9.452  0.0087 -0.3927  0.0089
 2869SOL    HW124027   2.995   3.898   9.465 -2.7372 -0.8222  0.7727
 2869SOL    HW224028   3.052   3.798   9.367 -0.8301  1.5525 -0.6108
 2870SOL     OW24029   1.863   5.288   3.767 -0.3636  0.0751  0.6214
 2870SOL    HW124030   1.836   5.199   3.745 -0.1952 -0.7228  3.4139
 2870SOL    HW224031   1.799   5.344   3.724 -1.2685 -1.4467 -0.0560
 2871SOL     OW24032   2.563   0.707   9.386  0.6505 -0.3095 -0.3094
 2871SOL    HW124033   2.624   0.666   9.324 -1.3850 -0.4026 -2.3394
 2871SOL    HW224034   2.542   0.638   9.448  2.2488 -0.4027  0.1555
 2872SOL     OW24035   0.799   5.867   1.579 -0.3450  0.5105  0.0088
 2872SOL    HW124036   0.832   5.931   1.516 -0.4288  0.5564  0.0115
 2872SOL    HW224037   0.744   5.809   1.527 -0.8093  0.8391  0.1344
 2873SOL     OW24038   4.608   4.908   1.544 -0.1585  0.1043  0.4369
 2873SOL    HW124039   4.583   4.895   1.635  0.1939 -0.6297  0.4318
 2873SOL    HW224040   4.566   4.836   1.497 -0.0197  0.2577  0.0710
 2874SOL     OW24041   3.137   5.808  10.698  0.1265  0.4551  0.1079
 2874SOL    HW124042   3.058   5.773  10.657  1.1627  0.5312 -2.0517
 2874SOL    HW224043   3.146   5.760  10.779 -1.9147  0.1636  0.1882
 2875SOL     OW24044   5.703   2.040   9.543  0.0644 -0.4423  0.0117
 2875SOL    HW124045   5.744   2.091   9.474  0.0351  1.5049  1.3946
 2875SOL    HW224046   5.611   2.035   9.517 -0.4265  2.2720  0.9922
 2876SOL     OW24047   2.992   3.842   7.860 -0.1092  0.0690  0.7539
 2876SOL    HW124048   2.947   3.920   7.892 -0.4956 -0.3207  1.1857
 2876SOL    HW224049   2.981   3.845   7.765 -3.2467 -1.2951  0.9861
 2877SOL     OW24050   2.174   4.399  12.251 -0.7136  0.0188  0.2426
 2877SOL    HW124051   2.246   4.340  12.229 -1.8853 -1.4747  0.3220
 2877SOL    HW224052   2.179   4.409  12.346 -0.7293 -0.2437  0.2713
 2878SOL     OW24053   1.383   1.112   3.694 -0.5885  0.0212 -0.0422
 2878SOL    HW124054   1.475   1.101   3.670 -0.2115  0.7423  1.0467
 2878SOL    HW224055   1.356   1.027   3.727  0.1329  0.2249  1.1012
 2879SOL     OW24056   2.019   0.633  11.248 -0.0947 -0.4272 -0.2645
 2879SOL    HW124057   1.945   0.578  11.223 -1.2665  1.2342 -0.5895
 2879SOL    HW224058   2.087   0.572  11.277 -1.6285 -1.9812  0.1277
 2880SOL     OW24059   5.281   5.122   3.725  0.5427  0.3246  0.7893
 2880SOL    HW124060   5.325   5.205   3.741  0.4192  0.1952  1.8758
 2880SOL    HW224061   5.199   5.129   3.775  0.8843 -0.7491  1.5097
 2881SOL     OW24062   5.628   2.862   8.905 -0.5019 -0.1198 -0.1333
 2881SOL    HW124063   5.713   2.872   8.862 -1.3897  0.9988 -1.6577
 2881SOL    HW224064   5.567   2.913   8.851 -2.1948 -1.1232  0.7876
 2882SOL     OW24065   0.022   3.471   9.281  0.1088 -0.3425  0.5827
 2882SOL    HW124066   0.068   3.387   9.290  0.5881 -0.0691  0.6688
 2882SOL    HW224067   0.035   3.495   9.189 -1.1585 -1.0171  0.2061
 2883SOL     OW24068   5.420   1.057   0.796  0.3275  0.3374  0.7144
 2883SOL    HW124069   5.479   0.983   0.785 -1.3707 -0.5694 -2.8411
 2883SOL    HW224070   5.478   1.132   0.810  2.1607 -1.1044  1.0245
 2884SOL     OW24071   2.508   2.968   0.728  0.2779 -0.4422 -0.5665
 2884SOL    HW124072   2.539   2.878   0.717  1.1549 -0.2161  0.0499
 2884SOL    HW224073   2.477   2.972   0.818 -0.4691 -0.3316 -0.8218
 2885SOL     OW24074   5.715   3.259  10.893 -0.0450  0.6681 -0.5253
 2885SOL    HW124075   5.805   3.284  10.875  0.7944 -0.1762  2.2174
 2885SOL    HW224076   5.712   3.165  10.875 -0.6190  0.8433 -1.3997
 2886SOL     OW24077   4.327   0.845  11.467 -0.0037  0.7476 -0.3408
 2886SOL    HW124078   4.416   0.841  11.433  0.3282 -0.9940  0.6769
 2886SOL    HW224079   4.273   0.812  11.396  0.3248  0.3770 -0.4232
 2887SOL     OW24080   5.753   1.592  11.754  0.5077 -0.3215  0.3789
 2887SOL    HW124081   5.758   1.561  11.664 -0.6303 -0.4815  0.3554
 2887SOL    HW224082   5.801   1.674  11.754 -1.4169  0.8533 -0.9138
 2888SOL     OW24083   1.083   4.847   1.312 -0.2076  0.3923  0.8413
 2888SOL    HW124084   1.074   4.918   1.375 -0.9227  1.3525 -0.3164
 2888SOL    HW224085   1.157   4.873   1.256 -0.4065  0.1881  0.4791
 2889SOL     OW24086   2.554   4.866   3.557  0.4071  0.3801  0.1874
 2889SOL    HW124087   2.620   4.893   3.621  0.0578  0.6930  0.4229
 2889SOL    HW224088   2.528   4.948   3.514  1.2169  0.0670 -0.9186
 2890SOL     OW24089   2.596   3.003   2.541 -0.5782  0.4034  0.1860
 2890SOL    HW124090   2.555   2.941   2.601 -0.1456 -0.8041 -0.7220
 2890SOL    HW224091   2.628   3.074   2.597 -1.6268  0.1112  1.1778
 2891SOL     OW24092   2.576   4.363   2.471 -0.2260  0.0642 -0.0380
 2891SOL    HW124093   2.543   4.451   2.457 -0.2861 -0.2055 -1.7003
 2891SOL    HW224094   2.659   4.375   2.517  0.8470  1.1188 -2.2001
 2892SOL     OW24095   3.741   0.758   1.385 -0.3150  0.0072 -0.1730
 2892SOL    HW124096   3.666   0.704   1.360  0.6695 -0.9833 -1.0073
 2892SOL    HW224097   3.768   0.723   1.470  0.7675 -1.3009 -1.0416
 2893SOL     OW24098   0.781   3.713   9.914 -0.0413  0.1204 -0.0465
 2893SOL    HW124099   0.756   3.712  10.006  0.9290  1.9212  0.2762
 2893SOL    HW224100   0.873   3.741   9.915 -0.7776  2.8175 -1.6757
 2894SOL     OW24101   0.807   3.317   2.412  0.1937  0.2503 -0.1258
 2894SOL    HW124102   0.712   3.317   2.398  0.0944  0.2572  0.5263
 2894SOL    HW224103   0.838   3.397   2.369  0.0204 -0.2042 -1.0983
 2895SOL     OW24104   2.066   1.824   1.720  0.1788  0.5384  0.4501
 2895SOL    HW124105   2.062   1.729   1.707  0.4308  0.5096  0.5791
 2895SOL    HW224106   2.091   1.859   1.635 -2.7596  0.7253 -0.4136
 2896SOL     OW24107   0.728   3.973   1.823 -0.1066 -0.3902 -0.2616
 2896SOL    HW124108   0.649   4.026   1.814 -0.2798 -0.0558  2.7992
 2896SOL    HW224109   0.799   4.032   1.797 -0.6949 -0.1034 -1.2311
 2897SOL     OW24110   2.124   5.144  10.598 -0.4559 -0.4881 -0.2179
 2897SOL    HW124111   2.216   5.159  10.621 -0.8319 -2.1347  2.6177
 2897SOL    HW224112   2.077   5.218  10.635 -0.4229 -0.2454 -0.6534
 2898SOL     OW24113   4.724   2.374   0.780  0.4211  0.3002 -0.1842
 2898SOL    HW124114   4.731   2.320   0.701  0.4455 -0.0934  0.0887
 2898SOL    HW224115   4.814   2.400   0.800  0.7590 -2.0253  1.4124
 2899SOL     OW24116   4.325   3.447   2.912 -0.0507 -0.8809  0.0672
 2899SOL    HW124117   4.304   3.540   2.906  0.6933 -0.6791  0.4394
 2899SOL    HW224118   4.360   3.424   2.826 -1.6915 -1.1979 -0.5227
 2900SOL     OW24119   2.116   4.888   0.784 -0.1493  0.1449  0.4662
 2900SOL    HW124120   2.041   4.841   0.822 -0.3997 -0.0313 -0.2362
 2900SOL    HW224121   2.119   4.971   0.832  1.0295 -1.0455  2.5669
 2901SOL     OW24122   1.163   1.559   9.740  0.1235  0.8126 -0.2265
 2901SOL    HW124123   1.243   1.561   9.687  0.7937  0.8922  0.7648
 2901SOL    HW224124   1.126   1.646   9.730 -0.8342  0.2354 -2.1402
 2902SOL     OW24125   5.066   5.677   3.539  0.0902  0.3941 -0.3355
 2902SOL    HW124126   4.997   5.653   3.476  0.1131 -1.0438  0.1854
 2902SOL    HW224127   5.143   5.693   3.485 -0.1886  0.2858 -0.7716
 2903SOL     OW24128   3.652   2.241   2.606  0.0722  0.1006 -0.3400
 2903SOL    HW124129   3.684   2.321   2.648  2.0673 -1.3242  0.9141
 2903SOL    HW224130   3.614   2.271   2.524 -0.8720  2.5577  0.9451
 2904SOL     OW24131   1.333   1.600   3.850 -0.1098 -0.1367  0.5759
 2904SOL    HW124132   1.279   1.637   3.780  0.9614  0.4997  0.0676
 2904SOL    HW224133   1.274   1.541   3.897 -1.1460  0.2738 -0.1794
 2905SOL     OW24134   5.249   3.383   8.909 -0.7118 -0.1792 -0.3053
 2905SOL    HW124135   5.189   3.458   8.908 -2.2720 -1.3644  1.6566
 2905SOL    HW224136   5.294   3.389   8.993 -0.4512 -1.1505 -0.3712
 2906SOL     OW24137   3.950   0.283  12.349 -0.0598  0.1307  0.0642
 2906SOL    HW124138   4.022   0.268  12.288  1.3224  1.8988  1.1971
 2906SOL    HW224139   3.970   0.368  12.390 -1.9997 -0.0498  1.4926
 2907SOL     OW24140   5.059   4.236  11.424  0.1560  0.4054 -0.2672
 2907SOL    HW124141   5.029   4.260  11.512  2.5271  0.2864  0.6187
 2907SOL    HW224142   5.120   4.306  11.400  1.6556 -1.0154 -0.6410
 2908SOL     OW24143   0.221   1.738   9.911 -0.1683 -0.0412  0.3933
 2908SOL    HW124144   0.244   1.724  10.003  0.9628 -0.2025  0.0895
 2908SOL    HW224145   0.247   1.829   9.894  0.4678 -0.3081 -0.0313
 2909SOL     OW24146   4.223   2.490   1.359  0.3592 -0.0272  0.1451
 2909SOL    HW124147   4.279   2.453   1.427  1.7041 -0.9665 -1.4324
 2909SOL    HW224148   4.172   2.558   1.404 -0.2862 -2.0121  2.5161
 2910SOL     OW24149   5.539   2.713   9.880 -0.3463 -0.1741 -0.0984
 2910SOL    HW124150   5.484   2.786   9.906 -0.9803 -0.5426 -0.3918
 2910SOL    HW224151   5.527   2.706   9.785 -0.9262 -1.1703  0.0343
 2911SOL     OW24152   4.715   0.521   2.380  0.1535  0.5449 -0.0117
 2911SOL    HW124153   4.721   0.532   2.285  0.1678  0.9355  0.0309
 2911SOL    HW224154   4.727   0.427   2.394 -0.3462  0.4114 -0.4338
 2912SOL     OW24155   5.359   2.300  12.368 -0.4090 -0.0101 -0.3966
 2912SOL    HW124156   5.308   2.227  12.333  0.3673 -0.7095 -0.0794
 2912SOL    HW224157   5.388   2.348  12.291 -1.3593  0.2721 -0.5921
 2913SOL     OW24158   5.586   5.461   9.886  0.1208  0.1545  0.1655
 2913SOL    HW124159   5.560   5.550   9.909  0.4678  0.2654  0.1332
 2913SOL    HW224160   5.607   5.465   9.793  1.2940  0.3096  0.4348
 2914SOL     OW24161   2.022   5.211   8.611 -0.5232  0.2979 -0.6697
 2914SOL    HW124162   1.997   5.120   8.628 -1.8762  1.1617  2.4063
 2914SOL    HW224163   1.951   5.262   8.649  1.3897  2.6818 -0.1979
 2915SOL     OW24164   2.813   3.186   2.032  1.1353  0.0671 -0.6701
 2915SOL    HW124165   2.906   3.184   2.008  0.5885  0.3168 -2.9270
 2915SOL    HW224166   2.812   3.170   2.126  3.3770 -1.7598 -0.9064
 2916SOL     OW24167   1.432   3.634  10.093  0.5350  0.8893  0.0139
 2916SOL    HW124168   1.371   3.641  10.019  0.9685 -0.1136 -0.4452
 2916SOL    HW224169   1.394   3.567  10.149 -0.1470  2.1213  1.0620
 2917SOL     OW24170   0.352   2.881   3.044 -0.3724  0.5336  0.1863
 2917SOL    HW124171   0.312   2.941   3.107  1.9874  1.7050  0.6190
 2917SOL    HW224172   0.396   2.937   2.981 -1.8821 -0.6595 -2.0141
 2918SOL     OW24173   1.142   5.757   1.513 -0.0618 -0.2024 -0.1486
 2918SOL    HW124174   1.160   5.805   1.433  1.0467 -0.9509 -0.3507
 2918SOL    HW224175   1.060   5.795   1.545 -0.4438  0.1869 -1.5520
 2919SOL     OW24176   0.430   1.811   2.135  0.5042  0.0169  0.1551
 2919SOL    HW124177   0.468   1.893   2.165 -0.0171  0.4092 -0.2381
 2919SOL    HW224178   0.386   1.775   2.213 -0.7196  0.9588 -0.0851
 2920SOL     OW24179   0.721   0.977   8.565  0.3374 -0.2280  0.0990
 2920SOL    HW124180   0.634   1.014   8.549  0.7942  0.4297 -1.0185
 2920SOL    HW224181   0.717   0.890   8.525 -0.2392 -0.7606  1.2986
 2921SOL     OW24182   1.341   1.865   3.256  0.2868 -0.1009  0.5146
 2921SOL    HW124183   1.412   1.878   3.319 -0.2973 -0.2130  1.1984
 2921SOL    HW224184   1.350   1.938   3.195  0.1352  0.6685  1.4097
 2922SOL     OW24185   5.771   1.906  11.731  0.4984 -0.3686  0.8882
 2922SOL    HW124186   5.733   1.988  11.762  1.2249  0.5952 -0.7504
 2922SOL    HW224187   5.725   1.887  11.649 -0.0880 -1.9358  1.5473
 2923SOL     OW24188   1.765   0.485   1.999  0.2421 -0.6832 -0.0286
 2923SOL    HW124189   1.722   0.467   1.915  1.2807  0.3796 -0.8144
 2923SOL    HW224190   1.720   0.562   2.033  1.0858  0.0475 -0.5461
 2924SOL     OW24191   3.991   5.728   3.430 -0.2525  0.0737 -0.3157
 2924SOL    HW124192   4.006   5.769   3.345 -0.2827  1.0586  0.1575
 2924SOL    HW224193   3.951   5.796   3.483 -2.0138 -1.1103 -0.0925
 2925SOL     OW24194   1.168   4.140   0.110 -0.0536 -0.5868  0.0062
 2925SOL    HW124195   1.219   4.102   0.182  0.4336  1.7990  0.9579
 2925SOL    HW224196   1.232   4.187   0.057 -0.8757  0.3112 -0.2095
 2926SOL     OW24197   5.932   1.652   8.558  0.1556  0.2278  0.6130
 2926SOL    HW124198   5.956   1.586   8.493  1.3140 -0.8143  2.0738
 2926SOL    HW224199   5.911   1.730   8.506 -2.3928 -1.6081 -1.1782
 2927SOL     OW24200   2.102   0.574   1.713 -0.0545 -0.1793 -0.5361
 2927SOL    HW124201   2.007   0.575   1.707 -0.0179 -0.1615 -1.0915
 2927SOL    HW224202   2.122   0.504   1.775 -0.4125 -0.3693 -0.6408
 2928SOL     OW24203   3.770   3.389   2.502  0.1067 -0.5674 -0.1364
 2928SOL    HW124204   3.786   3.476   2.466  2.3448 -0.3217  1.3329
 2928SOL    HW224205   3.805   3.329   2.437  2.5266 -0.1838  0.7336
 2929SOL     OW24206   5.459   4.344  12.197  0.2921  0.2082  0.4205
 2929SOL    HW124207   5.410   4.390  12.129 -0.6172 -1.4796 -0.1006
 2929SOL    HW224208   5.522   4.290  12.150 -0.8543 -1.5468  0.8586
 2930SOL     OW24209   0.123   5.866   8.696  0.2610 -0.4969 -0.0683
 2930SOL    HW124210   0.038   5.845   8.735  2.1259 -4.4804  2.1380
 2930SOL    HW224211   0.122   5.823   8.610 -0.9120  1.7583 -1.2285
 2931SOL     OW24212   5.443   1.485   1.622 -0.5823  0.5900  0.1510
 2931SOL    HW124213   5.401   1.409   1.663 -1.5766  1.0852  0.0603
 2931SOL    HW224214   5.493   1.448   1.550 -0.3571 -0.0821  0.6462
 2932SOL     OW24215   0.693   4.859  11.566  0.5682 -0.5109 -0.1113
 2932SOL    HW124216   0.678   4.942  11.612  1.8044 -0.9472  1.1206
 2932SOL    HW224217   0.629   4.799  11.602 -0.4085 -0.0852 -1.0892
 2933SOL     OW24218   1.440   3.594   0.507 -0.2041 -0.5473 -0.7878
 2933SOL    HW124219   1.413   3.508   0.475 -0.5662 -0.7742  0.1061
 2933SOL    HW224220   1.535   3.592   0.505 -0.1991 -1.2641 -0.0107
 2934SOL     OW24221   4.477   1.980   2.586  0.1518 -0.3636  0.2120
 2934SOL    HW124222   4.507   1.959   2.498 -0.1103 -3.0664  0.7187
 2934SOL    HW224223   4.527   1.922   2.644 -0.3902  0.6504  1.7479
 2935SOL     OW24224   0.077   0.408   0.741 -0.1542  0.4171 -0.3051
 2935SOL    HW124225  -0.017   0.407   0.724 -0.3294 -0.8836  0.6516
 2935SOL    HW224226   0.115   0.359   0.668 -0.2871  0.2604 -0.2693
 2936SOL     OW24227   2.243   3.984   3.141 -0.4571 -0.0205  0.1453
 2936SOL    HW124228   2.159   4.019   3.108 -0.9295 -0.4965  0.8358
 2936SOL    HW224229   2.309   4.031   3.090 -1.0898  1.7079  0.8836
 2937SOL     OW24230   1.200   2.976   8.503 -0.5632  0.4141  0.1710
 2937SOL    HW124231   1.240   2.917   8.439  0.9422  0.1777  1.3066
 2937SOL    HW224232   1.156   2.919   8.565  0.9334  0.4728  1.2979
 2938SOL     OW24233   0.325   0.147   3.157 -0.5535 -0.0811 -0.1108
 2938SOL    HW124234   0.237   0.180   3.139 -1.3332 -2.5211 -1.0272
 2938SOL    HW224235   0.352   0.105   3.075  2.0783  1.8992 -0.3168
 2939SOL     OW24236   5.589   1.225   1.407  0.2991 -0.1328  0.0753
 2939SOL    HW124237   5.657   1.279   1.367  0.6962 -0.2415  0.5947
 2939SOL    HW224238   5.611   1.135   1.382  0.7069 -0.2303  0.7482
 2940SOL     OW24239   1.765   0.655  12.430  0.2133  0.9311  0.2696
 2940SOL    HW124240   1.773   0.561  12.413  1.1827  1.2759 -1.3276
 2940SOL    HW224241   1.671   0.669  12.443  0.1377 -0.3622  1.1656
 2941SOL     OW24242   5.662   5.782   9.271 -0.4829 -0.2248  0.7253
 2941SOL    HW124243   5.752   5.769   9.241 -1.1019  0.2198 -1.4029
 2941SOL    HW224244   5.650   5.717   9.340  1.0947 -1.0805  0.2105
 2942SOL     OW24245   0.565   5.104  11.692  0.5107  0.3054  0.5600
 2942SOL    HW124246   0.531   5.131  11.606 -0.6156  1.2559  1.2844
 2942SOL    HW224247   0.604   5.183  11.728  1.0104 -0.1047  0.9193
 2943SOL     OW24248   3.997   2.712   0.661 -0.3422 -0.2485 -0.0093
 2943SOL    HW124249   4.007   2.681   0.751 -1.3680 -1.8224 -0.4149
 2943SOL    HW224250   3.912   2.679   0.633 -0.6969  1.4598 -1.0891
 2944SOL     OW24251   3.491   3.225  10.376  0.1337 -0.1580  0.4010
 2944SOL    HW124252   3.457   3.156  10.319  1.1030  0.3634 -0.8516
 2944SOL    HW224253   3.459   3.306  10.336  1.7959  0.2775 -0.1105
 2945SOL     OW24254  -0.002   1.016   2.467  0.1595 -0.3583 -0.4229
 2945SOL    HW124255   0.041   1.054   2.544 -2.2935  0.1496  0.7183
 2945SOL    HW224256   0.055   1.041   2.394  1.7222  0.4426  1.0304
 2946SOL     OW24257   0.304   5.675   2.838  0.9309 -0.0295  0.4973
 2946SOL    HW124258   0.368   5.746   2.834  0.8393 -0.0699 -2.3839
 2946SOL    HW224259   0.351   5.597   2.810 -0.5240  0.1148 -2.6223
 2947SOL     OW24260   3.255   5.216  12.014 -0.1902 -0.1202 -0.3671
 2947SOL    HW124261   3.199   5.282  12.054  0.3496  0.8946 -1.2708
 2947SOL    HW224262   3.322   5.198  12.081 -1.1211 -0.7702  0.4081
 2948SOL     OW24263   2.177   2.466  11.365  0.5446 -1.4290 -0.0788
 2948SOL    HW124264   2.201   2.455  11.273 -0.1243 -1.8284 -0.2051
 2948SOL    HW224265   2.252   2.510  11.404 -0.2572  1.2320 -1.4148
 2949SOL     OW24266   2.320   4.543   1.623  0.6292  0.3032 -0.1431
 2949SOL    HW124267   2.277   4.525   1.707  0.8706 -0.6738 -0.2261
 2949SOL    HW224268   2.251   4.584   1.570 -0.0058 -0.6195 -0.0398
 2950SOL     OW24269   4.767   5.086   2.230  0.1670 -0.1327  0.5205
 2950SOL    HW124270   4.689   5.053   2.187 -0.7252  0.8044  1.3901
 2950SOL    HW224271   4.840   5.038   2.189 -0.8588 -1.0664 -0.2285
 2951SOL     OW24272   0.582   2.042   2.648  0.0174  0.1150 -0.0881
 2951SOL    HW124273   0.674   2.018   2.657  0.1201  1.4027  2.8246
 2951SOL    HW224274   0.536   1.959   2.637  0.9606 -1.0259  3.9488
 2952SOL     OW24275   3.193   1.046   0.178  0.1060  0.5173 -0.1513
 2952SOL    HW124276   3.251   1.088   0.115  0.3931  0.6160  0.1778
 2952SOL    HW224277   3.130   1.114   0.202  1.2625  1.1239  1.2537
 2953SOL     OW24278   2.145   5.466  10.990  0.9196  0.7368 -0.7277
 2953SOL    HW124279   2.232   5.428  10.993  1.6134  2.3679  0.2304
 2953SOL    HW224280   2.105   5.442  11.074  0.0723 -0.8448 -1.5642
 2954SOL     OW24281   3.033   5.061   9.016 -0.0600  0.1463  0.3356
 2954SOL    HW124282   3.028   5.066   9.112 -0.6950 -1.5342  0.4145
 2954SOL    HW224283   3.075   5.142   8.990 -2.6935  2.0644  1.8125
 2955SOL     OW24284   0.685   1.878  10.262  1.2473 -0.6495 -0.1739
 2955SOL    HW124285   0.742   1.806  10.235 -0.6547 -2.6207  0.8133
 2955SOL    HW224286   0.671   1.863  10.356 -0.1764  0.2640 -0.2151
 2956SOL     OW24287   4.039   0.058  11.877 -0.1277 -0.3743  0.1797
 2956SOL    HW124288   4.024   0.068  11.783 -0.1971  0.1965  0.2509
 2956SOL    HW224289   4.013   0.142  11.915 -0.7189 -0.8260  0.7900
 2957SOL     OW24290   1.716   5.221  11.469  0.2767 -0.1574 -0.0648
 2957SOL    HW124291   1.678   5.301  11.507  0.2020 -0.8404  1.3167
 2957SOL    HW224292   1.682   5.150  11.523 -0.1500 -1.1987 -1.6633
 2958SOL     OW24293   1.242   0.798  10.677  0.1859  0.1823  0.0960
 2958SOL    HW124294   1.259   0.875  10.622 -1.6376 -0.6119 -1.6362
 2958SOL    HW224295   1.149   0.802  10.697  0.6083 -0.1575  2.2368
 2959SOL     OW24296   5.802   5.584  10.793  0.5429 -0.5503 -0.2337
 2959SOL    HW124297   5.729   5.646  10.791 -0.1899 -1.4099 -0.7625
 2959SOL    HW224298   5.870   5.629  10.842  0.0138  0.6644 -0.5852
 2960SOL     OW24299   4.333   1.777  11.747 -0.3555 -0.3085 -0.0458
 2960SOL    HW124300   4.331   1.819  11.661 -0.9932  0.2764  0.2504
 2960SOL    HW224301   4.243   1.747  11.762 -0.3247 -0.1178  0.5565
 2961SOL     OW24302   2.194   5.573   7.941  0.7784  0.6266  0.0824
 2961SOL    HW124303   2.251   5.527   7.880 -0.1209 -2.3838  1.4198
 2961SOL    HW224304   2.105   5.553   7.911  0.3204 -0.7118  2.1441
 2962SOL     OW24305   2.695   4.510   2.140  0.4969  0.5279 -1.0447
 2962SOL    HW124306   2.759   4.526   2.071  0.2490 -0.1903 -1.4481
 2962SOL    HW224307   2.655   4.596   2.157  2.7313  1.3230  0.3854
 2963SOL     OW24308   1.693   1.451   3.731  0.4374  0.2288 -0.1088
 2963SOL    HW124309   1.776   1.487   3.762 -0.4148  0.9189  1.4554
 2963SOL    HW224310   1.715   1.404   3.650  2.2133  1.0092 -0.0968
 2964SOL     OW24311   0.118   4.946  11.955 -0.4084  0.1964 -0.7362
 2964SOL    HW124312   0.212   4.951  11.936 -0.2083  2.1021  0.5755
 2964SOL    HW224313   0.094   4.856  11.932  2.1624 -0.9695  0.8724
 2965SOL     OW24314   0.557   5.506   0.360 -0.0882  0.2960  0.4750
 2965SOL    HW124315   0.562   5.531   0.453 -0.6187 -2.8930  1.4077
 2965SOL    HW224316   0.468   5.528   0.334 -1.0024 -1.8051  1.6790
 2966SOL     OW24317   5.044   4.309   8.426  0.3031  0.5311  0.2233
 2966SOL    HW124318   5.061   4.358   8.506  1.4201  1.0712 -0.3281
 2966SOL    HW224319   5.073   4.220   8.446  0.7940  0.7163  0.3587
 2967SOL     OW24320   1.808   1.665   3.564 -0.0147 -0.1765 -0.4130
 2967SOL    HW124321   1.863   1.599   3.606  0.1353  0.8463  1.0298
 2967SOL    HW224322   1.719   1.631   3.570  0.2423 -1.0058 -1.1668
 2968SOL     OW24323   1.462   4.062   7.756  0.1996 -0.0591 -0.1337
 2968SOL    HW124324   1.436   4.152   7.775 -1.0417 -0.8965  2.4528
 2968SOL    HW224325   1.519   4.038   7.829 -0.2215 -1.6523 -0.3099
 2969SOL     OW24326   4.063   5.420   9.356  0.3724  0.5804 -0.4564
 2969SOL    HW124327   4.019   5.432   9.272 -0.2434 -0.7417 -0.3361
 2969SOL    HW224328   4.098   5.507   9.377 -0.2529  1.1352 -1.6312
 2970SOL     OW24329   3.561   1.711   0.480 -0.4968 -0.3561 -0.3835
 2970SOL    HW124330   3.562   1.804   0.457  0.1761  0.1538  1.5797
 2970SOL    HW224331   3.653   1.688   0.493 -0.8016 -0.6772  1.4152
 2971SOL     OW24332   1.409   2.116   2.363 -0.0848 -0.4386  0.0680
 2971SOL    HW124333   1.440   2.150   2.278  0.7313  1.3374  1.0497
 2971SOL    HW224334   1.314   2.111   2.353 -0.3516  3.1846  0.2106
 2972SOL     OW24335   4.049   1.640  11.673  0.5588  0.2391  0.0951
 2972SOL    HW124336   4.029   1.684  11.590  1.8423  0.8516  0.0966
 2972SOL    HW224337   3.968   1.596  11.697 -0.2565  1.2458 -0.7651
 2973SOL     OW24338   3.032   1.021   1.086 -0.0669  0.5640  0.1169
 2973SOL    HW124339   3.065   0.946   1.038 -0.7868 -0.1337  0.6885
 2973SOL    HW224340   2.996   1.079   1.018 -0.6518 -0.1911 -0.2259
 2974SOL     OW24341   4.611   3.063  11.346 -0.2349  0.0965 -0.1873
 2974SOL    HW124342   4.687   3.076  11.290 -1.0599  0.8220 -1.1698
 2974SOL    HW224343   4.601   3.147  11.392 -1.5643  0.7053 -1.5073
 2975SOL     OW24344   5.580   5.500   8.290  0.5676 -0.4741 -0.2788
 2975SOL    HW124345   5.489   5.518   8.312  1.2979  1.0739  1.7090
 2975SOL    HW224346   5.626   5.582   8.312  2.6987 -1.8442  0.5180
 2976SOL     OW24347   1.498   1.273  12.101  0.0119  0.2653 -0.0327
 2976SOL    HW124348   1.468   1.319  12.180 -0.0890  1.8198 -0.9544
 2976SOL    HW224349   1.565   1.212  12.133  0.2523  1.1533  1.2074
 2977SOL     OW24350   4.849   4.567  10.386 -0.1116  0.3751  0.4812
 2977SOL    HW124351   4.912   4.503  10.421  0.3946  0.7901  0.3393
 2977SOL    HW224352   4.900   4.648  10.377 -0.5834  0.6237  0.0353
 2978SOL     OW24353   4.976   3.506   8.656 -0.3473 -0.0316 -0.0174
 2978SOL    HW124354   4.967   3.470   8.744  2.4320  1.0814  0.7722
 2978SOL    HW224355   4.962   3.431   8.598 -0.4037 -1.1630  1.4233
 2979SOL     OW24356   4.741   3.580  12.230 -0.9694  0.3036  0.0205
 2979SOL    HW124357   4.681   3.617  12.166 -1.9410  1.0669  1.3534
 2979SOL    HW224358   4.773   3.655  12.280  2.0099  0.0752 -1.3874
 2980SOL     OW24359   0.268   2.639   3.236  0.4470 -0.6212  0.5658
 2980SOL    HW124360   0.199   2.692   3.275 -0.1400  0.9188 -2.3866
 2980SOL    HW224361   0.332   2.702   3.203  0.0722 -1.7204 -2.3996
 2981SOL     OW24362   3.584   0.458  12.018  0.1042 -0.2834  0.3966
 2981SOL    HW124363   3.584   0.525  11.950 -0.5983  0.8610  1.4952
 2981SOL    HW224364   3.598   0.506  12.100 -1.3444 -1.3455  1.3076
 2982SOL     OW24365   2.319   5.910  10.623  0.2520  0.4985  0.3699
 2982SOL    HW124366   2.395   5.965  10.643  0.2833 -0.0401  1.7473
 2982SOL    HW224367   2.354   5.822  10.613 -0.1256  0.3284  0.5100
 2983SOL     OW24368   1.538   3.389   2.047 -0.1888 -0.6119  0.2166
 2983SOL    HW124369   1.617   3.388   1.992 -0.7513  0.4754 -0.6378
 2983SOL    HW224370   1.509   3.480   2.045 -1.4185 -0.9879  0.6015
 2984SOL     OW24371   4.158   5.047   7.719 -0.0223  0.4504 -0.5575
 2984SOL    HW124372   4.203   4.969   7.688 -1.1428 -1.1431  1.7586
 2984SOL    HW224373   4.098   5.070   7.648  0.4996 -0.6195 -1.3488
 2985SOL     OW24374   1.056   3.877  11.129  0.5044  0.7042 -0.2695
 2985SOL    HW124375   1.074   3.805  11.069  0.2754  0.6884 -0.3235
 2985SOL    HW224376   1.020   3.835  11.207  1.0012  0.7065 -0.0375
 2986SOL     OW24377   4.517   5.227   0.686 -0.5838  0.6472 -0.4910
 2986SOL    HW124378   4.602   5.270   0.673 -2.2286  3.3940 -2.7183
 2986SOL    HW224379   4.519   5.151   0.627  0.5625  0.2980 -0.0211
 2987SOL     OW24380   3.606   3.723   9.346  0.4831  0.0300  0.4376
 2987SOL    HW124381   3.637   3.638   9.314  3.2698  1.2390 -0.2214
 2987SOL    HW224382   3.588   3.773   9.266 -0.1670  0.3989  0.8128
 2988SOL     OW24383   0.228   4.194   2.948  0.0300  0.0392  0.0229
 2988SOL    HW124384   0.205   4.141   3.024  1.5022  0.4914  0.8109
 2988SOL    HW224385   0.227   4.133   2.875 -2.1621 -0.2437  0.2650
 2989SOL     OW24386   5.646   5.278   0.356  0.5688  0.1380 -0.4028
 2989SOL    HW124387   5.696   5.199   0.375 -0.6565 -0.4733  0.3390
 2989SOL    HW224388   5.633   5.319   0.442  0.2299  0.5487 -0.6501
 2990SOL     OW24389   2.272   2.084   3.547 -0.2005 -0.2347 -0.4631
 2990SOL    HW124390   2.264   2.078   3.642 -0.1011  0.1968 -0.4266
 2990SOL    HW224391   2.334   2.155   3.533  0.2979 -0.7418 -0.8379
 2991SOL     OW24392   4.065   0.824   0.878 -0.0562 -0.5379 -0.0482
 2991SOL    HW124393   4.155   0.799   0.854  0.3564  1.2242 -0.4548
 2991SOL    HW224394   4.076   0.906   0.928 -1.3996 -0.6278  0.4076
 2992SOL     OW24395   5.858   1.111   1.696  0.3206 -0.4521  0.1773
 2992SOL    HW124396   5.763   1.125   1.702  0.0767 -2.1384  0.6208
 2992SOL    HW224397   5.889   1.118   1.786  0.4305 -1.1050  0.1941
 2993SOL     OW24398   4.382   2.530  12.425 -0.2654 -0.3408  0.0299
 2993SOL    HW124399   4.445   2.459  12.424 -0.6937 -0.7779 -3.2877
 2993SOL    HW224400   4.305   2.494  12.380 -0.7282  1.9508 -1.1211
 2994SOL     OW24401   0.528   4.618  11.354  0.1279  0.3990  0.2854
 2994SOL    HW124402   0.454   4.561  11.375 -0.8833  1.7886  0.6099
 2994SOL    HW224403   0.551   4.659  11.438 -0.6078  2.1211 -0.3219
 2995SOL     OW24404   2.894   0.339  10.039 -0.2810  0.7710  0.4883
 2995SOL    HW124405   2.984   0.334  10.007 -0.9807  0.1858 -1.4704
 2995SOL    HW224406   2.901   0.379  10.126  1.6373  2.9094 -0.6195
 2996SOL     OW24407   3.403   5.407  11.282 -0.3515 -0.1833 -0.1235
 2996SOL    HW124408   3.499   5.401  11.276 -0.4464 -1.2848 -0.9135
 2996SOL    HW224409   3.372   5.328  11.236 -1.6040 -0.5711  1.3574
 2997SOL     OW24410   2.281   5.745  11.234 -0.6086 -0.0355 -0.4620
 2997SOL    HW124411   2.303   5.769  11.144 -1.0471  2.7871  0.1299
 2997SOL    HW224412   2.196   5.786  11.250  0.7742  1.9737  2.1287
 2998SOL     OW24413   2.535   5.029   8.222  0.3753  0.5069  0.0883
 2998SOL    HW124414   2.584   5.039   8.141 -0.1257  2.2509 -0.0312
 2998SOL    HW224415   2.559   4.943   8.255  2.6772  0.8836 -0.5217
 2999SOL     OW24416   2.414   2.504   3.081  0.0238 -0.0831 -0.1574
 2999SOL    HW124417   2.452   2.494   2.994 -1.1251 -1.0896 -0.5548
 2999SOL    HW224418   2.326   2.539   3.065 -0.3323 -0.6278  0.5655
 3000SOL     OW24419   5.836   5.054  11.345  0.2508 -0.0269  0.2449
 3000SOL    HW124420   5.924   5.059  11.308  0.2236 -0.4461  0.1179
 3000SOL    HW224421   5.818   5.142  11.377 -0.0817  0.5861 -1.5771
 3001SOL     OW24422   4.839   2.178  10.707 -0.1610 -0.2968  0.2760
 3001SOL    HW124423   4.823   2.269  10.735 -1.1310  0.0037 -1.1841
 3001SOL    HW224424   4.761   2.155  10.657  1.7355 -0.6434 -2.6270
 3002SOL     OW24425   1.136   2.097   8.780 -0.2533 -0.3242  0.1807
 3002SOL    HW124426   1.105   2.143   8.702  1.0525 -1.6576 -1.1367
 3002SOL    HW224427   1.086   2.015   8.781 -1.8487  0.6210  1.9736
 3003SOL     OW24428   0.314   2.577  10.560  0.2535 -0.0617 -0.3649
 3003SOL    HW124429   0.289   2.638  10.630 -0.2039  0.2256 -0.7746
 3003SOL    HW224430   0.405   2.555  10.579 -0.2579 -1.0469  1.0969
 3004SOL     OW24431   3.342   2.634  11.363 -0.1654 -0.1767  0.2183
 3004SOL    HW124432   3.261   2.607  11.320 -1.2802  1.9447  0.9163
 3004SOL    HW224433   3.333   2.604  11.453 -1.3530  2.2519  0.9643
 3005SOL     OW24434   5.675   0.270   2.879  0.9394  0.0663  0.3144
 3005SOL    HW124435   5.583   0.281   2.855  1.1879  1.6166 -0.0191
 3005SOL    HW224436   5.689   0.175   2.882 -0.6127 -0.1734  0.1898
 3006SOL     OW24437   5.661   0.034   1.788 -0.0315  0.2879 -0.1571
 3006SOL    HW124438   5.679  -0.060   1.782  0.8396  0.4792 -0.6699
 3006SOL    HW224439   5.747   0.074   1.790 -0.3726  0.9472  2.6118
 3007SOL     OW24440   0.411   4.541   0.229 -0.0306 -0.1607 -0.2405
 3007SOL    HW124441   0.321   4.512   0.247 -0.7391  1.8036 -0.4764
 3007SOL    HW224442   0.403   4.635   0.215  1.8390 -0.2097 -1.8407
 3008SOL     OW24443   3.103   5.603   9.177 -0.2543  0.7384 -0.4560
 3008SOL    HW124444   3.193   5.603   9.210  0.0485 -0.5321 -1.2574
 3008SOL    HW224445   3.062   5.528   9.218 -0.1726 -0.2479 -2.1307
 3009SOL     OW24446   5.088   0.581   0.652  0.5067  0.3679 -0.5723
 3009SOL    HW124447   5.064   0.517   0.719 -0.6525 -0.1406 -1.4502
 3009SOL    HW224448   5.120   0.528   0.579  1.3137  0.8920 -0.5974
 3010SOL     OW24449   1.497   5.542   3.776 -0.2114  0.6600  0.0013
 3010SOL    HW124450   1.509   5.510   3.687 -1.3229  3.8582 -1.3606
 3010SOL    HW224451   1.571   5.601   3.791  1.0361 -1.2889  1.9674
 3011SOL     OW24452   0.684   3.830   8.152 -0.1526 -0.1284  0.0211
 3011SOL    HW124453   0.622   3.761   8.127  0.5008 -0.3763 -0.9518
 3011SOL    HW224454   0.758   3.818   8.092  0.7393  0.3105  1.0267
 3012SOL     OW24455   3.092   4.217   0.263 -0.3310  0.3516  0.0118
 3012SOL    HW124456   3.187   4.211   0.266 -0.3090 -0.6677 -2.0408
 3012SOL    HW224457   3.061   4.164   0.337  0.6674 -0.1404  0.0752
 3013SOL     OW24458   0.179   1.461   8.846  0.6517  0.2133  0.3842
 3013SOL    HW124459   0.134   1.487   8.766  0.9878  2.0482  0.7736
 3013SOL    HW224460   0.254   1.410   8.815  1.0329  1.2976 -0.4997
 3014SOL     OW24461   0.980   5.397   3.433 -0.3296 -0.4476  0.1949
 3014SOL    HW124462   0.994   5.366   3.344  1.0806 -1.2194  0.6622
 3014SOL    HW224463   1.064   5.382   3.477 -0.8229  0.4618  1.4917
 3015SOL     OW24464   4.311   1.412   2.773  0.2090  0.0175 -0.6409
 3015SOL    HW124465   4.250   1.357   2.724 -0.1269 -0.7990  0.6512
 3015SOL    HW224466   4.374   1.443   2.708 -1.4345  0.6761 -1.9508
 3016SOL     OW24467   4.998   5.512  10.302 -0.0459  0.0832  0.3088
 3016SOL    HW124468   4.911   5.514  10.262 -0.0091  1.0172  0.2632
 3016SOL    HW224469   5.028   5.603  10.298  0.6943 -0.1360  0.8460
 3017SOL     OW24470   0.169   0.646   0.232  0.0860 -0.8260 -0.0005
 3017SOL    HW124471   0.245   0.589   0.239  0.4188 -0.5302 -1.1072
 3017SOL    HW224472   0.100   0.591   0.195 -0.2951 -1.1396  1.1584
 3018SOL     OW24473   2.359   3.012   8.574  0.6255  0.6196  0.5752
 3018SOL    HW124474   2.366   3.023   8.669 -0.2755 -3.0588  1.1368
 3018SOL    HW224475   2.369   2.918   8.560 -0.6515  0.9376 -2.8574
 3019SOL     OW24476   5.130   2.606   8.139  0.1322 -0.4879 -0.2625
 3019SOL    HW124477   5.083   2.690   8.139  0.3336 -0.3724 -0.2195
 3019SOL    HW224478   5.195   2.615   8.070 -2.0091 -1.8595 -2.5161
 3020SOL     OW24479   1.345   0.157   3.192 -0.4484 -1.0218  0.4659
 3020SOL    HW124480   1.406   0.101   3.143 -0.1984  0.0848 -0.4970
 3020SOL    HW224481   1.365   0.138   3.284 -0.2917 -2.4408  0.1536
 3021SOL     OW24482   3.004   3.062   0.634  0.0120  0.1049 -0.1470
 3021SOL    HW124483   3.099   3.063   0.637  0.0285  1.2456 -0.8570
 3021SOL    HW224484   2.980   2.972   0.655  1.2648 -0.2957 -0.4273
 3022SOL     OW24485   1.292   5.677   0.492 -0.1375 -0.0801  0.2042
 3022SOL    HW124486   1.227   5.705   0.557  0.6108 -1.0134  1.3602
 3022SOL    HW224487   1.357   5.748   0.492 -0.8455  0.5827 -0.5410
 3023SOL     OW24488   0.868   4.315   8.277 -0.1518  0.2526 -0.3039
 3023SOL    HW124489   0.930   4.266   8.224 -0.4084 -0.2927 -0.1037
 3023SOL    HW224490   0.784   4.273   8.261 -0.1020 -0.4258  1.1528
 3024SOL     OW24491   3.922   5.303   8.162  0.0284 -0.2456 -0.4418
 3024SOL    HW124492   3.850   5.246   8.133 -1.7981  2.2677 -0.9985
 3024SOL    HW224493   3.957   5.340   8.081  1.1501 -0.4830 -0.0735
 3025SOL     OW24494   2.809   0.396   0.084 -0.4745 -0.0885  0.8350
 3025SOL    HW124495   2.816   0.394  -0.012  1.7775  0.8260  0.9431
 3025SOL    HW224496   2.730   0.446   0.101  0.3118  1.6852 -0.5442
 3026SOL     OW24497   3.998   0.422   0.903 -0.3978 -0.0437 -0.4793
 3026SOL    HW124498   4.032   0.397   0.989  0.7375  3.0180  0.0225
 3026SOL    HW224499   4.055   0.375   0.841 -0.1298 -0.9378  0.4365
 3027SOL     OW24500   4.943   4.788   1.674  0.2203  0.1900  0.2087
 3027SOL    HW124501   4.940   4.692   1.677 -0.8966  0.2391  1.4643
 3027SOL    HW224502   4.917   4.810   1.585 -0.3675 -0.6652  0.1632
 3028SOL     OW24503   3.239   2.527   2.616  0.0227 -0.1078  0.0539
 3028SOL    HW124504   3.238   2.435   2.591 -0.9268 -0.4086  1.1479
 3028SOL    HW224505   3.331   2.552   2.616  0.2787 -1.0625 -0.2415
 3029SOL     OW24506   0.576   3.090   1.175 -0.4183  0.1894 -0.2268
 3029SOL    HW124507   0.502   3.087   1.114 -1.0805 -0.3637  0.5817
 3029SOL    HW224508   0.654   3.088   1.119 -1.0115 -0.4924 -1.0398
 3030SOL     OW24509   4.158   2.253  11.818  0.3480 -0.3376  0.6163
 3030SOL    HW124510   4.199   2.170  11.792 -0.8510 -0.3908 -1.2021
 3030SOL    HW224511   4.230   2.315  11.825  1.1891 -1.3783  1.4159
 3031SOL     OW24512   2.651   0.865   9.056 -0.2605  0.3546 -0.2192
 3031SOL    HW124513   2.725   0.807   9.070  0.4201  1.2254 -0.1135
 3031SOL    HW224514   2.686   0.953   9.072 -1.2300  0.8053 -0.4867
 3032SOL     OW24515   4.079   1.369   3.579 -0.2433  0.3477 -0.7356
 3032SOL    HW124516   3.990   1.391   3.606 -0.2455 -0.1684 -0.3192
 3032SOL    HW224517   4.129   1.370   3.661  0.2113  1.0158 -1.0158
 3033SOL     OW24518   3.502   2.180  12.159 -0.6395  0.5010  0.1769
 3033SOL    HW124519   3.418   2.215  12.189 -0.7257 -0.3140  0.8980
 3033SOL    HW224520   3.564   2.202  12.229 -0.1922  1.2904 -0.4444
 3034SOL     OW24521   1.764   0.485  11.261 -0.3871  0.0411  0.4521
 3034SOL    HW124522   1.811   0.425  11.320 -2.2645 -0.8139  1.1169
 3034SOL    HW224523   1.690   0.434  11.230 -0.0181  0.8370 -1.8630
 3035SOL     OW24524   5.058   4.722  10.480  0.3836  0.0927 -0.0748
 3035SOL    HW124525   5.064   4.720  10.575  0.5044 -2.3609 -0.0968
 3035SOL    HW224526   5.149   4.720  10.450  0.3208 -1.1517 -0.2262
 3036SOL     OW24527   3.845   0.751   9.221 -0.1198  0.6563 -0.1266
 3036SOL    HW124528   3.802   0.835   9.230  1.4229  1.3052  1.6064
 3036SOL    HW224529   3.785   0.688   9.259 -0.6162  1.1854 -0.0367
 3037SOL     OW24530   1.136   4.396   2.623  0.0134 -0.0685 -0.2041
 3037SOL    HW124531   1.187   4.432   2.551  1.2456  0.1437  0.7619
 3037SOL    HW224532   1.114   4.307   2.595  1.5405 -0.4226 -0.3302
 3038SOL     OW24533   5.125   2.781   7.854  0.1022 -0.0794  0.2910
 3038SOL    HW124534   5.190   2.730   7.903 -0.4327 -1.1593 -0.1247
 3038SOL    HW224535   5.172   2.808   7.775  1.1677  2.1823  1.6257
 3039SOL     OW24536   2.262   1.313   9.883 -0.0871  0.4809  0.2058
 3039SOL    HW124537   2.177   1.353   9.864  0.6293  1.4839 -0.9451
 3039SOL    HW224538   2.288   1.271   9.800  1.0049  1.0634  0.2396
 3040SOL     OW24539   4.768   3.733   2.733  0.4017 -1.0937 -0.6677
 3040SOL    HW124540   4.720   3.755   2.653  1.0663 -0.6496 -0.9518
 3040SOL    HW224541   4.724   3.783   2.802  2.1358  1.4863 -1.3657
 3041SOL     OW24542   5.767   4.486   2.200  0.8638  0.1621  0.6973
 3041SOL    HW124543   5.757   4.576   2.231 -0.5580  0.1056  0.4358
 3041SOL    HW224544   5.800   4.495   2.111  0.5067  0.4328  0.5896
 3042SOL     OW24545   5.842   0.679   0.501 -0.4021  0.5442 -0.6286
 3042SOL    HW124546   5.803   0.748   0.447  0.7262  0.9652 -0.9282
 3042SOL    HW224547   5.768   0.623   0.525 -1.4039  2.0410 -0.0873
 3043SOL     OW24548   2.631   4.330   3.132  0.2503  0.1695 -0.0544
 3043SOL    HW124549   2.571   4.293   3.067 -0.7441  1.7147 -0.0549
 3043SOL    HW224550   2.575   4.386   3.186  1.4951  0.6854  0.7051
 3044SOL     OW24551   3.585   4.843   8.962 -0.1004 -0.0211  0.4988
 3044SOL    HW124552   3.646   4.892   8.907  1.5570  1.2933  3.3708
 3044SOL    HW224553   3.614   4.752   8.956 -1.5030 -0.3438 -2.7001
 3045SOL     OW24554   1.554   1.993   0.799  0.0576  0.1334 -0.4630
 3045SOL    HW124555   1.637   1.987   0.847 -0.2573  0.2502  0.1005
 3045SOL    HW224556   1.563   2.073   0.747 -0.0073  0.5731  0.1900
 3046SOL     OW24557   4.977   2.863   2.982 -0.3164 -0.0346 -0.2771
 3046SOL    HW124558   4.883   2.850   2.993 -0.3465 -0.1600 -0.6649
 3046SOL    HW224559   4.984   2.941   2.928 -0.2243 -0.5741 -1.0607
 3047SOL     OW24560   5.628   5.187   1.280  0.0851  0.1413  0.3410
 3047SOL    HW124561   5.716   5.207   1.310  0.0094 -0.3930  0.9239
 3047SOL    HW224562   5.639   5.163   1.188  0.3366  1.6089 -0.0237
 3048SOL     OW24563   3.884   1.343  10.108 -0.1473 -0.3484  0.7420
 3048SOL    HW124564   3.979   1.328  10.108 -0.1532 -0.3930 -1.2036
 3048SOL    HW224565   3.846   1.258  10.130  0.2188 -0.6584  0.1870
 3049SOL     OW24566   3.291   1.756   9.701 -0.4477 -0.1625  0.0398
 3049SOL    HW124567   3.337   1.674   9.716 -1.0296 -0.5378 -0.2076
 3049SOL    HW224568   3.358   1.824   9.714  0.0374 -0.6701  0.2255
 3050SOL     OW24569   1.621   0.372   0.204 -0.2052 -0.6636  0.7685
 3050SOL    HW124570   1.687   0.303   0.214  0.6056  0.0069  0.1909
 3050SOL    HW224571   1.542   0.336   0.244  0.7947 -1.0674  2.4399
 3051SOL     OW24572   0.101   2.277   0.701 -0.3371 -0.3947 -0.0907
 3051SOL    HW124573   0.099   2.370   0.720 -1.7909 -0.3130 -0.5937
 3051SOL    HW224574   0.185   2.263   0.656  0.3063  0.4918  0.8146
 3052SOL     OW24575   3.367   0.185   0.395  0.4617  0.4002 -0.5258
 3052SOL    HW124576   3.277   0.204   0.420 -0.3629 -1.5324 -1.8986
 3052SOL    HW224577   3.395   0.115   0.454 -0.0081 -1.1302 -2.0714
 3053SOL     OW24578   0.859   0.791  10.414  0.1650 -0.1587 -0.2762
 3053SOL    HW124579   0.836   0.884  10.410  0.8682 -0.0267 -1.4588
 3053SOL    HW224580   0.819   0.753  10.336  1.5240 -0.4723 -0.8315
 3054SOL     OW24581   4.366   1.039   0.463  0.1495 -0.5040  0.1849
 3054SOL    HW124582   4.413   0.961   0.491 -0.2769 -0.2620  1.6405
 3054SOL    HW224583   4.322   1.014   0.382  2.5167 -0.8266 -1.0617
 3055SOL     OW24584   4.451   5.359   2.892  0.0215  0.0470  0.2759
 3055SOL    HW124585   4.481   5.368   2.982  0.6133 -0.0799  0.0942
 3055SOL    HW224586   4.492   5.278   2.861 -2.7672 -1.6549  0.9136
 3056SOL     OW24587   0.771   2.971   0.003  0.4236 -0.2655  0.2865
 3056SOL    HW124588   0.840   3.011   0.056  0.3238  0.4130 -0.0938
 3056SOL    HW224589   0.816   2.905  -0.050  0.9159  0.7886 -0.6105
 3057SOL     OW24590   3.654   3.773   8.907  0.5027 -0.3715 -0.1781
 3057SOL    HW124591   3.623   3.858   8.938 -0.3151 -0.0003 -1.9609
 3057SOL    HW224592   3.680   3.789   8.816 -1.8194 -2.4978 -1.2867
 3058SOL     OW24593   0.749   3.630   0.874  0.0288 -0.6901 -0.7977
 3058SOL    HW124594   0.827   3.591   0.913 -0.5030  0.3713  1.3693
 3058SOL    HW224595   0.681   3.563   0.886 -0.5822  0.3375  1.8157
 3059SOL     OW24596   4.101   2.656   9.784 -0.3100 -0.2538  0.1163
 3059SOL    HW124597   4.085   2.745   9.814 -0.7825 -0.1453 -0.4438
 3059SOL    HW224598   4.040   2.602   9.835  1.4443 -0.5300  1.9906
 3060SOL     OW24599   4.960   3.030  10.029  0.0684 -0.2881  0.1589
 3060SOL    HW124600   4.976   2.936  10.021 -1.5588 -0.6142  0.3988
 3060SOL    HW224601   4.899   3.038  10.102 -0.0916  0.9252 -0.0864
 3061SOL     OW24602   3.307   3.764   8.504 -0.1589  0.0166  0.4089
 3061SOL    HW124603   3.216   3.792   8.507  0.8975  3.7098  0.7280
 3061SOL    HW224604   3.336   3.763   8.595  0.9377  1.9637  0.1169
 3062SOL     OW24605   5.408   3.524  10.664  0.1861 -0.2221 -0.1083
 3062SOL    HW124606   5.315   3.503  10.661  0.8285 -3.4352  0.1058
 3062SOL    HW224607   5.417   3.587  10.736 -1.5131 -1.7969  1.5408
 3063SOL     OW24608   4.553   1.771   3.159  0.3597 -0.4309  0.1023
 3063SOL    HW124609   4.569   1.757   3.253 -0.0914 -2.0390 -0.0351
 3063SOL    HW224610   4.634   1.743   3.117  1.2435  2.0009  0.0958
 3064SOL     OW24611   5.343   2.401   2.708 -0.3280 -0.2035 -0.2019
 3064SOL    HW124612   5.342   2.439   2.620  0.6888 -0.3143 -0.2689
 3064SOL    HW224613   5.366   2.474   2.765 -2.0431  0.1178  0.1129
 3065SOL     OW24614   0.754   1.874  11.131 -0.2867  0.5867 -0.4312
 3065SOL    HW124615   0.726   1.782  11.133  2.2145 -0.4004 -4.0865
 3065SOL    HW224616   0.813   1.883  11.205  1.1689 -1.4612 -1.2704
 3066SOL     OW24617   3.247   2.730   2.231 -0.2843 -0.6316  0.5711
 3066SOL    HW124618   3.168   2.783   2.220  0.6695  0.4684 -1.1553
 3066SOL    HW224619   3.282   2.755   2.316 -1.2248 -0.3583  0.8832
 3067SOL     OW24620   4.315   2.968   8.323 -0.1896 -0.2343 -0.2476
 3067SOL    HW124621   4.268   3.037   8.370  1.6776 -0.1148  1.4881
 3067SOL    HW224622   4.404   3.001   8.312  0.6071 -2.1297  0.1631
 3068SOL     OW24623   2.252   5.700  10.212  0.1795 -0.0146  0.0251
 3068SOL    HW124624   2.199   5.726  10.137  1.7506  1.4694 -0.6334
 3068SOL    HW224625   2.231   5.765  10.279  1.8055  1.1659 -0.5604
 3069SOL     OW24626   5.486   2.849   0.949 -0.6840  0.1997  0.1120
 3069SOL    HW124627   5.532   2.768   0.973 -0.1132  0.2592 -0.7568
 3069SOL    HW224628   5.512   2.912   1.016 -0.3169 -0.0529  0.2104
 3070SOL     OW24629   5.952   5.797   2.483  0.7443  0.7640  0.6759
 3070SOL    HW124630   5.869   5.794   2.531  0.5508 -0.6386  0.2751
 3070SOL    HW224631   6.016   5.823   2.549  0.2890  0.0084  1.4320
 3071SOL     OW24632   2.884   3.156   0.408  0.2381 -0.5403 -0.4547
 3071SOL    HW124633   2.929   3.130   0.488 -0.1690 -0.0128 -0.0550
 3071SOL    HW224634   2.792   3.138   0.424  0.0457  0.3937 -0.4732
 3072SOL     OW24635   5.384   1.929   8.670  0.3665 -0.1164  0.3329
 3072SOL    HW124636   5.443   1.859   8.643 -2.4522 -1.9664 -1.4156
 3072SOL    HW224637   5.392   1.996   8.601  1.8888  0.5752  1.1681
 3073SOL     OW24638   0.355   1.981  11.404  0.2180  0.1647 -0.5994
 3073SOL    HW124639   0.332   1.907  11.349 -1.5489  0.5247 -0.3579
 3073SOL    HW224640   0.293   1.978  11.477  0.0384  1.9519 -0.6505
 3074SOL     OW24641   1.937   3.980  11.114  0.3669 -0.5063  0.1804
 3074SOL    HW124642   2.023   4.019  11.101 -0.4672  1.7040  1.0723
 3074SOL    HW224643   1.931   3.965  11.209 -0.3150 -0.4550  0.1492
 3075SOL     OW24644   2.526   4.944  10.322 -0.0843 -0.3419  0.0415
 3075SOL    HW124645   2.582   4.996  10.265  0.0494 -1.2476 -0.6523
 3075SOL    HW224646   2.502   5.004  10.392  2.7551 -0.2784  1.0337
 3076SOL     OW24647   1.482   0.308  11.784  0.2146  1.1021  0.5920
 3076SOL    HW124648   1.492   0.215  11.763 -1.9324  1.3623 -1.7844
 3076SOL    HW224649   1.402   0.312  11.837 -1.3854  1.8661 -1.7782
 3077SOL     OW24650   3.772   1.756  11.033 -0.0302  0.3028 -0.0132
 3077SOL    HW124651   3.843   1.809  11.071  0.8331 -1.1209  0.3961
 3077SOL    HW224652   3.794   1.666  11.057 -0.3970 -0.4555 -2.4116
 3078SOL     OW24653   0.135   1.005  10.801  0.0005 -0.4399 -0.5707
 3078SOL    HW124654   0.189   0.927  10.817  0.9345  0.2329 -0.3799
 3078SOL    HW224655   0.141   1.056  10.882  1.6852  1.1715 -1.6579
 3079SOL     OW24656   0.127   1.654   2.926  0.6581  0.5564  0.3495
 3079SOL    HW124657   0.102   1.689   3.011  0.2326  0.9854  0.0497
 3079SOL    HW224658   0.173   1.572   2.946 -0.9197 -0.2085  0.9032
 3080SOL     OW24659   5.948   1.569   2.268  0.0495 -0.7477  0.3800
 3080SOL    HW124660   5.868   1.522   2.246 -0.2829  0.9303 -2.2099
 3080SOL    HW224661   5.921   1.661   2.272  1.5747 -0.2981  0.8620
 3081SOL     OW24662   3.043   0.599   9.022  0.2602  0.0579 -0.5444
 3081SOL    HW124663   3.061   0.531   9.087  1.0217  0.7824  0.0058
 3081SOL    HW224664   3.042   0.681   9.072  0.1355  0.5422 -1.3296
 3082SOL     OW24665   4.118   0.548   0.134 -0.0862 -0.4326 -0.5023
 3082SOL    HW124666   4.202   0.570   0.093 -0.6116  0.0843 -1.3150
 3082SOL    HW224667   4.062   0.522   0.062 -0.1386 -2.4017  0.2239
 3083SOL     OW24668   5.282   0.430   1.923 -0.4709 -0.4926 -0.2483
 3083SOL    HW124669   5.359   0.445   1.978  0.4292  0.2362 -1.6830
 3083SOL    HW224670   5.301   0.349   1.876 -0.8336 -0.6220 -0.1758
 3084SOL     OW24671   1.122   4.711   9.232  0.4793  0.1654 -0.5565
 3084SOL    HW124672   1.150   4.626   9.267  1.9357  0.2028 -1.5740
 3084SOL    HW224673   1.043   4.691   9.181 -1.1076 -0.0346  1.9059
 3085SOL     OW24674   3.063   5.058   8.416 -0.5796 -0.3651  0.1528
 3085SOL    HW124675   3.053   5.053   8.321  0.9663 -0.2723 -0.0265
 3085SOL    HW224676   3.022   5.142   8.439 -0.1103  0.0674 -0.5567
 3086SOL     OW24677   1.579   4.612   2.237 -0.0509  0.0648  0.9612
 3086SOL    HW124678   1.642   4.584   2.303 -1.1784  1.3043  2.6285
 3086SOL    HW224679   1.627   4.610   2.155  1.9490  0.2990  2.0973
 3087SOL     OW24680   1.480   0.321  10.968 -0.1184  0.2338  0.2386
 3087SOL    HW124681   1.563   0.364  10.984 -0.1282  1.5002 -2.7358
 3087SOL    HW224682   1.504   0.232  10.941  0.1787  0.0379  1.1509
 3088SOL     OW24683   5.570   1.389   8.687 -0.6184  0.2848 -0.1428
 3088SOL    HW124684   5.570   1.426   8.598 -0.4785 -1.0001 -0.6786
 3088SOL    HW224685   5.662   1.390   8.714 -0.5662 -0.0673 -0.3133
 3089SOL     OW24686   3.918   1.991  10.883 -0.1348  0.0855  0.1396
 3089SOL    HW124687   3.941   1.910  10.836  1.3733 -0.3567  1.5874
 3089SOL    HW224688   3.954   1.978  10.971  0.1801  2.3742  0.3669
 3090SOL     OW24689   3.827   0.126   8.578 -0.1505 -0.0453 -0.0658
 3090SOL    HW124690   3.777   0.136   8.496  1.0183  1.4685 -0.6122
 3090SOL    HW224691   3.815   0.210   8.623  0.0971 -0.4888  0.8348
 3091SOL     OW24692   1.206   5.377  12.174  0.5190 -0.3560  0.7344
 3091SOL    HW124693   1.144   5.435  12.220 -0.3462 -0.0710 -0.7679
 3091SOL    HW224694   1.164   5.291  12.178  0.6137 -0.4021  0.7633
 3092SOL     OW24695   4.561   2.746   8.657  0.0206 -0.1953  0.1778
 3092SOL    HW124696   4.581   2.681   8.725  0.1753 -0.2766  0.0556
 3092SOL    HW224697   4.539   2.825   8.705 -0.6942 -0.4844  0.3388
 3093SOL     OW24698   5.214   1.327   0.827 -0.4440 -0.3669  0.5302
 3093SOL    HW124699   5.297   1.284   0.850  0.1981  0.0535 -0.9159
 3093SOL    HW224700   5.222   1.415   0.864  0.2502  0.0517 -0.5990
 3094SOL     OW24701   2.444   1.498  11.253 -0.1865  0.2035  0.2871
 3094SOL    HW124702   2.511   1.499  11.321 -0.4340  0.7690  0.5274
 3094SOL    HW224703   2.441   1.408  11.222 -1.3307 -0.4597  2.2648
 3095SOL     OW24704   4.842   3.218  10.577 -0.0338 -0.4209  0.0969
 3095SOL    HW124705   4.801   3.279  10.516 -0.3939 -0.9851 -0.2266
 3095SOL    HW224706   4.846   3.266  10.659  0.5212  0.3700 -0.3848
 3096SOL     OW24707   3.553   2.966   2.798 -0.1411  0.4509  0.7374
 3096SOL    HW124708   3.596   2.899   2.745 -1.2021 -0.7100  1.3180
 3096SOL    HW224709   3.599   2.962   2.882 -1.6180 -1.0712  1.4945
 3097SOL     OW24710   5.561   2.788   0.642  0.3340 -0.0920 -0.2432
 3097SOL    HW124711   5.472   2.813   0.618  0.8773  2.6261  0.4394
 3097SOL    HW224712   5.559   2.783   0.738  1.0385  0.4640 -0.1972
 3098SOL     OW24713   3.401   5.818   8.944  0.8107  0.2961  0.3893
 3098SOL    HW124714   3.393   5.834   9.038 -1.5372 -0.7922  0.3962
 3098SOL    HW224715   3.428   5.903   8.907  1.1499  0.8775  1.9536
 3099SOL     OW24716   0.353   0.252   9.860  0.0663 -0.0777 -0.0667
 3099SOL    HW124717   0.393   0.236   9.945 -0.3454  0.0551  0.1546
 3099SOL    HW224718   0.261   0.229   9.872 -0.1997  0.8875 -0.1998
 3100SOL     OW24719   0.969   0.473  10.939 -0.4445 -0.5912 -0.1295
 3100SOL    HW124720   1.053   0.516  10.924 -0.5018 -0.7463 -0.9171
 3100SOL    HW224721   0.913   0.542  10.974 -0.1552 -0.3451 -0.1430
 3101SOL     OW24722   3.470   3.827  11.980 -0.3372 -0.1633 -0.1512
 3101SOL    HW124723   3.562   3.836  11.956 -0.2360 -3.3744 -1.2491
 3101SOL    HW224724   3.471   3.805  12.073 -0.0377  0.7280  0.0549
 3102SOL     OW24725   0.561   4.053   0.586 -0.0437 -0.1068  0.5650
 3102SOL    HW124726   0.500   4.108   0.635  0.3471  0.0115  0.9205
 3102SOL    HW224727   0.607   4.114   0.528  1.3561  0.1439  1.9345
 3103SOL     OW24728   2.076   4.751   8.390  0.0958 -0.0232 -0.1104
 3103SOL    HW124729   2.027   4.685   8.342  1.0719 -0.9560  0.1355
 3103SOL    HW224730   2.013   4.788   8.452 -0.5635 -0.4521 -0.5178
 3104SOL     OW24731   1.609   2.746   4.264 -0.2475  0.0325 -0.7066
 3104SOL    HW124732   1.700   2.771   4.252  0.2735 -0.8869  1.1403
 3104SOL    HW224733   1.562   2.829   4.273  0.7083  0.4750  0.3120
 3105SOL     OW24734   3.209   2.245   0.990  0.0946 -0.1348 -0.3231
 3105SOL    HW124735   3.133   2.255   1.047  0.6380 -1.5008  0.6758
 3105SOL    HW224736   3.235   2.335   0.968 -0.2019  0.4146  1.4948
 3106SOL     OW24737   0.022   2.960   0.060 -0.3192 -0.4884  0.9434
 3106SOL    HW124738  -0.069   2.991   0.063  0.0919  0.7009  1.2383
 3106SOL    HW224739   0.073   3.032   0.095  0.7131 -1.3154  1.1499
 3107SOL     OW24740   2.799   0.054   9.483  0.3834 -0.2118 -0.2153
 3107SOL    HW124741   2.725  -0.004   9.466  1.2309 -1.4240  0.1511
 3107SOL    HW224742   2.761   0.132   9.522 -0.5235 -1.4964  1.4888
 3108SOL     OW24743   1.916   5.026   1.508  0.3775 -0.1049  0.6376
 3108SOL    HW124744   1.995   4.973   1.516  0.5354  0.0529  0.1187
 3108SOL    HW224745   1.931   5.081   1.431 -0.1958 -0.0055  0.5946
 3109SOL     OW24746   2.784   2.573   8.745 -0.3408 -0.6652 -0.1676
 3109SOL    HW124747   2.836   2.593   8.667  1.0405 -0.4305  0.7875
 3109SOL    HW224748   2.734   2.652   8.762 -0.1850 -0.5037 -0.4521
 3110SOL     OW24749   3.716   5.438   9.743 -0.2649 -0.2247 -0.1996
 3110SOL    HW124750   3.768   5.503   9.791  1.1529 -1.5270  0.0595
 3110SOL    HW224751   3.732   5.459   9.651 -2.8906  2.1986 -0.1623
 3111SOL     OW24752   0.371   4.416   1.041 -0.0433  0.0330 -0.3237
 3111SOL    HW124753   0.404   4.453   0.959 -0.3597  0.7246 -0.1439
 3111SOL    HW224754   0.411   4.329   1.046 -0.6539 -0.3379 -1.6139
 3112SOL     OW24755   1.933   3.704   0.106 -0.2169 -0.3107 -0.3051
 3112SOL    HW124756   1.971   3.766   0.044  0.2106 -0.0994  0.1604
 3112SOL    HW224757   2.008   3.656   0.142 -0.4723 -0.5425 -0.0786
 3113SOL     OW24758   1.022   3.369  11.268  0.2947 -0.7096  0.1696
 3113SOL    HW124759   0.931   3.340  11.259  0.4176 -0.9750 -0.2680
 3113SOL    HW224760   1.055   3.321  11.343  0.5695 -1.9146 -0.7019
 3114SOL     OW24761   2.115   2.738   9.432 -0.5635  0.8385 -0.5996
 3114SOL    HW124762   2.082   2.649   9.443  1.4149  0.3506  1.9485
 3114SOL    HW224763   2.037   2.793   9.427 -1.7791 -0.8504 -0.5953
 3115SOL     OW24764   2.238   3.764   1.778 -0.0751  0.0437  0.2840
 3115SOL    HW124765   2.254   3.850   1.818  0.1158  0.1395  0.0132
 3115SOL    HW224766   2.214   3.707   1.850 -2.1226  0.7912  0.2029
 3116SOL     OW24767   3.192   1.349  11.738 -0.8859  0.0413 -0.0498
 3116SOL    HW124768   3.151   1.263  11.741  1.5733 -1.1668  0.2799
 3116SOL    HW224769   3.190   1.373  11.645 -0.9791 -0.6623 -0.2336
 3117SOL     OW24770   2.843   5.391   9.659 -0.4994 -0.2658 -0.4406
 3117SOL    HW124771   2.757   5.432   9.648  0.0194  1.1304  0.5253
 3117SOL    HW224772   2.905   5.458   9.629  0.2051 -1.7313 -2.3486
 3118SOL     OW24773   2.324   3.810   3.798 -0.0838 -0.1044  0.1242
 3118SOL    HW124774   2.337   3.771   3.885 -0.4354 -1.1427 -0.2775
 3118SOL    HW224775   2.234   3.844   3.801  0.4886  1.4036  0.7419
 3119SOL     OW24776   1.586   1.103   3.978  0.2702 -0.2999  0.0112
 3119SOL    HW124777   1.658   1.111   3.915  0.6679  0.5660  0.5596
 3119SOL    HW224778   1.613   1.159   4.051 -1.1283  0.3241  0.0610
 3120SOL     OW24779   1.965   0.947  10.854 -0.8547 -0.4248 -0.7175
 3120SOL    HW124780   1.983   0.899  10.773 -1.3072 -0.1159 -1.0020
 3120SOL    HW224781   2.003   1.034  10.839 -0.4246 -0.5508 -0.3719
 3121SOL     OW24782   0.085   5.122   2.879 -0.2197 -0.5752  0.1005
 3121SOL    HW124783   0.111   5.138   2.970 -1.1461  0.3772  0.2145
 3121SOL    HW224784   0.115   5.199   2.832 -0.0643 -0.9008 -0.3341
 3122SOL     OW24785   2.243   2.084   8.994  0.2237 -0.2874  0.0367
 3122SOL    HW124786   2.169   2.135   8.962  1.1406  1.1433  0.1195
 3122SOL    HW224787   2.283   2.047   8.916  0.5088  0.4756 -0.1857
 3123SOL     OW24788   5.031   3.827   2.140  0.2461 -0.1150 -0.4619
 3123SOL    HW124789   5.016   3.918   2.113 -0.7339 -0.5398 -1.4113
 3123SOL    HW224790   4.944   3.793   2.158  0.5086 -1.1656 -1.1229
 3124SOL     OW24791   3.852   3.979  11.714 -0.1276 -0.3834 -0.2556
 3124SOL    HW124792   3.801   3.933  11.781 -0.4227 -1.2569 -1.0604
 3124SOL    HW224793   3.938   3.990  11.753  0.0471 -1.9419 -0.1572
 3125SOL     OW24794   1.848   2.579   3.653  0.0583  0.3702 -0.0771
 3125SOL    HW124795   1.790   2.559   3.579  0.1315  1.8040 -0.5388
 3125SOL    HW224796   1.906   2.503   3.659 -0.0605  0.1633 -1.3859
 3126SOL     OW24797   3.194   1.803   0.971  0.5360  0.4183 -0.0023
 3126SOL    HW124798   3.239   1.782   0.889 -0.9412  0.5197 -0.8641
 3126SOL    HW224799   3.234   1.745   1.036  1.1652 -0.2409 -0.9550
 3127SOL     OW24800   4.837   4.432  12.504  0.9612  0.4549 -0.5264
 3127SOL    HW124801   4.779   4.485  12.450 -0.1149  0.7842  0.9087
 3127SOL    HW224802   4.872   4.366  12.445 -1.8741 -0.5485 -1.1554
 3128SOL     OW24803   1.890   0.339   8.772  0.5191  0.1531 -0.0988
 3128SOL    HW124804   1.813   0.282   8.775 -0.5577  1.3710 -3.1407
 3128SOL    HW224805   1.909   0.358   8.864 -0.9985 -2.5432  0.8149
 3129SOL     OW24806   4.707   4.573   0.412  0.7305 -0.2121 -0.4895
 3129SOL    HW124807   4.787   4.536   0.376  1.1143 -0.8537  0.9762
 3129SOL    HW224808   4.641   4.505   0.399  0.4144  0.2973 -1.6560
 3130SOL     OW24809   1.447   1.727  10.364 -0.8340  0.3555  0.0534
 3130SOL    HW124810   1.358   1.734  10.398 -1.0418  1.9981 -0.7796
 3130SOL    HW224811   1.437   1.742  10.270  0.2103 -0.3766 -0.1809
 3131SOL     OW24812   1.495   5.915   0.016 -0.0157  0.0920 -0.0386
 3131SOL    HW124813   1.584   5.901  -0.017 -0.6110 -1.9720 -0.8782
 3131SOL    HW224814   1.493   5.868   0.100 -0.2910  0.1784  0.0055
 3132SOL     OW24815   1.954   4.330   8.232  0.2226  0.6273 -0.0697
 3132SOL    HW124816   1.929   4.386   8.159 -2.7953  0.3420  0.6965
 3132SOL    HW224817   1.963   4.243   8.193 -2.5474  0.2446  0.0278
 3133SOL     OW24818   5.117   4.813   0.203 -0.4706  0.5428  0.3864
 3133SOL    HW124819   5.083   4.901   0.188  0.1056  0.2363 -3.3494
 3133SOL    HW224820   5.183   4.801   0.134  0.7262 -2.1514  1.9299
 3134SOL     OW24821   2.154   3.867  12.152  0.0828 -0.3576 -0.2076
 3134SOL    HW124822   2.157   3.777  12.118  0.0239 -0.1559 -0.7593
 3134SOL    HW224823   2.148   3.922  12.073 -1.0505  0.0744  0.1714
 3135SOL     OW24824   1.649   5.257   0.340 -0.6584 -0.1063  0.4437
 3135SOL    HW124825   1.652   5.318   0.414 -0.3803 -0.4119  0.6825
 3135SOL    HW224826   1.730   5.275   0.291 -0.5480 -0.3226  0.5446
 3136SOL     OW24827   1.003   1.849   1.550 -0.0298 -0.3704  1.0041
 3136SOL    HW124828   1.090   1.881   1.525 -0.6772  0.7348  0.1190
 3136SOL    HW224829   0.993   1.879   1.641 -0.1523  0.9827  0.5661
 3137SOL     OW24830   4.123   2.752   1.421 -0.1609 -0.0242 -0.6335
 3137SOL    HW124831   4.202   2.731   1.471  0.0495 -1.2854 -1.4603
 3137SOL    HW224832   4.104   2.843   1.443  1.3862  0.2178 -0.2266
 3138SOL     OW24833   1.097   4.219   1.365  0.3644 -0.4986  0.7689
 3138SOL    HW124834   1.141   4.212   1.281  1.4248  0.5791  1.2218
 3138SOL    HW224835   1.026   4.155   1.361 -1.2809  1.3956 -1.9727
 3139SOL     OW24836   2.520   4.409   0.917  0.0955  0.0158 -0.0165
 3139SOL    HW124837   2.424   4.413   0.923  0.0988  1.8557 -0.6350
 3139SOL    HW224838   2.549   4.494   0.950  1.5621 -0.8019  0.8269
 3140SOL     OW24839   5.422   4.736   3.926  0.4580 -0.2548 -0.2658
 3140SOL    HW124840   5.515   4.758   3.930  0.4944 -0.2347 -1.1753
 3140SOL    HW224841   5.397   4.722   4.018  1.7428 -1.8782 -0.1407
 3141SOL     OW24842   3.635   4.379  10.241 -0.1742  0.2227  0.6709
 3141SOL    HW124843   3.661   4.333  10.321  0.2458 -0.1221  0.3386
 3141SOL    HW224844   3.709   4.367  10.182 -0.3981  0.6580  0.3060
 3142SOL     OW24845   0.939   5.868   2.659 -0.1134 -0.0971 -0.3186
 3142SOL    HW124846   0.928   5.820   2.742 -2.0913  1.3897  0.3196
 3142SOL    HW224847   0.917   5.958   2.681 -0.3779  0.3621 -2.4156
 3143SOL     OW24848   3.074   0.782  10.999  0.0981 -0.1118  0.3041
 3143SOL    HW124849   2.995   0.778  10.945  0.1021 -3.8796  0.4698
 3143SOL    HW224850   3.061   0.859  11.054 -3.6426 -0.8761  0.6009
 3144SOL     OW24851   1.496   1.947   9.412  0.1541  0.1579 -0.2882
 3144SOL    HW124852   1.467   1.910   9.329 -1.0227 -0.0139  0.1901
 3144SOL    HW224853   1.428   2.010   9.435 -0.0654 -0.5653  1.0780
 3145SOL     OW24854   2.970   0.778  12.102 -0.1049  0.2325  0.0367
 3145SOL    HW124855   2.913   0.761  12.177  0.0676 -1.2417 -0.1463
 3145SOL    HW224856   2.910   0.796  12.029 -0.3395 -0.8249 -0.0414
 3146SOL     OW24857   2.362   4.997  11.153  0.2335 -0.4539  0.5787
 3146SOL    HW124858   2.411   5.079  11.163 -1.1371  0.1363  2.8573
 3146SOL    HW224859   2.305   4.994  11.229 -2.1958 -1.8879 -1.2226
 3147SOL     OW24860   3.521   2.884  10.416 -0.6388 -0.2783 -0.1048
 3147SOL    HW124861   3.473   2.803  10.434  0.5572 -1.2420 -1.1652
 3147SOL    HW224862   3.474   2.924  10.343 -0.4352 -0.7353 -0.4982
 3148SOL     OW24863   2.768   0.782   7.998  0.2388 -0.3910 -1.0184
 3148SOL    HW124864   2.775   0.874   7.972  0.6116  0.0187  0.4607
 3148SOL    HW224865   2.683   0.754   7.964 -0.7044  1.0512  0.0905
 3149SOL     OW24866   2.397   2.958   1.002 -0.0150 -0.2690  0.4235
 3149SOL    HW124867   2.477   2.989   1.045  1.3606 -2.4196 -0.4779
 3149SOL    HW224868   2.354   2.903   1.067 -2.1288  2.8834  1.8011
 3150SOL     OW24869   3.955   3.604   0.935 -0.3233 -0.8734 -0.3579
 3150SOL    HW124870   3.866   3.632   0.912 -0.1778 -0.1040  0.0221
 3150SOL    HW224871   4.008   3.683   0.931  0.2825 -1.2651 -0.2325
 3151SOL     OW24872   2.332   4.707   0.093 -0.0688  0.2758  0.2272
 3151SOL    HW124873   2.284   4.789   0.078  0.7939  0.6240 -0.7279
 3151SOL    HW224874   2.360   4.712   0.184 -0.4248  0.8291  0.3111
 3152SOL     OW24875   3.278   5.191   9.227  0.6268 -0.0594  0.0761
 3152SOL    HW124876   3.329   5.110   9.224 -0.4308 -0.7040 -1.2787
 3152SOL    HW224877   3.275   5.221   9.136  1.9197  2.1112  0.7116
 3153SOL     OW24878   0.483   3.583  11.790  0.3322  1.0665  0.4090
 3153SOL    HW124879   0.497   3.537  11.872 -1.5617 -2.3938 -1.1028
 3153SOL    HW224880   0.566   3.576  11.744  0.3364 -0.0806  0.5832
 3154SOL     OW24881   3.702   4.362   0.658  0.0441 -0.3153 -0.1131
 3154SOL    HW124882   3.739   4.276   0.641  1.9262 -0.2950  3.3450
 3154SOL    HW224883   3.747   4.420   0.597  1.3082 -1.2689 -0.1165
 3155SOL     OW24884   3.313   1.882   9.101 -0.0876  0.5728 -0.1687
 3155SOL    HW124885   3.228   1.840   9.087  0.3091 -0.3340  0.1134
 3155SOL    HW224886   3.334   1.863   9.192  1.0409 -0.3669 -0.6181
 3156SOL     OW24887   1.089   2.836   9.860 -0.1830  0.0823 -0.2665
 3156SOL    HW124888   1.081   2.792   9.775 -1.3076  0.4702 -0.3719
 3156SOL    HW224889   1.047   2.921   9.847 -1.9353 -0.5341  1.1437
 3157SOL     OW24890   1.723   4.443   2.423 -0.0910 -0.3593 -0.1670
 3157SOL    HW124891   1.771   4.388   2.361 -0.8065 -0.6885 -0.4407
 3157SOL    HW224892   1.649   4.389   2.451 -0.0382 -0.0385  0.6182
 3158SOL     OW24893   5.376   1.372   3.528 -0.0824 -0.4398  0.4574
 3158SOL    HW124894   5.365   1.434   3.456 -1.1496  0.3508  1.3003
 3158SOL    HW224895   5.469   1.349   3.525  0.0798  0.2985 -0.5828
 3159SOL     OW24896   4.211   0.515  11.711  0.2415 -0.0990 -0.8667
 3159SOL    HW124897   4.271   0.584  11.739 -0.2992 -0.4426  1.2266
 3159SOL    HW224898   4.126   0.558  11.705 -0.0077 -0.4636 -0.0356
 3160SOL     OW24899   5.591   4.029  11.460  0.2367 -0.2159 -0.4911
 3160SOL    HW124900   5.682   4.047  11.435  0.6985  0.0587  1.2890
 3160SOL    HW224901   5.558   4.113  11.492 -0.1470 -0.6591  0.3079
 3161SOL     OW24902   0.764   5.750  10.020  0.2879  0.1429  0.0140
 3161SOL    HW124903   0.730   5.839  10.010  2.0914  0.7017 -1.7106
 3161SOL    HW224904   0.687   5.696  10.037 -1.0203  1.8186 -0.4613
 3162SOL     OW24905   4.703   3.213   3.019 -0.3539  0.0704  0.2562
 3162SOL    HW124906   4.671   3.170   3.099 -1.4055 -0.1225 -0.2536
 3162SOL    HW224907   4.670   3.302   3.025  0.1540  0.2520  0.3668
 3163SOL     OW24908   1.864   2.960   2.859  0.1151 -0.1293  0.4942
 3163SOL    HW124909   1.842   2.893   2.923  0.1054 -1.4659 -0.8954
 3163SOL    HW224910   1.805   2.944   2.785  0.9850  0.6062 -0.3721
 3164SOL     OW24911   3.571   4.630   9.285  0.2263 -0.5100  0.2289
 3164SOL    HW124912   3.567   4.678   9.367 -1.8030 -0.2758  0.0071
 3164SOL    HW224913   3.647   4.667   9.239  0.0385  0.8816  1.0415
 3165SOL     OW24914   0.884   5.844   8.689  0.1839  0.4822  0.3216
 3165SOL    HW124915   0.891   5.927   8.736  3.8583  0.0703  0.6029
 3165SOL    HW224916   0.890   5.778   8.757  0.1480 -0.0542 -0.1945
 3166SOL     OW24917   5.811   0.929   4.325  0.2764  0.5680  0.4413
 3166SOL    HW124918   5.901   0.903   4.345  0.5244  1.2030  0.1826
 3166SOL    HW224919   5.758   0.852   4.344  1.0103 -0.1676 -0.4466
 3167SOL     OW24920   1.828   2.309   3.228  0.2431 -0.1081  0.4480
 3167SOL    HW124921   1.767   2.298   3.301  0.0987  1.7018  0.6240
 3167SOL    HW224922   1.851   2.402   3.229 -1.5437  0.4817 -3.2310
 3168SOL     OW24923   1.210   1.625   1.688  0.2313 -0.3289 -0.0912
 3168SOL    HW124924   1.154   1.701   1.671  1.2643  0.7942  1.4060
 3168SOL    HW224925   1.186   1.562   1.620  0.3371  1.8640 -2.2318
 3169SOL     OW24926   2.099   1.938   0.830 -0.3419  0.1998  0.2257
 3169SOL    HW124927   2.174   1.934   0.771 -0.6032 -0.4758 -0.0558
 3169SOL    HW224928   2.100   2.028   0.862  1.1485 -0.0477  0.9467
 3170SOL     OW24929   1.952   3.701  11.939  0.2888  0.0307 -0.6257
 3170SOL    HW124930   1.889   3.736  11.875 -0.0289  0.9327  0.1719
 3170SOL    HW224931   1.913   3.618  11.968  0.1357 -0.0839 -1.1529
 3171SOL     OW24932   0.761   0.814   9.906  0.0506  0.3041  0.4315
 3171SOL    HW124933   0.796   0.903   9.909 -1.8058  1.2767 -3.3632
 3171SOL    HW224934   0.823   0.765   9.851 -0.4423  0.0392  0.1015
 3172SOL     OW24935   1.504   0.323  11.388  0.0521 -0.4457 -0.1127
 3172SOL    HW124936   1.535   0.253  11.446 -1.7776  1.1419  2.9486
 3172SOL    HW224937   1.428   0.359  11.434 -0.8177  1.6033 -3.0593
 3173SOL     OW24938   3.137   5.666   4.051  0.0562 -0.1730  0.8498
 3173SOL    HW124939   3.111   5.588   4.004  1.1191 -0.9236  1.4928
 3173SOL    HW224940   3.061   5.688   4.105 -0.2308 -0.7859  0.6973
 3174SOL     OW24941   3.055   4.604   2.871 -0.1481 -0.5511  0.4623
 3174SOL    HW124942   3.012   4.532   2.825 -2.3500  0.6262  0.6145
 3174SOL    HW224943   3.077   4.666   2.801 -0.2286 -0.4005  0.5691
 3175SOL     OW24944   5.593   2.039   8.844 -0.1936  0.3748  0.7535
 3175SOL    HW124945   5.631   2.105   8.787  0.2306 -0.5494 -0.0522
 3175SOL    HW224946   5.505   2.025   8.808  0.1352 -0.3342  0.1919
 3176SOL     OW24947   2.071   2.992   2.133 -0.2578 -0.5899  0.5467
 3176SOL    HW124948   2.157   3.015   2.097 -0.4152 -1.0175 -0.1075
 3176SOL    HW224949   2.076   3.019   2.225  0.9056 -1.4366  0.7476
 3177SOL     OW24950   5.306   3.290   2.732  0.4810  0.0987 -0.3518
 3177SOL    HW124951   5.372   3.355   2.709  0.8108 -0.6476 -1.5676
 3177SOL    HW224952   5.228   3.318   2.685  0.5461 -0.2181 -0.6550
 3178SOL     OW24953   1.859   3.059  11.243 -0.2853  0.2595  0.3380
 3178SOL    HW124954   1.785   3.047  11.183  0.2093  0.5326 -0.3382
 3178SOL    HW224955   1.894   3.145  11.219 -0.5914  0.7414  1.5856
 3179SOL     OW24956   1.761   1.759   1.143  0.1849 -0.3874 -0.3716
 3179SOL    HW124957   1.733   1.822   1.210  0.6942  1.3559 -1.7566
 3179SOL    HW224958   1.680   1.722   1.109 -0.0473 -2.6275  2.3948
 3180SOL     OW24959   5.352   2.991  12.208  0.3433  0.3034 -0.1420
 3180SOL    HW124960   5.409   3.044  12.152  2.6428 -2.1040 -0.2031
 3180SOL    HW224961   5.272   2.979  12.158  1.4128  0.2744 -1.8766
 3181SOL     OW24962   5.813   1.344   1.282 -0.7292  0.0742 -0.4098
 3181SOL    HW124963   5.855   1.335   1.196  1.5293 -0.3282  0.7017
 3181SOL    HW224964   5.748   1.413   1.270 -1.4390 -0.9662 -2.8138
 3182SOL     OW24965   2.893   1.966  12.242 -0.2882  0.2095  0.1005
 3182SOL    HW124966   2.871   2.058  12.226  3.8026  1.3194  0.3324
 3182SOL    HW224967   2.871   1.952  12.334 -0.3265  1.1597  0.2423
 3183SOL     OW24968   3.801   1.401   1.239  0.2558  0.4569  0.0692
 3183SOL    HW124969   3.832   1.484   1.274  2.3732  0.7514 -2.3345
 3183SOL    HW224970   3.868   1.337   1.264 -1.7495 -0.7449  2.5986
 3184SOL     OW24971   5.371   5.180  12.089  0.3769 -0.4587 -0.4025
 3184SOL    HW124972   5.465   5.200  12.086 -0.0445  1.5064 -2.0286
 3184SOL    HW224973   5.360   5.126  12.167  2.5239  1.1295  1.0679
 3185SOL     OW24974   3.310   1.361   0.824  0.3203 -0.2383  0.1547
 3185SOL    HW124975   3.334   1.449   0.794 -1.3531  0.7633  1.6966
 3185SOL    HW224976   3.215   1.362   0.827  0.3514 -1.4511  2.1149
 3186SOL     OW24977   5.554   5.602  11.139  0.9075  0.0128 -0.2802
 3186SOL    HW124978   5.635   5.551  11.140  1.9605  1.6638  0.4328
 3186SOL    HW224979   5.518   5.590  11.227  1.4432  0.9250  0.0728
 3187SOL     OW24980   5.730   1.148   4.206  0.0059  0.4544 -0.1800
 3187SOL    HW124981   5.689   1.200   4.275 -0.4261  0.6716 -0.5859
 3187SOL    HW224982   5.754   1.065   4.248 -0.6363  0.4204  0.1263
 3188SOL     OW24983   5.455   3.166  12.002  0.4690  0.1227  0.4341
 3188SOL    HW124984   5.515   3.236  12.029  0.3182  0.6936 -0.6567
 3188SOL    HW224985   5.368   3.202  12.016  0.3879 -0.2270  0.8235
 3189SOL     OW24986   1.960   5.829   2.094 -0.4887 -0.1593  0.3547
 3189SOL    HW124987   1.911   5.747   2.082  1.4550 -1.4407  0.9098
 3189SOL    HW224988   2.051   5.804   2.082  0.2591  1.6372  2.0421
 3190SOL     OW24989   0.704   4.119   8.191  0.0901  0.2388  0.0799
 3190SOL    HW124990   0.791   4.125   8.151  0.7800 -0.2797  1.4417
 3190SOL    HW224991   0.682   4.026   8.187  0.2191  0.1633  0.9916
 3191SOL     OW24992   0.530   4.778   2.949  0.2770  0.2389  0.5802
 3191SOL    HW124993   0.575   4.813   3.026  0.1087 -1.6521  1.5707
 3191SOL    HW224994   0.464   4.844   2.928 -0.6808  0.0864  2.9774
 3192SOL     OW24995   5.069   5.477   8.700 -0.0056  0.2120  0.5295
 3192SOL    HW124996   5.140   5.495   8.761  0.4661 -0.6438  0.2446
 3192SOL    HW224997   5.109   5.484   8.614 -0.0348 -1.1665  0.3843
 3193SOL     OW24998   5.013   0.644   9.159 -0.5780  0.5842 -0.3129
 3193SOL    HW124999   5.044   0.673   9.245  0.3796 -1.5556  0.0837
 3193SOL    HW225000   5.093   0.636   9.106 -1.0727  0.9271 -1.1284
 3194SOL     OW25001   5.756   2.551   3.240  0.0723 -0.0074 -0.2600
 3194SOL    HW125002   5.741   2.487   3.309 -2.5558  0.1094 -0.6733
 3194SOL    HW225003   5.837   2.522   3.197 -0.9637 -2.9549 -0.3236
 3195SOL     OW25004   5.581   2.639   2.763  0.3703  0.5413  0.2871
 3195SOL    HW125005   5.672   2.643   2.791 -0.2178 -0.4407  2.3965
 3195SOL    HW225006   5.533   2.691   2.828 -1.0511 -2.0023  1.3485
 3196SOL     OW25007   1.360   2.509  10.154 -0.0360  0.3977  0.1984
 3196SOL    HW125008   1.416   2.454  10.099  0.2870 -0.0321  0.9481
 3196SOL    HW225009   1.280   2.459  10.166 -0.5251  0.9297 -0.7125
 3197SOL     OW25010   0.604   2.266   2.060 -0.2907 -0.1644  0.1688
 3197SOL    HW125011   0.583   2.346   2.109  0.4702  0.2996 -0.2571
 3197SOL    HW225012   0.668   2.293   1.995 -0.0826 -1.1108 -0.0359
 3198SOL     OW25013   2.641   4.121  12.223 -0.0409 -0.4951 -0.0462
 3198SOL    HW125014   2.662   4.042  12.272 -1.3692  0.2324  1.7591
 3198SOL    HW225015   2.725   4.152  12.189  0.8344 -1.2695  1.3951
 3199SOL     OW25016   2.271   5.291   9.876 -0.1607 -0.1667 -0.3011
 3199SOL    HW125017   2.246   5.381   9.897  2.3332 -0.1946  3.0594
 3199SOL    HW225018   2.198   5.238   9.908 -1.9105  0.6096 -2.8116
 3200SOL     OW25019   4.499   2.080  11.409 -0.0908  0.2082 -0.5269
 3200SOL    HW125020   4.571   2.133  11.375  0.8506  0.4845  1.7694
 3200SOL    HW225021   4.510   1.995  11.366  2.4189 -0.1644  0.7256
 3201SOL     OW25022   2.225   5.700   2.100 -0.3046  0.4295  0.0962
 3201SOL    HW125023   2.252   5.715   2.010 -1.5929 -1.6330 -0.6739
 3201SOL    HW225024   2.306   5.696   2.150  0.4303  1.2454 -1.0158
 3202SOL     OW25025   3.809   3.456   5.614 -0.0620 -0.8215  0.6642
 3202SOL    HW125026   3.758   3.407   5.678 -0.0866 -2.6537 -0.7123
 3202SOL    HW225027   3.848   3.388   5.558 -0.6044  0.7519 -1.6857
 3203SOL     OW25028   3.980   2.692  12.503  0.3981  0.0674 -0.1472
 3203SOL    HW125029   3.953   2.600  12.496  0.4281  0.0099  0.4867
 3203SOL    HW225030   4.040   2.705  12.430  0.9401 -0.6119  0.1756
 3204SOL     OW25031   5.208   2.808   9.329 -0.4562 -0.2059  0.3522
 3204SOL    HW125032   5.152   2.811   9.251 -1.3608  0.0319  1.0011
 3204SOL    HW225033   5.155   2.848   9.398  1.4909  2.4844  0.3901
 3205SOL     OW25034   3.638   1.786   1.132 -0.2106  0.1953 -0.2388
 3205SOL    HW125035   3.586   1.769   1.054  0.5654 -0.4893 -0.6129
 3205SOL    HW225036   3.598   1.732   1.200 -1.1614  1.1271 -0.0363
 3206SOL     OW25037   0.079   3.021   1.485 -0.0154  0.1047  0.0866
 3206SOL    HW125038   0.144   3.005   1.416  0.2089 -2.0166  0.7558
 3206SOL    HW225039   0.020   2.945   1.480 -2.4340  1.9452 -0.4622
 3207SOL     OW25040   0.982   0.330   2.095  0.5740  0.0058 -1.0470
 3207SOL    HW125041   0.941   0.288   2.171  0.5392 -0.7562 -1.4883
 3207SOL    HW225042   1.039   0.263   2.057  0.8260  0.4792 -1.5194
 3208SOL     OW25043   1.192   3.580   9.943  0.2941  0.2555  0.3776
 3208SOL    HW125044   1.143   3.659   9.967  0.7991 -0.0122  2.3658
 3208SOL    HW225045   1.138   3.508   9.976  1.4947 -0.0798  1.6536
 3209SOL     OW25046   3.961   5.913   0.738 -0.0699  0.0597 -0.0921
 3209SOL    HW125047   3.988   5.855   0.809  2.3046  0.9333 -0.2048
 3209SOL    HW225048   3.866   5.909   0.737 -0.0734 -0.9440  2.3056
 3210SOL     OW25049   5.893   2.983   3.533  0.0966  0.0979  0.2860
 3210SOL    HW125050   5.838   2.941   3.467  2.1171  2.0258 -2.7613
 3210SOL    HW225051   5.866   3.075   3.532  1.4301  0.5144  0.7654
 3211SOL     OW25052   1.563   5.591   0.164 -0.0185 -0.3755 -0.1016
 3211SOL    HW125053   1.486   5.540   0.188  0.2042 -0.9198 -0.5287
 3211SOL    HW225054   1.593   5.552   0.082 -0.0243  0.6468 -0.5976
 3212SOL     OW25055   5.777   0.025   1.435 -0.0366  0.1412 -0.0901
 3212SOL    HW125056   5.761  -0.022   1.354  1.0726  0.0264 -0.2523
 3212SOL    HW225057   5.802   0.113   1.408 -0.3323  0.2996  0.1476
 3213SOL     OW25058   2.124   0.871   3.826  0.5244 -0.1266 -0.1556
 3213SOL    HW125059   2.215   0.871   3.855  0.7431 -1.0536 -0.8326
 3213SOL    HW225060   2.108   0.783   3.794 -0.4734  0.1611 -0.4922
 3214SOL     OW25061   3.153   5.362   8.787 -0.1826  0.0521  0.2890
 3214SOL    HW125062   3.070   5.319   8.764 -0.8729  1.5731 -0.1997
 3214SOL    HW225063   3.144   5.450   8.750  1.3249  0.4946  0.9567
 3215SOL     OW25064   4.425   1.798  12.458 -0.1507  0.0595 -0.0417
 3215SOL    HW125065   4.410   1.892  12.471  0.0257 -0.0090  0.6532
 3215SOL    HW225066   4.457   1.792  12.367  1.8469  0.9137  0.5743
 3216SOL     OW25067   0.775   0.940   1.019  0.4361 -0.1682 -0.5272
 3216SOL    HW125068   0.732   0.969   1.100 -0.8019 -1.6048 -0.6566
 3216SOL    HW225069   0.799   1.022   0.975 -1.2760  0.6643  0.0373
 3217SOL     OW25070   4.700   3.694   8.127 -0.3950  0.0630  0.0727
 3217SOL    HW125071   4.775   3.705   8.069  1.2697 -1.0067  1.9539
 3217SOL    HW225072   4.734   3.644   8.201 -3.3810 -1.9856  0.1499
 3218SOL     OW25073   1.713   3.996  12.100 -0.9571 -0.7686  0.3188
 3218SOL    HW125074   1.716   3.963  12.189 -1.7362 -1.3492  0.1373
 3218SOL    HW225075   1.790   4.053  12.092 -1.1210 -0.3909  1.4777
 3219SOL     OW25076   2.374   2.047  11.280 -0.8954 -0.5152  0.4808
 3219SOL    HW125077   2.406   2.024  11.367 -0.0985  2.0976  0.9162
 3219SOL    HW225078   2.450   2.038  11.223 -0.0223  2.9186  1.0155
 3220SOL     OW25079   4.887   3.218   2.240 -0.3282  0.0204 -0.5525
 3220SOL    HW125080   4.806   3.188   2.199  0.2651 -0.0922 -1.6469
 3220SOL    HW225081   4.858   3.261   2.321 -1.4231 -0.6385 -0.5800
 3221SOL     OW25082   1.761   0.117   0.678  0.6443  0.2015 -0.8113
 3221SOL    HW125083   1.693   0.185   0.676  0.2038 -0.1934  0.4911
 3221SOL    HW225084   1.760   0.085   0.768  2.0723 -0.3065 -0.9718
 3222SOL     OW25085   4.657   2.486   1.207  0.1181  0.8130  0.1126
 3222SOL    HW125086   4.622   2.413   1.259  2.1943  0.5966  1.2454
 3222SOL    HW225087   4.585   2.511   1.150 -1.0326 -1.3160  0.5905
 3223SOL     OW25088   3.620   2.722   9.467  0.2836  0.0906 -0.3066
 3223SOL    HW125089   3.586   2.651   9.520 -0.8865  0.4300 -0.5758
 3223SOL    HW225090   3.658   2.784   9.529 -1.0352  0.4662  0.1544
 3224SOL     OW25091   3.395   4.711  10.091  0.1671  0.1809  0.3268
 3224SOL    HW125092   3.323   4.755  10.046 -0.0678  0.5775  1.0719
 3224SOL    HW225093   3.362   4.622  10.107  0.4042 -0.0841 -0.6307
 3225SOL     OW25094   2.720   2.686   3.934 -0.5002  0.2883  0.2369
 3225SOL    HW125095   2.802   2.695   3.984  1.1026 -0.6551 -2.1506
 3225SOL    HW225096   2.698   2.594   3.940 -0.3797  0.1984 -0.6648
 3226SOL     OW25097   5.469   3.297   2.070  0.1587  0.1476  0.2780
 3226SOL    HW125098   5.423   3.216   2.092  1.0176 -0.6077 -0.6997
 3226SOL    HW225099   5.531   3.310   2.141 -0.4401  0.3130  0.7774
 3227SOL     OW25100   4.602   5.261   9.368 -0.3051 -0.7053  0.2526
 3227SOL    HW125101   4.645   5.224   9.291 -0.3145 -0.9326  0.3558
 3227SOL    HW225102   4.667   5.322   9.403 -1.5258  1.9005 -1.8053
 3228SOL     OW25103   1.888   5.851   0.598 -0.1371  0.0822  0.3437
 3228SOL    HW125104   1.970   5.852   0.647  0.5940  0.4822 -0.8529
 3228SOL    HW225105   1.841   5.929   0.628  1.1435  1.3731 -0.9652
 3229SOL     OW25106   0.588   0.279  11.886  0.1928 -0.1723  0.4787
 3229SOL    HW125107   0.656   0.268  11.818  0.7277 -0.5358  1.0666
 3229SOL    HW225108   0.617   0.222  11.957 -0.1671  0.5004  1.1680
 3230SOL     OW25109   5.893   3.936   9.027  0.2262 -0.0871 -0.7861
 3230SOL    HW125110   5.976   3.910   9.064  0.2966  0.2320 -0.7156
 3230SOL    HW225111   5.832   3.865   9.049  0.0849  0.4557  0.5839
 3231SOL     OW25112   0.545   3.454  12.017  0.2965  0.3495 -0.0926
 3231SOL    HW125113   0.516   3.391  12.083  0.8909 -0.7463 -0.8786
 3231SOL    HW225114   0.610   3.508  12.062  1.2951 -0.9111 -0.0201
 3232SOL     OW25115   3.137   4.967  12.336 -0.8690 -0.4515 -0.4340
 3232SOL    HW125116   3.196   4.894  12.320  0.7889  0.9126 -0.6780
 3232SOL    HW225117   3.154   4.993  12.427 -0.4770  0.4752 -0.7630
 3233SOL     OW25118   4.440   0.482   0.742  0.1337 -0.2080 -0.2666
 3233SOL    HW125119   4.509   0.479   0.808  0.6965 -0.2978 -0.8500
 3233SOL    HW225120   4.380   0.549   0.773  0.4332 -0.1945  0.2943
 3234SOL     OW25121   2.505   2.959   0.351 -0.3661 -0.2184 -0.1664
 3234SOL    HW125122   2.441   2.981   0.284 -0.0017  0.3676 -0.3204
 3234SOL    HW225123   2.582   2.932   0.302 -0.1849 -0.0363  0.0209
 3235SOL     OW25124   5.276   5.692   2.902 -0.2691  0.3384  0.3578
 3235SOL    HW125125   5.344   5.719   2.840 -0.9585  2.6050  0.5513
 3235SOL    HW225126   5.216   5.639   2.850  1.5605 -1.5858  0.1540
 3236SOL     OW25127   3.943   5.815   1.015  0.0421 -0.3168  0.1010
 3236SOL    HW125128   3.982   5.743   1.064 -1.0197  1.1995  3.3226
 3236SOL    HW225129   4.012   5.881   1.010  0.1541 -0.4742 -0.4850
 3237SOL     OW25130   0.423   1.460   2.343 -0.0777 -0.0175  0.2235
 3237SOL    HW125131   0.405   1.509   2.424 -0.5901  1.1069 -0.5604
 3237SOL    HW225132   0.514   1.432   2.353  0.8875  2.7916 -0.1313
 3238SOL     OW25133   3.869   1.497   3.363 -0.0310  0.0223  0.0655
 3238SOL    HW125134   3.855   1.458   3.449 -4.0416  0.2976 -0.3352
 3238SOL    HW225135   3.802   1.565   3.356 -1.2624 -1.4107 -4.0662
 3239SOL     OW25136   5.360   5.086   9.633 -0.0123  0.2409  0.4819
 3239SOL    HW125137   5.311   5.135   9.699 -1.5456 -0.0103 -0.4450
 3239SOL    HW225138   5.451   5.112   9.647 -0.4886  1.3308  1.7174
 3240SOL     OW25139   4.430   1.849   1.803 -0.0892 -0.4559  0.2044
 3240SOL    HW125140   4.474   1.769   1.831  0.5357 -0.5975 -1.1831
 3240SOL    HW225141   4.418   1.899   1.885 -0.6746 -2.0252  1.1031
 3241SOL     OW25142   3.332   4.990   2.924  0.1788 -0.2564  0.3846
 3241SOL    HW125143   3.348   4.897   2.912 -1.3912 -0.4938  0.1420
 3241SOL    HW225144   3.324   5.001   3.019 -0.0601 -0.4263  0.3825
 3242SOL     OW25145   4.674   2.836  10.235  0.4269  0.0904 -0.1745
 3242SOL    HW125146   4.761   2.853  10.271 -0.6598  0.1242  2.5530
 3242SOL    HW225147   4.637   2.923  10.221  0.6132  0.0667 -0.8786
 3243SOL     OW25148   2.026   1.327   9.527  0.0362 -0.1996 -0.5727
 3243SOL    HW125149   2.028   1.253   9.588  0.7447  1.8670  1.9935
 3243SOL    HW225150   1.935   1.334   9.501 -0.6059 -0.0755  1.6049
 3244SOL     OW25151   0.709   3.618   2.820 -0.3066 -0.5901  0.1859
 3244SOL    HW125152   0.692   3.586   2.908 -0.4337 -2.8772 -0.6313
 3244SOL    HW225153   0.686   3.544   2.763  0.4362  0.6070 -1.7017
 3245SOL     OW25154   3.956   1.213  11.155  0.0766  0.3864  0.3016
 3245SOL    HW125155   3.960   1.259  11.239  0.6735  1.6716 -0.4218
 3245SOL    HW225156   3.865   1.224  11.127  0.2733  1.3024  0.0278
 3246SOL     OW25157   1.046   2.999   2.928  0.2345  0.1040 -0.6924
 3246SOL    HW125158   1.107   3.005   3.002  0.8415 -1.3054 -1.0694
 3246SOL    HW225159   1.050   3.085   2.886  0.1009  0.8228  0.7441
 3247SOL     OW25160   4.896   4.560   9.769 -1.2470 -0.8382 -0.1945
 3247SOL    HW125161   4.873   4.472   9.799 -0.8036 -1.1424 -0.7450
 3247SOL    HW225162   4.865   4.563   9.679 -0.1576 -0.8610 -0.5793
 3248SOL     OW25163   0.751   0.075  10.842 -0.5703 -0.0830 -0.0831
 3248SOL    HW125164   0.738   0.167  10.819 -0.2396  0.1590  0.6799
 3248SOL    HW225165   0.785   0.035  10.762 -1.8492  0.1942 -0.7787
 3249SOL     OW25166   1.329   2.798   8.361  0.8980  0.2506 -0.1727
 3249SOL    HW125167   1.359   2.707   8.369 -0.9412 -0.4270 -0.7105
 3249SOL    HW225168   1.390   2.839   8.300  1.8570 -0.5686  0.2294
 3250SOL     OW25169   2.705   4.006   3.794 -0.2413  0.0082  0.1813
 3250SOL    HW125170   2.642   4.059   3.844 -1.0768 -1.4740  0.7428
 3250SOL    HW225171   2.776   4.066   3.774 -0.9529  1.2283  1.2022
 3251SOL     OW25172   0.781   1.873   0.701 -0.8386  0.3600  0.0214
 3251SOL    HW125173   0.697   1.892   0.659 -1.4238 -0.3423  0.8462
 3251SOL    HW225174   0.780   1.778   0.714 -0.2584  0.4469  0.7434
 3252SOL     OW25175   4.981   0.644   3.429  0.4153 -0.1372  0.4180
 3252SOL    HW125176   4.905   0.648   3.488  1.2154  0.7826  1.4282
 3252SOL    HW225177   4.946   0.670   3.344 -0.2165  1.2948  1.0826
 3253SOL     OW25178   5.436   4.735   0.332  0.5463 -0.0595 -1.0303
 3253SOL    HW125179   5.394   4.796   0.393  1.9653 -0.2460  0.1572
 3253SOL    HW225180   5.459   4.660   0.386  3.3599  0.4897 -1.4041
 3254SOL     OW25181   1.293   1.608   9.237  0.5155 -0.4689  0.6512
 3254SOL    HW125182   1.207   1.578   9.268 -0.1761  0.9458  0.1271
 3254SOL    HW225183   1.278   1.635   9.146  1.1616  1.2504  1.0350
 3255SOL     OW25184   0.898   2.529   2.432  0.5416  0.3706  0.1943
 3255SOL    HW125185   0.804   2.515   2.432  0.6749 -0.6185  1.8520
 3255SOL    HW225186   0.913   2.589   2.359 -1.1539 -0.8018 -1.1586
 3256SOL     OW25187   0.162   3.169   3.427 -0.1459  1.1243  0.0213
 3256SOL    HW125188   0.154   3.125   3.512  0.5761 -1.8176 -1.3644
 3256SOL    HW225189   0.221   3.243   3.444  0.5975  0.1289  1.9296
 3257SOL     OW25190   5.518   2.914  10.967 -0.8320  0.2021  0.4558
 3257SOL    HW125191   5.595   2.956  10.928 -2.4346  2.0551 -0.8473
 3257SOL    HW225192   5.546   2.889  11.055  0.5439  3.1244  0.9180
 3258SOL     OW25193   3.258   0.005   7.934  0.0473 -0.1172  0.5767
 3258SOL    HW125194   3.341   0.036   7.971  0.2766 -0.5194  0.4052
 3258SOL    HW225195   3.213   0.085   7.907  1.4633 -0.0231 -1.6278
 3259SOL     OW25196   1.308   1.876   9.753  0.2004 -0.1050 -0.3277
 3259SOL    HW125197   1.402   1.881   9.769  0.1807 -1.1651  0.1427
 3259SOL    HW225198   1.300   1.852   9.661  0.4104 -1.3014 -0.0372
 3260SOL     OW25199   0.810   4.194   0.471  0.2220 -0.6641  0.1169
 3260SOL    HW125200   0.781   4.282   0.447 -0.7487 -1.0542 -0.1868
 3260SOL    HW225201   0.843   4.156   0.390 -0.2156 -0.8978  0.0425
 3261SOL     OW25202   4.476   4.824   9.468  0.3405 -0.4878  0.3071
 3261SOL    HW125203   4.558   4.868   9.448  1.1411 -0.3758  3.5138
 3261SOL    HW225204   4.446   4.866   9.549 -2.6878 -0.7889 -0.5876
 3262SOL     OW25205   0.976   3.181  12.135  0.6164  0.1100  0.5438
 3262SOL    HW125206   1.005   3.209  12.048  0.1822 -1.5603 -0.1660
 3262SOL    HW225207   0.955   3.262  12.181  0.4602  0.9960 -1.0496
 3263SOL     OW25208   2.789   0.760  10.927  0.4879  0.1146 -0.4064
 3263SOL    HW125209   2.805   0.803  10.842  1.2128  0.7882  0.0638
 3263SOL    HW225210   2.757   0.830  10.984  1.7389  0.0572  0.3865
 3264SOL     OW25211   0.048   5.919   3.047  0.4541 -0.3259  0.0477
 3264SOL    HW125212   0.026   5.832   3.081  0.5622  0.7423  2.9898
 3264SOL    HW225213  -0.001   5.979   3.103  2.3611  1.6213 -0.3256
 3265SOL     OW25214   4.880   1.855   1.954  0.1475 -0.3892 -0.0484
 3265SOL    HW125215   4.916   1.860   1.865  0.9469  0.4649  0.3131
 3265SOL    HW225216   4.926   1.924   2.002 -0.1654 -0.9597  1.0722
 3266SOL     OW25217   3.633   3.710   3.099  0.1815 -0.5374  0.0204
 3266SOL    HW125218   3.547   3.695   3.060  1.0478  0.0253 -2.1957
 3266SOL    HW225219   3.658   3.797   3.069  1.7276 -0.8754  0.2728
 3267SOL     OW25220   0.883   0.078   1.389 -1.1605 -0.4200  0.0353
 3267SOL    HW125221   0.902   0.172   1.393 -1.8026 -0.2917  0.0480
 3267SOL    HW225222   0.881   0.058   1.296 -0.7324 -0.4798  0.0380
 3268SOL     OW25223   2.847   5.333   3.383  0.6266  0.2632  0.1093
 3268SOL    HW125224   2.872   5.320   3.291  0.1771  1.1241 -0.1428
 3268SOL    HW225225   2.884   5.257   3.429  1.7670  0.3660 -0.6119
 3269SOL     OW25226   1.952   2.665   0.805 -0.5512 -0.2936 -0.1089
 3269SOL    HW125227   1.887   2.639   0.871 -1.3062  0.0207 -0.7105
 3269SOL    HW225228   1.964   2.759   0.820  0.5523 -0.5484  0.6711
 3270SOL     OW25229   2.140   4.892  10.507 -0.6082  0.0899 -0.4163
 3270SOL    HW125230   2.107   4.843  10.582 -0.4067  1.3420  0.5078
 3270SOL    HW225231   2.152   4.982  10.540  1.9155  0.1002 -1.2125
 3271SOL     OW25232   0.426   0.570  11.103 -0.2097 -0.1288  0.3367
 3271SOL    HW125233   0.444   0.539  11.015 -0.0877 -0.7894  0.5915
 3271SOL    HW225234   0.401   0.662  11.092 -0.7823 -0.3717 -0.4401
 3272SOL     OW25235   0.057   4.488   8.953 -0.2747 -0.0417 -0.5853
 3272SOL    HW125236   0.083   4.424   8.886  0.9472 -3.2074  2.6861
 3272SOL    HW225237   0.133   4.545   8.961  0.1268 -0.5115 -0.9437
 3273SOL     OW25238   5.322   1.894   0.887  0.1618  0.3633 -0.2276
 3273SOL    HW125239   5.302   1.826   0.822 -0.6982  1.4574 -1.1439
 3273SOL    HW225240   5.398   1.941   0.850 -0.0831  0.7416 -0.2554
 3274SOL     OW25241   1.598   3.595  10.527  0.2797 -0.1959  0.0806
 3274SOL    HW125242   1.601   3.633  10.439  1.0341 -1.0346 -0.2630
 3274SOL    HW225243   1.686   3.606  10.561 -1.0744  4.0624  2.4482
 3275SOL     OW25244   3.502   3.924   1.444  0.2890 -0.2402  0.2312
 3275SOL    HW125245   3.428   3.873   1.410  1.3389 -0.6771 -1.4467
 3275SOL    HW225246   3.469   3.962   1.525 -2.1622  0.4967 -1.0535
 3276SOL     OW25247   3.248   0.293   2.077  0.0150  0.0289  0.4823
 3276SOL    HW125248   3.198   0.228   2.126 -0.1461 -0.0608  0.2014
 3276SOL    HW225249   3.285   0.245   2.003 -0.7681  0.4182 -0.1783
 3277SOL     OW25250   5.862   4.968   3.332  0.1848  0.0296 -0.1081
 3277SOL    HW125251   5.769   4.967   3.357  0.1765 -0.0115 -0.1368
 3277SOL    HW225252   5.907   4.926   3.405  0.1239 -0.4053 -0.3190
 3278SOL     OW25253   1.097   2.261  10.660 -0.4991 -0.2382 -0.1435
 3278SOL    HW125254   1.050   2.208  10.596 -0.4892 -1.5564  0.9195
 3278SOL    HW225255   1.096   2.208  10.740  1.2008  0.5224  0.3912
 3279SOL     OW25256   3.785   1.366   0.624 -0.0881  0.0705 -0.3083
 3279SOL    HW125257   3.873   1.390   0.654  0.3594 -0.6653 -1.0272
 3279SOL    HW225258   3.765   1.285   0.670 -0.0003 -0.2702 -0.8626
 3280SOL     OW25259   2.255   5.371   8.546  0.0555  0.3446 -0.1528
 3280SOL    HW125260   2.178   5.326   8.581  0.4117  0.4631  0.8055
 3280SOL    HW225261   2.291   5.311   8.482  0.8520 -1.0156  1.5248
 3281SOL     OW25262   1.789   5.424   2.594  0.3099 -0.2151  0.0549
 3281SOL    HW125263   1.874   5.400   2.630 -0.5061 -0.3737  1.9221
 3281SOL    HW225264   1.782   5.518   2.611  0.2265 -0.1509 -0.3321
 3282SOL     OW25265   5.899   0.149   3.464  0.1320  0.1612  0.3146
 3282SOL    HW125266   5.831   0.186   3.520 -1.3082 -0.9873 -0.6201
 3282SOL    HW225267   5.952   0.095   3.522 -1.1576 -0.7613  0.6837
 3283SOL     OW25268   5.889   5.217  11.642 -0.5058 -0.0256  0.2149
 3283SOL    HW125269   5.978   5.222  11.607 -0.2353 -0.7017  0.8150
 3283SOL    HW225270   5.850   5.301  11.616  0.0711 -0.0139 -0.6655
 3284SOL     OW25271   0.449   3.648   3.125 -0.2849 -0.0714  0.3314
 3284SOL    HW125272   0.460   3.742   3.136  1.6014  0.0300 -2.0141
 3284SOL    HW225273   0.535   3.616   3.101 -1.5771 -1.8827 -2.1351
 3285SOL     OW25274   5.052   1.616  12.118  0.6600  0.8169  0.3150
 3285SOL    HW125275   5.011   1.565  12.188 -1.5539  1.4092 -0.4879
 3285SOL    HW225276   5.079   1.550  12.054  1.0856  0.3979  0.9209
 3286SOL     OW25277   4.596   1.493   3.228  0.1101  0.9440 -0.3312
 3286SOL    HW125278   4.628   1.537   3.149  5.1008  0.7583  1.4130
 3286SOL    HW225279   4.611   1.556   3.298 -0.9058 -0.2327  0.9725
 3287SOL     OW25280   0.687   1.760   0.356  0.0907  0.0724 -0.0319
 3287SOL    HW125281   0.703   1.817   0.431  0.3938 -2.5688  1.9396
 3287SOL    HW225282   0.596   1.732   0.365  0.8447 -2.1828  0.7027
 3288SOL     OW25283   5.209   2.528  10.758 -0.2894 -0.1264 -0.5438
 3288SOL    HW125284   5.273   2.598  10.768 -1.5110  0.9513 -0.1799
 3288SOL    HW225285   5.262   2.449  10.745  1.0990  0.8718 -1.1220
 3289SOL     OW25286   4.994   0.747   9.542  0.2946  0.0398 -0.2925
 3289SOL    HW125287   4.961   0.658   9.529 -1.5176  0.9994 -2.5845
 3289SOL    HW225288   4.928   0.788   9.599  1.0666 -0.0192  0.6618
 3290SOL     OW25289   0.169   4.611   0.024 -0.0770 -0.1732 -0.0195
 3290SOL    HW125290   0.143   4.698   0.053 -0.9262 -0.6346  0.6280
 3290SOL    HW225291   0.187   4.563   0.104 -0.8981 -0.9850 -0.3121
 3291SOL     OW25292   4.622   4.909   2.584 -0.2824  0.0210 -0.8775
 3291SOL    HW125293   4.672   4.895   2.665 -0.5077 -0.6775 -0.8598
 3291SOL    HW225294   4.689   4.928   2.518 -0.0559 -0.0142 -0.6592
 3292SOL     OW25295   4.317   3.493  10.653 -0.9052  0.3172  0.4375
 3292SOL    HW125296   4.389   3.446  10.694 -0.2014  0.4918 -0.5680
 3292SOL    HW225297   4.245   3.488  10.716 -0.5393 -1.2833  0.7404
 3293SOL     OW25298   2.407   0.155   2.896  0.0973 -0.5245 -0.2235
 3293SOL    HW125299   2.485   0.180   2.846 -0.7354  0.8321 -0.8708
 3293SOL    HW225300   2.341   0.136   2.829 -0.0214 -2.1089  0.3110
 3294SOL     OW25301   2.923   2.880   1.159  0.1823 -0.4295 -0.3587
 3294SOL    HW125302   2.947   2.973   1.148  1.2494 -0.6120  0.3074
 3294SOL    HW225303   2.915   2.847   1.070  0.1170  0.2257 -0.6037
 3295SOL     OW25304   4.935   1.477   8.586  0.0176 -0.0103  0.5296
 3295SOL    HW125305   5.018   1.429   8.592  0.5391  0.5899 -1.6443
 3295SOL    HW225306   4.961   1.568   8.570 -1.0102  0.7186  2.7839
 3296SOL     OW25307   2.956   2.599   1.774 -0.1168  0.2524 -0.1877
 3296SOL    HW125308   2.942   2.543   1.851  0.8250  0.0299 -0.1676
 3296SOL    HW225309   2.923   2.546   1.701 -0.4794  0.2259 -0.0087
 3297SOL     OW25310   4.420   3.242  12.399 -0.5423  0.5839 -0.8553
 3297SOL    HW125311   4.465   3.203  12.323  0.5577 -0.8895  0.5246
 3297SOL    HW225312   4.489   3.290  12.445 -0.9669  0.5479 -0.1777
 3298SOL     OW25313   3.498   4.384   3.565 -0.1306  0.3367 -0.2447
 3298SOL    HW125314   3.503   4.435   3.485  0.6712 -0.4273 -0.6978
 3298SOL    HW225315   3.477   4.448   3.633  2.2239  1.5197 -0.5793
 3299SOL     OW25316   2.075   2.276   3.377 -0.1774  0.9501 -0.1202
 3299SOL    HW125317   2.146   2.263   3.315 -0.4632 -3.3691  0.3409
 3299SOL    HW225318   1.997   2.285   3.322  0.0238  0.4776 -0.4895
 3300SOL     OW25319   5.918   0.934   8.980  0.9046 -0.5787  0.1248
 3300SOL    HW125320   5.880   1.001   8.923  1.5099  0.0786  0.4792
 3300SOL    HW225321   5.864   0.856   8.966  1.5294 -0.6618 -1.9365
 3301SOL     OW25322   3.254   4.402   1.307 -0.4863 -0.4270  0.4661
 3301SOL    HW125323   3.325   4.381   1.368 -2.0441 -1.1582  2.0666
 3301SOL    HW225324   3.292   4.388   1.221  0.4969 -3.5668  1.3422
 3302SOL     OW25325   0.097   3.636   8.185  0.0200 -0.1902 -0.7072
 3302SOL    HW125326   0.182   3.633   8.142 -0.0382 -2.6409 -0.6910
 3302SOL    HW225327   0.033   3.627   8.114 -0.0862 -3.5782 -0.2645
 3303SOL     OW25328   4.201   1.065  12.329 -0.4500  0.4734  0.0237
 3303SOL    HW125329   4.285   1.043  12.290 -1.1240 -0.2733 -1.0522
 3303SOL    HW225330   4.140   1.069  12.255 -1.3538  1.0232  0.7827
 3304SOL     OW25331   0.105   3.218   9.812 -0.4167 -0.4357 -0.5617
 3304SOL    HW125332   0.124   3.129   9.783  0.7477  0.0283 -1.2375
 3304SOL    HW225333   0.107   3.270   9.732  1.1261  0.5759  0.1081
 3305SOL     OW25334   1.753   2.124  12.450  0.5338  0.2901 -0.3612
 3305SOL    HW125335   1.740   2.111  12.356  1.0091  0.3675 -0.4409
 3305SOL    HW225336   1.842   2.159  12.457  0.2812  0.8372  0.0721
 3306SOL     OW25337   5.867   2.643   9.946  0.8538  0.2571  0.8400
 3306SOL    HW125338   5.802   2.626  10.014  2.2529 -0.4331  2.0326
 3306SOL    HW225339   5.867   2.738   9.936 -0.4394  0.2558  0.7109
 3307SOL     OW25340   3.148   2.794   0.800  0.2306 -0.3682 -0.1595
 3307SOL    HW125341   3.154   2.741   0.880 -2.1992 -0.6350 -0.1141
 3307SOL    HW225342   3.239   2.820   0.782  1.1786 -2.5173  1.1824
 3308SOL     OW25343   0.245   1.489  12.426  0.2090 -0.5547  0.4818
 3308SOL    HW125344   0.150   1.475  12.427  0.0494  0.4553  0.4355
 3308SOL    HW225345   0.280   1.411  12.383 -0.6452 -0.7257  0.0713
 3309SOL     OW25346   1.875   5.581   8.558  0.5000  0.7584 -0.2814
 3309SOL    HW125347   1.869   5.491   8.589  0.3039 -0.1158 -2.7686
 3309SOL    HW225348   1.943   5.621   8.613  1.1256 -1.1021  0.3249
 3310SOL     OW25349   0.966   5.697   0.614 -0.1691  0.0308  0.2096
 3310SOL    HW125350   0.954   5.768   0.677 -0.8394  0.9226 -0.9088
 3310SOL    HW225351   0.899   5.712   0.547  0.0498 -1.3291 -0.3412
 3311SOL     OW25352   5.260   1.784  10.257 -0.1572 -0.2562 -0.1038
 3311SOL    HW125353   5.339   1.776  10.310  0.2457 -1.1264 -0.8149
 3311SOL    HW225354   5.275   1.862  10.203 -0.7049  0.8165  1.2651
 3312SOL     OW25355   3.157   5.391  10.299 -0.1310  0.4236  0.9739
 3312SOL    HW125356   3.091   5.434  10.244  0.3565  0.0348  0.0647
 3312SOL    HW225357   3.229   5.454  10.302  1.6868 -1.2975 -2.5451
 3313SOL     OW25358   3.362   4.625  10.373 -0.2475 -0.2074  0.0128
 3313SOL    HW125359   3.268   4.608  10.366 -0.0856 -0.4904 -1.5502
 3313SOL    HW225360   3.370   4.719  10.357 -0.3601  0.0341  1.2637
 3314SOL     OW25361   2.160   2.046   0.030 -0.5911 -0.2980  0.3691
 3314SOL    HW125362   2.145   2.125  -0.022  1.4981  0.1441  0.3921
 3314SOL    HW225363   2.079   2.034   0.080 -1.0379  1.6788  0.1629
 3315SOL     OW25364   5.506   2.696   9.580  0.0496  0.2513 -0.4894
 3315SOL    HW125365   5.538   2.672   9.493  0.4856  0.5247 -0.4105
 3315SOL    HW225366   5.484   2.789   9.572 -0.8837  0.0266 -0.5870
 3316SOL     OW25367   3.220   5.338   1.889 -0.3072 -0.4580 -0.2314
 3316SOL    HW125368   3.160   5.341   1.814 -1.0561  0.7241  0.4060
 3316SOL    HW225369   3.301   5.378   1.856 -0.5431 -0.1964 -0.4957
 3317SOL     OW25370   4.452   5.484  11.808 -0.5214 -0.3991 -0.4320
 3317SOL    HW125371   4.360   5.459  11.818  0.0579 -2.8310 -0.7649
 3317SOL    HW225372   4.462   5.562  11.862 -2.6256 -0.5058  0.1575
 3318SOL     OW25373   3.643   0.071   1.693 -0.9258 -0.4150  0.3250
 3318SOL    HW125374   3.615   0.011   1.624 -0.2273  0.7989 -1.0459
 3318SOL    HW225375   3.684   0.144   1.647  1.7628 -0.7012  2.1372
 3319SOL     OW25376   5.186   1.183   3.420  0.2296  0.4714  0.5084
 3319SOL    HW125377   5.272   1.217   3.443  0.8748 -0.9843  0.3320
 3319SOL    HW225378   5.134   1.191   3.500  1.0189 -0.1436  1.0906
 3320SOL     OW25379   5.695   5.805   0.236  0.6485 -0.4754 -0.5617
 3320SOL    HW125380   5.783   5.839   0.247  0.6985 -1.3741  2.1327
 3320SOL    HW225381   5.638   5.878   0.260  0.6955 -0.6733  0.1645
 3321SOL     OW25382   3.201   4.811   9.187 -0.1895  0.0543 -0.0316
 3321SOL    HW125383   3.134   4.782   9.124 -1.5468  2.3112  0.3146
 3321SOL    HW225384   3.192   4.750   9.260 -1.6493  0.1023 -0.1408
 3322SOL     OW25385   2.819   3.117   2.328 -0.3762  0.1601 -0.4115
 3322SOL    HW125386   2.759   3.149   2.395 -0.8947  0.0096 -0.8065
 3322SOL    HW225387   2.900   3.098   2.376 -0.4043  1.0516  0.0002
 3323SOL     OW25388   3.128   1.019   2.575  0.5765  0.1160  0.7738
 3323SOL    HW125389   3.182   1.076   2.631 -0.7393  1.5540  0.6114
 3323SOL    HW225390   3.073   0.971   2.637  1.0105 -0.2745  0.8593
 3324SOL     OW25391   1.471   2.534   9.858 -0.1057 -1.2809 -0.0806
 3324SOL    HW125392   1.541   2.469   9.861  0.5282 -0.5136  2.0755
 3324SOL    HW225393   1.391   2.482   9.851  0.4814 -2.2470  0.2951
 3325SOL     OW25394   1.492   4.503   3.307 -0.0355 -0.3241 -0.5302
 3325SOL    HW125395   1.518   4.485   3.397 -0.0817 -0.8087 -0.6156
 3325SOL    HW225396   1.532   4.433   3.255 -0.1961 -0.1752 -0.8608
 3326SOL     OW25397   4.901   5.237  12.045  0.0129 -0.4757  0.3407
 3326SOL    HW125398   4.829   5.269  11.990  0.3961 -2.7802 -1.5737
 3326SOL    HW225399   4.969   5.304  12.036  0.5232 -1.3244 -3.0139
 3327SOL     OW25400   5.237   1.190  10.626  0.2225  0.6047  0.1719
 3327SOL    HW125401   5.239   1.138  10.707 -0.5063  1.8778  1.0145
 3327SOL    HW225402   5.188   1.136  10.564  0.0252  0.0037  0.8423
 3328SOL     OW25403   1.466   0.077  12.228 -0.2311 -0.0304  0.1671
 3328SOL    HW125404   1.544   0.078  12.172 -0.2134 -0.1037  0.1875
 3328SOL    HW225405   1.493   0.121  12.308  0.0027 -0.6948  0.4576
 3329SOL     OW25406   5.249   3.115   9.163 -0.8495  0.1381 -0.2781
 3329SOL    HW125407   5.318   3.063   9.204 -0.2685  0.6881 -0.5548
 3329SOL    HW225408   5.169   3.062   9.175 -0.3799 -0.5193 -0.0015
 3330SOL     OW25409   1.528   0.382  10.125  0.2520 -0.0636 -0.0555
 3330SOL    HW125410   1.490   0.328  10.055  0.5130 -1.0881  0.5833
 3330SOL    HW225411   1.462   0.449  10.143 -0.4920 -0.7671 -0.1791
 3331SOL     OW25412   4.763   0.953   9.026  0.0663 -0.4445 -0.0179
 3331SOL    HW125413   4.722   1.039   9.030  0.3140 -0.3695  0.9614
 3331SOL    HW225414   4.792   0.944   8.936 -0.4126  0.2875 -0.2455
 3332SOL     OW25415   1.682   2.165   3.673  0.0964 -0.3118 -0.0275
 3332SOL    HW125416   1.745   2.219   3.720  0.0596 -1.3751  1.2730
 3332SOL    HW225417   1.720   2.077   3.674  0.5819 -0.1901 -2.8759
 3333SOL     OW25418   3.432   5.185   2.759  0.0658 -0.2367  0.1076
 3333SOL    HW125419   3.506   5.147   2.711  0.5396  0.9883 -0.1420
 3333SOL    HW225420   3.393   5.110   2.805  1.4563 -0.8959  0.2531
 3334SOL     OW25421   3.464   3.351   0.398 -0.3487 -0.6148 -0.1705
 3334SOL    HW125422   3.415   3.289   0.344 -0.0462 -2.0075  1.1257
 3334SOL    HW225423   3.525   3.296   0.448 -0.1895  0.7148  1.1209
 3335SOL     OW25424   4.482   4.717   0.833  0.0134 -0.3959 -0.0325
 3335SOL    HW125425   4.483   4.811   0.848  0.2688  0.1600 -3.2344
 3335SOL    HW225426   4.389   4.694   0.835 -0.3079  0.5605 -2.7532
 3336SOL     OW25427   4.878   3.199   0.662  0.0787 -0.0608 -0.2194
 3336SOL    HW125428   4.916   3.158   0.584 -1.8948 -0.2941 -1.0968
 3336SOL    HW225429   4.917   3.152   0.735 -0.7743 -2.3422 -1.1762
 3337SOL     OW25430   2.749   2.029  10.232  0.2440  0.2202  0.4222
 3337SOL    HW125431   2.840   2.027  10.202  0.2752 -0.0792  0.5295
 3337SOL    HW225432   2.744   1.960  10.299 -0.1093  0.1078  0.2836
 3338SOL     OW25433   4.848   3.282  10.843 -0.0466  0.4174  0.1356
 3338SOL    HW125434   4.927   3.228  10.838 -2.1247 -2.6464 -0.0919
 3338SOL    HW225435   4.868   3.346  10.912  2.3518 -0.7511  0.5690
 3339SOL     OW25436   5.910   1.203   9.808  0.0600 -0.1795 -0.4478
 3339SOL    HW125437   5.827   1.239   9.841 -0.5302 -0.8871 -1.1343
 3339SOL    HW225438   5.971   1.212   9.881 -0.5030  0.7708 -0.0875
 3340SOL     OW25439   5.622   1.133  10.798 -0.5416  0.7242 -0.1359
 3340SOL    HW125440   5.671   1.055  10.825 -0.4564  0.2270 -1.6687
 3340SOL    HW225441   5.682   1.206  10.814 -0.0256  0.3110 -0.1782
 3341SOL     OW25442  -0.016   3.821  11.438  0.7360  0.6270 -0.1227
 3341SOL    HW125443  -0.052   3.772  11.512 -0.5393 -1.1868 -1.8942
 3341SOL    HW225444   0.078   3.804  11.443  0.2816 -2.3948 -0.9286
 3342SOL     OW25445   5.737   0.893   3.420  0.5092  0.1014 -0.6602
 3342SOL    HW125446   5.684   0.953   3.369  1.6595  0.4872 -1.4125
 3342SOL    HW225447   5.752   0.938   3.503  0.2097  0.2714 -0.6997
 3343SOL     OW25448   4.044   5.883   1.566 -0.3853 -0.1579 -0.5433
 3343SOL    HW125449   4.129   5.925   1.583 -0.1606 -0.9018  0.2408
 3343SOL    HW225450   4.065   5.790   1.559 -1.0517 -0.2739 -1.0289
 3344SOL     OW25451   1.274   2.365   0.433  0.0409  0.0472 -0.8084
 3344SOL    HW125452   1.204   2.300   0.440  1.2514 -1.2854 -0.7529
 3344SOL    HW225453   1.313   2.349   0.347  0.8632  0.1551 -0.4645
 3345SOL     OW25454   1.863   4.163   1.054  0.1665  0.1110  0.1221
 3345SOL    HW125455   1.772   4.134   1.053 -0.0574  0.7909  0.0635
 3345SOL    HW225456   1.914   4.082   1.057 -0.4692 -0.2464  1.9076
 3346SOL     OW25457   2.375   0.150   0.341  0.6786 -0.5139 -0.1400
 3346SOL    HW125458   2.388   0.056   0.337  1.8000 -0.3279 -1.1473
 3346SOL    HW225459   2.354   0.168   0.433  0.7867 -1.7023  0.1179
 3347SOL     OW25460   4.597   4.345   0.188  0.6244 -0.3745  0.6694
 3347SOL    HW125461   4.610   4.300   0.271 -0.3214  1.2695  1.7479
 3347SOL    HW225462   4.686   4.368   0.159  0.9118 -0.2932  1.6050
 3348SOL     OW25463   4.864   5.196   3.255  0.2327  0.0413  0.4573
 3348SOL    HW125464   4.865   5.275   3.308 -1.1667  0.1607  0.3204
 3348SOL    HW225465   4.783   5.151   3.280  1.4495 -1.8139  1.2132
 3349SOL     OW25466   3.829   2.693   8.213  0.0508  0.1540  0.2693
 3349SOL    HW125467   3.777   2.704   8.132 -0.8803  1.3867  1.0088
 3349SOL    HW225468   3.820   2.601   8.235 -2.2550  0.4359  0.6352
 3350SOL     OW25469   3.453   5.184  12.231 -0.5690 -0.0819 -0.2204
 3350SOL    HW125470   3.470   5.090  12.241  0.4162 -0.0126 -1.0553
 3350SOL    HW225471   3.503   5.224  12.303  0.0869 -0.1145 -0.6497
 3351SOL     OW25472   2.207   4.851  11.670 -0.0245 -0.1111 -0.5719
 3351SOL    HW125473   2.229   4.885  11.583 -0.3829 -0.4432 -0.7929
 3351SOL    HW225474   2.137   4.787  11.655 -1.4559  1.2502  0.1725
 3352SOL     OW25475   5.677   2.706   7.615 -0.0128 -0.5113 -0.2380
 3352SOL    HW125476   5.721   2.791   7.614 -0.4325 -0.2891  0.0323
 3352SOL    HW225477   5.588   2.725   7.643  0.1739 -1.1779  0.8597
 3353SOL     OW25478   3.989   5.373   8.768 -0.0355  0.3188 -0.4020
 3353SOL    HW125479   4.056   5.345   8.705 -0.7425  0.7871 -1.3673
 3353SOL    HW225480   3.906   5.364   8.722 -0.6377 -0.0464  0.7188
 3354SOL     OW25481   0.443   4.426   0.757 -0.2350  0.0457  0.5892
 3354SOL    HW125482   0.432   4.492   0.688  2.8342 -0.4990 -0.4748
 3354SOL    HW225483   0.397   4.349   0.724 -0.2155  0.3120 -0.0619
 3355SOL     OW25484   5.793   5.055   0.170 -0.2231  0.2603  0.1832
 3355SOL    HW125485   5.711   5.066   0.122 -1.2104 -1.7093  1.3231
 3355SOL    HW225486   5.861   5.067   0.104 -1.5275 -1.6358 -1.5812
 3356SOL     OW25487   4.715   3.860   0.732  0.0584 -0.2067  0.1758
 3356SOL    HW125488   4.704   3.765   0.735  0.3052 -0.2972 -1.3441
 3356SOL    HW225489   4.666   3.887   0.654 -0.2527  0.9460  0.7635
 3357SOL     OW25490   2.415   1.173  11.947  0.0500  0.3135  0.9312
 3357SOL    HW125491   2.426   1.217  11.863 -2.2608  0.5203  0.7197
 3357SOL    HW225492   2.427   1.242  12.012  1.6015  0.1997  0.7832
 3358SOL     OW25493   0.408   0.706   9.272 -0.1650 -0.0251  0.3746
 3358SOL    HW125494   0.473   0.647   9.309 -0.3555 -1.7759 -1.9310
 3358SOL    HW225495   0.455   0.789   9.258  0.7677 -0.3824  1.3522
 3359SOL     OW25496   3.965   4.199   3.719 -0.1497  0.3129 -0.3023
 3359SOL    HW125497   4.028   4.141   3.677 -0.0180  0.5164 -0.3897
 3359SOL    HW225498   3.987   4.286   3.687 -2.8358 -0.0206 -3.3016
 3360SOL     OW25499   1.561   1.169   2.858 -0.2779  0.3145  0.7838
 3360SOL    HW125500   1.492   1.116   2.818 -0.3769  1.5618 -0.7445
 3360SOL    HW225501   1.516   1.247   2.890  0.0755  0.0903  1.8556
 3361SOL     OW25502   3.996   0.795   9.468 -0.0382  0.0892 -0.4131
 3361SOL    HW125503   4.003   0.759   9.380 -1.2526 -0.7342 -0.1917
 3361SOL    HW225504   4.054   0.740   9.521  2.2553  1.8341 -1.0331
 3362SOL     OW25505   3.581   0.967   8.935 -0.6267  0.0296 -0.0682
 3362SOL    HW125506   3.533   0.933   9.011  0.5161 -1.7216 -0.1112
 3362SOL    HW225507   3.658   1.009   8.972 -0.5574  0.0215 -0.2022
 3363SOL     OW25508   3.095   2.101   9.260 -0.1875  0.1685  0.2962
 3363SOL    HW125509   3.086   2.107   9.165  0.6148  0.3658  0.2291
 3363SOL    HW225510   3.034   2.031   9.286 -1.5968  1.2109 -0.1727
 3364SOL     OW25511   2.327   3.118   2.836 -0.5552  0.1615 -0.6118
 3364SOL    HW125512   2.360   3.030   2.856  3.3202  2.1244  2.3905
 3364SOL    HW225513   2.268   3.138   2.909 -0.1772  0.6321 -0.4320
 3365SOL     OW25514   2.725   5.581   0.621  0.1973 -0.4559  0.6254
 3365SOL    HW125515   2.713   5.488   0.641  1.0809 -0.6627  0.2085
 3365SOL    HW225516   2.777   5.614   0.694  2.3795 -0.9414 -0.6612
 3366SOL     OW25517   4.078   5.592   8.006  0.0455 -0.3787  0.6953
 3366SOL    HW125518   4.074   5.649   7.929  2.7928 -1.4052 -0.2434
 3366SOL    HW225519   3.990   5.599   8.045 -1.1842  0.6639 -2.1346
 3367SOL     OW25520   1.991   3.640   9.543  0.3609 -0.8026  0.1408
 3367SOL    HW125521   1.898   3.642   9.519  0.5894  0.3367 -0.6963
 3367SOL    HW225522   2.036   3.617   9.461  1.0391  1.6337 -0.1995
 3368SOL     OW25523   2.231   5.496   0.101 -0.2182  0.5745 -0.5743
 3368SOL    HW125524   2.235   5.552   0.179  1.1673  0.7877 -0.7911
 3368SOL    HW225525   2.206   5.410   0.135 -0.4615  0.8643 -0.0018
 3369SOL     OW25526   0.782   5.343   0.033  0.1704  0.4802 -0.5621
 3369SOL    HW125527   0.761   5.311   0.121  1.5802  0.5737 -0.1648
 3369SOL    HW225528   0.878   5.348   0.032  0.1270  1.4925 -1.7481
 3370SOL     OW25529   0.935   4.853   9.574 -0.1759 -0.3258  0.0514
 3370SOL    HW125530   0.890   4.814   9.649  2.6286 -1.2732  1.3445
 3370SOL    HW225531   1.019   4.881   9.610  0.6302  0.5276 -2.4526
 3371SOL     OW25532   1.092   3.929   1.022  0.2458 -0.2251  0.8887
 3371SOL    HW125533   1.171   3.875   1.016  0.5348  0.3264 -0.5729
 3371SOL    HW225534   1.021   3.867   1.041  0.6663 -1.0599 -0.2013
 3372SOL     OW25535   3.087   2.524  12.274 -0.5406  0.5080 -0.1049
 3372SOL    HW125536   3.079   2.455  12.340 -0.2177 -0.2177 -0.8191
 3372SOL    HW225537   3.001   2.567  12.274 -0.8623 -0.1262  0.0807
 3373SOL     OW25538   4.168   1.367   7.655  0.3603  0.0525  0.1157
 3373SOL    HW125539   4.158   1.412   7.739 -1.6882 -1.5576  0.7694
 3373SOL    HW225540   4.201   1.280   7.679 -1.1527 -0.7379 -0.6641
 3374SOL     OW25541   2.825   1.085   1.269  1.0862 -0.1443 -0.0580
 3374SOL    HW125542   2.769   1.066   1.194  2.0340 -0.2639 -0.7412
 3374SOL    HW225543   2.913   1.057   1.242  1.0070 -2.6859  2.0382
 3375SOL     OW25544   3.636   3.350  10.940 -0.4095 -0.0498 -0.5479
 3375SOL    HW125545   3.615   3.288  10.870  0.2094 -0.7692 -0.1043
 3375SOL    HW225546   3.685   3.420  10.897 -2.8928  1.2122 -1.4446
 3376SOL     OW25547   5.573   3.589   8.361 -0.2532 -0.3386  0.0987
 3376SOL    HW125548   5.639   3.593   8.429 -0.1522 -0.5710  0.0179
 3376SOL    HW225549   5.490   3.590   8.408 -0.1697 -1.6508  0.2893
 3377SOL     OW25550   5.690   3.438   1.348  0.1343  0.5742 -0.0333
 3377SOL    HW125551   5.686   3.424   1.443  0.4484  1.1527  0.0714
 3377SOL    HW225552   5.772   3.486   1.335 -0.0836  0.8090 -0.5564
 3378SOL     OW25553   1.477   3.064   2.795  0.6615  0.0053 -0.2671
 3378SOL    HW125554   1.525   3.027   2.721  0.3005 -0.9774 -0.0072
 3378SOL    HW225555   1.410   2.999   2.816  0.3933  0.5398  0.5559
 3379SOL     OW25556   2.099   0.885  11.347 -0.6446  0.1766 -0.6486
 3379SOL    HW125557   2.038   0.947  11.308 -0.5445 -0.7726 -2.3469
 3379SOL    HW225558   2.067   0.799  11.322  1.2883 -0.3484 -1.4340
 3380SOL     OW25559   5.404   1.747  11.694  0.3050  0.0028  0.0126
 3380SOL    HW125560   5.333   1.810  11.687  0.8724  0.5167 -1.2823
 3380SOL    HW225561   5.466   1.773  11.626  2.1691  0.1323  1.7104
 3381SOL     OW25562   3.651   5.900   0.766 -0.3106  0.5172 -0.1150
 3381SOL    HW125563   3.637   5.890   0.860  0.7877 -0.5273 -0.0543
 3381SOL    HW225564   3.632   5.993   0.748 -2.4207  0.2845  0.7794
 3382SOL     OW25565   5.217   4.445   4.199 -0.2008  0.1803  0.2975
 3382SOL    HW125566   5.168   4.412   4.123  1.8327 -1.1274 -0.5071
 3382SOL    HW225567   5.153   4.448   4.270 -1.7063 -0.4030 -1.0011
 3383SOL     OW25568   4.647   0.672   8.352  0.2894  0.2195 -0.4695
 3383SOL    HW125569   4.715   0.692   8.288  0.7830  0.1513  0.0281
 3383SOL    HW225570   4.643   0.577   8.354  2.2576  0.1171  1.6311
 3384SOL     OW25571   1.091   2.475  10.484 -0.4372  0.1550 -0.7718
 3384SOL    HW125572   1.013   2.525  10.508 -0.2435  0.6826 -1.2247
 3384SOL    HW225573   1.099   2.410  10.553 -1.3070  0.0623 -0.7469
 3385SOL     OW25574   4.888   2.528   9.920 -0.7266  0.0507 -0.1664
 3385SOL    HW125575   4.914   2.455   9.864 -0.9779 -1.1332  1.2420
 3385SOL    HW225576   4.798   2.548   9.894  0.3925  2.0367 -2.8136
 3386SOL     OW25577   2.702   4.495  10.243  0.1608  0.8327 -0.3242
 3386SOL    HW125578   2.688   4.476  10.336 -0.8657  1.2200 -0.3997
 3386SOL    HW225579   2.747   4.579  10.242  1.2422  0.2754 -0.1427
 3387SOL     OW25580   5.466   2.115   2.719  0.1936 -0.3480 -0.4776
 3387SOL    HW125581   5.542   2.126   2.776  1.2336  0.2390 -1.9468
 3387SOL    HW225582   5.407   2.186   2.745 -0.5468 -1.7086  1.7012
 3388SOL     OW25583   1.521   4.892   7.526  0.1954  0.1736  0.0127
 3388SOL    HW125584   1.567   4.830   7.470  2.4765  2.1781 -0.3685
 3388SOL    HW225585   1.482   4.955   7.465 -0.6295  0.1394  0.4942
 3389SOL     OW25586   1.210   0.420   1.706 -0.0806  0.4312 -0.4066
 3389SOL    HW125587   1.263   0.496   1.681 -0.8312  0.7319 -1.1114
 3389SOL    HW225588   1.130   0.458   1.742 -0.8084 -0.0077 -1.5166
 3390SOL     OW25589   3.504   1.958  11.185 -0.8135 -0.0598  0.3770
 3390SOL    HW125590   3.457   2.016  11.244 -0.5720  1.0420 -0.5033
 3390SOL    HW225591   3.438   1.929  11.121 -0.1988  1.9715 -1.2266
 3391SOL     OW25592   3.391   0.918   9.137 -0.0647  0.8554 -0.6940
 3391SOL    HW125593   3.308   0.930   9.091 -0.4781  1.9700  0.2987
 3391SOL    HW225594   3.394   0.825   9.158 -1.8866  1.0837  0.7591
 3392SOL     OW25595   0.050   4.985   9.967  0.1914 -0.1080 -0.0265
 3392SOL    HW125596   0.108   5.060   9.958  1.2311 -0.9877 -0.7293
 3392SOL    HW225597   0.060   4.956  10.058  0.9360 -0.3283 -0.1805
 3393SOL     OW25598   5.057   1.092   1.715 -0.6569  0.7313 -0.3373
 3393SOL    HW125599   5.061   1.062   1.624 -0.9777  1.2224 -0.5155
 3393SOL    HW225600   4.964   1.098   1.734 -0.5935  0.0085  0.2382
 3394SOL     OW25601   2.143   0.416   0.378  0.2253 -0.1105  0.4953
 3394SOL    HW125602   2.086   0.360   0.431  0.1120  0.2570  0.7619
 3394SOL    HW225603   2.225   0.420   0.428 -0.3020  1.2526  1.2636
 3395SOL     OW25604   2.494   5.655  11.705  0.3118  0.1266  0.0467
 3395SOL    HW125605   2.582   5.692  11.697 -0.6160  2.5999  0.7145
 3395SOL    HW225606   2.439   5.711  11.650 -0.7825 -1.7119 -0.7914
 3396SOL     OW25607   3.071   4.072   1.176 -0.1912  0.4019  0.5702
 3396SOL    HW125608   2.980   4.088   1.201 -0.3315 -2.3041  2.0328
 3396SOL    HW225609   3.072   4.084   1.081 -2.1206  0.3865  0.5252
 3397SOL     OW25610   5.237   5.540   2.137 -0.4758 -0.4122  0.9971
 3397SOL    HW125611   5.143   5.522   2.138 -0.0269 -2.9930  0.9389
 3397SOL    HW225612   5.254   5.573   2.048 -1.5104  1.3124  1.4156
 3398SOL     OW25613   3.621   0.819   8.711 -0.3634  0.2209  0.7940
 3398SOL    HW125614   3.579   0.860   8.635  0.6658  1.1289  0.6983
 3398SOL    HW225615   3.616   0.885   8.780  1.3819  0.5565  0.6192
 3399SOL     OW25616   4.254   1.179   2.249  0.7731  0.2093  1.2282
 3399SOL    HW125617   4.278   1.187   2.156 -1.4854 -0.2584  0.5922
 3399SOL    HW225618   4.334   1.147   2.291  1.8787  0.5949 -0.5217
 3400SOL     OW25619   3.951   4.076  12.275  0.3691 -0.5485  0.5114
 3400SOL    HW125620   3.982   4.165  12.293 -0.0888 -0.4680  0.9327
 3400SOL    HW225621   4.024   4.034  12.231  1.0718 -0.3515  1.4569
 3401SOL     OW25622   1.087   4.812   3.619  0.5013  0.2517  0.8071
 3401SOL    HW125623   1.148   4.828   3.691 -0.1000  1.7517  1.0055
 3401SOL    HW225624   1.019   4.757   3.657  1.1537 -0.5084  0.8818
 3402SOL     OW25625   2.143   5.794   3.186 -0.1753 -0.6754 -0.2828
 3402SOL    HW125626   2.175   5.767   3.100  0.0816 -0.3262 -0.3006
 3402SOL    HW225627   2.183   5.732   3.248  1.6786  0.5987 -0.1583
 3403SOL     OW25628   0.730   0.700   1.170  0.5892  0.2643 -0.2977
 3403SOL    HW125629   0.805   0.697   1.230 -0.0155  3.4389  0.7352
 3403SOL    HW225630   0.761   0.753   1.096 -0.2768  0.7226 -0.3423
 3404SOL     OW25631   1.760   2.552   1.867  0.3892  0.7069  0.6048
 3404SOL    HW125632   1.748   2.631   1.815  0.4247  0.6568  0.5202
 3404SOL    HW225633   1.844   2.515   1.837  0.7996  1.1056  1.2524
 3405SOL     OW25634   2.455   3.492   9.613  0.3422  0.1972 -0.3696
 3405SOL    HW125635   2.393   3.554   9.652  0.5330 -0.3730  0.8783
 3405SOL    HW225636   2.400   3.419   9.585  0.3753 -0.0328  0.1638
 3406SOL     OW25637   4.281   0.437  11.973  0.2187 -0.6668 -0.3752
 3406SOL    HW125638   4.269   0.430  11.878  1.2929 -2.8791 -0.3664
 3406SOL    HW225639   4.359   0.385  11.991  1.3463  1.5970  1.4452
 3407SOL     OW25640   3.545   1.767   3.594 -0.2904  0.1990  0.6065
 3407SOL    HW125641   3.582   1.693   3.641 -0.0619  0.3338  0.6408
 3407SOL    HW225642   3.594   1.771   3.512 -1.6381 -0.9128 -0.2769
 3408SOL     OW25643   4.085   1.138   0.447  0.3867  0.0510 -0.1217
 3408SOL    HW125644   4.118   1.139   0.537  1.0993 -1.0611 -0.3550
 3408SOL    HW225645   3.997   1.102   0.454  0.8154 -0.9988  0.0292
 3409SOL     OW25646   0.775   2.597   3.259  0.1659  0.2034 -0.2475
 3409SOL    HW125647   0.708   2.642   3.310 -0.4115 -0.1108 -0.7062
 3409SOL    HW225648   0.858   2.619   3.301 -0.2351  0.5560  0.3590
 3410SOL     OW25649   1.358   1.630  11.974 -0.1151  0.0943  0.7339
 3410SOL    HW125650   1.282   1.578  11.948 -0.0232 -0.3425  1.3181
 3410SOL    HW225651   1.360   1.623  12.070  1.9686 -1.7945  0.6159
 3411SOL     OW25652   0.604   4.993   3.363 -0.8298  0.1741 -0.5683
 3411SOL    HW125653   0.691   5.017   3.395 -1.0041 -1.4755  1.2457
 3411SOL    HW225654   0.618   4.912   3.314 -1.3572 -0.1359 -0.2073
 3412SOL     OW25655   0.469   1.700   0.516 -0.3218  0.1741 -0.1663
 3412SOL    HW125656   0.467   1.639   0.590 -1.3316 -0.1303 -0.4421
 3412SOL    HW225657   0.377   1.716   0.495 -0.0432 -0.9092 -2.2971
 3413SOL     OW25658   3.269   4.335  11.287  0.0056 -0.3020  0.0243
 3413SOL    HW125659   3.296   4.406  11.345 -2.2921 -0.5202  1.4383
 3413SOL    HW225660   3.351   4.292  11.261  1.0924 -0.4226  3.4218
 3414SOL     OW25661   3.234   2.314  11.005  0.8507 -0.0139  0.1020
 3414SOL    HW125662   3.317   2.276  10.979  0.2834 -1.1929 -0.0150
 3414SOL    HW225663   3.255   2.369  11.080  1.5577 -1.1231  0.7219
 3415SOL     OW25664   4.196   3.145  10.558 -0.3827  0.2629  0.9252
 3415SOL    HW125665   4.184   3.092  10.637  2.8647 -0.8147  0.7430
 3415SOL    HW225666   4.151   3.095  10.489 -0.5556 -0.3796  1.4923
 3416SOL     OW25667   0.125   2.344   0.098 -0.2393  0.3554 -0.7271
 3416SOL    HW125668   0.099   2.359   0.189  1.7694  2.9241 -0.5055
 3416SOL    HW225669   0.187   2.270   0.102 -0.4669  0.1977 -0.0578
 3417SOL     OW25670   0.679   0.882  11.181 -0.0841 -0.0063 -0.4488
 3417SOL    HW125671   0.623   0.864  11.257 -0.3779  0.0302 -0.6575
 3417SOL    HW225672   0.760   0.916  11.220 -0.3844  0.3952 -0.1709
 3418SOL     OW25673   3.920   5.516   1.792  0.2159 -1.0086 -0.4966
 3418SOL    HW125674   3.868   5.530   1.712 -2.5417 -0.5074  1.3205
 3418SOL    HW225675   3.952   5.603   1.815  1.6055 -1.2577 -1.3941
 3419SOL     OW25676   4.744   2.749  11.360  0.4070  0.0447  0.2835
 3419SOL    HW125677   4.680   2.813  11.329  0.6343  0.6904  1.1029
 3419SOL    HW225678   4.697   2.700  11.428 -0.7113 -2.6538 -2.3576
 3420SOL     OW25679   4.526   5.358  12.410 -0.1647  0.0233 -0.1157
 3420SOL    HW125680   4.609   5.310  12.406 -0.1934 -0.0667  0.2817
 3420SOL    HW225681   4.501   5.371  12.319 -1.1582 -2.4487 -0.2468
 3421SOL     OW25682   4.989   1.005   9.224  0.0519  0.1397  0.0874
 3421SOL    HW125683   4.967   1.097   9.209 -2.3635 -0.5485 -0.8655
 3421SOL    HW225684   4.929   0.957   9.166 -0.7526 -2.1473  2.7109
 3422SOL     OW25685   0.466   2.344   1.572  0.5134  0.0291 -0.3332
 3422SOL    HW125686   0.512   2.426   1.594  1.5799 -0.7255  0.2984
 3422SOL    HW225687   0.496   2.324   1.483 -0.1968  0.6215 -0.7131
 3423SOL     OW25688   3.182   5.776   7.441  0.3049  0.0586 -0.9726
 3423SOL    HW125689   3.189   5.799   7.534  1.2640 -0.0391 -1.0153
 3423SOL    HW225690   3.088   5.767   7.426  0.0572  1.3538 -0.3229
 3424SOL     OW25691   5.582   3.280  11.705  0.1741  0.5089 -0.2127
 3424SOL    HW125692   5.668   3.282  11.747 -0.2179  1.9306  0.5673
 3424SOL    HW225693   5.559   3.187  11.702  0.7213  0.2844  1.7008
 3425SOL     OW25694   2.885   1.999   0.023  0.0335 -0.1998 -0.0576
 3425SOL    HW125695   2.798   2.028   0.053  0.1463 -0.3478  0.4103
 3425SOL    HW225696   2.884   1.904   0.034 -0.2639 -0.3721 -1.4023
 3426SOL     OW25697   4.598   5.720  10.693  0.2199 -0.4885 -0.2021
 3426SOL    HW125698   4.627   5.668  10.769 -1.3552 -1.4202 -0.2042
 3426SOL    HW225699   4.649   5.686  10.620  1.2514 -0.0646  0.3130
 3427SOL     OW25700   4.560   5.302   3.177 -0.2030 -0.1211 -0.7376
 3427SOL    HW125701   4.562   5.210   3.150  0.2356  0.0937 -1.4569
 3427SOL    HW225702   4.489   5.307   3.241  0.6361 -1.2435  0.3103
 3428SOL     OW25703   1.623   5.214   9.815 -0.5680  0.2996 -0.2637
 3428SOL    HW125704   1.618   5.209   9.720 -2.1104  0.7200 -0.2199
 3428SOL    HW225705   1.639   5.124   9.843 -1.3818 -0.0374 -0.8583
 3429SOL     OW25706   0.341   2.339  11.999 -0.2982 -0.2663  0.0762
 3429SOL    HW125707   0.408   2.336  11.930  0.3860 -0.8275  0.7630
 3429SOL    HW225708   0.270   2.285  11.965 -1.2341  1.8763 -1.5000
 3430SOL     OW25709   5.010   4.213   9.490  0.0654  0.5045 -0.3696
 3430SOL    HW125710   4.921   4.230   9.520 -0.1320  0.4834 -0.9362
 3430SOL    HW225711   5.065   4.269   9.545  0.0523 -2.1846  2.4612
 3431SOL     OW25712   1.512   2.829   9.303  0.1662 -0.0844  0.5517
 3431SOL    HW125713   1.502   2.818   9.398  1.0082  0.6084  0.7297
 3431SOL    HW225714   1.600   2.796   9.285  0.5523  1.1311  0.2284
 3432SOL     OW25715   3.964   4.614   9.389 -0.1735  0.3059 -0.6437
 3432SOL    HW125716   3.961   4.704   9.356 -1.5703  0.1863 -0.8633
 3432SOL    HW225717   3.912   4.564   9.326 -0.2490 -0.4761  0.0360
 3433SOL     OW25718   5.353   3.060   2.234  0.3669  0.4581 -0.1530
 3433SOL    HW125719   5.410   3.075   2.309 -0.5262  0.8011  0.4687
 3433SOL    HW225720   5.282   3.005   2.268  0.8648 -0.8446 -1.1692
 3434SOL     OW25721   3.153   2.801  11.125 -0.3793  0.2381  0.3369
 3434SOL    HW125722   3.086   2.866  11.106 -1.7872 -0.8167  1.5718
 3434SOL    HW225723   3.208   2.841  11.191  0.1344  1.0471 -0.5660
 3435SOL     OW25724   4.397   3.515   0.421 -0.3100  0.1839  0.0495
 3435SOL    HW125725   4.385   3.449   0.489 -1.4498 -0.5042 -0.7803
 3435SOL    HW225726   4.426   3.465   0.344  0.6663  0.9072 -0.0613
 3436SOL     OW25727   1.473   2.452  11.001 -0.0501 -0.2063 -0.2637
 3436SOL    HW125728   1.404   2.423  11.061 -0.3405 -1.9138 -1.3997
 3436SOL    HW225729   1.436   2.528  10.955 -0.4062  0.1221  0.5594
 3437SOL     OW25730   2.823   0.243   1.627 -0.1653  0.6825  0.0218
 3437SOL    HW125731   2.884   0.294   1.680 -1.0426  0.3619  1.3530
 3437SOL    HW225732   2.807   0.298   1.550 -0.1833  1.8886  0.8747
 3438SOL     OW25733   3.979   2.256   8.479  0.1562  0.0938 -1.2422
 3438SOL    HW125734   4.023   2.314   8.541 -1.5133 -0.0176  0.0719
 3438SOL    HW225735   3.897   2.233   8.522 -0.9138 -0.1986 -3.4017
 3439SOL     OW25736   2.306   4.426   2.151  0.4356  0.0442  0.1383
 3439SOL    HW125737   2.220   4.386   2.139  0.8780 -0.9442  0.2016
 3439SOL    HW225738   2.368   4.357   2.125  1.2920 -0.3895  3.1549
 3440SOL     OW25739   3.618   1.382   1.571  0.8923  0.1077 -0.0032
 3440SOL    HW125740   3.611   1.425   1.656 -2.0275  1.4913 -0.8959
 3440SOL    HW225741   3.638   1.453   1.510  0.2688 -0.4678 -0.8837
 3441SOL     OW25742   4.670   1.750   2.098  0.3575  0.4327  0.0429
 3441SOL    HW125743   4.663   1.673   2.043  2.9317 -1.3587  2.0979
 3441SOL    HW225744   4.747   1.797   2.065  0.6922  0.4264  0.7966
 3442SOL     OW25745   1.759   1.830   9.248  0.4411 -0.9418  0.5734
 3442SOL    HW125746   1.798   1.755   9.293  1.4007 -0.3846  0.6697
 3442SOL    HW225747   1.777   1.905   9.305  1.8280 -0.1972 -0.8104
 3443SOL     OW25748   3.769   5.561   1.556 -0.5402  0.2555 -0.2665
 3443SOL    HW125749   3.741   5.476   1.523 -1.2957  0.2281  0.4351
 3443SOL    HW225750   3.803   5.607   1.479  0.7356 -1.0209 -0.4928
 3444SOL     OW25751   3.169   4.466   3.068 -0.8963  0.1077  0.0255
 3444SOL    HW125752   3.240   4.527   3.086  0.6330 -2.1737  2.0147
 3444SOL    HW225753   3.102   4.519   3.024  0.4460  3.1396  1.4950
 3445SOL     OW25754   4.997   1.945   2.453 -0.1626  0.0034  0.9141
 3445SOL    HW125755   5.048   1.884   2.507  0.6984  0.1300  0.2608
 3445SOL    HW225756   4.959   1.889   2.385 -0.5002 -0.0144  1.1151
 3446SOL     OW25757   3.469   1.955   9.691 -0.8877 -0.2191 -0.3968
 3446SOL    HW125758   3.457   2.042   9.651 -1.6639 -0.6863 -1.2037
 3446SOL    HW225759   3.519   1.972   9.770 -0.7556  0.9349 -0.7168
 3447SOL     OW25760   1.319   1.460  11.070  1.0469 -0.0472  0.3822
 3447SOL    HW125761   1.357   1.399  11.134 -0.8506 -0.3979  1.1905
 3447SOL    HW225762   1.255   1.511  11.120 -1.6645 -1.4349 -1.5426
 3448SOL     OW25763   5.103   1.868  10.482  0.6925 -0.1053  0.4063
 3448SOL    HW125764   5.132   1.843  10.395  0.6120 -0.5994  0.5175
 3448SOL    HW225765   5.084   1.962  10.476  0.5163 -0.1779 -0.1492
 3449SOL     OW25766   1.483   3.358  11.265 -0.1315  0.1526  0.0564
 3449SOL    HW125767   1.508   3.268  11.286 -3.6125 -0.8722  0.2513
 3449SOL    HW225768   1.506   3.369  11.173  0.7639 -0.7860  0.1670
 3450SOL     OW25769   0.436   3.912   2.501  0.3681 -0.4888 -0.5908
 3450SOL    HW125770   0.380   3.905   2.423 -0.4271  1.6147 -0.2376
 3450SOL    HW225771   0.491   3.988   2.483  1.3483 -1.0116  0.1904
 3451SOL     OW25772   3.536   1.381   2.834  0.1624  0.3746  0.1935
 3451SOL    HW125773   3.594   1.304   2.832  0.7424  0.7474  1.8069
 3451SOL    HW225774   3.523   1.403   2.742  1.3984 -0.6223 -0.2447
 3452SOL     OW25775   4.574   1.992  10.835 -0.0920 -0.1494  0.3341
 3452SOL    HW125776   4.491   1.970  10.876 -0.2631  0.8609  0.5422
 3452SOL    HW225777   4.552   2.002  10.742 -0.1372 -0.2329  0.3350
 3453SOL     OW25778   0.321   1.290  11.489  0.1683 -0.1436 -0.5758
 3453SOL    HW125779   0.311   1.217  11.550  1.3632 -0.9494 -1.3263
 3453SOL    HW225780   0.392   1.343  11.526  0.8446 -0.5926 -1.2248
 3454SOL     OW25781   3.880   3.560   3.005  0.0797 -0.0391  0.2415
 3454SOL    HW125782   3.795   3.587   3.038  1.1932  0.6625  2.6710
 3454SOL    HW225783   3.871   3.466   2.988 -1.5505  0.2978 -0.8660
 3455SOL     OW25784   3.684   0.284  11.634  0.1506  0.0989  0.0208
 3455SOL    HW125785   3.614   0.321  11.580 -0.7676  1.9987  2.4356
 3455SOL    HW225786   3.738   0.359  11.659  0.1404 -0.6197  2.3328
 3456SOL     OW25787   0.993   4.586  11.714  0.4597 -0.3715 -0.0874
 3456SOL    HW125788   0.900   4.567  11.723  0.3867  0.4342  0.8524
 3456SOL    HW225789   1.004   4.605  11.620 -0.4446  0.2066 -0.0838
 3457SOL     OW25790   0.801   0.754   0.788  0.0679  0.3662  0.5778
 3457SOL    HW125791   0.736   0.823   0.775 -0.1236  0.3127  1.2475
 3457SOL    HW225792   0.849   0.781   0.866 -0.2422 -0.4431  1.0448
 3458SOL     OW25793   4.533   4.998   8.845  0.1878 -0.8716  0.0723
 3458SOL    HW125794   4.462   4.948   8.804 -0.5382  0.4566 -0.3287
 3458SOL    HW225795   4.501   5.088   8.845  2.7887  0.1021 -2.1471
 3459SOL     OW25796   4.730   1.148   2.194 -0.3820  0.4351 -0.4524
 3459SOL    HW125797   4.742   1.119   2.104 -1.2861 -0.5883 -0.2499
 3459SOL    HW225798   4.819   1.163   2.226  0.0301 -0.8575 -0.9788
 3460SOL     OW25799   0.580   0.566   0.930  0.2131 -0.0782  0.0886
 3460SOL    HW125800   0.642   0.577   1.002 -2.6748  0.2699  2.6055
 3460SOL    HW225801   0.618   0.616   0.858  2.0487  1.4884  2.0787
 3461SOL     OW25802   1.767   1.017   0.995 -0.3079 -0.0848  0.6671
 3461SOL    HW125803   1.796   1.067   1.071  1.3666 -0.4452  0.2784
 3461SOL    HW225804   1.819   0.937   0.997 -1.0739 -0.6188 -0.2074
 3462SOL     OW25805   4.479   0.056   0.184 -0.0356 -0.9597 -0.1403
 3462SOL    HW125806   4.503   0.110   0.108 -1.0227 -2.1450 -1.3211
 3462SOL    HW225807   4.418   0.110   0.234  1.3235  0.1924  0.3264
 3463SOL     OW25808   4.120   0.351   2.313 -0.1362  0.4891 -0.7380
 3463SOL    HW125809   4.167   0.429   2.284  1.9346 -0.3341  0.3166
 3463SOL    HW225810   4.183   0.304   2.369 -1.6763 -1.4353 -0.5647
 3464SOL     OW25811   4.542   4.541   9.496  0.6091  0.2862  0.1829
 3464SOL    HW125812   4.504   4.628   9.506 -0.0241  0.1958 -1.3843
 3464SOL    HW225813   4.636   4.553   9.512  0.3961  1.0963  0.8087
 3465SOL     OW25814   2.278   1.251   9.441  0.0292 -0.0851  0.3272
 3465SOL    HW125815   2.304   1.169   9.483 -0.1733 -0.4660 -0.2979
 3465SOL    HW225816   2.187   1.263   9.467 -0.8051 -1.4812 -1.8347
 3466SOL     OW25817   5.672   4.529   2.798  0.6801  0.4043  0.4892
 3466SOL    HW125818   5.597   4.523   2.739 -0.5685  1.2133  1.9270
 3466SOL    HW225819   5.640   4.492   2.881  2.2302 -0.2621  0.8072
 3467SOL     OW25820   5.815   1.412   0.734 -0.0509  0.4389 -0.4963
 3467SOL    HW125821   5.872   1.379   0.665  0.7466  0.9209 -0.0830
 3467SOL    HW225822   5.750   1.465   0.689 -0.0254  0.0823 -0.9536
 3468SOL     OW25823   0.452  -0.022  10.347 -0.5970 -0.2047  0.7076
 3468SOL    HW125824   0.540   0.002  10.376 -0.6049  0.2903  0.3272
 3468SOL    HW225825   0.399   0.054  10.368 -0.8200 -0.2764  0.4029
 3469SOL     OW25826   3.066   1.936   8.383 -0.2530 -0.2052 -0.1766
 3469SOL    HW125827   3.122   1.867   8.418 -0.5842 -0.2301  0.3180
 3469SOL    HW225828   3.103   1.956   8.298  0.1198 -0.6782 -0.1322
 3470SOL     OW25829   2.215   3.313   9.456  0.4579  0.5911  0.1557
 3470SOL    HW125830   2.119   3.319   9.453  0.6063  2.5056 -1.5065
 3470SOL    HW225831   2.232   3.246   9.522 -2.1215 -2.9404 -2.5086
 3471SOL     OW25832   0.169   5.524   3.063 -0.0609  0.3033  0.3770
 3471SOL    HW125833   0.222   5.444   3.054 -0.6929  0.0281 -1.0900
 3471SOL    HW225834   0.204   5.583   2.997 -0.5985  0.6737  0.4238
 3472SOL     OW25835   3.566   1.312  11.793  0.5236 -0.2575  0.5058
 3472SOL    HW125836   3.507   1.273  11.729 -0.4021  0.6120  0.8160
 3472SOL    HW225837   3.624   1.240  11.818 -0.3378 -1.1033  0.1341
 3473SOL     OW25838   4.417   0.786   9.668  0.2083 -0.3431 -0.0670
 3473SOL    HW125839   4.410   0.870   9.624 -1.5683 -0.5996 -0.2995
 3473SOL    HW225840   4.506   0.756   9.649  0.8853  1.5164  0.1092
 3474SOL     OW25841   5.176   2.981   8.654 -0.1781 -0.5328  0.2359
 3474SOL    HW125842   5.121   3.026   8.718  0.9696 -0.2700  1.0750
 3474SOL    HW225843   5.135   2.896   8.641 -2.0462  0.5218 -0.9092
 3475SOL     OW25844   3.976   0.764   9.868 -0.2223 -0.0464  1.1021
 3475SOL    HW125845   4.035   0.727   9.802 -1.5983 -1.7241  0.7797
 3475SOL    HW225846   3.926   0.830   9.820 -0.7917 -0.8299  0.6004
 3476SOL     OW25847   3.105   2.162  10.438  0.0613  0.1995 -0.0162
 3476SOL    HW125848   3.166   2.178  10.510 -1.6536  2.6114  0.9598
 3476SOL    HW225849   3.082   2.249  10.406 -0.7751 -0.7778 -2.1718
 3477SOL     OW25850   3.201   5.664   1.822  0.1540  0.8415 -0.6542
 3477SOL    HW125851   3.181   5.715   1.901  1.7867  1.9599 -0.9235
 3477SOL    HW225852   3.295   5.646   1.828  0.0268 -0.2673 -1.6649
 3478SOL     OW25853   0.690   1.487   3.171 -0.4687 -0.2674  0.0657
 3478SOL    HW125854   0.687   1.482   3.075 -1.0312  0.2663  0.0448
 3478SOL    HW225855   0.597   1.488   3.197 -0.3218 -0.0561  0.5897
 3479SOL     OW25856   4.203   5.388   9.007 -0.6807  0.0506 -0.2782
 3479SOL    HW125857   4.117   5.375   8.968 -0.3824 -0.8379 -0.6524
 3479SOL    HW225858   4.221   5.306   9.053  0.1499  0.0749 -0.5556
 3480SOL     OW25859   3.916   0.122   9.560  0.0261  0.1612  0.5551
 3480SOL    HW125860   3.895   0.029   9.565 -1.2079  0.3569 -0.5914
 3480SOL    HW225861   4.008   0.125   9.537 -0.5041 -0.8250 -1.8765
 3481SOL     OW25862   5.326   2.416   3.478  0.6705  0.7218  0.1690
 3481SOL    HW125863   5.292   2.505   3.483 -1.4614 -0.1009  1.3434
 3481SOL    HW225864   5.249   2.363   3.455  1.2440 -1.1479  2.3459
 3482SOL     OW25865   5.883   0.632  10.859  0.6956 -0.1638 -0.3683
 3482SOL    HW125866   5.946   0.631  10.787  0.3757 -1.0963 -0.6394
 3482SOL    HW225867   5.806   0.586  10.824 -0.2115  1.1241 -0.1184
 3483SOL     OW25868   5.611   0.765  12.026 -0.6361  0.2971  0.2762
 3483SOL    HW125869   5.583   0.731  11.941 -1.5048 -0.7873  0.9790
 3483SOL    HW225870   5.593   0.859  12.021 -2.2406 -0.0130 -0.1583
 3484SOL     OW25871   3.767   0.392  10.527 -0.2051  0.5415 -0.0256
 3484SOL    HW125872   3.799   0.479  10.549  2.1277 -0.3090  0.0597
 3484SOL    HW225873   3.681   0.387  10.568  0.0315  2.4685  0.7411
 3485SOL     OW25874   2.546   0.321  12.084  0.1642 -0.2291 -0.4762
 3485SOL    HW125875   2.553   0.228  12.060  0.8974 -0.6202  1.1430
 3485SOL    HW225876   2.483   0.322  12.155 -1.2852  0.7904 -1.7469
 3486SOL     OW25877   3.991   2.707   1.987 -1.3674 -0.2690 -0.3610
 3486SOL    HW125878   3.967   2.679   1.899  1.3494 -1.0874 -0.8705
 3486SOL    HW225879   4.003   2.625   2.036 -0.9979  0.1567  0.2725
 3487SOL     OW25880   2.437   2.586  10.093  0.3284 -0.2872  0.2266
 3487SOL    HW125881   2.481   2.622  10.017 -1.6677  0.7597 -0.4578
 3487SOL    HW225882   2.344   2.602  10.078 -0.3021 -2.2176  1.7497
 3488SOL     OW25883   3.097   3.458   8.545 -0.0656 -0.2008  0.0740
 3488SOL    HW125884   3.079   3.383   8.601  1.1141 -0.9404 -0.5077
 3488SOL    HW225885   3.018   3.469   8.493 -1.3325  0.7608  2.1565
 3489SOL     OW25886   0.462   5.678  11.072  0.3276  0.8893  0.3760
 3489SOL    HW125887   0.436   5.656  10.982  0.9666  1.0623  0.1420
 3489SOL    HW225888   0.475   5.773  11.070 -1.2425  1.1343  1.0614
 3490SOL     OW25889   2.538   3.067   9.500 -0.5410  0.0400 -0.0779
 3490SOL    HW125890   2.467   3.124   9.472 -0.7626 -1.0920 -1.8610
 3490SOL    HW225891   2.601   3.126   9.542 -0.6540  1.6239 -2.0935
 3491SOL     OW25892   1.127   4.462   0.501 -0.1380 -0.5337  0.3757
 3491SOL    HW125893   1.223   4.457   0.498 -0.1200  0.2613 -1.0557
 3491SOL    HW225894   1.100   4.386   0.551  1.2580 -0.7233  0.8554
 3492SOL     OW25895   3.038   2.717  11.917  0.4096 -0.3291  0.0469
 3492SOL    HW125896   3.030   2.668  11.835  1.8078 -0.3177 -0.1068
 3492SOL    HW225897   3.131   2.738  11.923  0.6065 -1.7550  2.4915
 3493SOL     OW25898   5.348   0.089   1.262 -0.3664  0.0893  0.1359
 3493SOL    HW125899   5.352   0.029   1.188 -0.1553 -0.1788  0.3599
 3493SOL    HW225900   5.370   0.175   1.226  2.4335 -0.4967  0.4034
 3494SOL     OW25901   5.535   5.682   8.748  0.7082 -0.3007 -0.6047
 3494SOL    HW125902   5.581   5.641   8.822  0.3195  0.9082  0.3255
 3494SOL    HW225903   5.600   5.742   8.710 -0.0280  1.3193  0.6331
 3495SOL     OW25904   2.066   0.737  12.123  0.3082 -0.5027  0.9086
 3495SOL    HW125905   2.144   0.683  12.131  1.1179  0.5823  0.4346
 3495SOL    HW225906   2.029   0.713  12.038  1.5566  0.8176 -0.0404
 3496SOL     OW25907   2.137   3.296  10.030 -0.5092 -0.3327  0.7904
 3496SOL    HW125908   2.062   3.350  10.055 -0.9472 -0.7505  0.4044
 3496SOL    HW225909   2.098   3.219   9.987  0.1089 -0.8678  1.1717
 3497SOL     OW25910   5.821   1.700   0.043  0.3707  0.1365 -0.5779
 3497SOL    HW125911   5.851   1.616   0.010  1.1371 -0.3909  1.3847
 3497SOL    HW225912   5.901   1.748   0.064 -0.0752  0.0967  1.3433
 3498SOL     OW25913   0.072   0.296   3.124  0.0294  0.0794 -0.1139
 3498SOL    HW125914   0.077   0.273   3.031  1.7815  1.4020 -0.3638
 3498SOL    HW225915  -0.005   0.249   3.156  0.2209 -1.5071 -1.9084
 3499SOL     OW25916   1.473   3.605  12.369 -0.3073 -0.0789  0.8223
 3499SOL    HW125917   1.443   3.695  12.386  0.9763  0.6148 -0.3916
 3499SOL    HW225918   1.569   3.612  12.364 -0.1682 -1.5943  1.1096
 3500SOL     OW25919   4.660   1.564  10.195  0.6002 -0.8193 -0.3639
 3500SOL    HW125920   4.715   1.626  10.147 -0.2892  1.4876  1.4973
 3500SOL    HW225921   4.570   1.590  10.175  0.2141  0.0371  2.2599
 3501SOL     OW25922   3.280   0.716   3.428 -0.2959 -0.1023  0.5514
 3501SOL    HW125923   3.317   0.741   3.343 -0.5215 -1.4977  0.0273
 3501SOL    HW225924   3.348   0.739   3.491 -0.2400  1.2071  0.0278
 3502SOL     OW25925   2.821   2.409  11.268  0.7045  0.0991 -0.0826
 3502SOL    HW125926   2.843   2.404  11.361 -1.0321 -0.2056  0.3405
 3502SOL    HW225927   2.740   2.461  11.266  0.7049  0.0632 -1.4154
 3503SOL     OW25928   4.570   2.243   2.975 -0.0190 -0.0026  0.2902
 3503SOL    HW125929   4.514   2.239   2.897 -1.3674  0.8239  1.1751
 3503SOL    HW225930   4.529   2.182   3.036  1.4819 -1.2359  0.0924
 3504SOL     OW25931   2.874   4.240  12.106  0.1949 -0.0043 -0.0597
 3504SOL    HW125932   2.916   4.325  12.117 -0.7231  0.4949 -0.3825
 3504SOL    HW225933   2.939   4.187  12.060  0.0656  1.1005 -1.5332
 3505SOL     OW25934   4.705   4.447   2.409 -0.4533 -0.1919 -0.5858
 3505SOL    HW125935   4.799   4.464   2.415 -0.5076  0.1958 -0.8365
 3505SOL    HW225936   4.668   4.490   2.486 -0.5533  0.5610 -1.0498
 3506SOL     OW25937   4.783   4.252   8.902  0.1624  0.7689  0.1578
 3506SOL    HW125938   4.852   4.192   8.874  0.5027  1.5906 -0.8161
 3506SOL    HW225939   4.829   4.327   8.940 -0.0600  2.1620 -2.1625
 3507SOL     OW25940   1.962   3.869   1.911 -0.3343 -0.1085 -0.2772
 3507SOL    HW125941   1.983   3.959   1.882  0.2883 -0.0744  0.2693
 3507SOL    HW225942   1.942   3.823   1.830  1.5059 -0.0360 -0.7973
 3508SOL     OW25943   3.547   1.378   3.457  0.1906 -0.3436  0.0216
 3508SOL    HW125944   3.608   1.412   3.522 -1.5718  0.8068  1.1527
 3508SOL    HW225945   3.530   1.288   3.484 -0.5255  0.1248  1.1899
 3509SOL     OW25946   2.901   2.472   3.750 -0.1984  0.2040 -0.4273
 3509SOL    HW125947   2.843   2.448   3.823 -1.0186 -0.1227 -1.1697
 3509SOL    HW225948   2.866   2.555   3.718  0.6805  0.7834  0.0818
 3510SOL     OW25949   5.273   1.458   3.137 -0.1452  0.2666 -0.3617
 3510SOL    HW125950   5.254   1.430   3.047 -0.1692 -0.0549 -0.2578
 3510SOL    HW225951   5.364   1.433   3.151  0.0022  0.7295 -0.4504
 3511SOL     OW25952   1.272   5.749  11.491  0.4212 -0.5843  0.0459
 3511SOL    HW125953   1.327   5.686  11.537 -1.1119 -1.6724  0.4128
 3511SOL    HW225954   1.305   5.748  11.401 -1.5277 -4.2103 -0.6957
 3512SOL     OW25955   3.187   5.627  10.894 -0.1123 -0.4651 -0.1927
 3512SOL    HW125956   3.257   5.562  10.895 -1.0644 -1.5165 -0.7163
 3512SOL    HW225957   3.110   5.578  10.865 -0.4579  1.3167 -2.3819
 3513SOL     OW25958   0.568   5.392   7.828 -0.6590  0.3729 -0.4422
 3513SOL    HW125959   0.621   5.328   7.781 -0.3504  0.2158  0.1174
 3513SOL    HW225960   0.500   5.417   7.765  0.2731  0.8260 -1.2691
 3514SOL     OW25961   5.110   3.711  11.767  0.3340  0.6162 -0.8733
 3514SOL    HW125962   5.137   3.619  11.768  1.4596  0.9498  0.8436
 3514SOL    HW225963   5.018   3.709  11.794  0.4253  0.0283 -0.5956
 3515SOL     OW25964   2.209   0.760   1.317  0.6256 -0.2972 -0.7269
 3515SOL    HW125965   2.261   0.726   1.245 -0.3355  0.7062 -1.9069
 3515SOL    HW225966   2.123   0.719   1.307  0.8718 -1.1716  0.6236
 3516SOL     OW25967   5.711   5.101   8.478  0.0386  0.3138  0.2248
 3516SOL    HW125968   5.774   5.166   8.448 -0.6022 -0.1005 -2.1418
 3516SOL    HW225969   5.762   5.021   8.491  0.0800  0.0725 -1.3426
 3517SOL     OW25970   3.901   1.651   1.288  0.7354 -0.2587  0.2542
 3517SOL    HW125971   3.882   1.742   1.310  0.0676  0.1439 -1.8872
 3517SOL    HW225972   3.994   1.640   1.310  1.1155  1.2686 -0.4869
 3518SOL     OW25973   3.856   1.495   9.225 -0.1450 -0.2714 -0.1200
 3518SOL    HW125974   3.768   1.461   9.237  0.0178 -0.3986  0.7409
 3518SOL    HW225975   3.870   1.494   9.130 -1.0844 -0.1955 -0.2551
 3519SOL     OW25976   1.352   3.056   1.196 -0.0381 -0.1796  0.6855
 3519SOL    HW125977   1.344   3.028   1.288  0.1806  0.7394  0.9887
 3519SOL    HW225978   1.426   3.116   1.196 -0.4006  0.2691  0.0130
 3520SOL     OW25979   3.894   0.049   1.383 -0.5952 -0.0526 -1.2663
 3520SOL    HW125980   3.938  -0.011   1.443 -1.8335  0.0277 -0.2645
 3520SOL    HW225981   3.853   0.114   1.440  0.7114  1.7233 -2.3516
 3521SOL     OW25982   1.520   0.206   8.924  0.3259 -0.3875  0.0375
 3521SOL    HW125983   1.425   0.202   8.926  0.2715  1.4001  1.9801
 3521SOL    HW225984   1.548   0.166   9.006  1.1126  1.5231  0.7448
 3522SOL     OW25985   3.911   1.424  10.446  0.3941 -0.3045  0.2087
 3522SOL    HW125986   3.988   1.417  10.390  0.0683 -0.8656 -0.1716
 3522SOL    HW225987   3.851   1.358  10.413  0.0646 -0.4155  1.0144
 3523SOL     OW25988   1.853   4.192   9.900 -0.0025  0.0891 -0.0042
 3523SOL    HW125989   1.874   4.099   9.897 -1.3084 -0.2029 -0.6725
 3523SOL    HW225990   1.938   4.236   9.892  0.5887 -1.0350 -0.0508
 3524SOL     OW25991   3.069   3.773   1.879  0.6926  0.6098  0.0467
 3524SOL    HW125992   3.011   3.836   1.923 -0.5644  0.4421 -1.3208
 3524SOL    HW225993   3.120   3.826   1.818  2.6509  0.8875  1.8684
 3525SOL     OW25994   4.359   5.466   1.365  0.1269  0.3332 -0.9539
 3525SOL    HW125995   4.371   5.374   1.389 -1.9380  0.8508  2.3337
 3525SOL    HW225996   4.326   5.508   1.444  0.0604  3.7455 -2.6731
 3526SOL     OW25997   4.268   1.410   0.616 -0.0286 -0.7106 -0.5473
 3526SOL    HW125998   4.187   1.452   0.644  0.6235 -1.5352  2.9124
 3526SOL    HW225999   4.336   1.452   0.670  1.3379 -2.4150 -0.8909
 3527SOL     OW26000   5.269   3.016   2.742 -0.2805  0.3134 -0.4117
 3527SOL    HW126001   5.322   2.974   2.810 -1.4452 -2.2565 -1.0331
 3527SOL    HW226002   5.293   3.109   2.747  3.5349 -0.6037 -0.0152
 3528SOL     OW26003   0.959   0.270  11.157  0.0026 -0.0921 -0.0361
 3528SOL    HW126004   0.991   0.355  11.126 -1.7279  0.4797 -0.3165
 3528SOL    HW226005   1.027   0.239  11.216  1.2248  0.9323 -0.8655
 3529SOL     OW26006   2.965   2.667   8.556  0.5708  0.0576  0.0952
 3529SOL    HW126007   3.004   2.629   8.635  1.4134 -1.6535 -1.1297
 3529SOL    HW226008   3.019   2.744   8.537  0.5460  0.3100  1.0070
 3530SOL     OW26009   2.725   4.310   0.773 -0.0835 -0.0438 -0.1869
 3530SOL    HW126010   2.653   4.353   0.819  0.5493  2.0089 -1.0196
 3530SOL    HW226011   2.799   4.370   0.783  0.9709 -1.1759 -1.0044
 3531SOL     OW26012   5.792   1.791   1.318  0.1788  0.1542  0.0484
 3531SOL    HW126013   5.837   1.719   1.364  0.7657 -0.3429 -1.2939
 3531SOL    HW226014   5.703   1.758   1.304 -0.6634  1.1472  2.7334
 3532SOL     OW26015   4.152   4.575  11.176 -0.7087 -0.2172 -0.2226
 3532SOL    HW126016   4.186   4.488  11.157 -0.8947 -0.9384  2.4753
 3532SOL    HW226017   4.147   4.579  11.272 -2.7848  1.9573 -0.3500
 3533SOL     OW26018   0.623   2.962   1.590  0.3095 -0.4625 -0.1641
 3533SOL    HW126019   0.542   2.963   1.641  0.3046 -0.6900 -0.1658
 3533SOL    HW226020   0.692   2.980   1.653  0.3636 -1.3154  0.0280
 3534SOL     OW26021   5.946   5.073   1.935 -0.0168 -0.0368 -0.5237
 3534SOL    HW126022   5.947   4.990   1.983 -0.1825  0.2837  0.0389
 3534SOL    HW226023   5.854   5.099   1.935  0.0549  0.2152 -0.5849
 3535SOL     OW26024   3.300   4.776   0.376 -0.6108 -0.2236 -0.0682
 3535SOL    HW126025   3.376   4.827   0.346 -0.9664 -0.1102 -0.7842
 3535SOL    HW226026   3.243   4.842   0.416 -0.1674 -0.3640  0.8174
 3536SOL     OW26027   4.279   2.127  11.590  0.5572  0.0962  0.6902
 3536SOL    HW126028   4.316   2.133  11.502 -1.3691  0.1551 -0.1293
 3536SOL    HW226029   4.356   2.120  11.648  1.8853  1.2192 -0.8810
 3537SOL     OW26030   1.511   3.980   8.828 -0.3774  0.2587  0.1251
 3537SOL    HW126031   1.570   3.918   8.785  0.4954  1.4435 -0.3856
 3537SOL    HW226032   1.424   3.954   8.798 -0.0996 -1.2139  0.5237
 3538SOL     OW26033   1.212   0.630   7.561 -0.2899  0.0367  0.7399
 3538SOL    HW126034   1.183   0.543   7.587  0.6947 -0.4323  0.2936
 3538SOL    HW226035   1.195   0.685   7.637 -1.4277 -0.4260  0.8325
 3539SOL     OW26036   0.171   2.257   9.989 -0.1516 -0.1530  0.1645
 3539SOL    HW126037   0.187   2.338  10.037 -3.8513  2.3202 -2.5255
 3539SOL    HW226038   0.092   2.220  10.029 -1.5502  0.3976 -1.9774
 3540SOL     OW26039   0.442   4.152   0.998  0.4800 -0.0240 -0.2147
 3540SOL    HW126040   0.439   4.146   1.093 -2.5310 -2.8330 -0.3832
 3540SOL    HW226041   0.530   4.122   0.974  1.7847  2.1348  1.6892
 3541SOL     OW26042   1.806   3.471   2.034  0.5158 -0.4864 -0.4195
 3541SOL    HW126043   1.847   3.386   2.050  1.8409  0.1017 -0.5832
 3541SOL    HW226044   1.813   3.483   1.939  0.0458 -0.3333 -0.4372
 3542SOL     OW26045   1.171   5.561  11.925  0.2507 -0.2876  0.0475
 3542SOL    HW126046   1.261   5.573  11.893 -0.0468 -2.2621 -1.6298
 3542SOL    HW226047   1.179   5.500  11.998  0.3749  0.2690  0.5003
 3543SOL     OW26048   5.826   0.130   3.211 -0.2300  0.0500  0.4900
 3543SOL    HW126049   5.732   0.127   3.232  0.1617  1.1641  2.4910
 3543SOL    HW226050   5.870   0.126   3.296  1.4809  2.0481 -0.2531
 3544SOL     OW26051   4.732   5.691   2.597 -0.3703  0.5713 -0.5357
 3544SOL    HW126052   4.705   5.601   2.611  0.7914  0.2061 -0.5915
 3544SOL    HW226053   4.656   5.734   2.559 -0.1143 -0.9899 -2.8717
 3545SOL     OW26054   1.164   0.683   2.327  0.2245  0.5661 -0.4207
 3545SOL    HW126055   1.082   0.665   2.281  0.5817  0.7979 -1.1527
 3545SOL    HW226056   1.175   0.608   2.386  0.1427 -0.1098 -1.2450
 3546SOL     OW26057   4.763   5.348   0.690 -0.0796 -0.2470 -0.2302
 3546SOL    HW126058   4.855   5.368   0.708 -0.1557  2.0497 -2.1959
 3546SOL    HW226059   4.713   5.408   0.745 -0.3868 -0.6656 -0.0508
 3547SOL     OW26060   3.382   4.608   0.897 -0.3866  0.7913  0.2698
 3547SOL    HW126061   3.345   4.575   0.815 -0.6722  0.9231  0.3417
 3547SOL    HW226062   3.451   4.668   0.870 -0.0665  0.3622  0.1329
 3548SOL     OW26063   3.272   3.334  11.848 -0.1516  0.2487  0.1944
 3548SOL    HW126064   3.304   3.284  11.772 -1.6080 -1.1172  0.4493
 3548SOL    HW226065   3.325   3.414  11.848  1.2029 -0.6186 -1.1135
 3549SOL     OW26066   3.300   5.708   0.438 -0.3660 -0.0750  0.2483
 3549SOL    HW126067   3.375   5.762   0.463 -0.8857  0.0157  1.6702
 3549SOL    HW226068   3.264   5.677   0.521  0.3461 -3.2536 -0.5564
 3550SOL     OW26069   1.165   4.059   9.174  0.0027  0.2242 -0.6029
 3550SOL    HW126070   1.127   3.977   9.144  0.9031  0.2677 -1.9301
 3550SOL    HW226071   1.106   4.127   9.142 -1.2945  0.0737  1.3685
 3551SOL     OW26072   3.340   3.264   2.465 -0.3343  0.3238  0.2547
 3551SOL    HW126073   3.258   3.312   2.470 -0.8367 -0.5183  0.3115
 3551SOL    HW226074   3.356   3.236   2.555  0.5277  1.3203  0.4180
 3552SOL     OW26075   4.365   0.757   3.438  0.0255 -0.0629 -0.6720
 3552SOL    HW126076   4.297   0.717   3.493 -1.5524  0.8845 -1.8713
 3552SOL    HW226077   4.447   0.723   3.473 -0.9550  0.1647  1.9772
 3553SOL     OW26078   1.909   5.647   1.112 -0.0044  0.1482  0.3877
 3553SOL    HW126079   1.992   5.687   1.138 -0.7659  0.8475  1.8204
 3553SOL    HW226080   1.843   5.710   1.141 -0.9656  0.5852 -2.5627
 3554SOL     OW26081   3.654   2.694   7.999  0.5039  0.1402  0.3468
 3554SOL    HW126082   3.588   2.764   8.000 -0.2897 -0.5557 -1.1745
 3554SOL    HW226083   3.616   2.625   8.054  0.1055 -0.1347 -0.2729
 3555SOL     OW26084   5.317   5.892   9.389 -0.0209  0.4972  0.5392
 3555SOL    HW126085   5.338   5.957   9.456 -0.2386  0.7666  0.3455
 3555SOL    HW226086   5.227   5.867   9.406  0.3223 -0.3730  1.1274
 3556SOL     OW26087   2.359   3.802   1.155  0.0549 -0.1687 -0.5905
 3556SOL    HW126088   2.264   3.805   1.167  0.1515  0.3175  0.0817
 3556SOL    HW226089   2.394   3.796   1.244  0.6260 -1.1567 -0.8734
 3557SOL     OW26090   0.166   5.533  11.691 -0.0057 -0.3043  0.2452
 3557SOL    HW126091   0.104   5.539  11.618  1.1914 -1.7341 -0.9226
 3557SOL    HW226092   0.180   5.624  11.717  0.1123  0.3096 -1.8205
 3558SOL     OW26093   5.595   0.733  11.740 -0.6705 -0.6971  0.1729
 3558SOL    HW126094   5.568   0.769  11.656  0.1877  2.8835  1.3503
 3558SOL    HW226095   5.514   0.700  11.779 -1.6056  0.4880 -0.7182
 3559SOL     OW26096   4.606   1.520   7.884  0.3681  0.1295 -0.2960
 3559SOL    HW126097   4.515   1.499   7.907  1.1624 -1.5585  1.4863
 3559SOL    HW226098   4.625   1.463   7.809  0.2337 -0.2267 -0.0648
 3560SOL     OW26099   5.194   2.857   2.343  0.2099 -0.1332  0.0923
 3560SOL    HW126100   5.192   2.820   2.432  1.2238 -0.1461  0.1086
 3560SOL    HW226101   5.137   2.798   2.293 -0.8390  0.2035  0.8492
 3561SOL     OW26102   3.286   2.708   7.944 -0.1444  0.2275  0.0069
 3561SOL    HW126103   3.339   2.740   8.017  1.2769 -3.2987  0.6499
 3561SOL    HW226104   3.293   2.776   7.877  2.7172  1.2348  1.2571
 3562SOL     OW26105   2.791   5.571   1.153 -0.0386  0.0577  0.2698
 3562SOL    HW126106   2.708   5.522   1.150 -0.9293  1.3062  2.6913
 3562SOL    HW226107   2.783   5.625   1.231  1.5371  2.9869 -1.5135
 3563SOL     OW26108   2.169   4.607   4.329  0.1480 -0.0852 -0.1444
 3563SOL    HW126109   2.223   4.686   4.327 -1.1558  0.8013 -0.4920
 3563SOL    HW226110   2.201   4.554   4.255  2.4112 -0.8332  1.3201
 3564SOL     OW26111   3.320   0.638   2.806  0.1173 -0.2298 -0.0009
 3564SOL    HW126112   3.292   0.623   2.716 -2.5835 -0.7221  0.8644
 3564SOL    HW226113   3.307   0.554   2.849  2.1976 -0.2293  0.6714
 3565SOL     OW26114   4.463   2.008   3.051  0.2822  0.3581 -0.3090
 3565SOL    HW126115   4.372   2.015   3.020  0.4810 -0.3785 -1.0909
 3565SOL    HW226116   4.466   1.922   3.094 -0.0783  1.5083  2.0826
 3566SOL     OW26117   1.754   4.545  10.266 -0.1816 -0.0437 -0.3120
 3566SOL    HW126118   1.832   4.567  10.215  0.8916  0.4820  1.5006
 3566SOL    HW226119   1.778   4.565  10.357 -2.5383  0.4622  0.2403
 3567SOL     OW26120   0.435   1.409   3.231  0.2423 -0.0127 -0.3115
 3567SOL    HW126121   0.440   1.458   3.313  1.3362 -3.5278  1.8425
 3567SOL    HW226122   0.383   1.331   3.252  1.2760 -1.4173 -2.6974
 3568SOL     OW26123   3.158   4.677   1.202 -0.2804  0.3113 -0.2039
 3568SOL    HW126124   3.229   4.612   1.209 -0.4123  0.0240 -1.4128
 3568SOL    HW226125   3.082   4.633   1.238 -0.2641 -0.0590 -0.6057
 3569SOL     OW26126   1.716   3.382  10.385 -0.9097  0.1503  0.3002
 3569SOL    HW126127   1.650   3.312  10.384 -0.6718 -0.0715  0.0279
 3569SOL    HW226128   1.684   3.444  10.451 -1.2056 -0.1348  0.4262
 3570SOL     OW26129   3.813   0.915   1.008 -0.1552 -0.5752 -0.4483
 3570SOL    HW126130   3.855   0.845   0.958 -0.9076  0.1618 -2.1469
 3570SOL    HW226131   3.720   0.892   1.010 -0.4072  0.3663 -1.0106
 3571SOL     OW26132   1.323   1.557   2.641 -0.0732 -0.0491 -0.2788
 3571SOL    HW126133   1.385   1.579   2.571 -0.8131  1.8106 -0.3825
 3571SOL    HW226134   1.252   1.512   2.596  1.3142 -2.4867 -0.1144
 3572SOL     OW26135   4.487   0.043   2.483  0.4011 -0.7132  0.6660
 3572SOL    HW126136   4.466  -0.024   2.548  0.1473 -0.3889  0.9191
 3572SOL    HW226137   4.415   0.105   2.488  0.5160 -0.5408  0.2631
 3573SOL     OW26138   1.776   3.931   9.993 -0.1360  0.1979 -0.0117
 3573SOL    HW126139   1.696   3.979  10.015 -0.1505  0.1353  0.0771
 3573SOL    HW226140   1.837   3.952  10.064 -0.1685  0.0226  0.0673
 3574SOL     OW26141   0.451   3.528   1.770 -0.5135  0.2346 -0.2897
 3574SOL    HW126142   0.536   3.489   1.788 -1.2123 -1.2229 -0.1320
 3574SOL    HW226143   0.449   3.608   1.823  0.5782  0.0605  0.0170
 3575SOL     OW26144   2.929   4.574   3.306  0.6951  0.0889  0.2219
 3575SOL    HW126145   2.921   4.484   3.336  1.7426  0.1463  0.6600
 3575SOL    HW226146   2.877   4.625   3.369  0.7042 -0.1102  0.3917
 3576SOL     OW26147   5.164   1.146   3.060 -0.5082 -0.6695 -0.0436
 3576SOL    HW126148   5.113   1.177   2.985 -0.2208 -1.5302 -0.6017
 3576SOL    HW226149   5.237   1.208   3.066 -2.3792  1.4797  1.6895
 3577SOL     OW26150   4.431   4.924   1.811 -0.0867  0.0702 -0.0848
 3577SOL    HW126151   4.411   4.836   1.779 -0.5474  0.9063 -2.1393
 3577SOL    HW226152   4.359   4.979   1.781  1.3552  1.6009 -0.8745
 3578SOL     OW26153   0.515   4.361   2.987 -0.1943 -0.0885  0.1853
 3578SOL    HW126154   0.572   4.425   2.946  0.6542 -0.7833  0.2730
 3578SOL    HW226155   0.428   4.402   2.986  0.2767  0.9125 -0.0651
 3579SOL     OW26156   5.722   0.976  11.094 -0.5417 -0.1079 -0.5983
 3579SOL    HW126157   5.762   0.979  11.181 -0.3997 -0.2550 -0.6569
 3579SOL    HW226158   5.794   0.949  11.036 -0.1275  1.8833 -1.0500
 3580SOL     OW26159   5.316   3.902   1.897 -0.1994 -0.0141 -0.2327
 3580SOL    HW126160   5.340   3.934   1.985 -2.7364  3.4751 -0.7109
 3580SOL    HW226161   5.324   3.979   1.841  0.7846 -2.0572 -3.0121
 3581SOL     OW26162   3.841   2.666  12.123  0.1632  0.2889 -0.5157
 3581SOL    HW126163   3.865   2.574  12.113 -1.1629 -0.0803 -0.2716
 3581SOL    HW226164   3.764   2.666  12.179  0.8766  1.6369  0.5028
 3582SOL     OW26165   5.258   1.790   2.683 -0.0293  0.0594  0.1316
 3582SOL    HW126166   5.285   1.818   2.770  0.9265 -1.8031  0.4669
 3582SOL    HW226167   5.340   1.786   2.633 -0.1967 -1.4498 -0.0713
 3583SOL     OW26168   4.655   1.206   9.021 -0.4405  0.1619  0.3146
 3583SOL    HW126169   4.617   1.234   8.938 -2.6103 -0.3390  1.1065
 3583SOL    HW226170   4.603   1.251   9.087  0.6428 -0.2042  1.4417
 3584SOL     OW26171   4.385   3.803   8.275  0.0323  0.2562  1.0692
 3584SOL    HW126172   4.458   3.810   8.337  0.2171  1.6756  0.7110
 3584SOL    HW226173   4.353   3.892   8.266 -1.1261 -0.2141  0.4614
 3585SOL     OW26174   1.932   3.361   0.372  0.2126  0.2037  0.0388
 3585SOL    HW126175   1.877   3.287   0.396 -1.7271  0.8816 -2.1970
 3585SOL    HW226176   1.909   3.429   0.436 -2.3444  0.8307 -1.4934
 3586SOL     OW26177   3.997   3.488   9.458  0.2665  0.4726 -0.1046
 3586SOL    HW126178   3.903   3.499   9.474  0.0005  0.2487 -1.4038
 3586SOL    HW226179   4.001   3.430   9.382  1.4563  0.5111 -0.0768
 3587SOL     OW26180   3.085   4.265  11.122 -0.0984  0.1582  0.0726
 3587SOL    HW126181   3.110   4.213  11.046  0.9583  0.1868  0.4013
 3587SOL    HW226182   3.167   4.291  11.162 -0.5614  3.3802 -0.9198
 3588SOL     OW26183   2.948   1.435   1.150 -0.1645  0.4824  0.2725
 3588SOL    HW126184   3.011   1.503   1.174 -0.8546  1.2142  0.0495
 3588SOL    HW226185   2.862   1.475   1.165 -0.5756 -0.4727  0.4916
 3589SOL     OW26186   3.069   1.258  10.937  0.3047  0.2597  0.1565
 3589SOL    HW126187   3.029   1.342  10.959  0.1868  0.3770 -0.4946
 3589SOL    HW226188   3.004   1.215  10.881 -0.1063 -0.7152  1.3249
 3590SOL     OW26189   3.016   4.196   0.529 -0.5507 -0.1305  0.2573
 3590SOL    HW126190   2.941   4.252   0.512 -1.7337 -1.3090  1.4069
 3590SOL    HW226191   2.991   4.147   0.608  1.3549 -0.6574  0.5551
 3591SOL     OW26192   1.821   4.387   2.172  0.4563 -0.3398 -0.1766
 3591SOL    HW126193   1.732   4.371   2.140  0.3422 -0.6952  0.3064
 3591SOL    HW226194   1.848   4.468   2.129  0.3547 -0.8804 -1.2714
 3592SOL     OW26195   2.125   3.221   3.686  0.6264  0.0192 -0.1161
 3592SOL    HW126196   2.177   3.293   3.722 -0.0566  0.7126 -0.5058
 3592SOL    HW226197   2.109   3.246   3.596 -2.1036  0.7885  0.5401
 3593SOL     OW26198   2.081   2.960  10.588 -0.2742  0.2060  0.4828
 3593SOL    HW126199   2.007   2.973  10.528  0.8193 -1.0367 -1.1526
 3593SOL    HW226200   2.048   2.896  10.652 -0.4539 -0.6816 -0.4984
 3594SOL     OW26201   5.951   3.410   8.397 -0.2959 -0.0702 -0.0667
 3594SOL    HW126202   5.891   3.375   8.332 -0.1875 -2.2508  0.9537
 3594SOL    HW226203   5.952   3.344   8.467  1.3025  1.1442  1.1010
 3595SOL     OW26204   0.242   2.755   0.097 -0.3547 -0.2793 -0.1413
 3595SOL    HW126205   0.249   2.738   0.004  0.1553 -0.1961 -0.1190
 3595SOL    HW226206   0.168   2.816   0.105  2.1002  2.9032 -0.9132
 3596SOL     OW26207   0.337   3.414  10.872  0.3291  0.4475 -0.2235
 3596SOL    HW126208   0.343   3.323  10.841  0.9681  0.3365  0.2184
 3596SOL    HW226209   0.318   3.406  10.965  0.7303  0.7665 -0.1125
 3597SOL     OW26210   5.509   4.642  10.757 -0.2725 -0.5476  0.2248
 3597SOL    HW126211   5.440   4.630  10.693 -2.1650 -0.0596  2.1179
 3597SOL    HW226212   5.463   4.653  10.840  1.9474  2.3160  1.1633
 3598SOL     OW26213   1.067   0.955   9.251 -0.1888 -0.5378 -0.4274
 3598SOL    HW126214   1.074   0.890   9.322 -1.3417 -1.0843 -0.7904
 3598SOL    HW226215   1.054   0.902   9.172 -1.0377  0.1285 -0.7437
 3599SOL     OW26216   0.501   5.557   0.654 -0.0419 -0.3509  0.0704
 3599SOL    HW126217   0.561   5.573   0.727 -0.8493  0.0238  0.6723
 3599SOL    HW226218   0.456   5.476   0.678  0.7931 -1.0631 -0.7645
 3600SOL     OW26219   1.881   5.366   2.036  0.5146  0.7139 -0.8238
 3600SOL    HW126220   1.853   5.285   1.993  1.9865  0.6147 -1.6098
 3600SOL    HW226221   1.849   5.357   2.126 -1.6239  0.4423 -1.5901
 3601SOL     OW26222   0.892   5.796   9.143 -0.4667 -0.1929 -0.8769
 3601SOL    HW126223   0.816   5.853   9.137  0.1082  0.5779 -0.9136
 3601SOL    HW226224   0.894   5.750   9.059 -0.9475 -0.2976 -0.8342
 3602SOL     OW26225   1.998   3.030   9.477 -0.2347  0.1012 -0.4107
 3602SOL    HW126226   1.928   3.009   9.538 -0.4268 -1.3860 -1.1146
 3602SOL    HW226227   1.970   3.111   9.435 -0.1457  1.1001  1.3741
 3603SOL     OW26228   3.768   0.270   1.561 -0.5715 -0.3517 -0.7850
 3603SOL    HW126229   3.736   0.340   1.503 -1.0173  0.3112  0.2512
 3603SOL    HW226230   3.776   0.312   1.647  1.9492 -0.8003 -0.7541
 3604SOL     OW26231   0.663   5.346  10.038 -0.0506 -0.6616  1.1431
 3604SOL    HW126232   0.595   5.378  10.097  0.9351  0.5117  1.6689
 3604SOL    HW226233   0.745   5.371  10.080  0.6715  0.1191 -0.6834
 3605SOL     OW26234   3.915   0.553  12.407  0.3009  0.3994  0.5628
 3605SOL    HW126235   3.823   0.530  12.415  0.4753 -0.3715  0.4312
 3605SOL    HW226236   3.916   0.636  12.359 -0.2449 -0.4017 -0.8523
 3606SOL     OW26237   4.656   5.183  10.750 -0.8676 -0.2038  0.1973
 3606SOL    HW126238   4.596   5.217  10.683 -1.6819 -3.0708 -0.5784
 3606SOL    HW226239   4.610   5.196  10.833 -1.6818 -0.4860 -0.2045
 3607SOL     OW26240   2.185   2.913   3.813  0.2412 -0.2465 -0.5422
 3607SOL    HW126241   2.242   2.990   3.812  0.9126 -0.7236  0.0852
 3607SOL    HW226242   2.136   2.922   3.895  0.1007 -0.3292 -0.6177
 3608SOL     OW26243   3.013   0.829   2.773 -0.1293  0.5807  0.4299
 3608SOL    HW126244   3.065   0.756   2.806  0.3268  0.8256  0.2535
 3608SOL    HW226245   3.036   0.903   2.829  1.1389  1.1676 -0.8314
 3609SOL     OW26246   0.065   5.657   0.157 -0.2177  0.1060 -0.4502
 3609SOL    HW126247   0.019   5.615   0.085  0.4034 -0.1067 -0.7249
 3609SOL    HW226248   0.058   5.751   0.138 -2.0021  0.1649  0.4062
 3610SOL     OW26249   1.432   3.600   2.839 -0.3482 -0.2218 -0.1948
 3610SOL    HW126250   1.359   3.632   2.892 -0.9053 -1.4552 -0.2049
 3610SOL    HW226251   1.406   3.512   2.813  1.5421 -1.0374  0.5777
 3611SOL     OW26252   0.328   4.894  10.235  0.0871 -0.7575  0.1793
 3611SOL    HW126253   0.300   4.809  10.269  0.1713 -1.4685 -1.5047
 3611SOL    HW226254   0.271   4.957  10.279  0.5996 -1.5790  2.0980
 3612SOL     OW26255   1.807   1.905   1.579  0.2811 -0.4860 -0.2885
 3612SOL    HW126256   1.891   1.867   1.607  1.3764  1.1770 -1.1766
 3612SOL    HW226257   1.775   1.950   1.658  1.0673  0.2935 -0.4068
 3613SOL     OW26258   2.299   4.720   9.326  0.1537 -0.7143  0.1832
 3613SOL    HW126259   2.277   4.692   9.415 -2.3882 -0.5377 -0.3542
 3613SOL    HW226260   2.253   4.659   9.269  0.6867 -0.0270 -1.0156
 3614SOL     OW26261   3.135   5.702   3.093 -0.0595 -0.2829  0.2923
 3614SOL    HW126262   3.107   5.782   3.048 -0.4451  0.8473  2.4277
 3614SOL    HW226263   3.057   5.647   3.097 -0.0694 -0.3074 -0.2519
 3615SOL     OW26264   5.181   3.703   0.525 -0.7799 -0.1007  0.0030
 3615SOL    HW126265   5.186   3.684   0.619 -0.6959 -1.5197 -0.2851
 3615SOL    HW226266   5.271   3.698   0.495 -0.7469  0.8372 -0.0716
 3616SOL     OW26267   4.558   5.326  10.305  0.0472 -0.5807 -0.3294
 3616SOL    HW126268   4.467   5.297  10.315 -0.2333  0.3036 -0.2825
 3616SOL    HW226269   4.587   5.345  10.394 -1.1200  3.2970 -0.7032
 3617SOL     OW26270   0.390   1.632   0.127  0.0737  0.0082  0.1331
 3617SOL    HW126271   0.335   1.580   0.067  1.9308 -2.5999  0.6154
 3617SOL    HW226272   0.348   1.621   0.212  0.8419 -1.2844  0.3542
 3618SOL     OW26273   4.092   3.285   2.865  0.3879 -0.0070  0.0632
 3618SOL    HW126274   4.156   3.352   2.889  1.5289 -1.1218  0.1466
 3618SOL    HW226275   4.038   3.326   2.797  2.5647  0.1818 -1.5942
 3619SOL     OW26276   0.068   2.533   0.722  0.9628  0.3222 -0.0904
 3619SOL    HW126277   0.029   2.617   0.698  0.3065  0.3291  0.9806
 3619SOL    HW226278   0.014   2.501   0.794  3.3356  0.6468  1.8942
 3620SOL     OW26279   3.223   3.109   1.698  0.0727 -0.1743 -0.2853
 3620SOL    HW126280   3.187   3.115   1.609 -0.9977 -0.3111  0.1414
 3620SOL    HW226281   3.243   3.016   1.709  1.4913  0.0423 -0.8801
 3621SOL     OW26282   1.233   0.635  11.027  0.3041 -0.0242 -0.4925
 3621SOL    HW126283   1.263   0.555  10.983 -0.5807 -1.0937  0.8257
 3621SOL    HW226284   1.293   0.646  11.100  0.5653  0.6610 -0.8044
 3622SOL     OW26285   5.411   2.823   2.905  0.3810  0.0287 -0.2988
 3622SOL    HW126286   5.435   2.788   2.991  0.2472 -1.6484 -0.9209
 3622SOL    HW226287   5.337   2.769   2.877  0.1482  0.8444 -1.2912
 3623SOL     OW26288   0.225   3.051   3.197  0.2160  0.2622 -0.0407
 3623SOL    HW126289   0.173   3.098   3.261  1.3094 -2.7745  3.2482
 3623SOL    HW226290   0.309   3.097   3.195  0.2070  0.3260  0.8099
 3624SOL     OW26291   5.693   5.565   8.970 -0.2680 -0.3551  0.3617
 3624SOL    HW126292   5.775   5.517   8.985 -0.6438 -1.4540 -0.9791
 3624SOL    HW226293   5.634   5.534   9.039  0.0847 -0.4169  0.6360
 3625SOL     OW26294   1.025   0.855   3.697  0.7059 -0.4518  0.2218
 3625SOL    HW126295   1.082   0.794   3.649  1.9503  2.1459 -1.7329
 3625SOL    HW226296   0.960   0.883   3.633  0.2602  0.4045  1.0358
 3626SOL     OW26297   0.741   2.257  12.124 -0.1127 -0.5442  0.2677
 3626SOL    HW126298   0.809   2.299  12.071  0.6855 -0.3777  1.4030
 3626SOL    HW226299   0.788   2.219  12.198 -0.8445 -3.1280 -0.5170
 3627SOL     OW26300   0.536   2.160   0.924  0.2250  0.3864 -0.6598
 3627SOL    HW126301   0.601   2.161   0.995 -1.5484 -0.9264  1.0317
 3627SOL    HW226302   0.476   2.089   0.947 -0.9901  0.6170 -2.9536
 3628SOL     OW26303   4.910   4.819   9.436 -0.1785 -0.5539  0.2907
 3628SOL    HW126304   4.855   4.893   9.413 -0.0737 -0.0288  1.6954
 3628SOL    HW226305   4.987   4.858   9.477 -1.1105 -1.5149  3.0873
 3629SOL     OW26306   0.837   5.120  11.793  0.3184  0.4280 -0.0067
 3629SOL    HW126307   0.806   5.210  11.795  0.0849  0.3230  1.6208
 3629SOL    HW226308   0.758   5.067  11.805  0.6979  0.0685  0.9758
 3630SOL     OW26309   3.766   2.968  10.348 -0.5146 -0.0314 -0.7589
 3630SOL    HW126310   3.678   2.954  10.382 -0.0878  0.4415  0.5449
 3630SOL    HW226311   3.799   3.044  10.395  0.8361 -0.5928 -0.7670
 3631SOL     OW26312   0.492   3.982  10.832  0.1876  0.1664 -0.2131
 3631SOL    HW126313   0.580   3.964  10.801  0.6312 -0.5805  1.4289
 3631SOL    HW226314   0.458   3.897  10.861 -0.9606  0.4897 -0.5566
 3632SOL     OW26315   4.114   2.313   0.740  0.8477  0.3530 -0.4861
 3632SOL    HW126316   4.079   2.319   0.651 -0.8918 -1.5447  0.0164
 3632SOL    HW226317   4.166   2.233   0.740  0.7956  0.3181  0.2211
 3633SOL     OW26318   0.659   4.981  11.978 -0.1981 -0.1917  0.5342
 3633SOL    HW126319   0.600   5.056  11.980  0.2148  0.1501 -0.0792
 3633SOL    HW226320   0.622   4.921  12.043 -2.7032 -1.0889 -1.6175
 3634SOL     OW26321   1.908   2.386   2.809 -0.4433  0.4263  0.0051
 3634SOL    HW126322   1.952   2.381   2.724 -2.3676 -0.7215 -0.9614
 3634SOL    HW226323   1.955   2.324   2.864 -1.2092 -1.2802 -1.2085
 3635SOL     OW26324   3.069   0.679   1.821 -0.0903 -0.9018  0.0322
 3635SOL    HW126325   3.100   0.670   1.911  0.6151 -1.6482 -0.2696
 3635SOL    HW226326   3.004   0.749   1.824  1.0777  0.1684  0.8350
 3636SOL     OW26327   0.037   2.947  11.770  0.5875  0.1036  0.3872
 3636SOL    HW126328  -0.023   3.001  11.821  2.1654  1.7882  0.5111
 3636SOL    HW226329   0.124   2.970  11.803  1.5056 -0.1773 -1.7480
 3637SOL     OW26330   2.705   3.783   0.302  0.5789  0.0005  0.3399
 3637SOL    HW126331   2.749   3.736   0.231  2.1869  1.6090  0.2301
 3637SOL    HW226332   2.664   3.714   0.355  2.9180 -1.5284  0.2329
 3638SOL     OW26333   4.325   4.178   2.642  0.3829  0.1069  0.5640
 3638SOL    HW126334   4.370   4.216   2.567  0.2613 -1.4290 -0.3077
 3638SOL    HW226335   4.393   4.131   2.690  0.3434  0.5796  1.0888
 3639SOL     OW26336   3.286   4.591   7.905  0.1540  0.1750  0.6519
 3639SOL    HW126337   3.374   4.566   7.876 -0.4859  0.5220 -1.6311
 3639SOL    HW226338   3.287   4.687   7.905 -0.2847  0.1770  0.4936
 3640SOL     OW26339   0.712   0.381   4.025  0.0579  0.0440  0.1396
 3640SOL    HW126340   0.755   0.460   4.058  0.0077  0.3819 -0.5868
 3640SOL    HW226341   0.648   0.359   4.092  1.3433 -0.4569  1.2236
 3641SOL     OW26342   2.599   5.510   9.666  0.0826  0.6513  0.0545
 3641SOL    HW126343   2.529   5.530   9.603 -0.6565 -1.1029  0.3040
 3641SOL    HW226344   2.593   5.580   9.731 -0.2327  1.5495 -0.9212
 3642SOL     OW26345   0.638   4.417   0.193  0.7482  0.4793  0.3581
 3642SOL    HW126346   0.555   4.463   0.205  0.2190 -0.4362  0.2942
 3642SOL    HW226347   0.679   4.417   0.280  1.4962  2.4434  0.0286
 3643SOL     OW26348   5.937   3.452  11.394  0.6114 -0.1753  0.4192
 3643SOL    HW126349   5.879   3.515  11.352  0.2310 -0.9429 -0.2285
 3643SOL    HW226350   6.025   3.475  11.363  0.5795  0.5637  0.8637
 3644SOL     OW26351   2.653   1.050  12.010 -0.2538  0.2046 -0.0754
 3644SOL    HW126352   2.652   1.048  12.106  0.8127  0.0565 -0.0675
 3644SOL    HW226353   2.572   1.096  11.987 -0.8655 -0.3763  0.8758
 3645SOL     OW26354   0.554   1.002  10.949  0.1821 -0.1685  0.0807
 3645SOL    HW126355   0.589   0.985  11.037  1.1617 -0.9616 -0.4500
 3645SOL    HW226356   0.558   1.097  10.940  0.4984 -0.1121  0.7226
 3646SOL     OW26357   3.378   2.249  11.867 -0.6361 -0.0690 -0.7876
 3646SOL    HW126358   3.453   2.205  11.906  0.3119  0.7714 -1.6273
 3646SOL    HW226359   3.325   2.276  11.942  0.3424  0.0950 -0.1353
 3647SOL     OW26360   5.934   1.152   1.947 -0.0474 -0.0479 -0.7124
 3647SOL    HW126361   5.878   1.163   2.024  0.9750  0.2133  0.0044
 3647SOL    HW226362   5.992   1.228   1.948  0.9625 -0.7932 -0.8961
 3648SOL     OW26363   2.163   3.129   3.059  0.2775 -0.2790 -0.5696
 3648SOL    HW126364   2.085   3.159   3.011 -0.4714  1.8215  1.8605
 3648SOL    HW226365   2.130   3.061   3.117  0.9576 -1.9144 -2.0353
 3649SOL     OW26366   4.491   0.938  11.064 -0.2313 -0.9646  0.0348
 3649SOL    HW126367   4.561   0.873  11.065  0.6815 -0.0675 -2.3098
 3649SOL    HW226368   4.411   0.887  11.048  0.1116 -1.8031  0.9739
 3650SOL     OW26369   0.264   1.998   9.863  0.2244  0.3748  0.0305
 3650SOL    HW126370   0.259   2.088   9.895  0.0503 -0.0659  1.2965
 3650SOL    HW226371   0.242   2.003   9.770 -1.2740  1.4351  0.4383
 3651SOL     OW26372   3.523   4.994  10.133  0.1244 -0.2906  0.3773
 3651SOL    HW126373   3.490   4.904  10.134 -0.5681 -0.0373  0.6380
 3651SOL    HW226374   3.507   5.024  10.043 -1.1932  0.1304  0.7386
 3652SOL     OW26375   0.565   4.420   9.777  0.0010 -0.3784  0.3415
 3652SOL    HW126376   0.646   4.371   9.790 -0.5230 -1.3742 -0.1327
 3652SOL    HW226377   0.524   4.379   9.701 -1.0387  0.0103  0.6869
 3653SOL     OW26378   1.840   4.066   7.492  0.4523 -0.1738  0.2537
 3653SOL    HW126379   1.861   3.975   7.468  0.4963  0.3835 -1.9393
 3653SOL    HW226380   1.745   4.066   7.505  0.5212 -0.6475  0.7632
 3654SOL     OW26381   1.344   5.878   2.284 -0.7884  0.2945  0.3254
 3654SOL    HW126382   1.394   5.960   2.283 -1.2774  0.6051 -1.1546
 3654SOL    HW226383   1.260   5.902   2.323 -1.2240  0.7047 -0.8270
 3655SOL     OW26384   1.125   5.136   9.115  0.1193 -0.0412 -0.1613
 3655SOL    HW126385   1.060   5.205   9.131  0.0989 -0.4505  1.5753
 3655SOL    HW226386   1.150   5.148   9.023  0.3901  2.5126  0.2174
 3656SOL     OW26387   2.618   3.379  10.444 -0.4782 -0.1384 -0.0044
 3656SOL    HW126388   2.599   3.315  10.512 -0.2288  0.5050  0.6759
 3656SOL    HW226389   2.619   3.328  10.363 -4.3891 -0.3433 -0.0124
 3657SOL     OW26390   3.464   1.983   8.563  0.1324  0.0514  0.0027
 3657SOL    HW126391   3.455   1.972   8.469  0.0915 -0.4786  0.0621
 3657SOL    HW226392   3.385   2.029   8.591 -0.1860 -0.4126 -0.1243
 3658SOL     OW26393   0.101   0.817  11.723  0.0946 -0.2560  0.1005
 3658SOL    HW126394   0.170   0.792  11.785  0.6020  1.6010  0.3176
 3658SOL    HW226395   0.021   0.815  11.775  0.2602 -0.4626  0.3511
 3659SOL     OW26396   2.787   5.840   1.071 -0.5130  0.1035  0.3355
 3659SOL    HW126397   2.782   5.745   1.073 -2.3433  0.1521 -0.9364
 3659SOL    HW226398   2.779   5.863   0.978  3.5631  1.3702  0.1644
 3660SOL     OW26399   5.370   0.983   8.784 -0.4169  0.5500 -0.5265
 3660SOL    HW126400   5.396   0.892   8.774 -2.0823  0.1055 -0.9265
 3660SOL    HW226401   5.395   1.025   8.701 -1.3274  0.0471 -1.0544
 3661SOL     OW26402   5.706   4.437   1.597  0.1943  0.5224 -0.2892
 3661SOL    HW126403   5.638   4.460   1.533 -0.9363 -0.4272  0.5570
 3661SOL    HW226404   5.741   4.353   1.566 -0.0042  0.3076  0.0754
 3662SOL     OW26405   4.875   1.394  10.810  0.2534  0.7103  0.3062
 3662SOL    HW126406   4.927   1.378  10.731  1.3193  2.5872  0.6061
 3662SOL    HW226407   4.871   1.489  10.817 -1.5977  0.5738  1.3764
 3663SOL     OW26408   0.922   2.251  10.116 -0.3536 -0.1174  0.1314
 3663SOL    HW126409   0.855   2.193  10.152 -0.2937  0.9423  2.0910
 3663SOL    HW226410   0.875   2.306  10.054 -0.9637 -0.4962  0.2507
 3664SOL     OW26411   2.670   4.530   8.360  0.1740 -0.1139 -0.0342
 3664SOL    HW126412   2.626   4.511   8.442 -0.2879 -1.5833 -0.6081
 3664SOL    HW226413   2.705   4.446   8.331 -2.2460 -0.2310 -2.8181
 3665SOL     OW26414   3.183   1.789  11.775 -1.1106 -0.2371  0.2258
 3665SOL    HW126415   3.168   1.872  11.820  1.7321  0.6087 -0.2618
 3665SOL    HW226416   3.143   1.801  11.689  0.3158  1.1213 -0.2819
 3666SOL     OW26417   5.190   3.242  12.056  0.4862 -0.2025 -0.3516
 3666SOL    HW126418   5.121   3.292  12.100  1.8267  0.6373  0.8259
 3666SOL    HW226419   5.145   3.163  12.024 -1.3021  0.9761 -0.8181
 3667SOL     OW26420   1.722   5.011   0.670  0.1014  0.3101 -0.1164
 3667SOL    HW126421   1.627   5.002   0.685  0.2224  0.2944  0.6597
 3667SOL    HW226422   1.757   4.924   0.685  0.2659  0.3529 -0.2458
 3668SOL     OW26423   5.090   0.036   0.249 -0.5638 -0.3099 -0.0225
 3668SOL    HW126424   5.089  -0.054   0.219  2.4585 -0.8331  1.1938
 3668SOL    HW226425   5.116   0.030   0.341  2.2012  1.8762 -0.5703
 3669SOL     OW26426   4.833   0.874  10.640  0.6933 -0.0809 -0.6161
 3669SOL    HW126427   4.810   0.784  10.666  1.1384 -0.3978 -1.2910
 3669SOL    HW226428   4.822   0.925  10.720 -0.3174 -0.5975 -0.4086
 3670SOL     OW26429   3.349   1.550   3.439 -0.7093 -0.4400  0.1957
 3670SOL    HW126430   3.372   1.621   3.499 -2.0415 -1.0919  1.5046
 3670SOL    HW226431   3.431   1.503   3.426  0.1086  1.0724 -0.3721
 3671SOL     OW26432   4.929   3.754   0.992  0.0482  0.3210  0.3952
 3671SOL    HW126433   4.891   3.803   0.919 -1.3117 -0.1067  0.7841
 3671SOL    HW226434   4.994   3.697   0.951  0.6513  1.4456 -0.2330
 3672SOL     OW26435   3.916   1.854   3.814 -0.3762  0.7251 -0.3703
 3672SOL    HW126436   3.823   1.870   3.827 -0.4530 -0.0640  0.0560
 3672SOL    HW226437   3.953   1.852   3.902 -0.0732  0.3394 -0.5023
 3673SOL     OW26438   1.480   3.958   3.008  0.0481  0.2568 -0.5564
 3673SOL    HW126439   1.420   3.909   2.951  0.3186  0.6597 -1.2024
 3673SOL    HW226440   1.520   3.892   3.064 -1.2122  0.0156  0.0763
 3674SOL     OW26441   1.237   5.330  11.472 -0.3314  0.1061  0.1572
 3674SOL    HW126442   1.278   5.381  11.402  0.7575 -0.8831  0.0672
 3674SOL    HW226443   1.143   5.346  11.461 -0.2489 -0.8506 -2.1713
 3675SOL     OW26444   3.002   1.963   1.764 -0.4572 -0.1297 -0.2052
 3675SOL    HW126445   2.969   1.977   1.853  0.5872 -0.5695  0.2732
 3675SOL    HW226446   2.990   2.047   1.720  0.0698  0.4499  0.7195
 3676SOL     OW26447   5.962   3.905   3.852 -0.1837  0.4234 -0.0429
 3676SOL    HW126448   5.916   3.890   3.769  0.7340  0.1199 -0.5106
 3676SOL    HW226449   5.936   3.993   3.879 -0.9342  0.3013 -0.3638
 3677SOL     OW26450   0.607   2.987   7.912  0.1509  0.4957 -0.6580
 3677SOL    HW126451   0.665   2.951   7.980 -1.5758 -0.0787  0.5617
 3677SOL    HW226452   0.584   2.911   7.858  1.2936  0.8997 -1.7172
 3678SOL     OW26453   0.769   3.011  10.926 -0.4350 -0.0552 -0.6580
 3678SOL    HW126454   0.749   3.063  10.848  0.3345  0.7465 -0.3297
 3678SOL    HW226455   0.844   2.958  10.901  0.7328  1.2633 -0.0135
 3679SOL     OW26456   2.621   0.244  10.663 -0.4619  0.2926  0.1214
 3679SOL    HW126457   2.664   0.182  10.603 -1.4636 -0.3272  0.0376
 3679SOL    HW226458   2.633   0.329  10.621 -0.1266  0.0084 -0.3739
 3680SOL     OW26459   3.158   0.203   1.613  0.2029  0.4180 -0.2725
 3680SOL    HW126460   3.153   0.120   1.660  0.2589  0.1601 -0.7198
 3680SOL    HW226461   3.116   0.266   1.672 -1.3714 -0.2464 -0.6438
 3681SOL     OW26462   0.973   2.923  12.055 -0.0529 -0.5415  0.0951
 3681SOL    HW126463   1.061   2.935  12.020 -0.4825  1.9822 -0.1972
 3681SOL    HW226464   0.953   3.006  12.099 -2.5359 -0.8210 -0.4145
 3682SOL     OW26465   3.313   1.674   1.605 -0.0354 -0.4080  0.1156
 3682SOL    HW126466   3.268   1.601   1.647  0.4197  0.8610  2.9076
 3682SOL    HW226467   3.286   1.751   1.655  2.1591  0.8945 -0.6414
 3683SOL     OW26468   0.094   4.237   7.729  0.3766 -0.5682  0.5227
 3683SOL    HW126469   0.030   4.205   7.665  0.9465 -2.7094  0.9822
 3683SOL    HW226470   0.043   4.292   7.789 -1.1925 -2.7141  1.2266
 3684SOL     OW26471   1.210   1.016   3.039  0.7403 -0.0077  0.3237
 3684SOL    HW126472   1.184   1.105   3.062 -2.5927 -0.6583 -0.7405
 3684SOL    HW226473   1.148   0.959   3.084  1.7473 -1.7394 -0.4127
 3685SOL     OW26474   3.897   5.059  10.502 -0.3142  0.0209  0.2059
 3685SOL    HW126475   3.931   4.976  10.534  0.1587  0.3699  0.6099
 3685SOL    HW226476   3.824   5.034  10.445  0.6367 -0.7388 -0.7167
 3686SOL     OW26477   2.193   1.651   0.613 -0.6946  0.2628  0.5513
 3686SOL    HW126478   2.278   1.689   0.591 -0.8812  1.3942  1.7056
 3686SOL    HW226479   2.130   1.718   0.586 -1.0626  0.5028  1.9718
 3687SOL     OW26480   2.349   5.307  12.041 -0.1151  0.2352 -0.3400
 3687SOL    HW126481   2.381   5.328  12.129 -0.6323  1.2765 -0.3845
 3687SOL    HW226482   2.406   5.358  11.983 -0.5552  0.5129 -0.5332
 3688SOL     OW26483   0.813   3.045   4.391  0.0326 -0.0833  0.1991
 3688SOL    HW126484   0.795   2.956   4.361  0.2691 -0.1083  0.1275
 3688SOL    HW226485   0.809   3.040   4.486  1.6149 -0.5191  0.2654
 3689SOL     OW26486   0.900   5.352   2.517 -0.2336 -0.0126 -0.0321
 3689SOL    HW126487   0.918   5.262   2.488  0.1188 -0.0793  0.3988
 3689SOL    HW226488   0.921   5.406   2.440 -1.0806 -0.3478 -0.5136
 3690SOL     OW26489   5.542   2.624  10.331 -0.2383 -0.0526  0.3153
 3690SOL    HW126490   5.553   2.558  10.399  0.8730  2.0944  2.2845
 3690SOL    HW226491   5.471   2.680  10.364  0.4060  1.0847 -0.2025
 3691SOL     OW26492   1.875   0.276   3.040 -0.2810 -0.5333  0.2636
 3691SOL    HW126493   1.822   0.218   3.095 -1.0151  0.6290  0.7995
 3691SOL    HW226494   1.965   0.257   3.065 -0.5472 -0.9528  0.9247
 3692SOL     OW26495   1.868   2.406   0.626 -0.2830 -0.1040  0.0869
 3692SOL    HW126496   1.958   2.411   0.657 -0.4415 -2.2346  0.9866
 3692SOL    HW226497   1.822   2.474   0.674  0.5437  0.0204  0.7088
 3693SOL     OW26498   2.679   3.155  11.001 -0.5187 -0.4242  0.2705
 3693SOL    HW126499   2.669   3.139  11.094 -1.6965  0.5000  0.3156
 3693SOL    HW226500   2.613   3.099  10.960 -0.4013 -0.3926  0.0358
 3694SOL     OW26501   5.066   1.606   9.013  0.0933 -0.0520  0.4294
 3694SOL    HW126502   5.058   1.516   8.980  1.8231 -0.4528  1.0126
 3694SOL    HW226503   4.989   1.618   9.069 -1.3287 -0.3747 -1.4158
 3695SOL     OW26504   5.176   4.280  10.240 -0.4541 -0.3169 -0.1370
 3695SOL    HW126505   5.234   4.329  10.182 -2.7695  1.6428 -0.8666
 3695SOL    HW226506   5.100   4.258  10.185 -1.4037 -0.9331  1.3766
 3696SOL     OW26507   2.953   1.098   0.800 -0.2667 -0.4131  0.6144
 3696SOL    HW126508   2.947   1.193   0.805  1.0875 -0.3214  0.6537
 3696SOL    HW226509   3.026   1.082   0.740  0.0206 -1.4222  1.2252
 3697SOL     OW26510   0.012   4.451   1.323  0.3988 -0.5358 -0.2934
 3697SOL    HW126511   0.048   4.448   1.412 -0.9311 -2.1461  0.2112
 3697SOL    HW226512   0.049   4.375   1.279 -1.4396 -1.5504 -0.1267
 3698SOL     OW26513   0.062   2.719  12.078  0.2189  0.4696 -0.0129
 3698SOL    HW126514   0.143   2.745  12.122  0.5831 -0.5514 -0.0758
 3698SOL    HW226515   0.082   2.725  11.984  0.4029 -0.3540 -0.0265
 3699SOL     OW26516   3.398   2.166  10.084  0.3015  0.0619  0.2992
 3699SOL    HW126517   3.474   2.142  10.029  0.2000 -0.2961  0.3156
 3699SOL    HW226518   3.433   2.232  10.144  0.9284 -1.0316  1.1679
 3700SOL     OW26519   5.955   1.317  11.707 -0.0030  0.1288 -0.7270
 3700SOL    HW126520   5.986   1.408  11.707  0.0659  0.1080 -1.7429
 3700SOL    HW226521   5.881   1.317  11.647 -0.8464 -0.2151  0.2884
 3701SOL     OW26522   0.536   0.472   8.580 -0.1042 -0.1639  0.4902
 3701SOL    HW126523   0.616   0.459   8.530 -0.4163 -0.1040 -0.0309
 3701SOL    HW226524   0.527   0.392   8.632  0.9362  0.3391  1.4696
 3702SOL     OW26525   0.813   4.364   1.161 -0.4155 -0.1305 -0.4799
 3702SOL    HW126526   0.799   4.271   1.178  0.5529 -0.1599  0.1703
 3702SOL    HW226527   0.748   4.386   1.094 -0.5150 -1.3228 -0.7833
 3703SOL     OW26528   0.435   1.387   1.849 -0.4221  0.1939 -0.0208
 3703SOL    HW126529   0.488   1.455   1.890 -0.9684  0.6550 -0.0640
 3703SOL    HW226530   0.461   1.389   1.757  0.0391 -0.1151  0.0978
 3704SOL     OW26531   1.890   3.037   1.621  0.0523  0.1334 -0.2515
 3704SOL    HW126532   1.822   3.051   1.687  1.5639 -0.2680  1.4397
 3704SOL    HW226533   1.852   2.973   1.560 -1.1867  0.1246  0.5138
 3705SOL     OW26534   4.574   2.924   1.602 -0.0738  0.7304  0.2351
 3705SOL    HW126535   4.607   2.894   1.687 -0.3605 -0.4242 -0.0605
 3705SOL    HW226536   4.653   2.939   1.550  0.0816  0.8261  0.4959
 3706SOL     OW26537   4.863   5.817   2.174 -0.8606  0.0244 -0.6956
 3706SOL    HW126538   4.895   5.786   2.089 -2.7560  1.6023 -2.0073
 3706SOL    HW226539   4.895   5.908   2.180 -1.0242  0.0344  0.1357
 3707SOL     OW26540   1.029   2.666   9.265 -0.3110  0.1424 -0.1564
 3707SOL    HW126541   1.014   2.691   9.174 -0.9543 -2.9009 -0.9351
 3707SOL    HW226542   1.074   2.582   9.260  1.7751  1.0157  2.3518
 3708SOL     OW26543   4.201   5.473  10.380  0.2397  0.2761 -0.1149
 3708SOL    HW126544   4.267   5.494  10.447  0.1527 -0.3387  0.1629
 3708SOL    HW226545   4.220   5.383  10.355 -0.5629  0.0585  0.0431
 3709SOL     OW26546   0.521   4.330   8.669 -0.1306  0.3547 -0.0373
 3709SOL    HW126547   0.475   4.368   8.745 -0.8831 -0.4815 -0.0762
 3709SOL    HW226548   0.531   4.404   8.608 -2.3905  0.3053 -0.4951
 3710SOL     OW26549   4.813   3.815   3.712  0.1494  0.3814  0.0406
 3710SOL    HW126550   4.856   3.749   3.766  1.6279  0.6172 -0.8129
 3710SOL    HW226551   4.801   3.773   3.627 -1.0861  0.4098  0.1901
 3711SOL     OW26552   0.028   0.306  10.940 -0.0628 -0.0203  0.4816
 3711SOL    HW126553  -0.026   0.355  10.879 -1.1113 -0.3611  1.1249
 3711SOL    HW226554   0.108   0.287  10.891 -1.4053 -1.3956 -1.2412
 3712SOL     OW26555   5.540   1.871   0.521  0.6623 -0.1033  0.2266
 3712SOL    HW126556   5.634   1.862   0.531  0.8775  0.1837 -1.3208
 3712SOL    HW226557   5.512   1.789   0.480  0.2996 -0.0520  0.3676
 3713SOL     OW26558   2.337   1.919   7.698  0.3630 -0.1075 -0.1912
 3713SOL    HW126559   2.425   1.943   7.670  0.1217  1.1899  0.1262
 3713SOL    HW226560   2.350   1.844   7.756  1.2935  0.3197  0.1639
 3714SOL     OW26561   4.820   5.312  12.344 -0.0158  0.1206  0.6558
 3714SOL    HW126562   4.815   5.406  12.360 -1.1084  0.3035 -0.6375
 3714SOL    HW226563   4.847   5.305  12.252  3.0480 -0.8480  1.5565
 3715SOL     OW26564   2.151   5.264   0.240 -0.4810 -0.0377  0.0924
 3715SOL    HW126565   2.139   5.301   0.328 -0.7795 -0.4122  0.2088
 3715SOL    HW226566   2.215   5.194   0.252  0.4784  0.7693 -0.2155
 3716SOL     OW26567   4.010   5.344   1.368 -0.7954  0.5041  0.0816
 3716SOL    HW126568   4.070   5.287   1.320  0.3611  0.6339  1.3586
 3716SOL    HW226569   4.009   5.309   1.457 -0.4980  2.1567  0.7465
 3717SOL     OW26570   5.546   0.653   8.929  0.3147  0.2045  0.0829
 3717SOL    HW126571   5.559   0.748   8.939 -3.0508  0.7436 -0.0224
 3717SOL    HW226572   5.588   0.616   9.006  2.0132  1.7153 -0.0557
 3718SOL     OW26573   5.902   5.176  11.907 -0.3573  0.2615 -0.1292
 3718SOL    HW126574   5.988   5.132  11.909 -0.3805  0.2358  1.1547
 3718SOL    HW226575   5.892   5.206  11.817  0.0814 -1.5496 -0.8055
 3719SOL     OW26576   1.086   2.901   9.027  0.8141  0.5232 -0.1256
 3719SOL    HW126577   1.140   2.846   9.083 -1.0884 -1.5202 -0.2292
 3719SOL    HW226578   0.997   2.886   9.057 -0.0753  0.8061 -2.4772
 3720SOL     OW26579   5.310   5.807   0.070  0.3161 -0.0538  0.7311
 3720SOL    HW126580   5.305   5.753   0.148  0.4864 -0.2846  0.5835
 3720SOL    HW226581   5.298   5.746  -0.003 -1.2675  0.3595  0.6195
 3721SOL     OW26582   2.198   5.418  10.253  0.4382  0.4948 -0.6269
 3721SOL    HW126583   2.150   5.391  10.175 -1.5585 -0.0453  0.7498
 3721SOL    HW226584   2.187   5.513  10.256  0.8985  0.5722 -1.2307
 3722SOL     OW26585   0.587   4.801   8.152 -0.5006  0.7837  0.8702
 3722SOL    HW126586   0.674   4.763   8.158 -0.5114  1.0176  3.0362
 3722SOL    HW226587   0.528   4.734   8.187 -1.0154  1.1936  0.8090
 3723SOL     OW26588   3.009   4.838  10.533  0.2078 -0.0480 -0.3446
 3723SOL    HW126589   3.020   4.790  10.614 -2.6299 -1.4977 -0.7664
 3723SOL    HW226590   3.055   4.786  10.467 -0.4632 -0.7362 -0.2817
 3724SOL     OW26591   1.305   4.788  12.304 -0.2775 -0.5897  0.5301
 3724SOL    HW126592   1.214   4.807  12.328 -0.7718 -0.9992 -0.9555
 3724SOL    HW226593   1.357   4.819  12.378 -1.5016  1.1400  0.6818
 3725SOL     OW26594   2.241   3.947  11.700 -0.0809 -0.1353  0.3491
 3725SOL    HW126595   2.209   3.979  11.616  2.1829 -0.6533 -0.7521
 3725SOL    HW226596   2.331   3.980  11.705 -0.2694  0.1180  2.6921
 3726SOL     OW26597   0.404   4.136  11.174 -0.2931 -0.0467 -0.4388
 3726SOL    HW126598   0.464   4.079  11.221 -2.5272 -1.1741  1.1604
 3726SOL    HW226599   0.385   4.207  11.236 -4.2853 -2.2315  1.0230
 3727SOL     OW26600   3.579   1.111   0.227 -0.6052 -0.2608 -0.4513
 3727SOL    HW126601   3.658   1.162   0.210 -0.4515 -0.4552 -0.3150
 3727SOL    HW226602   3.510   1.157   0.177 -0.6502  0.5956  0.3796
 3728SOL     OW26603   4.371   2.717   1.563  0.3412  0.2123 -0.3420
 3728SOL    HW126604   4.442   2.674   1.514  0.4423  0.9169 -0.8223
 3728SOL    HW226605   4.412   2.795   1.600  0.0243  0.1755  0.0846
 3729SOL     OW26606   4.121   1.722   0.650 -0.2101  0.1375 -0.5161
 3729SOL    HW126607   4.145   1.752   0.738 -0.4516 -1.4332  0.1117
 3729SOL    HW226608   4.204   1.695   0.611 -0.4637 -1.9240  0.3277
 3730SOL     OW26609   3.820   2.425   8.317 -0.3328  0.2092 -0.1778
 3730SOL    HW126610   3.894   2.367   8.338 -0.3978  0.8155  1.8621
 3730SOL    HW226611   3.743   2.368   8.322 -0.0916 -0.2519 -1.5242
 3731SOL     OW26612   4.138   0.468   9.423 -0.4540  0.2615 -0.2369
 3731SOL    HW126613   4.185   0.547   9.398  1.3845 -1.2724 -1.8858
 3731SOL    HW226614   4.151   0.409   9.348 -2.6887 -1.1946  0.4936
 3732SOL     OW26615   3.184   5.003   0.141  0.1682  0.4080 -0.0962
 3732SOL    HW126616   3.170   5.081   0.194 -1.3945 -1.0613  1.7014
 3732SOL    HW226617   3.275   4.977   0.159  0.0628  0.6687  0.8041
 3733SOL     OW26618   4.409   0.091   0.684  0.3401 -0.1480 -1.0011
 3733SOL    HW126619   4.479   0.129   0.631  2.3767 -1.0431  0.9541
 3733SOL    HW226620   4.368   0.027   0.626  1.6214 -0.1312 -1.9648
 3734SOL     OW26621   1.092   1.175   0.430  0.2528 -0.1667 -0.1931
 3734SOL    HW126622   0.998   1.160   0.424  0.0603  0.8682  0.0655
 3734SOL    HW226623   1.130   1.088   0.447 -0.8780 -0.2455  2.1811
 3735SOL     OW26624   4.816   4.577   9.511 -0.5999  0.0681  0.2772
 3735SOL    HW126625   4.835   4.549   9.422  1.0314 -1.2432  0.9975
 3735SOL    HW226626   4.836   4.670   9.513  0.6183 -0.1679 -0.4128
 3736SOL     OW26627   1.524   4.478   0.911  0.7263 -0.5938 -0.2842
 3736SOL    HW126628   1.555   4.410   0.851 -0.8085 -1.3855 -0.2020
 3736SOL    HW226629   1.438   4.447   0.941 -0.0089  1.3689 -0.2591
 3737SOL     OW26630   4.882   5.656   3.352 -0.1659 -0.1701 -0.0838
 3737SOL    HW126631   4.854   5.602   3.278  0.5837 -0.9841  0.2203
 3737SOL    HW226632   4.805   5.660   3.409 -0.6735  0.2648 -0.7745
 3738SOL     OW26633   1.088   3.618   3.285 -0.1687  0.2132 -0.0135
 3738SOL    HW126634   1.062   3.672   3.211 -2.7967  0.5296  1.0815
 3738SOL    HW226635   1.041   3.655   3.360 -0.3129 -2.2358  1.1675
 3739SOL     OW26636   5.481   3.040   9.595 -0.0721  0.3700  0.9004
 3739SOL    HW126637   5.490   3.035   9.690  0.0183 -1.0769  0.8204
 3739SOL    HW226638   5.564   3.079   9.565  0.7838 -1.1558  1.2398
 3740SOL     OW26639   2.945   2.781   4.024  0.0491  0.5116 -0.0625
 3740SOL    HW126640   3.030   2.768   4.066 -0.2345 -1.0820  0.0572
 3740SOL    HW226641   2.956   2.860   3.972  1.5377  0.4556  0.1382
 3741SOL     OW26642   4.854   5.098   0.638  0.0704 -0.1050  0.2047
 3741SOL    HW126643   4.798   5.175   0.641  1.5218  0.9201  1.8635
 3741SOL    HW226644   4.818   5.039   0.705  2.8483  1.9449  3.6766
 3742SOL     OW26645   3.177   1.741  10.289  0.1689  0.0905  0.4518
 3742SOL    HW126646   3.221   1.825  10.274  2.2905 -0.7561  1.6401
 3742SOL    HW226647   3.200   1.688  10.213 -2.8459  1.2092 -1.2950
 3743SOL     OW26648   5.826   2.854  10.354  0.5251  0.2961  0.6827
 3743SOL    HW126649   5.793   2.845  10.265  1.0587 -1.3459  0.6334
 3743SOL    HW226650   5.767   2.916  10.396 -1.3320 -0.9291 -0.0446
 3744SOL     OW26651   1.963   0.182   2.736  0.2381  0.0783 -0.1162
 3744SOL    HW126652   1.938   0.090   2.737 -1.5864  0.5525  0.2416
 3744SOL    HW226653   1.911   0.220   2.665  0.4793  0.9652  0.1743
 3745SOL     OW26654   4.902   1.171   8.476  0.1904 -0.3039 -0.4903
 3745SOL    HW126655   4.841   1.214   8.538  0.2952  2.0502 -1.9445
 3745SOL    HW226656   4.858   1.179   8.391  0.6150 -2.4061 -0.9116
 3746SOL     OW26657   4.907   4.179  12.413 -0.1799  0.1438  0.2746
 3746SOL    HW126658   4.842   4.126  12.459  0.8030 -0.6055  0.8108
 3746SOL    HW226659   4.895   4.156  12.321  0.1995 -0.9759  0.4981
 3747SOL     OW26660   1.121   4.431   2.924 -0.1982 -0.1206  0.4243
 3747SOL    HW126661   1.157   4.421   2.836 -0.5632 -1.1128  0.3867
 3747SOL    HW226662   1.124   4.525   2.940  1.6993 -0.1086  0.1144
 3748SOL     OW26663   5.292   2.931   1.379  0.2450  0.3405 -0.4283
 3748SOL    HW126664   5.384   2.910   1.364 -0.5462 -2.6167 -1.3921
 3748SOL    HW226665   5.256   2.854   1.423 -1.6624  1.6870  0.4801
 3749SOL     OW26666   4.811   5.095   9.518  0.5650 -0.7011 -0.0902
 3749SOL    HW126667   4.754   5.125   9.448  2.3016  0.2356 -1.1221
 3749SOL    HW226668   4.895   5.138   9.502  0.6683  0.5542  3.2721
 3750SOL     OW26669   2.427   4.365   9.428  0.3407  0.3611  0.3150
 3750SOL    HW126670   2.470   4.281   9.445  0.7694  0.2722 -1.1208
 3750SOL    HW226671   2.497   4.429   9.435  0.2503  0.4657  0.2659
 3751SOL     OW26672   5.122   2.959   0.704  0.1735 -0.2414 -0.2066
 3751SOL    HW126673   5.162   2.873   0.709  0.5332 -0.1578 -1.6232
 3751SOL    HW226674   5.157   2.998   0.624  0.7423  1.5926  0.9170
 3752SOL     OW26675   3.880   5.783   9.652  0.1681 -0.8167  0.0397
 3752SOL    HW126676   3.801   5.836   9.662 -0.2141 -1.4985  0.7021
 3752SOL    HW226677   3.870   5.740   9.567 -0.9847 -2.2185  0.8682
 3753SOL     OW26678   0.676   3.514   0.268  0.1585  0.4133 -0.1156
 3753SOL    HW126679   0.621   3.448   0.310  0.3314  0.7617  0.6646
 3753SOL    HW226680   0.755   3.516   0.321  0.2255  1.1289 -0.2404
 3754SOL     OW26681   4.644   4.177   9.961 -0.5189  0.2549 -0.4437
 3754SOL    HW126682   4.637   4.120  10.037 -0.0614 -0.9587 -1.2955
 3754SOL    HW226683   4.565   4.231   9.965  0.5648  1.7580  2.0857
 3755SOL     OW26684   4.482   5.076   3.027  0.2969 -0.4465  0.5146
 3755SOL    HW126685   4.407   5.074   2.967  0.4383 -0.6567  0.3432
 3755SOL    HW226686   4.514   4.986   3.029  2.0320  0.0965 -1.2877
 3756SOL     OW26687   4.833   0.759  11.563  0.3211 -0.5610 -0.2137
 3756SOL    HW126688   4.806   0.669  11.543  1.7070 -0.7927 -1.0641
 3756SOL    HW226689   4.903   0.749  11.627 -0.0277 -0.0352  0.2643
 3757SOL     OW26690   0.292   2.845  12.166 -0.1235  0.2205 -0.0905
 3757SOL    HW126691   0.335   2.816  12.086 -0.0051  0.6568 -0.1893
 3757SOL    HW226692   0.331   2.791  12.235  0.7755  0.7760 -0.1449
 3758SOL     OW26693   4.518   5.493   7.964  0.1611 -0.2057 -0.0808
 3758SOL    HW126694   4.471   5.480   7.881 -0.6983 -0.9108  0.5085
 3758SOL    HW226695   4.558   5.409   7.983 -0.0996 -0.2059  0.4930
 3759SOL     OW26696   0.038   3.087  10.525 -0.1141 -0.1221 -0.3414
 3759SOL    HW126697  -0.034   3.117  10.469  0.2334 -1.3341 -1.4870
 3759SOL    HW226698   0.117   3.119  10.480  0.1776 -1.2991 -0.6824
 3760SOL     OW26699   1.115   2.614  11.862  0.6935  0.0604  0.0009
 3760SOL    HW126700   1.065   2.677  11.811  2.3604  0.5130 -1.1157
 3760SOL    HW226701   1.116   2.535  11.808 -0.0679 -0.4333  0.6950
 3761SOL     OW26702   1.950   5.724   0.054 -0.0022 -0.2229 -0.2920
 3761SOL    HW126703   1.936   5.727   0.149  0.3669  0.7742 -0.2625
 3761SOL    HW226704   2.005   5.800   0.036  0.1734 -0.5824 -1.2674
 3762SOL     OW26705   0.681   3.579   3.585 -0.1116 -0.1190  0.6883
 3762SOL    HW126706   0.682   3.485   3.565  1.0690  0.1288 -0.4886
 3762SOL    HW226707   0.721   3.586   3.671  1.4899 -0.5365 -0.0109
 3763SOL     OW26708   2.695   4.985   7.995  0.3791 -0.2883  0.7310
 3763SOL    HW126709   2.632   4.996   7.925  0.7029 -0.9563  0.3312
 3763SOL    HW226710   2.728   4.895   7.985  0.6453 -0.2899  1.5473
 3764SOL     OW26711   4.646   3.619   0.438  0.0406  0.3830  0.0944
 3764SOL    HW126712   4.715   3.554   0.433  1.4043  1.8536 -0.8628
 3764SOL    HW226713   4.567   3.569   0.461  1.3593 -1.3362  1.0042
 3765SOL     OW26714   3.247   0.641   1.276 -0.1458 -0.1021  0.0026
 3765SOL    HW126715   3.189   0.711   1.245 -0.2590  0.1497  0.7746
 3765SOL    HW226716   3.189   0.582   1.325  0.0680 -0.3995 -0.0970
 3766SOL     OW26717   5.715   2.331  12.387  0.5435  0.0651 -0.9167
 3766SOL    HW126718   5.645   2.387  12.421  1.1954  1.3055 -1.5946
 3766SOL    HW226719   5.796   2.371  12.420  1.0083 -0.5463 -1.3013
 3767SOL     OW26720   5.798   2.807   2.891 -0.7331  0.2198  0.3149
 3767SOL    HW126721   5.718   2.825   2.940 -0.4832  1.3062  0.3384
 3767SOL    HW226722   5.869   2.836   2.949 -0.1071 -3.7962  1.6969
 3768SOL     OW26723   3.955   4.700  11.453  0.7581  0.0293 -0.1890
 3768SOL    HW126724   3.900   4.692  11.375  0.4711 -0.3178  0.0471
 3768SOL    HW226725   3.894   4.703  11.526  0.9611  2.1907 -0.0947
 3769SOL     OW26726   5.128   3.123   9.832 -0.6005  0.6016 -0.1906
 3769SOL    HW126727   5.150   3.076   9.752 -0.2465  2.4245 -1.1791
 3769SOL    HW226728   5.066   3.065   9.876  0.4021 -1.1402 -0.9972
 3770SOL     OW26729   4.512   5.708   8.703 -0.0049  0.5955  0.4170
 3770SOL    HW126730   4.508   5.675   8.613 -0.5523  2.1246 -0.1325
 3770SOL    HW226731   4.443   5.660   8.749  0.3936 -0.3238  0.0801
 3771SOL     OW26732   0.333   4.872   8.011  0.2605  0.5952  0.0887
 3771SOL    HW126733   0.423   4.856   8.038 -0.0556 -0.5339  0.5318
 3771SOL    HW226734   0.282   4.865   8.092 -0.2100  1.2925 -0.1465
 3772SOL     OW26735   1.604   2.268   3.424  0.0501 -0.4345 -0.3472
 3772SOL    HW126736   1.630   2.207   3.493  0.1241  0.8500  0.7821
 3772SOL    HW226737   1.628   2.354   3.458 -0.3159  0.2577 -1.7977
 3773SOL     OW26738   5.033   1.534  11.065  0.0355 -0.2705 -0.0616
 3773SOL    HW126739   5.016   1.458  11.010  1.1502  0.1093 -0.9378
 3773SOL    HW226740   5.105   1.580  11.022 -0.2584  0.9904  0.7525
 3774SOL     OW26741   3.965   2.243   3.101  0.2041  1.0191  0.2021
 3774SOL    HW126742   3.982   2.148   3.103 -0.3655  0.9236  0.7204
 3774SOL    HW226743   3.980   2.271   3.191 -1.9378  1.0034  0.5962
 3775SOL     OW26744   0.481   5.012   9.833  0.4824  0.4193 -0.2571
 3775SOL    HW126745   0.521   4.985   9.750  1.4003 -0.5997  0.4804
 3775SOL    HW226746   0.420   5.081   9.810  1.6164  0.9913 -1.6304
 3776SOL     OW26747   0.930   4.175   0.201 -0.0153 -0.1056 -0.2046
 3776SOL    HW126748   0.938   4.269   0.221 -0.4373 -0.1775  0.3141
 3776SOL    HW226749   1.016   4.151   0.167  0.8773 -0.0716  1.9283
 3777SOL     OW26750   2.009   2.495   0.039 -0.0264  0.0392 -0.4994
 3777SOL    HW126751   1.951   2.540  -0.022 -0.1720  0.2056 -0.2361
 3777SOL    HW226752   2.035   2.562   0.102 -0.0324 -0.1802 -0.2627
 3778SOL     OW26753   5.774   4.610  10.834 -0.0899 -0.2765 -0.0757
 3778SOL    HW126754   5.751   4.629  10.925 -1.2422  0.8550 -0.5820
 3778SOL    HW226755   5.689   4.595  10.792  0.4845 -1.4620 -0.8216
 3779SOL     OW26756   1.158   1.353  11.598 -0.3877  0.0340  0.1662
 3779SOL    HW126757   1.189   1.411  11.667 -0.0900 -1.5218  1.3865
 3779SOL    HW226758   1.222   1.282  11.595 -2.0972 -1.5779  0.5181
 3780SOL     OW26759   4.476   0.760   3.041  0.6462  0.3317 -0.3852
 3780SOL    HW126760   4.556   0.740   2.992  0.8568 -0.0240  0.1032
 3780SOL    HW226761   4.431   0.825   2.987  2.5852  2.6269  0.6846
 3781SOL     OW26762   4.025   0.913  11.366 -0.1288  0.3469  0.5342
 3781SOL    HW126763   3.944   0.880  11.328 -0.0020 -1.3396  1.6333
 3781SOL    HW226764   4.015   1.008  11.366 -0.5385  0.3398 -2.6865
 3782SOL     OW26765   2.129   2.639   3.083  0.2521  0.2283  0.0790
 3782SOL    HW126766   2.052   2.595   3.119  0.5115 -1.3778 -1.2935
 3782SOL    HW226767   2.155   2.701   3.152 -2.0988  0.6346  0.6583
 3783SOL     OW26768   2.340   1.864  12.452  0.1268  0.7402 -0.1517
 3783SOL    HW126769   2.421   1.887  12.407 -1.0398  1.7264 -1.8121
 3783SOL    HW226770   2.292   1.946  12.460 -1.8901 -0.2377 -1.6372
 3784SOL     OW26771   0.659   2.368   8.524  0.0922 -0.2822  0.1275
 3784SOL    HW126772   0.626   2.306   8.589  0.7070  0.1496  0.8681
 3784SOL    HW226773   0.663   2.318   8.442 -1.5799 -0.5599  0.2081
 3785SOL     OW26774   2.922   4.616   8.474 -0.1361  0.1624  0.0773
 3785SOL    HW126775   2.842   4.570   8.448 -0.0353  0.0617 -0.0611
 3785SOL    HW226776   2.987   4.590   8.409  0.7124 -1.8028  1.6699
 3786SOL     OW26777   0.452   0.997  10.591 -0.4152 -0.2304  0.4863
 3786SOL    HW126778   0.357   0.999  10.596 -0.4344 -1.9348  1.1360
 3786SOL    HW226779   0.471   0.954  10.508 -0.1774  2.6501 -1.0068
 3787SOL     OW26780   2.648   1.725   8.688  0.9019 -0.3274 -0.2824
 3787SOL    HW126781   2.609   1.756   8.606  3.0866 -0.4861 -1.4315
 3787SOL    HW226782   2.588   1.755   8.757 -0.5330  0.5204 -1.8657
 3788SOL     OW26783   2.200   3.722   0.736 -0.3016 -0.2917  0.4154
 3788SOL    HW126784   2.260   3.697   0.665 -1.0935  0.1720 -0.4319
 3788SOL    HW226785   2.194   3.644   0.791 -0.6963 -1.0971 -0.7520
 3789SOL     OW26786   0.161   3.363   3.099 -0.3504 -0.0284 -0.1645
 3789SOL    HW126787   0.066   3.368   3.093 -0.3926 -0.2231  0.3160
 3789SOL    HW226788   0.185   3.290   3.040 -0.5078 -0.0602 -0.1889
 3790SOL     OW26789   1.021   2.852   0.127 -0.3832  0.6626 -0.3081
 3790SOL    HW126790   1.109   2.877   0.099 -1.1420  0.6697 -2.7798
 3790SOL    HW226791   0.989   2.794   0.058 -0.9248 -2.3936  2.4231
 3791SOL     OW26792   0.184   2.644   2.720 -0.0614  0.0950  0.4242
 3791SOL    HW126793   0.180   2.550   2.702 -0.7699  0.3665 -0.8758
 3791SOL    HW226794   0.242   2.652   2.796 -1.3111 -1.5388  1.5940
 3792SOL     OW26795   0.276   4.517  11.398  0.6949 -0.1304 -0.9900
 3792SOL    HW126796   0.307   4.435  11.438  0.0216 -0.7078 -1.6429
 3792SOL    HW226797   0.223   4.489  11.324 -0.5614  0.8791 -0.4930
 3793SOL     OW26798   4.550   0.032  10.747  0.3986  0.3588 -0.1057
 3793SOL    HW126799   4.479   0.055  10.688  1.1567  1.0637 -0.7619
 3793SOL    HW226800   4.597  -0.038  10.703  0.7506  0.6347 -0.1755
 3794SOL     OW26801   3.716   2.766   8.648  0.2834 -0.6091 -0.0897
 3794SOL    HW126802   3.786   2.776   8.713 -0.4905 -0.0574  0.6902
 3794SOL    HW226803   3.758   2.728   8.572  1.0140 -2.3009  1.1176
 3795SOL     OW26804   2.844   4.145   0.052  0.2156 -0.1276 -0.6091
 3795SOL    HW126805   2.859   4.111   0.140  0.8099 -0.3583 -0.8018
 3795SOL    HW226806   2.833   4.067  -0.002 -0.1754  0.0150 -0.7420
 3796SOL     OW26807   0.394   3.029   9.472 -0.2598 -0.4972  0.1379
 3796SOL    HW126808   0.432   3.100   9.421 -1.4122 -0.8017 -1.2094
 3796SOL    HW226809   0.419   3.047   9.563 -1.0033  1.9236 -0.1067
 3797SOL     OW26810   4.244   0.591   7.768  0.1859  0.0806  0.7186
 3797SOL    HW126811   4.214   0.653   7.700  1.1181  0.0303  0.2533
 3797SOL    HW226812   4.168   0.535   7.784 -0.9873  1.9175  1.8169
 3798SOL     OW26813   2.005   5.154   0.650 -0.0771  0.0796  0.3565
 3798SOL    HW126814   1.976   5.157   0.741 -0.0443  0.5453  0.3567
 3798SOL    HW226815   1.953   5.085   0.610 -0.0258 -0.1910  0.7521
 3799SOL     OW26816   5.757   3.311   1.604  0.4426  0.4372  0.2952
 3799SOL    HW126817   5.753   3.250   1.678  1.3363 -2.2787 -1.7994
 3799SOL    HW226818   5.850   3.318   1.584  0.1395  0.4318 -1.1399
 3800SOL     OW26819   0.797   3.899  10.518 -0.6462  0.1250  0.0963
 3800SOL    HW126820   0.731   3.834  10.540  0.3172 -0.4805  1.2470
 3800SOL    HW226821   0.879   3.849  10.512 -0.0677  1.0687  0.0524
 3801SOL     OW26822   3.610   0.666   0.982  0.5217  0.5189 -0.4835
 3801SOL    HW126823   3.578   0.622   0.903 -1.1050  1.0575 -0.1410
 3801SOL    HW226824   3.576   0.755   0.975 -1.0372  0.1051  1.6345
 3802SOL     OW26825   5.697   4.101   0.898 -0.1055 -0.4562  0.1478
 3802SOL    HW126826   5.605   4.087   0.875 -0.6870  2.4674  0.4981
 3802SOL    HW226827   5.733   4.150   0.823  0.0197  2.2070  1.8877
 3803SOL     OW26828   0.261   1.738   2.329  0.1855 -0.0004 -0.4484
 3803SOL    HW126829   0.179   1.711   2.288 -0.3041  0.2210  0.3581
 3803SOL    HW226830   0.235   1.769   2.416  1.6299 -4.1819  1.6057
 3804SOL     OW26831   1.036   3.225  10.762 -0.2906 -0.0699  0.3441
 3804SOL    HW126832   1.082   3.164  10.704  1.1205 -0.2672  1.6360
 3804SOL    HW226833   0.944   3.218  10.736  0.1964 -0.8320 -1.2404
 3805SOL     OW26834   5.809   2.575   9.385 -0.0302 -0.1153  0.5983
 3805SOL    HW126835   5.872   2.611   9.322  0.0987  0.2872  0.9481
 3805SOL    HW226836   5.741   2.642   9.391 -1.9513 -1.7648 -1.8820
 3806SOL     OW26837   0.436   0.517  11.885  0.3058 -0.0027 -0.0042
 3806SOL    HW126838   0.469   0.428  11.892 -1.5759 -0.9970 -2.8119
 3806SOL    HW226839   0.508   0.566  11.847  0.9199 -0.5902  0.3882
 3807SOL     OW26840   5.148   4.909   1.129  0.3827  0.0407  0.4795
 3807SOL    HW126841   5.151   4.833   1.186  0.4565  0.3223  0.8509
 3807SOL    HW226842   5.232   4.953   1.143 -0.2526  1.0008  1.3744
 3808SOL     OW26843   2.619   4.143  10.942 -0.9974  0.0504 -0.4300
 3808SOL    HW126844   2.539   4.195  10.949  0.8350  2.8927  0.0787
 3808SOL    HW226845   2.633   4.107  11.030 -0.1373  1.9947  0.2476
 3809SOL     OW26846   5.409   4.428  12.462  0.4833  0.2608  0.1252
 3809SOL    HW126847   5.357   4.451  12.385  2.5041  1.1407 -1.0045
 3809SOL    HW226848   5.365   4.472  12.535 -0.8755  0.2297 -0.6635
 3810SOL     OW26849   5.009   2.137  10.505  0.1722 -0.2326  0.1167
 3810SOL    HW126850   4.959   2.145  10.586  0.4621  0.8744  0.1938
 3810SOL    HW226851   5.004   2.224  10.464  1.0862 -0.4190 -0.4243
 3811SOL     OW26852   3.015   2.021  11.407 -0.1292  0.3825 -0.0715
 3811SOL    HW126853   2.938   2.007  11.351  0.2843  0.5694 -0.7008
 3811SOL    HW226854   3.004   1.958  11.478 -1.3522  1.0681  0.3722
 3812SOL     OW26855   4.722   5.425   2.995  0.3244  1.0568  0.3576
 3812SOL    HW126856   4.722   5.353   2.932 -1.4470  1.6067 -0.2967
 3812SOL    HW226857   4.673   5.392   3.070 -1.2776  1.8600 -0.3078
 3813SOL     OW26858   3.384   2.519   9.023  0.2819  0.2570  0.1281
 3813SOL    HW126859   3.362   2.518   9.116  1.2762 -1.4920  0.3658
 3813SOL    HW226860   3.402   2.611   9.004 -1.0361  0.8022  1.3918
 3814SOL     OW26861   0.320   5.457  12.440  0.0478  0.3853  0.5085
 3814SOL    HW126862   0.245   5.425  12.491 -0.7941 -3.3426 -2.8597
 3814SOL    HW226863   0.301   5.430  12.350  4.0924  1.9623 -0.9199
 3815SOL     OW26864   5.889   2.267   8.862  0.4152 -0.1128 -0.7114
 3815SOL    HW126865   5.902   2.185   8.814 -1.0660 -0.1103 -1.1440
 3815SOL    HW226866   5.882   2.240   8.953  0.9291 -0.3630 -0.7441
 3816SOL     OW26867   3.812   0.266   9.242  0.6031  0.5299  0.5918
 3816SOL    HW126868   3.823   0.299   9.331  0.6246  0.8080  0.4839
 3816SOL    HW226869   3.848   0.177   9.245  1.4113  0.8584  0.6421
 3817SOL     OW26870   2.867   2.737   3.650  0.4661 -0.2318 -0.1394
 3817SOL    HW126871   2.804   2.714   3.582  2.7980 -2.2790 -1.6937
 3817SOL    HW226872   2.814   2.776   3.719 -2.5897 -2.6036 -1.0402
 3818SOL     OW26873   1.578   0.478   8.237 -0.4290  0.0113 -0.2706
 3818SOL    HW126874   1.545   0.519   8.317 -1.1929  1.0674 -1.1113
 3818SOL    HW226875   1.659   0.526   8.218 -1.2724  1.0730 -1.2025
 3819SOL     OW26876   3.548   1.975   1.571  0.6120  0.4755  0.1084
 3819SOL    HW126877   3.591   2.035   1.511 -1.3602  0.8456 -0.9736
 3819SOL    HW226878   3.513   2.031   1.640 -1.4486  0.6258 -1.0329
 3820SOL     OW26879   5.251   3.915  11.670  0.3751 -0.3280  0.1362
 3820SOL    HW126880   5.208   3.834  11.697  0.6543 -0.4520  0.2113
 3820SOL    HW226881   5.339   3.888  11.644 -0.2310 -0.4015 -1.9935
 3821SOL     OW26882   1.970   0.401   2.125  0.0159  0.1593  0.3223
 3821SOL    HW126883   1.901   0.452   2.083  0.5323  1.4312  0.9864
 3821SOL    HW226884   2.017   0.360   2.052 -1.8690 -1.3051 -0.0880
 3822SOL     OW26885   0.155   2.415   2.610 -0.2693  0.0018  0.3193
 3822SOL    HW126886   0.082   2.372   2.565  0.8172 -1.2843 -0.2646
 3822SOL    HW226887   0.225   2.349   2.610  1.8323  2.1242 -1.5418
 3823SOL     OW26888   1.102   1.959   3.672 -0.6068  0.3864  0.4583
 3823SOL    HW126889   1.139   1.959   3.760  1.0842 -0.1125 -0.2336
 3823SOL    HW226890   1.035   2.027   3.674  0.2934  1.2454  1.7615
 3824SOL     OW26891   0.539   3.909   8.949 -0.3615 -0.6868  0.0704
 3824SOL    HW126892   0.540   3.957   8.866 -0.2943  0.5254  0.7578
 3824SOL    HW226893   0.617   3.853   8.945 -0.8426 -1.2914 -1.0467
 3825SOL     OW26894   3.619   2.789   0.705 -0.7224 -0.5810 -0.3532
 3825SOL    HW126895   3.632   2.868   0.757 -2.3705 -0.2235 -0.4328
 3825SOL    HW226896   3.651   2.718   0.761  1.3725  0.1906 -0.5410
 3826SOL     OW26897   3.685   1.848  11.589  0.0345 -0.4649  0.6478
 3826SOL    HW126898   3.640   1.924  11.626  2.6756  1.7930 -0.6463
 3826SOL    HW226899   3.710   1.795  11.665 -0.5827  0.6511  1.6471
 3827SOL     OW26900   0.816   5.782  11.208  0.0426 -0.5283  0.1821
 3827SOL    HW126901   0.838   5.826  11.126 -1.8772  0.1958  0.0237
 3827SOL    HW226902   0.891   5.798  11.265  0.6884  0.3541 -0.8946
 3828SOL     OW26903   0.680   0.149  10.383  0.6300 -0.4855 -0.1277
 3828SOL    HW126904   0.740   0.169  10.456  2.6102 -0.4690 -1.7123
 3828SOL    HW226905   0.670   0.232  10.337  1.1514 -0.9828 -1.1437
 3829SOL     OW26906   5.614   3.155  11.374 -0.5109 -0.3237  0.6186
 3829SOL    HW126907   5.614   3.238  11.326  0.7501 -1.4353 -1.3781
 3829SOL    HW226908   5.706   3.136  11.389 -0.5766 -3.1498 -2.1960
 3830SOL     OW26909   5.781   2.083   2.745 -0.4154 -0.2168 -0.0520
 3830SOL    HW126910   5.837   2.013   2.777  2.1223  0.8040 -2.0101
 3830SOL    HW226911   5.745   2.123   2.824  1.0533 -1.3819  1.2479
 3831SOL     OW26912   1.314   2.399  11.209  0.2232 -0.3723  0.2430
 3831SOL    HW126913   1.348   2.330  11.265 -0.7193  0.3996  1.7992
 3831SOL    HW226914   1.219   2.393  11.219  0.1506  1.4367  0.7441
 3832SOL     OW26915   1.290   2.741  11.320  0.4767 -0.2301 -0.7295
 3832SOL    HW126916   1.261   2.830  11.339  0.3811 -0.3655 -0.2132
 3832SOL    HW226917   1.242   2.686  11.382  0.2280 -0.6859 -1.3223
 3833SOL     OW26918   5.596   3.978  12.426  0.1311  0.1472  0.1884
 3833SOL    HW126919   5.581   4.066  12.460  1.5814 -0.6729  3.1794
 3833SOL    HW226920   5.536   3.922  12.475  0.6166 -0.7779 -0.2514
 3834SOL     OW26921   2.394   0.395   1.247 -0.0548 -0.3948  0.0015
 3834SOL    HW126922   2.353   0.477   1.221  1.4289 -0.4639 -2.8089
 3834SOL    HW226923   2.458   0.420   1.314  0.3803  0.7660 -0.8280
 3835SOL     OW26924   1.782   4.226   0.013  0.7276 -0.0987 -0.5499
 3835SOL    HW126925   1.818   4.253  -0.071 -1.1807 -0.9214 -1.6831
 3835SOL    HW226926   1.772   4.307   0.063 -0.7752  0.7892 -2.2169
 3836SOL     OW26927   1.658   5.816  12.086  0.1248 -0.3091 -0.0482
 3836SOL    HW126928   1.656   5.740  12.028  0.1324 -0.9888  0.8378
 3836SOL    HW226929   1.708   5.787  12.162  1.7732  1.1722 -0.5234
 3837SOL     OW26930   3.830   5.396   1.078  0.0214  0.1659 -0.4171
 3837SOL    HW126931   3.870   5.441   1.004  1.1916  0.5544  0.4332
 3837SOL    HW226932   3.825   5.304   1.051  1.3552  0.1339 -0.6102
 3838SOL     OW26933   2.087   1.449  10.268 -0.3248 -0.0385 -0.6925
 3838SOL    HW126934   2.118   1.482  10.352  0.3222  0.4037 -1.1075
 3838SOL    HW226935   2.001   1.411  10.288  0.7972 -1.9393  0.5915
 3839SOL     OW26936   0.609   2.228   0.680 -0.1074  0.2736  0.0675
 3839SOL    HW126937   0.608   2.142   0.637 -3.0424  0.2008  0.1834
 3839SOL    HW226938   0.577   2.211   0.769  0.5135  1.2933  0.4963
 3840SOL     OW26939   1.753   1.331   3.476 -0.0312  0.2167  0.1169
 3840SOL    HW126940   1.688   1.260   3.480 -1.2822  1.3169 -0.3108
 3840SOL    HW226941   1.800   1.316   3.394 -0.6961  0.2236 -0.2721
 3841SOL     OW26942   1.559   3.217   8.761 -0.3498 -0.1066  0.8675
 3841SOL    HW126943   1.474   3.210   8.717 -0.2604  0.6499  0.5617
 3841SOL    HW226944   1.601   3.293   8.719  1.4985 -1.9651 -0.7341
 3842SOL     OW26945   2.287   1.010   1.344  0.7350 -0.3867  0.3888
 3842SOL    HW126946   2.212   1.054   1.303  0.2168 -0.9497  0.7141
 3842SOL    HW226947   2.269   0.917   1.333  1.4302 -0.5260  0.4024
 3843SOL     OW26948   5.373   5.844   1.078  0.0572  0.1605  0.1808
 3843SOL    HW126949   5.462   5.851   1.041  0.2013  0.9958  0.6489
 3843SOL    HW226950   5.315   5.867   1.005  0.2723  0.4612  0.1006
 3844SOL     OW26951   4.095   0.358   3.599 -0.0139 -0.1394 -0.1486
 3844SOL    HW126952   4.151   0.288   3.567  0.4198  0.3155 -0.3836
 3844SOL    HW226953   4.006   0.323   3.590  0.3149 -1.7755  2.4323
 3845SOL     OW26954   0.972   4.311   8.872 -0.0289  0.2788  0.2099
 3845SOL    HW126955   1.036   4.335   8.940  1.4292  0.1930 -1.1024
 3845SOL    HW226956   0.953   4.219   8.888 -0.0710  0.3882  0.8024
 3846SOL     OW26957   1.190   4.215   9.422  0.6346 -0.0143 -0.5456
 3846SOL    HW126958   1.280   4.200   9.451 -0.0348 -1.4108  0.8570
 3846SOL    HW226959   1.183   4.170   9.338  1.4766  0.8183 -1.0738
 3847SOL     OW26960   0.184   0.564   0.928 -0.5106  0.2587  0.2566
 3847SOL    HW126961   0.155   0.508   0.855  0.7015  0.3594 -0.3175
 3847SOL    HW226962   0.228   0.503   0.988 -0.5170  0.3635  0.3687
 3848SOL     OW26963   0.264   5.427   3.503  0.4770 -0.3194 -0.5444
 3848SOL    HW126964   0.289   5.419   3.595 -1.7688 -4.1258 -0.1465
 3848SOL    HW226965   0.232   5.517   3.494  1.0604  0.2146  2.3222
 3849SOL     OW26966   0.780   2.533  11.172 -0.1675  0.0715  0.3502
 3849SOL    HW126967   0.775   2.461  11.110 -0.8816  0.1690  0.2947
 3849SOL    HW226968   0.718   2.598  11.139  1.9633  1.6013 -0.7499
 3850SOL     OW26969   1.653   2.744  10.007 -0.3354  0.2370 -0.2543
 3850SOL    HW126970   1.631   2.724   9.916 -1.6969 -0.8810  0.3072
 3850SOL    HW226971   1.747   2.762  10.005 -0.3153  0.0381 -1.8475
 3851SOL     OW26972   0.573   5.393   2.393  0.2972  0.5982 -0.0035
 3851SOL    HW126973   0.612   5.474   2.361 -1.7382  1.2604 -0.9676
 3851SOL    HW226974   0.611   5.379   2.479  1.3402  2.0910 -0.2115
 3852SOL     OW26975   3.728   5.585   0.685 -0.2016 -0.9165  0.2288
 3852SOL    HW126976   3.756   5.634   0.762  0.1021 -0.0950 -0.4018
 3852SOL    HW226977   3.641   5.618   0.665 -0.0285 -0.6880 -0.1517
 3853SOL     OW26978   1.474   4.077   2.710  0.2744 -0.3768 -0.1253
 3853SOL    HW126979   1.464   4.001   2.652  0.2278  0.6374 -1.4809
 3853SOL    HW226980   1.390   4.085   2.755 -0.3589 -0.0345 -1.3497
 3854SOL     OW26981   2.893   0.065   8.593 -0.3551 -0.3797 -0.0902
 3854SOL    HW126982   2.869   0.042   8.683  0.7960  1.6499  0.7614
 3854SOL    HW226983   2.957  -0.002   8.568 -0.4044 -0.7372  0.7220
 3855SOL     OW26984   2.363   5.614   2.539 -0.1001 -0.3698 -0.1986
 3855SOL    HW126985   2.386   5.629   2.630 -1.0545 -2.0688  0.3419
 3855SOL    HW226986   2.403   5.530   2.517 -2.0248 -1.2201 -0.5563
 3856SOL     OW26987   2.338   2.625   8.819  0.5337  0.0644  0.1042
 3856SOL    HW126988   2.282   2.549   8.799  1.6937 -0.9952  0.7957
 3856SOL    HW226989   2.368   2.609   8.909  0.0601  1.8134  0.5980
 3857SOL     OW26990   0.820   2.543   1.767  0.3426 -0.7147  0.0263
 3857SOL    HW126991   0.814   2.568   1.674  0.8710  2.8174  0.8976
 3857SOL    HW226992   0.730   2.548   1.799  0.3153 -0.8540 -0.0264
 3858SOL     OW26993   3.540   2.089  11.631 -0.1986 -0.2415  0.0110
 3858SOL    HW126994   3.541   2.133  11.546 -0.8002  0.9392  0.6082
 3858SOL    HW226995   3.594   2.144  11.688 -0.4381 -0.6042  0.6041
 3859SOL     OW26996   5.174   5.030  11.898  0.0900 -0.2838 -0.4427
 3859SOL    HW126997   5.258   5.075  11.903  0.6588 -1.4132  0.7159
 3859SOL    HW226998   5.136   5.042  11.985 -0.6304 -0.3506 -0.7496
 3860SOL     OW26999   2.750   1.220   1.747 -0.1769 -0.1111  0.5541
 3860SOL    HW127000   2.803   1.264   1.814 -0.9726  2.3698 -0.3894
 3860SOL    HW227001   2.769   1.269   1.667  0.0540 -2.4615 -0.8565
 3861SOL     OW27002   2.241   5.690   9.656  0.2840  0.2472  0.1824
 3861SOL    HW127003   2.152   5.687   9.621  0.4985  0.7593 -0.4198
 3861SOL    HW227004   2.296   5.655   9.586  0.4721 -0.7999  0.8403
 3862SOL     OW27005   5.468   2.426   8.755  0.1747  0.3914 -0.0824
 3862SOL    HW127006   5.499   2.456   8.840 -0.6999 -0.8347  0.6740
 3862SOL    HW227007   5.530   2.358   8.729  1.3477  1.8331 -1.1601
 3863SOL     OW27008   3.414   0.310  10.102  0.4410  0.2376 -0.6044
 3863SOL    HW127009   3.420   0.369  10.028 -0.3705 -2.2555 -2.7283
 3863SOL    HW227010   3.500   0.268  10.107 -0.3329 -1.5734 -1.8896
 3864SOL     OW27011   1.339   2.800  10.516 -0.5798 -0.4354  0.0411
 3864SOL    HW127012   1.347   2.706  10.533  4.2372 -0.7440 -2.9742
 3864SOL    HW227013   1.291   2.805  10.433 -0.8184 -0.2290  0.1904
 3865SOL     OW27014   2.736   1.930   7.866  0.3846  0.1599  0.0865
 3865SOL    HW127015   2.666   1.875   7.899  1.5659 -1.6986 -0.3976
 3865SOL    HW227016   2.693   1.989   7.804 -0.6283 -1.5694 -0.9151
 3866SOL     OW27017   5.900   4.998   4.091 -0.3417  0.0160  0.3623
 3866SOL    HW127018   5.913   4.994   3.996 -0.5072 -1.7222  0.3970
 3866SOL    HW227019   5.988   4.999   4.128 -0.2536 -2.0620  0.2686
 3867SOL     OW27020   3.001   5.083   2.912  0.1211  0.1703  0.3769
 3867SOL    HW127021   3.087   5.042   2.904  0.9433  1.7956  0.4936
 3867SOL    HW227022   2.996   5.141   2.836 -1.2650 -0.6042 -0.1279
 3868SOL     OW27023   0.171   5.452   2.029 -0.4022  0.5386 -0.1010
 3868SOL    HW127024   0.112   5.394   2.078  0.4017 -0.3175 -0.1367
 3868SOL    HW227025   0.231   5.487   2.095  1.0701 -1.0913 -0.5414
 3869SOL     OW27026   1.675   0.467   3.499 -0.2489  0.3310  0.2044
 3869SOL    HW127027   1.635   0.518   3.570  1.6019  0.0786  1.4855
 3869SOL    HW227028   1.703   0.386   3.541 -0.7099 -0.5870 -1.2272
 3870SOL     OW27029   3.031   0.932  10.711  0.3167 -0.2537  0.8024
 3870SOL    HW127030   3.114   0.970  10.741  0.8370  1.7137 -2.8012
 3870SOL    HW227031   2.968   1.004  10.715 -0.5097 -0.9573  0.7230
 3871SOL     OW27032   5.084   5.177   8.792  0.4620 -0.3147 -0.1472
 3871SOL    HW127033   5.067   5.269   8.773 -1.4956 -0.4983  0.6186
 3871SOL    HW227034   5.178   5.173   8.810  0.1395  1.9797  2.3738
 3872SOL     OW27035   5.222   3.298   1.833  0.5188 -0.0926 -0.3192
 3872SOL    HW127036   5.284   3.369   1.821  0.3044 -0.0259 -1.0779
 3872SOL    HW227037   5.190   3.308   1.923  2.7740 -1.0824  0.6151
 3873SOL     OW27038   3.039   4.850   2.673  0.3070 -0.1652 -0.5861
 3873SOL    HW127039   3.086   4.904   2.609 -0.2316  0.4018 -0.5059
 3873SOL    HW227040   2.961   4.901   2.695  0.6437 -0.2177  0.7523
 3874SOL     OW27041   5.532   0.474  11.502 -0.0179 -0.1396 -0.0973
 3874SOL    HW127042   5.580   0.439  11.577  1.0940  0.4099 -0.5293
 3874SOL    HW227043   5.505   0.562  11.530  0.6754  0.1912 -0.4403
 3875SOL     OW27044   1.178   5.444   9.060  0.1804  0.1790  0.3081
 3875SOL    HW127045   1.238   5.510   9.096 -0.0262 -0.5519  2.0805
 3875SOL    HW227046   1.105   5.442   9.123 -0.0976 -1.3099 -0.0392
 3876SOL     OW27047   1.767   1.351  10.677  0.1554 -0.2115  0.6784
 3876SOL    HW127048   1.702   1.377  10.612  0.2960 -3.7360 -0.9660
 3876SOL    HW227049   1.733   1.384  10.760 -2.5579 -0.0195 -0.4736
 3877SOL     OW27050   0.011   3.407   2.008  0.8508  0.0879 -0.6745
 3877SOL    HW127051  -0.060   3.347   1.987  2.1002 -0.6026 -3.0800
 3877SOL    HW227052   0.080   3.386   1.946  2.4586  2.0186  0.3846
 3878SOL     OW27053   0.786   2.085   1.726  0.1891 -0.0057  0.5831
 3878SOL    HW127054   0.841   2.041   1.791 -1.1814 -1.7540  0.5928
 3878SOL    HW227055   0.728   2.141   1.777  2.2129  2.2337  0.5492
 3879SOL     OW27056   1.391   2.547   2.699 -0.1685 -0.1192  0.0866
 3879SOL    HW127057   1.419   2.467   2.656 -0.3443  0.8930 -1.9967
 3879SOL    HW227058   1.472   2.590   2.726  0.0423  0.0583 -0.8025
 3880SOL     OW27059   3.158   2.657   1.028 -0.4790  0.2221 -0.8145
 3880SOL    HW127060   3.235   2.601   1.013 -0.0935  0.9023 -1.4006
 3880SOL    HW227061   3.084   2.597   1.025 -0.0075 -0.3745 -0.6981
 3881SOL     OW27062   3.844   1.779   2.395 -0.1270 -0.6260  0.6973
 3881SOL    HW127063   3.876   1.861   2.356 -0.6660 -0.9909 -0.5213
 3881SOL    HW227064   3.922   1.724   2.402 -0.2032 -0.9241 -0.7834
 3882SOL     OW27065   0.652   0.961  12.362  0.5437  0.2029  0.1107
 3882SOL    HW127066   0.636   0.877  12.319 -1.4610  0.9326 -0.6382
 3882SOL    HW227067   0.658   0.940  12.455 -2.7817 -0.4474  0.2359
 3883SOL     OW27068   0.697   2.862   9.138 -0.0029  0.3873  0.1472
 3883SOL    HW127069   0.634   2.934   9.127 -2.7280 -1.9622 -0.4132
 3883SOL    HW227070   0.712   2.830   9.049  1.5939  0.5550  0.3417
 3884SOL     OW27071   4.899   4.746  10.027  0.0610 -0.1146  0.3412
 3884SOL    HW127072   4.928   4.686   9.959  1.0744  0.6952  0.0607
 3884SOL    HW227073   4.804   4.751  10.015  0.2646  0.2288 -1.1708
 3885SOL     OW27074   3.758   5.059   1.307  0.6865  0.1286  0.4337
 3885SOL    HW127075   3.839   5.043   1.259  1.0693 -1.2959  1.5096
 3885SOL    HW227076   3.743   5.154   1.299  2.5141  0.4206  0.3283
 3886SOL     OW27077   1.397   3.104   9.342  0.8688 -0.0058 -0.1544
 3886SOL    HW127078   1.435   3.016   9.343 -0.1757 -0.4604 -0.0984
 3886SOL    HW227079   1.347   3.108   9.261  1.3951  0.7405 -0.4413
 3887SOL     OW27080   4.093   3.249  10.009 -0.0570 -0.2719  0.0569
 3887SOL    HW127081   4.116   3.264   9.917 -1.6894  1.1427 -0.1429
 3887SOL    HW227082   4.155   3.181  10.038  0.7957 -0.3934 -1.9334
 3888SOL     OW27083   5.813   1.307  10.837  0.4211 -0.0197 -0.1478
 3888SOL    HW127084   5.832   1.368  10.908  0.7137 -1.8684  1.3885
 3888SOL    HW227085   5.896   1.298  10.790  0.5156  0.3468 -0.0575
 3889SOL     OW27086   0.838   4.625   0.795 -0.0582  0.1520  0.5410
 3889SOL    HW127087   0.786   4.645   0.873 -0.7378 -1.6929  0.5792
 3889SOL    HW227088   0.878   4.540   0.814  1.6709  0.7831 -0.1664
 3890SOL     OW27089   3.583   5.346   1.964 -0.0929 -0.1423 -0.5031
 3890SOL    HW127090   3.551   5.435   1.981  1.0025  0.3277 -0.8820
 3890SOL    HW227091   3.608   5.313   2.050 -1.6667 -0.5616 -0.1765
 3891SOL     OW27092   5.633   5.077   1.027 -0.3957  0.3563  0.4091
 3891SOL    HW127093   5.669   5.084   0.939 -0.4704 -0.0875  0.3385
 3891SOL    HW227094   5.673   4.998   1.063 -2.0472 -0.7053 -0.0258
 3892SOL     OW27095   0.364   2.252   2.620 -0.3770 -0.1118 -0.8014
 3892SOL    HW127096   0.429   2.191   2.585 -0.4808 -0.1632 -0.9050
 3892SOL    HW227097   0.375   2.246   2.715 -0.7548 -0.6920 -0.7941
 3893SOL     OW27098   2.729   5.621  12.145 -0.4201 -0.3583 -0.7481
 3893SOL    HW127099   2.794   5.555  12.123 -1.6105 -1.1074 -2.1321
 3893SOL    HW227100   2.660   5.609  12.080 -1.3713  1.2285 -0.0611
 3894SOL     OW27101   1.662   3.455   3.229 -0.1660 -0.3453 -0.1106
 3894SOL    HW127102   1.620   3.395   3.167 -1.6003  2.6299 -2.1909
 3894SOL    HW227103   1.592   3.478   3.290 -0.1154  0.4674 -0.3503
 3895SOL     OW27104   1.686   4.701   8.777  0.1945 -0.0746  0.7154
 3895SOL    HW127105   1.735   4.639   8.831 -0.7692 -0.1659  1.4964
 3895SOL    HW227106   1.734   4.705   8.695  0.9817 -0.8748  1.1360
 3896SOL     OW27107   2.822   0.501   3.431 -0.1166 -0.1644 -0.0872
 3896SOL    HW127108   2.729   0.477   3.426 -0.4468  0.7612  1.2938
 3896SOL    HW227109   2.858   0.442   3.498 -0.3005  1.2448  1.2670
 3897SOL     OW27110   4.835   5.823   1.474  0.0848  0.6390 -0.1352
 3897SOL    HW127111   4.857   5.775   1.393  0.3639 -1.4494  1.1355
 3897SOL    HW227112   4.740   5.823   1.477  0.0824 -0.0149 -0.0599
 3898SOL     OW27113   3.830   0.634   8.949 -0.0871 -0.5977  0.0948
 3898SOL    HW127114   3.815   0.701   8.882 -0.8465 -1.1582 -0.3023
 3898SOL    HW227115   3.822   0.681   9.032 -2.0126 -0.4628 -0.1492
 3899SOL     OW27116   2.432   2.573   1.002  0.1191  0.0542  0.3252
 3899SOL    HW127117   2.518   2.552   0.967  0.6197  0.7655  1.0826
 3899SOL    HW227118   2.377   2.585   0.925  0.6268 -0.6879 -0.1627
 3900SOL     OW27119   1.036   1.854   8.777 -0.1113  0.0590 -0.0169
 3900SOL    HW127120   0.992   1.839   8.861  2.1383  1.1014  1.4150
 3900SOL    HW227121   0.966   1.876   8.716 -1.9247 -1.8358  1.2945
 3901SOL     OW27122   4.453   0.964   0.126  0.0298  0.3658  0.3557
 3901SOL    HW127123   4.491   0.912   0.197 -0.2616 -1.3553 -0.7354
 3901SOL    HW227124   4.360   0.945   0.130 -0.0737  0.7934 -0.0573
 3902SOL     OW27125   3.282   5.361   0.779  0.0835  0.0841  0.3332
 3902SOL    HW127126   3.256   5.284   0.830 -1.4080  0.6440  0.4380
 3902SOL    HW227127   3.370   5.382   0.811 -0.0009 -0.8350  1.1845
 3903SOL     OW27128   1.716   1.010   3.691  0.3033 -0.3241  0.5277
 3903SOL    HW127129   1.737   0.965   3.772 -0.4432 -0.0804  0.8620
 3903SOL    HW227130   1.774   1.086   3.690  1.9075 -1.5358 -0.2761
 3904SOL     OW27131   5.780   5.146   9.056 -0.1621  0.3963 -0.0177
 3904SOL    HW127132   5.741   5.122   8.972 -2.0270 -1.1897  1.2647
 3904SOL    HW227133   5.814   5.235   9.042  0.2066 -0.1329 -2.6400
 3905SOL     OW27134   3.703   2.711   9.744  0.2106  0.0305 -0.0277
 3905SOL    HW127135   3.764   2.741   9.677 -2.1548 -0.9963 -2.7384
 3905SOL    HW227136   3.757   2.661   9.806  2.8071  2.9298  0.1467
 3906SOL     OW27137   2.288   1.989   0.647 -0.0004 -0.1770  0.1407
 3906SOL    HW127138   2.308   1.899   0.621  1.6080 -0.3359  1.8026
 3906SOL    HW227139   2.347   2.043   0.594  1.7263 -0.3672  1.7993
 3907SOL     OW27140   5.090   4.367  10.919 -0.2741 -0.4131 -0.3193
 3907SOL    HW127141   5.146   4.332  10.849 -0.7384 -1.4381 -0.1787
 3907SOL    HW227142   5.110   4.461  10.920  1.6234 -0.8042 -0.0976
 3908SOL     OW27143   0.169   3.974  10.736 -0.1429  0.0634 -0.0755
 3908SOL    HW127144   0.154   4.067  10.719  2.1088  0.6699  0.9932
 3908SOL    HW227145   0.239   3.950  10.675 -0.8935 -0.9976 -0.5222
 3909SOL     OW27146   0.829   1.427   2.013  0.1693 -0.5278 -0.2571
 3909SOL    HW127147   0.756   1.369   2.034 -0.7644 -0.2983 -2.7255
 3909SOL    HW227148   0.845   1.413   1.919  2.2340  0.6217 -0.1138
 3910SOL     OW27149   4.118   2.026   0.731  0.1319  0.2287 -0.3612
 3910SOL    HW127150   4.039   2.055   0.685 -0.3391 -0.5674 -0.0731
 3910SOL    HW227151   4.183   2.015   0.662 -0.0207  0.8297 -0.6102
 3911SOL     OW27152   3.081   4.587  10.333 -0.1563  0.0837 -0.1867
 3911SOL    HW127153   3.011   4.647  10.309  0.1516  0.1962 -0.8203
 3911SOL    HW227154   3.036   4.510  10.368 -0.5441  0.7970  0.9120
 3912SOL     OW27155   2.890   2.208   3.647  0.2397  0.2568  0.3424
 3912SOL    HW127156   2.985   2.198   3.646  0.0936 -1.2563 -0.7449
 3912SOL    HW227157   2.875   2.301   3.665  1.8798  0.1084  2.7433
 3913SOL     OW27158   3.475   2.366   8.441 -0.4091  0.1770  0.1556
 3913SOL    HW127159   3.510   2.278   8.426 -0.7813 -0.2069  1.5305
 3913SOL    HW227160   3.400   2.352   8.499 -1.2499  1.2713 -0.6588
 3914SOL     OW27161   4.245   2.635   0.537 -0.3667 -0.3196 -0.1338
 3914SOL    HW127162   4.166   2.651   0.589  0.0391 -0.2687  0.4831
 3914SOL    HW227163   4.213   2.599   0.454 -0.9376 -1.8040  0.7132
 3915SOL     OW27164   5.757   0.494   9.707  0.3430  0.4323  0.1118
 3915SOL    HW127165   5.740   0.482   9.613  1.8835  2.8854 -0.5262
 3915SOL    HW227166   5.677   0.461   9.749 -2.7450  4.2020 -2.3767
 3916SOL     OW27167   1.808   2.056   9.373 -0.2033 -0.1629 -0.5011
 3916SOL    HW127168   1.890   2.093   9.406 -0.4499  0.0859 -0.1675
 3916SOL    HW227169   1.743   2.125   9.388 -0.4185 -0.2460 -1.0304
 3917SOL     OW27170   5.927   2.140   1.671  0.4195 -0.3951  0.0099
 3917SOL    HW127171   5.896   2.050   1.657  0.9308 -0.1614 -2.9780
 3917SOL    HW227172   6.022   2.132   1.675  0.5090  0.0787 -0.9986
 3918SOL     OW27173   4.820   2.693   1.325 -0.3455  0.5110  0.2660
 3918SOL    HW127174   4.900   2.720   1.280 -1.5995  0.4872 -2.0609
 3918SOL    HW227175   4.786   2.621   1.272 -1.4372 -0.0655  1.7212
 3919SOL     OW27176   1.898   4.451   2.784 -0.3813  0.2177 -0.1585
 3919SOL    HW127177   1.871   4.541   2.766  0.9655  0.4693 -1.0273
 3919SOL    HW227178   1.835   4.397   2.736 -1.0619  0.7044  0.1870
 3920SOL     OW27179   0.884   0.483  10.588 -0.0662  0.3961 -0.0706
 3920SOL    HW127180   0.969   0.529  10.587  0.1160  0.0496 -0.4458
 3920SOL    HW227181   0.890   0.420  10.517 -0.3865 -0.0952  0.3375
 3921SOL     OW27182   0.888   1.618   0.754 -0.0137  0.4923 -0.1799
 3921SOL    HW127183   0.889   1.599   0.847 -0.4183 -2.5887 -0.7636
 3921SOL    HW227184   0.978   1.645   0.734  0.1627  0.7798  1.0083
 3922SOL     OW27185   1.856   4.743   4.121 -0.0264  0.3549 -0.1351
 3922SOL    HW127186   1.822   4.781   4.202  0.0120 -1.4967  0.7762
 3922SOL    HW227187   1.951   4.750   4.129 -0.0182  0.0309  0.0407
 3923SOL     OW27188   5.344   1.116   9.805 -0.0803 -0.0608 -0.3151
 3923SOL    HW127189   5.296   1.136   9.724 -1.3756  1.4895  0.7806
 3923SOL    HW227190   5.348   1.200   9.851  1.3719 -0.7484  0.8605
 3924SOL     OW27191   1.162   4.774  11.761  0.0679 -0.7982 -0.2698
 3924SOL    HW127192   1.114   4.693  11.740 -1.9772  0.5435 -0.9165
 3924SOL    HW227193   1.116   4.842  11.713  1.2676  0.8917  0.9302
 3925SOL     OW27194   0.335   2.944   8.454  0.0800  0.3001  0.9834
 3925SOL    HW127195   0.304   2.884   8.521  0.9739 -3.1539 -1.5597
 3925SOL    HW227196   0.268   2.942   8.386  0.0825  2.2717  0.8986
 3926SOL     OW27197   2.144   5.321   0.504 -0.4002 -0.2809 -0.2288
 3926SOL    HW127198   2.104   5.272   0.576  0.6903 -0.2828  0.3827
 3926SOL    HW227199   2.092   5.401   0.498 -0.7946 -0.4983  0.2401
 3927SOL     OW27200   4.200   0.345   8.943 -0.0150  0.1372 -0.2097
 3927SOL    HW127201   4.128   0.396   8.979  1.5486  2.7945 -0.6605
 3927SOL    HW227202   4.170   0.318   8.856 -0.3340  1.5232 -0.5340
 3928SOL     OW27203   3.721   4.989   2.382  0.1876 -0.3410  0.5530
 3928SOL    HW127204   3.734   4.895   2.370 -1.6544 -0.6860  1.0713
 3928SOL    HW227205   3.723   5.025   2.293 -1.0230 -1.1512  0.1899
 3929SOL     OW27206   1.809   1.859  11.004  0.1071  0.5309  0.8263
 3929SOL    HW127207   1.792   1.812  11.086 -1.0879  2.1235  1.5220
 3929SOL    HW227208   1.743   1.928  11.002  0.4571  0.8271 -1.2434
 3930SOL     OW27209   1.676   5.582   8.232 -0.4142 -0.1586  0.2777
 3930SOL    HW127210   1.655   5.621   8.147  0.4547 -1.9853 -0.8138
 3930SOL    HW227211   1.595   5.588   8.283 -1.1485  0.3034 -0.9348
 3931SOL     OW27212   0.413   5.202   1.662  0.2168  0.1189  0.0463
 3931SOL    HW127213   0.391   5.217   1.754  0.5728  0.9248  0.0037
 3931SOL    HW227214   0.331   5.219   1.615 -0.0673 -0.6695  0.2433
 3932SOL     OW27215   0.702   3.654   9.106  0.5598  0.5612 -0.3104
 3932SOL    HW127216   0.758   3.583   9.137  0.6054  0.4322 -0.6843
 3932SOL    HW227217   0.726   3.665   9.014  0.4197  0.9344 -0.3028
 3933SOL     OW27218   1.484   1.824  11.195 -0.3263 -0.1669  0.5351
 3933SOL    HW127219   1.479   1.768  11.117 -0.7170 -0.2542  0.6256
 3933SOL    HW227220   1.578   1.841  11.205 -0.3301  0.5361 -0.4555
 3934SOL     OW27221   3.574   3.096   7.421  0.7047 -0.1543 -0.2171
 3934SOL    HW127222   3.641   3.114   7.487  0.3806 -1.7708  0.5973
 3934SOL    HW227223   3.611   3.127   7.339  2.1234 -0.3411  0.3416
 3935SOL     OW27224   2.414   4.415   0.525 -0.3595 -0.1521 -0.0344
 3935SOL    HW127225   2.452   4.420   0.437 -0.6526  0.2506 -0.1403
 3935SOL    HW227226   2.476   4.461   0.581 -0.1559 -0.4376 -0.0214
 3936SOL     OW27227   3.733   3.196  10.500 -0.0607  0.0800 -0.4231
 3936SOL    HW127228   3.644   3.200  10.463  0.1859  0.0821 -1.0232
 3936SOL    HW227229   3.782   3.260  10.449  0.0918  0.6685  0.4497
 3937SOL     OW27230   1.399   4.997   1.166  0.8721  0.2678  0.0261
 3937SOL    HW127231   1.469   4.950   1.121 -1.7280 -1.5036 -2.2884
 3937SOL    HW227232   1.377   5.069   1.108 -1.9208 -1.5350 -1.2513
 3938SOL     OW27233   2.090   1.166   3.171 -0.1014  0.6411  0.0231
 3938SOL    HW127234   2.162   1.223   3.200  0.3200  0.1562 -0.0763
 3938SOL    HW227235   2.051   1.213   3.097  0.9244  0.3019 -0.7496
 3939SOL     OW27236   2.960   2.830  10.274  0.1406  0.0554  0.6089
 3939SOL    HW127237   2.881   2.784  10.243  0.8517 -1.1870  0.5905
 3939SOL    HW227238   2.995   2.873  10.196  0.7701 -1.3406  0.1007
 3940SOL     OW27239   2.687   5.416   9.402 -0.6550  0.1346 -0.2686
 3940SOL    HW127240   2.612   5.460   9.442 -2.2285 -1.4643 -1.3792
 3940SOL    HW227241   2.684   5.327   9.437  1.7124  0.4789  0.9370
 3941SOL     OW27242   1.780   4.249   3.634 -0.5426  0.3300 -0.2886
 3941SOL    HW127243   1.868   4.275   3.661  0.2006 -0.8367 -1.4958
 3941SOL    HW227244   1.764   4.297   3.553 -0.6541 -0.1260 -0.5432
 3942SOL     OW27245   4.726   1.293  11.022 -0.1461 -0.2607  0.0480
 3942SOL    HW127246   4.765   1.344  10.951 -0.4436 -0.8561 -0.5535
 3942SOL    HW227247   4.635   1.323  11.026 -0.2965 -0.6732 -0.2436
 3943SOL     OW27248   4.558   5.396   2.092 -0.1136  0.1316  0.1323
 3943SOL    HW127249   4.535   5.411   2.184 -1.6071 -0.8160 -0.0656
 3943SOL    HW227250   4.513   5.315   2.069  1.0897 -0.1973 -1.1568
 3944SOL     OW27251   2.739   0.798   2.134 -0.4928 -0.3789  0.1397
 3944SOL    HW127252   2.797   0.857   2.183 -1.3917  0.0017  0.7515
 3944SOL    HW227253   2.796   0.725   2.108  0.5933  0.6504 -0.4643
 3945SOL     OW27254   0.078   3.001  11.326 -0.2903 -0.3862  0.5612
 3945SOL    HW127255   0.009   3.049  11.371  1.9833  3.4925  0.1806
 3945SOL    HW227256   0.150   2.998  11.389  0.1460 -1.9828  0.0092
 3946SOL     OW27257   3.800   2.029   7.976 -0.0557  0.1856  0.1098
 3946SOL    HW127258   3.748   2.091   7.925 -0.4601  0.3333  0.6956
 3946SOL    HW227259   3.891   2.055   7.960 -0.1766  0.2210 -0.5438
 3947SOL     OW27260   0.509   1.661   8.852 -0.3771 -0.0214  0.3977
 3947SOL    HW127261   0.510   1.572   8.816  0.9515 -0.2528  0.9757
 3947SOL    HW227262   0.430   1.665   8.906 -0.4815 -0.8256  0.3069
 3948SOL     OW27263   4.279   4.399   1.879 -0.6927  0.1947  0.0600
 3948SOL    HW127264   4.231   4.448   1.946 -0.7391 -1.8115  1.5582
 3948SOL    HW227265   4.212   4.350   1.832 -0.5061  0.4022 -0.4259
 3949SOL     OW27266   0.824   4.554   8.409  0.4338  0.3319  0.1136
 3949SOL    HW127267   0.734   4.546   8.442  0.6346  0.6444  0.7377
 3949SOL    HW227268   0.840   4.471   8.364  0.1108 -0.0508  0.6943
 3950SOL     OW27269   2.635   5.007   9.006 -0.3501  0.0348  0.4314
 3950SOL    HW127270   2.659   4.918   8.983 -0.3632  0.1887 -0.1900
 3950SOL    HW227271   2.540   5.005   9.018 -0.4232  0.0880 -0.1403
 3951SOL     OW27272   0.136   3.930   9.881 -0.6009 -0.2528 -0.6569
 3951SOL    HW127273   0.117   4.019   9.910  0.7485 -0.3478  0.5776
 3951SOL    HW227274   0.099   3.874   9.948  1.0107 -0.5293  0.0322
 3952SOL     OW27275   4.069   4.425  10.820 -0.3228  0.1748 -0.3273
 3952SOL    HW127276   4.094   4.389  10.905  0.0279  2.4705  0.5543
 3952SOL    HW227277   4.124   4.501  10.808  0.1633 -0.5340 -2.9884
 3953SOL     OW27278   5.860   5.527  11.147  0.2903 -0.0026  0.0246
 3953SOL    HW127279   5.856   5.435  11.120 -0.2662 -0.0568  0.2799
 3953SOL    HW227280   5.947   5.556  11.121 -0.4695  0.1321 -2.4944
 3954SOL     OW27281   3.133   3.394   0.618 -0.1313  0.2150  0.1177
 3954SOL    HW127282   3.096   3.431   0.698  1.5714  2.6196 -0.1368
 3954SOL    HW227283   3.056   3.369   0.565 -1.3262  1.6929  1.1098
 3955SOL     OW27284   1.242   1.221   2.161 -0.2286 -0.0376 -0.1496
 3955SOL    HW127285   1.204   1.135   2.182 -0.8395  0.2057 -0.2483
 3955SOL    HW227286   1.205   1.243   2.076  1.4936 -0.5876 -1.0726
 3956SOL     OW27287   0.741   3.829   3.499 -0.4616 -0.8270  0.0422
 3956SOL    HW127288   0.716   3.877   3.577  1.8343  0.9533 -0.2783
 3956SOL    HW227289   0.729   3.737   3.522  0.6822 -0.3480  2.6628
 3957SOL     OW27290   4.339   1.655   3.066 -0.3733  0.0061 -0.3502
 3957SOL    HW127291   4.344   1.682   2.975 -0.3985  0.1221 -0.3181
 3957SOL    HW227292   4.424   1.680   3.104 -0.2573 -0.2913 -0.4089
 3958SOL     OW27293   2.035   5.375   9.074 -0.4578  0.4795 -0.1788
 3958SOL    HW127294   2.034   5.300   9.014 -0.2076 -0.0407  0.4577
 3958SOL    HW227295   2.031   5.335   9.161 -1.4136  1.2527  0.1346
 3959SOL     OW27296   3.193   2.639   8.716 -0.6198 -0.3193 -0.1412
 3959SOL    HW127297   3.185   2.581   8.792 -1.7465 -1.2385 -0.9584
 3959SOL    HW227298   3.281   2.677   8.724  0.1119 -2.1051  0.4149
 3960SOL     OW27299   5.559   4.898  10.658 -0.4475  0.0566 -0.0333
 3960SOL    HW127300   5.472   4.935  10.674 -0.6890 -0.0202 -1.1224
 3960SOL    HW227301   5.554   4.808  10.691 -0.9511 -0.1235 -0.5969
 3961SOL     OW27302   2.471   1.826  10.833  0.1697  0.1310  0.7475
 3961SOL    HW127303   2.531   1.751  10.829 -1.5158 -1.1696 -0.9646
 3961SOL    HW227304   2.524   1.897  10.871  2.4917 -1.2349  0.1821
 3962SOL     OW27305   2.776   1.480  10.953  0.1721  0.1013  0.1970
 3962SOL    HW127306   2.722   1.558  10.961 -1.9146 -1.3665  0.6325
 3962SOL    HW227307   2.760   1.431  11.034 -1.0718 -2.3287 -1.4565
 3963SOL     OW27308   1.019   0.538   1.840 -0.2854 -0.3480  0.4928
 3963SOL    HW127309   0.944   0.573   1.887 -0.2369  0.3008  0.0998
 3963SOL    HW227310   1.068   0.489   1.905 -1.0739 -0.8124  0.7414
 3964SOL     OW27311   3.323   3.881  10.741  0.3316 -0.2408  0.1443
 3964SOL    HW127312   3.368   3.799  10.758  0.8119 -0.2311 -1.0694
 3964SOL    HW227313   3.231   3.855  10.728  0.3697 -0.5051  0.3772
 3965SOL     OW27314   1.207   2.151   9.418  0.0297 -0.2698  0.4585
 3965SOL    HW127315   1.173   2.196   9.495  0.3279 -0.9622  0.9988
 3965SOL    HW227316   1.139   2.088   9.395  0.9026 -1.6256  1.5143
 3966SOL     OW27317   1.944   3.234   2.029  0.0472  0.1801 -0.1823
 3966SOL    HW127318   2.010   3.208   1.965 -0.3062  0.1695 -0.5500
 3966SOL    HW227319   1.973   3.194   2.111  1.2517  1.3837 -0.0200
 3967SOL     OW27320   1.150   0.124  11.317 -0.3282 -0.3070 -0.0499
 3967SOL    HW127321   1.147   0.030  11.337 -1.6301 -0.5131 -1.1013
 3967SOL    HW227322   1.191   0.129  11.231 -0.8325  0.0327 -0.2730
 3968SOL     OW27323   2.620   5.002   0.325  0.2483  0.0306  0.2855
 3968SOL    HW127324   2.692   5.064   0.308  0.1769  0.6169  2.0890
 3968SOL    HW227325   2.592   5.021   0.414 -1.6490 -0.7345 -0.1302
 3969SOL     OW27326   5.281   4.743  12.469 -0.2721 -0.2622  0.1251
 3969SOL    HW127327   5.301   4.734  12.376 -0.9063  0.4587 -0.0857
 3969SOL    HW227328   5.239   4.660  12.492 -0.5737 -0.2477 -0.3584
 3970SOL     OW27329   2.832   5.526  10.791  0.3022  0.6083  0.4074
 3970SOL    HW127330   2.904   5.464  10.777  0.2771  0.8751 -0.9651
 3970SOL    HW227331   2.765   5.501  10.727 -0.9854  0.1441  1.9218
 3971SOL     OW27332   3.437   0.924   7.629 -0.0356  0.3104 -0.7606
 3971SOL    HW127333   3.393   0.929   7.544 -0.8093 -1.3961 -0.4756
 3971SOL    HW227334   3.408   0.841   7.666  0.2078  1.0890  1.2319
 3972SOL     OW27335   5.405   2.212  11.164 -0.3067 -0.0198 -0.5117
 3972SOL    HW127336   5.319   2.181  11.193  1.2334 -3.3223  0.7866
 3972SOL    HW227337   5.444   2.253  11.241 -0.0711 -0.0451 -0.6136
 3973SOL     OW27338   1.864   0.447   3.827 -0.2311  0.1528  0.6738
 3973SOL    HW127339   1.781   0.494   3.829 -0.5289 -0.2435 -1.7526
 3973SOL    HW227340   1.914   0.487   3.756 -0.2605 -2.7499 -1.0545
 3974SOL     OW27341   1.973   2.155   9.044  0.2659  0.4284 -0.8337
 3974SOL    HW127342   1.904   2.222   9.041  0.8368  0.9413 -3.7359
 3974SOL    HW227343   1.927   2.072   9.033 -0.5372  0.1849  3.5481
 3975SOL     OW27344   2.414   1.786   0.476 -0.7954  0.3793  0.0126
 3975SOL    HW127345   2.365   1.828   0.406  0.4491  0.4435 -0.8249
 3975SOL    HW227346   2.458   1.712   0.434  1.6257  1.6362  0.2652
 3976SOL     OW27347   1.213   3.129   2.069  0.5811  0.2814  0.0579
 3976SOL    HW127348   1.264   3.104   2.146  0.9138  1.7898  0.3413
 3976SOL    HW227349   1.128   3.156   2.104 -0.2987 -1.8185 -0.3755
 3977SOL     OW27350   5.356   5.173   8.849 -0.1250  0.2748 -0.2107
 3977SOL    HW127351   5.369   5.159   8.755 -2.4334 -0.2266 -0.4817
 3977SOL    HW227352   5.414   5.110   8.891  1.1186  0.6799 -1.2902
 3978SOL     OW27353   5.052   5.326   9.600  0.4372  0.1623  0.1169
 3978SOL    HW127354   5.086   5.416   9.609 -0.7297  0.4542  1.8205
 3978SOL    HW227355   5.129   5.271   9.616  0.9386  0.8526  0.1556
 3979SOL     OW27356   2.418   1.978  11.599 -0.5706 -0.8759 -0.4039
 3979SOL    HW127357   2.323   1.967  11.589 -0.8123  0.2974  0.4559
 3979SOL    HW227358   2.428   2.022  11.683  0.7434 -0.9767 -0.5012
 3980SOL     OW27359   1.572   5.407   1.894 -0.9923  0.9078  0.4003
 3980SOL    HW127360   1.513   5.421   1.968 -0.8099 -0.2033  0.7705
 3980SOL    HW227361   1.563   5.314   1.873 -1.7706  1.4175 -1.6079
 3981SOL     OW27362   2.454   4.229   0.259 -0.8192  0.3797 -0.5218
 3981SOL    HW127363   2.510   4.276   0.197 -1.0480  1.7774  0.3190
 3981SOL    HW227364   2.500   4.146   0.274 -0.0718  0.6063 -1.5038
 3982SOL     OW27365   1.850   1.517  10.941 -0.5049  0.2140  0.0470
 3982SOL    HW127366   1.754   1.513  10.934 -0.5204 -2.9144  1.2591
 3982SOL    HW227367   1.867   1.533  11.034  0.1397 -0.6972  0.0935
 3983SOL     OW27368   2.511   0.336   3.722  0.1342 -0.5396  0.0081
 3983SOL    HW127369   2.569   0.260   3.726 -0.7374 -1.2744 -1.0067
 3983SOL    HW227370   2.434   0.305   3.675  0.1669  1.2410 -1.2705
 3984SOL     OW27371   4.664   5.557   9.615  0.3244  0.7365 -0.0350
 3984SOL    HW127372   4.604   5.577   9.543 -2.8415 -2.8242  1.4387
 3984SOL    HW227373   4.728   5.497   9.577 -1.0365 -0.7359 -0.0015
 3985SOL     OW27374   0.506   1.689  10.555 -0.0370 -0.0304 -0.5080
 3985SOL    HW127375   0.457   1.753  10.504 -0.9282 -1.0918 -0.9892
 3985SOL    HW227376   0.447   1.663  10.625  0.1763 -0.6204 -0.5414
 3986SOL     OW27377   0.008   4.505  12.325 -0.0729  0.2673  0.0131
 3986SOL    HW127378  -0.075   4.513  12.371  0.0841  0.4469  0.2688
 3986SOL    HW227379   0.069   4.559  12.375  0.5169 -0.9218  0.5996
 3987SOL     OW27380   5.413   2.521   2.422  0.4112 -0.3197  0.5413
 3987SOL    HW127381   5.420   2.616   2.417  0.6722 -0.3899 -0.7653
 3987SOL    HW227382   5.445   2.491   2.337 -2.0912 -1.4523 -0.0394
 3988SOL     OW27383   3.767   4.733   2.308  0.3011  0.0768  0.7891
 3988SOL    HW127384   3.786   4.722   2.215  1.2529 -1.1195  1.1036
 3988SOL    HW227385   3.673   4.717   2.316  0.3024 -0.2739  0.0948
 3989SOL     OW27386   3.535   2.214  10.404  0.8240  0.1191  0.3113
 3989SOL    HW127387   3.507   2.253  10.487 -1.2455 -0.9547  0.1666
 3989SOL    HW227388   3.490   2.265  10.337  0.5678 -0.5262 -0.0161
 3990SOL     OW27389   5.233   5.055   7.939  0.3911  0.0249 -0.0587
 3990SOL    HW127390   5.175   5.131   7.949 -1.2662 -1.3726  1.1704
 3990SOL    HW227391   5.297   5.065   8.009  0.6703  0.7154 -0.4054
 3991SOL     OW27392   0.405   2.523   8.708  0.4126  0.2171 -0.0057
 3991SOL    HW127393   0.456   2.490   8.782  2.0743  1.7991 -0.4014
 3991SOL    HW227394   0.331   2.462   8.701 -0.3110  0.5225  3.5089
 3992SOL     OW27395   3.607   5.311  11.568  0.2005 -0.4858  0.3203
 3992SOL    HW127396   3.562   5.391  11.596  1.0790  0.0575  0.2206
 3992SOL    HW227397   3.552   5.240  11.600 -1.9391  0.1356 -1.7789
 3993SOL     OW27398   5.025   0.425   2.547  0.4370 -0.3006 -0.0658
 3993SOL    HW127399   5.000   0.334   2.560 -0.7429  0.0987  0.5161
 3993SOL    HW227400   4.952   0.475   2.582  1.8835  0.8883  1.3256
 3994SOL     OW27401   4.638   2.485   2.089  0.1651  0.5051 -0.3658
 3994SOL    HW127402   4.598   2.422   2.029 -1.8638  1.4483 -0.0444
 3994SOL    HW227403   4.711   2.438   2.128 -0.7080 -1.3143 -0.8828
 3995SOL     OW27404   3.827   1.037   1.310  0.3807  0.2664 -0.1594
 3995SOL    HW127405   3.737   1.063   1.291  0.2226 -0.5606 -0.5616
 3995SOL    HW227406   3.823   0.941   1.321  1.0581  0.3223  0.6656
 3996SOL     OW27407   5.369   1.726   9.436  0.1209 -0.0758 -0.1396
 3996SOL    HW127408   5.320   1.679   9.369  0.0326 -0.4374  0.1763
 3996SOL    HW227409   5.459   1.728   9.403  0.2619 -1.0583  0.1591
 3997SOL     OW27410   3.583   0.753  11.644  0.4510  0.0047  0.4352
 3997SOL    HW127411   3.503   0.711  11.675 -0.0728  1.5209  1.1976
 3997SOL    HW227412   3.651   0.688  11.657 -0.3984 -0.7331  1.2594
 3998SOL     OW27413   0.666   0.037   0.259 -0.1411 -0.4964  0.2259
 3998SOL    HW127414   0.636  -0.047   0.292 -1.3989  0.2168  0.9029
 3998SOL    HW227415   0.667   0.026   0.164  1.0298 -1.7142  0.3621
 3999SOL     OW27416   2.429   1.667   8.871 -0.9191 -0.1144  0.7389
 3999SOL    HW127417   2.335   1.677   8.880 -1.0004 -0.0063 -0.1796
 3999SOL    HW227418   2.457   1.624   8.952 -1.4077  2.1253  2.1324
 4000SOL     OW27419   4.517   3.351  10.781 -0.2777 -0.0440 -0.0139
 4000SOL    HW127420   4.586   3.288  10.807 -0.3117 -0.8286 -1.7781
 4000SOL    HW227421   4.565   3.424  10.743 -0.2796  0.6579  1.3253
 4001SOL     OW27422   0.932   5.022   1.523  0.3582 -0.1099  0.4819
 4001SOL    HW127423   0.887   4.943   1.496 -3.2866  1.7633  0.8080
 4001SOL    HW227424   0.878   5.059   1.593  2.0245  2.5948  0.4429
 4002SOL     OW27425   3.667   3.854  10.104 -0.1736 -0.2032  0.3342
 4002SOL    HW127426   3.730   3.923  10.086  0.2183 -0.6866 -0.1433
 4002SOL    HW227427   3.589   3.880  10.055  1.1565 -1.9489 -2.8441
 4003SOL     OW27428   4.521   5.269  11.638  0.5349  0.5536 -0.1117
 4003SOL    HW127429   4.501   5.338  11.702  2.0114  1.7844 -0.9200
 4003SOL    HW227430   4.509   5.311  11.553  0.6912 -0.4317 -0.6285
 4004SOL     OW27431   4.669   2.779   0.958  0.3282  0.8002  0.1845
 4004SOL    HW127432   4.722   2.843   0.911  1.2614  1.3377  1.9298
 4004SOL    HW227433   4.608   2.745   0.892  2.5506  0.4831 -1.7668
 4005SOL     OW27434   2.591   0.646   8.819  0.2650  0.5470  0.1223
 4005SOL    HW127435   2.667   0.694   8.852  2.0776 -1.1982 -1.3911
 4005SOL    HW227436   2.617   0.554   8.823 -3.2647 -0.4748  3.3551
 4006SOL     OW27437   1.422   2.988   3.676  0.1189  0.4559  0.2582
 4006SOL    HW127438   1.470   2.947   3.748  0.1335  2.0074  1.1533
 4006SOL    HW227439   1.477   3.063   3.650 -0.1194  0.1913 -1.0413
 4007SOL     OW27440   3.497   1.679   0.933  0.7327  0.2760  0.2639
 4007SOL    HW127441   3.437   1.646   1.000  0.3714 -2.6127 -1.4211
 4007SOL    HW227442   3.555   1.605   0.915  0.6770  0.9229 -2.7647
 4008SOL     OW27443   2.269   4.761   2.863  0.5955 -0.3080  0.4524
 4008SOL    HW127444   2.285   4.856   2.857  0.0405 -0.2685 -0.4584
 4008SOL    HW227445   2.173   4.753   2.867  0.5860 -0.8903 -0.6853
 4009SOL     OW27446   3.523   0.490   3.373 -0.9098  0.3044 -0.1061
 4009SOL    HW127447   3.534   0.402   3.409  1.6912  1.4545  2.0600
 4009SOL    HW227448   3.524   0.548   3.449 -1.7401  2.3100 -1.5633
 4010SOL     OW27449   2.488   4.335   1.529  0.0683 -0.1065 -0.5813
 4010SOL    HW127450   2.433   4.370   1.599 -0.4420 -0.8637 -0.6118
 4010SOL    HW227451   2.428   4.318   1.456  0.6237  0.8678 -1.2881
 4011SOL     OW27452   2.867   5.419   0.906  0.1978 -0.0362  0.2852
 4011SOL    HW127453   2.787   5.384   0.866  1.1816  0.3733 -2.1161
 4011SOL    HW227454   2.835   5.490   0.963 -1.1700  0.0835 -0.5946
 4012SOL     OW27455   0.857   3.628   0.607  0.3481 -0.5128  0.4882
 4012SOL    HW127456   0.771   3.630   0.649 -0.2595  0.2465 -0.7471
 4012SOL    HW227457   0.910   3.688   0.660 -0.8756  1.7531 -0.7484
 4013SOL     OW27458   2.890   2.199   0.551  0.0509 -0.1420  0.3942
 4013SOL    HW127459   2.838   2.119   0.538 -2.6360  1.6128 -0.2024
 4013SOL    HW227460   2.897   2.206   0.647 -1.5415 -0.0066  0.5255
 4014SOL     OW27461   4.120   0.207  11.071  0.0498  0.0741  0.5031
 4014SOL    HW127462   4.193   0.213  11.132 -0.2439 -0.5356  0.9252
 4014SOL    HW227463   4.080   0.294  11.073  0.5338  0.2940  0.5691
 4015SOL     OW27464   3.169   2.398   1.650  0.0709 -0.1174 -0.2751
 4015SOL    HW127465   3.184   2.429   1.561 -1.0982  1.8789  0.1710
 4015SOL    HW227466   3.213   2.463   1.705 -0.8654 -0.2318  0.6387
 4016SOL     OW27467   1.872   5.313   1.662  0.0587  0.1110 -0.6078
 4016SOL    HW127468   1.845   5.270   1.581 -0.6264  0.1864 -0.4262
 4016SOL    HW227469   1.808   5.383   1.675  0.7467  0.7308 -0.5248
 4017SOL     OW27470   3.008   3.304   3.232 -0.0361  0.5700  0.2915
 4017SOL    HW127471   3.047   3.230   3.278  0.6332  0.7791  0.0664
 4017SOL    HW227472   2.975   3.266   3.150  1.7060  0.7859 -0.5511
 4018SOL     OW27473   5.796   1.936   8.518  0.4292 -0.4684  0.4394
 4018SOL    HW127474   5.779   1.965   8.429 -0.4821  0.9695  1.0662
 4018SOL    HW227475   5.728   1.870   8.535 -0.6612  0.7238  0.7633
 4019SOL     OW27476   1.470   1.665  12.468 -0.1406  0.3372  0.3671
 4019SOL    HW127477   1.499   1.739  12.521 -0.1165  1.2173 -0.8506
 4019SOL    HW227478   1.550   1.619  12.445 -0.0537  0.5884  0.1674
 4020SOL     OW27479   5.931   0.274   9.743 -0.0575  0.4792  0.0942
 4020SOL    HW127480   5.886   0.355   9.720 -2.2613 -0.3003  1.5446
 4020SOL    HW227481   5.962   0.239   9.659  2.2687  3.5251 -0.4255
 4021SOL     OW27482   2.793   5.402   3.693 -0.2446 -0.3180 -0.3005
 4021SOL    HW127483   2.744   5.336   3.644 -0.9385 -0.9187  1.1667
 4021SOL    HW227484   2.727   5.444   3.748  0.3969  0.8473 -0.4119
 4022SOL     OW27485   3.552   4.460   1.985 -0.0816 -0.5606 -0.7528
 4022SOL    HW127486   3.467   4.497   2.008 -0.5787 -1.5042 -1.0715
 4022SOL    HW227487   3.613   4.503   2.045 -0.8624 -0.3613 -0.0861
 4023SOL     OW27488   5.192   1.246  11.968 -0.6825 -0.0484 -0.2110
 4023SOL    HW127489   5.146   1.323  11.933  1.0719  0.4138 -1.5878
 4023SOL    HW227490   5.133   1.173  11.950 -2.0629  0.8673  0.4849
 4024SOL     OW27491   5.714   1.095  12.303 -0.0234  0.5601 -0.2484
 4024SOL    HW127492   5.641   1.063  12.356 -0.5103  0.5948 -0.8770
 4024SOL    HW227493   5.672   1.123  12.221  0.6242  1.1397 -0.3812
 4025SOL     OW27494   2.956   3.154   2.624  0.1076  0.3114 -0.3679
 4025SOL    HW127495   3.026   3.169   2.561 -0.3536 -0.0170 -0.9632
 4025SOL    HW227496   2.878   3.190   2.583 -0.6670 -2.0559 -1.0590
 4026SOL     OW27497   4.033   1.978   0.168  0.3441  0.3901 -0.2322
 4026SOL    HW127498   4.121   1.941   0.161  0.7153  1.0036  1.1214
 4026SOL    HW227499   4.017   1.987   0.262 -0.7207  1.3489 -0.4877
 4027SOL     OW27500   5.084   2.317   8.786 -0.0346  0.2713  0.2372
 4027SOL    HW127501   5.124   2.379   8.725 -1.1847  0.9108  0.1069
 4027SOL    HW227502   5.124   2.337   8.871  1.0321 -0.1267 -0.1726
 4028SOL     OW27503   0.071   4.742   9.368  0.5367  0.0094 -0.0197
 4028SOL    HW127504   0.129   4.778   9.435 -0.3975  3.0281 -0.7561
 4028SOL    HW227505   0.112   4.765   9.285 -1.3741  1.6776 -0.5391
 4029SOL     OW27506   2.181   3.583   3.339  0.7931 -0.0900 -0.4135
 4029SOL    HW127507   2.124   3.556   3.267 -1.1822  0.9525  0.7070
 4029SOL    HW227508   2.155   3.527   3.412 -0.1454  1.6154  0.6220
 4030SOL     OW27509   1.805   1.578   1.870 -0.7331  0.3478 -0.3425
 4030SOL    HW127510   1.736   1.514   1.889 -1.5683  1.4875  0.5379
 4030SOL    HW227511   1.758   1.654   1.838  0.2492  0.5786 -1.2680
 4031SOL     OW27512   5.911   5.350   2.503 -0.1561  0.1461 -0.4677
 4031SOL    HW127513   5.902   5.392   2.417  0.8114  0.8124 -0.2409
 4031SOL    HW227514   5.825   5.311   2.519 -1.1587  2.2112 -0.5873
 4032SOL     OW27515   3.937   1.117  11.706 -0.3253 -0.3844  0.0201
 4032SOL    HW127516   3.887   1.067  11.641 -0.1469  0.7080 -0.9793
 4032SOL    HW227517   4.028   1.110  11.676 -0.2654  0.2886  0.0333
 4033SOL     OW27518   2.034   4.823  11.223 -0.3133  0.0547 -0.6213
 4033SOL    HW127519   2.015   4.917  11.231 -1.1543 -0.1853  0.2540
 4033SOL    HW227520   1.983   4.782  11.292  0.9361 -0.9450 -0.2634
 4034SOL     OW27521   2.331   1.045   3.058 -0.2261 -0.3545  0.1991
 4034SOL    HW127522   2.315   0.951   3.054  1.2543 -0.6042 -0.4178
 4034SOL    HW227523   2.307   1.070   3.147 -1.9158 -1.0516 -0.0426
 4035SOL     OW27524   4.530   5.184   2.665  0.0448  0.5813  0.0835
 4035SOL    HW127525   4.585   5.134   2.605 -0.6650  1.4787 -1.3436
 4035SOL    HW227526   4.448   5.197   2.616 -2.2609 -2.4699  2.8675
 4036SOL     OW27527   0.835   1.897   0.975 -0.2209 -0.6798  0.8110
 4036SOL    HW127528   0.903   1.943   0.927 -1.0744 -0.7886 -0.5191
 4036SOL    HW227529   0.758   1.900   0.918 -0.9207 -1.8020  1.6602
 4037SOL     OW27530   3.960   5.694  12.299  0.1093 -0.0013  0.1625
 4037SOL    HW127531   3.918   5.645  12.227 -4.2960 -0.2262  2.6862
 4037SOL    HW227532   3.917   5.779  12.298  1.9280  0.9538  0.9122
 4038SOL     OW27533   3.132   2.458  10.428  0.1690  0.2101  0.3428
 4038SOL    HW127534   3.094   2.474  10.342 -1.0940 -1.3597  0.5965
 4038SOL    HW227535   3.216   2.503  10.425  1.2162 -1.7392 -2.5570
 4039SOL     OW27536   5.564   3.581  11.756  0.2699 -0.3980  0.6661
 4039SOL    HW127537   5.567   3.486  11.765  0.3665 -0.3138  1.6328
 4039SOL    HW227538   5.472   3.604  11.768  0.2755 -0.3593  0.6335
 4040SOL     OW27539   3.095   4.078  12.312  0.8986  0.6710  0.5749
 4040SOL    HW127540   3.144   4.052  12.234  2.5998 -0.8245  2.0910
 4040SOL    HW227541   3.033   4.006  12.326 -1.1746  2.1183 -0.7945
 4041SOL     OW27542   1.653   2.130   4.552 -0.0530  0.5272  0.0323
 4041SOL    HW127543   1.670   2.224   4.541 -0.5075  0.5985 -0.0794
 4041SOL    HW227544   1.718   2.088   4.496 -0.3797  0.8011 -0.5654
 4042SOL     OW27545   1.089   0.258  10.751  0.0770 -0.7714  0.3218
 4042SOL    HW127546   1.007   0.277  10.796  0.0716 -1.8013  0.7622
 4042SOL    HW227547   1.152   0.320  10.789 -0.2770 -0.6266  0.6757
 4043SOL     OW27548   3.865   0.290   3.060  0.6736 -0.2747 -0.3539
 4043SOL    HW127549   3.829   0.268   2.974 -0.2001 -0.3373  0.0180
 4043SOL    HW227550   3.959   0.277   3.051  0.2548 -3.9980 -0.2552
 4044SOL     OW27551   0.715   2.341   9.763  0.2731  0.5602 -0.1105
 4044SOL    HW127552   0.711   2.403   9.690  1.1036  0.6703 -0.0714
 4044SOL    HW227553   0.758   2.390   9.833  0.0556  0.2494  0.2461
 4045SOL     OW27554   4.601   5.756   1.045 -0.5072 -0.5421 -0.3213
 4045SOL    HW127555   4.544   5.824   1.008 -0.1369 -0.5569 -0.9312
 4045SOL    HW227556   4.542   5.695   1.088 -0.8551  0.1185  0.1555
 4046SOL     OW27557   4.490   3.387   0.169  0.4776  0.2184  0.0244
 4046SOL    HW127558   4.538   3.304   0.166 -0.1333 -0.1121 -0.9043
 4046SOL    HW227559   4.505   3.427   0.084 -1.1851 -0.0727 -0.4421
 4047SOL     OW27560   3.990   3.070   8.450  0.0756 -0.2629  0.0835
 4047SOL    HW127561   3.908   3.056   8.401 -1.0202  1.4304  1.3724
 4047SOL    HW227562   3.967   3.048   8.540  1.2542 -0.4706  0.3340
 4048SOL     OW27563   4.987   3.689  10.499  0.0940  0.0504 -0.1953
 4048SOL    HW127564   5.045   3.689  10.575  1.2598 -0.4220 -1.0549
 4048SOL    HW227565   4.994   3.777  10.463  0.6088 -0.1310 -0.5427
 4049SOL     OW27566   2.939   4.411   1.786 -0.9640  0.0986 -0.0023
 4049SOL    HW127567   2.913   4.500   1.810 -1.8218  0.0951 -0.8788
 4049SOL    HW227568   2.976   4.420   1.698 -1.4056 -0.4618 -0.2489
 4050SOL     OW27569   0.514   2.596  11.409  0.0962 -0.3156  0.0181
 4050SOL    HW127570   0.569   2.589  11.331  1.7549 -0.5068  1.1696
 4050SOL    HW227571   0.573   2.576  11.481 -0.9243  1.7822  1.4914
 4051SOL     OW27572   3.883   4.483   9.146  0.6122  0.1637 -0.1873
 4051SOL    HW127573   3.973   4.454   9.139  0.6519  0.2808 -0.1731
 4051SOL    HW227574   3.837   4.410   9.187  0.5269 -0.2339 -0.9715
 4052SOL     OW27575   2.657   3.813   2.303 -0.1416 -0.5134  0.5318
 4052SOL    HW127576   2.709   3.803   2.223 -0.0416 -0.8761  0.6410
 4052SOL    HW227577   2.570   3.780   2.279 -0.2833 -0.0510  0.3941
 4053SOL     OW27578   2.838   3.143   8.467 -0.5676  0.1806  0.2857
 4053SOL    HW127579   2.847   3.111   8.557 -0.3208 -0.6839 -0.0351
 4053SOL    HW227580   2.927   3.140   8.432 -0.7385  0.0348 -0.1387
 4054SOL     OW27581   3.730   1.354   9.634  0.4198  1.0161  0.0082
 4054SOL    HW127582   3.714   1.393   9.720 -1.7445  0.4536 -0.1085
 4054SOL    HW227583   3.754   1.427   9.578 -2.1393  2.0182  0.1467
 4055SOL     OW27584   2.334   5.819   0.812 -0.4923  0.1010  0.8428
 4055SOL    HW127585   2.372   5.878   0.747 -0.6851 -2.0224 -1.2504
 4055SOL    HW227586   2.399   5.815   0.882  1.1832 -0.0791 -0.6949
 4056SOL     OW27587   3.302   0.775   3.112 -0.0907 -0.5508  0.7959
 4056SOL    HW127588   3.384   0.731   3.089  0.2659 -0.3311  1.6472
 4056SOL    HW227589   3.237   0.704   3.114 -0.1026 -0.5926 -0.7530
 4057SOL     OW27590   0.526   3.776   1.880  0.0003 -1.1376 -0.2238
 4057SOL    HW127591   0.603   3.798   1.828 -1.1940 -1.7158 -2.2851
 4057SOL    HW227592   0.486   3.861   1.901 -1.0554 -1.0004 -2.6710
 4058SOL     OW27593   4.147   3.835   8.038  0.0870  0.3995  0.0647
 4058SOL    HW127594   4.193   3.911   8.073  0.5255 -0.1793  0.7760
 4058SOL    HW227595   4.069   3.828   8.092 -1.7253  2.3697 -2.2009
 4059SOL     OW27596   3.008   5.631   8.198  0.1758 -0.4426 -0.1682
 4059SOL    HW127597   2.991   5.629   8.103 -2.2897  1.6362  0.1788
 4059SOL    HW227598   3.101   5.653   8.205  0.5938 -1.4242 -2.0896
 4060SOL     OW27599   1.803   1.189   1.388 -0.7678 -0.9359  0.1393
 4060SOL    HW127600   1.780   1.147   1.472  0.5289 -1.1741  0.3937
 4060SOL    HW227601   1.883   1.238   1.407  0.9145 -2.9265 -1.5107
 4061SOL     OW27602   2.063   5.804  10.454  0.5293 -0.3045  0.3732
 4061SOL    HW127603   2.053   5.733  10.516  0.8249 -0.2633  0.4719
 4061SOL    HW227604   2.120   5.867  10.498 -2.4717  1.6082  1.6581
 4062SOL     OW27605   0.943   2.468   3.020 -0.5705  0.5954 -0.0070
 4062SOL    HW127606   0.982   2.422   2.945 -0.3413 -0.2750  0.6314
 4062SOL    HW227607   1.005   2.538   3.040 -0.1777  0.2665 -0.0590
 4063SOL     OW27608   0.276   0.357  10.559 -0.6657  0.1672 -0.4290
 4063SOL    HW127609   0.239   0.311  10.484  1.4539 -1.5686 -0.4494
 4063SOL    HW227610   0.337   0.420  10.520 -1.7550  1.3335 -0.2818
 4064SOL     OW27611   0.472   5.845  11.440 -0.0507 -0.1254  0.0740
 4064SOL    HW127612   0.468   5.922  11.496 -0.3902 -0.9701  1.2398
 4064SOL    HW227613   0.521   5.873  11.363  0.2570  1.1012  0.7091
 4065SOL     OW27614   5.184   5.856   3.279  0.1988  0.0215 -0.0486
 4065SOL    HW127615   5.097   5.863   3.319  0.5259 -1.6256  1.0316
 4065SOL    HW227616   5.217   5.945   3.278 -1.5735  0.6910 -0.6277
 4066SOL     OW27617   3.843   0.341   8.732 -0.0211  0.1443 -0.1170
 4066SOL    HW127618   3.856   0.376   8.820 -0.7237 -0.6927  0.3236
 4066SOL    HW227619   3.857   0.416   8.674 -1.4164  1.1450  0.8070
 4067SOL     OW27620   1.811   5.884   1.668 -0.1618  0.5902  0.7372
 4067SOL    HW127621   1.832   5.937   1.746 -1.6100  1.4191  0.5817
 4067SOL    HW227622   1.716   5.889   1.660 -0.3264 -2.0378  0.6798
 4068SOL     OW27623   4.871   1.991  10.159 -0.4067 -0.6067  0.1082
 4068SOL    HW127624   4.871   1.896  10.143 -1.7793 -0.8653  1.5625
 4068SOL    HW227625   4.961   2.018  10.139 -0.1336 -2.1181 -0.8327
 4069SOL     OW27626   3.294   2.333   3.588 -0.0696  0.5301 -0.6277
 4069SOL    HW127627   3.373   2.356   3.637  0.6222  0.4905 -1.7303
 4069SOL    HW227628   3.325   2.306   3.502 -1.2400 -0.0621 -0.8770
 4070SOL     OW27629   1.345   5.674   9.082  0.7273 -0.3483  0.1736
 4070SOL    HW127630   1.357   5.767   9.102  1.1451  0.4167 -3.3824
 4070SOL    HW227631   1.427   5.633   9.108  0.7338  0.3366  1.2759
 4071SOL     OW27632   3.032   0.861   9.121  0.1806  0.4046 -0.1175
 4071SOL    HW127633   3.013   0.926   9.189 -2.1963  1.2407 -1.5131
 4071SOL    HW227634   3.045   0.913   9.042  4.6818 -0.4194 -0.0711
 4072SOL     OW27635   1.553   0.862  10.384  0.2356 -0.0177 -0.1256
 4072SOL    HW127636   1.460   0.842  10.377  0.1583 -0.3585  1.5936
 4072SOL    HW227637   1.596   0.776  10.388  0.4341  0.1320  1.1596
 4073SOL     OW27638   5.307   4.183   8.804  0.1919  0.1440  0.1311
 4073SOL    HW127639   5.294   4.244   8.730 -2.1520 -0.3880  0.0591
 4073SOL    HW227640   5.376   4.224   8.857  0.7088  1.3830 -1.4563
 4074SOL     OW27641   4.377   2.280   9.191 -0.1939  0.2133 -0.5565
 4074SOL    HW127642   4.416   2.364   9.218  1.5143 -0.5147 -0.6583
 4074SOL    HW227643   4.422   2.258   9.109 -1.8360  0.0087 -1.4211
 4075SOL     OW27644   1.853   3.825   1.633 -0.2430 -0.0355  0.3109
 4075SOL    HW127645   1.762   3.826   1.603 -0.5324 -0.0689  1.1786
 4075SOL    HW227646   1.883   3.915   1.619 -0.6752  0.1924  0.8348
 4076SOL     OW27647   2.640   4.010   2.582  0.0496  0.1845  0.0350
 4076SOL    HW127648   2.557   4.051   2.556 -0.9416 -1.5740  0.3562
 4076SOL    HW227649   2.665   3.958   2.506  0.1644 -0.3452  0.4358
 4077SOL     OW27650   4.281   4.394   0.798  0.2785 -0.4716 -0.6917
 4077SOL    HW127651   4.241   4.480   0.812  0.8557 -0.0143 -1.7707
 4077SOL    HW227652   4.236   4.336   0.859  0.4599  0.7682  0.6486
 4078SOL     OW27653   0.289   3.302  11.762 -0.4748 -0.1404  0.3868
 4078SOL    HW127654   0.219   3.357  11.729 -1.4965 -0.0017  2.7278
 4078SOL    HW227655   0.298   3.325  11.854  3.5908  0.8255 -0.1272
 4079SOL     OW27656   1.178   2.082  11.137  0.2474  0.0416  0.0768
 4079SOL    HW127657   1.157   1.994  11.169 -1.5013  0.8768  1.2577
 4079SOL    HW227658   1.273   2.090  11.152  0.2446 -1.2530  0.8937
 4080SOL     OW27659   3.541   2.351   0.028  0.1773  0.5930  0.0585
 4080SOL    HW127660   3.562   2.305   0.110 -1.7376  1.6483  1.1885
 4080SOL    HW227661   3.450   2.328   0.010 -0.0208  1.9315 -0.7109
 4081SOL     OW27662   5.477   4.390  10.450  0.1422 -0.3960 -0.4001
 4081SOL    HW127663   5.410   4.455  10.471  0.8150  0.2981 -0.3719
 4081SOL    HW227664   5.485   4.394  10.355  0.7003  0.0989 -0.3428
 4082SOL     OW27665   0.576   3.959  11.273 -0.4684 -0.2332 -0.4069
 4082SOL    HW127666   0.632   3.948  11.196  0.0285  0.3178 -0.1303
 4082SOL    HW227667   0.635   3.945  11.348 -0.6294  0.6287 -0.1098
 4083SOL     OW27668   2.148   1.636  12.438 -0.8029  0.3397 -0.1150
 4083SOL    HW127669   2.193   1.552  12.433 -0.6848  0.4519 -1.0235
 4083SOL    HW227670   2.217   1.702  12.427 -0.9989  0.5383 -0.1863
 4084SOL     OW27671   1.393   1.040   9.747 -0.3058  0.3103  0.2870
 4084SOL    HW127672   1.382   1.029   9.653 -0.1093 -0.2573  0.3286
 4084SOL    HW227673   1.488   1.041   9.760 -0.3060  2.0161  0.2930
 4085SOL     OW27674   1.149   3.660   9.654  0.2993 -0.3071 -0.4020
 4085SOL    HW127675   1.126   3.752   9.661  1.4953 -0.0196 -0.0894
 4085SOL    HW227676   1.176   3.635   9.743  2.0079 -0.3873 -0.9234
 4086SOL     OW27677   3.978   2.413  10.489  0.2387 -0.2586  0.1873
 4086SOL    HW127678   3.913   2.483  10.483 -0.1193 -0.7122 -1.2764
 4086SOL    HW227679   4.056   2.449  10.448  0.4692 -0.2389  0.6381
 4087SOL     OW27680   3.024   4.865  11.828  0.0680  0.4583  0.2471
 4087SOL    HW127681   3.036   4.955  11.797  0.4558  0.3815  0.1668
 4087SOL    HW227682   2.946   4.868  11.883 -1.6608  0.2808 -2.1035
 4088SOL     OW27683   0.730   1.713  12.313 -0.1786 -0.6312  0.9893
 4088SOL    HW127684   0.720   1.669  12.398 -0.2141 -0.3231  1.1488
 4088SOL    HW227685   0.795   1.661  12.267  0.7468 -0.0955  1.6826
 4089SOL     OW27686   3.745   4.362   0.027  0.4060  0.0652  0.3160
 4089SOL    HW127687   3.672   4.393  -0.027  2.2351  0.4465 -1.9727
 4089SOL    HW227688   3.709   4.286   0.074 -1.7931  0.9526  0.1243
 4090SOL     OW27689   5.782   4.425   3.808  0.0668 -0.0133 -0.0456
 4090SOL    HW127690   5.847   4.436   3.740 -1.4449  0.9992 -1.3620
 4090SOL    HW227691   5.750   4.513   3.826 -0.3632 -0.3958  1.1649
 4091SOL     OW27692   4.305   5.322   9.961  0.0621 -0.3149 -0.0185
 4091SOL    HW127693   4.396   5.319   9.931 -0.0693 -0.5292 -0.3980
 4091SOL    HW227694   4.306   5.384  10.034  0.5585 -0.4942  0.1312
 4092SOL     OW27695   0.725   5.498   2.945  0.1084 -0.0877 -0.0360
 4092SOL    HW127696   0.781   5.499   2.867  0.1373  0.4640 -0.0116
 4092SOL    HW227697   0.638   5.524   2.913  0.2309  0.6298  0.1934
 4093SOL     OW27698   0.813   1.441   1.053  0.5775 -0.3095  0.2733
 4093SOL    HW127699   0.832   1.412   1.143  3.7998 -1.0281 -0.5423
 4093SOL    HW227700   0.802   1.536   1.060 -0.2837 -0.4945  1.5824
 4094SOL     OW27701   1.082   1.554  11.207  0.1110 -0.2588  0.4138
 4094SOL    HW127702   1.051   1.522  11.292  0.2767 -0.3497  0.4403
 4094SOL    HW227703   1.028   1.508  11.143 -1.4289  1.3021  0.5153
 4095SOL     OW27704   1.885   1.742   3.968  0.0074 -0.0460 -0.4114
 4095SOL    HW127705   1.885   1.647   3.978  1.8503 -0.2383 -1.8880
 4095SOL    HW227706   1.962   1.771   4.017 -0.2688  0.6316 -0.3727
 4096SOL     OW27707   5.556   5.331   0.628  0.1497 -0.1548  0.6247
 4096SOL    HW127708   5.587   5.322   0.719 -1.3298  1.6891  1.3605
 4096SOL    HW227709   5.478   5.276   0.624  0.2441 -0.2756  0.4681
 4097SOL     OW27710   0.234   0.004   2.638  0.6983  0.2135 -0.0403
 4097SOL    HW127711   0.320  -0.038   2.639  0.6579  0.1421  1.0134
 4097SOL    HW227712   0.247   0.085   2.588  0.9393 -0.6951 -1.4756
 4098SOL     OW27713   2.440   0.104   3.417  0.3657  0.2389  0.1397
 4098SOL    HW127714   2.385   0.129   3.343 -0.1363  2.2525  1.1471
 4098SOL    HW227715   2.506   0.046   3.380 -1.2583 -0.6224 -1.4592
 4099SOL     OW27716   4.457   0.832   2.113  0.3188  0.4717 -0.1949
 4099SOL    HW127717   4.427   0.761   2.057  1.5476  0.7939 -1.2909
 4099SOL    HW227718   4.424   0.810   2.200  1.5982 -1.9844 -0.3050
 4100SOL     OW27719   1.075   5.494  11.076 -0.0387 -0.2899  0.0000
 4100SOL    HW127720   1.162   5.463  11.050 -0.4684 -0.1314 -1.6570
 4100SOL    HW227721   1.026   5.501  10.994 -2.1168 -1.8494  1.0600
 4101SOL     OW27722   3.285   4.608   0.631  0.3285  0.1068 -0.8882
 4101SOL    HW127723   3.238   4.531   0.600 -1.6656  0.6037  0.8383
 4101SOL    HW227724   3.277   4.671   0.559 -0.2653 -0.3633 -1.2342
 4102SOL     OW27725   4.264   3.211   0.184 -0.3559 -0.9223 -0.1054
 4102SOL    HW127726   4.178   3.236   0.220  1.5698  0.0768  4.1356
 4102SOL    HW227727   4.299   3.292   0.147 -0.6045 -0.9762 -0.4616
 4103SOL     OW27728   1.544   0.053  10.921 -0.2215 -0.2030 -0.6050
 4103SOL    HW127729   1.639   0.058  10.924  0.0035 -2.4076 -2.3871
 4103SOL    HW227730   1.519   0.002  10.998  0.0394  0.4447 -0.0956
 4104SOL     OW27731   1.610   1.019  11.629  0.6501 -0.1463  0.2318
 4104SOL    HW127732   1.543   0.952  11.624  0.8520 -0.4745  1.5736
 4104SOL    HW227733   1.687   0.981  11.586  0.3167 -0.2000 -0.3146
 4105SOL     OW27734   0.541   5.081   3.123 -0.0642 -0.1649 -0.8749
 4105SOL    HW127735   0.509   5.039   3.203 -1.6429  1.7644 -0.4220
 4105SOL    HW227736   0.606   5.144   3.153 -0.8217  0.7244 -1.0607
 4106SOL     OW27737   0.259   2.134   2.327  0.5947 -0.5534 -0.5096
 4106SOL    HW127738   0.333   2.088   2.288  0.2450  0.9432 -3.0324
 4106SOL    HW227739   0.293   2.222   2.346  0.0438 -0.4919  0.2033
 4107SOL     OW27740   0.450   0.119  11.688 -0.2924  0.0053  0.3720
 4107SOL    HW127741   0.499   0.195  11.720 -0.0401 -0.0440  0.1057
 4107SOL    HW227742   0.493   0.044  11.729  2.0029 -0.3163 -2.4629
 4108SOL     OW27743   0.950   0.641   8.776 -0.4249  0.0429  0.1009
 4108SOL    HW127744   0.930   0.647   8.682 -0.0652 -2.9089 -0.2197
 4108SOL    HW227745   0.907   0.560   8.804  2.2747 -0.8861  1.7377
 4109SOL     OW27746   0.648   1.353  10.799  0.0614 -0.1316  0.0983
 4109SOL    HW127747   0.560   1.370  10.834  0.8011  3.3084  0.4282
 4109SOL    HW227748   0.647   1.392  10.712  2.3954  3.5259  1.5815
 4110SOL     OW27749   1.212   3.021   1.585  0.0812  0.2535  0.4349
 4110SOL    HW127750   1.196   3.116   1.586  0.6995  0.3768 -0.5978
 4110SOL    HW227751   1.127   2.983   1.567 -0.0015  0.6623 -0.0596
 4111SOL     OW27752   5.188   3.979   9.676 -0.2218  0.0974  0.6598
 4111SOL    HW127753   5.102   3.991   9.635  0.2251  0.5983 -0.1244
 4111SOL    HW227754   5.194   3.884   9.690 -0.2718 -0.1017 -0.6410
 4112SOL     OW27755   5.452   5.089   0.501 -0.6275  0.1909 -0.4708
 4112SOL    HW127756   5.382   5.118   0.443 -1.9760 -1.2553  0.3998
 4112SOL    HW227757   5.522   5.060   0.442 -1.4244  0.0693 -1.3635
 4113SOL     OW27758   0.371   0.009  10.860 -0.5915 -0.2286  0.2136
 4113SOL    HW127759   0.321   0.088  10.839 -0.5367 -0.1464  0.3874
 4113SOL    HW227760   0.332  -0.023  10.941  0.9063  0.9263  1.4234
 4114SOL     OW27761   2.008   5.410   2.763 -0.3620 -0.7468 -0.2827
 4114SOL    HW127762   1.997   5.486   2.821 -0.8698 -0.4102 -0.8215
 4114SOL    HW227763   2.060   5.348   2.815 -0.7504 -0.4195  0.5071
 4115SOL     OW27764   4.250   2.233   9.651  0.6579  0.1075  0.2289
 4115SOL    HW127765   4.333   2.212   9.608  0.3777 -2.7528  0.9510
 4115SOL    HW227766   4.191   2.253   9.578  1.4243 -0.0208 -0.4387
 4116SOL     OW27767   1.604   5.916   2.069 -0.3851 -0.2421  0.0422
 4116SOL    HW127768   1.651   5.837   2.045 -1.2555 -0.5924 -0.5407
 4116SOL    HW227769   1.628   5.931   2.160  2.0286  0.4490 -0.6801
 4117SOL     OW27770   4.449   0.119   8.661 -0.0746 -0.4086 -0.1344
 4117SOL    HW127771   4.536   0.155   8.679 -0.7791  1.1010  0.3028
 4117SOL    HW227772   4.417   0.090   8.747 -1.6375  2.7451  0.3903
 4118SOL     OW27773   0.428   1.323  10.583 -0.0796  0.4482 -0.0365
 4118SOL    HW127774   0.459   1.240  10.621 -0.6285  0.6139  0.7799
 4118SOL    HW227775   0.348   1.299  10.537  0.0159  0.4368 -0.1962
 4119SOL     OW27776   5.574   4.985  11.467 -0.3601  0.5329  0.4079
 4119SOL    HW127777   5.666   5.006  11.481  0.5515 -2.2725 -1.0968
 4119SOL    HW227778   5.561   4.901  11.510 -1.4985 -0.4533 -1.7820
 4120SOL     OW27779   5.745   4.456   9.121  0.3022  0.2944 -0.3628
 4120SOL    HW127780   5.799   4.382   9.095 -0.5023 -0.0601 -1.0245
 4120SOL    HW227781   5.804   4.532   9.116  1.2492 -0.3478  0.7493
 4121SOL     OW27782   5.591   0.502   2.412 -0.8041  0.1831  0.3364
 4121SOL    HW127783   5.652   0.432   2.437  0.7596  0.6568 -1.9265
 4121SOL    HW227784   5.588   0.560   2.488  1.0340 -0.2418  0.7620
 4122SOL     OW27785   5.462   4.360   0.877  0.1829  0.2114  0.2276
 4122SOL    HW127786   5.388   4.347   0.818 -1.3825  1.8625  1.7435
 4122SOL    HW227787   5.436   4.317   0.958  1.6370 -0.6574  0.2626
 4123SOL     OW27788   2.660   4.173  11.491 -0.6100 -0.5717  0.4485
 4123SOL    HW127789   2.679   4.231  11.417  0.2381  1.1657  1.9949
 4123SOL    HW227790   2.733   4.186  11.551  0.3699 -4.4014  0.1686
 4124SOL     OW27791   3.902   5.342   3.360  0.0227 -0.1175 -0.4250
 4124SOL    HW127792   3.933   5.362   3.449 -1.6401  0.6534  0.0084
 4124SOL    HW227793   3.894   5.427   3.318  2.3955 -0.5758 -1.9149
 4125SOL     OW27794   4.236   4.655   9.114  0.5463  0.6757  0.2719
 4125SOL    HW127795   4.225   4.694   9.201 -2.3200  0.4441  0.0562
 4125SOL    HW227796   4.331   4.649   9.103  0.9863  2.2163  2.7028
 4126SOL     OW27797   0.751   4.824   2.460  0.0839 -0.0458 -0.8490
 4126SOL    HW127798   0.703   4.741   2.471 -0.8752  0.3984 -1.5581
 4126SOL    HW227799   0.790   4.817   2.373 -0.0116  0.2583 -0.9162
 4127SOL     OW27800   3.372   2.634  11.081 -0.8110 -0.4035  0.5708
 4127SOL    HW127801   3.400   2.652  11.171  1.5710  3.4436 -0.8178
 4127SOL    HW227802   3.297   2.691  11.067  0.2630  0.7898 -0.5470
 4128SOL     OW27803   4.553   2.353   1.844  0.4695  0.4411 -0.3615
 4128SOL    HW127804   4.601   2.436   1.849 -0.7400  1.2565 -1.7985
 4128SOL    HW227805   4.468   2.377   1.807 -0.0885 -1.3654 -0.2784
 4129SOL     OW27806   5.004   5.727  11.137 -0.3733  0.7769  0.4694
 4129SOL    HW127807   5.028   5.645  11.180  0.2844 -0.1257 -1.5560
 4129SOL    HW227808   4.988   5.788  11.209 -1.7958 -1.3696  2.0339
 4130SOL     OW27809   0.164   0.752   1.482  0.0249 -0.2535  0.1338
 4130SOL    HW127810   0.251   0.759   1.522  0.2081  0.1716 -0.3338
 4130SOL    HW227811   0.125   0.838   1.496 -0.3421 -0.4613  0.3904
 4131SOL     OW27812   3.922   2.319   9.532  0.2182 -0.2087  0.0798
 4131SOL    HW127813   3.942   2.306   9.440  0.6072  0.4062  0.0761
 4131SOL    HW227814   3.840   2.370   9.532  0.7330  0.6376  0.0593
 4132SOL     OW27815   3.363   3.184   7.617  0.5438  0.2915 -0.4022
 4132SOL    HW127816   3.430   3.138   7.668  1.4298  1.7739 -0.1824
 4132SOL    HW227817   3.383   3.161   7.526  1.3643  0.7195 -0.3386
 4133SOL     OW27818   4.057   1.918   3.127 -0.1861 -0.3678  0.1667
 4133SOL    HW127819   4.038   1.825   3.114 -0.1086 -0.4397  0.5395
 4133SOL    HW227820   4.110   1.920   3.207 -0.4328  0.0245  0.3215
 4134SOL     OW27821   1.426   4.305   7.865 -0.1766  0.3349  0.2981
 4134SOL    HW127822   1.377   4.386   7.878  0.5329  0.9545 -0.8008
 4134SOL    HW227823   1.510   4.322   7.908 -0.7492 -0.5755  1.8328
 4135SOL     OW27824   0.011   3.938  11.859  0.1873  0.6054 -0.6375
 4135SOL    HW127825  -0.045   4.013  11.878 -0.0725 -0.2913  2.5683
 4135SOL    HW227826   0.100   3.971  11.867  0.0717  0.7628  0.0907
 4136SOL     OW27827   0.544   2.502   1.836 -0.3035  0.3850  0.1349
 4136SOL    HW127828   0.483   2.502   1.910  0.0420  0.2132  0.4226
 4136SOL    HW227829   0.492   2.534   1.762 -0.5884  0.8016  0.5068
 4137SOL     OW27830   3.273   2.588  12.088  0.1379  0.3611 -0.4190
 4137SOL    HW127831   3.224   2.565  12.167 -0.4553  1.0782 -0.5708
 4137SOL    HW227832   3.277   2.684  12.089 -0.2741  0.4000 -1.4862
 4138SOL     OW27833   0.790   0.630   3.739 -0.0038  0.8475  0.2707
 4138SOL    HW127834   0.851   0.557   3.726  2.6677  2.9596  0.4589
 4138SOL    HW227835   0.744   0.638   3.655  0.7222 -0.1199 -0.2331
 4139SOL     OW27836   0.216   0.047   1.412  0.3724 -0.3183 -0.2903
 4139SOL    HW127837   0.286  -0.011   1.383 -0.8004 -0.7560 -2.3336
 4139SOL    HW227838   0.189   0.094   1.333 -0.6960  0.8499  0.7430
 4140SOL     OW27839   3.045   3.158   9.594  0.4570 -0.3282 -0.0734
 4140SOL    HW127840   3.030   3.231   9.654 -3.9459 -2.1323  1.2447
 4140SOL    HW227841   3.083   3.089   9.649  0.6187 -0.4962 -0.3916
 4141SOL     OW27842   1.599   2.680   8.903  0.2123  0.5241 -0.3167
 4141SOL    HW127843   1.567   2.755   8.853 -1.1192  0.4775  0.4641
 4141SOL    HW227844   1.551   2.605   8.868 -0.0798  0.3577  0.4332
 4142SOL     OW27845   3.496   4.213   0.872 -0.0462  0.2413 -0.4451
 4142SOL    HW127846   3.458   4.171   0.795 -0.7600  2.2480 -1.2209
 4142SOL    HW227847   3.550   4.283   0.837  0.5158  0.4740  0.8483
 4143SOL     OW27848   0.159   5.897  12.398  0.0874 -0.0193  0.7845
 4143SOL    HW127849   0.244   5.938  12.383 -0.1585  0.1160 -0.3546
 4143SOL    HW227850   0.127   5.934  12.480  1.1713 -0.1461  1.2697
 4144SOL     OW27851   0.999   3.223   1.800 -0.1652 -0.1255  0.4534
 4144SOL    HW127852   1.038   3.259   1.720 -1.0887  0.9634  0.4858
 4144SOL    HW227853   1.005   3.295   1.863 -0.8798 -0.4603  0.8966
 4145SOL     OW27854   5.180   5.125   1.388 -0.3517 -0.3967 -0.4280
 4145SOL    HW127855   5.173   5.135   1.294 -0.1561 -1.0669 -0.5196
 4145SOL    HW227856   5.091   5.140   1.420 -0.4560 -0.3514 -0.7359
 4146SOL     OW27857   3.862   1.752   0.470 -0.0104 -0.4673 -0.7362
 4146SOL    HW127858   3.938   1.732   0.526 -1.8475 -1.3066  1.5775
 4146SOL    HW227859   3.870   1.691   0.397  0.9164 -1.3800  0.0942
 4147SOL     OW27860   5.895   4.166   3.917  0.2085  0.5162 -0.2550
 4147SOL    HW127861   5.803   4.174   3.892  0.2095  0.5626 -0.2485
 4147SOL    HW227862   5.926   4.257   3.921  0.2681  0.4997 -0.3092
 4148SOL     OW27863   2.979   2.216  12.070  0.4708  0.7558 -0.0734
 4148SOL    HW127864   2.942   2.239  11.985 -0.4773  0.6995  0.3195
 4148SOL    HW227865   2.922   2.259  12.133  1.2524  0.9064  0.5334
 4149SOL     OW27866   5.355   3.090  11.522  0.0490  0.4401  0.4589
 4149SOL    HW127867   5.441   3.099  11.482 -1.5209  0.7075 -3.0057
 4149SOL    HW227868   5.329   2.999  11.503 -1.1082  0.8428  0.0694
 4150SOL     OW27869   5.742   1.612  11.437  0.4374 -0.3099  0.0288
 4150SOL    HW127870   5.826   1.653  11.418  0.6580 -0.8605 -0.1927
 4150SOL    HW227871   5.678   1.683  11.428  0.6490 -0.3135 -1.7672
 4151SOL     OW27872   5.900   2.485  12.199  0.0191  0.3119 -0.3356
 4151SOL    HW127873   5.948   2.560  12.163  0.8628  1.0191  2.2017
 4151SOL    HW227874   5.817   2.522  12.230 -0.4028 -0.1660 -0.8708
 4152SOL     OW27875   2.653   3.822   9.878  0.6816 -0.6597 -0.5609
 4152SOL    HW127876   2.713   3.748   9.874 -0.4011 -1.6129  0.2722
 4152SOL    HW227877   2.690   3.879   9.944  1.1734 -0.7783 -0.7285
 4153SOL     OW27878   4.811   2.089   7.952 -0.2464  0.1446  0.3179
 4153SOL    HW127879   4.894   2.097   7.904 -0.4281  1.2582  0.1565
 4153SOL    HW227880   4.790   2.179   7.978 -2.8126  0.3189 -2.0702
 4154SOL     OW27881   5.941   3.209   8.874 -0.2084 -0.1394  0.0841
 4154SOL    HW127882   5.873   3.256   8.923  1.6173  1.4474  1.1802
 4154SOL    HW227883   5.893   3.148   8.819 -2.6553  2.5865 -0.9225
 4155SOL     OW27884   1.501   3.330   3.040 -0.8745  0.3247  0.2770
 4155SOL    HW127885   1.427   3.392   3.046 -1.5584 -0.4155 -0.3369
 4155SOL    HW227886   1.487   3.285   2.957  0.1948  0.0706  0.2367
 4156SOL     OW27887   1.261   4.967   9.265 -0.2033  0.8693 -0.1065
 4156SOL    HW127888   1.216   5.031   9.209 -2.3928 -0.0863  0.5029
 4156SOL    HW227889   1.202   4.891   9.266  2.7111 -1.5074 -1.4907
 4157SOL     OW27890   5.529   0.924  12.465  0.1316  0.3978  0.1278
 4157SOL    HW127891   5.448   0.893  12.424  0.2436  1.0040 -0.5695
 4157SOL    HW227892   5.561   0.849  12.514 -0.5980 -0.0001  0.0139
 4158SOL     OW27893   2.404   3.231   2.513 -0.5828 -0.2821 -0.1165
 4158SOL    HW127894   2.470   3.162   2.517  0.1918  0.4540  0.0016
 4158SOL    HW227895   2.333   3.200   2.569 -1.3197 -2.0770 -1.9702
 4159SOL     OW27896   0.177   0.402   1.910  0.7151  0.4940  0.0373
 4159SOL    HW127897   0.205   0.480   1.862  0.1695  2.0224  2.1364
 4159SOL    HW227898   0.082   0.410   1.914  0.7339  0.2628  1.1222
 4160SOL     OW27899   3.079   3.194   1.915  0.1275  0.4950  0.2179
 4160SOL    HW127900   3.149   3.237   1.964  0.1692 -0.0215  0.6166
 4160SOL    HW227901   3.114   3.184   1.827  0.5391  0.2812  0.4024
 4161SOL     OW27902   3.706   5.280   8.638  0.6189  0.6483 -0.3509
 4161SOL    HW127903   3.668   5.221   8.573 -0.9138  1.1849  0.0402
 4161SOL    HW227904   3.639   5.347   8.652  2.3477  2.5416 -0.8409
 4162SOL     OW27905   2.743   5.009   1.864 -0.3228 -0.2042  0.3998
 4162SOL    HW127906   2.823   5.058   1.847 -0.2075 -0.6238 -0.2743
 4162SOL    HW227907   2.700   5.058   1.934  1.8915 -1.5281  2.7664
 4163SOL     OW27908   4.755   0.953  10.062 -0.3577  0.4671  0.3104
 4163SOL    HW127909   4.774   0.865  10.031  1.2044  0.2401  1.8868
 4163SOL    HW227910   4.662   0.950  10.087 -0.0530 -1.0036  1.3014
 4164SOL     OW27911   1.284   3.053  10.188  0.3098  0.0061  0.2560
 4164SOL    HW127912   1.310   2.962  10.174 -0.5530 -0.0047 -1.3648
 4164SOL    HW227913   1.281   3.092  10.101 -1.0070  1.1212  0.7711
 4165SOL     OW27914   2.518   1.798   3.204  0.4436  0.3228 -0.4109
 4165SOL    HW127915   2.459   1.868   3.176  1.4032  0.2094 -2.9030
 4165SOL    HW227916   2.584   1.842   3.257 -0.4072  0.8796  0.1940
 4166SOL     OW27917   2.252   1.266  11.410  0.1955  0.6083  0.3541
 4166SOL    HW127918   2.262   1.190  11.468 -3.1050 -0.4685 -0.3864
 4166SOL    HW227919   2.313   1.249  11.338 -0.1771 -1.1288  0.4146
 4167SOL     OW27920   4.315   3.692   8.920  0.0195  0.4908  0.2898
 4167SOL    HW127921   4.334   3.631   8.992  0.5920 -2.1854 -2.0650
 4167SOL    HW227922   4.224   3.675   8.897  0.4753 -0.2546 -1.0430
 4168SOL     OW27923   4.191   2.371  12.233 -0.3712 -0.2466  0.2970
 4168SOL    HW127924   4.131   2.339  12.165  1.3425 -1.1992 -0.7826
 4168SOL    HW227925   4.264   2.410  12.186  0.1425  0.4367  1.6127
 4169SOL     OW27926   3.442   5.934  11.482  0.4419 -0.4524 -0.7189
 4169SOL    HW127927   3.520   5.927  11.428  1.2402  0.3408  0.2940
 4169SOL    HW227928   3.475   5.948  11.571 -0.8471 -0.0020 -0.2855
 4170SOL     OW27929   3.899   3.251   9.029 -0.3055 -0.7883  0.0055
 4170SOL    HW127930   3.849   3.171   9.015 -1.4047 -0.1672  0.3875
 4170SOL    HW227931   3.863   3.313   8.966  2.5510 -1.4615 -2.4182
 4171SOL     OW27932   0.210   4.313   2.496  0.9681  0.0537  0.6244
 4171SOL    HW127933   0.151   4.237   2.490 -0.4331  1.1357  0.2819
 4171SOL    HW227934   0.275   4.298   2.428  1.4865 -1.4935  1.4391
 4172SOL     OW27935   2.295   0.746   0.881 -0.0621 -0.6647  0.7580
 4172SOL    HW127936   2.376   0.785   0.847 -0.3087 -0.8876 -0.0940
 4172SOL    HW227937   2.236   0.743   0.806 -0.1524 -2.4197  0.8778
 4173SOL     OW27938   0.303   0.064   3.432  0.8293 -0.0001  0.3733
 4173SOL    HW127939   0.311   0.149   3.475  0.9481 -0.1342  0.6150
 4173SOL    HW227940   0.326   0.082   3.340  1.1612  0.1675  0.4863
 4174SOL     OW27941   3.651   4.803   1.651  0.1631 -0.6594 -0.0524
 4174SOL    HW127942   3.573   4.804   1.596  0.5036  0.4160 -0.5124
 4174SOL    HW227943   3.723   4.779   1.592  0.4317 -0.0847  0.0314
 4175SOL     OW27944   0.065   2.046   2.505  0.2381 -0.0700  0.6322
 4175SOL    HW127945   0.008   2.120   2.524  0.6373 -0.1654  2.2425
 4175SOL    HW227946   0.137   2.084   2.454  0.3844  0.6406  1.3566
 4176SOL     OW27947   2.230   0.131  10.235  0.0872  0.5990  0.0613
 4176SOL    HW127948   2.141   0.164  10.220  0.6004  1.4553 -1.2108
 4176SOL    HW227949   2.253   0.164  10.322 -0.5814  0.9774  0.1021
 4177SOL     OW27950   3.583   4.230   9.900 -0.6220  0.4746 -0.3908
 4177SOL    HW127951   3.515   4.274   9.849 -0.3362  1.5748  0.1599
 4177SOL    HW227952   3.536   4.189   9.973 -1.0589 -1.2875 -1.6382
 4178SOL     OW27953   1.908   2.144   2.016 -0.6542  0.2327  0.3604
 4178SOL    HW127954   1.996   2.173   1.992 -1.2725  0.4178 -1.8273
 4178SOL    HW227955   1.921   2.070   2.074  0.9539 -0.5619 -0.9890
 4179SOL     OW27956   3.526   3.575   9.050 -0.0917  0.2389 -0.0754
 4179SOL    HW127957   3.571   3.648   9.007  0.9905 -2.4172 -3.7535
 4179SOL    HW227958   3.446   3.563   8.998 -0.3218 -1.0916  0.5788
 4180SOL     OW27959   4.771   4.638  11.839 -0.0465  0.1838 -0.7080
 4180SOL    HW127960   4.805   4.725  11.861 -0.7610 -0.2994  2.6014
 4180SOL    HW227961   4.843   4.578  11.858 -0.4351 -0.1792 -0.3494
 4181SOL     OW27962   5.353   2.028   1.378 -0.6055 -0.7103  0.5381
 4181SOL    HW127963   5.435   2.034   1.428 -0.8766 -1.1944  1.0350
 4181SOL    HW227964   5.381   1.998   1.291 -0.0034  1.1361  0.0561
 4182SOL     OW27965   2.945   3.643   1.110  0.3337 -0.0982 -0.1313
 4182SOL    HW127966   2.866   3.593   1.087  0.7700 -0.9842  0.2758
 4182SOL    HW227967   3.008   3.620   1.041  0.9648 -1.1330  0.7819
 4183SOL     OW27968   0.176   2.692   9.666 -0.5224  0.2225  0.3620
 4183SOL    HW127969   0.146   2.616   9.616 -0.0590 -0.8051  1.6474
 4183SOL    HW227970   0.271   2.686   9.665 -0.3560  2.4737 -2.1225
 4184SOL     OW27971   1.142   0.350   3.248 -0.3598 -0.3022 -0.3100
 4184SOL    HW127972   1.210   0.291   3.214  0.4010  0.8922 -0.8904
 4184SOL    HW227973   1.182   0.437   3.246 -1.5343  0.2719  0.3792
 4185SOL     OW27974   3.367   0.997  10.645 -0.3086  0.6687 -0.3068
 4185SOL    HW127975   3.350   0.910  10.681 -0.7658  1.0460  0.4216
 4185SOL    HW227976   3.460   1.013  10.665 -0.1851  0.2964 -0.5673
 4186SOL     OW27977   4.218   3.533   1.691  0.5615 -0.2445  0.6964
 4186SOL    HW127978   4.234   3.624   1.665  0.7679 -0.3475  0.4654
 4186SOL    HW227979   4.123   3.525   1.694  0.4935 -0.6267 -1.4080
 4187SOL     OW27980   1.588   4.047   9.478 -0.9365 -0.7173 -0.7973
 4187SOL    HW127981   1.585   3.984   9.551 -0.7450 -1.5133 -1.4597
 4187SOL    HW227982   1.522   4.113   9.501 -1.3523 -1.3142 -0.2278
 4188SOL     OW27983   2.808   4.127   1.248  0.1861 -0.5815  0.2522
 4188SOL    HW127984   2.782   4.036   1.236  1.8155 -0.9226 -0.8049
 4188SOL    HW227985   2.727   4.177   1.239 -0.7471 -1.9264  1.0198
 4189SOL     OW27986   1.383   1.076   1.192 -0.0837  0.0405  0.1178
 4189SOL    HW127987   1.403   1.074   1.286  0.6580  0.3001 -0.0230
 4189SOL    HW227988   1.300   1.030   1.183  0.6734 -1.4511  0.6972
 4190SOL     OW27989   5.095   4.323  12.101  0.3037  0.1290 -0.1523
 4190SOL    HW127990   5.175   4.269  12.096 -0.1749 -0.5218 -1.1515
 4190SOL    HW227991   5.112   4.385  12.171  1.4435 -0.4206  0.0747
 4191SOL     OW27992   2.436   3.462  11.812 -0.2249 -0.1762  0.2769
 4191SOL    HW127993   2.449   3.472  11.717  1.1675  0.3806  0.5116
 4191SOL    HW227994   2.464   3.546  11.848  0.4692 -0.8327  1.2925
 4192SOL     OW27995   0.772   1.527   2.273  0.0689 -0.3203  0.0147
 4192SOL    HW127996   0.847   1.520   2.213 -0.7909  0.5074 -1.1738
 4192SOL    HW227997   0.769   1.620   2.297 -0.2357 -0.4583  0.5269
 4193SOL     OW27998   2.126   0.944   8.185 -0.7569 -0.0001 -0.5323
 4193SOL    HW127999   2.188   0.951   8.258 -2.8089  0.0845  1.2433
 4193SOL    HW228000   2.119   1.033   8.151 -1.6448  0.4487  0.7709
 4194SOL     OW28001   2.326   0.530  11.143 -0.4443  0.1083 -0.3804
 4194SOL    HW128002   2.396   0.531  11.078 -0.2887 -2.2902 -0.2792
 4194SOL    HW228003   2.283   0.446  11.131 -1.3267  0.2378  1.6605
 4195SOL     OW28004   1.442   1.034   1.998  0.1197 -0.6233  0.1555
 4195SOL    HW128005   1.365   0.987   2.029  0.7614 -0.7053  1.7351
 4195SOL    HW228006   1.512   1.006   2.058  1.1181  0.2646 -0.5770
 4196SOL     OW28007   2.487   5.539   3.541 -0.1802  0.1482 -0.2639
 4196SOL    HW128008   2.543   5.617   3.544  0.3186 -0.2334  1.1891
 4196SOL    HW228009   2.483   5.511   3.633 -0.5954 -1.3581 -0.7449
 4197SOL     OW28010   0.736   5.040   2.704 -0.3024 -0.0388  0.1040
 4197SOL    HW128011   0.751   4.978   2.775 -0.6013  0.8338  0.9375
 4197SOL    HW228012   0.742   4.988   2.624  1.6183 -0.7275  0.6967
 4198SOL     OW28013   4.295   5.529  12.222 -0.2986 -0.3821  0.3156
 4198SOL    HW128014   4.279   5.609  12.272 -0.4495 -0.2025 -0.0176
 4198SOL    HW228015   4.338   5.559  12.142 -0.2899 -0.6420  0.2213
 4199SOL     OW28016   2.045   3.779  10.167  0.0262 -0.2698 -0.1865
 4199SOL    HW128017   1.985   3.789  10.241  0.1243 -1.7356  0.1016
 4199SOL    HW228018   2.098   3.859  10.169 -0.6366  0.1561  0.7236
 4200SOL     OW28019   4.204   1.963   2.557 -0.4950 -0.6223  0.0595
 4200SOL    HW128020   4.300   1.956   2.563 -0.4833 -0.8564 -0.4144
 4200SOL    HW228021   4.172   1.908   2.628 -0.3089 -1.8238 -0.7651
 4201SOL     OW28022   5.829   2.292   3.332  0.0759 -0.0077  0.7702
 4201SOL    HW128023   5.863   2.299   3.243  0.3496 -0.8825  0.8061
 4201SOL    HW228024   5.843   2.201   3.356  1.7779  0.6521  2.4155
 4202SOL     OW28025   3.910   2.113  10.451 -0.4740  0.0118 -0.5624
 4202SOL    HW128026   3.949   2.200  10.458 -1.6227  0.3802  1.8381
 4202SOL    HW228027   3.985   2.053  10.452  0.1734  0.8285  1.1317
 4203SOL     OW28028   2.022   5.294   2.441  0.1749  0.4905  0.0634
 4203SOL    HW128029   2.099   5.345   2.416  0.8572 -0.8381 -0.5732
 4203SOL    HW228030   2.055   5.233   2.507 -0.3067 -0.1630 -0.3011
 4204SOL     OW28031   5.880   4.626  10.365 -0.5171  0.2522  0.0510
 4204SOL    HW128032   5.919   4.618  10.452  0.5374  0.6663 -0.3689
 4204SOL    HW228033   5.797   4.672  10.380 -0.5820 -0.1284  0.8948
 4205SOL     OW28034   1.332   5.702   2.061  0.7024  0.2837 -0.2031
 4205SOL    HW128035   1.400   5.726   1.999  1.0612  2.6729  1.0654
 4205SOL    HW228036   1.347   5.758   2.137  0.2062 -2.4787  2.0371
 4206SOL     OW28037   5.403   3.052   1.965 -0.2124 -0.1961 -0.2305
 4206SOL    HW128038   5.384   3.037   2.057  0.6076 -0.5428 -0.1136
 4206SOL    HW228039   5.325   3.021   1.919  0.0141 -1.5084  0.2436
 4207SOL     OW28040   0.662   0.588   0.229  0.1260 -0.1828  0.1165
 4207SOL    HW128041   0.599   0.639   0.280 -0.9180 -0.8674 -0.4719
 4207SOL    HW228042   0.653   0.498   0.260  1.1455 -0.2246  0.3388
 4208SOL     OW28043   2.805   4.358   0.444  0.0912  0.3795  0.1910
 4208SOL    HW128044   2.827   4.429   0.384  1.9214 -0.1341  0.2154
 4208SOL    HW228045   2.821   4.278   0.393 -0.7263 -0.0395  0.5736
 4209SOL     OW28046   0.225   4.774  10.551  0.1141 -0.4066 -0.6575
 4209SOL    HW128047   0.244   4.749  10.460  0.5949  0.5098 -0.8104
 4209SOL    HW228048   0.168   4.704  10.583 -0.3404 -0.5558 -1.7742
 4210SOL     OW28049   1.081   4.992   8.525  0.2391  0.0569 -0.0700
 4210SOL    HW128050   0.989   4.972   8.507 -0.8029  3.2062  1.4025
 4210SOL    HW228051   1.115   5.026   8.443  0.1728 -1.2987 -0.6795
 4211SOL     OW28052   4.237   0.948   9.493  0.3657  0.5195 -0.1789
 4211SOL    HW128053   4.146   0.962   9.466  0.1593  5.4896  2.3975
 4211SOL    HW228054   4.289   0.975   9.418 -0.1965 -2.4358 -1.7010
 4212SOL     OW28055   0.502   4.952   9.562  0.3063 -0.1300 -0.4831
 4212SOL    HW128056   0.416   4.913   9.551  0.0333  0.4097 -0.2647
 4212SOL    HW228057   0.561   4.892   9.516 -0.3928  0.3665 -2.0569
 4213SOL     OW28058   1.672   4.534   4.126  0.3843  0.3123  0.0088
 4213SOL    HW128059   1.732   4.609   4.127  1.8704 -0.8310 -0.9148
 4213SOL    HW228060   1.708   4.473   4.189  0.2688 -0.4385 -0.6398
 4214SOL     OW28061   3.859   3.271   3.784  0.2681 -0.2257  0.4459
 4214SOL    HW128062   3.806   3.230   3.853  1.4613 -2.2744  0.1811
 4214SOL    HW228063   3.948   3.243   3.803  0.6079 -0.8512 -1.9565
 4215SOL     OW28064   2.951   4.915   3.268  0.0707  0.2348  0.2244
 4215SOL    HW128065   2.987   4.849   3.328 -0.8230 -0.5678 -0.1099
 4215SOL    HW228066   2.923   4.865   3.192 -1.7092  0.8444  0.4519
 4216SOL     OW28067   3.963   0.420   9.060 -0.0361 -0.2212 -0.1404
 4216SOL    HW128068   3.911   0.365   9.118  1.4224  0.6046  2.0002
 4216SOL    HW228069   3.901   0.486   9.028 -0.9789 -1.0328 -0.0230
 4217SOL     OW28070   3.127   0.811   8.279  0.1365  0.0826  0.0572
 4217SOL    HW128071   3.053   0.758   8.248 -0.2313  0.1946  0.7300
 4217SOL    HW228072   3.122   0.805   8.374  1.0967 -0.0414  0.0984
 4218SOL     OW28073   1.358   3.455   3.299  0.3106 -0.1392  1.0010
 4218SOL    HW128074   1.405   3.501   3.368  0.6824  1.7898 -0.4853
 4218SOL    HW228075   1.289   3.516   3.273 -0.7352 -1.4432  0.6545
 4219SOL     OW28076   3.362   4.533  11.436  0.2320 -0.1190 -0.1867
 4219SOL    HW128077   3.306   4.609  11.422 -0.4417 -0.4434  0.7126
 4219SOL    HW228078   3.427   4.562  11.499 -0.7042 -0.6152  1.0231
 4220SOL     OW28079   0.021   2.731  11.384  0.7118  0.0769  0.1005
 4220SOL    HW128080   0.102   2.714  11.434  2.7613  1.0005 -2.7541
 4220SOL    HW228081   0.032   2.820  11.352 -1.0170 -0.1370 -1.1265
 4221SOL     OW28082   1.791   1.505   2.259 -0.2614 -0.0185 -0.7582
 4221SOL    HW128083   1.862   1.541   2.205  0.9351 -1.3901 -0.1485
 4221SOL    HW228084   1.828   1.425   2.297 -1.9156 -0.3929  0.1275
 4222SOL     OW28085   1.401   4.173   3.136  0.6182 -0.1748  0.2843
 4222SOL    HW128086   1.465   4.235   3.100  0.3282 -0.3391 -0.5417
 4222SOL    HW228087   1.415   4.092   3.086 -0.9512  0.1147 -0.6774
 4223SOL     OW28088   2.573   2.789   2.705  0.2798 -0.4373 -0.1890
 4223SOL    HW128089   2.663   2.767   2.682  0.4139 -0.4650  0.3688
 4223SOL    HW228090   2.539   2.711   2.749  0.1468 -0.2369  0.0654
 4224SOL     OW28091   5.456   3.008   8.752 -0.6116 -0.1100 -0.5228
 4224SOL    HW128092   5.480   3.089   8.707 -1.5542  0.4957  0.0397
 4224SOL    HW228093   5.361   3.014   8.762 -0.6772 -1.2743 -0.4511
 4225SOL     OW28094   3.942   2.928   3.098 -0.1092  0.3361 -0.1700
 4225SOL    HW128095   3.995   2.877   3.036  1.1144  0.3495  0.8372
 4225SOL    HW228096   4.004   2.992   3.134 -0.7959  0.2775  1.1187
 4226SOL     OW28097   3.637   5.666   2.779  0.2689 -0.6590 -0.2596
 4226SOL    HW128098   3.591   5.693   2.858 -2.6295  2.8124 -2.9424
 4226SOL    HW228099   3.590   5.589   2.748 -1.5019  0.6531 -0.9530
 4227SOL     OW28100   4.294   4.606   9.625  0.2852  0.2110 -0.1113
 4227SOL    HW128101   4.318   4.689   9.666 -0.3943  1.1145 -1.4963
 4227SOL    HW228102   4.205   4.589   9.656  1.1275 -0.9948  1.6982
 4228SOL     OW28103   4.132   4.219   9.625  0.6738 -0.5978 -0.3851
 4228SOL    HW128104   4.222   4.247   9.639  0.1173 -0.0236  2.1561
 4228SOL    HW228105   4.125   4.135   9.669 -0.7554  0.6363  1.8351
 4229SOL     OW28106   5.819   3.269  11.846  0.6448 -0.1633  0.2175
 4229SOL    HW128107   5.854   3.255  11.934  1.5375 -0.5146 -0.1777
 4229SOL    HW228108   5.873   3.339  11.809 -0.1802  0.4639  0.1981
 4230SOL     OW28109   0.589   3.144   2.029  0.5564  0.3114  0.4942
 4230SOL    HW128110   0.610   3.098   2.110  0.2369 -0.5346  0.0973
 4230SOL    HW228111   0.498   3.171   2.039  1.2528  2.3956  1.4557
 4231SOL     OW28112   3.718   3.483   9.240 -0.7462 -0.6540 -0.2745
 4231SOL    HW128113   3.791   3.455   9.185 -1.3322 -2.3131 -0.2350
 4231SOL    HW228114   3.648   3.505   9.179 -0.5028  0.1360 -0.2804
 4232SOL     OW28115   4.218  -0.005  12.334  0.4218  0.0134 -0.3476
 4232SOL    HW128116   4.205   0.074  12.387 -0.5638 -1.0388  0.9789
 4232SOL    HW228117   4.139  -0.057  12.348  0.5770 -0.7346 -2.0824
 4233SOL     OW28118   5.238   2.480   8.621  0.0738 -0.5668  0.6063
 4233SOL    HW128119   5.273   2.488   8.532  0.0967 -1.2116  0.5505
 4233SOL    HW228120   5.315   2.465   8.676 -0.0583 -1.4222  0.5632
 4234SOL     OW28121   1.375   1.882  10.803 -0.2168  0.6472 -0.0057
 4234SOL    HW128122   1.399   1.973  10.824  1.8730 -0.0327  0.6798
 4234SOL    HW228123   1.285   1.873  10.836 -0.3579  2.3705  0.1585
 4235SOL     OW28124   3.331   2.829   1.554  0.1288 -0.5714  0.0384
 4235SOL    HW128125   3.302   2.897   1.493 -0.6466 -0.0966  0.9218
 4235SOL    HW228126   3.409   2.865   1.595  2.0955 -1.8802 -2.3995
 4236SOL     OW28127   3.991   0.072   9.207 -0.0261 -0.4022 -0.1445
 4236SOL    HW128128   3.929   0.005   9.177  1.1100 -0.3730 -2.6579
 4236SOL    HW228129   4.070   0.023   9.229 -0.4235 -0.2745  1.6032
 4237SOL     OW28130   4.527   2.151   9.000  0.0588 -0.4429 -0.5683
 4237SOL    HW128131   4.566   2.147   8.913  2.3450 -0.0606  0.4043
 4237SOL    HW228132   4.576   2.087   9.052 -0.3785  0.2983  0.7948
 4238SOL     OW28133   4.336   5.921   9.871 -0.0161  0.3782  0.4007
 4238SOL    HW128134   4.359   5.894   9.782  1.8412 -1.2865  1.3321
 4238SOL    HW228135   4.371   6.010   9.878  1.8565 -0.3048  0.1636
 4239SOL     OW28136   1.831   2.311   3.851 -0.3922 -0.0379 -0.2315
 4239SOL    HW128137   1.921   2.279   3.864 -1.0030 -0.7951  2.4516
 4239SOL    HW228138   1.814   2.365   3.927 -2.6998 -1.0022 -0.0260
 4240SOL     OW28139   5.736   4.680   0.702 -0.0882  0.0046 -0.0089
 4240SOL    HW128140   5.758   4.608   0.761 -0.9384 -0.3347 -0.1093
 4240SOL    HW228141   5.689   4.639   0.630 -3.8269  1.1109  1.7060
 4241SOL     OW28142   3.264   2.804   9.775 -0.7923 -0.5172 -0.2626
 4241SOL    HW128143   3.203   2.821   9.847 -1.8081 -0.5063 -1.1353
 4241SOL    HW228144   3.351   2.807   9.817 -1.2871  0.9307  0.6885
 4242SOL     OW28145   3.300   4.613   0.122 -0.0832 -0.0232  0.1224
 4242SOL    HW128146   3.382   4.607   0.171 -0.0978 -1.5533 -0.0238
 4242SOL    HW228147   3.238   4.654   0.183  1.0114  2.0250 -0.0900
 4243SOL     OW28148   3.826   3.942   0.206  0.4411 -0.6184  0.0959
 4243SOL    HW128149   3.747   3.903   0.169 -1.0168  0.2338  2.2113
 4243SOL    HW228150   3.882   3.868   0.226  0.5749 -1.1768 -2.2966
 4244SOL     OW28151   2.408   4.122  11.421 -0.2604 -0.2789  0.2045
 4244SOL    HW128152   2.363   4.175  11.487 -0.8506 -0.0204 -0.3924
 4244SOL    HW228153   2.501   4.141  11.434 -0.4305  0.4534  0.3815
 4245SOL     OW28154   5.090   5.244  11.598  0.0110 -0.5240  0.4200
 4245SOL    HW128155   5.169   5.230  11.547 -0.6078  0.6697 -0.8969
 4245SOL    HW228156   5.122   5.273  11.684  1.0055 -0.5937  0.0809
 4246SOL     OW28157   4.126   3.668   2.882 -0.0053  0.2905  0.6365
 4246SOL    HW128158   4.142   3.747   2.934  0.3903  0.1594  0.7203
 4246SOL    HW228159   4.062   3.619   2.933 -0.5118  0.7159  0.4159
 4247SOL     OW28160   1.756   2.583  12.163 -0.1469 -0.1870  0.0399
 4247SOL    HW128161   1.787   2.600  12.252  0.7801  0.6332 -0.4304
 4247SOL    HW228162   1.768   2.666  12.117 -0.3747 -0.6763 -0.9180
 4248SOL     OW28163   5.301   2.484   8.366 -0.6061  0.3049  0.4802
 4248SOL    HW128164   5.315   2.400   8.323 -2.5794 -0.8853  2.0975
 4248SOL    HW228165   5.251   2.535   8.303 -0.5980 -0.2181  0.0465
 4249SOL     OW28166   3.822   1.491   9.877 -0.4197  0.0442 -0.2141
 4249SOL    HW128167   3.910   1.516   9.850 -0.4775 -0.0804 -0.5207
 4249SOL    HW228168   3.835   1.440   9.957 -0.2990  1.0093  0.3895
 4250SOL     OW28169   1.079   5.882   2.405  0.1374 -0.1669  0.1808
 4250SOL    HW128170   1.012   5.877   2.473 -1.7291  0.9010 -1.5215
 4250SOL    HW228171   1.039   5.841   2.329  1.7225 -0.1996 -0.6660
 4251SOL     OW28172   1.525   4.947   9.449  0.2173  0.2360  0.2456
 4251SOL    HW128173   1.515   4.955   9.354 -0.4733  0.4632  0.3291
 4251SOL    HW228174   1.614   4.915   9.462  0.2709  0.0895 -0.4855
 4252SOL     OW28175   3.045   3.164  12.502  0.3362  0.5952  0.1084
 4252SOL    HW128176   3.022   3.154  12.410  0.1459 -2.0186  0.3855
 4252SOL    HW228177   3.084   3.251  12.508  0.7798  0.6276 -2.5201
 4253SOL     OW28178   5.249   2.035   3.438  0.9291  0.5562  0.5004
 4253SOL    HW128179   5.253   2.018   3.533  1.6566  0.3321  0.4331
 4253SOL    HW228180   5.201   2.117   3.431 -1.0468 -0.5424  0.9449
 4254SOL     OW28181   0.452   1.688   2.979  0.2451  0.0908 -0.2501
 4254SOL    HW128182   0.421   1.775   2.951 -0.3274 -0.0879 -0.1845
 4254SOL    HW228183   0.531   1.673   2.927  0.8522  1.0386  0.3899
 4255SOL     OW28184   1.042   1.169   9.438  0.0229 -0.1140  0.2871
 4255SOL    HW128185   1.109   1.156   9.371  2.5209 -1.0268  2.8452
 4255SOL    HW228186   1.014   1.080   9.462  0.0964  0.1319  1.3300
 4256SOL     OW28187   0.849   5.227   9.594 -0.1818  0.6559 -0.3073
 4256SOL    HW128188   0.864   5.182   9.511 -1.6355 -2.3513  0.9855
 4256SOL    HW228189   0.907   5.182   9.656 -1.2933  0.8933  0.9124
 4257SOL     OW28190   1.516   2.291   1.807 -0.4026 -0.2924  0.1738
 4257SOL    HW128191   1.425   2.267   1.787 -0.3761  0.3591 -0.7873
 4257SOL    HW228192   1.531   2.370   1.756  0.2953  0.3558  1.3740
 4258SOL     OW28193   2.342   4.018  12.294 -0.0693 -0.0812 -0.1230
 4258SOL    HW128194   2.345   4.112  12.278 -2.0965  0.0567  0.1957
 4258SOL    HW228195   2.269   3.986  12.242 -0.0255 -1.3281  0.5520
 4259SOL     OW28196   4.416   2.838  10.838 -0.0418 -0.5800  0.2938
 4259SOL    HW128197   4.409   2.823  10.932 -0.7445 -1.7378  0.0672
 4259SOL    HW228198   4.501   2.881  10.826  1.1909 -2.7182  1.1856
 4260SOL     OW28199   2.237   4.686   9.648 -0.1701 -0.2353  0.3492
 4260SOL    HW128200   2.311   4.629   9.672 -0.2741 -0.9952 -1.0604
 4260SOL    HW228201   2.165   4.655   9.702 -0.1541 -1.2865 -0.2070
 4261SOL     OW28202   2.179   3.909   1.533 -0.3056 -0.0106  0.3169
 4261SOL    HW128203   2.229   3.905   1.615  0.3008  0.9030 -0.0088
 4261SOL    HW228204   2.243   3.891   1.465 -0.5259  0.6750 -0.0717
 4262SOL     OW28205   2.960   1.818  10.015 -0.2866 -0.2753 -0.7776
 4262SOL    HW128206   2.962   1.907  10.052  0.7018  0.1933 -1.9316
 4262SOL    HW228207   3.052   1.793  10.009 -0.6211 -2.1007  1.1969
 4263SOL     OW28208   1.592   3.539   8.452 -0.0990 -0.8468 -0.3575
 4263SOL    HW128209   1.623   3.621   8.414  1.4913 -1.1212  0.2923
 4263SOL    HW228210   1.500   3.555   8.472 -0.5174 -0.1246 -2.6749
 4264SOL     OW28211   0.037   0.565   3.635 -0.0536  0.3308 -0.6976
 4264SOL    HW128212   0.031   0.650   3.679 -1.0696 -0.1894  0.1926
 4264SOL    HW228213  -0.014   0.506   3.691  0.1963 -0.7439 -1.5997
 4265SOL     OW28214   1.014   0.940   2.615 -0.2463  0.3634 -0.3221
 4265SOL    HW128215   0.996   0.969   2.705  0.5955  0.7540 -0.2755
 4265SOL    HW228216   0.927   0.920   2.579 -0.7266  1.6230  0.0921
 4266SOL     OW28217   3.362   2.628   0.330 -0.4276  0.1099 -0.1856
 4266SOL    HW128218   3.423   2.615   0.257 -2.1434  1.1675 -1.8451
 4266SOL    HW228219   3.344   2.539   0.361  1.3396 -0.2724 -0.1543
 4267SOL     OW28220   0.333   2.456   2.009  0.0161  0.1739 -0.7619
 4267SOL    HW128221   0.272   2.382   2.006 -0.3722  0.5285 -1.9272
 4267SOL    HW228222   0.287   2.523   2.060 -0.2009  0.1199 -0.8859
 4268SOL     OW28223   0.384   2.653   2.902  0.0528  0.0773  0.6354
 4268SOL    HW128224   0.375   2.721   2.969  0.9519  1.0178 -0.1872
 4268SOL    HW228225   0.457   2.598   2.932  1.5068  1.4366 -0.3621
 4269SOL     OW28226   5.511   4.260   1.431 -0.8151  0.0519  0.4088
 4269SOL    HW128227   5.471   4.337   1.470  0.5906  0.1605  1.6998
 4269SOL    HW228228   5.508   4.194   1.500 -2.1059 -1.1056 -0.7186
 4270SOL     OW28229   0.538   1.757   0.879 -0.3750  0.0306 -0.0951
 4270SOL    HW128230   0.480   1.820   0.921 -0.4276 -0.7830  1.0806
 4270SOL    HW228231   0.610   1.745   0.941 -0.5427 -1.3224 -0.1439
 4271SOL     OW28232   0.811   2.319   1.901  0.2406  0.0113  0.8807
 4271SOL    HW128233   0.893   2.291   1.861 -0.8097  0.0670 -1.4321
 4271SOL    HW228234   0.789   2.401   1.855 -1.9836 -0.9372  0.1739
 4272SOL     OW28235   1.140   3.281   1.538 -0.1311  0.0803 -0.0616
 4272SOL    HW128236   1.115   3.310   1.451  0.9728 -0.6009 -0.6220
 4272SOL    HW228237   1.119   3.354   1.596  2.3875  1.9504 -1.3896
 4273SOL     OW28238   2.343   3.981   1.885 -0.3440  0.0498 -0.4269
 4273SOL    HW128239   2.296   3.995   1.967  1.2041 -0.5056  0.5865
 4273SOL    HW228240   2.409   4.050   1.883  0.1439 -0.4251 -0.8154
 4274SOL     OW28241   5.376   4.700   8.840  0.4736  0.7633  0.1628
 4274SOL    HW128242   5.298   4.747   8.811 -0.1941 -0.0208  0.6596
 4274SOL    HW228243   5.400   4.743   8.922 -0.7530 -0.4247  1.1581
 4275SOL     OW28244   2.648   5.961   7.596 -0.2889 -0.2506 -0.4140
 4275SOL    HW128245   2.740   5.951   7.622 -0.4750 -0.6821  0.0853
 4275SOL    HW228246   2.632   5.888   7.536 -0.9651 -1.5739  1.3333
 4276SOL     OW28247   0.342   3.378  11.140 -0.0780  0.1754 -0.2931
 4276SOL    HW128248   0.319   3.290  11.172  0.8183  0.1795  0.3822
 4276SOL    HW228249   0.296   3.437  11.200 -0.5413  0.1717 -0.6423
 4277SOL     OW28250   5.325   5.662   9.229 -0.2307 -0.5956 -0.0962
 4277SOL    HW128251   5.232   5.644   9.230 -0.4640  0.5337 -0.0366
 4277SOL    HW228252   5.335   5.737   9.288  0.4097  0.6647 -1.7582
 4278SOL     OW28253   3.231   0.689  12.406 -0.1919  0.3920  0.6340
 4278SOL    HW128254   3.243   0.615  12.466  0.5391  2.3359  2.9702
 4278SOL    HW228255   3.138   0.711  12.414  0.0653  1.1471  1.7046
 4279SOL     OW28256   2.439   0.848  10.274  0.0318 -0.1228 -0.0758
 4279SOL    HW128257   2.414   0.755  10.272  1.7169 -0.5751 -0.7753
 4279SOL    HW228258   2.534   0.848  10.263 -0.0783  1.7536 -1.2936
 4280SOL     OW28259   0.878   5.104   8.175 -0.4185  0.1005 -0.3658
 4280SOL    HW128260   0.925   5.091   8.092 -0.7658  0.2819 -0.5913
 4280SOL    HW228261   0.786   5.088   8.153 -0.4813 -0.1146  0.0464
 4281SOL     OW28262   2.629   5.966  12.116 -0.1317 -0.6101  0.6582
 4281SOL    HW128263   2.703   5.964  12.178 -0.0387 -0.1757  0.5672
 4281SOL    HW228264   2.581   5.885  12.133  2.9809 -3.2468 -2.5041
 4282SOL     OW28265   0.530   0.192   1.181 -0.4263  0.3432  0.3992
 4282SOL    HW128266   0.509   0.161   1.269 -1.0097 -1.1313 -0.2479
 4282SOL    HW228267   0.552   0.113   1.132  0.8035  1.2503 -0.5440
 4283SOL     OW28268   5.449   0.332   1.181  0.3847 -0.0474 -0.3706
 4283SOL    HW128269   5.534   0.294   1.158  0.9331  1.3909 -0.8015
 4283SOL    HW228270   5.466   0.426   1.187 -1.0672  0.1997  0.0700
 4284SOL     OW28271   5.571   2.496   3.466  0.1283 -0.6197 -0.0813
 4284SOL    HW128272   5.487   2.451   3.467 -0.6437  0.7779 -1.0123
 4284SOL    HW228273   5.549   2.589   3.453  1.6898  0.0183  1.5196
 4285SOL     OW28274   1.912   4.110   0.305  0.0088 -0.3048  0.0260
 4285SOL    HW128275   1.864   4.052   0.365  2.2869 -1.2610  0.9716
 4285SOL    HW228276   1.873   4.092   0.219 -1.1565 -1.2404  0.7225
 4286SOL     OW28277   5.178   3.408  11.156 -0.1625  0.2484  0.3462
 4286SOL    HW128278   5.260   3.453  11.175  0.4267 -1.4009  1.8764
 4286SOL    HW228279   5.203   3.318  11.137 -1.4631  0.1602 -1.0533
 4287SOL     OW28280   1.003   2.112   3.940 -0.1254  0.4441 -0.0946
 4287SOL    HW128281   1.024   2.054   4.014  0.9211  0.2212 -0.5588
 4287SOL    HW228282   1.007   2.200   3.977  0.6797  0.3515  0.0491
 4288SOL     OW28283   2.169   2.289   0.639 -0.4157  0.7037  0.8668
 4288SOL    HW128284   2.157   2.309   0.546  0.8320  1.2896  0.8185
 4288SOL    HW228285   2.170   2.194   0.644  0.1550  0.6686  0.1769
 4289SOL     OW28286   3.007   5.046   8.140 -0.2755 -0.2187 -0.0226
 4289SOL    HW128287   2.912   5.037   8.139 -0.2548 -0.3055 -2.7320
 4289SOL    HW228288   3.037   5.005   8.059  2.0109  0.5888  0.3593
 4290SOL     OW28289   4.381   0.273   3.174 -0.3528  0.2589  0.1062
 4290SOL    HW128290   4.374   0.349   3.116  0.8359 -0.2419 -0.7142
 4290SOL    HW228291   4.464   0.231   3.149  0.5565  0.4574  2.6733
 4291SOL     OW28292   1.145   0.662   0.899 -0.6429 -0.0365  0.2468
 4291SOL    HW128293   1.061   0.657   0.946  0.3403  2.9149  2.4225
 4291SOL    HW228294   1.140   0.743   0.849  1.2808  0.6951  1.1854
 4292SOL     OW28295   1.897   4.115   2.442 -0.5078  0.4747  0.2155
 4292SOL    HW128296   1.951   4.081   2.513 -0.6621  0.2347  0.2210
 4292SOL    HW228297   1.958   4.125   2.369 -0.5029 -0.0469  0.1401
 4293SOL     OW28298   2.343   3.344   9.182  0.5947  0.3918 -0.8106
 4293SOL    HW128299   2.252   3.344   9.151  1.0437 -0.8883 -2.1918
 4293SOL    HW228300   2.336   3.319   9.275 -0.4645  0.1689 -0.9364
 4294SOL     OW28301   4.579   4.704  11.359 -0.0031  0.0384  0.1933
 4294SOL    HW128302   4.642   4.669  11.297 -0.8257  1.2884 -1.3688
 4294SOL    HW228303   4.618   4.685  11.445  1.2936 -1.4034 -0.6774
 4295SOL     OW28304   5.867   3.663   8.423 -0.5485  0.2922 -0.1747
 4295SOL    HW128305   5.883   3.569   8.437  1.0495  0.7308  1.0546
 4295SOL    HW228306   5.918   3.685   8.345 -0.1788  0.3459  0.0827
 4296SOL     OW28307   4.808   1.345   2.010 -0.0648  0.0840  0.4008
 4296SOL    HW128308   4.718   1.311   2.014 -0.1374  0.3297  0.9747
 4296SOL    HW228309   4.817   1.380   1.922 -0.5158 -0.0009  0.3184
 4297SOL     OW28310   5.531   3.301   9.739 -0.0140 -0.2447 -0.5626
 4297SOL    HW128311   5.593   3.349   9.794 -2.2712  0.7349  1.2297
 4297SOL    HW228312   5.450   3.300   9.791 -1.2266 -2.2797 -2.4357
 4298SOL     OW28313   2.266   2.548   7.990 -0.2584 -0.0698  0.1863
 4298SOL    HW128314   2.327   2.612   8.026 -0.3766  0.1739 -0.0473
 4298SOL    HW228315   2.282   2.469   8.041  0.2149  0.0083  0.1662
 4299SOL     OW28316   0.994   3.601   2.916 -0.1831  0.2405 -0.0868
 4299SOL    HW128317   1.037   3.538   2.857  0.6038  2.2233 -1.6687
 4299SOL    HW228318   0.902   3.594   2.894 -0.4381 -2.2026  1.5534
 4300SOL     OW28319   5.273   4.388  11.326 -0.4945  0.4054  0.4594
 4300SOL    HW128320   5.361   4.374  11.360 -0.7583  2.3205  2.0730
 4300SOL    HW228321   5.264   4.325  11.256  0.4880 -3.0194  3.2772
 4301SOL     OW28322   1.168   5.290  10.514  0.2252 -0.7187  0.3050
 4301SOL    HW128323   1.097   5.234  10.545  0.7616 -1.4210  0.2796
 4301SOL    HW228324   1.172   5.362  10.577  1.7084 -2.4398  2.2430
 4302SOL     OW28325   2.615   5.501   0.145 -0.7379  0.0152 -0.0326
 4302SOL    HW128326   2.668   5.580   0.156  0.9746 -1.0221 -0.6836
 4302SOL    HW228327   2.586   5.504   0.054 -2.5027  0.9899  0.5386
 4303SOL     OW28328   4.797   1.443   9.928 -0.4320  0.3790 -0.1925
 4303SOL    HW128329   4.826   1.530   9.901  0.7459 -0.3587 -1.3892
 4303SOL    HW228330   4.701   1.447   9.923 -0.4565  2.0826  1.3391
 4304SOL     OW28331   1.825   5.040   3.710 -0.1711  0.1072  0.0139
 4304SOL    HW128332   1.757   4.994   3.660  0.0795  0.0224 -0.2470
 4304SOL    HW228333   1.876   4.971   3.752 -1.2187  0.2020  1.4992
 4305SOL     OW28334   5.328   1.495  10.345  0.2697  0.4498 -0.6921
 4305SOL    HW128335   5.320   1.466  10.255  1.0791  0.2180 -0.6961
 4305SOL    HW228336   5.244   1.536  10.365 -1.8228 -3.8456  0.0282
 4306SOL     OW28337   4.996   5.153   9.295  0.5466 -0.0333  0.0517
 4306SOL    HW128338   5.088   5.177   9.304  0.7675 -0.2613 -1.4999
 4306SOL    HW228339   4.982   5.145   9.201 -1.4237  1.3853  0.2037
 4307SOL     OW28340   3.296   2.260  12.455  0.6977 -0.1884 -0.7945
 4307SOL    HW128341   3.295   2.174  12.413  0.7701 -0.1395 -0.8994
 4307SOL    HW228342   3.208   2.295  12.440  0.1789 -0.8800  0.5953
 4308SOL     OW28343   1.539   0.909   7.784 -0.4116 -0.1554 -0.4858
 4308SOL    HW128344   1.481   0.878   7.715  1.0350 -2.0355 -0.8863
 4308SOL    HW228345   1.572   0.994   7.752 -2.8848  0.9255 -0.2526
 4309SOL     OW28346   5.236   0.973  10.834  0.0807  0.1981  0.2980
 4309SOL    HW128347   5.200   0.946  10.918  0.7758 -1.3321  0.1099
 4309SOL    HW228348   5.187   0.922  10.769 -0.1535  1.0523 -0.2070
 4310SOL     OW28349   2.902   5.465   1.478  0.4176  0.4625  0.8313
 4310SOL    HW128350   2.941   5.530   1.537  0.5750  1.1477 -0.0107
 4310SOL    HW228351   2.863   5.517   1.408  1.2103 -0.3743 -0.2582
 4311SOL     OW28352   1.624   0.344   1.683 -0.1432  0.0775 -0.4185
 4311SOL    HW128353   1.622   0.292   1.763 -0.9860 -0.2571 -0.6548
 4311SOL    HW228354   1.547   0.316   1.634 -0.2424  1.0784 -0.8498
 4312SOL     OW28355   4.132   4.254   2.276  0.3137 -0.5795 -0.3000
 4312SOL    HW128356   4.163   4.342   2.295 -2.7521  0.9344 -1.8732
 4312SOL    HW228357   4.200   4.215   2.222  1.7245  0.7986  0.4622
 4313SOL     OW28358   1.202   5.300  10.236 -0.3049  0.0847  0.1012
 4313SOL    HW128359   1.277   5.242  10.236  0.6768  1.3318  0.1133
 4313SOL    HW228360   1.161   5.287  10.321  0.1315 -0.2974  0.2500
 4314SOL     OW28361   1.635   0.114   9.142 -0.2014 -0.1301 -0.4897
 4314SOL    HW128362   1.601   0.169   9.213  1.3247 -0.0647  0.2210
 4314SOL    HW228363   1.713   0.073   9.179 -0.0828 -1.0822 -1.7416
 4315SOL     OW28364   5.312   2.638   1.876  0.5756  0.6916 -0.3175
 4315SOL    HW128365   5.269   2.627   1.791  0.2441  0.7015 -0.1542
 4315SOL    HW228366   5.240   2.651   1.937  0.7087 -1.0142  0.2259
 4316SOL     OW28367   3.979   5.268  11.016 -0.0723  0.2291 -0.3447
 4316SOL    HW128368   3.909   5.203  11.011 -0.8363  0.7910  2.4798
 4316SOL    HW228369   4.058   5.219  11.038  0.1329 -0.1921 -1.9371
 4317SOL     OW28370   1.878   0.442   2.820  0.0634 -0.0794 -0.4139
 4317SOL    HW128371   1.907   0.377   2.756  0.0465  0.2637 -0.7700
 4317SOL    HW228372   1.880   0.395   2.904  2.1642  0.0939 -0.3445
 4318SOL     OW28373   5.870   4.159   0.406  0.4266 -0.4051 -0.1738
 4318SOL    HW128374   5.853   4.170   0.312  1.2525 -0.6009 -0.3510
 4318SOL    HW228375   5.884   4.064   0.416 -1.7122 -0.6689  0.4933
 4319SOL     OW28376   4.447   1.677   2.819  0.4562  0.2222  0.2586
 4319SOL    HW128377   4.513   1.732   2.777  0.5789  0.4572  0.7548
 4319SOL    HW228378   4.488   1.591   2.824  1.1413  0.6116  1.5227
 4320SOL     OW28379   3.872   3.036   2.048 -0.2146 -0.1434 -0.2272
 4320SOL    HW128380   3.931   3.107   2.024  0.2270 -0.0243  1.1758
 4320SOL    HW228381   3.909   2.958   2.006  0.7926 -0.0207  0.4304
 4321SOL     OW28382   1.043   2.215   9.039 -0.3014 -0.5451  0.1850
 4321SOL    HW128383   1.087   2.193   8.956 -0.2805  3.5659 -0.9946
 4321SOL    HW228384   1.004   2.133   9.068  0.2778 -2.2278 -3.5494
 4322SOL     OW28385   2.128   3.444   1.372  0.1989 -0.0056 -0.3883
 4322SOL    HW128386   2.168   3.511   1.426 -0.4111  0.2603 -0.2728
 4322SOL    HW228387   2.194   3.374   1.368 -0.3614 -0.7269  2.0004
 4323SOL     OW28388   1.102   0.848   0.064  0.2085 -0.1814 -0.3168
 4323SOL    HW128389   1.165   0.866  -0.006  1.2294  1.3355  0.9450
 4323SOL    HW228390   1.019   0.834   0.019  0.8750  0.6142 -1.8433
 4324SOL     OW28391   3.615   2.264   0.400 -0.1371  0.7328 -0.4245
 4324SOL    HW128392   3.675   2.231   0.334 -0.5470  1.0819 -0.9805
 4324SOL    HW228393   3.669   2.318   0.458  0.5805 -1.0314  0.6133
 4325SOL     OW28394   1.982   4.904   9.252 -0.6264 -0.1159 -0.3820
 4325SOL    HW128395   1.948   4.819   9.279  0.6178 -0.3362  0.5636
 4325SOL    HW228396   2.059   4.918   9.308 -0.4709  1.3599 -0.9303
 4326SOL     OW28397   4.394   3.339  11.030  0.0460  0.1590 -0.2908
 4326SOL    HW128398   4.459   3.322  11.099  1.2704  3.4870 -0.4984
 4326SOL    HW228399   4.442   3.327  10.948 -0.1145  0.7192 -0.4728
 4327SOL     OW28400   5.341   2.576  11.479  0.6475 -0.1414 -0.4929
 4327SOL    HW128401   5.371   2.573  11.388 -0.9677 -0.3747 -1.0327
 4327SOL    HW228402   5.334   2.484  11.504 -0.9248 -0.1316 -0.8306
 4328SOL     OW28403   5.884   3.602   3.810  0.1285 -0.3226 -0.1633
 4328SOL    HW128404   5.816   3.539   3.836  0.5177 -0.7853 -0.2714
 4328SOL    HW228405   5.938   3.555   3.747 -1.6457  1.2381 -2.9305
 4329SOL     OW28406   2.826   0.206   2.614 -0.3063 -0.2932 -0.4494
 4329SOL    HW128407   2.851   0.282   2.667  2.5681 -2.2109  1.0626
 4329SOL    HW228408   2.847   0.231   2.524  2.5653  0.0025  0.2569
 4330SOL     OW28409   4.242   0.793  10.685  0.0451 -0.7857 -0.1303
 4330SOL    HW128410   4.284   0.870  10.646 -0.5155  0.2520  1.2551
 4330SOL    HW228411   4.183   0.761  10.617  1.4102 -0.9249 -1.2794
 4331SOL     OW28412   1.893   3.218   9.713  0.1313 -0.8481  0.0929
 4331SOL    HW128413   1.873   3.283   9.780 -0.3320 -0.8327 -0.0578
 4331SOL    HW228414   1.947   3.153   9.758 -1.3130 -1.5553  0.8584
 4332SOL     OW28415   0.070   1.782   9.126  0.0681 -0.7228  0.0207
 4332SOL    HW128416   0.052   1.835   9.204 -3.8305 -0.4340 -0.9960
 4332SOL    HW228417   0.069   1.844   9.054  0.7895 -1.4280 -0.6116
 4333SOL     OW28418   5.552   1.231   2.906  0.0319  0.1634  0.4340
 4333SOL    HW128419   5.609   1.204   2.979  2.7297  0.9397 -1.3217
 4333SOL    HW228420   5.564   1.162   2.840 -0.5685  0.6689 -0.2030
 4334SOL     OW28421   3.220   5.640   8.809  0.2851 -0.3275  0.6352
 4334SOL    HW128422   3.259   5.700   8.872  1.1075 -1.3323  1.0971
 4334SOL    HW228423   3.284   5.634   8.738  0.6738 -1.4184  1.0580
 4335SOL     OW28424   0.871   5.465   0.826 -0.2356  0.7631  0.2762
 4335SOL    HW128425   0.914   5.496   0.746 -1.1506 -2.1964 -1.4200
 4335SOL    HW228426   0.815   5.538   0.852 -0.7325  1.4100 -2.4030
 4336SOL     OW28427   1.328   4.117   8.144 -0.3280  0.0250  0.0576
 4336SOL    HW128428   1.337   4.181   8.073 -2.9503  0.4843  0.1205
 4336SOL    HW228429   1.260   4.057   8.114 -0.8767 -0.2551  1.8240
 4337SOL     OW28430   1.308   0.475   2.684 -0.2310  0.9665 -0.0546
 4337SOL    HW128431   1.356   0.413   2.738 -0.2692  1.0479  0.0737
 4337SOL    HW228432   1.342   0.461   2.595 -1.3470 -0.3400 -0.2974
 4338SOL     OW28433   2.932  -0.019   1.505  0.0660 -0.4358  0.3513
 4338SOL    HW128434   2.869   0.052   1.497  0.8499  0.2095 -0.2642
 4338SOL    HW228435   2.978  -0.001   1.587  0.2566 -0.2390  0.2022
 4339SOL     OW28436   3.634   1.445   0.892  0.2967  0.2157 -0.0381
 4339SOL    HW128437   3.669   1.412   0.809  0.6632 -0.9480  0.5683
 4339SOL    HW228438   3.660   1.380   0.956 -0.5542  0.7796  0.8904
 4340SOL     OW28439   3.486   2.559   4.011  0.1212  0.0599  0.0181
 4340SOL    HW128440   3.413   2.536   4.069 -0.3181 -0.4910 -0.7442
 4340SOL    HW228441   3.453   2.633   3.959 -0.9198 -1.9133 -2.2457
 4341SOL     OW28442   0.712   1.282  11.392  0.1774 -0.2058 -0.0046
 4341SOL    HW128443   0.628   1.306  11.353 -0.5921 -0.9358  1.1659
 4341SOL    HW228444   0.717   1.187  11.381  0.8647 -0.1617 -0.0964
 4342SOL     OW28445   4.368   2.836  10.175  0.0568 -0.5090  0.0265
 4342SOL    HW128446   4.439   2.774  10.193  0.8703  0.1075 -0.9670
 4342SOL    HW228447   4.397   2.917  10.216 -0.6152 -0.5605  0.6094
 4343SOL     OW28448   4.095   3.976   9.047  0.1110 -0.5234 -0.1412
 4343SOL    HW128449   4.026   3.912   9.062  0.8879 -1.3635 -0.1265
 4343SOL    HW228450   4.087   4.037   9.121 -1.5621  0.2476 -0.9274
 4344SOL     OW28451   2.353   2.886  10.568  0.0434  0.1406  0.2397
 4344SOL    HW128452   2.351   2.820  10.637  0.0211 -0.6413 -0.5095
 4344SOL    HW228453   2.266   2.926  10.570  0.1500  0.3535  0.8795
 4345SOL     OW28454   4.330   3.793   0.610 -0.3752  0.6655 -0.9417
 4345SOL    HW128455   4.235   3.789   0.599 -0.2667  0.7263 -1.9743
 4345SOL    HW228456   4.356   3.703   0.626 -0.5429  0.5653 -1.2293
 4346SOL     OW28457   3.460   1.154   9.275  0.4762  0.2861  0.6171
 4346SOL    HW128458   3.490   1.151   9.365 -0.3584 -2.3436  0.8683
 4346SOL    HW228459   3.418   1.069   9.261 -1.9260  1.7000 -1.3718
 4347SOL     OW28460   2.701   4.357   9.528 -0.5276 -0.1008  0.6954
 4347SOL    HW128461   2.681   4.387   9.617  0.0079  1.9196  0.1617
 4347SOL    HW228462   2.652   4.275   9.519 -1.9950  0.5744  2.2398
 4348SOL     OW28463   0.955   4.828  10.764  0.3839 -0.0853  0.6842
 4348SOL    HW128464   0.892   4.845  10.834  0.3265  3.2247 -0.0875
 4348SOL    HW228465   1.004   4.909  10.756  0.3489 -0.3595 -3.1522
 4349SOL     OW28466   1.723   1.695   0.339  0.1143  0.3409  0.5659
 4349SOL    HW128467   1.734   1.762   0.407 -0.9509  0.0429  1.0448
 4349SOL    HW228468   1.801   1.704   0.284  0.4752  1.2967  1.2099
 4350SOL     OW28469   3.692   5.292   2.835  0.0875 -0.2860 -0.1154
 4350SOL    HW128470   3.606   5.289   2.794 -0.0745 -1.0028  0.2530
 4350SOL    HW228471   3.724   5.202   2.828  1.3226  0.2399 -1.3172
 4351SOL     OW28472   4.933   0.931  12.246  0.4954  0.5169  0.0663
 4351SOL    HW128473   4.865   0.893  12.190 -0.7291  0.7377  1.3602
 4351SOL    HW228474   4.954   1.015  12.206 -2.1589  1.8145  1.2352
 4352SOL     OW28475   2.208   4.222  10.735 -0.1557  0.0599 -0.0468
 4352SOL    HW128476   2.136   4.267  10.690  0.0632  1.1848  0.7314
 4352SOL    HW228477   2.193   4.129  10.715 -3.3183 -0.0179  2.1766
 4353SOL     OW28478   2.586   3.468  12.071 -0.0979  0.0180 -0.2082
 4353SOL    HW128479   2.516   3.449  12.133 -0.2214  0.5527 -0.1777
 4353SOL    HW228480   2.559   3.423  11.990  0.1085 -0.7516  0.1482
 4354SOL     OW28481   4.246   0.841  10.957 -0.0633  0.6844 -0.4216
 4354SOL    HW128482   4.234   0.814  10.866  1.2092  3.1826 -1.3623
 4354SOL    HW228483   4.203   0.926  10.963  0.6726  0.9686  1.0423
 4355SOL     OW28484   2.533   1.832   8.455 -0.1322  0.1207  0.2465
 4355SOL    HW128485   2.504   1.923   8.445  0.3609  0.1420 -1.1203
 4355SOL    HW228486   2.616   1.828   8.407  0.0736 -0.9401  0.6757
 4356SOL     OW28487   3.458   0.083   1.086 -0.0480  0.0729 -0.1646
 4356SOL    HW128488   3.519   0.018   1.051 -0.2734 -0.4527  0.4050
 4356SOL    HW228489   3.488   0.096   1.177  0.2034  1.0131 -0.3718
 4357SOL     OW28490   2.426   2.309   8.968 -0.3390 -0.2210  0.5964
 4357SOL    HW128491   2.376   2.228   8.983 -0.2972 -0.0653  1.6408
 4357SOL    HW228492   2.415   2.359   9.049  1.5988 -0.2352  0.9037
 4358SOL     OW28493   2.694   0.126   3.188  0.3693 -0.5436  0.6667
 4358SOL    HW128494   2.724   0.150   3.275  1.4346  1.0905 -0.1285
 4358SOL    HW228495   2.774   0.125   3.135 -0.6348  1.4223 -0.9405
 4359SOL     OW28496   0.109   4.453   0.703 -0.8011 -0.3837  0.4564
 4359SOL    HW128497   0.153   4.524   0.751 -0.3813 -1.1463  1.2134
 4359SOL    HW228498   0.046   4.498   0.646 -0.1550  0.6295  0.5225
 4360SOL     OW28499   5.927   2.198  11.769 -0.0837 -0.0115  0.0778
 4360SOL    HW128500   5.946   2.274  11.714 -0.0700 -0.2380 -0.2344
 4360SOL    HW228501   5.832   2.193  11.772 -0.0857  0.1509  0.2803
 4361SOL     OW28502   0.384   3.137   2.418  0.2601 -0.4082 -0.5343
 4361SOL    HW128503   0.363   3.161   2.328  1.9780 -0.4609 -0.9657
 4361SOL    HW228504   0.303   3.101   2.453 -0.9360  1.3505 -1.4720
 4362SOL     OW28505   2.686   1.433  11.896  0.5721  0.5072  0.2201
 4362SOL    HW128506   2.768   1.392  11.923  0.2134  0.4123  1.1750
 4362SOL    HW228507   2.683   1.420  11.801 -0.5698 -3.6523  0.7080
 4363SOL     OW28508   1.798   1.946   0.900  0.1158  0.5512 -0.3746
 4363SOL    HW128509   1.888   1.937   0.870  0.4641  1.5621  0.3466
 4363SOL    HW228510   1.777   1.861   0.938  0.8307  0.3830 -0.3491
 4364SOL     OW28511   0.083   5.900   3.590  0.1169 -0.3734  0.3710
 4364SOL    HW128512   0.115   5.881   3.678 -0.2033  1.1048  0.8226
 4364SOL    HW228513   0.162   5.925   3.541 -0.0290  1.1598  0.8989
 4365SOL     OW28514   0.443   2.693   0.585  0.3019  0.4766  0.1412
 4365SOL    HW128515   0.412   2.641   0.659 -0.0827  0.3809 -0.0865
 4365SOL    HW228516   0.386   2.669   0.513  0.6942  0.5482 -0.1981
 4366SOL     OW28517   0.750   3.115   1.802  0.2805  0.1824 -0.3676
 4366SOL    HW128518   0.845   3.129   1.797  0.1895  0.4844 -1.5190
 4366SOL    HW228519   0.729   3.124   1.895  1.5303 -0.8918  0.0350
 4367SOL     OW28520   1.285   2.769   9.159  0.1713 -0.4845 -0.1997
 4367SOL    HW128521   1.300   2.719   9.079  0.7310  1.7839 -1.5431
 4367SOL    HW228522   1.372   2.780   9.197  0.0174 -0.7330  0.2355
 4368SOL     OW28523   3.155   1.042   2.895  0.0093  0.5385 -0.4847
 4368SOL    HW128524   3.226   1.084   2.944  0.4896 -0.5812 -0.1998
 4368SOL    HW228525   3.075   1.070   2.940  0.3810  0.3784  0.2759
 4369SOL     OW28526   0.458   1.336   0.277 -0.2110 -0.2227  0.3254
 4369SOL    HW128527   0.500   1.340   0.191  0.2510 -0.2976  0.5470
 4369SOL    HW228528   0.373   1.296   0.260  0.2525 -1.0947  0.0438
 4370SOL     OW28529   5.850   0.866   9.978 -0.2361 -0.2800  0.3956
 4370SOL    HW128530   5.795   0.931  10.022  1.4200  1.1559  0.4220
 4370SOL    HW228531   5.834   0.880   9.885 -0.3752 -0.2745  0.4179
 4371SOL     OW28532   3.687   3.674  10.877 -0.4934 -0.2103 -0.3899
 4371SOL    HW128533   3.680   3.756  10.924 -2.6848 -2.0799  2.7481
 4371SOL    HW228534   3.779   3.668  10.850 -0.0122  2.5436  0.5658
 4372SOL     OW28535   1.480   5.901   0.555 -0.0119  0.5476  0.6858
 4372SOL    HW128536   1.410   5.951   0.597  0.1345 -0.1705  1.7926
 4372SOL    HW228537   1.531   5.866   0.627 -1.5372 -3.2489  0.0410
 4373SOL     OW28538   5.148   4.471  12.319 -0.6124  0.2366 -0.0170
 4373SOL    HW128539   5.113   4.505  12.402 -0.9295 -0.3175  0.0834
 4373SOL    HW228540   5.186   4.547  12.276  0.8113  0.2818  1.2657
 4374SOL     OW28541   3.989   0.827   0.388 -0.2781  0.4785 -0.3948
 4374SOL    HW128542   3.943   0.750   0.355 -1.0608  0.4494  0.7378
 4374SOL    HW228543   3.920   0.883   0.423  0.4175  1.0576  0.0589
 4375SOL     OW28544   0.016   3.776   2.854  0.0876 -0.9005 -0.4004
 4375SOL    HW128545   0.111   3.790   2.854 -0.2319  1.5197  0.4989
 4375SOL    HW228546  -0.012   3.802   2.766  0.0032  0.3481 -0.0083
 4376SOL     OW28547   3.384   3.429  10.601 -0.2501 -0.7243  0.1491
 4376SOL    HW128548   3.458   3.479  10.636 -0.2032 -0.3771 -0.4484
 4376SOL    HW228549   3.417   3.392  10.519 -0.7835 -0.4667 -0.1809
 4377SOL     OW28550   3.592   5.878   1.907  0.1055 -0.1756  0.3352
 4377SOL    HW128551   3.606   5.928   1.827  0.2046  1.4273  1.3315
 4377SOL    HW228552   3.672   5.891   1.958 -0.0863 -0.9147  0.8299
 4378SOL     OW28553   1.589   2.903   8.198 -0.4479  0.0684 -0.0220
 4378SOL    HW128554   1.622   2.814   8.186  0.4129  0.5219 -1.1818
 4378SOL    HW228555   1.586   2.915   8.292 -1.4210 -1.4968  0.1604
 4379SOL     OW28556   2.394   5.013   2.046  0.2027  0.3474  0.3643
 4379SOL    HW128557   2.422   5.016   2.137  0.7157  0.2754  0.2120
 4379SOL    HW228558   2.466   5.053   1.997 -1.5032  3.5120  0.3118
 4380SOL     OW28559   2.175   0.444   2.756  0.0330  0.2510  0.0946
 4380SOL    HW128560   2.208   0.416   2.670  0.9401  1.4786  0.0392
 4380SOL    HW228561   2.244   0.420   2.817 -0.3377 -0.0328  0.4082
 4381SOL     OW28562   0.210   2.486   3.845  0.3617  0.5362 -0.3834
 4381SOL    HW128563   0.211   2.470   3.750  1.1417  1.9641 -0.6157
 4381SOL    HW228564   0.293   2.450   3.877 -0.2906 -0.7593 -0.0880
 4382SOL     OW28565   1.224   3.892  11.405 -0.5520 -0.0933  0.1326
 4382SOL    HW128566   1.152   3.864  11.461 -1.4728  1.3593 -0.2809
 4382SOL    HW228567   1.230   3.987  11.420  1.3368 -0.1994  0.2309
 4383SOL     OW28568   3.381   0.807   0.424 -0.3109  0.4574 -0.2961
 4383SOL    HW128569   3.425   0.756   0.493 -2.4759 -0.6790  0.2850
 4383SOL    HW228570   3.363   0.892   0.464  2.3466  1.3603 -0.9165
 4384SOL     OW28571   0.967   1.052  10.886 -0.8059 -0.2393  0.3169
 4384SOL    HW128572   0.901   1.094  10.941 -1.7938 -1.2690 -0.0650
 4384SOL    HW228573   0.989   0.971  10.933  0.9743  0.5994  0.9765
 4385SOL     OW28574   0.818   3.579  12.016 -0.4009 -0.2143  0.0224
 4385SOL    HW128575   0.807   3.621  12.101 -0.1147 -0.7948  0.3505
 4385SOL    HW228576   0.840   3.488  12.036  0.9313 -0.0681 -0.6440
 4386SOL     OW28577   4.485   3.333   8.824  0.6550 -0.3612 -0.1064
 4386SOL    HW128578   4.453   3.415   8.786 -0.7257 -0.3898  0.9797
 4386SOL    HW228579   4.543   3.360   8.895  1.2792 -0.3291 -0.6199
 4387SOL     OW28580   3.422   2.236   2.806 -0.0175 -0.3370 -0.3193
 4387SOL    HW128581   3.501   2.226   2.752  0.9773  1.3641  0.7692
 4387SOL    HW228582   3.441   2.185   2.885  0.2150  0.4669  0.1533
 4388SOL     OW28583   5.121   4.417  10.007 -0.0251 -0.1411 -0.0751
 4388SOL    HW128584   5.145   4.327   9.985 -0.5625 -0.0032 -1.2465
 4388SOL    HW228585   5.040   4.433   9.958 -0.1752  0.8290  0.4812
 4389SOL     OW28586   1.388   5.155   9.924 -0.2583 -0.1211 -0.5990
 4389SOL    HW128587   1.474   5.187   9.895 -0.4015  0.2813 -0.5801
 4389SOL    HW228588   1.395   5.150  10.019  0.6522 -2.6803 -0.7509
 4390SOL     OW28589   4.159   0.165   2.785  0.2464  0.3361 -0.4490
 4390SOL    HW128590   4.192   0.255   2.790  1.4000 -0.1398  1.2950
 4390SOL    HW228591   4.185   0.126   2.869  0.9202 -2.0018 -1.6875
 4391SOL     OW28592   0.329   5.549  10.093  0.5379 -0.1926 -0.6616
 4391SOL    HW128593   0.324   5.454  10.107 -0.1076 -0.4955 -2.7364
 4391SOL    HW228594   0.268   5.586  10.156  3.0050 -0.9079  2.2615
 4392SOL     OW28595   4.420   1.472   0.094 -0.0944 -0.5558 -0.5641
 4392SOL    HW128596   4.360   1.423   0.150  0.3317  0.4717  0.8106
 4392SOL    HW228597   4.382   1.464   0.006 -1.6498 -0.8223  0.1086
 4393SOL     OW28598   2.780   1.919   8.382 -0.4170  0.5543 -0.2595
 4393SOL    HW128599   2.753   1.996   8.331  1.7423  1.9856  0.6545
 4393SOL    HW228600   2.876   1.916   8.371 -0.0904 -0.0071  2.4684
 4394SOL     OW28601   0.827   2.413   9.496 -0.2825 -0.1324 -0.4635
 4394SOL    HW128602   0.854   2.503   9.476 -0.1996 -0.2060 -0.6834
 4394SOL    HW228603   0.909   2.367   9.516 -0.2489 -0.3514 -1.1045
 4395SOL     OW28604   0.588   0.598   9.516  0.3188 -0.6046 -0.4247
 4395SOL    HW128605   0.640   0.674   9.492  1.1918 -0.7771  0.8551
 4395SOL    HW228606   0.505   0.634   9.548  0.0843 -0.2743 -1.4022
 4396SOL     OW28607   3.778   3.517   8.421  0.1639  0.2340 -0.1339
 4396SOL    HW128608   3.795   3.556   8.335  1.5858 -1.4035 -0.6136
 4396SOL    HW228609   3.739   3.432   8.401 -0.1387  0.1363  0.8595
 4397SOL     OW28610   3.381   4.023   7.870  0.2140 -0.6767 -0.2154
 4397SOL    HW128611   3.424   3.966   7.806 -0.4868 -2.2643  0.7190
 4397SOL    HW228612   3.413   4.111   7.848 -0.5492 -1.0864 -3.1954
 4398SOL     OW28613   5.150   4.289   1.045  0.1658 -0.0168  0.6373
 4398SOL    HW128614   5.103   4.328   0.971 -1.9576 -0.3437  1.7501
 4398SOL    HW228615   5.107   4.204   1.058  1.5796 -0.6576  1.2415
 4399SOL     OW28616   5.212   2.505   9.433 -0.0375  0.9542 -0.3608
 4399SOL    HW128617   5.287   2.446   9.444 -1.5081 -0.9631 -0.3888
 4399SOL    HW228618   5.232   2.554   9.353  1.2878  0.6406 -0.2411
 4400SOL     OW28619   1.847   0.537   0.969 -0.0996  0.0976  0.2036
 4400SOL    HW128620   1.908   0.469   0.999 -0.1263  0.2390  0.5836
 4400SOL    HW228621   1.760   0.498   0.984 -0.1138  0.1774  0.3344
 4401SOL     OW28622   2.240   1.173   2.819  0.2230 -0.1188 -0.4207
 4401SOL    HW128623   2.286   1.129   2.890 -0.4031 -0.6792 -0.3520
 4401SOL    HW228624   2.303   1.234   2.783  0.7206 -0.2304  0.2640
 4402SOL     OW28625   2.135   4.871   1.627 -0.3462  0.3116 -0.6347
 4402SOL    HW128626   2.230   4.868   1.615  0.2031  2.6887  2.4049
 4402SOL    HW228627   2.119   4.812   1.701 -1.1449  0.4824 -0.6698
 4403SOL     OW28628   1.521   1.745   8.343  0.3688  0.0087  0.0767
 4403SOL    HW128629   1.547   1.805   8.273 -0.1561  0.3084  0.1350
 4403SOL    HW228630   1.428   1.765   8.359 -0.0824 -1.4828 -0.5727
 4404SOL     OW28631   3.618   5.356   9.398  0.2934 -0.0538 -0.1989
 4404SOL    HW128632   3.703   5.326   9.431  0.2809 -1.0109 -0.9899
 4404SOL    HW228633   3.596   5.293   9.329 -2.4326 -1.5633  1.9506
 4405SOL     OW28634   3.315   1.371  12.134  0.1178  0.0894 -0.2735
 4405SOL    HW128635   3.318   1.452  12.185 -0.9859  0.3984 -0.6743
 4405SOL    HW228636   3.373   1.387  12.059  0.2226  0.3570 -0.1345
 4406SOL     OW28637   3.234   4.647   8.677  0.7289  0.0228  0.1312
 4406SOL    HW128638   3.204   4.737   8.689 -1.6827 -0.9143  1.5835
 4406SOL    HW228639   3.175   4.610   8.612  0.5806 -0.9995  0.8248
 4407SOL     OW28640   2.771   3.850  11.337 -1.0989 -0.2562 -0.2964
 4407SOL    HW128641   2.828   3.870  11.411 -1.7001 -2.4445  0.7848
 4407SOL    HW228642   2.806   3.768  11.301 -0.2791  1.2106 -3.0017
 4408SOL     OW28643   0.203   1.635   1.629 -0.0261 -0.1953  0.1188
 4408SOL    HW128644   0.229   1.726   1.613 -2.8166  0.5691 -0.4185
 4408SOL    HW228645   0.173   1.634   1.720 -0.6753 -0.3983 -0.0924
 4409SOL     OW28646   2.682   1.968   1.785  0.3399  0.1652 -0.6088
 4409SOL    HW128647   2.721   1.885   1.813 -0.0933  0.1387 -0.0973
 4409SOL    HW228648   2.757   2.021   1.756  0.6712 -0.1902 -0.3953
 4410SOL     OW28649   0.070   0.255   0.485  0.7345 -0.0534 -0.3764
 4410SOL    HW128650   0.030   0.302   0.412 -1.3960  0.2070  0.8933
 4410SOL    HW228651  -0.004   0.231   0.540  2.3928  1.0295  2.4341
 4411SOL     OW28652   1.388   5.625   3.349 -0.4376 -0.2680 -0.2454
 4411SOL    HW128653   1.329   5.697   3.374 -0.5406 -0.4315 -0.0121
 4411SOL    HW228654   1.466   5.669   3.315  0.0519 -0.0198  1.1669
 4412SOL     OW28655   0.741   5.584   1.109  0.0936 -0.0282  0.0932
 4412SOL    HW128656   0.704   5.499   1.131 -1.0389  0.7912  1.4296
 4412SOL    HW228657   0.775   5.618   1.191 -1.9376  1.9971  0.1515
 4413SOL     OW28658   2.072   3.886   9.453  0.3530 -0.7448 -0.1989
 4413SOL    HW128659   1.994   3.938   9.434  1.0925 -0.1193 -1.6103
 4413SOL    HW228660   2.041   3.817   9.512 -1.0179  0.1779  0.1827
 4414SOL     OW28661   1.020   2.220   8.544  1.0458 -0.1271  0.3704
 4414SOL    HW128662   0.989   2.306   8.514  3.6240  1.2500  1.4656
 4414SOL    HW228663   1.071   2.186   8.471 -0.9239 -1.3142 -0.5121
 4415SOL     OW28664   4.445   5.291   9.589  0.7357 -0.2091  0.2757
 4415SOL    HW128665   4.483   5.277   9.502  0.0879 -0.5275  0.0458
 4415SOL    HW228666   4.407   5.379   9.584  1.1755 -0.0068  0.4149
 4416SOL     OW28667   0.183   5.098  10.341 -0.1742  0.7358 -0.3945
 4416SOL    HW128668   0.197   5.152  10.419 -0.1616 -0.4420  0.4254
 4416SOL    HW228669   0.092   5.071  10.345 -0.5022  1.6285 -1.4195
 4417SOL     OW28670   4.045   5.890   8.578 -0.0503 -0.1420 -0.3146
 4417SOL    HW128671   4.013   5.806   8.546  1.4803 -0.2698 -1.5615
 4417SOL    HW228672   3.967   5.945   8.583 -0.5909 -0.6491 -2.6320
 4418SOL     OW28673   0.610   5.827   1.109 -0.5161 -1.0468 -0.2809
 4418SOL    HW128674   0.658   5.744   1.107  0.1300 -0.6563 -2.1535
 4418SOL    HW228675   0.553   5.823   1.032 -2.6670 -1.0130  1.2802
 4419SOL     OW28676   0.111   2.896   9.834  0.7193 -0.4051 -0.8525
 4419SOL    HW128677   0.175   2.886   9.905 -0.2325 -0.9929 -0.0716
 4419SOL    HW228678   0.119   2.816   9.782  0.0510 -0.8423 -0.2894
 4420SOL     OW28679   3.509   3.178   2.099 -0.2281 -0.2373 -0.7289
 4420SOL    HW128680   3.541   3.259   2.139 -0.4360 -0.7311  0.4439
 4420SOL    HW228681   3.459   3.208   2.022  0.2636  0.7043 -0.6904
 4421SOL     OW28682   1.010   1.921   0.530  0.4437  0.4658 -0.1775
 4421SOL    HW128683   0.992   1.997   0.475 -0.2017  0.4102 -0.0572
 4421SOL    HW228684   0.931   1.911   0.584  1.4186  1.0380  1.3828
 4422SOL     OW28685   4.781   3.346   2.537 -0.4710  0.4627 -0.3041
 4422SOL    HW128686   4.710   3.299   2.491  1.0093 -1.8615 -0.3187
 4422SOL    HW228687   4.774   3.317   2.628  0.9684 -0.4597 -0.4706
 4423SOL     OW28688   1.434   3.639   8.809 -0.6435 -0.3823  0.0469
 4423SOL    HW128689   1.474   3.565   8.763 -1.2435  0.1096 -1.3188
 4423SOL    HW228690   1.441   3.617   8.901  2.2844 -0.5487 -0.1818
 4424SOL     OW28691   1.927   5.632   8.307  0.4117  0.7249  0.2982
 4424SOL    HW128692   1.915   5.609   8.399  0.4369 -0.3138  0.0517
 4424SOL    HW228693   1.838   5.648   8.275  0.4080  1.1548  0.5107
 4425SOL     OW28694   4.880   1.923  12.166  0.1763  0.7291 -0.1937
 4425SOL    HW128695   4.906   1.986  12.234  2.2272 -0.5833  0.2763
 4425SOL    HW228696   4.875   1.840  12.212 -0.3534  0.1479 -1.2848
 4426SOL     OW28697   4.943   0.367   9.208  0.1747  0.1549 -0.1302
 4426SOL    HW128698   4.972   0.445   9.161  1.8206 -0.3924 -0.0682
 4426SOL    HW228699   5.002   0.360   9.283  1.1919 -2.0878 -1.0849
 4427SOL     OW28700   0.536   2.767   9.359  0.2722  0.2525 -0.0599
 4427SOL    HW128701   0.525   2.855   9.394 -1.3311  0.5684 -1.2990
 4427SOL    HW228702   0.611   2.773   9.300  0.1212  0.7981 -0.1980
 4428SOL     OW28703   1.591   1.010  10.999  0.0715 -0.1542 -0.6564
 4428SOL    HW128704   1.670   1.009  10.945  1.2690 -0.2107  1.0481
 4428SOL    HW228705   1.562   0.918  11.001  0.4712 -0.2780 -0.5541
 4429SOL     OW28706   1.937   4.877   3.251  0.1275  0.0118  0.3335
 4429SOL    HW128707   1.844   4.899   3.252 -0.0845 -0.8417 -0.1277
 4429SOL    HW228708   1.951   4.827   3.331  0.4111  0.9817  0.9073
 4430SOL     OW28709   5.447   0.438  10.597 -0.7453 -0.0457 -0.2360
 4430SOL    HW128710   5.404   0.501  10.655 -0.1910  1.0621 -1.0018
 4430SOL    HW228711   5.419   0.352  10.629 -1.0866  0.5736  1.1633
 4431SOL     OW28712   0.490   0.122   9.677  0.4531  0.9359 -0.6651
 4431SOL    HW128713   0.423   0.168   9.727  0.6822  0.6608 -0.1059
 4431SOL    HW228714   0.571   0.168   9.697  0.7451  0.0725  0.1825
 4432SOL     OW28715   2.064   3.302   0.076 -0.5601 -0.2711 -0.4578
 4432SOL    HW128716   2.137   3.265   0.125 -0.5900 -0.3759 -0.4900
 4432SOL    HW228717   2.005   3.337   0.143  0.3473  1.3792 -0.4997
 4433SOL     OW28718   4.812   3.565   9.182 -0.2392  0.4548 -0.6859
 4433SOL    HW128719   4.737   3.517   9.147  0.5976 -0.9087 -0.6745
 4433SOL    HW228720   4.866   3.497   9.223 -0.0448  1.6926  1.1942
 4434SOL     OW28721   1.091   3.942   3.353  0.2938  0.2155  0.0026
 4434SOL    HW128722   1.048   3.865   3.389 -3.2742  1.3729 -1.5980
 4434SOL    HW228723   1.087   4.007   3.422  1.6825 -0.4014  0.6973
 4435SOL     OW28724   0.350   0.662   9.678 -0.3553 -0.5546 -0.0693
 4435SOL    HW128725   0.301   0.727   9.728  0.2156  0.6670 -1.0523
 4435SOL    HW228726   0.354   0.585   9.735 -0.7535  0.3884  1.2561
 4436SOL     OW28727   3.025   0.123  12.498  0.1792  0.0809 -0.3276
 4436SOL    HW128728   3.007   0.043  12.448  0.6879 -0.4465  0.3266
 4436SOL    HW228729   3.039   0.190  12.431 -0.6721 -0.2806 -0.8797
 4437SOL     OW28730   3.374   3.478   2.730 -0.1876 -0.1132 -0.0729
 4437SOL    HW128731   3.363   3.385   2.711  1.7090 -0.5761  0.9960
 4437SOL    HW228732   3.424   3.512   2.655 -1.5583  0.2281 -0.8485
 4438SOL     OW28733   2.900   0.961   0.439  0.2327  0.0921 -0.4642
 4438SOL    HW128734   2.865   1.047   0.415  1.7896  0.7144 -0.5649
 4438SOL    HW228735   2.992   0.978   0.459  0.4734 -1.5087 -0.2008
 4439SOL     OW28736   5.295   4.604   0.905 -0.1914 -0.1711 -0.0548
 4439SOL    HW128737   5.376   4.558   0.882 -1.1146 -1.7232 -0.2937
 4439SOL    HW228738   5.264   4.558   0.983  1.6839  3.5179  3.0618
 4440SOL     OW28739   0.489   3.785   0.521  0.2869 -0.4796 -0.1041
 4440SOL    HW128740   0.485   3.755   0.612  2.1077 -0.5739 -0.0401
 4440SOL    HW228741   0.493   3.880   0.527  1.5724 -0.5402 -0.0489
 4441SOL     OW28742   3.791   2.413   2.988  0.1152 -0.1673  0.0936
 4441SOL    HW128743   3.859   2.347   3.001  0.7418  0.0446 -1.8870
 4441SOL    HW228744   3.834   2.496   3.010 -0.3636 -0.2978  1.5775
 4442SOL     OW28745   0.197   0.385  10.158  0.0622  0.6917 -0.0425
 4442SOL    HW128746   0.219   0.478  10.169 -1.0265  1.1602 -1.6144
 4442SOL    HW228747   0.102   0.385  10.142  0.4423 -0.4765 -2.4843
 4443SOL     OW28748   1.071   1.306   9.706 -0.2242  0.5768  0.1699
 4443SOL    HW128749   1.068   1.290   9.612  0.1228 -1.2352  0.4492
 4443SOL    HW228750   1.069   1.402   9.714 -4.4606  0.7396 -1.5089
 4444SOL     OW28751   1.264   2.898  12.397  0.1947 -0.1732 -0.0430
 4444SOL    HW128752   1.190   2.953  12.371  1.1904  1.4391  0.4303
 4444SOL    HW228753   1.317   2.889  12.317  0.1611 -0.2371 -0.0591
 4445SOL     OW28754   2.942   1.563  12.143 -0.3159 -0.3512  0.1668
 4445SOL    HW128755   3.019   1.619  12.153 -0.1209 -0.7964  1.2441
 4445SOL    HW228756   2.978   1.476  12.128 -0.6181 -0.3081 -0.8171
 4446SOL     OW28757   3.303   0.152   7.651 -0.7274 -0.0714 -0.3348
 4446SOL    HW128758   3.326   0.232   7.604 -1.5056  0.9756  1.0330
 4446SOL    HW228759   3.243   0.181   7.720  0.2565 -1.5953  1.1899
 4447SOL     OW28760   1.564   1.248   0.450  0.4365 -0.3783 -0.0060
 4447SOL    HW128761   1.527   1.175   0.400  0.0835 -0.8268  0.8919
 4447SOL    HW228762   1.487   1.297   0.481  0.6365 -0.3318  0.4213
 4448SOL     OW28763   4.297   0.898   9.028  0.2069  0.0711  0.5195
 4448SOL    HW128764   4.203   0.877   9.027  0.6489 -1.9535 -0.3496
 4448SOL    HW228765   4.306   0.969   8.964 -0.2655 -1.9002 -1.7848
 4449SOL     OW28766   0.911   2.522   9.901  0.2364  0.0593  0.8061
 4449SOL    HW128767   1.004   2.520   9.880  0.1182  0.5907  0.2511
 4449SOL    HW228768   0.869   2.561   9.825 -0.6386 -1.7443  0.3237
 4450SOL     OW28769   0.505   0.563  10.542  0.1430 -0.0767  0.4341
 4450SOL    HW128770   0.442   0.634  10.526 -1.3030 -0.9246  2.1954
 4450SOL    HW228771   0.548   0.587  10.623  1.5797  0.1152 -0.3773
 4451SOL     OW28772   1.863   1.644  11.992 -0.2613  0.0338  0.0102
 4451SOL    HW128773   1.875   1.633  12.087  2.2176  2.4261  0.0444
 4451SOL    HW228774   1.777   1.607  11.974 -0.4357 -1.2095  3.0657
 4452SOL     OW28775   3.688   1.115   0.741 -0.5800 -0.1614 -0.2608
 4452SOL    HW128776   3.721   1.125   0.831 -0.2915 -0.9341 -0.2733
 4452SOL    HW228777   3.593   1.121   0.749 -0.5090  0.6846 -0.0288
 4453SOL     OW28778   0.898   4.554   2.651  0.0286  0.1644 -0.3972
 4453SOL    HW128779   0.981   4.510   2.669  0.3484  1.6790  2.0380
 4453SOL    HW228780   0.921   4.647   2.648 -1.2752  0.4626 -1.5651
 4454SOL     OW28781   4.890   5.754   0.916 -0.0658  0.3314  0.2091
 4454SOL    HW128782   4.866   5.779   0.826 -0.1126 -0.1642  0.0819
 4454SOL    HW228783   4.807   5.749   0.962 -0.2604 -1.6379 -0.2939
 4455SOL     OW28784   1.206   1.682   0.883 -0.5240  0.0842 -0.0449
 4455SOL    HW128785   1.271   1.641   0.826 -1.7579 -0.7703 -0.8531
 4455SOL    HW228786   1.228   1.776   0.879  0.4454 -0.1497 -0.5597
 4456SOL     OW28787   0.608   0.591   1.706 -0.2324 -0.2127 -0.3113
 4456SOL    HW128788   0.608   0.585   1.802  0.4443  0.4811 -0.2632
 4456SOL    HW228789   0.595   0.501   1.677  0.3958 -0.5468  0.4253
 4457SOL     OW28790   2.407   1.154   9.179  0.3212  0.2538  0.8393
 4457SOL    HW128791   2.349   1.199   9.240  1.0664  1.6749  0.5220
 4457SOL    HW228792   2.394   1.061   9.197 -1.7982  0.5691  0.9734
 4458SOL     OW28793   0.042   4.159   1.159  0.5158 -0.4590 -0.0972
 4458SOL    HW128794  -0.046   4.159   1.196  0.9547  0.5396  0.9646
 4458SOL    HW228795   0.035   4.210   1.079  0.0177 -0.8343 -0.2950
 4459SOL     OW28796   4.943   2.841   9.499  0.1252  0.1372  0.0132
 4459SOL    HW128797   4.894   2.792   9.564 -0.2056 -0.7323 -0.8782
 4459SOL    HW228798   4.910   2.809   9.415 -0.4653  2.2366 -0.5933
 4460SOL     OW28799   1.159   2.854   3.473 -0.0445  0.5977 -0.2705
 4460SOL    HW128800   1.144   2.947   3.484 -0.7487  0.4116  0.4081
 4460SOL    HW228801   1.071   2.816   3.466  0.1986 -0.1509  0.6533
 4461SOL     OW28802   2.616   0.532  11.924 -0.2069  0.0419 -0.0380
 4461SOL    HW128803   2.624   0.449  11.973  1.2718 -0.0897 -0.4997
 4461SOL    HW228804   2.567   0.589  11.984 -1.5355 -1.2535  0.1654
 4462SOL     OW28805   4.774   1.045   1.915 -0.2457 -0.3219 -0.6803
 4462SOL    HW128806   4.830   0.967   1.911  2.4301  1.5168 -0.7209
 4462SOL    HW228807   4.749   1.062   1.825 -0.2809 -0.7434 -0.7511
 4463SOL     OW28808   2.647   3.506   1.802  0.0098 -0.5205 -0.0002
 4463SOL    HW128809   2.740   3.489   1.788 -0.1188 -0.6031 -0.7683
 4463SOL    HW228810   2.624   3.456   1.881  1.1895  1.4507  1.6590
 4464SOL     OW28811   1.536   0.806   9.371  0.0081 -0.5634  0.3027
 4464SOL    HW128812   1.513   0.808   9.278 -1.4370 -0.3480  0.6631
 4464SOL    HW228813   1.478   0.740   9.409  0.1592 -0.1992  1.1699
 4465SOL     OW28814   4.115   2.188  10.811  0.0942  0.1987 -0.1978
 4465SOL    HW128815   4.132   2.144  10.728  1.8101 -0.0878  0.2849
 4465SOL    HW228816   4.031   2.153  10.840  0.4264 -1.1641 -0.8535
 4466SOL     OW28817   4.520   3.714  10.873  0.1100 -0.7212  0.1446
 4466SOL    HW128818   4.589   3.689  10.934  0.2500  1.6235  1.0181
 4466SOL    HW228819   4.530   3.654  10.799  2.4940 -1.0194  0.6612
 4467SOL     OW28820   2.161   4.182  11.096 -0.0815 -0.3654  0.4296
 4467SOL    HW128821   2.119   4.250  11.149 -1.1403 -0.8807  0.2856
 4467SOL    HW228822   2.203   4.125  11.161 -2.1062 -1.4841  0.8299
 4468SOL     OW28823   4.561   1.438  11.523 -0.2041  1.1091  0.0360
 4468SOL    HW128824   4.485   1.497  11.528  0.7809  2.5620 -1.6335
 4468SOL    HW228825   4.571   1.419  11.430  0.2904 -0.6911  0.4261
 4469SOL     OW28826   4.489   1.829  11.291  0.2684 -0.0561  0.1415
 4469SOL    HW128827   4.568   1.778  11.271  1.6186  1.4366  1.4669
 4469SOL    HW228828   4.436   1.771  11.346  1.2587 -0.4590  0.6930
 4470SOL     OW28829   3.246   4.348   0.532  0.3794  0.2610  0.0367
 4470SOL    HW128830   3.260   4.385   0.445  0.4416 -1.7017 -0.8248
 4470SOL    HW228831   3.154   4.319   0.531 -0.2606  2.1764  1.3971
 4471SOL     OW28832   0.596   4.072  10.082 -0.2449  0.4036 -0.0620
 4471SOL    HW128833   0.554   4.014  10.019  0.3322  0.5362 -0.5621
 4471SOL    HW228834   0.612   4.017  10.159 -0.8956  0.2329 -0.0439
 4472SOL     OW28835   3.647   3.500   3.734 -0.7273 -0.0246 -0.4242
 4472SOL    HW128836   3.615   3.489   3.824 -0.2058 -0.0248 -0.2403
 4472SOL    HW228837   3.567   3.512   3.682 -0.8853  3.4391  0.5195
 4473SOL     OW28838   1.152   1.386   1.891 -0.8155 -0.0846  0.2018
 4473SOL    HW128839   1.119   1.393   1.802  0.1930 -0.7497 -0.2293
 4473SOL    HW228840   1.206   1.464   1.903 -0.1794 -0.4867 -0.0871
 4474SOL     OW28841   5.861   3.461  10.013  0.3445  0.1573 -0.3276
 4474SOL    HW128842   5.794   3.486   9.949 -0.4946  1.6246  1.0765
 4474SOL    HW228843   5.832   3.377  10.047  0.5809 -0.4401 -1.5693
 4475SOL     OW28844   2.537   1.330   9.395 -0.0643 -0.4944 -0.9427
 4475SOL    HW128845   2.549   1.360   9.305 -1.5683  0.9255 -0.6978
 4475SOL    HW228846   2.443   1.314   9.402 -0.1370  0.4870  0.6936
 4476SOL     OW28847   3.582   4.778   0.050  0.0885 -0.9242  0.4258
 4476SOL    HW128848   3.531   4.740  -0.021  0.5105  0.0056 -0.3985
 4476SOL    HW228849   3.670   4.742   0.038  0.1068 -0.9333  0.5924
 4477SOL     OW28850   0.108   3.044   1.079  0.2743 -0.2116 -0.0910
 4477SOL    HW128851   0.096   3.122   1.133 -0.3555  0.5540 -1.3336
 4477SOL    HW228852   0.203   3.033   1.075  0.3832  0.7017 -0.2096
 4478SOL     OW28853   1.968   0.992   0.772 -0.0069  0.5399 -0.3274
 4478SOL    HW128854   1.978   0.949   0.856 -0.1409  2.6968  0.8314
 4478SOL    HW228855   1.874   1.011   0.766  0.2053  1.6283 -0.3239
 4479SOL     OW28856   2.646   3.671   8.525 -0.0362 -0.2155  0.0854
 4479SOL    HW128857   2.717   3.610   8.547  0.4492  0.6498  0.9673
 4479SOL    HW228858   2.673   3.709   8.441  1.5236  1.5196  1.3239
 4480SOL     OW28859   3.940   1.955  11.835  0.0005 -0.2551 -0.4898
 4480SOL    HW128860   4.002   1.957  11.908 -0.6073  1.2123  0.0236
 4480SOL    HW228861   3.899   1.869  11.840  1.6857 -1.0675 -0.5680
 4481SOL     OW28862   4.661   0.553  11.862 -0.1059  0.8336  0.1132
 4481SOL    HW128863   4.604   0.519  11.931  0.0975 -1.5252 -0.8130
 4481SOL    HW228864   4.613   0.534  11.781  1.4743 -0.1255 -0.6186
 4482SOL     OW28865   4.930   3.595   0.598 -0.0294  0.0462 -0.5459
 4482SOL    HW128866   4.952   3.503   0.580  1.7559  0.1858  0.8372
 4482SOL    HW228867   4.993   3.644   0.545 -2.5408  0.5409 -3.2151
 4483SOL     OW28868   0.483   4.848   0.784 -0.1945  0.1324 -0.2351
 4483SOL    HW128869   0.558   4.874   0.838 -1.5682  1.9897  0.8351
 4483SOL    HW228870   0.440   4.779   0.835  0.7310 -0.9266 -0.8431
 4484SOL     OW28871  -0.002   3.756   1.089 -0.0479  0.3253  0.7911
 4484SOL    HW128872   0.020   3.735   0.998  0.1921 -0.4581  1.0306
 4484SOL    HW228873   0.047   3.837   1.107  0.1927  0.2796  0.3440
 4485SOL     OW28874   0.720   4.468   0.466  0.0615 -0.0231  0.0504
 4485SOL    HW128875   0.795   4.527   0.476 -0.0251  0.1132 -0.0901
 4485SOL    HW228876   0.646   4.518   0.499  0.3062 -0.7934  1.8050
 4486SOL     OW28877   2.746   4.748   2.596 -0.7344 -0.4325  0.5864
 4486SOL    HW128878   2.759   4.653   2.586  2.0113  0.0889 -1.4487
 4486SOL    HW228879   2.752   4.762   2.690  0.6938 -2.0700  0.7820
 4487SOL     OW28880   4.164   1.061   3.073 -0.8737 -0.4235  0.0677
 4487SOL    HW128881   4.191   1.146   3.037 -2.4666 -0.2087 -0.6310
 4487SOL    HW228882   4.224   1.047   3.147  1.4114 -0.1602 -1.6834
 4488SOL     OW28883   3.735   4.443   0.309 -0.6841  0.2472 -0.3166
 4488SOL    HW128884   3.772   4.453   0.221  1.5843  2.2686  0.8049
 4488SOL    HW228885   3.730   4.532   0.343  0.9648 -0.6915  2.5592
 4489SOL     OW28886   0.765   0.362   1.248  0.1172  0.3425  0.9039
 4489SOL    HW128887   0.769   0.284   1.193  0.1837  1.6982 -1.0821
 4489SOL    HW228888   0.672   0.384   1.252 -0.0195 -0.4698  2.3976
 4490SOL     OW28889   2.655   0.604   8.376 -0.5529  0.3920  0.2473
 4490SOL    HW128890   2.621   0.514   8.380 -1.1410  0.5130 -1.5344
 4490SOL    HW228891   2.724   0.606   8.442  0.0892 -1.6622 -0.3030
 4491SOL     OW28892   1.484   3.104   0.869 -0.2100  0.3123  0.2577
 4491SOL    HW128893   1.568   3.128   0.908 -0.3063  0.2819  0.4879
 4491SOL    HW228894   1.507   3.044   0.798  0.0058  0.7797 -0.0701
 4492SOL     OW28895   1.517   2.232  10.081  0.0223  0.2361  0.0290
 4492SOL    HW128896   1.588   2.260  10.024  0.0063 -2.8246 -1.5713
 4492SOL    HW228897   1.560   2.191  10.155 -0.0367  1.3544  0.6994
 4493SOL     OW28898   4.523   5.346  10.578 -0.4741  0.3375  1.1800
 4493SOL    HW128899   4.462   5.280  10.611  0.6609 -1.2287  0.2509
 4493SOL    HW228900   4.481   5.430  10.596 -2.5165 -0.6794  1.2616
 4494SOL     OW28901   5.181   3.805   9.187 -0.1311  0.4394 -0.1779
 4494SOL    HW128902   5.108   3.775   9.241 -0.2014  0.1243 -0.4374
 4494SOL    HW228903   5.195   3.896   9.212  1.0206 -0.2141  1.6756
 4495SOL     OW28904   2.997   3.950   2.505  0.3671  1.0684  0.1346
 4495SOL    HW128905   2.990   4.039   2.539  1.2213  2.0044 -2.0334
 4495SOL    HW228906   2.914   3.909   2.528 -1.0510  3.2107 -0.9246
 4496SOL     OW28907   0.243   5.313  10.626 -0.1171 -0.2140 -0.3341
 4496SOL    HW128908   0.235   5.221  10.654 -1.1588 -0.3358 -1.0181
 4496SOL    HW228909   0.197   5.363  10.692 -0.8684 -0.3252 -0.7672
 4497SOL     OW28910   5.004   1.735   2.201 -0.1473 -0.2233 -0.4520
 4497SOL    HW128911   4.974   1.651   2.236  1.8705 -0.8622 -0.2262
 4497SOL    HW228912   4.995   1.726   2.106  1.6161 -1.3237 -0.5368
 4498SOL     OW28913   2.229   0.060   2.667  0.3446 -0.0700 -0.5868
 4498SOL    HW128914   2.146   0.108   2.668  0.7313  0.6007  1.9889
 4498SOL    HW228915   2.203  -0.032   2.655 -1.0563 -0.2561  3.1475
 4499SOL     OW28916   3.341   5.392   9.832 -0.2989 -0.4392  0.1197
 4499SOL    HW128917   3.401   5.406   9.759 -0.3347 -0.8195  0.0152
 4499SOL    HW228918   3.300   5.477   9.847  1.2415  0.1679  1.0683
 4500SOL     OW28919   1.612   4.568   3.864 -0.4864 -0.0161  0.0738
 4500SOL    HW128920   1.567   4.650   3.883 -1.2558 -0.4663  0.2014
 4500SOL    HW228921   1.654   4.543   3.946  0.5915  0.7649 -0.2256
 4501SOL     OW28922   2.134   2.332   9.182 -0.1102  0.2672  0.4162
 4501SOL    HW128923   2.075   2.275   9.133 -0.0322 -0.3212  0.9902
 4501SOL    HW228924   2.203   2.273   9.214  2.7842  1.4534 -3.2181
 4502SOL     OW28925   2.621   2.709  11.210  0.3261 -0.2537  0.0490
 4502SOL    HW128926   2.674   2.701  11.131  0.9972  0.5158  0.4129
 4502SOL    HW228927   2.533   2.727  11.178  0.4143 -0.8904 -0.5445
 4503SOL     OW28928   4.470   4.866  12.314 -0.6139  0.0973  0.1858
 4503SOL    HW128929   4.549   4.913  12.342 -1.1121  0.3160  1.2091
 4503SOL    HW228930   4.398   4.928  12.330 -0.8208  0.6033 -2.4365
 4504SOL     OW28931   2.106   2.356   8.561  0.3566  0.6479 -0.4103
 4504SOL    HW128932   2.094   2.415   8.636 -3.8721  0.7817 -1.0839
 4504SOL    HW228933   2.088   2.411   8.485 -2.1048 -1.0592 -1.1321
 4505SOL     OW28934   3.636   3.016   0.319  0.5418 -0.1235 -0.6634
 4505SOL    HW128935   3.672   2.930   0.341  0.3402 -0.2871 -0.9673
 4505SOL    HW228936   3.607   3.007   0.228  0.1948  0.1566 -0.5815
 4506SOL     OW28937   1.296   3.548   3.972 -0.5835  0.1470 -0.4925
 4506SOL    HW128938   1.320   3.501   4.052 -1.3473 -0.0915 -0.3990
 4506SOL    HW228939   1.377   3.592   3.945  0.2616 -1.5458 -0.8163
 4507SOL     OW28940   4.361   5.420   9.297 -0.1060  0.0328  0.2378
 4507SOL    HW128941   4.367   5.325   9.281 -1.4814 -0.1748  0.8468
 4507SOL    HW228942   4.271   5.442   9.274  0.1341  1.1473  0.3592
 4508SOL     OW28943   3.787   1.989   9.466 -0.0899 -0.4096  0.1656
 4508SOL    HW128944   3.693   2.003   9.452 -0.2897 -1.6244  0.1826
 4508SOL    HW228945   3.830   2.043   9.400 -0.7367  1.6202  1.3769
 4509SOL     OW28946   0.611   2.559   2.399  0.3364  0.0222 -0.2977
 4509SOL    HW128947   0.540   2.495   2.398  0.3629 -0.0280  1.0137
 4509SOL    HW228948   0.591   2.617   2.472 -0.0910  1.9894 -1.9140
 4510SOL     OW28949   1.149   0.905   0.786  0.1008  0.3820 -0.5798
 4510SOL    HW128950   1.233   0.919   0.742 -0.1079 -2.3688 -1.9347
 4510SOL    HW228951   1.097   0.982   0.763  2.1490  2.0674  0.1627
 4511SOL     OW28952   5.878   0.533   8.073  0.8365 -0.7725  0.0251
 4511SOL    HW128953   5.825   0.606   8.104  1.8381  0.5814 -1.3252
 4511SOL    HW228954   5.946   0.523   8.140  1.1245  0.0265 -0.1377
 4512SOL     OW28955   2.979   0.797   3.459 -0.9117  0.0031  0.0867
 4512SOL    HW128956   3.037   0.723   3.476 -1.7177 -0.5256  0.5475
 4512SOL    HW228957   3.038   0.873   3.456 -0.0921 -0.6367 -0.3311
 4513SOL     OW28958   5.877   4.703   8.299 -0.7272 -0.0015 -0.6232
 4513SOL    HW128959   5.951   4.762   8.283 -1.1107  0.6080 -0.1492
 4513SOL    HW228960   5.883   4.638   8.229 -0.8286  1.1165 -1.6900
 4514SOL     OW28961   3.133   3.461  10.678  0.0565 -0.4480 -0.0318
 4514SOL    HW128962   3.225   3.449  10.653  0.0803 -2.0462  0.7156
 4514SOL    HW228963   3.084   3.407  10.616 -0.2319 -1.0061  0.6792
 4515SOL     OW28964   3.429   3.463  11.058  0.3504 -0.0946  0.1366
 4515SOL    HW128965   3.504   3.414  11.023 -0.3067 -0.2631 -1.0837
 4515SOL    HW228966   3.365   3.396  11.081  0.9588 -0.0149  2.1736
 4516SOL     OW28967   3.994   1.064   8.618 -0.6089 -0.1097  0.7024
 4516SOL    HW128968   3.935   1.129   8.580 -1.3918  0.3532  2.6484
 4516SOL    HW228969   4.044   1.112   8.683 -0.3691 -1.2069  1.3525
 4517SOL     OW28970   5.699   2.248  10.177  1.1882 -0.3099 -0.2586
 4517SOL    HW128971   5.606   2.225  10.182  1.3604 -1.0439 -0.2588
 4517SOL    HW228972   5.701   2.343  10.181  0.5783 -0.3735  2.0537
 4518SOL     OW28973   0.262   2.606  12.355  0.5509  0.0530  0.0020
 4518SOL    HW128974   0.262   2.578  12.447  0.9826 -0.0514 -0.0287
 4518SOL    HW228975   0.257   2.525  12.305 -2.5245  0.2125 -0.0475
 4519SOL     OW28976   3.313   2.723   1.231 -0.4080  0.2022  0.0351
 4519SOL    HW128977   3.382   2.786   1.208 -0.2487  0.5300  1.3409
 4519SOL    HW228978   3.263   2.711   1.150  0.6903  0.5905 -0.7053
 4520SOL     OW28979   0.236   3.838  10.371 -0.0120  0.5679 -0.5501
 4520SOL    HW128980   0.181   3.903  10.329  0.5358  1.5105  0.1777
 4520SOL    HW228981   0.296   3.888  10.426  1.3933 -0.4492 -1.1125
 4521SOL     OW28982   5.462   3.440  12.305 -0.2717 -0.1868  0.0193
 4521SOL    HW128983   5.507   3.420  12.223 -0.9523  0.2018 -0.4517
 4521SOL    HW228984   5.461   3.357  12.353  1.9706  0.0623  0.5430
 4522SOL     OW28985   0.185   4.287   0.491 -0.6795  1.0781  0.4055
 4522SOL    HW128986   0.184   4.353   0.561 -1.5352  1.3657  0.1302
 4522SOL    HW228987   0.117   4.225   0.517  0.2336  0.2063  0.7493
 4523SOL     OW28988   0.734   5.247   0.618  0.0676  0.0599  0.2075
 4523SOL    HW128989   0.797   5.177   0.633 -0.0612 -0.4760 -1.5693
 4523SOL    HW228990   0.657   5.203   0.582 -0.6734  0.9054  0.7361
 4524SOL     OW28991   1.275   5.169   3.076  0.1038 -0.3483 -0.4823
 4524SOL    HW128992   1.315   5.253   3.099  1.4941 -1.1515  0.1153
 4524SOL    HW228993   1.285   5.162   2.981 -2.6276  1.4510 -0.9759
 4525SOL     OW28994   3.610   4.471  10.791  0.5618  0.5226  0.2426
 4525SOL    HW128995   3.661   4.539  10.835  1.1824  0.0553  0.2595
 4525SOL    HW228996   3.676   4.408  10.760  0.1426  0.8469 -1.3618
 4526SOL     OW28997   1.112   4.493  12.434 -0.8001  0.5058 -0.0781
 4526SOL    HW128998   1.135   4.430  12.366 -0.2832  1.2238 -0.5724
 4526SOL    HW228999   1.025   4.524  12.409 -2.0052 -1.6156  1.3583
 4527SOL     OW29000   1.673   4.727  12.331 -0.1358  0.4604  0.1750
 4527SOL    HW129001   1.589   4.680  12.335  0.3566 -0.8879 -3.4851
 4527SOL    HW229002   1.738   4.658  12.320  0.8353  1.8000 -3.0097
 4528SOL     OW29003   0.745   5.090   1.747 -0.0662 -0.7076  0.4257
 4528SOL    HW129004   0.769   5.041   1.825  0.8315  1.8916  1.8222
 4528SOL    HW229005   0.658   5.125   1.766  0.0109 -0.3418  0.1268
 4529SOL     OW29006   4.599   0.382   9.922 -0.5179  0.0345  0.2389
 4529SOL    HW129007   4.552   0.303   9.950 -1.8789  0.0691 -1.7933
 4529SOL    HW229008   4.529   0.444   9.901  0.4855  0.8754 -0.6346
 4530SOL     OW29009   5.877   0.972  11.338 -0.2129  0.0057 -0.0116
 4530SOL    HW129010   5.943   0.954  11.271  0.8229  0.7954  0.7639
 4530SOL    HW229011   5.920   1.034  11.397 -1.1090 -0.6592  1.3660
 4531SOL     OW29012   2.836   1.385  11.209 -0.3555  0.3658 -0.5076
 4531SOL    HW129013   2.796   1.300  11.194  0.1271 -0.0615  0.6327
 4531SOL    HW229014   2.898   1.371  11.280 -1.4627  2.0243  0.8438
 4532SOL     OW29015   2.739   2.102   8.628 -0.1074  0.2385  0.2367
 4532SOL    HW129016   2.761   2.060   8.545 -1.9150 -0.1152 -0.0641
 4532SOL    HW229017   2.768   2.193   8.618 -2.5905  0.8615 -1.7355
 4533SOL     OW29018   2.503   0.819   1.690 -0.7319  0.3588 -0.6239
 4533SOL    HW129019   2.500   0.735   1.644 -0.4021 -0.3351  0.5934
 4533SOL    HW229020   2.586   0.858   1.663 -0.8438  0.2532 -1.1225
 4534SOL     OW29021   2.883   3.524   2.399  0.0925  0.0746  1.0474
 4534SOL    HW129022   2.848   3.566   2.320 -1.3665 -0.8591  1.1838
 4534SOL    HW229023   2.950   3.464   2.367 -0.5063 -0.3152  0.5139
 4535SOL     OW29024   2.710   0.986   1.583  0.3431 -0.1306  0.4756
 4535SOL    HW129025   2.648   1.033   1.527  0.4706 -0.7729 -0.2202
 4535SOL    HW229026   2.744   1.053   1.643  0.5181  0.6636 -0.4909
 4536SOL     OW29027   2.758   5.258   0.217  0.2100  0.7146  0.3547
 4536SOL    HW129028   2.796   5.279   0.303 -1.3129  0.1322  1.1842
 4536SOL    HW229029   2.696   5.328   0.200  0.1280  0.5487 -0.0325
 4537SOL     OW29030   5.436   5.890  11.795  0.1144  0.0023 -0.6815
 4537SOL    HW129031   5.450   5.979  11.762  0.4727 -0.3856 -1.5926
 4537SOL    HW229032   5.375   5.901  11.867 -0.3140  0.9256 -1.1732
 4538SOL     OW29033   1.917   0.936  11.921  0.7661  0.5331 -0.2565
 4538SOL    HW129034   1.876   1.019  11.896  1.1149  1.0810  0.9904
 4538SOL    HW229035   2.002   0.961  11.956  0.4004 -0.2605  1.2115
 4539SOL     OW29036   2.518   0.907   8.653 -0.1592 -0.1437  0.1567
 4539SOL    HW129037   2.450   0.892   8.588  0.4280  0.4946 -0.6169
 4539SOL    HW229038   2.515   0.829   8.708  0.0116 -1.1698 -1.2444
 4540SOL     OW29039   5.464   5.908  11.158 -0.0748  0.3218 -0.0600
 4540SOL    HW129040   5.396   5.929  11.222 -1.7499  0.6559 -1.9001
 4540SOL    HW229041   5.422   5.921  11.073  1.3904 -2.3116 -1.2540
 4541SOL     OW29042   3.377   4.582   3.674  0.1176 -0.1845 -0.1150
 4541SOL    HW129043   3.359   4.649   3.608 -0.1810  0.3163  0.4674
 4541SOL    HW229044   3.449   4.618   3.727  0.3757 -0.5945 -0.1813
 4542SOL     OW29045   0.623   2.106   8.679 -0.1757 -0.4882 -0.2382
 4542SOL    HW129046   0.645   2.125   8.770  0.2557  0.2625 -0.4869
 4542SOL    HW229047   0.706   2.081   8.639 -0.0995  0.5069 -0.7388
 4543SOL     OW29048   5.635   4.280   3.492 -0.1669  0.4762  0.0184
 4543SOL    HW129049   5.608   4.195   3.528  2.2686 -0.4876 -0.3202
 4543SOL    HW229050   5.728   4.287   3.515 -0.4316  3.2573  0.4065
 4544SOL     OW29051   2.923   5.184   1.502  0.8229 -0.1038  0.4532
 4544SOL    HW129052   2.970   5.142   1.431 -0.1772 -1.1564  0.4004
 4544SOL    HW229053   2.910   5.274   1.472 -0.7492 -0.8780 -1.2857
 4545SOL     OW29054   0.840   0.330   9.309 -0.0267 -0.0743  0.0347
 4545SOL    HW129055   0.749   0.312   9.332 -0.4449  1.9982  0.0671
 4545SOL    HW229056   0.888   0.316   9.391 -0.5356  0.3608  0.4121
 4546SOL     OW29057   5.067   3.869   8.034  0.7693  0.5537 -0.0538
 4546SOL    HW129058   5.117   3.950   8.033  0.8306  0.5081 -1.4737
 4546SOL    HW229059   5.043   3.854   7.943  0.3300 -0.7599  0.2603
 4547SOL     OW29060   4.104   4.013   1.675 -0.2757  0.3776  0.1302
 4547SOL    HW129061   4.189   4.035   1.714 -0.2945 -2.0797  1.6702
 4547SOL    HW229062   4.041   4.031   1.745 -0.4264 -3.0225  0.9478
 4548SOL     OW29063   2.480   4.550  10.596 -0.3070 -0.1798  0.6946
 4548SOL    HW129064   2.551   4.500  10.556  0.1235  0.5533  0.5438
 4548SOL    HW229065   2.400   4.505  10.567 -0.0421  0.7685 -1.5618
 4549SOL     OW29066   0.813   3.767   9.568  0.1290  0.3406 -0.2673
 4549SOL    HW129067   0.827   3.839   9.630 -0.5328  0.3801 -0.1553
 4549SOL    HW229068   0.725   3.783   9.533 -0.1692 -0.6050  0.0222
 4550SOL     OW29069   4.733   0.577   1.574  0.0912  0.3726 -0.1574
 4550SOL    HW129070   4.804   0.581   1.638 -0.3060  2.8194  0.1806
 4550SOL    HW229071   4.689   0.662   1.581 -2.2526 -0.7241 -1.0867
 4551SOL     OW29072   4.754   4.609   0.736  0.6207  0.4115 -0.1501
 4551SOL    HW129073   4.724   4.615   0.645  1.4457  2.1123 -0.3242
 4551SOL    HW229074   4.675   4.584   0.785 -0.5042  2.2197 -0.9631
 4552SOL     OW29075   5.066   3.086   2.423 -0.4270 -0.5001  0.1255
 4552SOL    HW129076   5.040   3.115   2.336  0.4176 -0.3670 -0.0800
 4552SOL    HW229077   5.114   3.005   2.408 -0.4005 -0.5514  0.4779
 4553SOL     OW29078   2.419   2.974  11.803  0.2435  0.1527 -0.1945
 4553SOL    HW129079   2.341   3.021  11.773  0.5131 -0.1339 -1.3709
 4553SOL    HW229080   2.466   3.037  11.857 -1.3543 -0.0123  1.4504
 4554SOL     OW29081   0.974   2.562   3.774 -0.3275  0.1921  0.7282
 4554SOL    HW129082   0.969   2.625   3.846  0.8957 -0.9742  1.8673
 4554SOL    HW229083   0.904   2.499   3.793 -0.1420  0.0034  0.7948
 4555SOL     OW29084   4.066   3.258   0.464  0.0698 -0.3013 -0.4177
 4555SOL    HW129085   4.161   3.261   0.470 -0.0724  0.0365  2.0807
 4555SOL    HW229086   4.042   3.174   0.504 -0.6541 -0.7825 -1.8033
 4556SOL     OW29087   0.246   1.846   1.908  0.3060 -0.4434  0.0692
 4556SOL    HW129088   0.308   1.866   1.977 -1.0800  0.3381  1.1143
 4556SOL    HW229089   0.297   1.853   1.827  1.1296  2.1211  0.7743
 4557SOL     OW29090   1.141   3.514   8.745 -0.2911 -0.0013 -0.0276
 4557SOL    HW129091   1.230   3.495   8.715 -0.2727  1.2630 -0.8116
 4557SOL    HW229092   1.085   3.479   8.677 -0.3906 -0.5461  0.3301
 4558SOL     OW29093   2.992   2.700   0.181 -0.9092 -0.3861 -0.1607
 4558SOL    HW129094   2.999   2.784   0.225  0.5222 -0.4951 -0.1545
 4558SOL    HW229095   2.995   2.721   0.088  1.5388 -0.5644 -0.1579
 4559SOL     OW29096   3.736   2.031   8.538  0.5331  0.0909  0.5909
 4559SOL    HW129097   3.640   2.023   8.538  0.6251 -1.3251  0.8221
 4559SOL    HW229098   3.758   2.053   8.448  0.0943 -1.4586  0.0689
 4560SOL     OW29099   1.647   5.687   1.219 -0.0367  0.0652 -0.2842
 4560SOL    HW129100   1.557   5.658   1.211  0.2412 -1.0381  0.4101
 4560SOL    HW229101   1.678   5.647   1.301  1.3841 -0.4241 -1.0309
 4561SOL     OW29102   1.114   2.930   2.476  0.5621  0.1018 -0.4750
 4561SOL    HW129103   1.096   2.924   2.382 -1.8257 -1.3118  0.0458
 4561SOL    HW229104   1.159   2.848   2.497  0.4986  0.1236 -0.2562
 4562SOL     OW29105   3.360   2.662  10.423  0.5829  0.3076  0.1024
 4562SOL    HW129106   3.297   2.680  10.352  0.2492 -0.6305  0.1584
 4562SOL    HW229107   3.311   2.680  10.503  0.8621  1.0587  0.1113
 4563SOL     OW29108   2.938   0.091   9.061  0.5771 -0.0436  0.0435
 4563SOL    HW129109   2.852   0.119   9.092  0.8275 -0.3706  1.0497
 4563SOL    HW229110   2.942  -0.002   9.081 -0.2146 -0.8225 -3.2381
 4564SOL     OW29111   0.169   0.241   0.044 -0.2920  0.0362 -0.1794
 4564SOL    HW129112   0.159   0.314  -0.017 -0.0958  0.0795 -0.1609
 4564SOL    HW229113   0.107   0.261   0.115 -2.0159 -1.0589 -1.3601
 4565SOL     OW29114   5.231   1.863   3.796 -0.3794 -0.0588  0.2285
 4565SOL    HW129115   5.245   1.773   3.766  0.4221  0.3396 -0.6554
 4565SOL    HW229116   5.301   1.878   3.859  0.8050  0.6150 -1.1921
 4566SOL     OW29117   0.560   0.372   3.227  0.4599  0.0574  0.6103
 4566SOL    HW129118   0.602   0.316   3.162  1.1475 -0.2814  1.3331
 4566SOL    HW229119   0.514   0.312   3.286  0.5736  0.2995  0.9512
 4567SOL     OW29120   1.010   2.241   3.152  0.6804  0.0508  0.2060
 4567SOL    HW129121   0.984   2.327   3.117  2.1938  0.7886  0.8431
 4567SOL    HW229122   1.101   2.231   3.124  0.1104 -1.9739 -1.0156
 4568SOL     OW29123   3.821   5.691   1.327  0.1128  0.0516 -0.5249
 4568SOL    HW129124   3.875   5.650   1.259  0.5837 -0.3888  0.1114
 4568SOL    HW229125   3.850   5.783   1.327  0.6510 -0.1122 -0.3983
 4569SOL     OW29126   4.742   3.945   3.356  0.4299 -0.4449 -0.5901
 4569SOL    HW129127   4.768   3.879   3.420  0.6330 -0.1406 -0.3545
 4569SOL    HW229128   4.788   3.921   3.276  1.7453  0.3092 -0.0760
 4570SOL     OW29129   3.673   4.146   3.600  0.5999  0.0875 -0.3785
 4570SOL    HW129130   3.601   4.205   3.577  0.1705  0.0517  0.8406
 4570SOL    HW229131   3.746   4.205   3.620  0.4388  0.1856 -0.0607
 4571SOL     OW29132   1.006   2.880  10.839 -0.1097  0.3965  0.3689
 4571SOL    HW129133   1.076   2.915  10.784  1.1802 -1.8590  0.5000
 4571SOL    HW229134   1.052   2.840  10.913 -1.7099  1.3801  1.9237
 4572SOL     OW29135   4.351   4.937   0.990  0.2166  0.0397 -0.4663
 4572SOL    HW129136   4.285   4.969   0.928  0.3435  0.1704 -0.5335
 4572SOL    HW229137   4.329   4.981   1.072 -0.9741 -1.3903  0.0102
 4573SOL     OW29138   0.476   4.173   0.191  0.2046  0.2573 -0.1030
 4573SOL    HW129139   0.538   4.246   0.191  1.5822 -0.8774  2.0140
 4573SOL    HW229140   0.478   4.141   0.101  1.4846  1.2466 -0.4432
 4574SOL     OW29141   5.655   3.889  11.150 -0.2134  0.2752  0.1243
 4574SOL    HW129142   5.690   3.876  11.062  1.0800  0.5005  0.5920
 4574SOL    HW229143   5.613   3.975  11.147 -0.3831  0.1797 -0.3295
 4575SOL     OW29144   3.140   0.954   2.304  0.4652  0.0577  0.1611
 4575SOL    HW129145   3.148   0.961   2.399  0.6502 -0.2834  0.1747
 4575SOL    HW229146   3.047   0.967   2.286  0.5850  1.1098  0.2970
 4576SOL     OW29147   1.352   2.032   8.531  0.5512  0.0006  0.1107
 4576SOL    HW129148   1.294   2.047   8.457  0.6408  1.9497  0.4118
 4576SOL    HW229149   1.320   1.951   8.571  0.0869 -0.7038 -1.6343
 4577SOL     OW29150   5.115   3.559   0.897 -0.2276  0.3957 -0.5275
 4577SOL    HW129151   5.153   3.548   0.984  1.4242  0.0769 -1.2533
 4577SOL    HW229152   5.157   3.491   0.844 -2.5574 -0.5838 -1.1642
 4578SOL     OW29153   5.497   2.476   8.142  0.0003  0.4189 -0.4056
 4578SOL    HW129154   5.439   2.403   8.166 -0.8100  0.8555 -0.9900
 4578SOL    HW229155   5.580   2.435   8.120 -0.0492 -0.2121  0.5685
 4579SOL     OW29156   1.854   1.602   8.708  0.0507  0.4910 -0.3739
 4579SOL    HW129157   1.940   1.611   8.750 -0.6755  0.0510  1.2505
 4579SOL    HW229158   1.831   1.510   8.720  0.8785 -0.2669 -3.9164
 4580SOL     OW29159   4.071   2.197   2.081 -0.0124 -0.0345  0.3530
 4580SOL    HW129160   4.120   2.190   2.163 -0.7903 -1.0432  0.7535
 4580SOL    HW229161   4.084   2.112   2.039  1.8349  1.0932 -1.4212
 4581SOL     OW29162   3.436   0.405  11.501 -0.6516 -0.7263  0.0762
 4581SOL    HW129163   3.381   0.343  11.454  0.9172 -1.5107 -0.7661
 4581SOL    HW229164   3.486   0.450  11.432  1.7329 -1.9461  0.9500
 4582SOL     OW29165   2.842   4.601  12.420  0.5094  0.5313  0.5370
 4582SOL    HW129166   2.885   4.623  12.337  1.5048 -2.0975  0.2862
 4582SOL    HW229167   2.751   4.629  12.409  0.5738 -0.0131 -1.5341
 4583SOL     OW29168   4.700   3.426   7.906  0.5187  0.2293 -0.2388
 4583SOL    HW129169   4.747   3.508   7.919  0.1967  0.4841 -0.6874
 4583SOL    HW229170   4.685   3.421   7.812 -0.9632  0.4808 -0.0297
 4584SOL     OW29171   5.890   3.615   1.339  0.1429 -0.3288  0.1244
 4584SOL    HW129172   5.907   3.666   1.260 -0.2831 -0.5890 -0.1388
 4584SOL    HW229173   5.977   3.600   1.378  0.1824  1.7987  0.9692
 4585SOL     OW29174   5.094   4.809  11.329  0.3496 -0.0527  0.5092
 4585SOL    HW129175   5.022   4.856  11.285  0.8804 -0.6845 -1.0865
 4585SOL    HW229176   5.091   4.839  11.419 -0.1730  2.0569 -0.1792
 4586SOL     OW29177   1.306   4.163   2.296  0.2739 -0.3291 -0.0248
 4586SOL    HW129178   1.359   4.091   2.331  1.8943  0.5197 -0.6524
 4586SOL    HW229179   1.283   4.135   2.207  1.0764  0.0017 -0.3419
 4587SOL     OW29180   2.575   1.992  11.110  0.6942 -0.2460 -0.4705
 4587SOL    HW129181   2.567   2.015  11.017  1.0934  0.4385 -0.3405
 4587SOL    HW229182   2.647   1.929  11.113  1.3121  0.4576 -0.5042
 4588SOL     OW29183   1.932   1.756   3.337 -0.3076  0.5465  0.4731
 4588SOL    HW129184   2.009   1.812   3.349  0.1408 -0.2149  1.1240
 4588SOL    HW229185   1.921   1.712   3.421  0.5244 -1.8660 -0.6514
 4589SOL     OW29186   1.122   1.862   1.803 -0.4884  0.3834 -0.5157
 4589SOL    HW129187   1.088   1.854   1.892 -0.6335 -2.8186 -0.8064
 4589SOL    HW229188   1.217   1.867   1.813 -0.3904 -1.7441 -0.2427
 4590SOL     OW29189   1.671   5.082   2.955 -0.6177 -0.1960 -0.7403
 4590SOL    HW129190   1.711   5.146   3.013  0.4436 -2.5287  1.1797
 4590SOL    HW229191   1.682   5.119   2.867 -0.1003  2.2570  0.3252
 4591SOL     OW29192   3.951   1.068  10.390 -0.1045 -0.0927  0.2512
 4591SOL    HW129193   3.951   0.978  10.423  0.6659 -0.7790 -1.6127
 4591SOL    HW229194   3.996   1.118  10.459  1.6826 -1.5454  0.1779
 4592SOL     OW29195   1.492   1.560   0.366 -0.9920  0.4353 -0.5133
 4592SOL    HW129196   1.559   1.620   0.398 -0.6753  0.7499 -1.7180
 4592SOL    HW229197   1.538   1.504   0.303 -1.2330 -1.2263  0.7641
 4593SOL     OW29198   4.913   5.055   1.817 -0.5832  0.2322 -0.4035
 4593SOL    HW129199   4.935   4.980   1.762 -0.5333  0.5505 -0.8140
 4593SOL    HW229200   4.994   5.104   1.824 -0.7253  0.4761 -0.4780
 4594SOL     OW29201   5.141   3.607   8.992 -0.0754  0.1610 -0.1871
 4594SOL    HW129202   5.181   3.664   9.059 -1.6916  0.7784  0.2706
 4594SOL    HW229203   5.093   3.667   8.935 -1.7360 -0.7398  0.2501
 4595SOL     OW29204   0.307   3.924   0.998  0.2484  0.4114  0.5143
 4595SOL    HW129205   0.244   3.948   0.930  0.6876  1.5313  0.4955
 4595SOL    HW229206   0.345   4.007   1.026  1.5194 -0.2320  0.7210
 4596SOL     OW29207   4.624   3.845   2.929 -0.0860  0.0354 -0.1784
 4596SOL    HW129208   4.530   3.862   2.936 -0.3791 -1.5835 -0.1106
 4596SOL    HW229209   4.655   3.840   3.020 -0.1459 -0.6392 -0.1985
 4597SOL     OW29210   2.726   2.498   2.371 -0.7140  0.2844  0.1774
 4597SOL    HW129211   2.821   2.493   2.357 -0.5127 -0.1316  1.6247
 4597SOL    HW229212   2.689   2.440   2.304  0.1026 -0.1752  0.1112
 4598SOL     OW29213   4.663   3.081  12.317 -0.1482  0.3266 -0.4555
 4598SOL    HW129214   4.616   3.044  12.392 -0.5935  0.6504 -0.5706
 4598SOL    HW229215   4.750   3.043  12.322 -0.2213  0.2280  0.1444
 4599SOL     OW29216   3.660   2.210   7.840 -0.0364 -0.3202 -0.2191
 4599SOL    HW129217   3.668   2.306   7.839 -0.0176 -0.3180  0.0171
 4599SOL    HW229218   3.570   2.193   7.812  0.1889 -0.2619 -0.9936
 4600SOL     OW29219   3.058   1.958  11.979 -0.0493 -0.0342  0.6308
 4600SOL    HW129220   3.008   2.034  12.009 -1.8741 -1.5744  1.5673
 4600SOL    HW229221   3.011   1.883  12.014  0.7524 -1.6906 -1.7215
 4601SOL     OW29222   1.216   2.409   9.538 -0.6943  0.3079  0.2655
 4601SOL    HW129223   1.175   2.376   9.458  2.2422 -0.4086 -1.0061
 4601SOL    HW229224   1.223   2.504   9.523  2.8832 -0.2061 -1.8682
 4602SOL     OW29225   4.379   5.637   1.981 -0.6089  0.0600  0.2711
 4602SOL    HW129226   4.456   5.651   1.926 -0.9584  0.1089 -0.2147
 4602SOL    HW229227   4.356   5.545   1.966 -0.7719  0.1042  0.2506
 4603SOL     OW29228   2.684   4.816   0.582 -0.6325  0.0735  0.1011
 4603SOL    HW129229   2.711   4.823   0.491 -1.0615 -2.0714 -0.2240
 4603SOL    HW229230   2.708   4.727   0.607  0.3442  0.9539  2.3783
 4604SOL     OW29231   5.629   4.455   9.881  0.3791  0.0832  0.2833
 4604SOL    HW129232   5.660   4.480   9.794  0.0769 -0.4799  0.0145
 4604SOL    HW229233   5.653   4.529   9.937  1.1072  0.1881 -0.1576
 4605SOL     OW29234   3.608   2.433   7.582  0.2329 -0.4657 -0.2782
 4605SOL    HW129235   3.555   2.355   7.596 -0.8970  0.5178  1.0949
 4605SOL    HW229236   3.652   2.448   7.666  0.1634  0.5620 -0.4144
 4606SOL     OW29237   3.404   2.076   1.200  0.7765  0.3929  0.7065
 4606SOL    HW129238   3.369   1.989   1.184  1.1788  0.5670 -1.1996
 4606SOL    HW229239   3.332   2.136   1.182  1.1097  0.5736 -0.0209
 4607SOL     OW29240   4.554   0.948  11.730 -0.4379  0.2689  0.0240
 4607SOL    HW129241   4.649   0.961  11.734  0.1280 -2.4937 -2.1828
 4607SOL    HW229242   4.524   1.008  11.661 -0.5525  2.1923  1.7118
 4608SOL     OW29243   4.590   3.732   1.533 -0.1735 -0.3178  0.0825
 4608SOL    HW129244   4.681   3.723   1.559 -0.4891 -0.5453  1.1268
 4608SOL    HW229245   4.567   3.646   1.496  1.0473  0.7940 -3.5040
 4609SOL     OW29246   2.676   2.313   9.808 -0.6340 -0.1148 -0.4084
 4609SOL    HW129247   2.582   2.317   9.791 -0.3951  0.7411 -1.5491
 4609SOL    HW229248   2.709   2.249   9.746 -0.6835 -1.5872  1.0484
 4610SOL     OW29249   1.020   2.959   1.837  0.0827  0.0770  0.4170
 4610SOL    HW129250   1.029   3.052   1.817 -1.3927  0.0248 -0.5345
 4610SOL    HW229251   1.063   2.948   1.922  1.4049  1.3728 -0.0590
 4611SOL     OW29252   0.510   3.816  12.127 -0.6571 -0.1779  0.2595
 4611SOL    HW129253   0.454   3.816  12.204 -0.9101  1.7370  0.0982
 4611SOL    HW229254   0.457   3.776  12.058 -1.2668  0.2357  0.4879
 4612SOL     OW29255   1.533   3.168  10.245  0.4601 -0.5358  0.2699
 4612SOL    HW129256   1.457   3.114  10.263 -0.3535  0.6135  0.3010
 4612SOL    HW229257   1.600   3.106  10.214 -0.1977 -1.6494  1.0635
 4613SOL     OW29258   2.557   2.037   9.085  0.5858  0.1203  0.2143
 4613SOL    HW129259   2.595   2.011   9.000  0.4615  0.9038 -0.0883
 4613SOL    HW229260   2.582   2.129   9.094  2.5546 -0.5488  2.0942
 4614SOL     OW29261   5.233   4.889   8.697  0.0662 -0.0696 -0.1256
 4614SOL    HW129262   5.293   4.845   8.636 -1.2375  0.6943 -2.0036
 4614SOL    HW229263   5.241   4.982   8.676 -1.0729  0.1265  0.2614
 4615SOL     OW29264   3.471   3.153   9.189 -0.2567  0.5506  0.1505
 4615SOL    HW129265   3.480   3.060   9.213  1.2270  0.6757  0.1346
 4615SOL    HW229266   3.439   3.151   9.099  0.9850  0.0310 -0.2936
 4616SOL     OW29267   1.468   4.807   8.921  0.0474 -0.0833 -0.0116
 4616SOL    HW129268   1.541   4.786   8.863 -0.0245  1.7951 -0.8298
 4616SOL    HW229269   1.393   4.816   8.861 -0.1804  1.1543  0.4515
 4617SOL     OW29270   0.446   3.252   3.851 -0.1353  0.2712 -0.2265
 4617SOL    HW129271   0.495   3.293   3.922  1.8531  1.8846 -2.4002
 4617SOL    HW229272   0.510   3.245   3.780 -2.6589  0.9967 -2.6626
 4618SOL     OW29273   4.759   0.523   2.086 -0.7701  0.1500  0.0507
 4618SOL    HW129274   4.846   0.485   2.072 -0.3143  0.3809  2.0214
 4618SOL    HW229275   4.710   0.501   2.007  1.8742  2.3507 -2.3192
 4619SOL     OW29276   5.901   1.342   2.762 -0.4573  0.4416 -0.4025
 4619SOL    HW129277   5.966   1.287   2.717  1.2242  1.7279  0.4110
 4619SOL    HW229278   5.913   1.429   2.723 -0.7406  0.9938  0.7369
 4620SOL     OW29279   1.327   1.048  10.591  0.0332 -0.5032 -0.0184
 4620SOL    HW129280   1.362   1.083  10.673  1.8931 -1.2377 -0.4489
 4620SOL    HW229281   1.272   1.118  10.557 -1.0535 -0.3202  2.0134
 4621SOL     OW29282   5.877   0.069   8.937 -0.6469 -0.1350  0.1567
 4621SOL    HW129283   5.811   0.116   8.987 -0.5047  1.6941 -1.3343
 4621SOL    HW229284   5.960   0.105   8.967 -0.5497  0.7987 -1.1963
 4622SOL     OW29285   2.620   5.353  12.129 -0.5858 -0.4094  0.0696
 4622SOL    HW129286   2.695   5.393  12.173 -0.0321  0.0828 -1.2904
 4622SOL    HW229287   2.608   5.270  12.174  0.8274 -0.5249  0.2799
 4623SOL     OW29288   0.429   1.173   3.342  0.6629 -0.2059  0.0202
 4623SOL    HW129289   0.524   1.171   3.336  0.6961  0.2022  0.3502
 4623SOL    HW229290   0.404   1.082   3.356  1.1747 -0.0333  2.2282
 4624SOL     OW29291   4.383   0.025   2.925  0.5091 -0.1457  0.3578
 4624SOL    HW129292   4.473  -0.007   2.925  0.4563 -0.3074 -0.3444
 4624SOL    HW229293   4.358   0.025   3.017  1.3534  0.2556  0.6004
 4625SOL     OW29294   2.715   4.910  12.249 -0.2421  0.0826 -0.9343
 4625SOL    HW129295   2.629   4.891  12.212 -0.7352  0.1808  0.1454
 4625SOL    HW229296   2.702   4.909  12.344  0.6912  1.2945 -0.7756
 4626SOL     OW29297   0.781   3.159  10.690  0.6310  0.1169 -0.0922
 4626SOL    HW129298   0.733   3.239  10.710  0.0398  0.2018 -1.7279
 4626SOL    HW229299   0.750   3.134  10.603  1.0749 -1.7031  0.2564
 4627SOL     OW29300   0.412   1.271  12.278 -0.1934  0.4424  0.2338
 4627SOL    HW129301   0.470   1.245  12.349 -1.0064 -0.1960  0.6750
 4627SOL    HW229302   0.433   1.210  12.207 -1.2646 -0.6858  0.8604
 4628SOL     OW29303   1.541   1.151   8.760  0.3984  0.4142 -0.4496
 4628SOL    HW129304   1.469   1.089   8.752  0.4372  0.4462 -1.1520
 4628SOL    HW229305   1.518   1.222   8.700  0.5530  0.8798  0.0415
 4629SOL     OW29306   3.522   5.764   9.482 -0.0817 -1.0307  0.1195
 4629SOL    HW129307   3.457   5.834   9.474 -1.1363 -1.9088  0.8160
 4629SOL    HW229308   3.569   5.784   9.563 -0.9887 -1.6062  0.8046
 4630SOL     OW29309   1.594   5.872   3.675  0.2372 -0.0396 -0.1096
 4630SOL    HW129310   1.644   5.826   3.742 -1.3769 -1.4254  0.1793
 4630SOL    HW229311   1.506   5.835   3.681 -0.8404  2.3382 -0.6096
 4631SOL     OW29312   4.459   4.305   2.425  0.2143 -0.5040  0.4733
 4631SOL    HW129313   4.537   4.357   2.404 -0.7517  0.8059 -0.0129
 4631SOL    HW229314   4.449   4.245   2.351 -0.6156  1.0162 -0.6893
 4632SOL     OW29315   3.557   1.092   1.326  0.5854  0.0122  0.7971
 4632SOL    HW129316   3.489   1.048   1.276 -0.1006 -0.5892  2.2405
 4632SOL    HW229317   3.514   1.170   1.361  1.0208  0.3540  0.5738
 4633SOL     OW29318   3.006   1.026  11.111 -0.1961 -0.2463 -0.2437
 4633SOL    HW129319   3.048   1.107  11.081  0.8339 -0.9520 -0.7610
 4633SOL    HW229320   2.931   1.056  11.162  0.5702  1.0424  0.1708
 4634SOL     OW29321   5.440   2.189  11.656  0.0384 -0.1545 -0.3545
 4634SOL    HW129322   5.395   2.109  11.682 -0.3265  0.2011  0.1164
 4634SOL    HW229323   5.377   2.259  11.673  0.4425  0.2579 -0.5273
 4635SOL     OW29324   1.109   2.482   8.226  0.3565 -0.3580  0.1086
 4635SOL    HW129325   1.182   2.421   8.233  1.8392  1.2711 -0.7613
 4635SOL    HW229326   1.062   2.455   8.147 -0.0925 -1.5352  0.7801
 4636SOL     OW29327   0.316   1.592  10.714  1.0099 -0.0173 -0.4567
 4636SOL    HW129328   0.334   1.587  10.808  1.7438  0.8979 -0.5410
 4636SOL    HW229329   0.297   1.501  10.688 -1.9705  0.0963  1.0988
 4637SOL     OW29330   5.444   1.892   1.163  0.0731 -0.7538  0.2777
 4637SOL    HW129331   5.528   1.929   1.137 -0.6259  0.1826 -0.7023
 4637SOL    HW229332   5.389   1.898   1.085 -1.4637  0.3470  1.4019
 4638SOL     OW29333   4.971   0.141   9.876  0.0620 -0.1084  0.3247
 4638SOL    HW129334   4.899   0.127   9.814  1.2269  1.8007 -1.5196
 4638SOL    HW229335   5.039   0.081   9.849 -0.1699 -0.6890  1.0077
 4639SOL     OW29336   4.735   1.053   3.043  0.4459 -0.5604 -0.2276
 4639SOL    HW129337   4.792   1.109   3.095  0.3592 -0.0717 -0.6486
 4639SOL    HW229338   4.793   1.013   2.978  0.6954 -1.7896  0.7427
 4640SOL     OW29339   0.781   5.481   1.883  0.1736 -0.1190 -0.1358
 4640SOL    HW129340   0.719   5.513   1.818  0.2570 -0.8196 -0.5579
 4640SOL    HW229341   0.853   5.545   1.880  0.3956 -0.3998 -1.0632
 4641SOL     OW29342   1.313   1.428  10.399 -0.1224  0.3684 -0.6198
 4641SOL    HW129343   1.258   1.381  10.461  0.7222 -0.5488 -0.5507
 4641SOL    HW229344   1.275   1.516  10.394 -0.2704  0.4206  1.1196
 4642SOL     OW29345   1.363   2.815   8.752  0.1849  0.2976 -0.0373
 4642SOL    HW129346   1.271   2.840   8.765 -0.2194 -1.1407 -0.1190
 4642SOL    HW229347   1.364   2.720   8.759  2.1771  0.4877  3.1227
 4643SOL     OW29348   2.839   4.011   9.197 -0.2267  0.0195  0.0931
 4643SOL    HW129349   2.784   4.019   9.118 -1.2547  1.9136  0.9607
 4643SOL    HW229350   2.828   3.920   9.225 -1.0951 -0.2475 -1.0616
 4644SOL     OW29351   1.579   4.256   0.749  0.4071 -0.0165  0.9042
 4644SOL    HW129352   1.645   4.187   0.732 -0.3201 -0.1842 -1.3893
 4644SOL    HW229353   1.504   4.208   0.785  0.2736 -0.2859  0.2719
 4645SOL     OW29354   5.229   0.636   1.770 -0.2532 -0.6488 -0.9394
 4645SOL    HW129355   5.312   0.677   1.794 -0.2596 -0.2888 -1.5325
 4645SOL    HW229356   5.229   0.552   1.816 -0.0613 -0.1572 -0.0268
 4646SOL     OW29357   1.333   3.053   2.309  0.1814 -0.3938 -0.4540
 4646SOL    HW129358   1.251   3.055   2.359  0.0649  0.9018 -0.6716
 4646SOL    HW229359   1.400   3.031   2.373  0.0766  1.5604  0.3508
 4647SOL     OW29360   3.847   0.978   9.795 -0.0962 -0.1857  0.0877
 4647SOL    HW129361   3.890   1.057   9.764  0.6042 -0.4836  0.3016
 4647SOL    HW229362   3.771   1.009   9.844 -0.9027  0.3118 -1.4384
 4648SOL     OW29363   0.935   4.720   8.626  0.0469  0.0692  0.1327
 4648SOL    HW129364   1.029   4.714   8.608  0.0392 -0.7450  0.3745
 4648SOL    HW229365   0.893   4.677   8.552 -0.2428  2.3612 -1.1008
 4649SOL     OW29366   5.115   1.079  11.153  0.2212 -0.5583  0.0515
 4649SOL    HW129367   5.185   1.131  11.192 -0.1989 -0.2802  0.4385
 4649SOL    HW229368   5.151   0.990  11.148  0.5824 -0.4273  0.2926
 4650SOL     OW29369   4.980   5.522   2.477 -0.1451 -0.3290  0.3837
 4650SOL    HW129370   4.980   5.447   2.418  1.0539  0.9893 -1.3346
 4650SOL    HW229371   4.888   5.550   2.480 -0.1303 -0.0289 -1.3756
 4651SOL     OW29372   5.879   1.539   4.223 -0.4420 -0.1155  0.7011
 4651SOL    HW129373   5.926   1.518   4.142  0.3993  2.1802  0.5632
 4651SOL    HW229374   5.926   1.490   4.291 -0.7771 -1.5702 -0.0856
 4652SOL     OW29375   0.940   4.424   0.287  0.1127 -0.4749  0.1434
 4652SOL    HW129376   1.012   4.436   0.349 -0.0953 -0.0671  0.3100
 4652SOL    HW229377   0.926   4.511   0.250  0.0845 -0.6719 -0.3090
 4653SOL     OW29378   4.489   2.104  11.769 -0.0622 -0.0915  0.5048
 4653SOL    HW129379   4.519   2.135  11.855 -1.4373  1.0585  0.5878
 4653SOL    HW229380   4.555   2.135  11.708 -1.1696  2.7000  0.6462
 4654SOL     OW29381   0.316   4.620  10.320 -0.3982  0.0369  0.0941
 4654SOL    HW129382   0.265   4.542  10.298  1.1015 -0.8089 -0.4484
 4654SOL    HW229383   0.382   4.626  10.250  0.4358  0.9456  0.9484
 4655SOL     OW29384   1.184   1.574  10.042  0.0581  0.5877  0.3629
 4655SOL    HW129385   1.162   1.482  10.056 -2.4020  1.2461  0.9519
 4655SOL    HW229386   1.140   1.596   9.960  1.9555  0.8465 -0.6230
 4656SOL     OW29387   4.761   0.679   9.065  0.0633 -0.2530  0.9193
 4656SOL    HW129388   4.756   0.774   9.060 -1.1097 -0.4094 -1.9623
 4656SOL    HW229389   4.853   0.661   9.084  0.1453  1.4405  2.2645
 4657SOL     OW29390   4.683   3.568   9.588 -0.1578 -0.7840 -0.0761
 4657SOL    HW129391   4.680   3.538   9.679 -0.0857  0.3077  0.3066
 4657SOL    HW229392   4.776   3.586   9.572 -0.1402 -1.2050 -0.4430
 4658SOL     OW29393   5.530   3.479   2.693 -0.3286 -0.4696  0.3926
 4658SOL    HW129394   5.616   3.459   2.729  0.3989  0.2920 -0.8559
 4658SOL    HW229395   5.515   3.570   2.717 -0.1725 -0.1911 -0.5352
 4659SOL     OW29396   0.025   5.218   8.720  0.0122 -0.2003  0.2532
 4659SOL    HW129397  -0.066   5.248   8.721  0.2537  0.6121 -1.0297
 4659SOL    HW229398   0.077   5.298   8.715  0.8574 -0.6115  2.1580
 4660SOL     OW29399   3.173   5.827   2.325 -0.3138  0.0609  0.0764
 4660SOL    HW129400   3.089   5.782   2.335  0.0531 -0.7088 -0.2780
 4660SOL    HW229401   3.150   5.920   2.320 -1.1253 -0.1309  0.1700
 4661SOL     OW29402   2.581   4.651   2.901 -0.2235  0.2002 -0.4583
 4661SOL    HW129403   2.544   4.617   2.982  3.3658 -0.7394  0.8746
 4661SOL    HW229404   2.656   4.704   2.928 -0.3228  1.7605 -3.0402
 4662SOL     OW29405   3.460   0.207   9.344  0.5386  0.4454  0.1292
 4662SOL    HW129406   3.501   0.274   9.289  0.6475 -0.0597 -0.4092
 4662SOL    HW229407   3.529   0.142   9.357 -0.8405 -1.7465 -2.9838
 4663SOL     OW29408   5.030   5.852  11.636 -0.8513 -0.0033 -0.6623
 4663SOL    HW129409   4.948   5.826  11.678 -0.4857 -1.1989 -0.6741
 4663SOL    HW229410   5.041   5.944  11.661 -0.4556 -0.7764  2.2218
 4664SOL     OW29411   0.917   3.311   9.756 -0.3788  0.0846  0.2538
 4664SOL    HW129412   0.844   3.362   9.720  0.0843  1.5626  1.3521
 4664SOL    HW229413   0.941   3.357   9.836  1.8825 -0.2658 -0.1758
 4665SOL     OW29414   2.103   2.573   9.041  0.9529 -0.0889 -0.1667
 4665SOL    HW129415   2.086   2.489   9.085  0.6840 -0.9405 -1.8667
 4665SOL    HW229416   2.190   2.599   9.072 -0.0829  0.4176  2.5251
 4666SOL     OW29417   0.766   3.929   0.691 -0.0677  0.2983 -0.6066
 4666SOL    HW129418   0.686   3.972   0.661  0.4248  0.0362 -2.3846
 4666SOL    HW229419   0.817   3.917   0.611  0.6343 -1.8401  0.1391
 4667SOL     OW29420   5.967   4.678   0.509 -0.2037 -0.6036 -0.0119
 4667SOL    HW129421   5.929   4.619   0.444 -2.5343  1.3940 -0.5372
 4667SOL    HW229422   5.898   4.743   0.526  1.2992  0.4083  2.5394
 4668SOL     OW29423   2.350   2.125   2.479  0.1153 -0.6634 -0.3053
 4668SOL    HW129424   2.365   2.219   2.469  0.0738 -0.5893  0.3245
 4668SOL    HW229425   2.428   2.093   2.525  1.5526 -1.4579 -3.1579
 4669SOL     OW29426   4.846   4.038   2.539  0.1290  0.2158  0.0237
 4669SOL    HW129427   4.812   4.068   2.623  1.7458 -1.5285  1.3397
 4669SOL    HW229428   4.794   3.959   2.520 -1.7957  1.8471 -1.7683
 4670SOL     OW29429   0.151   3.360   2.497 -0.5655  0.0956  0.3270
 4670SOL    HW129430   0.219   3.399   2.443  0.5464 -1.4644  0.5452
 4670SOL    HW229431   0.142   3.418   2.572  2.0364 -0.7392  1.3378
 4671SOL     OW29432   0.473   1.795  11.136 -0.7241 -1.2166  0.1643
 4671SOL    HW129433   0.387   1.775  11.175 -0.5011 -2.2435  0.1425
 4671SOL    HW229434   0.491   1.885  11.164 -1.3117 -1.3751  1.0857
 4672SOL     OW29435   2.944   0.729   3.833 -0.1096  0.4226 -0.7457
 4672SOL    HW129436   2.974   0.681   3.756  1.3176 -1.8394  1.1512
 4672SOL    HW229437   3.019   0.729   3.892 -1.0879  2.3382  0.5582
 4673SOL     OW29438   0.473   5.178  11.438  0.3766  0.3837 -0.4260
 4673SOL    HW129439   0.498   5.267  11.413 -0.5462  0.5321 -0.8753
 4673SOL    HW229440   0.539   5.122  11.397  1.5253  0.9207  0.6873
 4674SOL     OW29441   1.785   5.604   9.941 -0.3122 -0.4203  0.1365
 4674SOL    HW129442   1.765   5.531  10.000  0.7490  0.5054  1.6901
 4674SOL    HW229443   1.875   5.587   9.913 -0.0484  0.2965  0.5319
 4675SOL     OW29444   0.197   4.137   9.522 -0.2040  0.2062 -0.2116
 4675SOL    HW129445   0.277   4.176   9.556  0.7145  0.2750 -2.3911
 4675SOL    HW229446   0.127   4.194   9.555  0.8084  1.4220 -0.1479
 4676SOL     OW29447   5.116   0.383   0.841  0.1593 -0.1517  0.3813
 4676SOL    HW129448   5.054   0.310   0.846  0.1509 -0.3538 -2.0958
 4676SOL    HW229449   5.200   0.345   0.865 -0.1186 -0.6361  0.5889
 4677SOL     OW29450   1.343   5.050   3.745 -0.2029  0.0174 -0.0872
 4677SOL    HW129451   1.291   4.971   3.761 -1.0448  0.5803 -0.0071
 4677SOL    HW229452   1.409   5.049   3.814  0.9282 -1.5578 -1.1432
 4678SOL     OW29453   1.906   5.090  11.265 -0.2047  0.0042 -0.6774
 4678SOL    HW129454   1.862   5.080  11.181 -1.6422 -0.9918  0.1773
 4678SOL    HW229455   1.837   5.118  11.325  0.7972  0.6692  0.1967
 4679SOL     OW29456   3.157   3.591   9.198 -0.1751  0.3206  0.4360
 4679SOL    HW129457   3.176   3.554   9.284 -1.0220  0.5397  0.7276
 4679SOL    HW229458   3.123   3.518   9.147 -1.2335  0.5352  0.8092
 4680SOL     OW29459   1.123   2.245   1.290  0.1105  0.1432 -0.3426
 4680SOL    HW129460   1.099   2.288   1.372 -0.3424 -0.3560 -0.2123
 4680SOL    HW229461   1.214   2.270   1.276 -0.1043  1.0163 -0.1839
 4681SOL     OW29462   4.306   3.133   3.295 -0.3329 -0.2564 -0.0407
 4681SOL    HW129463   4.306   3.086   3.212  1.9180  0.8930 -0.7159
 4681SOL    HW229464   4.325   3.065   3.360  1.1800 -0.6017 -0.8216
 4682SOL     OW29465   1.813   5.370   8.772 -0.5696 -0.4850  0.4173
 4682SOL    HW129466   1.813   5.328   8.858 -1.0304  1.7985  1.5780
 4682SOL    HW229467   1.731   5.420   8.770 -0.5448 -0.4872 -1.3358
 4683SOL     OW29468   2.546   2.779   9.188  0.0501  0.5148  0.2894
 4683SOL    HW129469   2.519   2.869   9.169 -0.2815  0.4503  0.4378
 4683SOL    HW229470   2.491   2.753   9.262  0.2740  0.2519  0.3661
 4684SOL     OW29471   5.655   3.971  10.614 -0.1946 -0.4422  0.3751
 4684SOL    HW129472   5.573   3.981  10.566  0.4703  1.2169 -0.4610
 4684SOL    HW229473   5.689   4.060  10.622  1.5422 -1.1032  0.6698
 4685SOL     OW29474   1.149   0.892   1.339  0.0285  0.0040  0.0479
 4685SOL    HW129475   1.088   0.936   1.397 -0.0949  0.0590 -0.1225
 4685SOL    HW229476   1.124   0.920   1.251  0.1183 -0.1961 -0.0434
 4686SOL     OW29477   4.134   0.471   3.307 -0.0798  0.4504  0.1195
 4686SOL    HW129478   4.137   0.528   3.231  0.7006 -0.2622 -0.4011
 4686SOL    HW229479   4.043   0.440   3.312 -0.3387  1.1935  0.0101
 4687SOL     OW29480   2.199   3.147   4.316  0.1544  0.4216  0.2791
 4687SOL    HW129481   2.280   3.198   4.321  0.6571 -0.4404  1.1745
 4687SOL    HW229482   2.162   3.153   4.403 -0.6417  0.6265 -0.0699
 4688SOL     OW29483  -0.004   5.900   1.753  0.6824  0.8238  0.2312
 4688SOL    HW129484   0.055   5.873   1.823 -0.3491 -0.4429  0.6328
 4688SOL    HW229485  -0.049   5.820   1.726 -0.1147  1.5804 -0.7612
 4689SOL     OW29486   0.035   0.815   3.320 -0.3088  0.0513  0.2093
 4689SOL    HW129487   0.061   0.875   3.250  1.6642 -0.3877  0.5405
 4689SOL    HW229488  -0.058   0.832   3.332 -0.3293  1.2491 -1.4406
 4690SOL     OW29489   5.618   2.454   0.734  0.4998  0.0921 -0.1497
 4690SOL    HW129490   5.585   2.521   0.793  2.1178  1.3240 -0.6145
 4690SOL    HW229491   5.580   2.372   0.767  0.5911  0.8786  2.0055
 4691SOL     OW29492   4.282   2.497   2.266 -0.5056 -0.0808 -0.2163
 4691SOL    HW129493   4.368   2.455   2.262 -0.6172 -0.2131 -1.7924
 4691SOL    HW229494   4.300   2.590   2.253 -0.4833  0.0600  0.7962
 4692SOL     OW29495   0.777   2.856  11.254  0.0591 -0.0441 -0.3710
 4692SOL    HW129496   0.842   2.918  11.220  0.5364 -0.0218  0.5692
 4692SOL    HW229497   0.727   2.829  11.177  2.7933 -2.0098 -1.4907
 4693SOL     OW29498   0.972   0.227   9.908 -0.9669 -0.2624 -0.0160
 4693SOL    HW129499   0.994   0.183   9.991 -1.1640 -0.4477 -0.0610
 4693SOL    HW229500   0.994   0.162   9.841  0.2241  0.2856 -0.1705
 4694SOL     OW29501   4.760   1.493   0.173  0.2285 -0.2757  0.2829
 4694SOL    HW129502   4.761   1.571   0.229 -0.1697 -0.0753  0.0142
 4694SOL    HW229503   4.688   1.509   0.112  1.2398 -0.0789 -0.8653
 4695SOL     OW29504   1.226   5.624   1.774 -0.3454 -0.0369  0.1688
 4695SOL    HW129505   1.290   5.677   1.821 -1.3076 -0.1223  1.6196
 4695SOL    HW229506   1.209   5.673   1.693 -0.5776  1.4461  1.0896
 4696SOL     OW29507   0.356   2.503   0.760  0.1710  0.9011 -0.4461
 4696SOL    HW129508   0.357   2.426   0.704  0.5850  1.0627 -0.6677
 4696SOL    HW229509   0.264   2.514   0.784 -0.1171  1.2024 -1.6169
 4697SOL     OW29510   5.696   0.425   7.911 -0.0914  0.4065  0.0590
 4697SOL    HW129511   5.768   0.464   7.960 -1.5951  2.1183  0.9631
 4697SOL    HW229512   5.678   0.343   7.957  0.2623  0.7180  0.7661
 4698SOL     OW29513   4.618   0.098  10.091 -0.3253  0.0767  0.1288
 4698SOL    HW129514   4.528   0.111  10.122 -1.0210 -0.7496 -1.5011
 4698SOL    HW229515   4.664   0.065  10.168 -1.0936  1.7080  1.3319
 4699SOL     OW29516   3.210   0.140   8.953  0.3203  0.1367 -0.4232
 4699SOL    HW129517   3.271   0.079   8.912 -0.5344  0.1441 -1.7543
 4699SOL    HW229518   3.134   0.086   8.975 -0.2527  0.6093 -1.1917
 4700SOL     OW29519   4.189   3.397  12.365 -0.5497  0.0686  0.3496
 4700SOL    HW129520   4.205   3.463  12.432  0.5108 -0.1808  0.3582
 4700SOL    HW229521   4.261   3.335  12.375 -1.4610 -1.0208  0.2526
 4701SOL     OW29522   5.200   3.471   1.160 -0.2684  0.2106  0.5812
 4701SOL    HW129523   5.227   3.385   1.192 -0.2435  0.7010  1.9231
 4701SOL    HW229524   5.282   3.517   1.142 -0.2851 -0.2176 -0.6391
 4702SOL     OW29525   4.505   5.335   8.282  0.6266  0.0525  0.6133
 4702SOL    HW129526   4.420   5.344   8.240  0.1598  0.9908  1.7531
 4702SOL    HW229527   4.567   5.325   8.209 -0.3137  0.5366 -0.2539
 4703SOL     OW29528   3.610   1.785   9.214  0.2068  0.5486 -0.1698
 4703SOL    HW129529   3.618   1.690   9.220  0.4932  0.6664  1.3556
 4703SOL    HW229530   3.588   1.813   9.302  0.4129  1.9332 -0.5530
 4704SOL     OW29531   4.515   1.053   1.694  0.3030  0.5243 -0.9373
 4704SOL    HW129532   4.537   0.965   1.666  3.2278  1.6177 -2.2210
 4704SOL    HW229533   4.429   1.044   1.735 -0.1689 -2.6199 -2.4749
 4705SOL     OW29534   3.513   0.588   1.258  0.1715 -0.0043  0.1248
 4705SOL    HW129535   3.421   0.610   1.274  0.0364 -0.7087  0.3206
 4705SOL    HW229536   3.534   0.631   1.175 -0.3736  0.0384  0.0067
 4706SOL     OW29537   2.522   0.277   0.796 -0.4559 -0.1812 -0.7681
 4706SOL    HW129538   2.457   0.212   0.771  0.2311 -1.1848  0.0194
 4706SOL    HW229539   2.470   0.350   0.831 -1.1016 -1.8557  1.8960
 4707SOL     OW29540   3.322   2.204   9.333  0.0100  0.6440  0.1354
 4707SOL    HW129541   3.244   2.150   9.322  0.5343 -0.1712  0.3569
 4707SOL    HW229542   3.331   2.250   9.249 -0.2401  0.1114 -0.1858
 4708SOL     OW29543   2.440   4.626  11.172  0.4834 -0.2077 -0.0829
 4708SOL    HW129544   2.529   4.591  11.180  0.4485  0.0643  1.7047
 4708SOL    HW229545   2.440   4.704  11.228 -0.9990 -0.4538  0.2713
 4709SOL     OW29546   2.216   1.393   0.745  0.1723 -0.5001 -0.1860
 4709SOL    HW129547   2.235   1.485   0.728  1.9075 -0.4225  2.0364
 4709SOL    HW229548   2.129   1.393   0.785 -0.4684 -0.0021 -1.5187
 4710SOL     OW29549   5.010   4.087   3.985  0.5196  0.6716 -0.3606
 4710SOL    HW129550   4.971   4.029   3.920  0.1379  1.1402 -0.5614
 4710SOL    HW229551   4.943   4.096   4.053  0.8557  0.3052  0.0254
 4711SOL     OW29552   0.428   2.501   9.979  0.8507 -0.1744  1.0989
 4711SOL    HW129553   0.344   2.546   9.969  0.2555 -1.4087  0.3875
 4711SOL    HW229554   0.440   2.454   9.896  2.9400  1.1006  0.6317
 4712SOL     OW29555   1.528   5.117   3.314  0.2882 -0.5192 -0.3160
 4712SOL    HW129556   1.504   5.192   3.259  0.0129  0.0776  0.5990
 4712SOL    HW229557   1.508   5.146   3.404  0.8286 -1.4351  0.1076
 4713SOL     OW29558   0.158   5.705   1.318 -0.2359  0.4577 -0.0990
 4713SOL    HW129559   0.204   5.751   1.389 -0.5653  0.6661 -0.0205
 4713SOL    HW229560   0.211   5.723   1.240 -1.1486  2.1576 -0.3352
 4714SOL     OW29561   5.456   1.568   3.977 -0.3440 -0.2708  0.1320
 4714SOL    HW129562   5.450   1.501   4.045 -3.7230 -1.7019 -1.4476
 4714SOL    HW229563   5.550   1.580   3.964  0.3613 -2.8870  2.2161
 4715SOL     OW29564   3.038   3.778  12.302 -0.6304  0.1262  0.4481
 4715SOL    HW129565   3.089   3.721  12.244  1.3839 -1.1794  3.3993
 4715SOL    HW229566   3.075   3.764  12.389 -3.2527  2.3991  2.0282
 4716SOL     OW29567   1.201   5.830   1.233  0.5850  0.2864  0.1760
 4716SOL    HW129568   1.147   5.780   1.172  0.5637 -0.2346  0.6120
 4716SOL    HW229569   1.209   5.917   1.193 -0.2734  0.2602 -0.0679
 4717SOL     OW29570   4.581   3.831   9.873 -0.5143 -0.2873  0.1023
 4717SOL    HW129571   4.596   3.877   9.790 -0.4073 -2.7142 -1.2997
 4717SOL    HW229572   4.520   3.886   9.921 -0.3739  1.2973 -1.4854
 4718SOL     OW29573   3.180   4.472   1.602 -0.5120  0.1047  0.2938
 4718SOL    HW129574   3.113   4.443   1.540 -1.0162 -1.1141  1.3861
 4718SOL    HW229575   3.259   4.480   1.549 -0.7953 -1.5118 -0.4275
 4719SOL     OW29576   3.450   2.540   9.595  0.2967  0.4817  0.1889
 4719SOL    HW129577   3.427   2.523   9.686  0.7698  0.8943  0.3857
 4719SOL    HW229578   3.393   2.613   9.569  1.3127  1.4415  0.6441
 4720SOL     OW29579   2.907   3.504  11.514  0.1538 -0.0069  0.3025
 4720SOL    HW129580   2.820   3.508  11.554  0.5737 -2.0305  1.4598
 4720SOL    HW229581   2.950   3.586  11.541 -0.7217  0.1336  1.2833
 4721SOL     OW29582   0.131   3.744  10.898 -0.2632  0.7049 -0.0359
 4721SOL    HW129583   0.152   3.821  10.845 -0.3905 -1.5367 -3.5494
 4721SOL    HW229584   0.044   3.761  10.933  0.3553  2.8016  0.5440
 4722SOL     OW29585   5.011   3.751   0.001 -0.7162  0.4154  0.1793
 4722SOL    HW129586   5.005   3.734   0.095  1.3648  0.0742  0.2843
 4722SOL    HW229587   5.038   3.842  -0.006  2.3964 -0.4546  0.0507
 4723SOL     OW29588   2.436   2.064  11.894  0.8845  0.4076  0.2452
 4723SOL    HW129589   2.391   1.980  11.898 -1.0370  1.2527 -2.2091
 4723SOL    HW229590   2.528   2.041  11.882  0.5833 -1.3289  1.0705
 4724SOL     OW29591   5.699   4.286  11.221  0.0391 -0.0042  0.4189
 4724SOL    HW129592   5.759   4.242  11.160 -0.3074 -0.1506  0.1796
 4724SOL    HW229593   5.617   4.239  11.212 -0.2339  0.4640  0.4248
 4725SOL     OW29594   4.126   2.280   2.697  0.2336 -0.3110 -0.0781
 4725SOL    HW129595   4.130   2.339   2.622 -0.9848 -1.0906 -0.7828
 4725SOL    HW229596   4.060   2.214   2.672  0.2367 -0.9081  1.4325
 4726SOL     OW29597   4.785   1.083  10.291  0.3760 -0.2305  0.5285
 4726SOL    HW129598   4.860   1.135  10.320  1.8208 -1.0255 -1.5566
 4726SOL    HW229599   4.801   1.070  10.197 -2.5018 -0.2601  0.0034
 4727SOL     OW29600   2.614   1.719   1.642  0.0933  0.7803 -0.6473
 4727SOL    HW129601   2.697   1.754   1.610 -0.3592  0.0864 -2.6279
 4727SOL    HW229602   2.638   1.639   1.690  0.4399 -0.5206 -2.8987
 4728SOL     OW29603   4.812   5.287  11.009  0.2640  0.6019  0.3056
 4728SOL    HW129604   4.865   5.226  10.957  0.5861  1.1928 -0.0789
 4728SOL    HW229605   4.730   5.294  10.960  0.9493  1.9411 -0.6896
 4729SOL     OW29606   4.401   5.061  11.505  0.2632 -0.0135 -0.3664
 4729SOL    HW129607   4.385   5.066  11.599 -0.6466 -3.0170 -0.2911
 4729SOL    HW229608   4.487   5.100  11.493  1.6786 -2.1370  2.1530
 4730SOL     OW29609   1.266   5.192   1.027 -0.1673  0.8969  0.7947
 4730SOL    HW129610   1.247   5.262   1.089  1.2225  3.7121 -1.8726
 4730SOL    HW229611   1.199   5.201   0.959 -0.1635 -0.5596  0.5811
 4731SOL     OW29612   5.272   1.521  12.372 -0.4199  0.5420 -0.0941
 4731SOL    HW129613   5.212   1.448  12.357  0.1995  0.0265 -0.1042
 4731SOL    HW229614   5.287   1.558  12.285 -0.9307  0.8436 -0.0587
 4732SOL     OW29615   2.608   3.366   2.023 -0.4014  0.0133  0.8437
 4732SOL    HW129616   2.540   3.352   2.088  0.5562  0.7274  2.0267
 4732SOL    HW229617   2.676   3.302   2.044 -1.0195 -1.2144 -0.7979
 4733SOL     OW29618   4.562   0.169   1.669 -0.2281  0.1337 -0.1819
 4733SOL    HW129619   4.544   0.259   1.644  0.5188  0.5253  0.6627
 4733SOL    HW229620   4.588   0.175   1.761 -2.5975 -1.2157  0.6158
 4734SOL     OW29621   5.047   2.212   2.290 -0.3643 -0.0710  0.3792
 4734SOL    HW129622   5.057   2.131   2.341  0.6429 -2.1880 -3.0215
 4734SOL    HW229623   5.137   2.246   2.282 -0.5568  0.4146  0.2599
 4735SOL     OW29624   4.101   0.792  10.098  0.5554 -0.0121  0.0775
 4735SOL    HW129625   4.046   0.771  10.023  1.0525  1.9999 -0.8783
 4735SOL    HW229626   4.190   0.774  10.068  0.7049  0.2108  0.3748
 4736SOL     OW29627   0.895   3.995   9.379  0.2401  0.2897 -0.0214
 4736SOL    HW129628   0.939   3.912   9.364 -4.0854 -2.2738  0.6778
 4736SOL    HW229629   0.892   4.036   9.292  1.2435 -0.9035 -0.6292
 4737SOL     OW29630   4.421   4.368  12.474 -0.0070 -0.4770  0.0518
 4737SOL    HW129631   4.487   4.400  12.413 -1.4387  2.3310 -0.1307
 4737SOL    HW229632   4.463   4.376  12.560  0.5124 -0.4086 -0.1998
 4738SOL     OW29633   5.564   4.530   3.479 -0.0191  1.1079 -0.2331
 4738SOL    HW129634   5.589   4.439   3.496 -2.7979  0.2851 -0.2755
 4738SOL    HW229635   5.647   4.575   3.463  1.4582 -1.2787  0.3844
 4739SOL     OW29636   3.547   4.223   1.285 -0.0789  0.3127  0.2826
 4739SOL    HW129637   3.506   4.209   1.371  3.0032  1.6077  2.0452
 4739SOL    HW229638   3.475   4.250   1.228 -2.0306  0.3214  2.6746
 4740SOL     OW29639   3.527   4.988   2.111  0.1594 -0.3737  0.0136
 4740SOL    HW129640   3.591   5.057   2.131  0.0428 -1.0958  3.0823
 4740SOL    HW229641   3.571   4.933   2.046  1.2729  1.1092 -0.5365
 4741SOL     OW29642   4.884   4.277   3.401 -0.2927  0.3485 -0.0297
 4741SOL    HW129643   4.830   4.229   3.338 -0.4235 -1.6850  1.5787
 4741SOL    HW229644   4.851   4.249   3.487  2.1153  0.4447  0.9614
 4742SOL     OW29645   0.737   0.976   9.537  0.7609  0.4939  0.0736
 4742SOL    HW129646   0.654   0.968   9.583 -0.1577  1.5884 -1.3731
 4742SOL    HW229647   0.793   1.025   9.596  0.3326 -0.0760  0.9681
 4743SOL     OW29648   1.277   0.776   2.738  0.1640 -0.4267 -0.4205
 4743SOL    HW129649   1.238   0.750   2.821 -0.0493  1.2421  0.0079
 4743SOL    HW229650   1.314   0.694   2.702  1.9330 -0.8336  2.1911
 4744SOL     OW29651   5.152   3.427   7.195 -0.3211  0.6924 -0.6688
 4744SOL    HW129652   5.239   3.460   7.219 -0.8893  1.6786  0.0946
 4744SOL    HW229653   5.092   3.495   7.225 -1.6217 -1.5187  1.8702
 4745SOL     OW29654   5.392   4.824   3.419 -0.1874 -0.8177 -0.3120
 4745SOL    HW129655   5.447   4.751   3.389 -2.6291 -2.6988 -0.3672
 4745SOL    HW229656   5.374   4.805   3.511  0.1983  0.4038  0.0271
 4746SOL     OW29657   3.360   3.950   3.162 -0.2308  0.1476 -0.2366
 4746SOL    HW129658   3.403   3.962   3.077  2.3041 -4.1636  0.3248
 4746SOL    HW229659   3.394   4.022   3.216  1.7165  0.2317 -1.5241
 4747SOL     OW29660   1.783   5.761  10.752  0.1318 -0.6076  0.3408
 4747SOL    HW129661   1.853   5.772  10.816  0.1705  0.9989  0.0502
 4747SOL    HW229662   1.825   5.777  10.668 -0.7025  0.9542  0.2117
 4748SOL     OW29663   0.143   2.874   2.394  0.2153 -0.1521  0.5899
 4748SOL    HW129664   0.228   2.838   2.367  1.0507  1.7320  0.6228
 4748SOL    HW229665   0.163   2.929   2.469 -1.1602 -0.2128  1.0226
 4749SOL     OW29666   3.725   4.516   2.549  0.0796  0.0766  0.0011
 4749SOL    HW129667   3.779   4.497   2.472  0.5767 -0.5149  0.4984
 4749SOL    HW229668   3.640   4.478   2.528  0.0390  0.4400 -0.5077
 4750SOL     OW29669   1.921   3.575  10.558  0.3693 -0.0624 -0.2286
 4750SOL    HW129670   1.901   3.482  10.547  2.5856 -0.1870 -4.0679
 4750SOL    HW229671   1.998   3.577  10.616  1.5805 -0.7919 -1.7762
 4751SOL     OW29672   5.472   4.490   9.204  0.3216 -0.1788  0.1465
 4751SOL    HW129673   5.557   4.477   9.161  1.9853 -1.3915  3.6534
 4751SOL    HW229674   5.422   4.412   9.180  0.7320 -0.2202 -0.6298
 4752SOL     OW29675   2.398   5.011   2.855  0.2348  0.5786  0.0548
 4752SOL    HW129676   2.463   5.058   2.907  0.7854 -1.9151  1.7211
 4752SOL    HW229677   2.436   5.006   2.767  1.5716  0.5203  0.6260
 4753SOL     OW29678   4.643   0.403   8.292  0.0403 -0.0558 -0.0599
 4753SOL    HW129679   4.597   0.350   8.357  0.3309  0.5594  0.6462
 4753SOL    HW229680   4.660   0.342   8.220  1.2498 -1.2040  1.1552
 4754SOL     OW29681   0.413   0.717   0.052  0.3570 -0.4919  0.3523
 4754SOL    HW129682   0.413   0.784   0.120 -0.5582 -1.3159  1.1767
 4754SOL    HW229683   0.502   0.681   0.054  0.6873  0.3114  0.2772
 4755SOL     OW29684   1.267   2.144  10.103  0.1540  0.6068 -0.1276
 4755SOL    HW129685   1.228   2.203  10.166  0.6859  0.0615  0.7209
 4755SOL    HW229686   1.354   2.182  10.086  1.5909 -1.3618  2.4851
 4756SOL     OW29687   2.119   5.458   1.668 -0.9322 -0.0947  0.0115
 4756SOL    HW129688   2.035   5.425   1.637 -1.9107  1.4642  0.9560
 4756SOL    HW229689   2.100   5.496   1.754  0.9415 -0.6672  0.7002
 4757SOL     OW29690   1.276   2.321   0.782  0.4884  0.2705  0.4516
 4757SOL    HW129691   1.255   2.381   0.710 -1.0710 -0.6647  0.1074
 4757SOL    HW229692   1.241   2.236   0.754  1.7359 -0.5736  1.3946
 4758SOL     OW29693   5.711   4.844  10.414 -0.1450  0.5337  0.1085
 4758SOL    HW129694   5.654   4.860  10.339  0.3712 -0.6222 -0.5470
 4758SOL    HW229695   5.655   4.861  10.490 -0.7844  1.3410 -0.5275
 4759SOL     OW29696   1.948   1.853  11.789  0.4089 -0.6516  0.1927
 4759SOL    HW129697   1.934   1.783  11.853 -0.3080  0.7153  1.5550
 4759SOL    HW229698   1.870   1.852  11.735  0.1804 -0.5969  0.5172
 4760SOL     OW29699   3.945   5.601  10.352  0.1442  0.5282  0.4391
 4760SOL    HW129700   3.958   5.669  10.286  0.7410 -1.0570 -1.1009
 4760SOL    HW229701   4.032   5.567  10.371 -0.3652 -1.5238 -0.6775
 4761SOL     OW29702   1.867   5.290   9.440 -0.0615 -0.2120 -0.1807
 4761SOL    HW129703   1.772   5.291   9.423 -0.2635  0.9957  0.9209
 4761SOL    HW229704   1.901   5.223   9.381 -1.8035 -1.7552  0.5363
 4762SOL     OW29705   4.688   4.890  10.999 -0.1239  0.1451  0.1628
 4762SOL    HW129706   4.698   4.815  11.058  1.9764  0.6588  0.4761
 4762SOL    HW229707   4.699   4.967  11.055  3.5197  0.6362 -1.1071
 4763SOL     OW29708   3.390   4.132   0.629  0.3662 -0.2426 -0.1467
 4763SOL    HW129709   3.428   4.080   0.559  1.1756 -0.1448  0.2115
 4763SOL    HW229710   3.340   4.200   0.584 -0.8726 -1.4335 -0.6165
 4764SOL     OW29711   1.760   2.767  10.380 -1.0999 -0.1695  0.1424
 4764SOL    HW129712   1.773   2.761  10.474 -1.2556  0.4565  0.2077
 4764SOL    HW229713   1.720   2.683  10.356 -1.1852 -0.2788  0.6520
 4765SOL     OW29714   2.341   4.277   2.586  0.5066 -0.2850 -0.1945
 4765SOL    HW129715   2.352   4.181   2.585  1.9321 -0.1196 -1.2768
 4765SOL    HW229716   2.427   4.311   2.561 -0.7392  1.2339 -2.4916
 4766SOL     OW29717   5.739   2.239   0.963  0.3925 -0.4314 -0.1816
 4766SOL    HW129718   5.731   2.157   1.012  1.9497 -0.6206 -0.2150
 4766SOL    HW229719   5.718   2.215   0.873 -0.3976 -0.5289  0.0258
 4767SOL     OW29720   1.273   3.698  11.042 -0.1603  0.3384 -0.2801
 4767SOL    HW129721   1.347   3.708  10.983 -1.1530 -1.1549 -1.8328
 4767SOL    HW229722   1.273   3.778  11.094  1.3789  1.2171 -1.5706
 4768SOL     OW29723   0.035   3.595   0.837  0.2213 -0.4508 -0.7590
 4768SOL    HW129724   0.076   3.630   0.758 -0.1240 -0.6926 -1.0459
 4768SOL    HW229725   0.104   3.542   0.878  0.7327  0.5226 -0.3443
 4769SOL     OW29726   4.631   4.816   8.574 -0.0290 -0.2212 -0.4293
 4769SOL    HW129727   4.613   4.881   8.643  0.4274 -0.3355 -0.1964
 4769SOL    HW229728   4.644   4.869   8.495  1.5391  0.0650  0.0027
 4770SOL     OW29729   3.697   0.993   9.270 -0.3206 -0.4154  0.0191
 4770SOL    HW129730   3.692   0.967   9.362 -1.9717  0.6831  0.2670
 4770SOL    HW229731   3.613   1.036   9.253  0.4121  0.3838 -1.6957
 4771SOL     OW29732   2.175   2.240   1.195  0.0461 -0.7399 -0.0115
 4771SOL    HW129733   2.149   2.318   1.244 -0.8674 -0.2052 -1.3173
 4771SOL    HW229734   2.119   2.170   1.229  1.8667 -1.1773  2.1905
 4772SOL     OW29735   2.031   0.989   2.371 -0.3756 -0.5824  0.0319
 4772SOL    HW129736   2.089   1.007   2.445  0.7580 -0.5437 -0.8386
 4772SOL    HW229737   2.064   0.906   2.335  0.0790  0.1726 -1.3541
 4773SOL     OW29738   2.072   1.721   8.328  0.3910  0.5098 -0.0796
 4773SOL    HW129739   2.061   1.629   8.306 -1.3770  0.7846 -0.3790
 4773SOL    HW229740   2.001   1.766   8.282  3.2779  2.4786 -2.8039
 4774SOL     OW29741   2.369   4.718   1.281  0.2396 -0.2786 -0.0138
 4774SOL    HW129742   2.460   4.700   1.306  0.2723 -1.2747 -0.8121
 4774SOL    HW229743   2.345   4.645   1.223 -1.0049  0.0826  0.0335
 4775SOL     OW29744   5.448   1.478   8.090 -0.1629 -0.2036  0.5474
 4775SOL    HW129745   5.462   1.547   8.025 -1.8310 -0.4142 -0.0598
 4775SOL    HW229746   5.499   1.404   8.057 -1.9085 -0.6822 -1.1354
 4776SOL     OW29747   4.011   0.635   7.999  0.5229 -0.6642 -0.0443
 4776SOL    HW129748   4.045   0.588   7.923  1.1663 -0.6612  0.2342
 4776SOL    HW229749   4.051   0.722   7.993 -0.1188 -0.3755 -0.1824
 4777SOL     OW29750   0.210   1.711   3.582  0.6632  0.3353  0.2967
 4777SOL    HW129751   0.253   1.634   3.619  1.5577 -0.1434 -1.6478
 4777SOL    HW229752   0.265   1.784   3.609  1.4986 -0.0428 -0.3390
 4778SOL     OW29753   5.864   4.095  11.425 -0.6564 -0.4888 -0.4067
 4778SOL    HW129754   5.924   4.132  11.490 -0.9147  0.6160 -0.7958
 4778SOL    HW229755   5.873   4.000  11.436  1.0250 -0.3405 -0.3232
 4779SOL     OW29756   2.142   1.894   3.432  0.1603  0.5941  0.2853
 4779SOL    HW129757   2.169   1.965   3.491  0.8873 -0.1392  0.8514
 4779SOL    HW229758   2.183   1.915   3.348  2.1397 -0.2495  1.0094
 4780SOL     OW29759   5.533   4.722   2.476  0.5865  0.2390 -0.5319
 4780SOL    HW129760   5.458   4.737   2.418  0.4314 -0.1436 -0.4312
 4780SOL    HW229761   5.589   4.798   2.462  0.6560  0.0411 -1.3457
 4781SOL     OW29762   0.265   3.548   8.786  0.3105  0.5592 -0.4508
 4781SOL    HW129763   0.297   3.463   8.816 -3.7268 -0.3120  1.7654
 4781SOL    HW229764   0.217   3.529   8.706  0.1205  0.9056 -0.4199
 4782SOL     OW29765   2.264   3.977   8.690  0.9054  0.4851  0.1987
 4782SOL    HW129766   2.242   4.045   8.626  1.2557  0.2732 -0.1500
 4782SOL    HW229767   2.349   3.944   8.661  1.7167  1.3259  1.5641
 4783SOL     OW29768   1.170   5.356   1.900  0.4091  0.0207 -0.3057
 4783SOL    HW129769   1.127   5.384   1.819  1.5105 -1.8527 -1.5872
 4783SOL    HW229770   1.257   5.396   1.896  0.8276 -0.9029 -0.5553
 4784SOL     OW29771   3.448   4.961   9.155 -0.1235  0.4820 -0.4347
 4784SOL    HW129772   3.386   4.893   9.183  0.3020  0.4153  0.3808
 4784SOL    HW229773   3.502   4.919   9.089 -1.0719  0.6006 -1.3097
 4785SOL     OW29774   5.620   0.469   1.853 -0.7309 -0.3189  0.0673
 4785SOL    HW129775   5.663   0.423   1.780 -0.4282 -0.4158  0.3047
 4785SOL    HW229776   5.656   0.557   1.851 -0.6181 -0.3625  0.1900
 4786SOL     OW29777   0.119   5.193   1.008  0.0324  0.6083 -0.4785
 4786SOL    HW129778   0.061   5.242   0.950  0.0182  0.9074 -0.2116
 4786SOL    HW229779   0.073   5.192   1.092 -0.8704 -1.4829 -0.9476
 4787SOL     OW29780   4.741   1.640   9.691 -0.4966 -0.2305 -0.3017
 4787SOL    HW129781   4.816   1.584   9.674 -0.7170 -0.7924  0.5465
 4787SOL    HW229782   4.775   1.708   9.750 -0.6312 -0.4330  0.0114
 4788SOL     OW29783   4.093   2.902  10.136  0.2087  0.3312 -0.0155
 4788SOL    HW129784   4.183   2.871  10.131  0.1671  0.3904 -1.8111
 4788SOL    HW229785   4.042   2.824  10.160  0.7656  0.3458  1.1898
 4789SOL     OW29786   4.826   4.386   3.113 -0.6831 -0.3127  0.3401
 4789SOL    HW129787   4.776   4.306   3.128  0.7947 -1.0632  1.4226
 4789SOL    HW229788   4.913   4.367   3.149  0.1372  1.2488 -0.7639
 4790SOL     OW29789   0.055   4.184   8.503 -0.3385  0.6694 -0.0030
 4790SOL    HW129790   0.112   4.254   8.533  1.7200 -0.7539 -0.4885
 4790SOL    HW229791   0.114   4.112   8.482 -2.2551 -0.5897 -1.2601
 4791SOL     OW29792   3.783   5.404  10.377  0.3127  0.2442 -0.2610
 4791SOL    HW129793   3.850   5.470  10.359 -0.3158  0.6714 -1.0541
 4791SOL    HW229794   3.753   5.376  10.290  0.6284 -1.1448  0.0586
 4792SOL     OW29795   1.862   3.881   2.200  0.5097  0.0247 -0.6604
 4792SOL    HW129796   1.853   3.976   2.211  1.2707  0.0829 -0.4903
 4792SOL    HW229797   1.917   3.871   2.123  1.7540 -0.2404  0.2340
 4793SOL     OW29798   4.024   5.476   8.363  0.2494 -0.2177 -0.1345
 4793SOL    HW129799   3.982   5.436   8.287  2.4011  0.3209 -1.6628
 4793SOL    HW229800   4.079   5.406   8.400 -0.5529 -0.3893  0.7647
 4794SOL     OW29801   2.892   3.589   8.799  0.2698 -0.5891 -0.1804
 4794SOL    HW129802   2.916   3.498   8.778  0.1450 -0.6128 -0.2220
 4794SOL    HW229803   2.798   3.586   8.814  0.2884 -0.4916 -0.0386
 4795SOL     OW29804   1.454   1.509   8.847 -0.0484  0.1614  0.5311
 4795SOL    HW129805   1.490   1.443   8.906  1.4962  0.4694 -0.0281
 4795SOL    HW229806   1.475   1.477   8.759  0.5642  1.2961  0.2533
 4796SOL     OW29807   4.805   5.046  12.214 -0.5317 -0.0444  0.3523
 4796SOL    HW129808   4.859   5.115  12.175  0.6075 -0.9335  0.3071
 4796SOL    HW229809   4.731   5.037  12.154 -1.1890  1.7770  0.8568
 4797SOL     OW29810   5.579   1.508   3.696  0.6100 -0.3455 -0.1457
 4797SOL    HW129811   5.496   1.485   3.656  0.3306  0.9429 -0.3181
 4797SOL    HW229812   5.627   1.425   3.702 -1.8538 -1.6634  2.7430
 4798SOL     OW29813   4.739   5.505  11.491 -0.5618 -0.1187 -0.1243
 4798SOL    HW129814   4.668   5.507  11.427 -0.5460 -0.2641 -0.1461
 4798SOL    HW229815   4.710   5.564  11.561 -0.4432  0.2809 -0.4086
 4799SOL     OW29816   3.596   1.377  10.654  0.6434  0.0922  0.0212
 4799SOL    HW129817   3.624   1.334  10.573 -2.0142 -1.5927 -0.0582
 4799SOL    HW229818   3.612   1.312  10.722  1.0676  0.7784  0.5801
 4800SOL     OW29819   0.365   3.157  10.793 -0.3534 -0.0294  0.5928
 4800SOL    HW129820   0.424   3.083  10.799  0.6311  0.7728  0.9257
 4800SOL    HW229821   0.278   3.120  10.811 -0.1628 -1.4726 -1.2934
 4801SOL     OW29822   4.333   0.105   8.908  0.0078  0.1275 -0.1295
 4801SOL    HW129823   4.277   0.181   8.898 -2.0027 -1.1494  0.9192
 4801SOL    HW229824   4.370   0.114   8.996 -0.3339 -0.1465  0.0474
 4802SOL     OW29825   0.660   1.599   0.088  0.4522  0.0689  0.9507
 4802SOL    HW129826   0.568   1.625   0.095  0.3773  0.7436 -1.9298
 4802SOL    HW229827   0.701   1.634   0.167 -1.2690  1.9190  1.0747
 4803SOL     OW29828   4.230   1.374  12.338 -0.5831 -0.9475 -0.0054
 4803SOL    HW129829   4.225   1.279  12.345  0.2895 -0.8412  2.2022
 4803SOL    HW229830   4.138   1.402  12.332 -0.8808 -1.8464  0.2392
 4804SOL     OW29831   3.414   5.631   1.346  0.5422 -0.2699  0.3240
 4804SOL    HW129832   3.362   5.679   1.411  0.6886 -0.6196  0.7020
 4804SOL    HW229833   3.412   5.540   1.376 -0.3067 -0.6188 -0.7664
 4805SOL     OW29834   5.015   5.374   3.452  0.4948  0.2091  0.2887
 4805SOL    HW129835   5.045   5.440   3.390 -0.7062  0.5956  0.1195
 4805SOL    HW229836   5.081   5.305   3.447  1.2283  0.9428 -0.2621
 4806SOL     OW29837   2.827   4.739  10.327  0.3643  0.3290  0.2948
 4806SOL    HW129838   2.783   4.807  10.276 -0.1456 -0.1144  0.1469
 4806SOL    HW229839   2.863   4.785  10.403  1.3828  1.0518 -0.6071
 4807SOL     OW29840   5.169   0.066  11.920  0.0850  0.2334 -0.0756
 4807SOL    HW129841   5.221   0.086  11.998  1.1799 -1.0245 -0.4589
 4807SOL    HW229842   5.104   0.003  11.950 -2.0907  2.7329  0.6871
 4808SOL     OW29843   0.185   0.618   2.168  0.0077 -0.0946  0.2813
 4808SOL    HW129844   0.203   0.579   2.254 -0.3657 -0.5794  0.1394
 4808SOL    HW229845   0.264   0.598   2.117 -0.3306 -1.0015  0.0923
 4809SOL     OW29846   4.791   4.309   1.829  0.2386 -0.0954 -0.1246
 4809SOL    HW129847   4.699   4.320   1.807  0.6570  1.3380 -1.1711
 4809SOL    HW229848   4.810   4.218   1.805 -1.1788 -0.7722  1.1719
 4810SOL     OW29849   1.925   4.575   0.556 -0.1989  0.1986 -0.4339
 4810SOL    HW129850   1.991   4.600   0.491  0.0406  2.2982  0.5898
 4810SOL    HW229851   1.846   4.562   0.504  0.5302 -0.3735 -1.4302
 4811SOL     OW29852   3.913   4.245   1.399  0.0629  0.4358 -0.1293
 4811SOL    HW129853   3.937   4.269   1.310 -0.4099 -0.2631 -0.4542
 4811SOL    HW229854   3.996   4.228   1.444  0.2227 -1.7254 -1.1620
 4812SOL     OW29855   2.902   4.135   2.678  0.3172 -0.0982  0.7357
 4812SOL    HW129856   2.925   4.225   2.655  1.4854 -0.4972  0.2790
 4812SOL    HW229857   2.814   4.141   2.715 -0.9434  0.7924 -2.2558
 4813SOL     OW29858   3.711   0.826   1.818  0.6564  0.0226 -0.9496
 4813SOL    HW129859   3.647   0.845   1.749  0.6729 -1.3595 -1.3718
 4813SOL    HW229860   3.777   0.773   1.774 -0.6705 -3.1501  0.7102
 4814SOL     OW29861   3.777   3.631   9.964  0.0538  0.0702  1.0844
 4814SOL    HW129862   3.864   3.651   9.930 -0.7028  4.3562  1.4185
 4814SOL    HW229863   3.769   3.684  10.043 -2.9427 -0.0861  0.9421
 4815SOL     OW29864   2.754   1.310   0.064 -0.2700 -0.3994 -0.2256
 4815SOL    HW129865   2.798   1.225   0.070 -1.0421 -0.7540  0.5255
 4815SOL    HW229866   2.773   1.340  -0.025  2.7264  0.1561  0.5536
 4816SOL     OW29867   4.545   3.974   0.562 -0.4319  0.2543  0.7780
 4816SOL    HW129868   4.557   3.996   0.469  2.2782 -0.8746  0.8181
 4816SOL    HW229869   4.461   3.930   0.566 -0.1150 -0.5823 -1.3196
 4817SOL     OW29870   2.971   2.253   9.503 -0.1886 -0.5413 -0.1268
 4817SOL    HW129871   3.011   2.338   9.521  0.2023 -0.9683  1.0653
 4817SOL    HW229872   3.001   2.230   9.415  0.7059 -0.0140  0.0394
 4818SOL     OW29873   0.568   4.335   2.061 -0.2240 -0.1302  0.3646
 4818SOL    HW129874   0.498   4.394   2.090 -0.0645 -0.6291  1.7560
 4818SOL    HW229875   0.524   4.253   2.043 -0.6180  0.6546 -2.5701
 4819SOL     OW29876   1.073   0.043   0.690 -0.3997  0.3505  0.7661
 4819SOL    HW129877   1.043   0.123   0.733 -0.8144 -0.4612  2.0334
 4819SOL    HW229878   1.143   0.071   0.632 -2.5044  2.0746 -1.0463
 4820SOL     OW29879   2.552   1.375   0.254  0.1066 -0.1829  0.5043
 4820SOL    HW129880   2.483   1.324   0.211 -0.1381 -1.3594  2.1923
 4820SOL    HW229881   2.622   1.382   0.190 -0.7837 -0.7321 -0.5343
 4821SOL     OW29882   2.209   0.863   2.020  0.2898 -0.7159  0.4631
 4821SOL    HW129883   2.219   0.853   1.925 -0.0277  0.3897  0.3072
 4821SOL    HW229884   2.290   0.904   2.049 -0.1711  0.1879  0.4751
 4822SOL     OW29885   1.967   2.145  11.719 -0.4935 -0.0284 -0.6890
 4822SOL    HW129886   2.047   2.147  11.666 -0.6655 -1.0339 -1.0028
 4822SOL    HW229887   1.981   2.072  11.779 -0.8551  0.2877 -0.2171
 4823SOL     OW29888   1.929   2.762  10.017  0.0872 -0.1626  0.5465
 4823SOL    HW129889   1.965   2.744  10.104 -0.4078 -2.5501  0.2703
 4823SOL    HW229890   2.004   2.757   9.958  0.2689  0.5969  0.6998
 4824SOL     OW29891   3.149   1.305   2.684  0.6794 -0.4325 -0.1956
 4824SOL    HW129892   3.099   1.291   2.764 -1.0704 -0.3470 -1.2333
 4824SOL    HW229893   3.164   1.400   2.682  0.3989 -0.3838 -0.1377
 4825SOL     OW29894   0.018   5.496   9.821 -0.1762 -0.1191  0.0794
 4825SOL    HW129895   0.100   5.526   9.781 -0.0211 -0.2560  0.2934
 4825SOL    HW229896  -0.042   5.570   9.809 -0.0723 -0.0864 -0.2336
 4826SOL     OW29897   3.559   0.305   9.089 -0.5144 -0.1651  0.4304
 4826SOL    HW129898   3.652   0.295   9.110  0.1772 -0.0799 -2.4741
 4826SOL    HW229899   3.547   0.258   9.007 -2.6186  1.5131 -0.2709
 4827SOL     OW29900   0.206   3.820  11.576  0.2296  0.3409  0.6980
 4827SOL    HW129901   0.200   3.728  11.604 -1.6572  0.2437  0.0593
 4827SOL    HW229902   0.284   3.823  11.521  1.5307 -0.4049  2.4312
 4828SOL     OW29903   5.698   4.210   9.588  0.1909  0.0117 -0.1586
 4828SOL    HW129904   5.694   4.305   9.599  0.6986  0.2729 -2.0397
 4828SOL    HW229905   5.618   4.177   9.630  0.8899  1.0853  2.1083
 4829SOL     OW29906   5.640   1.081   9.582 -0.0468 -0.5672 -0.4945
 4829SOL    HW129907   5.548   1.096   9.562 -0.3505 -0.1354  1.1288
 4829SOL    HW229908   5.658   0.992   9.552 -0.2456  0.3136 -3.3492
 4830SOL     OW29909   4.439   2.201  12.048 -1.3727  0.1408  0.4919
 4830SOL    HW129910   4.424   2.295  12.062 -1.6677 -0.1274  2.1052
 4830SOL    HW229911   4.532   2.189  12.065 -1.4423  0.0533  0.8175
 4831SOL     OW29912   1.333   3.576   8.520  0.2747 -0.1306  0.3053
 4831SOL    HW129913   1.263   3.641   8.513  0.6083  0.5121  2.5260
 4831SOL    HW229914   1.289   3.492   8.512 -0.4866  0.3126 -0.2453
 4832SOL     OW29915   2.155   1.645   2.316  0.1948 -0.0369  0.3362
 4832SOL    HW129916   2.105   1.650   2.234 -0.4191 -1.8494  0.5804
 4832SOL    HW229917   2.088   1.640   2.384  0.7128  0.9680  0.9305
 4833SOL     OW29918   5.804   2.022  10.050 -0.3416  0.6726  0.2916
 4833SOL    HW129919   5.854   2.029   9.969 -0.5861  1.7409  0.2312
 4833SOL    HW229920   5.779   2.112  10.071  1.1955  0.6362  2.4824
 4834SOL     OW29921   4.433   5.673   0.203  0.6819  0.1006  0.0159
 4834SOL    HW129922   4.350   5.719   0.209  0.6260 -0.0196  0.1832
 4834SOL    HW229923   4.492   5.722   0.261  1.0910  0.9513 -1.0952
 4835SOL     OW29924   2.432   4.580   2.418 -0.2091 -0.0718  0.1963
 4835SOL    HW129925   2.348   4.619   2.396 -0.8907 -1.9436 -0.6062
 4835SOL    HW229926   2.447   4.605   2.509 -1.9672 -0.2924  0.5570
 4836SOL     OW29927   3.828   0.479   3.311 -0.4732 -0.0667  0.0151
 4836SOL    HW129928   3.825   0.507   3.219  0.1748  0.5742  0.1778
 4836SOL    HW229929   3.770   0.541   3.356 -0.7875 -0.3779  0.0393
 4837SOL     OW29930   5.176   1.118  12.222  0.2508  0.1794  0.1628
 4837SOL    HW129931   5.237   1.121  12.148 -1.6331  0.9257 -1.3985
 4837SOL    HW229932   5.128   1.200  12.216 -2.8602 -1.6264 -0.3409
 4838SOL     OW29933   0.755   0.780   9.370  0.0235  0.3240  0.3810
 4838SOL    HW129934   0.758   0.848   9.437  1.0305  0.3432  0.3268
 4838SOL    HW229935   0.846   0.756   9.357 -0.1781  0.2384 -0.9081
 4839SOL     OW29936   2.236   0.315  12.169  0.1288 -0.2700 -0.6279
 4839SOL    HW129937   2.197   0.269  12.243  2.0222  0.1104  0.6473
 4839SOL    HW229938   2.254   0.403  12.202 -0.3270  0.3617 -1.9920
 4840SOL     OW29939   4.130   0.073   0.993  0.2921 -0.5343 -0.4051
 4840SOL    HW129940   4.084   0.125   1.060  0.9698 -0.2146 -0.1769
 4840SOL    HW229941   4.167   0.138   0.933 -1.4397 -0.8591 -1.8619
 4841SOL     OW29942   5.472   2.999   2.491 -0.5883  0.0212  0.0954
 4841SOL    HW129943   5.507   2.910   2.483 -3.1754 -0.8794 -2.1120
 4841SOL    HW229944   5.442   3.005   2.582 -0.6174 -1.4611  0.1933
 4842SOL     OW29945   4.255   2.753   0.956 -0.0451  0.3613 -0.3565
 4842SOL    HW129946   4.237   2.659   0.958  0.2099  0.3281  0.4100
 4842SOL    HW229947   4.312   2.765   0.880  0.4159 -0.1894 -0.0983
 4843SOL     OW29948   1.363   1.113   0.306  0.7530  0.2609 -0.2084
 4843SOL    HW129949   1.328   1.049   0.245  0.9508 -0.5870  0.5458
 4843SOL    HW229950   1.289   1.171   0.326  0.7034  0.5643 -1.2675
 4844SOL     OW29951   0.964   4.442  10.218 -0.2013  0.1184 -0.0150
 4844SOL    HW129952   0.975   4.371  10.281  1.9576 -0.0860 -0.5543
 4844SOL    HW229953   1.020   4.512  10.252 -1.8311  1.3364  0.1782
 4845SOL     OW29954   1.694   0.441   7.765 -0.2936  0.2649 -0.3101
 4845SOL    HW129955   1.620   0.444   7.705  0.3313  4.2114 -1.0085
 4845SOL    HW229956   1.771   0.451   7.708  0.4191  2.0050  0.9121
 4846SOL     OW29957   2.678   0.813   3.505 -0.1903 -0.2324 -0.1512
 4846SOL    HW129958   2.764   0.788   3.471 -0.2707 -0.4336 -0.2062
 4846SOL    HW229959   2.691   0.820   3.600 -0.4673 -1.6828 -0.0024
 4847SOL     OW29960   4.161   1.831   0.893 -0.3308  0.0002  0.3776
 4847SOL    HW129961   4.163   1.921   0.861 -0.6651 -0.0090  0.3246
 4847SOL    HW229962   4.109   1.836   0.974 -0.3744 -0.1478  0.3593
 4848SOL     OW29963   4.387   3.432   1.141  0.4518 -0.0955 -0.5352
 4848SOL    HW129964   4.449   3.487   1.093  1.1180  0.0535  0.4871
 4848SOL    HW229965   4.322   3.494   1.174  0.4805 -0.0845 -0.4963
 4849SOL     OW29966   1.158   0.965  11.585  0.0783 -0.0209 -0.9880
 4849SOL    HW129967   1.093   1.030  11.559 -0.5929 -0.5846 -0.7656
 4849SOL    HW229968   1.113   0.914  11.653  1.4716  0.8661  0.6200
 4850SOL     OW29969   2.894   5.773   3.737  0.9133  0.5956 -0.0963
 4850SOL    HW129970   2.895   5.865   3.762 -0.1908  0.3860  0.7658
 4850SOL    HW229971   2.816   5.737   3.779  1.8658 -0.9574  0.4007
 4851SOL     OW29972   1.988   5.739   9.527 -0.1187  0.3950 -0.0299
 4851SOL    HW129973   1.940   5.751   9.609  1.9071 -1.5334  1.4944
 4851SOL    HW229974   2.049   5.812   9.525  1.8164 -1.1187  1.6769
 4852SOL     OW29975   2.400   3.752  10.569 -0.0945 -0.1258  0.3977
 4852SOL    HW129976   2.432   3.704  10.646 -0.0005 -0.1071  0.3712
 4852SOL    HW229977   2.455   3.830  10.565  0.8728 -0.8519 -0.5493
 4853SOL     OW29978   3.755   0.418   1.803 -0.3419 -0.0137  0.2920
 4853SOL    HW129979   3.662   0.427   1.783  0.1550  0.1110 -2.1261
 4853SOL    HW229980   3.761   0.431   1.898 -2.4736  2.3548  0.1441
 4854SOL     OW29981   3.672   3.401   2.159  0.3039 -0.2057 -0.1669
 4854SOL    HW129982   3.600   3.460   2.183  0.8345  1.0453 -1.5137
 4854SOL    HW229983   3.709   3.441   2.080  1.6396 -1.5555 -0.2377
 4855SOL     OW29984   4.043   1.024   1.111  0.1238 -0.1275  0.2593
 4855SOL    HW129985   4.027   1.077   1.189  0.9482 -0.5462  0.7230
 4855SOL    HW229986   3.956   0.993   1.085 -0.4465  1.9037 -0.3615
 4856SOL     OW29987   2.854   3.876   3.056 -0.1769 -0.3553  0.2748
 4856SOL    HW129988   2.907   3.939   3.007 -0.3345 -0.2295  0.2662
 4856SOL    HW229989   2.809   3.825   2.989 -1.9754  1.1566  0.3061
 4857SOL     OW29990   1.691   5.842  11.424 -0.0385 -0.6073 -0.0216
 4857SOL    HW129991   1.757   5.877  11.484  0.2563  0.7750 -1.1184
 4857SOL    HW229992   1.739   5.823  11.343 -0.9077  0.0697 -0.7082
 4858SOL     OW29993   2.775   4.482   2.616  0.3122 -0.3744 -0.6300
 4858SOL    HW129994   2.748   4.428   2.690  1.9676 -2.4365 -1.4828
 4858SOL    HW229995   2.869   4.466   2.607  0.0547 -0.5682 -3.4730
 4859SOL     OW29996   2.737   4.981   0.799  0.5437  0.1491 -0.4340
 4859SOL    HW129997   2.674   5.051   0.816 -1.7783 -2.1569  0.6800
 4859SOL    HW229998   2.703   4.935   0.723  1.8889 -0.0002 -0.9619
 4860SOL     OW29999   0.836   1.459   2.610 -0.2043 -0.0468 -0.0098
 4860SOL    HW130000   0.777   1.519   2.655 -0.8864 -1.3666  0.8686
 4860SOL    HW230001   0.779   1.405   2.556  0.6160  1.6994 -2.7637
 4861SOL     OW30002   0.924   0.570   1.017 -0.0223  0.0391 -0.0223
 4861SOL    HW130003   0.888   0.543   1.101  2.6781 -0.8933  0.8688
 4861SOL    HW230004   0.924   0.491   0.964  0.2209  0.1488 -0.1900
 4862SOL     OW30005   5.138   0.961   3.250  0.1891  0.1581 -0.4755
 4862SOL    HW130006   5.153   1.021   3.177  1.9437  0.2703 -0.0442
 4862SOL    HW230007   5.119   1.019   3.324  1.5516  0.1895 -0.1349
 4863SOL     OW30008   1.184   4.464   9.370 -0.0913 -0.0603  0.9274
 4863SOL    HW130009   1.180   4.375   9.404 -1.2384  0.4687  2.2512
 4863SOL    HW230010   1.164   4.520   9.446 -1.1106  1.2315 -0.2481
 4864SOL     OW30011   0.038   5.885   2.202 -0.1539 -0.3183  0.6974
 4864SOL    HW130012  -0.013   5.875   2.282 -0.6210 -0.4230  0.3928
 4864SOL    HW230013   0.049   5.980   2.192  0.2613 -0.3209  1.1035
 4865SOL     OW30014   5.148   4.682   2.049 -0.2855  0.3585  0.2659
 4865SOL    HW130015   5.145   4.596   2.007 -1.3551  0.3488  0.3279
 4865SOL    HW230016   5.074   4.730   2.010 -0.0183  1.0611  0.6167
 4866SOL     OW30017   5.015   3.081  12.396 -0.2669  0.5115  0.2680
 4866SOL    HW130018   5.076   3.025  12.444 -0.3769  2.7161  3.1163
 4866SOL    HW230019   5.007   3.039  12.310  1.2335 -2.6528  1.5775
 4867SOL     OW30020   1.343   0.761  12.104  0.3409 -0.2024  0.3095
 4867SOL    HW130021   1.413   0.797  12.050 -0.7259  0.8719 -0.3823
 4867SOL    HW230022   1.273   0.739  12.042 -0.4417 -0.0254  1.1106
 4868SOL     OW30023   5.080   3.489   1.607  0.0452  0.2562 -0.0743
 4868SOL    HW130024   5.065   3.473   1.513  0.6208 -1.4773  0.0965
 4868SOL    HW230025   5.172   3.514   1.612 -0.2024  1.1908 -0.0524
 4869SOL     OW30026   1.836   3.600   0.754  0.3683  0.1236 -0.1519
 4869SOL    HW130027   1.791   3.684   0.759  1.4244  0.8480 -2.1140
 4869SOL    HW230028   1.914   3.611   0.808  0.4810  0.4071 -0.3683
 4870SOL     OW30029   2.616   1.767   1.323 -0.1611 -0.4533 -0.2544
 4870SOL    HW130030   2.681   1.798   1.385 -0.8269  1.2018 -0.3678
 4870SOL    HW230031   2.535   1.761   1.373 -0.5675  0.3110 -0.8109
 4871SOL     OW30032   5.386   3.115   1.685 -0.3744  0.4786 -0.1068
 4871SOL    HW130033   5.402   3.089   1.776  0.9950  1.4899 -0.0414
 4871SOL    HW230034   5.295   3.143   1.684 -0.6138 -0.2294  0.7905
 4872SOL     OW30035   1.295   3.712   3.767  0.0712  0.2289 -0.1137
 4872SOL    HW130036   1.257   3.654   3.833  0.8127  0.9303  0.9394
 4872SOL    HW230037   1.388   3.719   3.792  0.3385  0.5651 -1.1776
 4873SOL     OW30038   3.777   1.129   1.549 -0.2001  0.0187 -0.1669
 4873SOL    HW130039   3.765   1.074   1.472 -0.5416  0.5190 -0.4711
 4873SOL    HW230040   3.743   1.215   1.524 -1.4829 -0.1309  0.9363
 4874SOL     OW30041   4.281   4.993   8.647 -0.1786 -0.3345 -0.2252
 4874SOL    HW130042   4.188   4.975   8.633  0.1522 -1.4187 -1.0473
 4874SOL    HW230043   4.316   4.911   8.683  0.5118 -0.0003 -0.1288
 4875SOL     OW30044   0.043   2.405   0.963 -0.0658 -0.1004  0.1210
 4875SOL    HW130045  -0.048   2.383   0.984 -0.2748  0.9828  0.3721
 4875SOL    HW230046   0.072   2.459   1.036  1.2107 -1.5198  0.6923
 4876SOL     OW30047   0.088   4.790   1.838 -0.8514  0.2647  0.2692
 4876SOL    HW130048   0.099   4.882   1.814 -2.4011  0.7866  1.4629
 4876SOL    HW230049   0.007   4.763   1.795 -1.3073 -0.0508  1.3190
 4877SOL     OW30050   4.793   2.217   1.779  0.2496  0.1959 -0.5947
 4877SOL    HW130051   4.770   2.128   1.752 -0.8924 -0.0424  1.0605
 4877SOL    HW230052   4.710   2.256   1.807  1.0788  1.0165  0.7756
 4878SOL     OW30053   4.021   5.815   8.248  0.7052  0.3547 -0.2726
 4878SOL    HW130054   3.973   5.850   8.172 -0.3888 -1.4209 -0.4341
 4878SOL    HW230055   4.006   5.721   8.244  2.7800 -0.0461  0.7051
 4879SOL     OW30056   3.440   4.517  11.815  0.0274  0.1066  0.1086
 4879SOL    HW130057   3.462   4.600  11.773  0.0591 -1.0921 -2.3401
 4879SOL    HW230058   3.350   4.499  11.786 -0.0251 -0.6504  0.7361
 4880SOL     OW30059   3.790   5.663   9.432  0.2346 -0.0394  0.6758
 4880SOL    HW130060   3.835   5.617   9.362  1.3576 -0.0770  1.4199
 4880SOL    HW230061   3.697   5.655   9.410  0.5390 -0.7353 -0.3776
 4881SOL     OW30062   0.530   0.997   9.256 -0.1673  0.2641 -0.0748
 4881SOL    HW130063   0.624   0.984   9.260  0.0333  1.4630 -0.8201
 4881SOL    HW230064   0.511   1.010   9.163 -1.0437  0.2115  0.0865
 4882SOL     OW30065   5.148   2.702   1.462  0.1620 -0.6649 -0.5301
 4882SOL    HW130066   5.116   2.634   1.520  2.3830 -0.5693  0.8495
 4882SOL    HW230067   5.174   2.656   1.382  0.2649 -1.2373 -0.1663
 4883SOL     OW30068   1.653   4.566   8.472 -0.6676 -0.0184  0.2707
 4883SOL    HW130069   1.702   4.501   8.521 -1.1773 -0.8357 -0.2858
 4883SOL    HW230070   1.628   4.521   8.391 -1.6052  0.6515  0.1812
 4884SOL     OW30071   2.833   2.903  11.811 -0.0045  0.6013  0.5455
 4884SOL    HW130072   2.918   2.861  11.817 -0.4175 -0.4199 -0.5026
 4884SOL    HW230073   2.772   2.832  11.789 -0.9792  1.4536  0.4225
 4885SOL     OW30074   0.619   1.292   0.937 -0.4808 -0.1688  0.2641
 4885SOL    HW130075   0.573   1.361   0.888 -1.6868 -0.0405  1.5451
 4885SOL    HW230076   0.698   1.335   0.969 -0.3755  0.1337 -0.3740
 4886SOL     OW30077   5.646   5.362   0.864  0.1058  0.0247 -0.7879
 4886SOL    HW130078   5.606   5.439   0.906  0.7105  0.3123 -0.7408
 4886SOL    HW230079   5.707   5.328   0.929  0.3781 -0.0631 -1.0877
 4887SOL     OW30080   4.948   3.632   9.561 -0.3344  0.9252  0.2183
 4887SOL    HW130081   4.944   3.720   9.525  1.8668  0.4854 -1.1849
 4887SOL    HW230082   5.032   3.628   9.607 -0.8500 -0.1362  1.0959
 4888SOL     OW30083   1.090   1.465  12.329 -0.1641 -0.1597  0.1213
 4888SOL    HW130084   1.131   1.378  12.323 -0.8981 -0.5132  0.2097
 4888SOL    HW230085   1.005   1.449  12.369 -0.9375  0.4024 -1.2521
 4889SOL     OW30086   3.487   3.816   1.722  0.3757  0.5245 -0.2721
 4889SOL    HW130087   3.535   3.898   1.733 -0.1610  1.1826 -2.5332
 4889SOL    HW230088   3.542   3.765   1.663 -0.7449  0.4859 -1.2914
 4890SOL     OW30089   0.493   0.918  10.321 -0.1940 -0.0134 -0.1188
 4890SOL    HW130090   0.456   0.993  10.274  1.4281  2.4939  2.4160
 4890SOL    HW230091   0.547   0.873  10.256 -2.3655  0.0892 -2.0691
 4891SOL     OW30092   4.186   0.182   0.060 -0.2128  0.3761  0.3262
 4891SOL    HW130093   4.224   0.182   0.148  1.1715  0.4597 -0.2591
 4891SOL    HW230094   4.223   0.260   0.018 -1.9478  1.1204  0.1090
 4892SOL     OW30095   3.114   2.904   8.518  0.1348  0.6199  0.4573
 4892SOL    HW130096   3.207   2.884   8.507 -0.0243 -0.1180  0.4247
 4892SOL    HW230097   3.100   2.982   8.465  0.5032  0.1080 -0.3983
 4893SOL     OW30098   1.028   4.253   0.645  0.3683 -0.1761 -0.0661
 4893SOL    HW130099   0.949   4.229   0.597  0.5786 -1.9047  0.4453
 4893SOL    HW230100   0.995   4.294   0.725  0.0202  1.4357 -0.9983
 4894SOL     OW30101   4.511   2.429   2.624  0.0189  0.0972 -0.2277
 4894SOL    HW130102   4.483   2.348   2.665 -0.9246  0.7073  0.3462
 4894SOL    HW230103   4.471   2.498   2.676 -0.3026  0.9130 -1.5253
 4895SOL     OW30104   1.143   3.440   2.312  0.1595  0.7991 -0.2961
 4895SOL    HW130105   1.066   3.496   2.312  0.3498  1.0836  0.8863
 4895SOL    HW230106   1.213   3.493   2.274 -0.1008  0.7193 -0.8893
 4896SOL     OW30107   5.842   2.937   0.471  0.1288  0.2562  0.4005
 4896SOL    HW130108   5.828   3.007   0.406  0.6350 -1.0326 -1.1304
 4896SOL    HW230109   5.828   2.980   0.555 -2.4422  1.5394 -0.5987
 4897SOL     OW30110   2.060   1.842   0.444  0.5629  0.1384  0.2486
 4897SOL    HW130111   2.119   1.917   0.445 -0.1254  0.6796  0.2274
 4897SOL    HW230112   2.046   1.824   0.351  0.5635  0.1059  0.2541
 4898SOL     OW30113   5.381   5.253  11.785  0.3260  0.3813  0.0505
 4898SOL    HW130114   5.454   5.237  11.845 -0.0684  2.3320  1.1166
 4898SOL    HW230115   5.354   5.343  11.805  0.2730  1.1397 -3.1685
 4899SOL     OW30116   3.586   3.686  10.304 -0.7026 -0.3076 -0.4908
 4899SOL    HW130117   3.529   3.734  10.363 -2.5911 -2.0150 -0.8730
 4899SOL    HW230118   3.624   3.753  10.247 -1.1089  1.0167  0.7674
 4900SOL     OW30119   1.218   1.606   8.963 -0.2856  0.4472  0.2996
 4900SOL    HW130120   1.299   1.595   8.913 -1.2643  0.8671 -1.4032
 4900SOL    HW230121   1.157   1.543   8.925 -0.6639 -0.1485  1.8327
 4901SOL     OW30122   3.385   0.068   3.112 -0.0443  0.3232 -0.0806
 4901SOL    HW130123   3.429  -0.008   3.152 -2.6100 -0.7621  0.7885
 4901SOL    HW230124   3.334   0.031   3.040 -1.2359  1.2302  0.2788
 4902SOL     OW30125   0.876   3.125   0.947  0.0611  0.3073  0.2190
 4902SOL    HW130126   0.935   3.150   0.876  1.4325 -1.4482  0.7125
 4902SOL    HW230127   0.803   3.081   0.902  1.0164 -0.9718 -0.1039
 4903SOL     OW30128   4.994   5.748  10.595  0.2497  0.0494  0.2111
 4903SOL    HW130129   5.035   5.667  10.626  2.9984  1.1844 -0.2982
 4903SOL    HW230130   5.036   5.765  10.511 -0.2316  2.0445  0.3563
 4904SOL     OW30131   3.521   1.751  11.871  0.1059 -0.5618  0.4213
 4904SOL    HW130132   3.428   1.729  11.864  0.0308  0.3352 -1.5621
 4904SOL    HW230133   3.523   1.833  11.920 -0.1396 -0.6013  0.5001
 4905SOL     OW30134   4.165   1.941   9.512  0.6044  0.2580  0.0933
 4905SOL    HW130135   4.171   1.883   9.436 -1.9546  0.4715 -0.3112
 4905SOL    HW230136   4.126   1.887   9.580 -1.4513  1.3552 -0.1711
 4906SOL     OW30137   2.705   4.720   0.256 -0.5977 -0.1982 -0.0010
 4906SOL    HW130138   2.786   4.719   0.206 -0.3822  1.7683  0.2806
 4906SOL    HW230139   2.661   4.800   0.229 -0.9599  0.3610  2.1753
 4907SOL     OW30140   5.674   1.174   0.771  0.0413 -0.1600 -0.4700
 4907SOL    HW130141   5.673   1.145   0.680  2.9907  0.2527 -0.6806
 4907SOL    HW230142   5.731   1.251   0.771 -1.8841  1.3372  1.3354
 4908SOL     OW30143   4.365   0.223   9.420 -0.2568  0.2249  0.0983
 4908SOL    HW130144   4.403   0.305   9.452  1.5452 -0.6516  0.2871
 4908SOL    HW230145   4.299   0.251   9.356 -0.5962  1.8521  1.1214
 4909SOL     OW30146   5.875   2.045   2.201  0.1209 -0.2741 -0.8355
 4909SOL    HW130147   5.939   2.093   2.252 -0.1513 -1.6927  0.8753
 4909SOL    HW230148   5.923   2.016   2.123  1.7703 -1.9045  0.7456
 4910SOL     OW30149   3.772   5.838   9.096  0.6254  0.1027  0.5924
 4910SOL    HW130150   3.801   5.748   9.089  1.5656  0.4935 -0.6491
 4910SOL    HW230151   3.695   5.834   9.154  0.7485 -1.4535  0.6606
 4911SOL     OW30152   4.578   1.632   2.329  0.8082  0.4738 -0.0888
 4911SOL    HW130153   4.560   1.539   2.310 -0.7618  0.8407 -0.4835
 4911SOL    HW230154   4.595   1.671   2.244  0.0284  0.8351 -0.0869
 4912SOL     OW30155   0.927   3.184   4.645  0.3594  0.1039 -0.1176
 4912SOL    HW130156   0.877   3.232   4.579 -0.6170 -0.6057  0.0858
 4912SOL    HW230157   0.866   3.118   4.678  0.0967  1.8163  3.0354
 4913SOL     OW30158   4.891   3.047   8.732 -0.2506  0.1582 -0.2364
 4913SOL    HW130159   4.859   2.958   8.747  2.1923 -0.9261 -0.9872
 4913SOL    HW230160   4.924   3.075   8.817 -0.2401 -0.0003 -0.1857
 4914SOL     OW30161   1.979   4.046  11.763  0.6171 -0.6130  0.1156
 4914SOL    HW130162   2.020   4.106  11.700 -0.9570 -1.1336 -1.4616
 4914SOL    HW230163   2.044   3.977  11.776  1.4405  0.1312 -0.0098
 4915SOL     OW30164   1.654   3.413   1.790 -0.0282  0.8646 -0.3538
 4915SOL    HW130165   1.650   3.485   1.853 -3.0909 -0.7149  1.3464
 4915SOL    HW230166   1.736   3.428   1.742  1.4152  3.1940  2.6686
 4916SOL     OW30167   4.447   1.369   1.756  0.3142 -0.2004  0.1320
 4916SOL    HW130168   4.354   1.395   1.756  0.5483  0.7242  2.4406
 4916SOL    HW230169   4.472   1.373   1.663 -1.4868  1.2471 -0.3409
 4917SOL     OW30170   5.161   4.113   9.272  0.4635 -0.3173  0.1034
 4917SOL    HW130171   5.123   4.133   9.357  0.2173  0.3093 -0.1548
 4917SOL    HW230172   5.086   4.101   9.213  0.5556 -3.2415  0.5155
 4918SOL     OW30173   4.462   5.384  11.408  0.8185  0.0745  0.3581
 4918SOL    HW130174   4.371   5.381  11.437  0.9789  0.1830  0.8735
 4918SOL    HW230175   4.475   5.473  11.378 -0.5904 -1.0864 -4.0947
 4919SOL     OW30176   3.012   1.468   9.034  0.0035 -0.4473  0.0186
 4919SOL    HW130177   2.961   1.476   9.114  1.5410 -2.7385  1.2801
 4919SOL    HW230178   3.103   1.459   9.063  0.6847 -0.4809 -1.9927
 4920SOL     OW30179   3.662   2.931  11.041 -0.8156  0.1909  0.2215
 4920SOL    HW130180   3.665   2.878  11.121  0.4712  2.2730  1.6314
 4920SOL    HW230181   3.741   2.907  10.993 -0.2106  0.8268  0.8809
 4921SOL     OW30182   3.162   3.705  11.442  0.2598  0.4997  0.2007
 4921SOL    HW130183   3.162   3.797  11.416  1.5413 -0.0627 -1.8589
 4921SOL    HW230184   3.188   3.657  11.363 -0.2289 -1.6234  1.2851
 4922SOL     OW30185   5.839   2.668   0.184 -0.2820 -0.0544  0.1446
 4922SOL    HW130186   5.847   2.612   0.106 -0.9594 -1.8463  1.3286
 4922SOL    HW230187   5.809   2.752   0.150 -1.5302 -1.1053 -1.4484
 4923SOL     OW30188   3.419   4.470   9.121  0.3225 -0.5427 -0.2268
 4923SOL    HW130189   3.346   4.517   9.081 -0.9352 -1.0551  1.4415
 4923SOL    HW230190   3.455   4.532   9.185  0.8444 -0.5896 -0.4718
 4924SOL     OW30191   1.404   4.588   2.776  0.2745 -0.5902  0.0110
 4924SOL    HW130192   1.392   4.595   2.871  0.1463  0.0843 -0.0479
 4924SOL    HW230193   1.477   4.527   2.765  0.7198 -0.1711  0.5695
 4925SOL     OW30194   1.521   4.863  10.932 -0.5318  0.0116  0.0233
 4925SOL    HW130195   1.470   4.877  10.853 -0.2140  0.1977 -0.1523
 4925SOL    HW230196   1.493   4.777  10.964 -0.2782 -0.3032 -0.5830
 4926SOL     OW30197   3.488   2.162  10.954 -0.5022 -0.5043 -0.4416
 4926SOL    HW130198   3.445   2.085  10.917 -0.7151 -0.9082  0.6506
 4926SOL    HW230199   3.579   2.154  10.925 -0.6731 -0.7951 -0.9154
 4927SOL     OW30200   4.780   3.701   2.239 -0.2652 -0.4775  0.2552
 4927SOL    HW130201   4.737   3.626   2.199 -1.2864  0.1171  0.2321
 4927SOL    HW230202   4.829   3.664   2.313  1.0066 -1.4658 -1.0619
 4928SOL     OW30203   3.994   3.958  10.926  0.6142  0.0045 -0.5745
 4928SOL    HW130204   3.926   4.024  10.944  1.2569  1.4572 -3.2488
 4928SOL    HW230205   4.038   3.946  11.011 -2.2601 -0.1756  0.9529
 4929SOL     OW30206   3.516   0.917   0.975 -0.5417 -0.1195  0.2014
 4929SOL    HW130207   3.441   0.865   0.948  0.0429 -0.9756  0.1818
 4929SOL    HW230208   3.485   1.008   0.976 -1.7285 -0.5331  0.8040
 4930SOL     OW30209   2.350   3.354   3.044 -0.6271  0.3927  0.4592
 4930SOL    HW130210   2.329   3.261   3.042 -0.2145  0.2907  0.7204
 4930SOL    HW230211   2.336   3.380   3.135 -1.5727  0.7851  0.2073
 4931SOL     OW30212   2.726   4.096  11.909 -0.4941 -0.3315 -0.2482
 4931SOL    HW130213   2.751   4.161  11.974  0.0053 -1.3913  0.6312
 4931SOL    HW230214   2.758   4.013  11.943  0.0891 -0.8648 -2.0092
 4932SOL     OW30215   1.040   5.201  11.957 -0.1955  0.5232 -0.0382
 4932SOL    HW130216   0.962   5.162  11.918 -1.6120  0.8077  2.3773
 4932SOL    HW230217   1.107   5.133  11.952 -0.7118  0.1164 -1.7359
 4933SOL     OW30218   4.575   4.140   3.467 -0.2919 -0.2432  0.6005
 4933SOL    HW130219   4.644   4.176   3.523  0.8355 -2.2191  0.5279
 4933SOL    HW230220   4.615   4.064   3.426 -2.0641 -0.5570 -0.6017
 4934SOL     OW30221   2.806   3.219   8.938  0.3010  0.0069 -0.1988
 4934SOL    HW130222   2.720   3.236   8.900  0.4211  0.6256 -0.2070
 4934SOL    HW230223   2.788   3.173   9.019 -0.1277  1.4915  0.5713
 4935SOL     OW30224   2.322   3.468   2.602  0.4041  0.5749 -0.0089
 4935SOL    HW130225   2.240   3.478   2.555  0.2496  0.5287  0.2502
 4935SOL    HW230226   2.369   3.400   2.553 -0.1002 -0.0553  0.3775
 4936SOL     OW30227   0.031   1.051   9.215 -0.0848 -0.6142  0.4391
 4936SOL    HW130228   0.011   1.027   9.124 -2.3861  0.4049  0.6516
 4936SOL    HW230229   0.079   1.133   9.208  0.0559 -0.7216  0.1344
 4937SOL     OW30230   3.016   0.851  10.447 -0.0576 -0.2455  0.0600
 4937SOL    HW130231   3.024   0.878  10.538 -0.1739  0.9645 -0.2662
 4937SOL    HW230232   2.927   0.875  10.422  0.2587  0.2674 -0.6179
 4938SOL     OW30233   1.576   4.041   7.499 -0.0259 -0.0311  0.2638
 4938SOL    HW130234   1.491   4.074   7.470  0.2292  0.1966 -0.2362
 4938SOL    HW230235   1.563   4.017   7.590 -0.2950  1.2010  0.5539
 4939SOL     OW30236   1.865   2.865   3.665 -0.6314  0.5114  0.0807
 4939SOL    HW130237   1.863   2.771   3.646  0.5407  0.4981 -0.0294
 4939SOL    HW230238   1.876   2.870   3.760  2.4740  0.4846 -0.2226
 4940SOL     OW30239   4.334   5.861   8.511 -0.3493  0.6897 -0.0825
 4940SOL    HW130240   4.368   5.915   8.583 -0.3370 -0.9678  1.1890
 4940SOL    HW230241   4.240   5.855   8.529 -0.4125  0.6183 -0.4448
 4941SOL     OW30242   2.788   1.362   1.407 -0.3575 -0.4750  0.0546
 4941SOL    HW130243   2.694   1.374   1.418 -0.4648 -1.8020  0.7177
 4941SOL    HW230244   2.796   1.283   1.353  0.3675 -0.7812  0.5891
 4942SOL     OW30245   0.841   1.988   9.857  0.1047  0.3394  0.0587
 4942SOL    HW130246   0.860   2.057   9.920 -1.2973  0.5685  0.2448
 4942SOL    HW230247   0.753   1.957   9.880 -0.2255  0.0807 -1.4584
 4943SOL     OW30248   2.034   0.701   7.839  0.6280 -0.1410  0.0848
 4943SOL    HW130249   1.959   0.719   7.896  1.7464  1.0781  1.2121
 4943SOL    HW230250   2.084   0.634   7.886  1.4647  0.7459  0.4922
 4944SOL     OW30251   5.059   5.469  10.630  0.4947  0.5664  0.9130
 4944SOL    HW130252   5.106   5.457  10.548  1.3920 -3.0472  1.8263
 4944SOL    HW230253   4.981   5.413  10.622 -0.2994  1.5104  1.8535
 4945SOL     OW30254   2.161   2.646   9.832  0.1943 -0.0685  0.5439
 4945SOL    HW130255   2.167   2.589   9.908 -4.2578  1.0261  1.8226
 4945SOL    HW230256   2.123   2.592   9.763 -0.9849  0.4772  0.7692
 4946SOL     OW30257   0.350   5.668   1.629  0.1778  0.0369 -0.3515
 4946SOL    HW130258   0.289   5.673   1.703 -0.8702  0.4308 -1.2341
 4946SOL    HW230259   0.421   5.728   1.653 -0.6796  0.9806 -0.1334
 4947SOL     OW30260   0.471   3.818   2.190  0.0764 -0.2248 -0.5006
 4947SOL    HW130261   0.548   3.853   2.235  0.0271 -1.3772  0.4852
 4947SOL    HW230262   0.491   3.830   2.097 -0.2370  3.0736 -0.2095
 4948SOL     OW30263   5.476   1.259  11.922  0.4457  0.1457 -0.0436
 4948SOL    HW130264   5.382   1.243  11.926  0.1833  1.2716 -1.4905
 4948SOL    HW230265   5.485   1.354  11.928  1.4455  0.0934 -0.5960
 4949SOL     OW30266   1.818   0.548   1.683  0.4492  0.2190 -0.2610
 4949SOL    HW130267   1.769   0.621   1.644 -0.9714 -1.0719 -0.9769
 4949SOL    HW230268   1.775   0.470   1.648  2.3126 -0.9614  0.0309
 4950SOL     OW30269   2.842   1.123   2.887 -0.0793 -0.0369 -0.7628
 4950SOL    HW130270   2.897   1.176   2.944  1.9751 -3.2373  0.3348
 4950SOL    HW230271   2.755   1.127   2.926 -0.0535  2.6834 -0.8756
 4951SOL     OW30272   3.063   0.345  11.058 -0.7193 -0.2100 -0.2064
 4951SOL    HW130273   3.060   0.426  11.110  0.8163  0.1626 -0.6592
 4951SOL    HW230274   3.040   0.373  10.969  0.6901 -0.0930 -0.5462
 4952SOL     OW30275   1.793   4.022   0.702  0.4739  0.3329 -0.0299
 4952SOL    HW130276   1.760   3.967   0.773  1.1649  1.4821  1.2013
 4952SOL    HW230277   1.888   4.021   0.713  0.4274  2.9968  0.9644
 4953SOL     OW30278   0.752   3.288  12.339 -0.4500  0.0896  0.4517
 4953SOL    HW130279   0.807   3.310  12.415 -1.9738  0.5712  1.4357
 4953SOL    HW230280   0.736   3.372  12.297  1.3559 -0.3126 -1.1005
 4954SOL     OW30281   5.320   4.372   3.368 -0.0055  0.4441 -0.4180
 4954SOL    HW130282   5.386   4.431   3.403  1.0794 -1.9658  1.7635
 4954SOL    HW230283   5.361   4.332   3.291  0.3858  0.3289 -0.1519
 4955SOL     OW30284   0.142   0.926  10.059  1.1981 -0.1354  0.2283
 4955SOL    HW130285   0.142   0.871  10.137 -0.9173 -0.8306 -0.2247
 4955SOL    HW230286   0.055   0.914  10.021  1.8806  0.8958 -1.7438
 4956SOL     OW30287   2.549   5.156  11.612 -0.4794 -1.2322  0.1615
 4956SOL    HW130288   2.500   5.227  11.652 -1.1100 -0.8629 -1.2337
 4956SOL    HW230289   2.524   5.078  11.661 -2.1713 -0.9841 -0.2771
 4957SOL     OW30290   5.446   1.895   9.657  0.4039  0.0274 -0.0047
 4957SOL    HW130291   5.514   1.839   9.693  0.6941  1.1338  1.2378
 4957SOL    HW230292   5.405   1.843   9.588  2.3037 -0.7600 -0.5768
 4958SOL     OW30293   0.573   4.547   8.548  0.4006  0.1400 -0.0087
 4958SOL    HW130294   0.498   4.572   8.494  1.5578 -0.2118 -1.8356
 4958SOL    HW230295   0.584   4.620   8.608 -1.5838  0.0633  0.4846
 4959SOL     OW30296   1.675   1.023   2.171  0.1478 -0.3488 -0.1493
 4959SOL    HW130297   1.769   1.017   2.151  0.2810  2.3069 -0.4610
 4959SOL    HW230298   1.668   0.994   2.261  1.3815  0.0516  0.0835
 4960SOL     OW30299   5.536   3.069  10.391 -0.1631 -0.2447 -0.4485
 4960SOL    HW130300   5.450   3.106  10.373 -0.6926 -0.5255  1.3858
 4960SOL    HW230301   5.518   2.981  10.425  0.7626  0.2866  1.4447
 4961SOL     OW30302   3.516   0.910   2.796  0.0181 -0.6110  0.1607
 4961SOL    HW130303   3.551   0.886   2.882  1.0840  1.9033  0.4890
 4961SOL    HW230304   3.433   0.862   2.789  0.7917 -2.2412  1.8051
 4962SOL     OW30305   3.705   5.795  12.179 -0.3312  0.1214  0.2626
 4962SOL    HW130306   3.738   5.794  12.089 -0.2057  0.7202  0.2956
 4962SOL    HW230307   3.703   5.703  12.206 -0.0269 -0.0294 -0.2279
 4963SOL     OW30308   2.749   4.209  10.701 -0.4689 -0.1948 -0.4089
 4963SOL    HW130309   2.831   4.249  10.730  1.2306 -2.2728 -2.1510
 4963SOL    HW230310   2.724   4.151  10.773 -0.2872  0.2950  0.0499
 4964SOL     OW30311   0.661   3.577  12.297 -0.1819  0.3612 -0.0175
 4964SOL    HW130312   0.697   3.659  12.329 -0.4784  0.3375  0.3726
 4964SOL    HW230313   0.568   3.581  12.319  0.1496 -0.8944  1.6717
 4965SOL     OW30314   4.839   2.061  12.402  0.3534 -0.6401 -0.3131
 4965SOL    HW130315   4.906   2.060  12.470  0.6349 -0.1173 -0.5773
 4965SOL    HW230316   4.756   2.054  12.449  0.5367 -0.0878  0.0988
 4966SOL     OW30317   4.032   1.682  12.228  0.5964  0.3054 -0.4505
 4966SOL    HW130318   3.953   1.646  12.267  0.8052 -1.8248 -1.9092
 4966SOL    HW230319   4.103   1.649  12.284  0.6565 -0.1894 -0.8110
 4967SOL     OW30320   0.732   3.470   8.442 -0.0719  0.3257  0.0024
 4967SOL    HW130321   0.729   3.437   8.532 -0.8500 -0.5934 -0.3590
 4967SOL    HW230322   0.741   3.565   8.452 -2.8662  0.5279  1.0648
 4968SOL     OW30323   2.381   0.102   7.543 -0.0334  0.0251 -0.1207
 4968SOL    HW130324   2.350   0.015   7.570  1.1845 -1.9531 -4.6217
 4968SOL    HW230325   2.475   0.100   7.562 -0.1187  0.6458  0.3818
 4969SOL     OW30326   1.907   1.014   7.844 -0.3932  0.1212  0.5608
 4969SOL    HW130327   1.868   0.927   7.836 -1.8399  0.7321  0.8227
 4969SOL    HW230328   1.971   1.018   7.773 -0.3690 -1.1274  0.5062
 4970SOL     OW30329   1.328   0.464  10.295 -0.3087  0.1713  0.2827
 4970SOL    HW130330   1.319   0.553  10.329 -1.3294  0.5288 -0.8782
 4970SOL    HW230331   1.378   0.417  10.362 -0.5450  1.3787  1.3151
 4971SOL     OW30332   4.750   5.119   9.076  1.1105 -0.1110  0.3874
 4971SOL    HW130333   4.700   5.132   8.995  0.8687  0.8580  0.6824
 4971SOL    HW230334   4.841   5.113   9.047  1.3255  2.7909  0.2183
 4972SOL     OW30335   3.567   5.661   8.708 -0.1124  0.0789  0.7914
 4972SOL    HW130336   3.541   5.730   8.769  0.0337  0.2627  0.6467
 4972SOL    HW230337   3.662   5.672   8.699  0.0218 -0.5945  1.3258
 4973SOL     OW30338   0.687   2.521  11.634  0.2519  0.3121 -0.4165
 4973SOL    HW130339   0.766   2.495  11.682  0.4608 -0.9110 -1.4202
 4973SOL    HW230340   0.667   2.609  11.668  0.8259 -0.2284  1.3621
 4974SOL     OW30341   4.229   0.696   2.758 -0.2192 -0.2190 -0.3275
 4974SOL    HW130342   4.145   0.677   2.799 -1.4408 -1.0329 -3.0929
 4974SOL    HW230343   4.263   0.770   2.808 -1.2208 -1.6825  2.6370
 4975SOL     OW30344   5.284   3.924   0.317 -0.1059 -0.0484 -0.4875
 4975SOL    HW130345   5.194   3.894   0.329 -0.4835  0.2232 -2.5173
 4975SOL    HW230346   5.325   3.910   0.403 -1.4178 -2.3891 -0.1963
 4976SOL     OW30347   1.610   5.279  11.077 -0.1131  0.1249  0.3919
 4976SOL    HW130348   1.621   5.269  10.982  2.1708  1.6490  0.4733
 4976SOL    HW230349   1.651   5.201  11.113 -1.9915 -1.0338  0.1247
 4977SOL     OW30350   1.712   1.221  11.296  0.5319 -0.2934 -0.3484
 4977SOL    HW130351   1.696   1.269  11.215 -0.1220  0.9547  0.5121
 4977SOL    HW230352   1.710   1.287  11.364 -0.6381 -1.5732  0.8930
 4978SOL     OW30353   3.633   5.670  10.415 -0.1151 -0.2874 -0.5420
 4978SOL    HW130354   3.627   5.742  10.479  1.2531 -0.4862 -0.1750
 4978SOL    HW230355   3.727   5.655  10.405 -0.3907 -1.8520 -0.8216
 4979SOL     OW30356   0.082   0.273   8.336  0.5671  0.0931 -0.1403
 4979SOL    HW130357   0.163   0.262   8.385  2.0819 -0.7313 -2.6815
 4979SOL    HW230358   0.034   0.191   8.349  0.9567 -0.1208 -0.0629
 4980SOL     OW30359   0.607   1.285   9.861  0.0563  0.2667  0.4260
 4980SOL    HW130360   0.645   1.367   9.828  2.5105 -1.6807 -1.8292
 4980SOL    HW230361   0.560   1.248   9.786 -0.4831 -0.7011  1.2268
 4981SOL     OW30362   5.452   0.175   9.245  0.1191 -0.0108 -0.1057
 4981SOL    HW130363   5.371   0.183   9.194 -0.4770 -0.3903  0.7789
 4981SOL    HW230364   5.460   0.081   9.263  1.4541 -0.1623 -1.3014
 4982SOL     OW30365   3.082   1.338   3.955  0.0003 -0.2034  0.8561
 4982SOL    HW130366   3.091   1.397   3.879  2.1029 -0.7086  0.6717
 4982SOL    HW230367   3.011   1.278   3.930 -0.9381  1.1171  0.2896
 4983SOL     OW30368   0.834   1.012   0.416 -0.2606  0.0276 -0.0393
 4983SOL    HW130369   0.779   0.937   0.439 -0.5318  0.6689  1.4673
 4983SOL    HW230370   0.780   1.089   0.433  0.8570  0.6460  0.8173
 4984SOL     OW30371   0.307   2.369   3.309 -0.0452 -0.1731  0.0638
 4984SOL    HW130372   0.316   2.456   3.271  2.3698 -0.8002 -0.9291
 4984SOL    HW230373   0.270   2.316   3.239 -0.7033 -0.1451  0.3850
 4985SOL     OW30374   5.712   0.693   1.221 -0.1626  0.5441 -0.0529
 4985SOL    HW130375   5.617   0.683   1.220 -0.0434 -0.7067  0.0977
 4985SOL    HW230376   5.741   0.638   1.293  0.9918 -2.4483 -2.6669
 4986SOL     OW30377   0.889   2.370  11.760 -0.2451 -0.0834 -0.0988
 4986SOL    HW130378   0.886   2.286  11.713 -1.3318 -0.2268  0.2050
 4986SOL    HW230379   0.958   2.358  11.825  1.2125  0.0895 -1.5757
 4987SOL     OW30380   2.268   2.317   8.144 -0.0092  0.3983 -0.2326
 4987SOL    HW130381   2.359   2.328   8.171  0.1530 -0.6277 -0.3203
 4987SOL    HW230382   2.256   2.222   8.140 -0.3444  0.5197 -2.6679
 4988SOL     OW30383   1.930   5.027   1.228  0.0137 -0.5345  0.4941
 4988SOL    HW130384   2.006   4.984   1.267 -0.4517 -0.3316  1.6325
 4988SOL    HW230385   1.868   4.955   1.213 -0.1469 -0.4843  0.9234
 4989SOL     OW30386   3.964   2.051   2.381 -0.0315 -0.3149  0.6219
 4989SOL    HW130387   4.052   2.087   2.383  0.4105 -1.1525 -1.7307
 4989SOL    HW230388   3.927   2.073   2.466  1.5293  2.3294  0.6662
 4990SOL     OW30389   2.437   4.620   2.688 -0.1287  0.0265 -0.1154
 4990SOL    HW130390   2.381   4.681   2.735  1.1539  2.1224 -1.1888
 4990SOL    HW230391   2.511   4.605   2.748  0.8054  1.5789 -0.8321
 4991SOL     OW30392   5.500   4.579   2.118  0.7513 -0.2676  0.1607
 4991SOL    HW130393   5.477   4.641   2.187  1.7119  0.1476  0.1197
 4991SOL    HW230394   5.589   4.550   2.141  1.3790  0.4409 -1.2879
 4992SOL     OW30395   4.261   0.415   2.728 -0.2344 -0.2318  0.2275
 4992SOL    HW130396   4.294   0.413   2.817 -0.1669 -1.5621  0.1859
 4992SOL    HW230397   4.254   0.508   2.707 -1.6197  0.1326  2.1197
 4993SOL     OW30398   2.605   0.432  10.151  0.4223  0.1261  0.3202
 4993SOL    HW130399   2.679   0.460  10.206  1.0813  1.2464 -1.0936
 4993SOL    HW230400   2.634   0.450  10.062 -1.0412 -0.7029 -0.3327
 4994SOL     OW30401   5.035   2.489   2.016  0.5326  0.2168 -0.1019
 4994SOL    HW130402   5.020   2.583   2.025 -0.5162  0.0409 -0.0140
 4994SOL    HW230403   4.976   2.449   2.080 -0.2353 -0.5853 -1.2959
 4995SOL     OW30404   3.877   1.184  10.774 -0.6898 -0.0583 -0.0268
 4995SOL    HW130405   3.883   1.263  10.828 -1.9719  0.1446 -0.1563
 4995SOL    HW230406   3.939   1.199  10.703 -1.2981  1.0861 -0.3329
 4996SOL     OW30407   5.701   0.347  11.927  0.0938  0.5150 -0.0510
 4996SOL    HW130408   5.767   0.281  11.907  1.4844  1.7834  0.1854
 4996SOL    HW230409   5.726   0.422  11.873 -2.9396  0.0337 -2.2677
 4997SOL     OW30410   0.483   2.034   1.296 -0.3952 -0.1540  0.4198
 4997SOL    HW130411   0.518   2.120   1.270  2.4668 -1.5638 -0.6326
 4997SOL    HW230412   0.552   1.996   1.350 -2.2967 -1.2104  2.1605
 4998SOL     OW30413   5.025   2.756   1.940  0.4588  0.2761  0.4650
 4998SOL    HW130414   5.000   2.830   1.997  2.0807  1.0380  0.2119
 4998SOL    HW230415   4.967   2.764   1.865 -0.5506  0.2720  1.2281
 4999SOL     OW30416   1.037   2.712   1.697 -0.2768  0.5800  0.4045
 4999SOL    HW130417   1.053   2.802   1.724  0.2713  0.3703  0.7934
 4999SOL    HW230418   0.972   2.679   1.759  0.4854  0.3061  1.0673
 5000SOL     OW30419   0.898   5.061   3.426  0.5535 -0.2639  0.3765
 5000SOL    HW130420   0.929   5.118   3.356  1.2707  0.0188  0.9185
 5000SOL    HW230421   0.977   5.034   3.472  0.0451  0.0730  1.4722
 5001SOL     OW30422   2.678   1.633  11.414 -0.0977  0.2450  0.1737
 5001SOL    HW130423   2.716   1.633  11.326 -0.0064 -0.4738  0.2057
 5001SOL    HW230424   2.639   1.719  11.424 -0.3326  0.2387 -0.6712
 5002SOL     OW30425   2.849   3.147  10.291  0.1424 -0.0993  0.3638
 5002SOL    HW130426   2.884   3.162  10.204 -0.9745  0.9989  0.1019
 5002SOL    HW230427   2.757   3.173  10.286 -0.2927 -1.3188  1.5006
 5003SOL     OW30428   3.801   4.089   0.457 -0.0894 -0.2197  0.0158
 5003SOL    HW130429   3.838   4.032   0.389  0.3559 -1.1084  0.9892
 5003SOL    HW230430   3.717   4.117   0.422  1.1490  1.1976 -1.9018
 5004SOL     OW30431   4.416   1.959   9.684  0.2086 -0.2835  0.1555
 5004SOL    HW130432   4.454   2.045   9.666  0.9156 -0.8841 -1.3032
 5004SOL    HW230433   4.322   1.971   9.672  0.0924  0.7466  1.8959
 5005SOL     OW30434   0.963   3.613  11.781 -0.4218 -0.6431 -0.3091
 5005SOL    HW130435   1.044   3.579  11.820  0.6443  0.7968 -1.2087
 5005SOL    HW230436   0.896   3.599  11.848  0.7547 -1.0574  0.7910
 5006SOL     OW30437   2.907   0.874   4.245  0.1222 -0.0485  0.2670
 5006SOL    HW130438   2.898   0.943   4.310 -0.2004  1.0091 -0.8710
 5006SOL    HW230439   2.980   0.902   4.189 -1.6594  0.6851 -1.7591
 5007SOL     OW30440   5.139   5.318   8.027 -1.0488 -0.1731  0.5476
 5007SOL    HW130441   5.046   5.321   8.005 -1.0754  0.6740  0.7303
 5007SOL    HW230442   5.150   5.389   8.090 -0.2846 -0.2923  0.5474
 5008SOL     OW30443   5.641   3.404  12.086  0.0034 -0.5600  0.2140
 5008SOL    HW130444   5.731   3.372  12.082  0.3630  0.3588  0.6952
 5008SOL    HW230445   5.647   3.495  12.058 -0.7404 -0.4224  0.4880
 5009SOL     OW30446   3.173   1.833   8.815 -0.0857 -0.1602 -0.6302
 5009SOL    HW130447   3.144   1.749   8.851 -1.1692  0.1550 -0.7608
 5009SOL    HW230448   3.107   1.896   8.844  1.5963  0.9722  0.8966
 5010SOL     OW30449   0.722   2.021   3.940 -0.4170  0.6966 -0.5014
 5010SOL    HW130450   0.816   2.017   3.956 -0.5183  0.1482 -0.0331
 5010SOL    HW230451   0.692   2.094   3.993 -0.1273  1.4173 -1.3100
 5011SOL     OW30452   0.018  -0.032   0.147  0.2067 -0.3151 -0.6796
 5011SOL    HW130453  -0.056  -0.002   0.094  1.1017 -0.0964 -1.8227
 5011SOL    HW230454   0.046   0.045   0.196  0.1258 -0.2247 -0.7751
 5012SOL     OW30455   0.344   2.290   9.534  0.3866 -0.2029 -0.4963
 5012SOL    HW130456   0.376   2.380   9.525  2.5855 -1.1734 -3.3543
 5012SOL    HW230457   0.270   2.285   9.474 -0.6132  0.0392  0.6923
 5013SOL     OW30458   0.114   5.064  11.211  0.0437 -0.2148  0.0715
 5013SOL    HW130459   0.163   4.986  11.240 -1.4508 -0.9477  0.7239
 5013SOL    HW230460   0.142   5.078  11.121  2.6058  0.3248  0.9203
 5014SOL     OW30461   1.115   0.975   1.086  0.2506  0.0120 -0.4719
 5014SOL    HW130462   1.122   0.921   1.007  2.1822 -0.0340 -0.3058
 5014SOL    HW230463   1.071   1.055   1.057 -0.6342 -0.7268 -1.2035
 5015SOL     OW30464   4.179   5.599  10.869  0.0131 -0.4770  0.0820
 5015SOL    HW130465   4.178   5.505  10.848 -1.0313 -0.7535  1.3304
 5015SOL    HW230466   4.129   5.640  10.798  2.6087 -0.5165 -1.8941
 5016SOL     OW30467   3.334   3.181   9.687  0.2121 -0.0924  0.3272
 5016SOL    HW130468   3.428   3.163   9.691  0.1118 -0.8028 -0.3649
 5016SOL    HW230469   3.318   3.206   9.596  0.2068  2.8555  1.0771
 5017SOL     OW30470   2.264   3.185   9.684 -0.1440 -0.5769  0.2299
 5017SOL    HW130471   2.245   3.096   9.712 -1.6648 -0.6382 -0.9442
 5017SOL    HW230472   2.201   3.239   9.732 -0.7563 -0.3764 -0.7818
 5018SOL     OW30473   0.412   4.268  11.437 -0.1714  0.2911 -0.0135
 5018SOL    HW130474   0.498   4.281  11.397 -0.4106 -1.5835 -1.2124
 5018SOL    HW230475   0.423   4.190  11.492 -1.1172  0.0034 -0.2308
 5019SOL     OW30476   1.587   1.400  10.909  0.5461 -0.8241 -0.0945
 5019SOL    HW130477   1.530   1.358  10.844 -0.8280  1.1695 -0.2299
 5019SOL    HW230478   1.536   1.397  10.991  1.0071 -0.6406  0.2017
 5020SOL     OW30479   1.227   1.753   0.324  0.8015 -0.2636 -0.1694
 5020SOL    HW130480   1.266   1.819   0.267 -1.5484 -0.1776 -1.7249
 5020SOL    HW230481   1.301   1.720   0.376  3.3046 -1.1798 -4.0570
 5021SOL     OW30482   2.995   4.730   0.552 -0.8049  0.0862  0.3697
 5021SOL    HW130483   3.086   4.721   0.523 -1.1262 -0.4416 -0.5114
 5021SOL    HW230484   2.988   4.821   0.580 -0.2330  0.3771 -0.3950
 5022SOL     OW30485   1.091   1.464   2.514  0.0007 -0.1073  0.0369
 5022SOL    HW130486   1.069   1.502   2.429  1.0531  2.4190  0.8365
 5022SOL    HW230487   1.007   1.434   2.550 -0.6850  0.2983 -1.2023
 5023SOL     OW30488   5.010   0.373   2.032 -0.8330 -0.3840 -0.3690
 5023SOL    HW130489   5.062   0.418   2.099 -2.8477  0.2381  0.8132
 5023SOL    HW230490   5.063   0.381   1.952  0.6159  0.7424  0.6570
 5024SOL     OW30491   3.904   2.591   9.986 -0.4363  0.7044  0.4719
 5024SOL    HW130492   3.931   2.608  10.076  0.7801  1.9623 -0.1079
 5024SOL    HW230493   3.859   2.507   9.990  0.9662 -0.0042  1.9878
 5025SOL     OW30494   5.495   3.811  11.594 -0.1734 -0.3216  0.5414
 5025SOL    HW130495   5.536   3.881  11.544 -0.2947 -0.4003  0.3302
 5025SOL    HW230496   5.495   3.736  11.534 -0.7355 -0.2881  0.4931
 5026SOL     OW30497   0.644   4.684  10.429 -0.1911 -0.4069 -0.2772
 5026SOL    HW130498   0.619   4.614  10.368 -0.7277 -0.9893  0.5927
 5026SOL    HW230499   0.698   4.641  10.495 -1.9035 -0.3745  1.2049
 5027SOL     OW30500   4.899   0.704   9.953  0.3662  0.0670 -0.0101
 5027SOL    HW130501   4.942   0.761  10.017  2.8756 -0.7252 -0.9031
 5027SOL    HW230502   4.858   0.635  10.005 -0.2256  1.0944  0.9005
 5028SOL     OW30503   0.511   1.660   9.431 -0.3319 -0.0440 -0.3988
 5028SOL    HW130504   0.507   1.587   9.493 -2.0794  1.4841  1.3314
 5028SOL    HW230505   0.600   1.694   9.440 -0.1181 -0.7468  0.1922
 5029SOL     OW30506   2.495   3.020  10.872  0.3683 -0.6143  0.5528
 5029SOL    HW130507   2.406   2.985  10.878 -0.0016  0.5243  2.0110
 5029SOL    HW230508   2.502   3.054  10.783 -0.3686 -1.4798  0.1609
 5030SOL     OW30509   3.875   1.683   8.883  0.2747  0.1215  0.5254
 5030SOL    HW130510   3.779   1.684   8.891  0.2410  2.7220  0.3311
 5030SOL    HW230511   3.891   1.694   8.789  0.7183  2.4113  0.8210
 5031SOL     OW30512   0.118   4.535   2.209 -0.6020 -0.1613 -0.5820
 5031SOL    HW130513   0.174   4.568   2.279  1.0493 -1.5994 -1.1804
 5031SOL    HW230514   0.049   4.601   2.199  0.4840  1.1999  0.7784
 5032SOL     OW30515   1.121   4.351   8.658 -0.1616  0.0776 -0.2033
 5032SOL    HW130516   1.200   4.306   8.689  0.5624  1.3419 -0.1782
 5032SOL    HW230517   1.059   4.344   8.731  1.0114  1.7580  0.9847
 5033SOL     OW30518   4.319   2.844  11.112  0.3383  0.3350  0.5512
 5033SOL    HW130519   4.278   2.928  11.131 -1.7328 -0.7849  1.2000
 5033SOL    HW230520   4.246   2.785  11.095  1.7155 -1.5046  0.8398
 5034SOL     OW30521   0.073   3.739  12.262 -0.0415  0.8792  0.2927
 5034SOL    HW130522  -0.017   3.757  12.288 -0.1282 -0.4897  1.0422
 5034SOL    HW230523   0.124   3.753  12.342  0.1761  0.0321  0.3066
 5035SOL     OW30524   1.265   5.843  10.043  0.0978  0.5292 -0.1160
 5035SOL    HW130525   1.278   5.838   9.948 -4.8640  2.9123 -1.1111
 5035SOL    HW230526   1.334   5.902  10.073  0.1688  1.8355 -2.6742
 5036SOL     OW30527   5.482   5.023   0.775 -0.0155  0.4124  0.1673
 5036SOL    HW130528   5.418   4.965   0.817  1.0861 -1.0921 -0.1919
 5036SOL    HW230529   5.482   4.996   0.684  1.6677 -0.1011  0.3039
 5037SOL     OW30530   2.937   0.600   2.193  0.0469 -0.5290  0.3246
 5037SOL    HW130531   2.941   0.653   2.273 -0.1959  1.2401 -0.8173
 5037SOL    HW230532   2.866   0.538   2.209 -2.9604  2.6281 -0.1726
 5038SOL     OW30533   0.197   2.718  10.761  0.3291  0.2665  0.1662
 5038SOL    HW130534   0.157   2.641  10.803  2.4809 -1.3658 -0.6667
 5038SOL    HW230535   0.122   2.771  10.732 -1.2271 -2.0830 -0.2558
 5039SOL     OW30536   3.395   2.870   8.411 -0.0308 -0.2382  0.4256
 5039SOL    HW130537   3.444   2.789   8.395 -0.7717 -0.7566  0.7050
 5039SOL    HW230538   3.351   2.888   8.328 -0.6714 -0.6875  0.6631
 5040SOL     OW30539   4.964   1.674   3.549  0.7906 -0.2789  0.0632
 5040SOL    HW130540   4.911   1.655   3.626  1.1971 -1.7809  0.0029
 5040SOL    HW230541   5.054   1.659   3.577  0.9764 -0.3696 -0.5674
 5041SOL     OW30542   1.350   1.779  10.122 -0.1851 -0.3161 -0.0758
 5041SOL    HW130543   1.296   1.854  10.098  1.3746  0.8614  0.0112
 5041SOL    HW230544   1.292   1.703  10.114 -1.8276  0.9216  0.0206
 5042SOL     OW30545   4.306   4.154  10.109  0.0730 -0.1716  0.3875
 5042SOL    HW130546   4.323   4.215  10.037  2.7408 -0.0032  1.0927
 5042SOL    HW230547   4.251   4.203  10.170 -0.3663  0.4411 -0.4932
 5043SOL     OW30548   1.139   5.086   1.724  0.2668  0.2101  0.0414
 5043SOL    HW130549   1.068   5.036   1.683  0.6271 -1.1032  1.0025
 5043SOL    HW230550   1.120   5.177   1.701  1.4057 -0.5775 -4.5755
 5044SOL     OW30551   3.612   2.933   2.140  0.4667  0.5313 -0.0628
 5044SOL    HW130552   3.652   2.921   2.054 -2.0493 -0.5664 -1.1309
 5044SOL    HW230553   3.588   3.026   2.142 -0.0720  0.4144 -0.8291
 5045SOL     OW30554   2.612   5.205   2.917 -0.6706  0.3468 -0.1011
 5045SOL    HW130555   2.679   5.178   2.979 -0.8624  0.1986  0.0411
 5045SOL    HW230556   2.576   5.286   2.955 -1.0633  0.0405  0.1810
 5046SOL     OW30557   2.920   5.503  12.002  0.3703 -0.3877  0.1710
 5046SOL    HW130558   2.979   5.445  12.050  1.3622  0.6541  0.2161
 5046SOL    HW230559   2.976   5.571  11.965 -0.8538  0.9150  0.6506
 5047SOL     OW30560   1.370   1.180  11.566  0.4987  0.1614  0.4253
 5047SOL    HW130561   1.464   1.169  11.557  0.6354  2.1908 -0.8960
 5047SOL    HW230562   1.333   1.106  11.517  1.4004  0.5687 -0.9029
 5048SOL     OW30563   1.471   2.036   1.161  0.0060  0.3078  0.0408
 5048SOL    HW130564   1.551   2.056   1.113 -0.7992 -0.0006 -1.4772
 5048SOL    HW230565   1.500   1.984   1.236  1.3326  1.1498  0.1300
 5049SOL     OW30566   0.407   3.160   0.732 -0.1736 -0.2846  0.4104
 5049SOL    HW130567   0.363   3.078   0.710  0.4465  0.5071 -4.2784
 5049SOL    HW230568   0.348   3.228   0.701  0.5180  0.9978  1.8602
 5050SOL     OW30569   3.769   0.478   2.582 -0.3661 -0.5111  0.0037
 5050SOL    HW130570   3.741   0.555   2.631 -0.0398 -1.1927  1.2775
 5050SOL    HW230571   3.797   0.513   2.497 -2.8349  0.4413 -0.4671
 5051SOL     OW30572   4.393   4.896   9.127 -0.3344  0.1335 -0.0777
 5051SOL    HW130573   4.371   4.963   9.062  1.3856 -1.2195 -2.1381
 5051SOL    HW230574   4.395   4.814   9.078  1.3759 -0.8811  1.5775
 5052SOL     OW30575   4.135   4.761   3.644  0.0049  0.2445 -0.3764
 5052SOL    HW130576   4.189   4.811   3.582  0.5246  1.2523  0.8600
 5052SOL    HW230577   4.076   4.825   3.683  0.0712 -0.2622  0.5889
 5053SOL     OW30578   3.643   0.271  12.325  0.2021 -0.3228  0.3681
 5053SOL    HW130579   3.738   0.274  12.317  0.0051  2.7654 -1.9376
 5053SOL    HW230580   3.623   0.342  12.386 -0.5492 -2.2586  2.4485
 5054SOL     OW30581   3.452   3.722  11.157 -0.6190  0.1976  0.3740
 5054SOL    HW130582   3.525   3.773  11.123  0.3444 -1.0604  0.5235
 5054SOL    HW230583   3.482   3.631  11.154 -1.0381 -0.0817  3.2391
 5055SOL     OW30584   0.237   0.861   9.815  0.3423  0.3282  0.1627
 5055SOL    HW130585   0.220   0.873   9.908  0.6039  0.0164  0.2497
 5055SOL    HW230586   0.163   0.904   9.771  0.0292  0.1443  0.5152
 5056SOL     OW30587   5.405   0.433   9.453  0.5361 -0.0642 -0.0120
 5056SOL    HW130588   5.340   0.372   9.417  1.4885 -0.8871 -0.3775
 5056SOL    HW230589   5.373   0.454   9.540 -0.7384  0.3187 -0.5583
 5057SOL     OW30590   2.918   4.344  10.342 -0.6266 -0.1886  0.2265
 5057SOL    HW130591   2.940   4.252  10.358 -0.5388  0.1227  1.9976
 5057SOL    HW230592   2.838   4.358  10.392 -0.3289  0.8544  0.4137
 5058SOL     OW30593   1.681   4.177   3.282  0.6501  0.1744 -0.4352
 5058SOL    HW130594   1.767   4.203   3.316  0.2737  0.7530  0.0718
 5058SOL    HW230595   1.659   4.246   3.219 -0.5308  1.3060  1.2007
 5059SOL     OW30596   2.227   0.856   0.611 -0.1878 -0.0096 -0.3164
 5059SOL    HW130597   2.190   0.791   0.550 -4.2161  0.3069  1.6001
 5059SOL    HW230598   2.177   0.936   0.593 -0.3636  0.5083  2.2581
 5060SOL     OW30599   1.634   1.676   8.068 -0.2720 -0.7469  0.0605
 5060SOL    HW130600   1.561   1.614   8.074 -1.2202  0.3981  0.7150
 5060SOL    HW230601   1.711   1.625   8.092 -1.4433 -0.9835  3.6287
 5061SOL     OW30602   0.791   2.548   0.245  0.0795  0.0559 -0.2078
 5061SOL    HW130603   0.875   2.589   0.226 -0.1095 -0.4856 -2.2602
 5061SOL    HW230604   0.729   2.621   0.248  0.6199  0.4775  1.5043
 5062SOL     OW30605   1.004   3.397  10.073  0.1329  0.0528 -0.1026
 5062SOL    HW130606   1.021   3.424  10.163  1.2966  0.8394 -0.5579
 5062SOL    HW230607   0.910   3.375  10.072 -0.2636  1.6548  0.8890
 5063SOL     OW30608   0.401   0.420   1.055  0.3445  0.1692  0.4154
 5063SOL    HW130609   0.461   0.365   1.105 -0.4379 -1.7902 -0.7372
 5063SOL    HW230610   0.458   0.478   1.005  1.2515 -0.8357  0.2602
 5064SOL     OW30611   4.207   4.624  10.507  0.3185 -0.0616  0.6788
 5064SOL    HW130612   4.288   4.573  10.505 -0.1823 -0.8432 -0.4870
 5064SOL    HW230613   4.220   4.689  10.576  2.1425  0.1402  0.1601
 5065SOL     OW30614   5.394   4.244   1.096  0.6747  0.2282 -0.0277
 5065SOL    HW130615   5.405   4.244   1.191  0.5122 -1.0701 -0.0023
 5065SOL    HW230616   5.301   4.264   1.083  0.1721 -1.8660  0.1687
 5066SOL     OW30617   0.211   1.482   0.901  0.2297  0.4880  0.2543
 5066SOL    HW130618   0.241   1.460   0.989  0.8363 -0.0363 -0.0726
 5066SOL    HW230619   0.186   1.574   0.906 -0.3316  0.2970  1.1306
 5067SOL     OW30620   0.546   1.666   8.003 -0.4241  0.6435  0.4796
 5067SOL    HW130621   0.490   1.598   8.040  1.7708 -0.5902  1.6339
 5067SOL    HW230622   0.601   1.694   8.076  1.5369  0.7056 -0.9756
 5068SOL     OW30623   3.599   0.327   9.889 -0.1709 -0.5566 -0.1409
 5068SOL    HW130624   3.524   0.348   9.833 -0.4262  0.6914  0.6343
 5068SOL    HW230625   3.658   0.402   9.878  0.9058 -1.4781 -0.6568
 5069SOL     OW30626   2.272   2.376   9.452  0.3163 -0.2597 -0.1892
 5069SOL    HW130627   2.233   2.379   9.539  0.0130  2.6607 -0.3962
 5069SOL    HW230628   2.197   2.382   9.392  0.6891  0.0325 -0.6278
 5070SOL     OW30629   5.509   4.624   3.162  0.4184  0.7440  0.2609
 5070SOL    HW130630   5.512   4.535   3.197 -0.1118 -0.0958 -1.7660
 5070SOL    HW230631   5.597   4.639   3.129 -0.1696  0.0275 -1.6541
 5071SOL     OW30632   3.968   1.220   9.667  0.2370 -0.3128 -0.1780
 5071SOL    HW130633   4.002   1.210   9.578 -0.1338 -1.8964 -0.1487
 5071SOL    HW230634   3.886   1.268   9.656  0.7442  0.4926 -0.5645
 5072SOL     OW30635   4.436   3.721   3.429  0.7964  0.2816  0.3123
 5072SOL    HW130636   4.374   3.792   3.412 -0.7708 -0.9920  0.5766
 5072SOL    HW230637   4.467   3.737   3.518  0.2131  0.4567  0.4852
 5073SOL     OW30638   2.816   1.483   3.965 -0.3396 -0.1613  0.1765
 5073SOL    HW130639   2.814   1.438   4.049  0.7311  2.5472  1.6950
 5073SOL    HW230640   2.806   1.413   3.900  0.4971 -2.4641  2.4708
 5074SOL     OW30641   4.681   4.635  11.598 -0.2185  0.3576 -0.0361
 5074SOL    HW130642   4.736   4.567  11.560  1.3323  1.9196 -0.6205
 5074SOL    HW230643   4.714   4.646  11.687 -0.8548 -0.0649  0.2564
 5075SOL     OW30644   2.921   0.147   1.973 -0.0692  0.3451  0.0682
 5075SOL    HW130645   2.916   0.150   2.069 -0.0273 -0.1991  0.0935
 5075SOL    HW230646   2.833   0.121   1.946  0.8668 -3.1690  0.1686
 5076SOL     OW30647   1.768   1.885   0.534 -0.7740 -0.1650 -0.1767
 5076SOL    HW130648   1.863   1.879   0.529 -0.7996 -0.3797 -0.4569
 5076SOL    HW230649   1.750   1.978   0.551 -0.4527 -0.4241  1.6866
 5077SOL     OW30650   2.539   3.613   0.077 -0.9668 -0.4231 -0.1965
 5077SOL    HW130651   2.552   3.697   0.032 -1.0328 -0.5849 -0.5217
 5077SOL    HW230652   2.619   3.563   0.059 -0.3653  0.0621  1.0942
 5078SOL     OW30653   0.172   4.753   1.458 -0.0340 -0.0907  0.6757
 5078SOL    HW130654   0.156   4.665   1.491 -0.5336 -0.1904  0.1710
 5078SOL    HW230655   0.095   4.803   1.484 -0.1627 -0.0247  0.1743
 5079SOL     OW30656   0.817   4.615  10.617  0.3597 -0.0599 -0.3861
 5079SOL    HW130657   0.890   4.577  10.665 -0.6141  0.0650  1.2426
 5079SOL    HW230658   0.826   4.709  10.630 -0.3027 -0.0660  0.1699
 5080SOL     OW30659   2.028   0.501   3.171 -0.3621  0.1137 -0.0335
 5080SOL    HW130660   1.980   0.574   3.211 -0.2925 -1.9456  4.0169
 5080SOL    HW230661   1.962   0.454   3.120 -0.8628  1.7753 -0.9538
 5081SOL     OW30662   0.987   0.643   9.300 -0.0798 -0.3199  0.0534
 5081SOL    HW130663   0.959   0.563   9.344  2.2930 -1.0513  0.3133
 5081SOL    HW230664   1.051   0.613   9.235  0.3319  1.3055 -0.3089
 5082SOL     OW30665   2.427   4.828   3.308  0.3927  0.0659  0.0719
 5082SOL    HW130666   2.424   4.846   3.402  2.7957  0.1135  0.1775
 5082SOL    HW230667   2.503   4.877   3.276 -0.7631  0.5634 -2.0202
 5083SOL     OW30668   5.493   0.243   2.213 -0.1046  0.2062  0.0579
 5083SOL    HW130669   5.569   0.290   2.180 -1.0622  0.4258 -1.9073
 5083SOL    HW230670   5.489   0.265   2.306  2.3877 -0.0472  0.2552
 5084SOL     OW30671   0.519   4.152   3.788  0.0730  0.2849  1.0469
 5084SOL    HW130672   0.563   4.069   3.774  0.1014  0.5004 -0.2276
 5084SOL    HW230673   0.437   4.129   3.831 -0.0137 -0.4193  0.5124
 5085SOL     OW30674   2.691   3.781   9.418  0.2937 -0.2026 -0.2571
 5085SOL    HW130675   2.780   3.747   9.425  0.0974 -0.6418  0.1155
 5085SOL    HW230676   2.679   3.833   9.497 -0.4233 -1.6411  0.5869
 5086SOL     OW30677   5.710   3.684  12.096 -0.5569  0.4603  0.3598
 5086SOL    HW130678   5.735   3.738  12.021  1.6882 -0.9671  0.0224
 5086SOL    HW230679   5.633   3.727  12.132  1.2647  3.9693  0.2047
 5087SOL     OW30680   4.375   5.321   7.747 -0.1075 -0.7791 -0.2540
 5087SOL    HW130681   4.287   5.308   7.712 -0.0287  0.8766 -1.1493
 5087SOL    HW230682   4.388   5.248   7.806 -1.4385 -1.9769 -1.3892
 5088SOL     OW30683   2.624   3.792   9.138  0.0371 -0.3116 -0.2352
 5088SOL    HW130684   2.678   3.716   9.117  1.7243  0.7279  0.2109
 5088SOL    HW230685   2.615   3.790   9.233  1.4469  0.9094 -0.0543
 5089SOL     OW30686   0.019   1.451  10.019  0.1165  0.0309  0.1903
 5089SOL    HW130687   0.112   1.459   9.998 -0.0047  1.6317  0.1942
 5089SOL    HW230688  -0.026   1.482   9.940 -0.3657  2.6065  1.4068
 5090SOL     OW30689   2.726   2.109   9.615 -0.7238  0.2124 -0.1364
 5090SOL    HW130690   2.714   2.027   9.664 -1.0656  0.5800  0.4005
 5090SOL    HW230691   2.821   2.118   9.607 -0.6108  0.6963  1.4275
 5091SOL     OW30692   4.419   2.514   1.108 -0.0412 -0.4645  0.5081
 5091SOL    HW130693   4.354   2.523   1.039  0.1204 -2.7005  0.0548
 5091SOL    HW230694   4.368   2.516   1.189 -0.4335  0.0455  0.2538
 5092SOL     OW30695   0.173   2.551   9.890  0.6811  0.3610  0.5113
 5092SOL    HW130696   0.179   2.611   9.816  0.7818 -0.1806  0.0812
 5092SOL    HW230697   0.099   2.584   9.942 -0.8488 -0.5776 -1.0273
 5093SOL     OW30698   3.808   5.034  11.086  0.2863  0.1629  0.7757
 5093SOL    HW130699   3.749   5.031  11.161 -1.3289  0.2449 -0.4785
 5093SOL    HW230700   3.875   4.968  11.106 -1.0027 -0.9382  1.5529
 5094SOL     OW30701   3.122   5.172   2.264  0.3521 -0.3642  0.4140
 5094SOL    HW130702   3.128   5.076   2.258 -1.4632 -0.3983 -2.0092
 5094SOL    HW230703   3.193   5.204   2.208 -0.7652 -0.3647 -1.0434
 5095SOL     OW30704   3.211   5.058   3.763 -0.0310 -0.6583  0.1060
 5095SOL    HW130705   3.157   5.044   3.841 -0.6737  0.7122 -0.0814
 5095SOL    HW230706   3.184   4.988   3.703 -3.0124  1.1032 -0.7195
 5096SOL     OW30707   5.098   4.570   3.587 -0.0533 -0.5148 -0.2077
 5096SOL    HW130708   5.022   4.528   3.626  1.0636 -3.4926 -1.0792
 5096SOL    HW230709   5.165   4.568   3.655 -0.0633  0.0634 -0.1777
 5097SOL     OW30710   3.784   0.799   2.153 -0.4213  0.2090 -0.0986
 5097SOL    HW130711   3.695   0.784   2.183 -0.2405  0.3312  0.5086
 5097SOL    HW230712   3.811   0.717   2.112  0.4776 -1.0751  2.9487
 5098SOL     OW30713   2.157   5.139   2.903 -0.6524 -0.1300 -0.4455
 5098SOL    HW130714   2.223   5.074   2.880  0.0205  0.7868 -1.1766
 5098SOL    HW230715   2.159   5.143   2.999 -0.0762 -0.5417 -0.4388
 5099SOL     OW30716   4.458   1.192   9.235  0.6093 -0.5117  0.3939
 5099SOL    HW130717   4.526   1.129   9.213  1.9944  0.9391  0.4501
 5099SOL    HW230718   4.476   1.218   9.325  2.3498  2.7149 -0.7736
 5100SOL     OW30719   2.366   1.469   1.715  0.2311 -0.2578  0.2801
 5100SOL    HW130720   2.394   1.402   1.777 -1.1288  1.4760  2.8633
 5100SOL    HW230721   2.341   1.543   1.770 -0.9485  1.3650 -2.3618
 5101SOL     OW30722   0.406   4.038   1.897 -0.4665  0.1487  0.0436
 5101SOL    HW130723   0.344   3.991   1.842 -0.6200  1.9568 -1.3563
 5101SOL    HW230724   0.351   4.097   1.950 -0.0312  0.9826 -0.4307
 5102SOL     OW30725   1.479   5.043   0.322 -0.3360  0.4886 -0.3635
 5102SOL    HW130726   1.395   5.024   0.365 -1.1007  2.5645 -0.9113
 5102SOL    HW230727   1.499   5.133   0.347  1.9808 -0.1254  0.1199
 5103SOL     OW30728   3.423   0.430   7.543 -0.1929 -0.1513 -0.1464
 5103SOL    HW130729   3.358   0.422   7.613 -1.0710 -0.7818 -1.0125
 5103SOL    HW230730   3.385   0.493   7.482  1.0347  1.1724  0.4406
 5104SOL     OW30731   4.467   3.098   9.023 -0.4332  0.2923  0.3834
 5104SOL    HW130732   4.384   3.076   8.981  0.6457  0.4623 -1.8996
 5104SOL    HW230733   4.478   3.192   9.008  0.7709  0.0309 -0.4767
 5105SOL     OW30734   5.090   0.641   9.788  0.4358 -0.6041  0.5048
 5105SOL    HW130735   5.064   0.686   9.708  0.8009  0.2430  0.8537
 5105SOL    HW230736   5.031   0.675   9.855  2.0326  0.8952  1.1823
 5106SOL     OW30737   3.966   2.661  10.245 -0.2606  0.4556  0.1073
 5106SOL    HW130738   3.905   2.672  10.318  1.3055 -1.4178  1.7510
 5106SOL    HW230739   4.046   2.627  10.285  0.8429 -0.0413 -2.4152
 5107SOL     OW30740   0.705   4.582  11.013  0.5097  0.0512 -0.2261
 5107SOL    HW130741   0.727   4.492  11.039  3.0346 -0.4234 -3.6175
 5107SOL    HW230742   0.637   4.571  10.946 -0.5884  0.8209  0.7411
 5108SOL     OW30743   1.004   2.718  10.071 -0.3194  0.3083 -0.2068
 5108SOL    HW130744   1.033   2.752   9.986 -0.2348 -0.4828 -0.4963
 5108SOL    HW230745   0.930   2.661  10.050 -0.4414  0.2876  0.2769
 5109SOL     OW30746   0.382   5.377  10.412  0.1424 -0.6930 -0.2730
 5109SOL    HW130747   0.345   5.355  10.497  0.0462  0.4074 -0.0229
 5109SOL    HW230748   0.332   5.453  10.383  1.2239 -0.0822 -0.5801
 5110SOL     OW30749   3.797   4.339  10.672 -0.4996 -0.5005 -0.0721
 5110SOL    HW130750   3.886   4.369  10.687 -0.7285 -0.1561  0.6268
 5110SOL    HW230751   3.807   4.259  10.621  0.1799 -0.1257 -0.5503
 5111SOL     OW30752   3.513   0.092   8.097 -0.4918 -0.2715  0.1487
 5111SOL    HW130753   3.601   0.056   8.110  0.0310  1.2119  0.9058
 5111SOL    HW230754   3.523   0.151   8.022 -0.3456  1.4739  1.5204
 5112SOL     OW30755   0.876   4.699   8.189 -0.1568 -0.0633 -0.1686
 5112SOL    HW130756   0.904   4.763   8.255  0.2473 -0.1969 -0.2036
 5112SOL    HW230757   0.893   4.614   8.229  1.0421 -0.1509 -0.8246
 5113SOL     OW30758   1.751   3.241   1.381  0.6286  0.4401  0.3899
 5113SOL    HW130759   1.750   3.155   1.337 -0.1744  0.2523  0.7547
 5113SOL    HW230760   1.659   3.267   1.383  0.7543  0.8215  1.2495
 5114SOL     OW30761   2.211   0.650  10.119 -0.3437 -0.4278 -0.0897
 5114SOL    HW130762   2.258   0.569  10.136 -1.1777 -0.7307  0.7682
 5114SOL    HW230763   2.149   0.628  10.050 -0.9538 -0.6573  0.5321
 5115SOL     OW30764   2.558   2.475   9.560  0.3461  0.0259 -0.4070
 5115SOL    HW130765   2.524   2.393   9.595 -0.5112  1.2003  1.5751
 5115SOL    HW230766   2.621   2.506   9.625  2.4669 -0.2243 -2.2673
 5116SOL     OW30767   3.889   3.355   3.283 -0.1096  0.0824 -0.0536
 5116SOL    HW130768   3.831   3.430   3.299 -0.7303 -0.1869 -1.0144
 5116SOL    HW230769   3.900   3.354   3.188 -1.1716 -1.8419 -0.1819
 5117SOL     OW30770   0.486   4.448   9.382  0.5326 -0.1011 -0.0427
 5117SOL    HW130771   0.569   4.487   9.355 -0.0845  1.5240  0.3409
 5117SOL    HW230772   0.462   4.389   9.311 -0.1596  2.7142 -2.2094
 5118SOL     OW30773   5.697   1.159   8.956  0.4605 -0.1813  0.1157
 5118SOL    HW130774   5.636   1.231   8.940  0.6096  0.1369  0.9549
 5118SOL    HW230775   5.770   1.199   9.004  1.4778 -0.4877 -1.1302
 5119SOL     OW30776   1.008   1.900   8.286 -0.2165 -0.0048  0.3250
 5119SOL    HW130777   0.935   1.948   8.326 -0.9322  0.3386 -1.3190
 5119SOL    HW230778   0.968   1.818   8.256 -0.0461  0.3873 -1.0050
 5120SOL     OW30779   2.265   3.148   8.904 -0.6161 -0.1838  0.5735
 5120SOL    HW130780   2.196   3.200   8.944 -0.0293  0.6435  0.5403
 5120SOL    HW230781   2.222   3.069   8.874 -1.5517  0.3375  0.5286
 5121SOL     OW30782   2.642   2.715   1.256 -0.2895 -0.2188 -0.3331
 5121SOL    HW130783   2.736   2.696   1.249 -0.6154 -1.6116 -1.2306
 5121SOL    HW230784   2.608   2.644   1.311 -0.7176  0.6281  0.4971
 5122SOL     OW30785   4.618   4.903   7.998 -0.2336  0.2785  0.3801
 5122SOL    HW130786   4.623   4.815   8.034 -0.2005 -0.3288 -1.0856
 5122SOL    HW230787   4.682   4.953   8.049  0.9433 -0.9296  0.1144
 5123SOL     OW30788   5.629   1.489   8.449  0.3162  0.1223 -0.6285
 5123SOL    HW130789   5.694   1.449   8.391 -0.6117 -0.8017 -1.0541
 5123SOL    HW230790   5.562   1.523   8.390 -0.2331 -0.0910 -0.1307
 5124SOL     OW30791   2.859   0.734  10.199 -0.5372 -0.5149  0.4604
 5124SOL    HW130792   2.943   0.780  10.199 -0.7885 -0.0286 -0.9390
 5124SOL    HW230793   2.794   0.803  10.188 -0.9847 -1.0847 -0.5482
 5125SOL     OW30794   2.555   5.593   8.982 -0.3888 -0.1010  0.0738
 5125SOL    HW130795   2.500   5.651   8.930 -0.6266 -0.9901 -0.6728
 5125SOL    HW230796   2.595   5.533   8.919  2.0045  0.9547  0.5028
 5126SOL     OW30797   3.144   3.819  11.689  0.5880  0.0664 -0.5162
 5126SOL    HW130798   3.149   3.745  11.628  1.2860 -0.1851 -0.1693
 5126SOL    HW230799   3.221   3.872  11.667 -0.9218  1.6938 -2.0229
 5127SOL     OW30800   3.307   1.976  10.330  0.0996  0.0092  0.5454
 5127SOL    HW130801   3.384   2.030  10.315  1.3400 -1.6299  0.8811
 5127SOL    HW230802   3.239   2.017  10.277  0.8377  2.2299  1.2474
 5128SOL     OW30803   3.488   2.864   9.253 -0.7124  0.0551 -0.2339
 5128SOL    HW130804   3.483   2.806   9.328  0.2113  0.7472  0.3829
 5128SOL    HW230805   3.410   2.845   9.202  0.3962 -2.9253 -0.9429
 5129SOL     OW30806   0.687   5.754  10.437 -0.4753  0.0300 -0.2047
 5129SOL    HW130807   0.605   5.800  10.415  1.1744  2.8268 -0.7605
 5129SOL    HW230808   0.681   5.738  10.531 -2.0590 -0.6159 -0.3988
 5130SOL     OW30809   0.626   3.393  11.083 -0.4839  0.7198  0.2561
 5130SOL    HW130810   0.643   3.487  11.088 -2.6803  1.2397 -1.2534
 5130SOL    HW230811   0.531   3.386  11.087 -0.4070 -1.3381 -0.8733
 5131SOL     OW30812   5.661   4.678  10.016 -0.5789  0.5332  0.4350
 5131SOL    HW130813   5.719   4.733   9.965 -1.3666  0.2720 -0.7627
 5131SOL    HW230814   5.600   4.739  10.058 -0.3846  0.6957  0.4823
 5132SOL     OW30815   4.102   1.767   9.707 -0.0210 -0.2607  0.2083
 5132SOL    HW130816   4.106   1.673   9.725 -2.0202 -0.4398 -0.1443
 5132SOL    HW230817   4.060   1.805   9.785  0.6646  0.3323  0.3000
 5133SOL     OW30818   0.495   5.742  10.013 -0.1751  0.2998  0.3170
 5133SOL    HW130819   0.483   5.809  10.081 -0.0665 -0.7640  1.4211
 5133SOL    HW230820   0.449   5.666  10.048 -0.8427 -0.0126 -1.2169
 5134SOL     OW30821   3.271   4.835   9.603 -0.0549 -0.0118 -0.4387
 5134SOL    HW130822   3.329   4.908   9.579  0.4047  0.0868  0.9565
 5134SOL    HW230823   3.286   4.769   9.535  1.0710  0.3441 -0.5430
 5135SOL     OW30824   5.310   3.900   1.184  0.6162  0.2668 -0.2038
 5135SOL    HW130825   5.270   3.966   1.241  0.8485 -1.4194  1.9591
 5135SOL    HW230826   5.404   3.918   1.189  0.7339 -0.5468  0.8630
 5136SOL     OW30827   3.384   1.239   0.090 -0.0832  0.0152  0.1219
 5136SOL    HW130828   3.312   1.298   0.113  1.5578  1.6962  1.0661
 5136SOL    HW230829   3.370   1.219  -0.003 -0.7059  1.8284 -0.1860
 5137SOL     OW30830   1.459   3.150   3.897 -0.4437  0.1457  0.2699
 5137SOL    HW130831   1.415   3.103   3.826 -0.9436 -0.0414  0.6932
 5137SOL    HW230832   1.409   3.126   3.976 -0.6412  1.2886  0.5126
 5138SOL     OW30833   4.507   1.952   0.533 -0.3102  0.3010 -0.2003
 5138SOL    HW130834   4.590   1.910   0.555 -0.2146 -0.2823 -1.6686
 5138SOL    HW230835   4.532   2.041   0.509 -0.3066  0.6375  0.9844
 5139SOL     OW30836   4.066   3.901   0.606 -0.1950  0.1746  0.0504
 5139SOL    HW130837   4.007   3.972   0.632  0.8113  0.3021  2.0861
 5139SOL    HW230838   4.103   3.930   0.522  0.3899  2.1958  0.9641
 5140SOL     OW30839   3.918   2.459   4.102 -0.2852 -0.3703  0.6931
 5140SOL    HW130840   3.850   2.502   4.049  0.1799  0.1168  0.4909
 5140SOL    HW230841   4.000   2.486   4.062  0.0428 -0.6927  1.1490
 5141SOL     OW30842   4.241   0.347  11.502  0.6706  0.1722  0.0450
 5141SOL    HW130843   4.241   0.407  11.427  0.0695 -0.5250 -0.5166
 5141SOL    HW230844   4.228   0.405  11.578  0.7903  0.8270 -0.4253
 5142SOL     OW30845   5.395   1.461   2.204 -0.0472 -0.1779  0.1384
 5142SOL    HW130846   5.324   1.470   2.267 -1.2023 -1.3617 -0.9578
 5142SOL    HW230847   5.352   1.465   2.119  1.1887 -0.9139 -0.5365
 5143SOL     OW30848   3.273   1.392  11.478 -0.0320  0.1141 -0.1292
 5143SOL    HW130849   3.361   1.429  11.478  0.8765 -1.9463  0.4072
 5143SOL    HW230850   3.287   1.299  11.460 -2.1820 -0.0753 -0.9601
 5144SOL     OW30851   1.886   5.836   1.399 -0.2498  0.1145  0.7724
 5144SOL    HW130852   1.843   5.873   1.477  3.0414 -0.9409  3.2373
 5144SOL    HW230853   1.852   5.746   1.393 -2.0600  0.8553 -0.2728
 5145SOL     OW30854   3.380   0.622   8.079 -0.2164 -0.3044  0.3495
 5145SOL    HW130855   3.407   0.618   7.987 -0.1193  1.1341  0.2996
 5145SOL    HW230856   3.298   0.574   8.082  0.8571 -2.2359 -0.0639
 5146SOL     OW30857   0.011   4.596  10.642 -0.1180  0.2881  0.1586
 5146SOL    HW130858  -0.055   4.622  10.707 -1.2144 -0.0705 -0.7875
 5146SOL    HW230859   0.061   4.527  10.685 -0.6241  0.2775  0.7461
 5147SOL     OW30860   4.156   2.616   3.660 -0.7750 -0.2948  0.0130
 5147SOL    HW130861   4.162   2.523   3.638 -0.9454 -0.1966 -0.4565
 5147SOL    HW230862   4.114   2.656   3.584  0.0666  0.2987 -0.1421
 5148SOL     OW30863   5.191   4.469   8.108  0.3960 -0.1842  1.2141
 5148SOL    HW130864   5.228   4.502   8.025  0.4747 -1.8281  0.5841
 5148SOL    HW230865   5.096   4.483   8.098  0.4561  0.1717  1.1002
 5149SOL     OW30866   1.190   4.153  11.457 -0.2185  0.4525 -0.4175
 5149SOL    HW130867   1.183   4.157  11.552 -0.6635  1.3262 -0.4755
 5149SOL    HW230868   1.209   4.243  11.430  0.7289  0.0607 -1.0968
 5150SOL     OW30869   3.009   5.067   1.739 -0.5874  0.0945 -0.1017
 5150SOL    HW130870   3.062   5.146   1.727  0.6922 -0.6580  0.4315
 5150SOL    HW230871   2.941   5.073   1.672  0.1079  1.1540 -0.7289
 5151SOL     OW30872   3.386   3.062  10.998 -0.5751 -0.4857 -0.3771
 5151SOL    HW130873   3.463   3.016  11.031 -0.8705 -0.7011  0.0095
 5151SOL    HW230874   3.337   3.087  11.076 -0.7504 -0.0885 -0.6110
 5152SOL     OW30875   4.543   1.456   9.861  0.1213 -0.7152 -0.2096
 5152SOL    HW130876   4.533   1.538   9.813 -0.5956 -1.5569 -1.5407
 5152SOL    HW230877   4.457   1.440   9.899  0.2704 -0.8289  0.0833
 5153SOL     OW30878   5.536   5.773   3.853  0.3309  0.2674 -0.6141
 5153SOL    HW130879   5.544   5.712   3.926 -0.1722 -2.0481 -2.4364
 5153SOL    HW230880   5.490   5.848   3.890  0.4862 -0.6652  1.5591
 5154SOL     OW30881   1.315   2.349  12.103 -0.2150 -0.3007 -0.2306
 5154SOL    HW130882   1.287   2.440  12.110  3.9593  0.9408  2.7964
 5154SOL    HW230883   1.401   2.347  12.146 -0.4142 -5.7759  0.3320
 5155SOL     OW30884   5.305   3.870  10.505 -0.0966 -0.1965  0.6804
 5155SOL    HW130885   5.349   3.826  10.432 -1.5026 -0.1842 -0.1889
 5155SOL    HW230886   5.307   3.962  10.482  0.4441 -0.0812  1.1923
 5156SOL     OW30887   5.639   5.423   9.560  0.1856  0.2953 -0.5165
 5156SOL    HW130888   5.570   5.357   9.555 -0.5735  1.1002 -0.8459
 5156SOL    HW230889   5.715   5.382   9.518 -0.2447 -0.3973 -0.6296
 5157SOL     OW30890   5.059   5.174  12.344  0.2832  0.2553 -0.3679
 5157SOL    HW130891   5.067   5.119  12.266 -0.9328  1.7083 -1.5415
 5157SOL    HW230892   4.966   5.192  12.352  0.4852  0.7906  0.9597
 5158SOL     OW30893   3.392   3.026  10.205  0.1334  0.1703  0.3807
 5158SOL    HW130894   3.297   3.021  10.196  0.0967 -0.9499  1.3016
 5158SOL    HW230895   3.422   3.065  10.123 -1.0372 -0.3177 -0.2902
 5159SOL     OW30896   4.369   5.345   3.367 -0.1437 -0.4266 -0.2624
 5159SOL    HW130897   4.317   5.425   3.373  1.7539  0.8336 -0.0970
 5159SOL    HW230898   4.407   5.334   3.454  0.7143 -0.7102 -0.6570
 5160SOL     OW30899   2.702   0.022  12.525  0.2498 -0.6815 -0.2277
 5160SOL    HW130900   2.736  -0.029  12.452  0.7025 -0.1438 -0.3985
 5160SOL    HW230901   2.652   0.092  12.484  0.4675 -0.4029 -0.0263
 5161SOL     OW30902   0.671   5.031  -0.005 -0.8392  0.3783 -0.3573
 5161SOL    HW130903   0.622   4.983   0.061 -1.0882 -0.4382 -1.1283
 5161SOL    HW230904   0.612   5.100  -0.034 -1.1108  0.0963 -0.4744
 5162SOL     OW30905   1.354   4.913   8.254 -0.5079 -0.2336  0.6042
 5162SOL    HW130906   1.288   4.851   8.222  0.6077 -0.8100 -0.6339
 5162SOL    HW230907   1.344   4.990   8.197 -0.5724 -0.0510  0.8600
 5163SOL     OW30908   1.989   4.105   3.918  0.3356 -0.4648 -0.2782
 5163SOL    HW130909   2.055   4.162   3.959  0.2740 -0.3137 -0.3876
 5163SOL    HW230910   1.908   4.155   3.924  0.3341 -0.4242 -0.6258
 5164SOL     OW30911   0.601   2.751  12.252  0.6745  0.2570  0.2015
 5164SOL    HW130912   0.587   2.660  12.227  0.5393 -0.0389  1.3091
 5164SOL    HW230913   0.583   2.801  12.173  0.7770 -0.6799 -0.4204
 5165SOL     OW30914   3.606   0.267   3.633 -0.0953  0.2852 -0.0804
 5165SOL    HW130915   3.549   0.214   3.578  0.1767  0.4423 -0.5137
 5165SOL    HW230916   3.693   0.260   3.592  0.3343 -0.4845  0.9394
 5166SOL     OW30917   1.041   3.195   2.291  0.2196  0.4143  0.2869
 5166SOL    HW130918   1.092   3.275   2.298  0.7902  0.0791  0.0026
 5166SOL    HW230919   0.952   3.221   2.314  0.6769  0.8273  1.6366
 5167SOL     OW30920   4.673   5.068   1.306  0.0710  0.1872  0.7803
 5167SOL    HW130921   4.728   5.056   1.228  2.0043  1.9331  1.8420
 5167SOL    HW230922   4.665   4.980   1.343 -1.2872 -0.7508 -1.6409
 5168SOL     OW30923   2.062   0.493   2.365  0.4895 -0.1277  0.1651
 5168SOL    HW130924   2.104   0.579   2.358  0.8076 -0.3236 -0.3923
 5168SOL    HW230925   2.046   0.467   2.275 -2.1313  0.5581  0.4009
 5169SOL     OW30926   0.754   2.814   4.278 -0.1783 -0.0227 -0.3756
 5169SOL    HW130927   0.695   2.788   4.207 -1.4201 -0.9169  0.9467
 5169SOL    HW230928   0.766   2.734   4.329  0.1148  0.7911  0.8392
 5170SOL     OW30929   1.792   2.203   0.481  0.4861  0.0250 -0.3420
 5170SOL    HW130930   1.876   2.187   0.438  0.9820 -0.5947  0.8108
 5170SOL    HW230931   1.809   2.277   0.539  0.5759 -0.8610  0.7802
 5171SOL     OW30932   3.616   1.989   0.454 -0.4088  0.6298  0.2585
 5171SOL    HW130933   3.653   1.963   0.539 -0.0900 -0.6173 -0.2596
 5171SOL    HW230934   3.583   2.078   0.469  0.1125  0.6173  1.5474
 5172SOL     OW30935   5.263   1.321   0.545 -0.2010  0.6528 -0.1353
 5172SOL    HW130936   5.317   1.265   0.490 -0.0018  0.4929  0.2220
 5172SOL    HW230937   5.242   1.267   0.622  0.4956  1.2664  0.4972
 5173SOL     OW30938   2.439   3.283   4.310 -0.1633  0.4630  0.2167
 5173SOL    HW130939   2.449   3.241   4.396 -1.5397  1.4888  0.8910
 5173SOL    HW230940   2.512   3.248   4.258 -0.4843 -1.7209  1.1707
 5174SOL     OW30941   1.293   5.330   9.386  0.4709  0.2080  0.5119
 5174SOL    HW130942   1.371   5.300   9.434  0.0741  0.5379  1.3644
 5174SOL    HW230943   1.232   5.256   9.392  0.3603  0.3106  0.6427
 5175SOL     OW30944   4.417   1.671   1.180 -0.1988  0.5569 -0.5182
 5175SOL    HW130945   4.334   1.718   1.176 -1.0324 -0.9190 -0.7348
 5175SOL    HW230946   4.402   1.591   1.129  1.5923  0.6414 -1.2180
 5176SOL     OW30947   0.751   0.427   2.658  0.3207 -0.0901  0.5014
 5176SOL    HW130948   0.765   0.515   2.694 -1.3121  0.1288  0.6537
 5176SOL    HW230949   0.686   0.388   2.716  0.0345 -0.9069 -0.3608
 5177SOL     OW30950   5.290   1.557   0.956 -0.5198 -0.2294 -0.3128
 5177SOL    HW130951   5.267   1.522   1.042  0.1172 -1.0916 -0.4745
 5177SOL    HW230952   5.258   1.647   0.956  1.6359  0.5823  1.7554
 5178SOL     OW30953   5.091   3.813  10.132  0.5775 -0.1254 -0.0313
 5178SOL    HW130954   5.052   3.730  10.105 -1.9101  0.3202  1.9304
 5178SOL    HW230955   5.164   3.826  10.072 -1.4986 -1.6957 -3.0724
 5179SOL     OW30956   1.965   1.506   3.733  0.1606  0.3429  0.0229
 5179SOL    HW130957   1.940   1.493   3.824 -0.2566  0.7697 -0.0236
 5179SOL    HW230958   2.051   1.548   3.738  0.8755 -1.1131  0.1855
 5180SOL     OW30959   2.584   0.652   4.397 -0.1318  0.4907 -0.6762
 5180SOL    HW130960   2.591   0.593   4.472 -1.2094 -1.1568 -1.8377
 5180SOL    HW230961   2.595   0.739   4.434  0.2501 -0.3581  1.2619
 5181SOL     OW30962   2.365   1.736   1.814 -0.1190 -0.5838  0.1809
 5181SOL    HW130963   2.460   1.732   1.806 -0.1038  0.0367 -0.0318
 5181SOL    HW230964   2.344   1.827   1.794 -0.6887 -0.5350  0.9950
 5182SOL     OW30965   3.659   2.945   3.061  0.0402 -0.1616  0.4469
 5182SOL    HW130966   3.633   2.873   3.119  0.2698 -0.9405 -0.4110
 5182SOL    HW230967   3.754   2.942   3.059 -0.0219 -1.9532 -2.2111
 5183SOL     OW30968   0.253   4.057   2.708  0.2441 -0.2534  0.1912
 5183SOL    HW130969   0.308   3.982   2.684  1.9673  1.4698 -1.4001
 5183SOL    HW230970   0.204   4.077   2.628 -0.5145  0.0779  0.7368
 5184SOL     OW30971   0.858   5.416  10.778  0.2133 -0.0743  0.9828
 5184SOL    HW130972   0.948   5.445  10.765 -0.4810  0.6810 -2.6175
 5184SOL    HW230973   0.825   5.472  10.849  1.0670  3.1936 -1.0724
 5185SOL     OW30974   0.278   1.338   3.952 -0.5979 -0.0369  0.0719
 5185SOL    HW130975   0.311   1.249   3.967 -0.0908  0.3503  1.3753
 5185SOL    HW230976   0.335   1.393   4.006 -1.6185  0.9571  0.1509
 5186SOL     OW30977   1.805   5.269   2.296  0.3337 -0.3173  0.2853
 5186SOL    HW130978   1.884   5.248   2.347  2.3129  0.1575 -2.4460
 5186SOL    HW230979   1.746   5.196   2.311  1.1164 -0.5220  2.6732
 5187SOL     OW30980   1.899   0.869   0.465  0.8820 -0.1960 -0.6786
 5187SOL    HW130981   1.949   0.934   0.415  2.8190 -0.3136  1.0137
 5187SOL    HW230982   1.955   0.791   0.463 -0.3419 -1.0778 -0.7154
 5188SOL     OW30983   3.065   5.624   2.619 -0.2794 -0.1597  0.1162
 5188SOL    HW130984   3.115   5.688   2.568  2.9321 -0.3407  2.8305
 5188SOL    HW230985   3.018   5.678   2.683 -3.5651 -0.0039 -2.3341
 5189SOL     OW30986   3.886   4.550   3.883 -0.1492  0.2939  0.3725
 5189SOL    HW130987   3.937   4.514   3.810 -1.6895 -2.1489  0.4553
 5189SOL    HW230988   3.952   4.578   3.947  1.1485  0.1885 -0.8825
 5190SOL     OW30989   3.768   0.624   9.592  0.7236  0.1229 -1.0587
 5190SOL    HW130990   3.797   0.542   9.553  3.1393 -0.0601  0.9888
 5190SOL    HW230991   3.821   0.691   9.550  0.8374  0.3039 -0.6356
 5191SOL     OW30992   4.262   3.795   1.594 -0.4755 -0.1679  0.0985
 5191SOL    HW130993   4.222   3.879   1.616 -1.1622 -0.2042 -0.9638
 5191SOL    HW230994   4.354   3.816   1.577 -0.4316  0.2087  0.7666
 5192SOL     OW30995   3.430   0.542   9.933 -0.5199 -0.4434 -0.9914
 5192SOL    HW130996   3.501   0.606   9.930 -0.6935 -0.2653 -1.3000
 5192SOL    HW230997   3.354   0.591   9.962 -0.5007 -0.6504 -0.5833
 5193SOL     OW30998   0.130   2.017   3.099  0.0766  0.4415  0.1428
 5193SOL    HW130999   0.103   2.105   3.073  0.7137  0.4556 -0.4940
 5193SOL    HW231000   0.062   1.988   3.159  0.7340  2.0280  1.6990
 5194SOL     OW31001   1.593   4.061   2.105 -0.4479 -0.2720 -0.4253
 5194SOL    HW131002   1.587   3.999   2.178  0.2336 -1.5713 -1.4231
 5194SOL    HW231003   1.641   4.012   2.038 -0.0486  1.3081 -1.3039
 5195SOL     OW31004   4.690   4.039  10.946  0.5692 -0.2773 -0.2024
 5195SOL    HW131005   4.743   4.119  10.943 -0.4927  0.3878 -1.5199
 5195SOL    HW231006   4.722   3.987  10.873 -0.8715  0.3128 -1.2690
 5196SOL     OW31007   0.437   0.167   9.066 -0.1769  0.2831 -0.2932
 5196SOL    HW131008   0.448   0.251   9.110  0.3974  0.0689 -0.0076
 5196SOL    HW231009   0.497   0.170   8.992 -0.3411  0.2245 -0.4292
 5197SOL     OW31010   3.364   4.402  10.228 -0.1981  0.5590 -0.4687
 5197SOL    HW131011   3.454   4.378  10.208  0.0368  0.5783  0.5362
 5197SOL    HW231012   3.371   4.483  10.278 -0.8393  1.2191 -1.4274
 5198SOL     OW31013   1.333   1.341   9.448  0.0344 -0.1029 -0.1118
 5198SOL    HW131014   1.374   1.420   9.486 -1.6556  0.4802  0.5583
 5198SOL    HW231015   1.377   1.329   9.364  1.5412  0.5290  0.5573
 5199SOL     OW31016   2.547   5.652  12.373  0.0999 -0.7196  0.7581
 5199SOL    HW131017   2.608   5.630  12.303 -0.9412 -2.7996  0.4387
 5199SOL    HW231018   2.519   5.741  12.354 -0.3128 -1.3236 -1.6174
 5200SOL     OW31019   2.200   2.565  11.097 -0.1128  0.2060  0.2595
 5200SOL    HW131020   2.160   2.626  11.036 -1.3136 -0.1799  0.6287
 5200SOL    HW231021   2.190   2.479  11.056  0.5042  0.1297  0.2680
 5201SOL     OW31022   0.194   3.540   1.372  0.4130 -0.2987 -0.2923
 5201SOL    HW131023   0.236   3.457   1.349  0.7111 -0.3251  0.3427
 5201SOL    HW231024   0.245   3.606   1.324  0.4896 -0.4323 -0.3988
 5202SOL     OW31025   1.188   3.812   1.384 -0.1964  0.3653 -0.6745
 5202SOL    HW131026   1.244   3.888   1.395 -0.7567  0.8729 -1.2403
 5202SOL    HW231027   1.127   3.837   1.314 -0.2987 -0.6517 -0.9618
 5203SOL     OW31028   4.212   5.862   3.272  0.0345  0.5144  0.2366
 5203SOL    HW131029   4.208   5.770   3.248  0.1565  0.6221 -0.2059
 5203SOL    HW231030   4.278   5.866   3.342  0.4313  0.3471 -0.1253
 5204SOL     OW31031   4.318   0.917   2.910 -0.2378 -0.6924  0.6892
 5204SOL    HW131032   4.381   0.989   2.906 -0.9633 -0.0832 -0.3591
 5204SOL    HW231033   4.238   0.958   2.945 -0.8410 -0.8298 -0.4943
 5205SOL     OW31034   0.395   5.034   2.620  0.0998  0.3211 -0.2383
 5205SOL    HW131035   0.329   5.103   2.625  0.4604  0.7478 -1.2840
 5205SOL    HW231036   0.433   5.042   2.533 -0.1998 -1.5404 -0.5733
 5206SOL     OW31037   1.800   1.375  12.180  0.0922  0.2038 -0.2449
 5206SOL    HW131038   1.845   1.292  12.195 -0.8373 -0.5511 -1.4864
 5206SOL    HW231039   1.717   1.366  12.225 -0.8703 -0.3640 -2.0801
 5207SOL     OW31040   1.828   5.571   3.273  0.2716  0.3753 -0.4053
 5207SOL    HW131041   1.878   5.500   3.313 -0.9018  0.4913  1.3040
 5207SOL    HW231042   1.826   5.639   3.340  0.7433  1.7213 -1.7552
 5208SOL     OW31043   0.226   4.806  11.254  0.9055  0.8413  0.4570
 5208SOL    HW131044   0.280   4.770  11.184 -0.4756 -0.5753  0.1073
 5208SOL    HW231045   0.219   4.735  11.317  0.1622  1.3229  0.9180
 5209SOL     OW31046   2.640   5.190  11.900 -0.4009 -0.0014  0.4969
 5209SOL    HW131047   2.562   5.195  11.845 -0.1063  0.7372  0.1386
 5209SOL    HW231048   2.619   5.245  11.976  1.0675  3.1256 -1.2441
 5210SOL     OW31049   3.546   3.073   7.800 -0.5768 -0.1238  0.1283
 5210SOL    HW131050   3.601   3.134   7.750 -2.1769  2.4258  1.3780
 5210SOL    HW231051   3.580   3.079   7.890 -1.0195 -0.7658  0.3387
 5211SOL     OW31052   0.642   5.380  11.779 -0.0079 -0.0229  0.0316
 5211SOL    HW131053   0.697   5.428  11.716  0.5247 -0.0308  0.4836
 5211SOL    HW231054   0.561   5.430  11.784  0.1416  0.2525 -0.2882
 5212SOL     OW31055   5.131   3.652   2.560 -0.0502  0.2383  0.1444
 5212SOL    HW131056   5.120   3.570   2.513  2.2815 -0.5169  0.8963
 5212SOL    HW231057   5.116   3.720   2.494 -1.0362 -0.7797 -0.6844
 5213SOL     OW31058   0.286   4.005  11.997 -0.0019 -0.1431 -0.2992
 5213SOL    HW131059   0.364   4.060  11.988  0.9751 -0.9384  2.7417
 5213SOL    HW231060   0.320   3.916  12.007 -1.4861 -1.0568 -2.8598
 5214SOL     OW31061   4.415   4.129   3.256  0.5064 -0.5385 -0.3966
 5214SOL    HW131062   4.467   4.139   3.335  2.2383  0.9975 -1.6692
 5214SOL    HW231063   4.334   4.086   3.284  1.9735 -1.9034  1.8275
 5215SOL     OW31064   2.298   2.352   3.747 -0.3941  0.6711  0.7889
 5215SOL    HW131065   2.331   2.262   3.750  1.5689  1.3335 -0.3013
 5215SOL    HW231066   2.375   2.405   3.729 -1.6971  2.4959  0.4697
 5216SOL     OW31067   5.645   5.333  11.666 -0.3461 -0.2070 -0.1445
 5216SOL    HW131068   5.601   5.282  11.598 -1.0600  0.5162 -0.2311
 5216SOL    HW231069   5.616   5.423  11.651  0.5335  0.1556  0.2970
 5217SOL     OW31070   1.285   1.431   4.473 -0.9723  0.3437  0.7834
 5217SOL    HW131071   1.379   1.423   4.486 -0.9651  1.8944  1.7460
 5217SOL    HW231072   1.246   1.392   4.551 -1.1956 -1.5769 -0.2307
 5218SOL     OW31073   4.809   4.970  11.255  0.1134 -0.6484 -0.3122
 5218SOL    HW131074   4.742   4.932  11.311 -0.6560  0.7201 -0.2881
 5218SOL    HW231075   4.817   5.061  11.284  2.0916 -0.8244 -0.2116
 5219SOL     OW31076   3.600   5.660  10.013  0.1990  0.0356 -0.1481
 5219SOL    HW131077   3.566   5.749  10.021  1.4191  0.8225 -2.9520
 5219SOL    HW231078   3.694   5.669  10.022  0.2653 -1.0915  0.3823
 5220SOL     OW31079   5.675   1.743   8.844 -0.3303  0.5621  0.1882
 5220SOL    HW131080   5.757   1.708   8.878 -0.0137  0.1668 -0.9516
 5220SOL    HW231081   5.687   1.838   8.847 -0.3561  0.5335  1.2845
 5221SOL     OW31082   3.825   5.148   0.922  0.3737 -0.9296  0.2175
 5221SOL    HW131083   3.920   5.159   0.930 -0.1242  3.2972  1.3023
 5221SOL    HW231084   3.804   5.185   0.837 -0.4019 -1.1764  0.2988
 5222SOL     OW31085   0.294   2.764   8.661 -0.5466 -0.0530 -0.1166
 5222SOL    HW131086   0.342   2.692   8.702 -0.4937  0.6244  1.0422
 5222SOL    HW231087   0.284   2.829   8.731  1.7091  2.2253 -1.7801
 5223SOL     OW31088   3.066   0.335   1.839 -0.1629 -0.2124 -0.4303
 5223SOL    HW131089   2.995   0.288   1.882 -1.3754  0.1606 -1.9502
 5223SOL    HW231090   3.126   0.360   1.909  0.0558 -3.2510  0.4981
 5224SOL     OW31091   1.139   4.130   9.819 -0.0356 -0.7853 -0.0605
 5224SOL    HW131092   1.206   4.189   9.785  0.4204 -1.4521 -0.3279
 5224SOL    HW231093   1.116   4.166   9.904 -0.2814  0.1872 -0.5280
 5225SOL     OW31094   3.768   0.863   7.461  0.4114  0.7407  0.0235
 5225SOL    HW131095   3.821   0.838   7.385 -1.7292 -0.7884 -1.0294
 5225SOL    HW231096   3.832   0.877   7.531  2.3239  0.7725 -1.6689
 5226SOL     OW31097   3.225   1.008   9.887  0.5778 -0.6598  0.6548
 5226SOL    HW131098   3.292   1.040   9.947  1.2879  0.0237 -0.4869
 5226SOL    HW231099   3.262   0.926   9.852 -0.2518 -1.5698  1.8560
 5227SOL     OW31100   5.333   1.963   9.987 -0.0527 -0.2713 -0.2589
 5227SOL    HW131101   5.374   1.935   9.905  1.5506  0.6347  0.2186
 5227SOL    HW231102   5.239   1.965   9.967  0.3362  0.2789 -2.1749
 5228SOL     OW31103   3.653   2.861  12.027  0.3569 -0.2312 -0.2607
 5228SOL    HW131104   3.685   2.837  11.941  1.7149 -0.9345  0.4263
 5228SOL    HW231105   3.625   2.779  12.067  1.1517 -0.1287  0.5281
 5229SOL     OW31106   0.477   3.189   0.383 -0.0590 -0.2311 -0.1312
 5229SOL    HW131107   0.436   3.105   0.364  0.0582 -0.0448 -1.2675
 5229SOL    HW231108   0.477   3.235   0.299  2.0108 -0.0139 -0.0454
 5230SOL     OW31109   0.582   5.790  10.720  0.7910 -0.1977  0.9652
 5230SOL    HW131110   0.670   5.796  10.758  0.0970 -0.8172  2.7746
 5230SOL    HW231111   0.531   5.855  10.768  0.0230 -0.6005  0.7075
 5231SOL     OW31112   3.066   2.925   9.938 -0.6181 -0.6239 -0.0907
 5231SOL    HW131113   3.007   2.906   9.865 -0.7553 -0.9430  0.1064
 5231SOL    HW231114   3.041   3.013   9.967 -0.2100 -0.2708 -0.7779
 5232SOL     OW31115   1.017   0.453   3.717 -0.3035  0.2891  0.5093
 5232SOL    HW131116   0.953   0.383   3.730 -0.5631  0.5075  0.4223
 5232SOL    HW231117   1.084   0.437   3.783 -0.2464 -0.1718  0.3458
 5233SOL     OW31118   2.421   5.420  12.399 -0.1582 -0.0076  0.0843
 5233SOL    HW131119   2.443   5.503  12.358  1.6264  0.1328  1.2524
 5233SOL    HW231120   2.365   5.443  12.473  0.3245  0.1505  0.3990
 5234SOL     OW31121   5.748   5.728   2.891  0.1859 -0.5946  0.3492
 5234SOL    HW131122   5.817   5.737   2.958 -0.2628 -1.1643  0.8956
 5234SOL    HW231123   5.785   5.669   2.826  1.3800  1.4941 -0.9097
 5235SOL     OW31124   5.573   4.757  11.971 -0.4447  0.1067  0.2266
 5235SOL    HW131125   5.640   4.709  11.922 -0.9285 -0.1034 -0.2268
 5235SOL    HW231126   5.527   4.809  11.906 -0.4088  0.6284  0.6108
 5236SOL     OW31127   1.919   1.025  11.674 -0.0227  0.4789  0.4529
 5236SOL    HW131128   1.877   0.944  11.644  1.3141  0.2300 -0.8238
 5236SOL    HW231129   1.939   1.010  11.766 -1.6537  0.1622  0.7686
 5237SOL     OW31130   0.947   0.594   2.213 -0.4374 -0.5077 -0.2566
 5237SOL    HW131131   0.927   0.656   2.143 -0.9615  0.7386  0.9606
 5237SOL    HW231132   0.950   0.509   2.170 -1.2272  0.1770 -1.7056
 5238SOL     OW31133   5.210   1.106   9.523  0.4538 -0.3817  0.5883
 5238SOL    HW131134   5.254   1.184   9.489  2.3099 -0.4696  2.6716
 5238SOL    HW231135   5.265   1.033   9.496 -0.7470 -0.9296 -0.4849
 5239SOL     OW31136   0.453   5.700  -0.006 -0.2336  0.4446  0.0678
 5239SOL    HW131137   0.519   5.663   0.051  0.2576  1.7831  0.3826
 5239SOL    HW231138   0.404   5.624  -0.039 -0.4347 -0.3593  2.1297
 5240SOL     OW31139   2.519   4.698   0.853 -0.3663 -0.6888 -0.1650
 5240SOL    HW131140   2.560   4.775   0.814  1.1751 -1.5295 -0.2402
 5240SOL    HW231141   2.445   4.678   0.795 -0.1911  0.1506 -0.6817
 5241SOL     OW31142   4.295   0.220   2.511 -0.1378  0.0554 -0.2604
 5241SOL    HW131143   4.254   0.158   2.571 -2.1600  1.1827 -0.3996
 5241SOL    HW231144   4.299   0.302   2.561  0.4750  0.3569 -0.8028
 5242SOL     OW31145   5.494   5.957   8.368 -1.1146  0.3175 -0.4654
 5242SOL    HW131146   5.563   5.892   8.354  0.7084  1.9838  0.4409
 5242SOL    HW231147   5.448   5.961   8.284  1.3600  0.7926 -1.8543
 5243SOL     OW31148   5.232   2.839   0.287  0.3671 -0.0993 -0.5426
 5243SOL    HW131149   5.205   2.779   0.217 -1.5183  2.1283 -1.7898
 5243SOL    HW231150   5.327   2.832   0.289  0.2450 -2.5358 -1.1760
 5244SOL     OW31151   5.415   2.385   1.854  0.3117 -0.0641  0.6233
 5244SOL    HW131152   5.402   2.479   1.865 -0.3914  0.1879 -2.2483
 5244SOL    HW231153   5.330   2.351   1.828  1.6314 -0.7562 -2.9908
 5245SOL     OW31154   5.768   5.309  11.375  0.5551 -0.2039  0.4831
 5245SOL    HW131155   5.734   5.309  11.286  1.0805  0.5982  0.2820
 5245SOL    HW231156   5.863   5.320  11.365  0.7049 -0.8800  1.1034
 5246SOL     OW31157   5.811   5.339   8.384  0.4636 -0.2417  0.1275
 5246SOL    HW131158   5.739   5.385   8.342 -0.4048 -0.4462  1.3714
 5246SOL    HW231159   5.886   5.397   8.374  0.1873 -0.1434 -1.3972
 5247SOL     OW31160   2.151   5.756   2.598  0.5880 -0.4999  0.1780
 5247SOL    HW131161   2.086   5.722   2.537 -0.4264 -0.1378  1.0195
 5247SOL    HW231162   2.231   5.709   2.578 -0.0568 -1.2786 -0.5964
 5248SOL     OW31163   0.874   4.554  12.322 -0.0115 -0.0069 -0.1625
 5248SOL    HW131164   0.854   4.647  12.323 -1.2849 -0.2827  1.4524
 5248SOL    HW231165   0.816   4.516  12.388  1.1728 -1.7932 -0.1106
 5249SOL     OW31166   4.036   5.219   3.073  0.3091 -0.0326 -0.3330
 5249SOL    HW131167   3.976   5.292   3.058  0.2486 -0.1748 -0.8062
 5249SOL    HW231168   3.989   5.160   3.131 -0.3094 -0.4997 -1.2875
 5250SOL     OW31169   3.186   0.136  10.023 -0.4254  0.5873 -0.0925
 5250SOL    HW131170   3.235   0.213  10.052  1.5678 -0.3864 -0.7390
 5250SOL    HW231171   3.162   0.156   9.932  2.8682 -0.7557 -1.3673
 5251SOL     OW31172   4.594   0.481  11.042 -1.0371  0.4070 -0.5426
 5251SOL    HW131173   4.626   0.478  10.952  0.8827 -1.3029  0.1779
 5251SOL    HW231174   4.519   0.421  11.043 -1.0121  0.3679 -0.9487
 5252SOL     OW31175   4.466   5.600   2.753 -0.1825  0.3843 -0.1163
 5252SOL    HW131176   4.485   5.507   2.761 -0.0414  0.1846 -2.3684
 5252SOL    HW231177   4.488   5.637   2.838  1.6438 -1.3201  0.1863
 5253SOL     OW31178   2.161   2.733   0.175 -0.5540  0.0742 -0.4306
 5253SOL    HW131179   2.241   2.760   0.129  0.6412 -1.6065  0.6439
 5253SOL    HW231180   2.103   2.809   0.166  1.1661  1.3598 -1.1591
 5254SOL     OW31181   2.982   0.291  11.416 -0.5049 -0.2110 -0.0691
 5254SOL    HW131182   2.979   0.359  11.484 -1.1151  0.0969 -0.3944
 5254SOL    HW231183   3.072   0.293  11.385 -0.5471  0.5402 -0.1635
 5255SOL     OW31184   2.444   5.321   8.054 -0.5301 -0.3159 -0.0988
 5255SOL    HW131185   2.373   5.303   7.993 -0.5606  1.4717 -0.6205
 5255SOL    HW231186   2.523   5.320   8.001 -0.6886  2.5873 -0.4788
 5256SOL     OW31187   1.206   1.399  11.888  0.6344  0.4530 -0.0675
 5256SOL    HW131188   1.207   1.330  11.955  1.0567 -1.0049 -1.5530
 5256SOL    HW231189   1.115   1.402  11.858  0.9000 -0.3882 -0.9559
 5257SOL     OW31190   1.625   0.640   0.757  0.7339 -0.4314 -0.0303
 5257SOL    HW131191   1.634   0.731   0.726 -0.2681 -0.3901 -0.2220
 5257SOL    HW231192   1.599   0.649   0.849 -0.7199 -0.4991 -0.4206
 5258SOL     OW31193   1.496   0.425   8.780  0.4923 -0.2000 -0.8995
 5258SOL    HW131194   1.521   0.355   8.840  0.7412 -1.0925 -2.0251
 5258SOL    HW231195   1.577   0.472   8.761  0.5774 -0.4797 -1.2400
 5259SOL     OW31196   4.008   0.272  10.603 -0.4434 -0.0041 -0.6008
 5259SOL    HW131197   3.955   0.238  10.676  2.0275 -0.8269  0.8486
 5259SOL    HW231198   3.943   0.312  10.544 -2.6345 -0.4938  1.3711
 5260SOL     OW31199   4.234   1.039  11.932  0.5389 -0.3586  0.1390
 5260SOL    HW131200   4.326   1.056  11.954  0.7962  0.8666 -1.7080
 5260SOL    HW231201   4.229   1.058  11.838 -1.4021 -1.3217  0.0403
 5261SOL     OW31202   3.390   1.251   1.507 -0.1009  0.2885 -0.0953
 5261SOL    HW131203   3.331   1.300   1.565  1.5331  1.9631  0.2137
 5261SOL    HW231204   3.464   1.310   1.494  0.3894 -0.8103 -2.4439
 5262SOL     OW31205   0.174   1.197  10.060  0.1011 -0.3348  0.3959
 5262SOL    HW131206   0.137   1.227  10.143  1.6417 -0.6347  1.2137
 5262SOL    HW231207   0.147   1.106  10.053 -1.5051  0.1815 -0.3006
 5263SOL     OW31208   5.040   0.972  11.946  0.1607 -0.2833 -0.2615
 5263SOL    HW131209   5.110   0.928  11.899  0.4758  0.2396 -0.2880
 5263SOL    HW231210   4.964   0.915  11.935  0.1281  0.0197 -1.7411
 5264SOL     OW31211   1.964   5.318  10.817  0.1447 -0.1670 -0.4754
 5264SOL    HW131212   1.902   5.390  10.803  0.5788 -0.0798 -2.0474
 5264SOL    HW231213   2.025   5.351  10.883 -1.2138 -0.0871  0.7439
 5265SOL     OW31214   2.319   3.138   0.568  0.2751  0.5790 -0.2050
 5265SOL    HW131215   2.271   3.157   0.649 -0.5043  0.1965 -0.5728
 5265SOL    HW231216   2.382   3.071   0.592  0.4769  0.9228  0.2326
 5266SOL     OW31217   2.745   0.929  10.356 -0.2213  0.0985 -0.9028
 5266SOL    HW131218   2.721   0.993  10.423  2.5731 -0.8793  1.1801
 5266SOL    HW231219   2.792   0.980  10.290  0.4927  0.5154 -0.0990
 5267SOL     OW31220   4.796   3.082   1.836 -0.2130  0.4575  0.1622
 5267SOL    HW131221   4.849   3.162   1.834 -0.3730  0.5782  0.5156
 5267SOL    HW231222   4.750   3.087   1.920 -0.9196  0.4444 -0.2225
 5268SOL     OW31223   0.099   0.181  12.214  0.0697  0.1268  0.4581
 5268SOL    HW131224   0.115   0.139  12.299  2.7754  1.2491  0.5405
 5268SOL    HW231225   0.161   0.139  12.155 -0.5083  0.6834 -0.5556
 5269SOL     OW31226   2.746   5.106   2.381 -0.1560  0.3307 -0.0760
 5269SOL    HW131227   2.737   5.129   2.473  0.8247 -0.1400  0.1445
 5269SOL    HW231228   2.756   5.189   2.336 -0.5174  0.5554  0.2527
 5270SOL     OW31229   5.945   2.801   1.303  0.0710 -0.3278  0.4776
 5270SOL    HW131230   5.911   2.722   1.345  0.5266 -1.2555 -0.8817
 5270SOL    HW231231   5.940   2.783   1.209  2.2567  0.3845  0.1975
 5271SOL     OW31232   4.577   1.926   2.334  0.5252 -0.3877 -0.1678
 5271SOL    HW131233   4.611   1.994   2.276 -1.1977  0.5300 -0.1682
 5271SOL    HW231234   4.575   1.847   2.280 -0.9793  0.4330 -1.3847
 5272SOL     OW31235   5.341   5.248   0.826 -0.1016 -0.2798 -0.8678
 5272SOL    HW131236   5.270   5.229   0.765  1.6200 -2.2107 -2.3262
 5272SOL    HW231237   5.395   5.169   0.826  0.6907  0.2007  2.1242
 5273SOL     OW31238   3.534   2.627   8.356  0.5899  0.1481  0.3982
 5273SOL    HW131239   3.540   2.578   8.274  2.5220  0.8697  0.0909
 5273SOL    HW231240   3.515   2.560   8.422  0.2904 -0.6037 -0.4410
 5274SOL     OW31241   4.966   1.511   9.618 -0.2257  0.1319 -0.1625
 5274SOL    HW131242   5.001   1.561   9.544 -1.3062 -0.4194 -1.0566
 5274SOL    HW231243   4.974   1.420   9.591  0.3353 -0.1278  0.8419
 5275SOL     OW31244   4.106   4.912  11.654 -0.2031  0.9763 -0.1702
 5275SOL    HW131245   4.092   4.825  11.689  0.2590  1.0517  0.2101
 5275SOL    HW231246   4.082   4.905  11.562 -2.0199  0.9363  0.2963
 5276SOL     OW31247   2.223   0.037   4.182 -0.0831  0.0147 -0.1425
 5276SOL    HW131248   2.188  -0.051   4.170 -1.3994  0.3797  0.8054
 5276SOL    HW231249   2.266   0.058   4.099  0.6080 -1.6770 -0.2213
 5277SOL     OW31250   4.656   3.810   2.480 -0.6631 -0.3789 -0.0695
 5277SOL    HW131251   4.688   3.789   2.392 -1.1660 -2.1141  0.1332
 5277SOL    HW231252   4.587   3.745   2.496 -1.5824  0.8467  1.0404
 5278SOL     OW31253   0.163   2.873  10.320 -0.2839  0.0031 -0.5893
 5278SOL    HW131254   0.067   2.863  10.322 -0.5257  1.8231 -1.8761
 5278SOL    HW231255   0.179   2.960  10.355  0.8400  0.0672 -1.2481
 5279SOL     OW31256   4.388   1.719  10.417  0.2066 -0.3132 -0.1941
 5279SOL    HW131257   4.418   1.758  10.335  0.3393 -2.2740 -1.1052
 5279SOL    HW231258   4.467   1.682  10.456 -0.2136 -1.3682 -0.3149
 5280SOL     OW31259   1.005   0.341   2.934 -0.1315 -0.1416 -0.0935
 5280SOL    HW131260   1.017   0.422   2.885  0.1896  0.4939  1.0096
 5280SOL    HW231261   0.995   0.369   3.025 -0.4336 -1.3135  0.2492
 5281SOL     OW31262   2.188   4.147   9.436 -0.3454 -0.2786 -0.3597
 5281SOL    HW131263   2.124   4.080   9.411 -1.1295  0.5120 -0.5005
 5281SOL    HW231264   2.266   4.127   9.385 -0.8733 -0.5644 -1.0591
 5282SOL     OW31265   5.236   0.936  11.741 -0.1820 -0.6821 -0.5445
 5282SOL    HW131266   5.275   0.850  11.759  3.1613  0.8102 -0.3582
 5282SOL    HW231267   5.290   0.973  11.672 -0.8291  1.7807  0.2084
 5283SOL     OW31268   0.470   2.914  10.708 -0.0742 -0.1336 -0.5764
 5283SOL    HW131269   0.564   2.909  10.724 -0.1305  2.0775  0.6136
 5283SOL    HW231270   0.460   2.891  10.615  1.4011 -2.3593 -0.2021
 5284SOL     OW31271   5.437   3.251   3.513  0.3098  0.1904  0.1481
 5284SOL    HW131272   5.364   3.234   3.572  0.5877  0.6719  0.6413
 5284SOL    HW231273   5.439   3.346   3.504  2.0060  0.3301  1.6154
 5285SOL     OW31274   0.315   1.114  11.264  0.2491  0.3213  0.4091
 5285SOL    HW131275   0.256   1.039  11.268 -1.0000  1.3658  2.1351
 5285SOL    HW231276   0.332   1.136  11.355  1.7708  1.2527 -0.0773
 5286SOL     OW31277   5.031   2.063   2.041 -0.4171  1.2922 -0.7979
 5286SOL    HW131278   5.124   2.066   2.019  0.0443  0.2112  0.8638
 5286SOL    HW231279   5.017   2.138   2.097 -0.1922  0.6233  0.1696
 5287SOL     OW31280   4.643   0.648   9.348 -0.3872 -0.8164 -0.4046
 5287SOL    HW131281   4.715   0.658   9.286  0.4206 -0.3526  0.5934
 5287SOL    HW231282   4.566   0.681   9.301 -0.2131 -2.5597 -1.9598
 5288SOL     OW31283   2.194   0.389  11.397 -0.5092  0.0926 -0.0577
 5288SOL    HW131284   2.116   0.337  11.377 -0.5648  0.4869 -0.8963
 5288SOL    HW231285   2.265   0.324  11.401 -0.4422  0.0370 -1.8970
 5289SOL     OW31286   4.517   2.871  11.659 -0.1897  0.2375  0.2398
 5289SOL    HW131287   4.441   2.903  11.709 -0.5008 -0.0446 -0.0509
 5289SOL    HW231288   4.589   2.927  11.688 -0.3044 -0.1029  1.2150
 5290SOL     OW31289   5.073   1.668   1.613  0.4943  0.4625 -0.8247
 5290SOL    HW131290   5.033   1.749   1.646 -0.2365  0.1388 -0.9199
 5290SOL    HW231291   5.163   1.693   1.593 -0.1573  1.6502 -2.3478
 5291SOL     OW31292   5.102   3.367  10.661 -0.0359 -0.7606  0.3597
 5291SOL    HW131293   5.101   3.459  10.633  0.7899 -1.1397 -0.9642
 5291SOL    HW231294   5.121   3.318  10.581  0.5185 -2.0240  1.2502
 5292SOL     OW31295   5.879   3.485   8.747 -0.1480 -0.5949 -1.0413
 5292SOL    HW131296   5.871   3.437   8.830  0.8358  0.4068 -0.3340
 5292SOL    HW231297   5.792   3.521   8.731  0.3058  1.5784  1.0690
 5293SOL     OW31298   4.737   5.024   9.754  0.3941  0.6792  0.8548
 5293SOL    HW131299   4.832   5.030   9.766  0.8088 -3.1964 -0.0468
 5293SOL    HW231300   4.723   5.052   9.664  0.9341 -0.6206  0.3555
 5294SOL     OW31301   1.362   1.169   0.662 -0.1800  0.0661 -0.2288
 5294SOL    HW131302   1.399   1.085   0.636 -0.7732 -0.3842  0.3424
 5294SOL    HW231303   1.384   1.176   0.755 -0.5309  0.3302 -0.1660
 5295SOL     OW31304   5.929   0.349   2.866  0.4040 -0.0939 -0.5997
 5295SOL    HW131305   5.942   0.290   2.791  2.1164 -1.4403  0.7314
 5295SOL    HW231306   5.835   0.347   2.881  0.2197 -1.0383 -1.7437
 5296SOL     OW31307   5.846   1.589  10.672 -0.1088  0.0488  0.3123
 5296SOL    HW131308   5.846   1.663  10.732  1.4689  1.4186 -1.3307
 5296SOL    HW231309   5.928   1.543  10.691 -0.8037 -0.9515  0.9281
 5297SOL     OW31310   0.179   3.932   8.411 -0.2793 -0.0183  0.0884
 5297SOL    HW131311   0.158   3.885   8.492 -0.6092  0.3123  0.1946
 5297SOL    HW231312   0.236   3.872   8.363 -1.5846 -0.9962 -0.2635
 5298SOL     OW31313   2.638   4.468   0.159 -0.5031  0.0059  0.4682
 5298SOL    HW131314   2.613   4.555   0.190  0.7300  1.0542 -1.3710
 5298SOL    HW231315   2.734   4.470   0.161 -0.4737 -1.1975  0.0776
 5299SOL     OW31316   1.953   2.213  12.076  0.2026  0.0774  0.1064
 5299SOL    HW131317   1.859   2.196  12.080  0.1958  0.1757  0.3458
 5299SOL    HW231318   1.960   2.304  12.049  0.2288  0.1531  0.3671
 5300SOL     OW31319   0.007   2.897   4.082 -0.6820  0.2152 -0.5764
 5300SOL    HW131320  -0.015   2.965   4.144  0.5518  0.2718 -0.1871
 5300SOL    HW231321   0.019   2.943   3.998 -0.4403  0.4000 -0.4413
 5301SOL     OW31322   0.592   1.288   3.716  0.4903  0.0503  0.4851
 5301SOL    HW131323   0.623   1.283   3.806  1.3479 -0.9747  0.1391
 5301SOL    HW231324   0.497   1.273   3.721  0.5212  0.1176  1.2192
 5302SOL     OW31325   4.826   0.011   0.421 -0.4114 -0.1702  0.2833
 5302SOL    HW131326   4.842   0.102   0.447  0.5225 -0.1252 -0.4338
 5302SOL    HW231327   4.902  -0.013   0.369 -2.2075 -0.2673 -2.3858
 5303SOL     OW31328   1.300   4.223  10.113  0.4456 -0.1009  0.0647
 5303SOL    HW131329   1.373   4.248  10.169  0.5815  0.8023 -0.5001
 5303SOL    HW231330   1.255   4.306  10.094 -0.7362 -0.6427  0.4164
 5304SOL     OW31331   3.499   4.326   9.356 -0.0859 -0.6280 -0.0209
 5304SOL    HW131332   3.448   4.368   9.287  0.0947 -1.5940 -0.7378
 5304SOL    HW231333   3.452   4.350   9.437 -0.5489  0.1192 -0.4970
 5305SOL     OW31334   3.697   4.403   1.542  0.3791  0.8393  0.0217
 5305SOL    HW131335   3.607   4.437   1.544 -0.3379 -1.0002 -0.4843
 5305SOL    HW231336   3.701   4.350   1.463  0.4099 -3.0752  2.4999
 5306SOL     OW31337   3.961   3.157  11.805  0.4009 -1.1451 -0.4442
 5306SOL    HW131338   3.915   3.141  11.887  2.6174 -0.9320  0.8941
 5306SOL    HW231339   3.916   3.232  11.767 -2.6673 -3.2080 -1.0338
 5307SOL     OW31340   4.713   1.446   3.549  0.1837 -0.2477  0.0440
 5307SOL    HW131341   4.636   1.495   3.518  0.1610 -0.8909 -0.9345
 5307SOL    HW231342   4.699   1.437   3.643 -1.3973 -1.1234 -0.2579
 5308SOL     OW31343   3.844   5.835   7.560  0.5153 -0.1341 -0.3513
 5308SOL    HW131344   3.768   5.815   7.505  0.7091 -0.0443 -0.6593
 5308SOL    HW231345   3.824   5.920   7.599  0.2373 -0.3461 -0.0331
 5309SOL     OW31346   0.369   5.330   3.052  0.1694 -0.1046  0.1804
 5309SOL    HW131347   0.371   5.280   3.133  1.4315  0.6999  0.6794
 5309SOL    HW231348   0.370   5.265   2.983  1.7316 -0.7842  0.8176
 5310SOL     OW31349   3.707   3.423  11.499 -0.0488 -0.0170 -0.5510
 5310SOL    HW131350   3.723   3.356  11.566  0.2390  1.1372  0.5460
 5310SOL    HW231351   3.661   3.376  11.430  1.4360 -1.7041 -0.4487
 5311SOL     OW31352   4.222   3.943  10.490  0.5703 -0.0608 -0.3272
 5311SOL    HW131353   4.164   3.895  10.548 -1.2789  0.8440 -1.3844
 5311SOL    HW231354   4.276   3.876  10.449  1.3383 -0.7782  1.7860
 5312SOL     OW31355   1.833   0.696  10.968 -0.3599 -0.1127  0.1780
 5312SOL    HW131356   1.881   0.676  10.888 -0.9032  0.2375 -0.2414
 5312SOL    HW231357   1.866   0.782  10.996 -0.7888  0.1563 -0.1433
 5313SOL     OW31358   0.824   4.109  10.353  0.1589  0.1572  0.9400
 5313SOL    HW131359   0.785   4.085  10.269  2.2408 -1.2766  0.3244
 5313SOL    HW231360   0.824   4.027  10.403  1.6862  0.2877  1.1706
 5314SOL     OW31361   5.795   0.254   9.267  0.5709  0.1735 -0.3824
 5314SOL    HW131362   5.762   0.207   9.191  0.7400  2.1233 -1.7185
 5314SOL    HW231363   5.835   0.187   9.322 -0.6227 -1.4291 -1.4365
 5315SOL     OW31364   3.696   5.454   8.325 -0.1855  0.0352  0.6172
 5315SOL    HW131365   3.734   5.379   8.279 -0.2027 -0.1174  0.8463
 5315SOL    HW231366   3.688   5.424   8.416 -1.7931 -0.2872  0.3815
 5316SOL     OW31367   2.450   1.225  11.245  0.6035 -0.6926  0.3914
 5316SOL    HW131368   2.491   1.207  11.161  0.2635  0.3873 -0.0036
 5316SOL    HW231369   2.405   1.143  11.267  1.3141 -1.2302 -0.1024
 5317SOL     OW31370   5.508   2.903   7.939 -0.1987  0.1800 -0.2379
 5317SOL    HW131371   5.506   2.876   7.847  1.2184  1.0317 -0.5272
 5317SOL    HW231372   5.501   2.998   7.937  2.3346  0.4125  0.3837
 5318SOL     OW31373   4.631   4.709   2.015  0.4125 -0.0919  0.0444
 5318SOL    HW131374   4.588   4.691   1.931  0.3320 -0.5499  0.1839
 5318SOL    HW231375   4.569   4.766   2.061  2.0428  3.2543 -1.6690
 5319SOL     OW31376   1.104   5.954   9.078 -0.1535 -0.4196 -0.1446
 5319SOL    HW131377   1.048   5.893   9.125  0.2606 -0.5683  0.1584
 5319SOL    HW231378   1.092   5.931   8.985  0.6772 -1.5631  0.0110
 5320SOL     OW31379   0.381   1.869   7.557 -0.4350 -0.1200  0.2636
 5320SOL    HW131380   0.319   1.796   7.550  1.6816 -1.7996 -1.7218
 5320SOL    HW231381   0.450   1.836   7.615 -1.2958  1.7192  2.4247
 5321SOL     OW31382   1.186   1.670   8.094 -0.3681  0.0503 -0.0320
 5321SOL    HW131383   1.176   1.708   8.181 -0.4181  1.7081 -0.7304
 5321SOL    HW231384   1.277   1.639   8.091 -0.2238  0.4277  0.4508
 5322SOL     OW31385   4.971   5.895  11.356 -0.1675  0.0737  0.6505
 5322SOL    HW131386   4.882   5.926  11.371  0.5294  2.0967  0.7698
 5322SOL    HW231387   5.015   5.904  11.440  0.4143 -0.0381  0.3629
 5323SOL     OW31388   2.040   3.857  12.405  0.6086  0.1018  0.0015
 5323SOL    HW131389   2.074   3.937  12.445 -0.5038  0.5448  0.0921
 5323SOL    HW231390   2.040   3.875  12.311  0.5334  0.1408  0.0072
 5324SOL     OW31391   0.317   0.752   2.725 -0.1696 -0.1185  0.4693
 5324SOL    HW131392   0.357   0.817   2.667 -0.1273 -0.9272 -0.4249
 5324SOL    HW231393   0.391   0.701   2.758  0.0862  2.0478  3.4059
 5325SOL     OW31394   0.345   0.840  11.860 -0.1208 -0.2972 -0.5943
 5325SOL    HW131395   0.408   0.789  11.911 -0.0905 -0.3407 -0.6732
 5325SOL    HW231396   0.286   0.878  11.924 -0.1044 -0.3794 -0.5308
 5326SOL     OW31397   2.905   3.928  12.044  0.2466  0.1211  0.3672
 5326SOL    HW131398   2.860   3.844  12.046 -0.2008  0.3748  1.8043
 5326SOL    HW231399   2.984   3.914  12.096 -0.2720  0.8217  1.3624
 5327SOL     OW31400   0.444   1.383   9.142  0.4404  0.2866 -0.0561
 5327SOL    HW131401   0.402   1.468   9.129  1.8264  0.9709 -0.1673
 5327SOL    HW231402   0.484   1.389   9.228  1.9682  0.3913 -0.7445
 5328SOL     OW31403   0.144   3.426  12.310 -0.0175  0.1073  0.4893
 5328SOL    HW131404   0.079   3.416  12.379  0.0793  0.7878  0.6818
 5328SOL    HW231405   0.093   3.443  12.231 -0.0343  2.0809  0.8975
 5329SOL     OW31406   0.294   4.958  -0.018  0.1565 -0.5279 -0.3292
 5329SOL    HW131407   0.227   5.023   0.003 -1.0589 -1.6525 -0.6861
 5329SOL    HW231408   0.341   4.946   0.064  1.8082  2.3622 -0.7667
 5330SOL     OW31409   3.544   5.864   0.508 -0.0045  0.4917 -0.3992
 5330SOL    HW131410   3.552   5.853   0.603  1.4902  1.5131 -0.3929
 5330SOL    HW231411   3.615   5.923   0.484 -1.7342  2.0884 -1.8277
 5331SOL     OW31412   1.732   5.927   7.771 -0.1484 -0.3168 -0.3758
 5331SOL    HW131413   1.746   5.989   7.700 -0.2039  1.0324  0.7834
 5331SOL    HW231414   1.781   5.849   7.745 -0.1321  0.1756 -1.8628
 5332SOL     OW31415   1.498   1.043   0.889 -0.3835  0.2904  0.3931
 5332SOL    HW131416   1.594   1.047   0.886 -0.4173  1.8520  0.8331
 5332SOL    HW231417   1.476   1.069   0.979 -1.3022  2.6156 -0.4490
 5333SOL     OW31418   2.240   2.894   9.744  0.8573 -0.1370  0.2761
 5333SOL    HW131419   2.201   2.808   9.762 -0.4198  0.7966  2.1528
 5333SOL    HW231420   2.284   2.883   9.659  0.0481 -2.4059  0.1063
 5334SOL     OW31421   2.552   5.947  11.310 -0.0987  0.4347 -0.2040
 5334SOL    HW131422   2.640   5.960  11.275  0.5559  0.5321  1.4759
 5334SOL    HW231423   2.545   5.853  11.324  0.2436  0.5777  0.9698
 5335SOL     OW31424   3.069   0.053   0.498  0.3877 -0.5282 -0.0313
 5335SOL    HW131425   3.090   0.034   0.407  1.1996 -0.7401  0.1933
 5335SOL    HW231426   3.049  -0.033   0.536  0.8154 -0.5332  0.1827
 5336SOL     OW31427   5.334   5.205  12.367 -0.6603  0.0843 -0.3868
 5336SOL    HW131428   5.251   5.159  12.351 -0.4788  0.0725 -1.3436
 5336SOL    HW231429   5.314   5.266  12.438 -1.9206  1.1896 -1.6579
 5337SOL     OW31430   3.298   2.945  12.446 -0.2551  0.2817  0.1631
 5337SOL    HW131431   3.292   3.030  12.401 -2.8500 -0.3309 -0.7619
 5337SOL    HW231432   3.207   2.920  12.461  0.4081 -2.9477 -0.7414
 5338SOL     OW31433   4.739   3.591   0.779 -0.2187  0.2570 -0.4667
 5338SOL    HW131434   4.696   3.511   0.748  0.0815 -0.5332  1.1007
 5338SOL    HW231435   4.817   3.599   0.724 -0.9140  0.1895 -1.4887
 5339SOL     OW31436   0.105   0.536   8.284 -0.2840 -0.0902  0.2422
 5339SOL    HW131437   0.200   0.524   8.275 -0.0560  0.4077  1.8057
 5339SOL    HW231438   0.072   0.448   8.302 -0.1839 -0.3442 -0.7980
 5340SOL     OW31439   2.554   0.443   3.376  0.3672 -0.1658 -0.1146
 5340SOL    HW131440   2.470   0.438   3.421  0.1732 -2.1054 -0.6313
 5340SOL    HW231441   2.535   0.412   3.287  2.1579 -3.4042  0.5574
 5341SOL     OW31442   2.003   5.242  12.426 -0.5722 -0.2428  0.4273
 5341SOL    HW131443   1.930   5.181  12.414 -1.9162  1.4518 -0.1157
 5341SOL    HW231444   2.079   5.185  12.441 -1.7061 -2.0727 -0.5521
 5342SOL     OW31445   2.568   4.722  12.421  0.0247 -0.2083  0.9235
 5342SOL    HW131446   2.515   4.726  12.500 -1.6703  1.2966 -0.2341
 5342SOL    HW231447   2.509   4.685  12.355  0.3763  1.4704 -0.3864
 5343SOL     OW31448   2.080   3.302   9.052  0.0835  0.1090  0.3979
 5343SOL    HW131449   2.040   3.386   9.029  0.8549  0.9775  2.0669
 5343SOL    HW231450   2.007   3.246   9.078 -0.2710  0.9765  1.3279
 5344SOL     OW31451   0.530   3.896   3.265 -0.7906  0.2065  0.1466
 5344SOL    HW131452   0.583   3.905   3.344  0.1766 -0.1109 -0.4529
 5344SOL    HW231453   0.563   3.964   3.206  0.1939 -1.1339 -0.9030
 5345SOL     OW31454   0.773   4.893   0.413 -0.2004 -0.5060  0.6043
 5345SOL    HW131455   0.800   4.806   0.444 -0.4852 -0.7225  0.2457
 5345SOL    HW231456   0.854   4.934   0.382  0.4921  0.5376  3.5995
 5346SOL     OW31457   1.047   4.471  10.709 -0.5783  0.1432  0.0402
 5346SOL    HW131458   1.016   4.404  10.647 -0.2070  1.2653 -1.3676
 5346SOL    HW231459   1.142   4.463  10.708 -0.6021 -0.5500  1.3014
 5347SOL     OW31460   4.018   0.901   9.041  0.3941  0.0567 -0.0702
 5347SOL    HW131461   3.958   0.880   8.969 -0.3430  1.7977  0.0045
 5347SOL    HW231462   3.984   0.850   9.115 -1.0078  0.9776 -0.0413
 5348SOL     OW31463   5.487   1.529  11.844  0.7731 -0.1041  0.2401
 5348SOL    HW131464   5.449   1.616  11.834  2.0413  0.3938 -0.4975
 5348SOL    HW231465   5.578   1.539  11.815  1.0664 -1.5732  0.5703
 5349SOL     OW31466   3.421   5.019  11.680 -0.4503 -0.4184 -0.2368
 5349SOL    HW131467   3.349   5.040  11.620 -2.0673 -2.2276  1.0080
 5349SOL    HW231468   3.380   5.016  11.766  1.2757 -0.7664  0.5869
 5350SOL     OW31469   3.457   5.557  10.232  0.2020  0.3852 -0.1205
 5350SOL    HW131470   3.497   5.584  10.150 -0.5631 -0.6704 -0.8588
 5350SOL    HW231471   3.513   5.594  10.300  0.8583  1.2368 -1.1129
 5351SOL     OW31472   0.790   0.704  -0.022  0.1627  0.1698  0.0325
 5351SOL    HW131473   0.798   0.792   0.016  0.1779  0.8317 -1.4679
 5351SOL    HW231474   0.741   0.654   0.044 -0.2154  1.4114  0.7177
 5352SOL     OW31475   1.135   4.656   0.185 -0.2869 -0.2451  0.4885
 5352SOL    HW131476   1.042   4.678   0.188 -0.0005  0.9320  1.0282
 5352SOL    HW231477   1.143   4.599   0.108 -1.2752  0.4895 -0.1872
 5353SOL     OW31478   3.058   0.081   9.426  0.0282 -0.3654  0.5196
 5353SOL    HW131479   2.967   0.073   9.452  0.2280 -0.8656  1.0734
 5353SOL    HW231480   3.058   0.149   9.359 -0.7034 -0.1422  0.7453
 5354SOL     OW31481   3.495   4.673   2.301  0.2992 -0.0146  0.2272
 5354SOL    HW131482   3.457   4.758   2.323 -0.2383  0.0441 -0.8933
 5354SOL    HW231483   3.422   4.622   2.267  0.5542 -1.0442  1.1611
 5355SOL     OW31484   5.609   5.864  10.361  0.3504 -0.2118  0.8370
 5355SOL    HW131485   5.570   5.786  10.399 -0.5095 -0.0600  0.2875
 5355SOL    HW231486   5.659   5.831  10.286 -0.4466 -0.1870  0.2849
 5356SOL     OW31487   2.525   4.749   2.227 -0.7369 -0.4048 -0.1063
 5356SOL    HW131488   2.485   4.686   2.287  1.2653  0.3630  2.1138
 5356SOL    HW231489   2.485   4.833   2.250 -1.4080 -0.4005 -1.2247
 5357SOL     OW31490   3.515   5.305  10.410 -0.0665  0.3720 -0.4337
 5357SOL    HW131491   3.610   5.300  10.424  0.0337 -0.8633 -1.4606
 5357SOL    HW231492   3.506   5.337  10.320 -0.6140 -0.7447 -0.7742
 5358SOL     OW31493   2.240   0.627  10.815 -0.1548  0.5613  0.1317
 5358SOL    HW131494   2.174   0.562  10.792 -0.7267  1.0134  0.4867
 5358SOL    HW231495   2.198   0.681  10.881 -0.2167  2.2186 -1.2320
 5359SOL     OW31496   3.931   0.141  10.847  0.4895 -0.4504 -0.1507
 5359SOL    HW131497   3.928   0.046  10.858  1.5905 -0.3349  1.3034
 5359SOL    HW231498   4.012   0.168  10.892 -0.2488  1.2576  0.1951
 5360SOL     OW31499   4.380   2.938  11.412  0.3436  0.0046 -0.1552
 5360SOL    HW131500   4.402   2.880  11.485  2.4795  0.2018 -0.6103
 5360SOL    HW231501   4.461   2.986  11.394 -0.4341  0.6682 -2.0119
 5361SOL     OW31502   0.709   0.442   0.496  0.1643 -0.3963 -0.1715
 5361SOL    HW131503   0.626   0.490   0.499 -0.2071 -1.1308  1.8709
 5361SOL    HW231504   0.773   0.501   0.534 -0.0170 -0.9527  1.0252
 5362SOL     OW31505   3.248   4.371  10.918 -0.0633 -0.4091 -0.6169
 5362SOL    HW131506   3.296   4.415  10.848 -0.8334  1.5973  0.0658
 5362SOL    HW231507   3.157   4.393  10.902 -0.4363 -1.4967 -0.0461
 5363SOL     OW31508   3.099   0.753   1.047 -0.1877 -0.5254  0.4452
 5363SOL    HW131509   3.031   0.695   1.013 -0.2692 -0.9769  1.3528
 5363SOL    HW231510   3.180   0.724   1.006 -0.5192 -0.0930 -0.5166
 5364SOL     OW31511   3.781   3.848  12.310  0.0600  1.0413  0.4299
 5364SOL    HW131512   3.856   3.906  12.325  0.5369  0.1996  1.4073
 5364SOL    HW231513   3.777   3.794  12.389  0.2904 -0.9965 -0.9153
 5365SOL     OW31514   0.199   0.150  11.812  0.1919 -0.9003  0.3720
 5365SOL    HW131515   0.270   0.175  11.751  0.9890 -2.0153  0.8228
 5365SOL    HW231516   0.245   0.114  11.888 -0.7605  1.5381  2.1482
 5366SOL     OW31517   2.067   1.659  10.471  0.3271  0.3819 -0.6602
 5366SOL    HW131518   2.017   1.622  10.544  1.9450 -1.5982 -0.5049
 5366SOL    HW231519   2.136   1.710  10.512  1.6303 -1.2568 -0.7491
 5367SOL     OW31520   5.976   0.408   9.142  0.5486 -0.0263  0.1933
 5367SOL    HW131521   5.931   0.484   9.106  0.5244 -0.7090 -1.2540
 5367SOL    HW231522   5.912   0.367   9.201  0.1265  0.3666  0.0066
 5368SOL     OW31523   4.592   1.365  11.266 -0.1871 -0.6248  0.5757
 5368SOL    HW131524   4.537   1.288  11.258 -0.7014 -0.2091  0.0407
 5368SOL    HW231525   4.677   1.331  11.295 -1.1088 -1.1074  2.7435
 5369SOL     OW31526   3.493   2.567   1.573 -0.6421 -0.6295  0.0108
 5369SOL    HW131527   3.522   2.501   1.636 -0.0349 -0.9548 -0.6006
 5369SOL    HW231528   3.410   2.598   1.608  0.1181 -0.1563  1.4443
 5370SOL     OW31529   3.651   1.891   3.854 -0.2842  0.0655 -0.8254
 5370SOL    HW131530   3.619   1.828   3.790  0.0138  0.3981 -1.3100
 5370SOL    HW231531   3.572   1.932   3.889 -0.4114  0.5911 -1.7094
 5371SOL     OW31532   5.293   5.447  12.202 -0.2050  0.4426  0.3126
 5371SOL    HW131533   5.377   5.458  12.157 -1.0943 -0.9528 -1.7613
 5371SOL    HW231534   5.286   5.353  12.217 -2.1764  0.3145 -1.1684
 5372SOL     OW31535  -0.009   1.078   1.304 -0.3345  0.1455 -0.1196
 5372SOL    HW131536   0.083   1.063   1.281 -0.0506  0.7459  0.6043
 5372SOL    HW231537  -0.054   1.082   1.219  0.3781  0.3260 -0.4981
 5373SOL     OW31538   2.869   3.469  10.218 -0.2388  0.0660  0.1462
 5373SOL    HW131539   2.934   3.462  10.147 -0.4809 -0.2089 -0.0508
 5373SOL    HW231540   2.787   3.491  10.174 -0.4966 -0.5912  0.2899
 5374SOL     OW31541   1.008   2.139   0.368  0.3534 -0.2745  0.2058
 5374SOL    HW131542   1.040   2.103   0.285  2.1174  0.1131  0.6995
 5374SOL    HW231543   0.939   2.200   0.343  0.5088 -0.5526 -0.9375
 5375SOL     OW31544   0.049   2.262   9.720  0.0496 -0.2197  0.0779
 5375SOL    HW131545   0.107   2.285   9.793  0.4128  0.3121 -0.3649
 5375SOL    HW231546   0.059   2.168   9.710 -0.2560 -0.3511  0.9233
 5376SOL     OW31547   2.169   3.550  10.680 -0.3926 -0.3715 -0.0051
 5376SOL    HW131548   2.175   3.547  10.585 -1.8994  1.2337 -0.1684
 5376SOL    HW231549   2.257   3.527  10.710 -0.0778 -1.5484 -1.7477
 5377SOL     OW31550   1.392   4.689   8.467 -0.4751  0.0726 -0.0023
 5377SOL    HW131551   1.381   4.776   8.429 -1.2825 -1.0270 -2.4659
 5377SOL    HW231552   1.484   4.684   8.492  0.3001  0.6292 -2.5975
 5378SOL     OW31553   2.353   4.802   4.265  1.0040  0.1982 -0.1652
 5378SOL    HW131554   2.436   4.788   4.311  0.8972  2.5880  0.8528
 5378SOL    HW231555   2.376   4.861   4.193  0.4135 -0.1402 -0.6316
 5379SOL     OW31556   1.442   5.142  10.217 -0.1566  0.3013  0.5932
 5379SOL    HW131557   1.449   5.235  10.239  0.6305  0.5343 -0.5842
 5379SOL    HW231558   1.531   5.117  10.192 -0.0785 -1.1255  2.2208
 5380SOL     OW31559   3.027   2.988   0.221 -0.2688  0.3746 -0.0434
 5380SOL    HW131560   2.976   3.029   0.290 -0.2380  0.4723 -0.0777
 5380SOL    HW231561   3.024   3.051   0.148 -3.0300 -1.1100 -1.3030
 5381SOL     OW31562   0.879   3.882  11.873  0.2011  0.1201 -0.4659
 5381SOL    HW131563   0.898   3.870  11.966 -1.0940 -2.1794 -0.4722
 5381SOL    HW231564   0.927   3.813  11.829 -1.5232 -0.6243 -1.2193
 5382SOL     OW31565   0.196   5.547  12.033 -0.2827 -0.1998 -0.1044
 5382SOL    HW131566   0.258   5.610  12.070 -1.1081 -0.2440  1.4114
 5382SOL    HW231567   0.110   5.576  12.065 -0.9367 -0.7007 -1.3666
 5383SOL     OW31568   0.422   3.270  10.146 -0.0041  0.2293  0.3469
 5383SOL    HW131569   0.439   3.330  10.218 -0.8293  0.1798  0.5853
 5383SOL    HW231570   0.347   3.307  10.100 -1.1861 -1.1652  1.1108
 5384SOL     OW31571   1.876   2.733   0.462 -0.4379 -0.3976  0.2179
 5384SOL    HW131572   1.885   2.721   0.557 -0.2587 -2.8265 -0.0807
 5384SOL    HW231573   1.946   2.794   0.439 -0.5115  0.2475  1.6390
 5385SOL     OW31574   4.277   3.756  11.138 -0.0362 -0.1173  0.0728
 5385SOL    HW131575   4.296   3.766  11.231  1.4514 -0.1922 -0.2001
 5385SOL    HW231576   4.272   3.845  11.105  1.2017 -0.0953 -0.0946
 5386SOL     OW31577   2.502   2.702   4.311  0.4007  0.3234 -0.7429
 5386SOL    HW131578   2.475   2.764   4.379 -1.1968 -0.2445 -0.8327
 5386SOL    HW231579   2.597   2.698   4.319  0.3991  1.6710  0.2304
 5387SOL     OW31580   2.470   3.981  10.712  0.0245 -0.3898 -0.1616
 5387SOL    HW131581   2.469   3.886  10.721  1.0244 -0.5973 -1.9757
 5387SOL    HW231582   2.507   4.013  10.794  0.8153 -1.6284 -0.0196
 5388SOL     OW31583   5.169   5.376   0.023 -0.3498 -0.2788 -0.3109
 5388SOL    HW131584   5.146   5.363   0.115 -0.6696 -0.8894 -0.4792
 5388SOL    HW231585   5.113   5.316  -0.025  0.0408 -0.1865 -0.8860
 5389SOL     OW31586   1.545   3.350   9.724  0.4584  0.3195 -0.2979
 5389SOL    HW131587   1.488   3.301   9.665 -0.9595  0.0283  1.2698
 5389SOL    HW231588   1.595   3.282   9.770  0.8313  0.4952 -0.4432
 5390SOL     OW31589   2.808   4.360   2.874 -0.1570 -0.2728 -0.6072
 5390SOL    HW131590   2.747   4.383   2.943  0.7833  0.8340 -0.1259
 5390SOL    HW231591   2.826   4.267   2.887  1.0165  0.2029  1.4640
 5391SOL     OW31592   0.164   1.172   9.627 -0.2651  0.4884  0.5213
 5391SOL    HW131593   0.085   1.178   9.680  0.2073  3.4168  0.9931
 5391SOL    HW231594   0.144   1.105   9.562 -2.2735 -0.4431  2.0507
 5392SOL     OW31595   4.812   1.084  11.724  0.3429  0.4772  0.0437
 5392SOL    HW131596   4.785   1.169  11.691  0.1981  0.5853  0.4361
 5392SOL    HW231597   4.899   1.070  11.688 -0.7254 -0.4430 -2.3089
 5393SOL     OW31598   0.017   2.410  11.603 -0.5938 -0.3616 -0.2848
 5393SOL    HW131599   0.015   2.495  11.646 -0.5698 -0.0357 -0.9146
 5393SOL    HW231600   0.110   2.391  11.591 -0.4457 -2.0207  2.8353
 5394SOL     OW31601   0.161   2.623   2.116  0.3028 -0.5576 -0.4453
 5394SOL    HW131602   0.068   2.644   2.106  0.1037 -2.1727 -2.2752
 5394SOL    HW231603   0.171   2.601   2.208 -0.3843  2.9715  0.5528
 5395SOL     OW31604   0.534   5.922   1.681  0.0868  0.1652 -0.3541
 5395SOL    HW131605   0.524   5.934   1.776  0.1304 -2.2332 -0.0009
 5395SOL    HW231606   0.618   5.877   1.671 -1.2841 -2.3267 -1.2435
 5396SOL     OW31607   4.088   1.542   0.243  0.3624 -0.0190  0.0843
 5396SOL    HW131608   4.007   1.507   0.280  0.2069 -1.3041 -1.4121
 5396SOL    HW231609   4.126   1.468   0.195  3.0787  0.2154  1.8037
 5397SOL     OW31610  -0.008   0.914   9.444 -0.1000 -0.3355  0.4482
 5397SOL    HW131611   0.018   0.966   9.368  0.5657 -1.4840 -0.1150
 5397SOL    HW231612   0.060   0.848   9.453 -2.1445 -2.6008 -0.2736
 5398SOL     OW31613   3.687   0.208  10.122 -0.3227 -0.3152  0.5412
 5398SOL    HW131614   3.660   0.241  10.037 -0.0472 -0.7324  0.2893
 5398SOL    HW231615   3.780   0.227  10.127  0.3799 -3.2013 -0.6296
 5399SOL     OW31616   2.235   4.310   9.659 -0.6873  0.3888 -0.1210
 5399SOL    HW131617   2.273   4.238   9.607 -2.5162  1.0262 -2.3866
 5399SOL    HW231618   2.292   4.384   9.642 -0.5439  0.2669 -0.1826
 5400SOL     OW31619   4.749   4.253   0.689  0.4143 -0.2825  0.2374
 5400SOL    HW131620   4.675   4.270   0.747  0.4908 -1.4925  0.7133
 5400SOL    HW231621   4.814   4.212   0.746  0.8467 -0.6405 -0.5181
 5401SOL     OW31622   5.157   0.673   1.505  0.3567  0.1145 -0.1216
 5401SOL    HW131623   5.194   0.675   1.594 -0.0011  0.2281  0.0278
 5401SOL    HW231624   5.227   0.706   1.449  0.0994  1.3949  0.2977
 5402SOL     OW31625   2.993   2.933   9.169  0.2961 -0.0345 -0.9460
 5402SOL    HW131626   2.908   2.888   9.169 -0.3695  1.2036  0.5588
 5402SOL    HW231627   2.973   3.023   9.191  2.1707 -0.0188  0.7882
 5403SOL     OW31628   4.944   2.422  12.020 -0.4007 -0.2545  0.1152
 5403SOL    HW131629   4.877   2.403  11.955 -0.9991  0.6566  0.4516
 5403SOL    HW231630   4.922   2.366  12.095 -0.0761 -0.8444 -0.2288
 5404SOL     OW31631   2.926   1.755   1.030 -0.0397  0.3763  0.5272
 5404SOL    HW131632   2.930   1.745   1.125  1.3520  0.0880  0.4492
 5404SOL    HW231633   3.015   1.777   1.004 -0.3716  0.3043 -0.7321
 5405SOL     OW31634   3.284   0.965  11.254  0.0157 -0.1308 -0.0242
 5405SOL    HW131635   3.263   0.875  11.279  0.2026  0.2611  1.6385
 5405SOL    HW231636   3.205   0.997  11.211  0.2902 -1.3850 -1.4828
 5406SOL     OW31637   3.024   0.620   9.401 -0.4377 -0.1348 -0.1272
 5406SOL    HW131638   3.034   0.604   9.495 -0.2029  0.0314 -0.1239
 5406SOL    HW231639   3.026   0.715   9.392  0.1014 -0.1602 -0.3603
 5407SOL     OW31640   3.755   2.910   3.386 -0.5090  0.4425 -0.5864
 5407SOL    HW131641   3.824   2.871   3.331 -0.2441 -1.0059  0.7519
 5407SOL    HW231642   3.682   2.849   3.379 -1.1198  1.1894 -0.7635
 5408SOL     OW31643   4.894   3.533  11.993 -0.5684  0.1549 -0.3534
 5408SOL    HW131644   4.831   3.520  12.064 -0.5599  1.3028 -0.1243
 5408SOL    HW231645   4.980   3.516  12.032 -0.5800  0.5788 -0.1455
 5409SOL     OW31646   2.345   0.926   9.516  0.2559 -0.0924  0.0933
 5409SOL    HW131647   2.400   0.856   9.482  0.2866  0.5294 -1.2055
 5409SOL    HW231648   2.288   0.949   9.442  0.0692  1.0587  0.5778
 5410SOL     OW31649   5.215   0.839  11.088  0.4520  0.1751 -0.3141
 5410SOL    HW131650   5.310   0.849  11.082  0.2105  2.5493 -0.6666
 5410SOL    HW231651   5.202   0.747  11.110  2.8858  0.2224  1.4970
 5411SOL     OW31652   0.873   2.601   1.509  0.7279 -0.5775 -0.4014
 5411SOL    HW131653   0.796   2.637   1.467 -0.3391 -0.4715  1.5846
 5411SOL    HW231654   0.931   2.676   1.522 -0.5056  0.0594  1.6264
 5412SOL     OW31655   0.163   2.742   8.965  0.1120  0.1110 -0.4670
 5412SOL    HW131656   0.186   2.835   8.973 -1.6454  0.4247  1.5695
 5412SOL    HW231657   0.212   2.699   9.035 -0.1910 -0.2586 -0.4778
 5413SOL     OW31658   4.422   2.854   1.197  0.0352  0.4190 -0.4674
 5413SOL    HW131659   4.370   2.818   1.125 -1.2104 -1.9565  1.4783
 5413SOL    HW231660   4.508   2.814   1.187  0.1067  0.7445 -1.1255
 5414SOL     OW31661   2.432   4.511   9.720  0.1828 -0.3983 -0.2308
 5414SOL    HW131662   2.468   4.450   9.785 -0.0973 -1.3174 -0.9335
 5414SOL    HW231663   2.509   4.550   9.680  0.3835  2.1984  2.5064
 5415SOL     OW31664   0.751   4.196   4.118 -0.1411  0.3504 -0.0988
 5415SOL    HW131665   0.666   4.240   4.111 -0.4912  0.2931  2.8369
 5415SOL    HW231666   0.814   4.260   4.086 -1.3072  0.2566 -2.6634
 5416SOL     OW31667   2.279   0.823   7.975 -0.0240  0.7044 -0.1377
 5416SOL    HW131668   2.209   0.881   8.005  0.1976  1.4583 -1.0713
 5416SOL    HW231669   2.233   0.743   7.947 -0.6047  1.5503 -1.6293
 5417SOL     OW31670   5.045   3.964   3.536  0.1218 -0.3503  0.3366
 5417SOL    HW131671   4.972   3.935   3.591  0.1963 -0.2092  0.5118
 5417SOL    HW231672   5.114   3.899   3.551  0.8282  0.7292  1.8799
 5418SOL     OW31673   2.618   3.674  11.517  0.2442  1.0876 -0.2436
 5418SOL    HW131674   2.666   3.680  11.435 -0.2893  0.3449 -0.6245
 5418SOL    HW231675   2.605   3.764  11.545  0.7879  1.3290 -0.7687
 5419SOL     OW31676   2.580   4.703   9.161  0.1367 -0.0681  0.2132
 5419SOL    HW131677   2.521   4.629   9.175 -0.8516  0.6212 -0.3083
 5419SOL    HW231678   2.667   4.663   9.158 -0.4473 -1.3119 -0.8420
 5420SOL     OW31679   3.127   1.063   3.429 -0.0898  0.0024  0.4663
 5420SOL    HW131680   3.210   1.034   3.391  0.1805  1.9149 -0.4464
 5420SOL    HW231681   3.147   1.080   3.521  0.7352  1.2538  0.0608
 5421SOL     OW31682   4.182   4.659   0.752  0.3494 -0.2769  0.0262
 5421SOL    HW131683   4.170   4.754   0.755  1.9020 -0.1073  1.1028
 5421SOL    HW231684   4.110   4.624   0.804  0.9934  0.4152  1.3841
 5422SOL     OW31685   4.873   1.480   2.265 -0.3811 -0.2289  0.1555
 5422SOL    HW131686   4.909   1.419   2.330 -1.1007  0.4106  1.1693
 5422SOL    HW231687   4.848   1.425   2.191 -0.4786 -1.0904  0.8224
 5423SOL     OW31688   2.443   5.384  11.749  0.2517 -0.3626 -0.0602
 5423SOL    HW131689   2.498   5.460  11.730  1.2732 -1.6640 -2.5613
 5423SOL    HW231690   2.354   5.414  11.733  0.4637  0.8873  1.0104
 5424SOL     OW31691   0.923   1.196   8.800  0.0805 -0.1125  0.2563
 5424SOL    HW131692   0.833   1.214   8.770 -0.3827 -1.1401  0.9895
 5424SOL    HW231693   0.936   1.104   8.780  0.8470 -0.0521  0.4920
 5425SOL     OW31694   0.624   0.411  10.318  0.2884 -0.6139 -0.2564
 5425SOL    HW131695   0.702   0.446  10.275  0.7498  0.6813  1.5245
 5425SOL    HW231696   0.580   0.488  10.353  0.1269 -1.6145  1.8450
 5426SOL     OW31697   3.062   2.252  11.536  0.0641  0.2503  0.1482
 5426SOL    HW131698   3.146   2.233  11.578  0.4224  1.9978  0.2650
 5426SOL    HW231699   3.053   2.185  11.468  2.0620  0.6785 -0.5657
 5427SOL     OW31700   3.852   2.598   1.763 -0.4289  0.8209  0.1206
 5427SOL    HW131701   3.863   2.560   1.676 -0.9266 -0.8387  0.7789
 5427SOL    HW231702   3.761   2.581   1.786  0.1088 -0.1413  1.6189
 5428SOL     OW31703   5.696   1.337   9.956  0.1917  0.2518  0.8048
 5428SOL    HW131704   5.612   1.323  10.002  0.0649  0.9982  0.8037
 5428SOL    HW231705   5.714   1.430   9.968  1.2886 -0.0151  1.2488
 5429SOL     OW31706   4.926   3.883   3.090 -0.0170 -0.4722 -0.0333
 5429SOL    HW131707   4.993   3.935   3.135 -1.7301  2.4505 -0.7232
 5429SOL    HW231708   4.976   3.818   3.041  2.4385  2.1616 -1.1923
 5430SOL     OW31709   1.686   3.235  11.425  0.6013  0.6938  0.3447
 5430SOL    HW131710   1.763   3.227  11.369 -0.3306 -2.1800 -0.6041
 5430SOL    HW231711   1.666   3.329  11.426  4.0448  1.4836  0.5723
 5431SOL     OW31712   2.043   2.232  10.944 -0.0470 -0.1178  0.2356
 5431SOL    HW131713   2.042   2.137  10.935 -0.2661 -0.1946  0.9802
 5431SOL    HW231714   1.995   2.248  11.026 -1.3270  0.7125 -0.6478
 5432SOL     OW31715   2.187   2.855   8.861  0.2735  0.0148  0.2823
 5432SOL    HW131716   2.256   2.793   8.836  1.7650  1.3338  0.9811
 5432SOL    HW231717   2.161   2.828   8.949 -1.0541 -1.2902 -0.5035
 5433SOL     OW31718   0.450   2.740   8.225  0.1218  0.3076  0.3563
 5433SOL    HW131719   0.381   2.804   8.240  0.3883  0.4599  0.9333
 5433SOL    HW231720   0.494   2.731   8.309  0.4118 -0.2548  0.1495
 5434SOL     OW31721   1.481   1.955   1.952 -0.7308 -0.3460  0.2577
 5434SOL    HW131722   1.491   2.043   1.991  1.7153 -0.6475  0.3851
 5434SOL    HW231723   1.424   1.909   2.014  0.0949  0.3469  1.5792
 5435SOL     OW31724   3.351   4.654   1.957 -0.1932  0.3236 -0.1697
 5435SOL    HW131725   3.289   4.726   1.947 -1.1899 -0.4225  0.6408
 5435SOL    HW231726   3.301   4.575   1.937  0.7270 -0.2052 -0.4186
 5436SOL     OW31727   0.513   3.363   2.424 -0.3175 -0.2044 -0.3203
 5436SOL    HW131728   0.451   3.426   2.389 -0.2543  0.3001  0.4705
 5436SOL    HW231729   0.463   3.281   2.431 -0.7971  0.1103 -0.0237
 5437SOL     OW31730   1.184   3.456   9.207  0.4633 -0.1132  0.1291
 5437SOL    HW131731   1.219   3.468   9.295 -2.3826 -1.2326  1.4723
 5437SOL    HW231732   1.188   3.361   9.193 -0.4832 -0.0940 -0.3166
 5438SOL     OW31733   4.883   5.880   2.936 -0.0674 -0.3570 -0.1896
 5438SOL    HW131734   4.803   5.891   2.987 -0.3287 -0.0760 -0.6569
 5438SOL    HW231735   4.899   5.785   2.936 -0.0345 -0.3490  0.4642
 5439SOL     OW31736   0.899   5.276   9.178  0.1479  0.2398  0.0543
 5439SOL    HW131737   0.874   5.216   9.249 -0.5217  1.3271  0.7559
 5439SOL    HW231738   0.910   5.360   9.221 -1.5432  1.2136 -1.3218
 5440SOL     OW31739   5.340   5.061   2.960  0.4661 -0.3204  0.0353
 5440SOL    HW131740   5.435   5.064   2.945  0.7923 -1.1199  1.8204
 5440SOL    HW231741   5.328   4.990   3.022 -0.9329  1.8843  2.3551
 5441SOL     OW31742   4.497   0.762  12.422  0.4398 -0.1803 -0.0118
 5441SOL    HW131743   4.476   0.822  12.350 -2.1658 -1.1391 -0.1102
 5441SOL    HW231744   4.485   0.815  12.501 -0.5383 -0.1929 -0.1451
 5442SOL     OW31745   5.845   4.783  11.231  0.8054 -0.1952  0.0596
 5442SOL    HW131746   5.921   4.784  11.173  0.8357  2.0292  0.1204
 5442SOL    HW231747   5.842   4.871  11.268 -1.2293 -0.5661  0.8040
 5443SOL     OW31748   5.891   5.053  10.534 -0.2479  0.2033  0.7908
 5443SOL    HW131749   5.842   4.975  10.559  0.2243 -0.1569  0.5827
 5443SOL    HW231750   5.827   5.108  10.489  0.0572 -1.1958 -1.3805
 5444SOL     OW31751   0.989   2.455   8.747 -0.0239 -0.3595  0.4583
 5444SOL    HW131752   1.038   2.373   8.750 -1.1452 -1.0180  1.3496
 5444SOL    HW231753   0.940   2.451   8.665 -1.0910 -1.1969  1.1221
 5445SOL     OW31754   4.595   2.099  10.582  0.3643  0.2709  0.1544
 5445SOL    HW131755   4.513   2.147  10.569  1.9293  2.6325 -1.4438
 5445SOL    HW231756   4.622   2.073  10.494  1.1516 -0.7950  0.6980
 5446SOL     OW31757   5.884   1.229   3.395  0.0742 -0.2695 -0.1072
 5446SOL    HW131758   5.797   1.254   3.425 -1.1148 -3.9066 -0.2927
 5446SOL    HW231759   5.944   1.281   3.449 -2.1681  1.3743  0.8574
 5447SOL     OW31760   5.212   1.617  10.031  0.1527 -0.3932 -0.0901
 5447SOL    HW131761   5.211   1.656  10.118 -0.9805  0.4302 -0.4579
 5447SOL    HW231762   5.202   1.523  10.047  0.4184 -0.2903  0.6871
 5448SOL     OW31763   3.323   5.592  12.097 -0.0544 -0.1853 -0.1465
 5448SOL    HW131764   3.243   5.559  12.056  0.6453 -1.2784 -0.6410
 5448SOL    HW231765   3.394   5.565  12.039  0.7398  0.1910  0.6258
 5449SOL     OW31766   3.569   2.563  10.608  0.3716  0.7192  0.3791
 5449SOL    HW131767   3.551   2.591  10.698 -0.5051  2.4082 -0.3023
 5449SOL    HW231768   3.497   2.599  10.557  1.0689  0.0980 -1.0709
 5450SOL     OW31769   2.630   2.725   0.688 -0.0413  0.2175  0.3759
 5450SOL    HW131770   2.639   2.686   0.775 -0.3810 -0.8234 -0.0555
 5450SOL    HW231771   2.719   2.753   0.664 -0.1190  1.5074  1.5135
 5451SOL     OW31772   4.184   5.480  11.861  0.1759  0.3563 -0.0476
 5451SOL    HW131773   4.125   5.549  11.829  0.4869 -0.3106 -2.1907
 5451SOL    HW231774   4.131   5.401  11.859  1.5012 -0.5692 -3.6204
 5452SOL     OW31775   0.550   0.370   2.470 -0.1221 -0.2015 -0.2398
 5452SOL    HW131776   0.632   0.409   2.500  0.6361 -0.7680 -1.5529
 5452SOL    HW231777   0.534   0.409   2.384 -1.3077  0.0028  0.0607
 5453SOL     OW31778   5.574   0.881   1.790  0.2459 -0.0646 -0.4345
 5453SOL    HW131779   5.666   0.858   1.805  0.9185  1.7029 -1.6795
 5453SOL    HW231780   5.562   0.872   1.695 -0.1821  2.0511 -0.6119
 5454SOL     OW31781   2.691   4.107   8.383 -0.0721  0.0604  0.0554
 5454SOL    HW131782   2.730   4.021   8.367 -0.5024 -0.3133  0.9608
 5454SOL    HW231783   2.634   4.094   8.459  0.1133  1.2152  0.4131
 5455SOL     OW31784   2.947   5.104   3.497  0.5119 -0.6164 -0.9703
 5455SOL    HW131785   2.884   5.049   3.544  2.7736 -2.0315  0.5302
 5455SOL    HW231786   2.967   5.054   3.417  0.2269 -0.4841 -1.1250
 5456SOL     OW31787   1.765   5.658   2.020 -0.7418 -0.1406 -0.0366
 5456SOL    HW131788   1.741   5.595   1.953  0.6411 -0.3909 -0.3105
 5456SOL    HW231789   1.714   5.633   2.097 -1.2035 -0.7666 -0.5508
 5457SOL     OW31790   3.141   2.488   3.401  0.2760  0.2966  0.6433
 5457SOL    HW131791   3.199   2.482   3.477  0.1472  0.7573  0.7839
 5457SOL    HW231792   3.194   2.529   3.333 -0.2091  1.7536  1.1189
 5458SOL     OW31793   3.330   3.226   9.403 -0.6105  0.0619 -0.1160
 5458SOL    HW131794   3.257   3.169   9.378 -0.8820  0.2140  0.3267
 5458SOL    HW231795   3.394   3.216   9.333 -0.4420 -1.1819  0.1994
 5459SOL     OW31796   4.675   0.416   8.943 -0.9459 -0.0842 -0.6413
 5459SOL    HW131797   4.603   0.432   8.883 -0.5322 -0.1581 -1.1704
 5459SOL    HW231798   4.694   0.501   8.981  0.3061  0.4381 -2.3605
 5460SOL     OW31799   0.134   0.541   2.970 -0.0378 -0.4561 -0.6806
 5460SOL    HW131800   0.083   0.460   2.969 -0.2992 -0.3102 -2.7995
 5460SOL    HW231801   0.081   0.602   3.020 -0.2787 -1.3230  0.1416
 5461SOL     OW31802   2.667   3.388   3.277  0.0312  0.5954 -0.1443
 5461SOL    HW131803   2.601   3.453   3.303  0.4034  0.5271  0.9944
 5461SOL    HW231804   2.750   3.435   3.283  0.2633  0.1345  0.2685
 5462SOL     OW31805   1.418   4.336   8.555 -0.0143  0.3069  0.2588
 5462SOL    HW131806   1.484   4.369   8.494  0.2157 -0.2013  0.2239
 5462SOL    HW231807   1.382   4.258   8.511 -0.7660  0.6874  0.1932
 5463SOL     OW31808   1.238   1.735   9.530  0.2171  0.0607  0.2460
 5463SOL    HW131809   1.319   1.719   9.482  0.2192  1.9853 -0.4353
 5463SOL    HW231810   1.170   1.692   9.479  0.3259  1.4597 -1.1236
 5464SOL     OW31811   0.449   0.197   0.800 -0.1090  0.0850 -0.1338
 5464SOL    HW131812   0.420   0.234   0.716  2.0909  1.5117 -0.3092
 5464SOL    HW231813   0.424   0.263   0.865 -0.7633 -0.4894  0.2074
 5465SOL     OW31814   1.392   3.329   2.758 -0.0081 -0.2629 -0.3173
 5465SOL    HW131815   1.406   3.236   2.745  1.0034  0.0130 -1.2042
 5465SOL    HW231816   1.336   3.356   2.685 -0.9413 -0.3205  0.3633
 5466SOL     OW31817   3.488   3.918   9.915  0.0673 -0.8992 -0.0577
 5466SOL    HW131818   3.470   3.825   9.906 -2.7609 -0.2935 -1.1086
 5466SOL    HW231819   3.532   3.942   9.834  0.6561 -1.2709  0.1476
 5467SOL     OW31820   2.473   4.123  11.808  0.3678 -0.2590 -0.4137
 5467SOL    HW131821   2.556   4.140  11.851 -0.5497 -0.9962  1.7544
 5467SOL    HW231822   2.448   4.207  11.768  0.5826  0.8722  1.7380
 5468SOL     OW31823   0.693   1.175   3.299 -0.1092  0.0691  0.4698
 5468SOL    HW131824   0.772   1.121   3.290  0.7670  1.4839 -0.5662
 5468SOL    HW231825   0.719   1.246   3.357 -0.1302  1.4240 -1.1429
 5469SOL     OW31826   4.245   5.293   0.388 -0.0895 -0.3586 -0.4471
 5469SOL    HW131827   4.294   5.332   0.461 -1.6184  0.0615  0.3826
 5469SOL    HW231828   4.301   5.305   0.312  1.5528 -0.8073  0.6561
 5470SOL     OW31829   4.411   2.746   0.723 -0.8498 -0.1020  0.1369
 5470SOL    HW131830   4.358   2.680   0.678 -1.8710  1.2394 -0.6914
 5470SOL    HW231831   4.450   2.797   0.652 -0.4248  0.4535  0.7669
 5471SOL     OW31832   1.415   0.657   3.581  0.6768 -0.0103  0.3234
 5471SOL    HW131833   1.423   0.639   3.488  0.3117  0.5384  0.1814
 5471SOL    HW231834   1.322   0.652   3.599  0.7934 -0.6345  0.7719
 5472SOL     OW31835   4.864   2.197   2.587 -0.4133 -0.1977  0.6169
 5472SOL    HW131836   4.926   2.166   2.652 -1.8870 -1.6303  1.3593
 5472SOL    HW231837   4.858   2.126   2.523  0.2119  0.7594 -0.5503
 5473SOL     OW31838   2.889   1.145  11.517 -0.2233 -0.4991 -0.5104
 5473SOL    HW131839   2.982   1.129  11.534 -0.3880 -0.8438  0.0901
 5473SOL    HW231840   2.843   1.099  11.588 -0.8116  0.5924 -0.1669
 5474SOL     OW31841   1.066   1.697  11.810  0.0499 -0.1904  0.0346
 5474SOL    HW131842   1.040   1.725  11.898 -1.7993 -0.6657 -0.3297
 5474SOL    HW231843   1.152   1.737  11.796  0.4021 -0.1907  2.0833
 5475SOL     OW31844   3.720   0.894  10.955 -0.1771 -0.5811  0.1091
 5475SOL    HW131845   3.638   0.931  10.986 -0.5795 -1.5773  0.2492
 5475SOL    HW231846   3.773   0.883  11.034 -0.6905 -1.8479  0.2986
 5476SOL     OW31847   0.345   1.964   0.980  0.4345 -0.4731  0.0270
 5476SOL    HW131848   0.275   2.029   0.985  0.5689  0.0841 -3.4911
 5476SOL    HW231849   0.323   1.899   1.046 -2.7678  0.3100 -0.1907
 5477SOL     OW31850   5.126   1.088   1.091 -0.1607 -0.1739  0.2802
 5477SOL    HW131851   5.185   1.019   1.123 -1.3360 -1.2213  0.2433
 5477SOL    HW231852   5.175   1.129   1.019  0.6614 -0.8047  0.4618
 5478SOL     OW31853   0.588   1.023   2.198  0.1838  0.5112 -0.0978
 5478SOL    HW131854   0.542   1.106   2.187 -0.4418  0.5211  2.2074
 5478SOL    HW231855   0.681   1.045   2.191 -0.0601  0.9799 -1.9253
 5479SOL     OW31856   3.369   1.112   2.202 -0.4106  0.1065 -0.4695
 5479SOL    HW131857   3.295   1.053   2.191 -0.1228 -0.2404 -0.5726
 5479SOL    HW231858   3.332   1.191   2.243 -0.7809 -0.1812 -0.2490
 5480SOL     OW31859   3.515   2.601   2.605  0.1403 -0.3600  0.1609
 5480SOL    HW131860   3.579   2.591   2.535 -1.0844 -0.4500 -0.9512
 5480SOL    HW231861   3.566   2.592   2.685  2.1501  3.2550 -0.6336
 5481SOL     OW31862   0.761   4.214   1.526 -0.1123  0.2167 -0.7281
 5481SOL    HW131863   0.777   4.308   1.519 -1.2016  0.4048 -0.8232
 5481SOL    HW231864   0.701   4.205   1.601 -0.0940 -0.3889 -0.7823
 5482SOL     OW31865   2.082   2.755   1.646  0.0007 -0.0827 -0.5918
 5482SOL    HW131866   2.050   2.794   1.728  1.4461 -2.3515  1.1301
 5482SOL    HW231867   2.006   2.713   1.607 -0.5891  0.5576 -0.1380
 5483SOL     OW31868   4.383   4.775  11.606 -0.1020  0.1425 -0.0209
 5483SOL    HW131869   4.377   4.831  11.683  2.4216  1.2475 -0.5784
 5483SOL    HW231870   4.400   4.836  11.533 -1.0287 -1.0060 -1.2227
 5484SOL     OW31871   5.247   2.695   0.705 -0.4717  0.0275  0.4920
 5484SOL    HW131872   5.242   2.628   0.773  2.3461 -0.9010 -0.1728
 5484SOL    HW231873   5.246   2.647   0.622  1.3672  0.8165  0.0005
 5485SOL     OW31874   5.383   5.597   1.211  0.4002  0.4189  0.0270
 5485SOL    HW131875   5.475   5.587   1.237  0.6589  0.5254 -0.8416
 5485SOL    HW231876   5.381   5.679   1.162  0.4821 -1.2049 -2.8074
 5486SOL     OW31877   0.271   4.115   3.896  0.0543 -0.5005  0.4218
 5486SOL    HW131878   0.255   4.052   3.825 -1.1289 -2.0004  1.9914
 5486SOL    HW231879   0.188   4.162   3.905  0.1317 -0.4610  0.9469
 5487SOL     OW31880   5.826   4.662   1.673  0.0030 -0.1401  0.3581
 5487SOL    HW131881   5.792   4.734   1.622  1.4469  0.4186  0.1639
 5487SOL    HW231882   5.773   4.586   1.647  1.0093  0.0366 -2.2780
 5488SOL     OW31883   0.707   2.871   9.862 -0.4618  0.1119  0.5948
 5488SOL    HW131884   0.774   2.938   9.849 -0.9315  0.3959 -0.3850
 5488SOL    HW231885   0.632   2.919   9.900 -0.3466 -0.0891  1.0841
 5489SOL     OW31886   4.989   0.116   9.394 -0.8715 -0.0061 -0.4138
 5489SOL    HW131887   4.901   0.129   9.428 -1.1447 -0.0890 -1.0797
 5489SOL    HW231888   5.011   0.026   9.418  0.2360  0.9463  2.4308
 5490SOL     OW31889   0.464   1.143   8.979  0.2252 -0.2872  0.8442
 5490SOL    HW131890   0.455   1.222   9.033  0.6632 -0.0440  0.5594
 5490SOL    HW231891   0.382   1.139   8.929 -0.2351 -0.5758  1.6076
 5491SOL     OW31892   0.279   2.037  12.193  0.0935  0.0641 -0.1800
 5491SOL    HW131893   0.221   2.052  12.118 -0.5873  1.3234  0.5709
 5491SOL    HW231894   0.366   2.057  12.160 -0.5014  3.4422  0.0793
 5492SOL     OW31895   4.553   4.047  10.205  0.3584  0.7030  0.2292
 5492SOL    HW131896   4.468   4.085  10.182  0.9894  1.3130 -1.1569
 5492SOL    HW231897   4.581   4.096  10.282  0.1747  1.5711 -0.2540
 5493SOL     OW31898   4.991   2.496   0.746 -0.0437 -0.0595 -0.2822
 5493SOL    HW131899   5.065   2.435   0.743 -1.5271 -1.9171 -0.6516
 5493SOL    HW231900   5.000   2.541   0.830  0.2658 -1.8972  0.6954
 5494SOL     OW31901   3.111   2.233   3.116  0.1820 -0.1991  0.1526
 5494SOL    HW131902   3.121   2.139   3.101  0.4260 -0.4547  1.7618
 5494SOL    HW231903   3.100   2.241   3.211  1.2993  1.4930  0.1685
 5495SOL     OW31904   2.572   1.693   2.135 -0.3676 -0.5142 -0.1144
 5495SOL    HW131905   2.546   1.610   2.096  1.0825 -1.8155  1.6068
 5495SOL    HW231906   2.490   1.737   2.155 -1.1527 -1.6510 -0.7817
 5496SOL     OW31907   0.782   5.299   0.282  0.1736 -0.4294 -0.0225
 5496SOL    HW131908   0.842   5.264   0.349 -0.9710 -1.9541  0.2340
 5496SOL    HW231909   0.737   5.371   0.326  1.4005  0.3743 -0.0399
 5497SOL     OW31910   5.816   0.552  11.791  0.1352 -0.0587 -0.3314
 5497SOL    HW131911   5.893   0.587  11.835  0.2073 -0.6341 -0.0013
 5497SOL    HW231912   5.761   0.629  11.775  0.3738  0.2305  0.2266
 5498SOL     OW31913   1.253   3.876   8.739 -0.2728  0.4446  0.2220
 5498SOL    HW131914   1.318   3.807   8.751 -1.0224 -0.0469  1.4596
 5498SOL    HW231915   1.236   3.876   8.644  0.3928 -0.4556  0.0936
 5499SOL     OW31916   2.811   0.898   0.698 -0.3951  0.1166  0.3720
 5499SOL    HW131917   2.833   0.910   0.606 -0.6230  0.4969  0.3675
 5499SOL    HW231918   2.853   0.971   0.743 -0.7960  0.2766  0.4917
 5500SOL     OW31919   1.359   4.738   0.816 -0.0563 -0.4421  0.1476
 5500SOL    HW131920   1.428   4.679   0.784  0.7269  1.1573 -1.2092
 5500SOL    HW231921   1.304   4.683   0.871  1.8869 -1.9319  0.6573
 5501SOL     OW31922   5.158   4.087   0.035 -0.4740 -0.4488 -0.1689
 5501SOL    HW131923   5.138   4.042   0.117  0.4859 -0.4956  0.0432
 5501SOL    HW231924   5.073   4.119   0.004 -0.9500 -1.1204  0.4341
 5502SOL     OW31925   0.664   2.344  10.360  0.1801 -0.3701 -0.1356
 5502SOL    HW131926   0.604   2.295  10.305 -2.8112 -0.4331  3.0202
 5502SOL    HW231927   0.654   2.435  10.331 -0.2810 -0.5741 -0.6243
 5503SOL     OW31928   4.340   5.420   0.115  0.1565  0.6727 -0.7593
 5503SOL    HW131929   4.376   5.485   0.175  0.9604 -0.7198  0.2853
 5503SOL    HW231930   4.402   5.419   0.041  0.4162  0.7156 -0.5436
 5504SOL     OW31931   2.109   1.397   1.885  0.5189  0.5305 -0.0074
 5504SOL    HW131932   2.019   1.368   1.901  1.1236 -0.2131  2.1832
 5504SOL    HW231933   2.159   1.316   1.878  0.9892  0.9383 -1.5789
 5505SOL     OW31934   2.591   3.437   1.300  0.0540  0.1163  0.1643
 5505SOL    HW131935   2.533   3.513   1.309 -1.3407 -0.7741 -1.0522
 5505SOL    HW231936   2.616   3.415   1.389 -1.9815  0.1552  0.7800
 5506SOL     OW31937   5.463   3.720   0.469 -0.6787  0.2068  0.4898
 5506SOL    HW131938   5.547   3.741   0.428 -0.4950 -2.5428 -0.6814
 5506SOL    HW231939   5.487   3.675   0.550 -1.0228  0.6745  0.8525
 5507SOL     OW31940   4.027   5.637  10.648 -0.1758 -0.6738 -0.1063
 5507SOL    HW131941   4.028   5.721  10.602 -1.3552 -0.7768 -0.3358
 5507SOL    HW231942   3.972   5.580  10.594  0.7109 -1.6330 -0.0168
 5508SOL     OW31943   2.281   0.978   1.623 -0.5345 -0.0170 -0.4475
 5508SOL    HW131944   2.363   0.935   1.646 -0.5442 -1.5871 -3.0663
 5508SOL    HW231945   2.293   1.006   1.532 -2.7103  0.1610 -0.7201
 5509SOL     OW31946   0.424   0.617   3.253 -0.0899 -0.6551 -0.4170
 5509SOL    HW131947   0.394   0.641   3.165 -0.4069 -0.5059 -0.2694
 5509SOL    HW231948   0.486   0.546   3.238 -0.6506 -1.0870 -0.7178
 5510SOL     OW31949   3.823   0.645   3.018  0.5162  0.1436 -0.5942
 5510SOL    HW131950   3.850   0.713   2.956  1.6166  0.4363  0.1758
 5510SOL    HW231951   3.730   0.631   3.000  0.0755  2.4139 -0.2729
 5511SOL     OW31952   5.262   5.013   1.923 -0.0421  0.5853 -1.0195
 5511SOL    HW131953   5.290   4.927   1.892 -0.0505  0.1056  0.2762
 5511SOL    HW231954   5.253   5.065   1.843  1.7566 -0.0848 -1.6933
 5512SOL     OW31955   1.418  -0.024   1.857 -0.0810 -0.1351 -0.9191
 5512SOL    HW131956   1.469  -0.006   1.937 -1.0308 -2.0095  0.1327
 5512SOL    HW231957   1.403   0.063   1.819  2.9296  0.5765 -0.6786
 5513SOL     OW31958   3.475   0.624   9.545 -0.0013  0.4220  0.1659
 5513SOL    HW131959   3.454   0.622   9.452 -0.0389 -2.3020  0.1864
 5513SOL    HW231960   3.569   0.641   9.548  0.2714 -0.9345 -0.4321
 5514SOL     OW31961   3.761   3.047  11.308 -0.3652 -0.0540 -0.5340
 5514SOL    HW131962   3.754   2.954  11.286  0.5197 -0.4508  0.7643
 5514SOL    HW231963   3.806   3.048  11.393  0.5515  1.6096 -1.0185
 5515SOL     OW31964   5.572   2.088   1.528  0.0705  0.2150 -0.0770
 5515SOL    HW131965   5.546   2.056   1.614 -1.0405 -1.7624 -1.1132
 5515SOL    HW231966   5.556   2.182   1.532  1.5388  0.4132  2.3751
 5516SOL     OW31967   1.022   5.969   0.001 -0.0441  0.3256 -0.0541
 5516SOL    HW131968   1.091   5.921  -0.045  0.7859  0.9170  0.5569
 5516SOL    HW231969   1.015   5.926   0.087  1.1102  1.6399  0.7191
 5517SOL     OW31970   2.655   1.010  12.278 -0.3150  0.2422  0.1118
 5517SOL    HW131971   2.586   0.987  12.340 -1.8554  0.6362 -1.4104
 5517SOL    HW231972   2.678   1.100  12.301 -1.2681  0.5797 -0.2431
 5518SOL     OW31973   5.602   0.594  11.153  0.0347 -0.3937 -0.1479
 5518SOL    HW131974   5.532   0.561  11.209  0.4402  0.1409  0.6930
 5518SOL    HW231975   5.666   0.523  11.149  1.0884  0.3739  1.9662
 5519SOL     OW31976   3.426   4.688   1.248  0.2611  0.5004 -0.0398
 5519SOL    HW131977   3.493   4.660   1.186  0.8363  1.7816 -0.0012
 5519SOL    HW231978   3.455   4.774   1.278 -1.7298  1.3639 -0.5143
 5520SOL     OW31979   3.217   4.650   2.608 -0.2339  0.2954 -0.2879
 5520SOL    HW131980   3.273   4.659   2.531  1.8010  1.2642  1.2525
 5520SOL    HW231981   3.169   4.733   2.612  0.4883  0.6972  0.1107
 5521SOL     OW31982   0.333   2.632   1.146  0.0458 -0.3181  0.3168
 5521SOL    HW131983   0.330   2.540   1.119  1.9220 -0.4201  0.3969
 5521SOL    HW231984   0.426   2.655   1.142 -0.4798  1.7752 -0.3620
 5522SOL     OW31985   3.211   0.468  12.213  0.5474 -0.2344 -0.6596
 5522SOL    HW131986   3.266   0.448  12.289 -0.3576 -0.0336  0.0552
 5522SOL    HW231987   3.213   0.564  12.207  0.3574 -0.2320 -0.6930
 5523SOL     OW31988   1.963   2.611   8.142 -0.2553  0.0502  0.1014
 5523SOL    HW131989   1.986   2.577   8.055  0.7272 -2.8683  1.4312
 5523SOL    HW231990   1.868   2.626   8.138  0.0097  1.3929 -1.9077
 5524SOL     OW31991   5.221   4.212  11.102 -0.1346 -0.0722  0.3068
 5524SOL    HW131992   5.164   4.135  11.092  0.7518 -0.7837  0.6908
 5524SOL    HW231993   5.186   4.275  11.040 -1.6035 -0.3541  0.8038
 5525SOL     OW31994   0.296   4.505   4.005  0.1037 -0.0915  0.3168
 5525SOL    HW131995   0.218   4.455   4.026  1.1967 -1.5380  1.0202
 5525SOL    HW231996   0.302   4.503   3.910 -0.4691 -0.3756  0.2884
 5526SOL     OW31997   4.365   2.903   2.632  0.0876 -0.1088  0.5020
 5526SOL    HW131998   4.354   2.951   2.714  0.6961  0.4974  0.2289
 5526SOL    HW231999   4.332   2.815   2.651 -2.9486  0.9600  0.4265
 5527SOL     OW32000   1.047   2.220   4.306  0.1484 -0.2662  0.6160
 5527SOL    HW132001   1.060   2.286   4.239 -1.4852 -0.6000 -0.0737
 5527SOL    HW232002   1.077   2.138   4.266 -0.1123 -0.3400  0.5669
 5528SOL     OW32003   5.783   1.514   7.873 -0.4706  0.2538 -0.6173
 5528SOL    HW132004   5.872   1.481   7.864  0.0827  0.4977  3.1873
 5528SOL    HW232005   5.728   1.436   7.867  0.0951 -0.0781 -1.5467
 5529SOL     OW32006   4.988   0.466   1.478 -0.4384  0.0520 -0.7160
 5529SOL    HW132007   5.043   0.543   1.461  0.1128  0.2666  1.7879
 5529SOL    HW232008   4.905   0.502   1.510 -0.8201 -0.3560 -1.2388
 5530SOL     OW32009   1.778   5.492  12.479  0.3633  0.1329  0.4794
 5530SOL    HW132010   1.758   5.527  12.392 -3.0542  1.6431  1.7957
 5530SOL    HW232011   1.863   5.531  12.501  0.4854  1.0579 -1.4693
 5531SOL     OW32012   5.133   2.446   0.403  0.0004 -0.2466 -0.3122
 5531SOL    HW132013   5.162   2.424   0.314 -1.6528 -1.5280 -0.5727
 5531SOL    HW232014   5.144   2.364   0.452  2.0771  0.7893  1.0020
 5532SOL     OW32015   4.773   2.973  11.735 -0.3434  0.2292  0.4053
 5532SOL    HW132016   4.742   3.024  11.810 -0.0188  1.4417 -0.2647
 5532SOL    HW232017   4.865   2.956  11.755 -0.4891 -0.2348  0.6979
 5533SOL     OW32018   1.102   4.034   8.894  0.2799 -0.5922 -0.8755
 5533SOL    HW132019   1.136   3.951   8.860  0.2279 -1.0678  0.2262
 5533SOL    HW232020   1.176   4.094   8.890  0.1132 -0.4550 -2.4205
 5534SOL     OW32021   3.213   3.360   1.425  0.0264 -0.9628  0.7214
 5534SOL    HW132022   3.124   3.379   1.395 -1.0273 -2.5224  2.7128
 5534SOL    HW232023   3.227   3.420   1.499  0.8769 -0.3070  0.0440
 5535SOL     OW32024   2.995   4.349   1.436 -0.2728 -0.1973 -0.0249
 5535SOL    HW132025   3.029   4.387   1.355  0.5282 -0.3133  0.2524
 5535SOL    HW232026   2.923   4.292   1.407  0.0639 -0.3100 -0.6694
 5536SOL     OW32027   1.457   2.267   9.475  0.0170  0.0234 -0.6987
 5536SOL    HW132028   1.406   2.208   9.420 -0.0896 -0.5518  0.0046
 5536SOL    HW232029   1.392   2.307   9.533  0.3245 -0.5636  0.0663
 5537SOL     OW32030   2.399   2.742  11.659 -0.4289 -0.2961  0.0396
 5537SOL    HW132031   2.421   2.821  11.708  1.4894 -1.2252  0.7120
 5537SOL    HW232032   2.330   2.770  11.598 -1.0329  1.4557  1.4936
 5538SOL     OW32033   0.671   4.382  12.407  0.0452 -0.9479 -0.0730
 5538SOL    HW132034   0.660   4.394  12.502 -0.8104 -0.4314 -0.2286
 5538SOL    HW232035   0.739   4.315  12.399  0.1445 -0.9786  0.9058
 5539SOL     OW32036   1.025   1.547   2.149  0.2543  1.3781  0.0090
 5539SOL    HW132037   0.969   1.504   2.084 -1.3278  1.6500  1.1697
 5539SOL    HW232038   1.058   1.625   2.104 -1.4273  1.9668 -0.2447
 5540SOL     OW32039   3.121   3.447  10.954  0.4881  0.2281 -0.3606
 5540SOL    HW132040   3.143   3.458  10.861 -1.4633 -2.5993 -1.2122
 5540SOL    HW232041   3.025   3.444  10.955  0.4690  0.9105  1.8567
 5541SOL     OW32042   1.872   4.960  12.378 -0.3552 -0.1377  0.0251
 5541SOL    HW132043   1.831   4.979  12.462  0.0571 -1.8173  0.6260
 5541SOL    HW232044   1.837   4.874  12.353  0.7472 -0.3779 -0.7526
 5542SOL     OW32045   0.835   4.841   2.884 -0.9515 -0.4191 -0.0380
 5542SOL    HW132046   0.881   4.785   2.947  1.1219  1.6546  0.3198
 5542SOL    HW232047   0.870   4.816   2.799 -1.5752 -1.1060 -0.1081
 5543SOL     OW32048   5.357   1.549   8.765 -0.0890 -0.2197  0.3330
 5543SOL    HW132049   5.444   1.509   8.770 -0.0691 -0.3700 -0.9901
 5543SOL    HW232050   5.362   1.625   8.822  1.4891  0.7942 -1.1013
 5544SOL     OW32051   3.967   3.705  12.116  0.1786  0.1059 -0.0281
 5544SOL    HW132052   3.932   3.749  12.193 -1.0072  0.9778 -1.0465
 5544SOL    HW232053   4.035   3.765  12.084 -0.3726  0.4671 -0.5267
 5545SOL     OW32054   1.809   4.805   8.489  0.1886  0.5023  0.6480
 5545SOL    HW132055   1.766   4.868   8.431 -0.5892  0.2348  0.9249
 5545SOL    HW232056   1.767   4.722   8.470  0.0777  0.3711  1.4437
 5546SOL     OW32057   0.254   4.827   2.127 -0.6254 -0.4923 -0.1259
 5546SOL    HW132058   0.265   4.766   2.054  0.2670  0.2115 -0.5943
 5546SOL    HW232059   0.304   4.905   2.101 -1.7512  0.4434  0.4507
 5547SOL     OW32060   3.856   2.841   2.279 -1.2198  0.0805  0.4201
 5547SOL    HW132061   3.773   2.854   2.234 -0.4857 -1.0369 -1.3172
 5547SOL    HW232062   3.921   2.879   2.221 -0.1063 -2.6897 -0.2406
 5548SOL     OW32063   4.651   1.355   1.168 -0.0457 -0.4430 -0.0428
 5548SOL    HW132064   4.594   1.396   1.104  0.0973  0.1585  0.2166
 5548SOL    HW232065   4.719   1.313   1.116 -0.9305 -1.4933 -0.3782
 5549SOL     OW32066   1.685   3.037  11.051  0.0431  0.3216 -0.5564
 5549SOL    HW132067   1.670   2.953  11.006  1.1286  1.0036 -2.2430
 5549SOL    HW232068   1.701   3.099  10.980 -1.5412  2.1499  0.6350
 5550SOL     OW32069   0.950   5.713   8.463 -0.4113 -0.0358 -0.0018
 5550SOL    HW132070   0.919   5.771   8.532 -0.0419  1.5613 -1.1634
 5550SOL    HW232071   0.949   5.766   8.384  0.4982 -1.4373 -0.9815
 5551SOL     OW32072   1.222   1.763   8.369  0.3670  0.2275  0.0797
 5551SOL    HW132073   1.142   1.814   8.358  0.3676  0.3586  0.6490
 5551SOL    HW232074   1.244   1.772   8.462 -0.1133 -1.5534  0.3840
 5552SOL     OW32075   2.542   2.038   8.070  0.0130 -0.4835 -0.2584
 5552SOL    HW132076   2.519   2.062   8.159 -1.4259 -0.6392 -0.5793
 5552SOL    HW232077   2.599   2.109   8.039 -1.3530  0.7372 -0.0074
 5553SOL     OW32078   0.261   0.422   1.286  0.0934  0.1137 -0.1234
 5553SOL    HW132079   0.200   0.494   1.271 -1.0825 -1.0614 -1.0131
 5553SOL    HW232080   0.318   0.423   1.209  3.3744  3.2943  2.1896
 5554SOL     OW32081   2.183   1.844   8.761  0.5973 -0.2603  0.8947
 5554SOL    HW132082   2.183   1.845   8.665 -0.5472 -0.2472  0.8916
 5554SOL    HW232083   2.186   1.751   8.783 -1.0567 -0.3492  0.8271
 5555SOL     OW32084   1.708   0.513   1.420 -0.4702  0.5299  0.4636
 5555SOL    HW132085   1.674   0.466   1.496 -1.3851  0.6625  0.1421
 5555SOL    HW232086   1.648   0.490   1.349  0.1331  0.7395 -0.1212
 5556SOL     OW32087   4.114   2.134  11.183  0.3213 -0.3150 -0.4457
 5556SOL    HW132088   4.200   2.176  11.178 -0.1747  0.5925 -1.4072
 5556SOL    HW232089   4.060   2.181  11.120 -1.3084  0.1263  1.2192
 5557SOL     OW32090   2.447   5.726   8.700  0.0764  0.0596 -0.1564
 5557SOL    HW132091   2.515   5.692   8.642 -0.5105 -1.9728  0.2967
 5557SOL    HW232092   2.365   5.707   8.654 -0.2701  0.5571  0.2580
 5558SOL     OW32093   5.876   0.799  11.928  0.0971  0.4674  0.1820
 5558SOL    HW132094   5.935   0.808  12.003  0.4650  0.1363 -0.0622
 5558SOL    HW232095   5.788   0.794  11.967  0.4010 -1.3102  0.7028
 5559SOL     OW32096   3.945   3.596   1.758  0.2477  0.1408  0.2901
 5559SOL    HW132097   3.901   3.650   1.693  0.6111 -1.1603 -1.0548
 5559SOL    HW232098   3.972   3.658   1.827  0.0954  1.5617 -0.9085
 5560SOL     OW32099   1.228   4.159   1.122  0.1717  0.2542  0.1873
 5560SOL    HW132100   1.157   4.108   1.084  0.3380  0.3385 -0.2367
 5560SOL    HW232101   1.305   4.134   1.071  0.1481  1.3482 -0.3915
 5561SOL     OW32102   1.459   1.241  10.261 -0.0881 -0.0316 -0.3083
 5561SOL    HW132103   1.474   1.190  10.341 -0.0817 -0.1325 -0.3735
 5561SOL    HW232104   1.410   1.318  10.291  0.8061  0.4496 -0.0392
 5562SOL     OW32105   1.908   0.986  11.140 -0.3483  0.2128 -0.2363
 5562SOL    HW132106   1.888   1.077  11.117 -1.4183 -0.0106 -0.1943
 5562SOL    HW232107   1.946   0.949  11.061 -1.5209  0.2022 -0.7926
 5563SOL     OW32108   0.496   3.263   1.516 -0.6590  0.4388  0.3591
 5563SOL    HW132109   0.514   3.193   1.579 -0.0850 -0.0897 -0.3863
 5563SOL    HW232110   0.537   3.340   1.554  0.2014 -0.0058  0.3469
 5564SOL     OW32111   4.875   5.251   1.421 -0.1184  0.1153 -0.3072
 5564SOL    HW132112   4.867   5.260   1.516  1.8156  0.8476 -0.2015
 5564SOL    HW232113   4.817   5.177   1.400  0.1378 -0.6644  1.5641
 5565SOL     OW32114   2.979   4.122   8.023 -0.2394 -0.3164 -0.8591
 5565SOL    HW132115   2.887   4.095   8.019 -0.7425  1.2241  0.1836
 5565SOL    HW232116   2.982   4.189   8.091  1.8186 -0.9530 -0.2780
 5566SOL     OW32117   4.613   1.083   8.692 -0.3379 -0.0121 -0.6921
 5566SOL    HW132118   4.696   1.038   8.701 -0.9145 -1.0846 -0.6475
 5566SOL    HW232119   4.615   1.119   8.603 -0.0109 -0.4165 -0.8528
 5567SOL     OW32120   2.195   2.979   3.542 -0.0109  0.1314  0.1451
 5567SOL    HW132121   2.277   2.953   3.585 -0.2711 -0.5266  0.2590
 5567SOL    HW232122   2.130   2.978   3.612  0.2673  2.6304  0.4575
 5568SOL     OW32123   1.398   2.792  10.132 -0.0284 -0.0487  0.4600
 5568SOL    HW132124   1.353   2.711  10.158  2.1374 -1.4003  0.2027
 5568SOL    HW232125   1.478   2.761  10.088 -0.4360  2.2420 -1.9805
 5569SOL     OW32126   5.907   2.860  10.670  0.0683  0.1211 -0.2370
 5569SOL    HW132127   5.915   2.898  10.582  0.8428  0.3530 -0.0748
 5569SOL    HW232128   5.863   2.776  10.656 -0.9553  0.7265 -0.6892
 5570SOL     OW32129   3.113  -0.004  11.696  0.1239  0.1882  0.6807
 5570SOL    HW132130   3.042  -0.057  11.660 -0.4755  1.5548 -0.2113
 5570SOL    HW232131   3.072   0.081  11.714  0.8584  0.1036  2.8672
 5571SOL     OW32132   4.263   4.608  10.767  0.6154 -0.0103 -0.1975
 5571SOL    HW132133   4.288   4.678  10.826 -0.8662  1.0998 -0.8614
 5571SOL    HW232134   4.346   4.567  10.741  1.3213 -0.0531  2.0497
 5572SOL     OW32135   2.690   1.103   8.645 -0.2710  0.2832 -0.3798
 5572SOL    HW132136   2.623   1.035   8.637 -1.2322  1.4207 -2.3247
 5572SOL    HW232137   2.659   1.160   8.715  0.2395 -0.9041  0.8463
 5573SOL     OW32138   0.156   1.165   2.647  0.2691  0.2514  0.1119
 5573SOL    HW132139   0.233   1.177   2.591 -0.8580 -2.3695 -2.0942
 5573SOL    HW232140   0.191   1.129   2.728  1.8405  3.3721  0.9137
 5574SOL     OW32141   4.120   2.599   3.941  0.2868  0.3170  0.1127
 5574SOL    HW132142   4.204   2.641   3.960  0.0889  0.2926  1.0329
 5574SOL    HW232143   4.131   2.563   3.852  0.4568  2.3251 -0.7058
 5575SOL     OW32144   3.513   0.566   0.714 -0.1418 -0.0167 -0.2669
 5575SOL    HW132145   3.462   0.491   0.684 -0.3336 -0.0511  0.1370
 5575SOL    HW232146   3.603   0.535   0.713 -0.2721 -0.4313  0.4209
 5576SOL     OW32147   3.496   1.047  11.019  0.5966 -0.1996  0.3561
 5576SOL    HW132148   3.478   1.126  10.968 -1.6309 -0.6827  0.3589
 5576SOL    HW232149   3.420   1.038  11.076  1.3309 -1.7666  1.1116
 5577SOL     OW32150   4.490   1.140  10.874  0.1488 -0.0024 -0.0885
 5577SOL    HW132151   4.485   1.091  10.955  0.7968 -1.7716 -1.0905
 5577SOL    HW232152   4.468   1.230  10.898 -2.1720 -0.9848  1.5808
 5578SOL     OW32153   1.852   5.613  10.221 -0.0403  0.2287 -0.3219
 5578SOL    HW132154   1.834   5.697  10.264 -0.8651  0.3230 -0.8482
 5578SOL    HW232155   1.847   5.632  10.127 -3.0729 -1.0050 -0.4402
 5579SOL     OW32156   5.152   4.853   9.071 -0.1393  0.3922 -0.2521
 5579SOL    HW132157   5.077   4.803   9.102 -0.5540  0.6812 -0.7788
 5579SOL    HW232158   5.228   4.808   9.109 -0.6301  0.7238  1.1522
 5580SOL     OW32159   0.329   1.910   1.617  0.0491  0.2214  0.1112
 5580SOL    HW132160   0.324   2.004   1.634 -2.2244  0.1938 -0.2469
 5580SOL    HW232161   0.288   1.899   1.531 -1.1784 -1.2856  0.8647
 5581SOL     OW32162   4.504   1.685   0.270  0.0627  0.0679 -0.1529
 5581SOL    HW132163   4.532   1.670   0.180  0.5666  0.3116 -0.0442
 5581SOL    HW232164   4.463   1.603   0.297 -0.5990  0.1834 -0.7844
 5582SOL     OW32165   3.474   3.163   3.120 -0.1681 -0.3163 -0.5387
 5582SOL    HW132166   3.405   3.158   3.053 -0.9281 -4.0836  0.4702
 5582SOL    HW232167   3.523   3.081   3.111  1.8631  0.6393  1.3026
 5583SOL     OW32168   3.968   0.427   0.562 -0.3850  0.7559 -1.1127
 5583SOL    HW132169   3.921   0.510   0.558 -0.2764  0.9165  0.8260
 5583SOL    HW232170   4.056   0.449   0.529 -0.2821  1.4592 -0.3792
 5584SOL     OW32171   5.910   5.153   1.322 -0.3637 -0.3936 -0.2343
 5584SOL    HW132172   5.951   5.085   1.269  0.0664  2.6205 -3.9687
 5584SOL    HW232173   5.983   5.203   1.358 -0.6936 -1.4166  1.9856
 5585SOL     OW32174   4.243   1.797   0.273 -0.3478 -0.1548 -0.4917
 5585SOL    HW132175   4.326   1.751   0.257 -1.0950 -0.7043 -3.0820
 5585SOL    HW232176   4.193   1.738   0.329  0.1521 -0.8248 -0.7410
 5586SOL     OW32177   0.718   4.937   1.975  0.7176 -0.6126  0.3083
 5586SOL    HW132178   0.728   4.855   1.927 -1.1394 -0.4699 -0.3751
 5586SOL    HW232179   0.623   4.947   1.986  0.8338  2.0865 -0.7297
 5587SOL     OW32180   1.564   5.193   9.545  0.7155  0.8300  0.6599
 5587SOL    HW132181   1.541   5.105   9.515  0.2369 -0.0873  3.6328
 5587SOL    HW232182   1.593   5.238   9.465  0.3089 -1.7823 -1.0246
 5588SOL     OW32183   4.496   1.523   9.165 -0.0423  0.3553  0.1039
 5588SOL    HW132184   4.527   1.445   9.211 -0.1559  1.4627  2.0876
 5588SOL    HW232185   4.538   1.596   9.210  0.8136  1.4155 -2.3566
 5589SOL     OW32186   4.723   5.607   1.229  0.3466  0.7684  0.0511
 5589SOL    HW132187   4.712   5.679   1.166 -1.6651  0.5079  0.0933
 5589SOL    HW232188   4.677   5.636   1.307  3.5114  1.4447  1.7620
 5590SOL     OW32189   3.292   1.208   1.954 -0.9736  0.3852 -0.3110
 5590SOL    HW132190   3.311   1.175   1.866 -2.0596 -0.1388 -0.3616
 5590SOL    HW232191   3.343   1.151   2.012 -2.2060 -0.8784 -0.4507
 5591SOL     OW32192   5.825   1.455  12.414 -0.0906  0.1983  0.4298
 5591SOL    HW132193   5.734   1.456  12.383  0.5511  2.1469 -1.4806
 5591SOL    HW232194   5.867   1.387  12.360 -0.5293 -1.1958  1.7886
 5592SOL     OW32195   1.877   1.885   9.013  0.2590 -0.1076  0.8721
 5592SOL    HW132196   1.829   1.864   9.094  1.4238 -1.9408  1.1324
 5592SOL    HW232197   1.957   1.833   9.019  0.5093 -0.0183 -1.3227
 5593SOL     OW32198   5.499   0.401  10.328  0.5117  0.1377 -0.0477
 5593SOL    HW132199   5.526   0.310  10.339 -0.4608 -0.1521 -0.0030
 5593SOL    HW232200   5.463   0.427  10.413  1.8259  0.9231  0.2764
 5594SOL     OW32201   0.872   4.432   3.097 -0.4075 -0.0266 -0.1607
 5594SOL    HW132202   0.797   4.448   3.040 -0.1877  0.8712 -0.2138
 5594SOL    HW232203   0.929   4.508   3.083 -0.8022  0.7009  1.9695
 5595SOL     OW32204   3.986   5.727   7.755  0.5618  0.1310  0.6364
 5595SOL    HW132205   3.976   5.781   7.676  0.9018 -0.3124  0.2823
 5595SOL    HW232206   3.905   5.677   7.761  1.6316 -1.9060 -1.0301
 5596SOL     OW32207   1.094   1.752   3.328  0.1014 -0.4320 -0.0075
 5596SOL    HW132208   1.055   1.824   3.279  0.3117 -0.3467 -0.0545
 5596SOL    HW232209   1.187   1.754   3.303 -0.0085 -1.1125 -0.4907
 5597SOL     OW32210   0.738   0.084   9.117  0.3072  0.1823 -0.1581
 5597SOL    HW132211   0.801   0.146   9.154 -0.0286 -0.4306  1.5054
 5597SOL    HW232212   0.676   0.068   9.188 -0.3247 -1.0775 -0.9762
 5598SOL     OW32213   4.655   3.340   0.750  0.0652 -0.4742 -0.4092
 5598SOL    HW132214   4.732   3.310   0.701  0.5563  0.5347 -0.2709
 5598SOL    HW232215   4.652   3.283   0.827  1.5768  0.4890  0.3666
 5599SOL     OW32216   2.875   0.286   8.899  0.3644  0.1280  0.5621
 5599SOL    HW132217   2.909   0.203   8.933  1.3040  0.1421 -0.3002
 5599SOL    HW232218   2.953   0.337   8.877 -0.2012  0.4055 -0.8965
 5600SOL     OW32219   0.544   5.352  11.225 -0.2162 -0.5872  0.1664
 5600SOL    HW132220   0.588   5.435  11.246  0.6169 -0.5035 -1.7408
 5600SOL    HW232221   0.479   5.376  11.158  0.8805 -1.6420 -1.3173
 5601SOL     OW32222   1.912   1.254  11.050 -0.6621 -0.2781 -1.0019
 5601SOL    HW132223   1.931   1.314  11.123 -0.9673  0.0180 -1.1583
 5601SOL    HW232224   1.896   1.312  10.976 -2.8484 -0.4687 -0.7106
 5602SOL     OW32225   2.595   3.310   9.282 -0.0641 -0.0643  0.0029
 5602SOL    HW132226   2.645   3.390   9.265 -0.6483  0.3472  0.1867
 5602SOL    HW232227   2.508   3.328   9.245 -0.9541  0.3516  2.2062
 5603SOL     OW32228   5.238   3.318   3.296 -0.4500  0.0702  0.1327
 5603SOL    HW132229   5.244   3.331   3.202 -0.2292 -0.2375  0.1036
 5603SOL    HW232230   5.155   3.358   3.321 -0.8104 -0.4205 -0.2892
 5604SOL     OW32231   0.437   4.927   1.083  0.0998 -0.1906 -0.0498
 5604SOL    HW132232   0.427   5.012   1.040  0.1084  0.2969  0.9123
 5604SOL    HW232233   0.357   4.914   1.133 -0.6869 -1.5779 -1.6111
 5605SOL     OW32234   1.230   1.502   4.204  0.0308 -0.6649 -0.8607
 5605SOL    HW132235   1.237   1.598   4.201  0.7773 -0.7077 -0.5438
 5605SOL    HW232236   1.226   1.481   4.297  3.3149 -1.1698 -0.7676
 5606SOL     OW32237   0.921   2.467   8.492 -0.5985  0.2694  0.2392
 5606SOL    HW132238   0.825   2.462   8.494 -0.6433  0.7633 -0.3977
 5606SOL    HW232239   0.940   2.519   8.414  0.2079 -0.2033  0.1191
 5607SOL     OW32240   3.079   2.086  11.051  0.4414 -0.1350  0.2792
 5607SOL    HW132241   3.144   2.151  11.023  0.1478 -0.0830 -0.2983
 5607SOL    HW232242   3.000   2.137  11.066 -0.4580 -0.6418 -2.4501
 5608SOL     OW32243   0.700   4.543   2.873  0.3056  0.1249 -0.1699
 5608SOL    HW132244   0.674   4.630   2.903 -0.2847 -0.2954  0.5736
 5608SOL    HW232245   0.755   4.559   2.797  0.8546  1.1798  0.4407
 5609SOL     OW32246   2.893   3.084   1.338 -0.2749  0.8298  0.4053
 5609SOL    HW132247   2.861   2.998   1.310 -0.4434  0.5745  1.3918
 5609SOL    HW232248   2.882   3.139   1.260 -1.8818  0.4206  0.3266
 5610SOL     OW32249   4.671   2.211  10.093  0.3919  0.2689  0.4647
 5610SOL    HW132250   4.696   2.145  10.029  0.1558  0.6858 -0.0630
 5610SOL    HW232251   4.654   2.290  10.041 -4.3626 -0.5850  0.5193
 5611SOL     OW32252   0.724   2.314   3.217  0.5904  0.1514 -0.3250
 5611SOL    HW132253   0.807   2.282   3.184  0.1788  0.5053 -1.7551
 5611SOL    HW232254   0.734   2.409   3.220  0.9297  0.0734  1.4487
 5612SOL     OW32255   4.612   5.818   1.838  0.2985  0.2587  0.1693
 5612SOL    HW132256   4.705   5.804   1.858 -0.0978 -0.8655  1.3178
 5612SOL    HW232257   4.600   5.913   1.846  1.5239  0.5249 -0.8486
 5613SOL     OW32258   1.531   5.176   3.572 -0.3805  0.0695 -0.7309
 5613SOL    HW132259   1.459   5.169   3.635 -0.3737 -0.5291 -0.7865
 5613SOL    HW232260   1.589   5.103   3.593  0.5095  0.8738 -0.3262
 5614SOL     OW32261   4.088   3.816  10.717  0.1869  0.1505 -0.1028
 5614SOL    HW132262   4.067   3.883  10.782 -0.6307 -0.9848  0.8234
 5614SOL    HW232263   4.064   3.733  10.758  1.0792 -0.7201 -1.2730
 5615SOL     OW32264   2.870   3.531   0.614 -0.2019  1.1648 -0.7556
 5615SOL    HW132265   2.780   3.503   0.593 -0.2664  0.6192  0.1663
 5615SOL    HW232266   2.858   3.609   0.667 -0.1389  1.0516 -0.5728
 5616SOL     OW32267   0.651   2.090   8.961 -0.3393  0.0179 -0.2974
 5616SOL    HW132268   0.721   2.093   9.025  0.4913 -3.7239 -0.9205
 5616SOL    HW232269   0.570   2.095   9.013  0.3541  0.9556  0.6920
 5617SOL     OW32270   1.870   4.897  10.248 -0.4768 -0.1429 -0.0733
 5617SOL    HW132271   1.925   4.976  10.243  1.6719 -1.5815  0.4560
 5617SOL    HW232272   1.925   4.828  10.212 -1.2379 -2.0023  2.2661
 5618SOL     OW32273   0.337   0.831  11.040  0.6169  0.2982 -0.3674
 5618SOL    HW132274   0.405   0.895  11.021 -0.6452  1.5499 -0.7729
 5618SOL    HW232275   0.295   0.864  11.120  1.5160 -1.3218  0.8002
 5619SOL     OW32276   3.500   0.018  10.777  0.0546  0.6664 -0.7103
 5619SOL    HW132277   3.420   0.053  10.816 -0.9290 -1.0507 -1.1185
 5619SOL    HW232278   3.556  -0.003  10.852 -0.2038  1.1160 -0.3879
 5620SOL     OW32279   1.953   4.277   3.240  0.2424 -0.3228 -0.1367
 5620SOL    HW132280   1.930   4.288   3.148  1.2559 -0.2486 -0.3878
 5620SOL    HW232281   1.985   4.363   3.267 -0.2964 -0.2733  0.3610
 5621SOL     OW32282   2.663   5.122  10.180 -0.3515 -0.2089 -0.4903
 5621SOL    HW132283   2.598   5.178  10.139 -0.3615 -1.3794 -2.1207
 5621SOL    HW232284   2.747   5.161  10.158 -0.4508  1.1235  1.3493
 5622SOL     OW32285   0.240   4.745   2.382  0.1665 -1.0399 -0.4078
 5622SOL    HW132286   0.247   4.811   2.314  1.4967  0.6798  1.3260
 5622SOL    HW232287   0.164   4.771   2.434  2.1407  0.6702  1.7729
 5623SOL     OW32288   2.098   5.145  12.001 -0.1662  0.1078  0.2689
 5623SOL    HW132289   2.102   5.105  12.088  0.5491  1.2200  0.7705
 5623SOL    HW232290   2.178   5.199  11.996 -1.4925  2.1108 -0.0254
 5624SOL     OW32291   4.434   2.067   1.606  0.1030 -0.6098 -0.2343
 5624SOL    HW132292   4.452   2.021   1.524  2.0516 -0.6195  0.1714
 5624SOL    HW232293   4.423   1.997   1.671  1.4423 -0.5646  0.0618
 5625SOL     OW32294   3.863   1.521   1.921  0.3923 -0.1316 -0.0683
 5625SOL    HW132295   3.839   1.436   1.883  2.0608 -1.1073  1.0111
 5625SOL    HW232296   3.946   1.505   1.965  0.3355  1.8905  0.8235
 5626SOL     OW32297   5.295   0.167   3.379 -0.0466  0.0744 -0.0359
 5626SOL    HW132298   5.364   0.233   3.375 -0.5858  0.5938 -0.8439
 5626SOL    HW232299   5.292   0.140   3.471  0.0302  1.3121  0.3304
 5627SOL     OW32300   3.508   4.269   2.921  0.2014  0.0200 -0.4013
 5627SOL    HW132301   3.511   4.174   2.936 -2.6205  0.2923  2.4234
 5627SOL    HW232302   3.517   4.307   3.008  0.0760  2.3055 -1.3687
 5628SOL     OW32303   4.184   4.772   2.249 -0.6754 -0.4714  0.7482
 5628SOL    HW132304   4.174   4.858   2.209 -0.1140 -0.3788  0.7951
 5628SOL    HW232305   4.139   4.778   2.333 -0.9697 -0.3458  0.5830
 5629SOL     OW32306   5.341   0.675  11.841  0.1240  0.0852 -0.5103
 5629SOL    HW132307   5.317   0.584  11.822  1.3276 -0.2193 -0.6077
 5629SOL    HW232308   5.326   0.685  11.935  0.8261 -0.4683 -0.3412
 5630SOL     OW32309   4.535   4.409   2.877 -0.1497  0.2870 -0.0659
 5630SOL    HW132310   4.476   4.472   2.834 -1.4428 -0.7606  0.1375
 5630SOL    HW232311   4.597   4.464   2.925 -1.6217  1.4100  0.5972
 5631SOL     OW32312   4.944   1.533   0.925 -0.0567  0.3633 -0.6123
 5631SOL    HW132313   4.975   1.620   0.898 -0.3163  0.5169 -0.4295
 5631SOL    HW232314   5.001   1.509   0.997  0.6690 -0.0687 -1.3305
 5632SOL     OW32315   3.932   1.228   2.886 -0.1406 -0.2267  0.4318
 5632SOL    HW132316   3.998   1.209   2.819 -1.8950  0.4630 -1.5931
 5632SOL    HW232317   3.863   1.163   2.870  0.2670 -1.3165  2.8827
 5633SOL     OW32318   4.575   3.509   3.013  0.1367  0.2628 -0.4380
 5633SOL    HW132319   4.491   3.497   2.969  0.2445  0.5828 -0.7305
 5633SOL    HW232320   4.553   3.561   3.091 -0.1523 -0.8367  0.2291
 5634SOL     OW32321   4.979   1.258   9.506 -0.1703  0.7799 -0.3824
 5634SOL    HW132322   4.961   1.240   9.414 -4.3434 -3.6513  1.0943
 5634SOL    HW232323   5.053   1.201   9.527  2.2115  3.4015 -1.4221
 5635SOL     OW32324   1.926   4.857   0.214  0.1954  0.1159 -0.0013
 5635SOL    HW132325   1.859   4.797   0.180 -0.8408  0.0804  1.9855
 5635SOL    HW232326   1.876   4.932   0.246  1.4954  2.1786 -2.6286
 5636SOL     OW32327   2.589   5.674  11.356 -0.2914 -0.0648  0.5327
 5636SOL    HW132328   2.560   5.584  11.370  1.8355 -0.6259  1.4433
 5636SOL    HW232329   2.660   5.687  11.418  0.5989  1.6797 -0.7953
 5637SOL     OW32330   0.860   0.043  12.207  0.8090 -0.0535  0.0303
 5637SOL    HW132331   0.914   0.112  12.245 -0.7016  0.6060  1.0674
 5637SOL    HW232332   0.904   0.019  12.126  1.8907  1.4457  0.1602
 5638SOL     OW32333   5.154   0.382   0.417 -0.3539 -0.0820  0.2133
 5638SOL    HW132334   5.233   0.358   0.465 -0.4594  1.0664  0.9664
 5638SOL    HW232335   5.174   0.359   0.326  1.5120  1.7394  0.1183
 5639SOL     OW32336   5.106   4.757   2.708  0.6759 -0.1840  0.0425
 5639SOL    HW132337   5.066   4.837   2.676  0.4506 -1.1574 -2.2091
 5639SOL    HW232338   5.186   4.786   2.752  0.9517  1.2471 -1.3518
 5640SOL     OW32339   0.208   0.044  11.087  0.8762 -0.4159  0.2609
 5640SOL    HW132340   0.287   0.098  11.098  2.2837 -2.6614  1.6602
 5640SOL    HW232341   0.193   0.006  11.173  0.9697 -3.6252 -1.0723
 5641SOL     OW32342   3.482   3.964   9.032 -0.0945  0.7142  0.1108
 5641SOL    HW132343   3.403   3.957   9.086  1.2092  0.6178  2.0508
 5641SOL    HW232344   3.468   4.042   8.979 -2.1209 -0.1143 -0.6453
 5642SOL     OW32345   5.822   5.275   9.442  0.0768  0.4313  0.6631
 5642SOL    HW132346   5.915   5.260   9.458 -0.2228  0.1453  2.1870
 5642SOL    HW232347   5.787   5.189   9.420 -0.0990  0.2687  1.5415
 5643SOL     OW32348   5.290   5.436   8.907 -0.1033 -0.7687 -0.2512
 5643SOL    HW132349   5.314   5.345   8.891  0.7888 -0.5614 -0.1449
 5643SOL    HW232350   5.330   5.485   8.836  0.5540 -0.3072  0.4237
 5644SOL     OW32351   4.131   5.349  10.796  0.2578 -0.2028  0.1746
 5644SOL    HW132352   4.070   5.328  10.725  0.4029 -0.9512  0.2658
 5644SOL    HW232353   4.089   5.314  10.874  0.3433  0.1586  0.3828
 5645SOL     OW32354   3.662   2.775   3.799  0.5500  0.1857  0.5331
 5645SOL    HW132355   3.575   2.800   3.770  0.2095 -1.4441  0.0749
 5645SOL    HW232356   3.722   2.825   3.745 -0.0982  0.7154  0.3044
 5646SOL     OW32357   0.437   4.294   9.120 -0.0575 -0.3810 -0.2080
 5646SOL    HW132358   0.493   4.283   9.042  0.3092  0.5118 -0.0809
 5646SOL    HW232359   0.392   4.210   9.129 -0.3376 -0.3894 -1.5691
 5647SOL     OW32360   1.943   3.531   3.208 -0.0084  0.3762  0.7144
 5647SOL    HW132361   1.937   3.624   3.190  0.9367  0.0777 -1.3566
 5647SOL    HW232362   1.853   3.499   3.198 -0.0675  0.8095 -0.2695
 5648SOL     OW32363   5.265   0.185   3.070 -0.4646  0.0168  0.5795
 5648SOL    HW132364   5.248   0.120   3.002  2.9808 -0.7074  0.3448
 5648SOL    HW232365   5.224   0.265   3.038 -0.3587 -0.7492 -1.4982
 5649SOL     OW32366   0.451   0.234  10.129 -0.0645 -0.2381 -0.1183
 5649SOL    HW132367   0.401   0.184  10.194 -0.1386 -0.6801 -0.5053
 5649SOL    HW232368   0.509   0.289  10.181  1.5183 -2.2507  0.3344
 5650SOL     OW32369   2.508   5.667  11.976 -0.6000  0.2165 -0.0667
 5650SOL    HW132370   2.469   5.653  11.890  0.2053  1.5337 -0.6505
 5650SOL    HW232371   2.439   5.711  12.026 -1.0030 -0.3827 -0.0877
 5651SOL     OW32372   2.773   2.683  10.990  0.3203  0.0022 -0.5668
 5651SOL    HW132373   2.781   2.778  10.992  1.5845 -0.1280  1.7874
 5651SOL    HW232374   2.841   2.655  10.928  2.9155  0.4050  1.9712
 5652SOL     OW32375   2.553   4.557   4.225 -0.1502  0.1341 -0.8079
 5652SOL    HW132376   2.596   4.473   4.244  0.7812  1.1031  1.5305
 5652SOL    HW232377   2.571   4.611   4.302 -2.8196  1.6785 -1.2073
 5653SOL     OW32378   0.498   5.875   2.647  0.4800 -0.6465  0.5211
 5653SOL    HW132379   0.518   5.815   2.575  1.3416 -0.7739  0.8519
 5653SOL    HW232380   0.551   5.953   2.628  1.2204 -0.9419  1.3669
 5654SOL     OW32381   2.378   1.399   2.492  0.3302 -0.0306  0.4192
 5654SOL    HW132382   2.283   1.411   2.490  0.4958  1.6295  1.4198
 5654SOL    HW232383   2.404   1.399   2.400 -0.7762 -1.8193  0.0887
 5655SOL     OW32384   2.882   3.645   8.022 -0.2936 -0.6705 -0.3882
 5655SOL    HW132385   2.930   3.710   7.969 -1.0139 -0.0757 -0.3220
 5655SOL    HW232386   2.936   3.566   8.018  1.6792  0.5565  1.2736
 5656SOL     OW32387   0.698   3.371   9.359 -0.0558  0.0416  0.1917
 5656SOL    HW132388   0.766   3.410   9.304  1.8648 -0.6318  2.0231
 5656SOL    HW232389   0.686   3.433   9.431 -0.4078 -0.4743  0.5848
 5657SOL     OW32390   2.330   0.395  10.152 -0.1705  0.6254  0.4431
 5657SOL    HW132391   2.314   0.317  10.204 -0.9053  1.0796  0.9123
 5657SOL    HW232392   2.423   0.413  10.163  0.0743 -0.3857  0.0384
 5658SOL     OW32393   3.685   0.684   9.846 -0.4719  0.3411  0.4922
 5658SOL    HW132394   3.711   0.647   9.761 -0.4528 -0.6651  0.9292
 5658SOL    HW232395   3.759   0.666   9.904 -1.5152 -1.3016  1.3789
 5659SOL     OW32396   4.309   3.031   1.343 -0.2447  0.5247 -0.6088
 5659SOL    HW132397   4.224   3.054   1.304 -2.1546 -1.7120  2.1228
 5659SOL    HW232398   4.355   2.985   1.273 -1.5565  1.0895 -1.8796
 5660SOL     OW32399   3.942   2.039   0.415  0.1521 -0.7608  0.2576
 5660SOL    HW132400   3.921   1.954   0.454  1.0880 -0.9500  0.3532
 5660SOL    HW232401   3.879   2.100   0.454 -0.6139 -1.4321  0.0797
 5661SOL     OW32402   0.774   3.941   0.264  0.1119  0.5040  0.0824
 5661SOL    HW132403   0.802   3.899   0.345  0.7238 -1.2591 -1.0079
 5661SOL    HW232404   0.837   4.011   0.250 -0.1553  0.9904  1.2620
 5662SOL     OW32405   2.304   0.113  11.295  0.7911  0.5873  0.3020
 5662SOL    HW132406   2.380   0.057  11.311  0.9271  0.1010 -1.8762
 5662SOL    HW232407   2.323   0.155  11.211 -0.0972  2.5774  1.0657
 5663SOL     OW32408   0.843   0.545  10.197  0.3209 -0.7770  0.1881
 5663SOL    HW132409   0.915   0.548  10.260  1.5385  0.6887 -1.2311
 5663SOL    HW232410   0.884   0.518  10.115 -0.9398 -0.9655 -0.3924
 5664SOL     OW32411   0.684   5.603   2.203 -0.2690  0.3347  0.2865
 5664SOL    HW132412   0.687   5.635   2.113  2.5461 -1.8332 -0.4689
 5664SOL    HW232413   0.716   5.676   2.256 -0.5269  1.1060 -0.6191
 5665SOL     OW32414   0.996   3.757   3.506  0.1069 -0.2964  0.3832
 5665SOL    HW132415   0.996   3.699   3.582 -0.6324 -0.5697  0.1856
 5665SOL    HW232416   0.910   3.800   3.509 -0.1182 -0.6641 -0.5498
 5666SOL     OW32417   3.423   3.630   2.962  0.5740 -0.2137 -0.0300
 5666SOL    HW132418   3.438   3.595   2.875  0.2767 -0.9060  0.1930
 5666SOL    HW232419   3.354   3.575   2.999 -0.4348  1.0739  0.0549
 5667SOL     OW32420   2.793   0.300  10.894  0.2088 -0.2896  0.1478
 5667SOL    HW132421   2.827   0.214  10.919  0.7839 -0.1280 -0.0701
 5667SOL    HW232422   2.763   0.288  10.803  0.0276 -0.3355  0.2139
 5668SOL     OW32423   0.654   0.622  11.764  0.1309 -0.1311  0.0211
 5668SOL    HW132424   0.711   0.628  11.841  0.1473  0.6356 -0.0531
 5668SOL    HW232425   0.674   0.700  11.713 -0.0644 -0.5122 -0.6427
 5669SOL     OW32426   3.734   2.117  10.229 -0.0102  0.2851 -0.2797
 5669SOL    HW132427   3.809   2.099  10.286 -0.2822 -0.1244 -0.0523
 5669SOL    HW232428   3.663   2.141  10.289 -0.8788 -2.1218 -0.2926
 5670SOL     OW32429   4.126   5.552   2.395 -0.1306  0.4861 -0.1588
 5670SOL    HW132430   4.056   5.618   2.404 -0.3067  0.3492 -0.5219
 5670SOL    HW232431   4.151   5.532   2.485  1.0508  2.2511 -0.0535
 5671SOL     OW32432   5.822   2.172   0.423 -0.4034 -0.3603  0.7024
 5671SOL    HW132433   5.779   2.140   0.502 -0.2420  0.3420  1.0802
 5671SOL    HW232434   5.791   2.263   0.414  0.7064  0.0330  0.7731
 5672SOL     OW32435   5.179   1.530   1.242 -0.2258  0.7070  0.3417
 5672SOL    HW132436   5.147   1.445   1.272 -0.1006  0.4383 -0.2591
 5672SOL    HW232437   5.268   1.536   1.276 -0.3489  0.7423  0.6592
 5673SOL     OW32438   5.235   4.607  11.747 -0.5041  0.3849 -0.1199
 5673SOL    HW132439   5.260   4.696  11.724 -0.3373  0.0610 -1.2345
 5673SOL    HW232440   5.230   4.561  11.663  1.0877 -1.0913  0.5530
 5674SOL     OW32441   1.067   2.346  11.331  0.4147 -0.2298 -0.0907
 5674SOL    HW132442   1.005   2.285  11.290  1.3555 -0.8869 -0.5497
 5674SOL    HW232443   1.014   2.423  11.352 -0.5083 -0.6828 -0.7132
 5675SOL     OW32444   2.748   5.706   1.407  0.1601  0.2273  0.8795
 5675SOL    HW132445   2.799   5.785   1.390 -1.2660  0.4173 -2.9883
 5675SOL    HW232446   2.658   5.737   1.415 -0.1993 -0.8298  1.0117
 5676SOL     OW32447   3.292   3.854   1.234 -0.6016  0.1795 -0.6953
 5676SOL    HW132448   3.220   3.917   1.242  1.5765  2.8272 -1.1751
 5676SOL    HW232449   3.340   3.881   1.156  0.5731 -1.9142 -0.7410
 5677SOL     OW32450   2.880   0.480   0.628  0.2341  1.1393  0.1018
 5677SOL    HW132451   2.887   0.515   0.539 -1.3465 -0.0253 -0.5038
 5677SOL    HW232452   2.936   0.403   0.628  1.5942  2.1164  0.6379
 5678SOL     OW32453   3.215   2.013   3.874  0.0124 -0.0583  0.4272
 5678SOL    HW132454   3.287   2.021   3.937  0.3502 -3.2948  0.5438
 5678SOL    HW232455   3.144   2.065   3.912  1.5067  1.2495  1.4914
 5679SOL     OW32456   0.867   0.367  12.210 -0.2378  0.3142 -0.1616
 5679SOL    HW132457   0.872   0.343  12.118 -0.5715  0.4806 -0.2247
 5679SOL    HW232458   0.894   0.459  12.213 -0.0546  0.2591 -0.0704
 5680SOL     OW32459   2.483   4.125  10.481 -0.1891 -0.1276  0.4664
 5680SOL    HW132460   2.401   4.137  10.434  0.3194  1.8801  0.0533
 5680SOL    HW232461   2.460   4.072  10.557 -1.3922 -1.7201 -0.9802
 5681SOL     OW32462   4.299   5.192  10.305  0.6399  0.3219  0.2218
 5681SOL    HW132463   4.314   5.100  10.328  1.2922  0.0652 -1.1396
 5681SOL    HW232464   4.206   5.197  10.284  0.8318 -0.3070 -0.8370
 5682SOL     OW32465   0.437   3.815   2.737  0.3001  0.0608  0.5547
 5682SOL    HW132466   0.454   3.826   2.644  1.7632 -0.5553  0.7318
 5682SOL    HW232467   0.483   3.888   2.779 -0.2087  0.2422  0.7919
 5683SOL     OW32468   1.787   5.627   2.777 -0.9751 -0.5836  0.4136
 5683SOL    HW132469   1.810   5.577   2.855  1.5992  0.4017  0.3217
 5683SOL    HW232470   1.721   5.690   2.808 -1.5901 -1.6556  1.2990
 5684SOL     OW32471   3.215   3.210  11.516  0.0483 -0.2839 -0.4666
 5684SOL    HW132472   3.290   3.197  11.458  0.6019  1.1753 -0.0931
 5684SOL    HW232473   3.152   3.259  11.464  0.1069  0.0983 -0.1792
 5685SOL     OW32474   1.822   1.220   9.325  0.0753  0.1086  0.1753
 5685SOL    HW132475   1.889   1.156   9.301 -0.5972  0.4858 -2.9613
 5685SOL    HW232476   1.756   1.169   9.372  2.3046 -0.3313  2.9743
 5686SOL     OW32477   2.604   3.338   0.869 -1.2676  0.2864 -0.0967
 5686SOL    HW132478   2.675   3.278   0.845 -1.0754  0.3449  0.3105
 5686SOL    HW232479   2.553   3.290   0.934 -0.9216  0.6880  0.4740
 5687SOL     OW32480   2.438   2.388   9.254 -0.3321  1.0400  0.1188
 5687SOL    HW132481   2.388   2.404   9.335 -1.6426  2.3610 -0.8999
 5687SOL    HW232482   2.510   2.332   9.281 -2.2900 -0.8311  1.6960
 5688SOL     OW32483   1.489   2.348   1.010  0.0927 -0.1234 -0.5501
 5688SOL    HW132484   1.412   2.325   0.958  0.5168 -2.4625 -0.2014
 5688SOL    HW232485   1.544   2.270   1.008  1.5329  0.8155  0.8699
 5689SOL     OW32486   0.676   5.656   0.836 -0.3716  0.6199 -0.2518
 5689SOL    HW132487   0.699   5.749   0.831 -1.8774  0.9901 -0.3791
 5689SOL    HW232488   0.676   5.636   0.930 -0.3629  0.8234 -0.2073
 5690SOL     OW32489   0.272   4.400   3.560 -0.3081 -0.0814 -0.1347
 5690SOL    HW132490   0.254   4.453   3.638 -2.6148  1.6765 -1.7733
 5690SOL    HW232491   0.315   4.460   3.500 -0.8086 -0.7228 -1.1438
 5691SOL     OW32492   5.941   0.451   0.113  0.5397 -0.0889 -0.4986
 5691SOL    HW132493   5.871   0.429   0.174 -0.0315  1.7644 -0.4298
 5691SOL    HW232494   5.898   0.452   0.027  0.6310  0.4029 -0.5396
 5692SOL     OW32495   0.576   0.327   9.436 -0.3229 -0.7442  0.7619
 5692SOL    HW132496   0.556   0.345   9.344 -0.2057 -1.6547  0.5561
 5692SOL    HW232497   0.552   0.408   9.482  0.4632  0.0428 -0.1879
 5693SOL     OW32498   2.481   2.267   3.371 -0.3534  0.0599 -0.0870
 5693SOL    HW132499   2.552   2.204   3.358  1.7969  2.0433  1.4731
 5693SOL    HW232500   2.526   2.350   3.388 -3.0804  1.5186  0.2792
 5694SOL     OW32501   5.544   4.916   8.340 -0.7838 -0.3415  0.0685
 5694SOL    HW132502   5.598   4.984   8.381 -1.7511  1.2538 -1.2435
 5694SOL    HW232503   5.606   4.857   8.298  0.0076  0.5142  0.0323
 5695SOL     OW32504   0.891   1.338   2.864 -0.4653  0.3350  0.2500
 5695SOL    HW132505   0.892   1.347   2.769  2.1336 -0.2583  0.1881
 5695SOL    HW232506   0.889   1.428   2.897  1.1845  0.6321 -0.3880
 5696SOL     OW32507   2.830   0.140   2.906 -0.2971  0.0131  0.4017
 5696SOL    HW132508   2.800   0.146   2.815 -0.1019  0.7676  0.3883
 5696SOL    HW232509   2.822   0.228   2.940  1.0658  0.0446  0.6652
 5697SOL     OW32510   0.466   3.236   9.319 -0.0142  0.6500  0.5789
 5697SOL    HW132511   0.442   3.288   9.242  2.1732  2.5088  1.0717
 5697SOL    HW232512   0.548   3.275   9.349  1.6426 -3.0020  1.1002
 5698SOL     OW32513   2.657   4.787  10.703 -0.4363  0.2561 -0.3253
 5698SOL    HW132514   2.661   4.700  10.664  0.5261 -0.7683  1.9656
 5698SOL    HW232515   2.607   4.839  10.640  0.0601 -1.6070 -2.3361
 5699SOL     OW32516   2.664   2.832  11.444 -0.1823  0.4938  0.3357
 5699SOL    HW132517   2.667   2.770  11.371  0.1636 -1.8286  2.2551
 5699SOL    HW232518   2.591   2.890  11.424 -1.3010 -1.3170 -0.9358
 5700SOL     OW32519   4.222   0.704   9.306 -0.8274 -0.1525  0.0610
 5700SOL    HW132520   4.296   0.754   9.341 -1.6057  1.3076 -0.3618
 5700SOL    HW232521   4.250   0.678   9.218 -0.5544 -0.1672  0.1509
 5701SOL     OW32522   4.179   0.282   9.218 -0.3665 -0.9806 -1.4822
 5701SOL    HW132523   4.180   0.310   9.126 -0.4863 -2.2326 -1.8637
 5701SOL    HW232524   4.125   0.204   9.219  1.4032 -2.2189 -0.6953
 5702SOL     OW32525   1.672   3.927   3.389 -0.1342 -0.1770  0.3147
 5702SOL    HW132526   1.653   4.006   3.337 -0.8321 -0.4411  0.1530
 5702SOL    HW232527   1.615   3.860   3.351  0.3644 -0.7296  0.5329
 5703SOL     OW32528   1.727   0.270  11.627  0.2398  0.1516 -0.1864
 5703SOL    HW132529   1.803   0.325  11.644 -0.1645  0.1468  1.6889
 5703SOL    HW232530   1.664   0.295  11.695 -0.4929 -1.6177 -0.1988
 5704SOL     OW32531   2.065   4.421   9.351 -0.3017  0.2797  1.0453
 5704SOL    HW132532   2.030   4.420   9.440 -1.2905 -1.7361  0.6755
 5704SOL    HW232533   2.137   4.357   9.353  0.8729  1.5749  0.8439
 5705SOL     OW32534   3.902   3.004  11.534  0.8655  0.7673  0.0183
 5705SOL    HW132535   3.926   2.921  11.575 -0.0870 -0.5718 -2.0272
 5705SOL    HW232536   3.985   3.050  11.521  1.6963 -1.0452 -1.2663
 5706SOL     OW32537   0.236   0.725   3.494  0.0306  0.8495  0.5299
 5706SOL    HW132538   0.275   0.641   3.470  0.2247  0.7195  1.2717
 5706SOL    HW232539   0.159   0.733   3.438 -0.5074 -0.2488  1.0814
 5707SOL     OW32540   3.611   1.803   8.325  0.1998 -0.5085  0.3264
 5707SOL    HW132541   3.644   1.802   8.235 -0.5243  0.0250  0.0581
 5707SOL    HW232542   3.535   1.861   8.323  1.0414  0.6851  1.5919
 5708SOL     OW32543   2.946   0.682  11.509 -0.1061 -0.2336 -0.0125
 5708SOL    HW132544   2.863   0.646  11.478 -0.1206 -0.1254 -0.0993
 5708SOL    HW232545   2.981   0.614  11.567 -1.8367  1.0280  2.6623
 5709SOL     OW32546   1.595   5.236  12.460 -0.3972  0.5801  0.3813
 5709SOL    HW132547   1.647   5.314  12.441  2.2781 -1.3544 -0.4564
 5709SOL    HW232548   1.525   5.238  12.395 -0.3618  2.2493  0.3606
 5710SOL     OW32549   3.354   1.962   3.511 -0.0077  0.3199 -0.1006
 5710SOL    HW132550   3.377   1.904   3.584 -0.7337 -0.3716 -0.4123
 5710SOL    HW232551   3.438   1.996   3.480  0.4577 -0.7897 -0.0864
 5711SOL     OW32552   0.489   0.774   8.981 -0.1106  0.4369 -0.0961
 5711SOL    HW132553   0.395   0.790   8.992 -0.0723 -0.1161  0.9761
 5711SOL    HW232554   0.499   0.759   8.887 -0.9028  1.7581 -0.4142
 5712SOL     OW32555   1.682   1.146   3.273 -0.1314 -0.1931  0.3376
 5712SOL    HW132556   1.623   1.218   3.251  1.5092  0.9074 -0.5237
 5712SOL    HW232557   1.635   1.067   3.244 -0.2065  0.8192 -2.4501
 5713SOL     OW32558   1.319   0.652  11.293  0.3844  0.2185  0.0051
 5713SOL    HW132559   1.412   0.672  11.283  0.3616  0.4644  0.2738
 5713SOL    HW232560   1.317   0.559  11.317  0.5585  0.2030 -0.0401
 5714SOL     OW32561   1.315   3.192   8.146 -0.7437 -0.0588  0.2341
 5714SOL    HW132562   1.393   3.161   8.100  0.2028 -0.0033  1.7405
 5714SOL    HW232563   1.256   3.223   8.078  0.6630  0.1259 -0.9000
 5715SOL     OW32564   1.803   2.662  11.815  0.0605 -0.1109 -0.7927
 5715SOL    HW132565   1.751   2.581  11.808  3.0931 -2.4013  1.5343
 5715SOL    HW232566   1.881   2.645  11.763  0.4211  1.6429 -0.8553
 5716SOL     OW32567   4.691   3.906  10.509 -0.1480  0.5320 -0.1432
 5716SOL    HW132568   4.773   3.898  10.460 -0.8364 -0.1856 -1.2070
 5716SOL    HW232569   4.628   3.854  10.458 -1.4160  1.6084  0.3153
 5717SOL     OW32570   5.218   2.281  10.404 -0.0075 -0.0224  0.0732
 5717SOL    HW132571   5.196   2.366  10.441 -1.5051 -0.2108 -0.3627
 5717SOL    HW232572   5.252   2.230  10.478 -0.4019  0.4982  0.6124
 5718SOL     OW32573   4.467   2.506   3.017 -0.2818  0.0157 -0.4437
 5718SOL    HW132574   4.397   2.483   2.956 -1.6345 -1.1817  1.4956
 5718SOL    HW232575   4.514   2.424   3.031  1.6968  0.8561 -1.8945
 5719SOL     OW32576   4.625   2.434   9.234 -0.5767  0.4217 -0.4753
 5719SOL    HW132577   4.656   2.500   9.173  0.2752  0.4656 -0.0049
 5719SOL    HW232578   4.571   2.482   9.297  1.8693  1.0664  1.1864
 5720SOL     OW32579   4.463   2.761  12.105  0.4002 -0.0223 -0.1031
 5720SOL    HW132580   4.495   2.768  12.195 -3.2532 -1.8937  1.4395
 5720SOL    HW232581   4.427   2.847  12.085 -0.8792 -0.2495  1.1355
 5721SOL     OW32582   0.553   1.537   2.032 -0.5053 -0.3659  0.6681
 5721SOL    HW132583   0.495   1.566   2.103 -0.0807 -0.7860  1.1824
 5721SOL    HW232584   0.637   1.577   2.051 -1.0793  1.8350 -1.1136
 5722SOL     OW32585   1.519   4.837   1.373  0.7311 -0.0318 -0.2105
 5722SOL    HW132586   1.509   4.891   1.451 -0.4203 -2.8022  1.6227
 5722SOL    HW232587   1.454   4.872   1.311  1.9597  2.4528 -0.1386
 5723SOL     OW32588   1.908   4.032   8.169  0.0689 -0.4289  0.3248
 5723SOL    HW132589   1.822   4.073   8.171  0.1885 -0.0175 -1.8624
 5723SOL    HW232590   1.895   3.951   8.119  1.1497  0.1579 -0.9351
 5724SOL     OW32591   0.885   3.065   9.868  0.6210  0.7678 -0.2553
 5724SOL    HW132592   0.908   3.073   9.960 -1.2216  0.7569  0.2074
 5724SOL    HW232593   0.906   3.150   9.830  3.3624  0.1385 -0.3047
 5725SOL     OW32594   2.005   4.131   1.797 -0.4862  0.0805 -0.4570
 5725SOL    HW132595   1.994   4.094   1.709 -0.2703  0.2531 -0.5572
 5725SOL    HW232596   1.949   4.208   1.798 -0.6193 -0.0170 -0.3866
 5726SOL     OW32597   3.106   2.275  10.021  0.0449 -0.7819 -0.3814
 5726SOL    HW132598   3.069   2.357  10.052  0.5458  0.6212 -3.3606
 5726SOL    HW232599   3.198   2.278  10.048 -0.3227 -1.1881  1.0002
 5727SOL     OW32600   1.649   3.133   9.889  0.0642 -0.0053 -0.4157
 5727SOL    HW132601   1.591   3.089   9.952 -1.9530 -0.1070 -2.3108
 5727SOL    HW232602   1.687   3.205   9.939  1.0014 -1.9734  1.8452
 5728SOL     OW32603   3.828   5.617   8.129 -0.0373 -0.0793 -0.8743
 5728SOL    HW132604   3.773   5.549   8.168  0.1081  0.3394  0.0583
 5728SOL    HW232605   3.771   5.659   8.064 -1.6111  1.9512  1.7565
 5729SOL     OW32606   3.140   1.064  11.779 -0.4564  0.5783 -0.1279
 5729SOL    HW132607   3.104   0.988  11.732 -0.2879  0.8763 -0.7511
 5729SOL    HW232608   3.235   1.054  11.773 -0.4343  0.5804  0.2113
 5730SOL     OW32609   2.488   2.099   8.363  0.9080  0.2745  0.4900
 5730SOL    HW132610   2.554   2.167   8.366 -1.4778  2.7064 -0.0109
 5730SOL    HW232611   2.405   2.146   8.352 -0.8833 -2.6674  0.7286
 5731SOL     OW32612   0.453   5.452   2.781 -0.1904  0.5059  0.0481
 5731SOL    HW132613   0.518   5.435   2.713  1.2578  0.9028  1.2806
 5731SOL    HW232614   0.466   5.382   2.845 -1.0109  0.5623  0.2888
 5732SOL     OW32615   0.072   1.152   8.134  0.0195 -0.3192 -0.4934
 5732SOL    HW132616   0.145   1.212   8.147 -0.0229 -0.1050 -1.2378
 5732SOL    HW232617   0.035   1.140   8.222  0.8172 -0.2714 -0.1481
 5733SOL     OW32618   4.351   5.194  11.920 -0.0365 -0.2073 -0.0550
 5733SOL    HW132619   4.307   5.216  11.837  1.6085 -0.4273 -1.0109
 5733SOL    HW232620   4.413   5.266  11.933  0.3718 -0.6569  0.4869
 5734SOL     OW32621   0.880   0.599   3.458  0.2813 -0.2137 -0.2851
 5734SOL    HW132622   0.893   0.520   3.407 -0.4610 -1.0604  0.8310
 5734SOL    HW232623   0.786   0.617   3.452  0.1027 -0.6304  1.2364
 5735SOL     OW32624   1.979   4.039   3.004 -0.1023  0.3602 -0.2560
 5735SOL    HW132625   2.028   4.107   2.958 -0.2478 -0.6109 -1.8959
 5735SOL    HW232626   1.891   4.044   2.969 -0.5342  0.3868  0.8028
 5736SOL     OW32627   4.178   3.377  10.428 -0.3407  0.2211 -0.6175
 5736SOL    HW132628   4.237   3.418  10.490 -1.3089  1.3975 -0.4537
 5736SOL    HW232629   4.171   3.286  10.457  0.0642  0.5015  0.3476
 5737SOL     OW32630   2.400   2.160   0.165 -0.2193  0.0618  0.4351
 5737SOL    HW132631   2.355   2.238   0.132  0.0055 -0.6703 -1.7146
 5737SOL    HW232632   2.358   2.087   0.119  1.4907 -0.8268  0.2318
 5738SOL     OW32633   5.380   3.786  10.040 -0.1472  0.5205  0.3809
 5738SOL    HW132634   5.432   3.866  10.034 -0.9883  1.0731  0.3741
 5738SOL    HW232635   5.384   3.762  10.133  0.3144  0.4190  0.3413
 5739SOL     OW32636   2.370   2.045   8.721  0.4012  0.2341 -0.3572
 5739SOL    HW132637   2.281   2.011   8.725  1.2273 -1.9632 -0.2254
 5739SOL    HW232638   2.404   2.015   8.637  0.9189  1.3609 -0.5726
 5740SOL     OW32639   2.063   4.298   2.251 -0.5185 -0.1174 -0.4766
 5740SOL    HW132640   2.088   4.334   2.336  1.2034  0.8971 -1.3665
 5740SOL    HW232641   1.971   4.323   2.240 -0.3197  1.0569  0.4329
 5741SOL     OW32642   3.249   4.428   8.126  0.2285  0.0880  0.1703
 5741SOL    HW132643   3.326   4.482   8.143  1.9063 -1.8949 -0.9769
 5741SOL    HW232644   3.239   4.429   8.031 -0.6155 -0.4113  0.2530
 5742SOL     OW32645   5.568   5.468  10.431  0.5119 -0.1871  0.1995
 5742SOL    HW132646   5.647   5.427  10.466  0.0470 -0.4377  0.9716
 5742SOL    HW232647   5.583   5.475  10.337  1.1860 -0.8216  0.2635
 5743SOL     OW32648   0.289   0.608   4.458  0.0782  0.2145  0.5392
 5743SOL    HW132649   0.283   0.571   4.369 -0.6840  1.3895  0.0960
 5743SOL    HW232650   0.380   0.635   4.467  0.4150 -0.8871  0.5144
 5744SOL     OW32651   0.222   5.325  12.221  0.8759 -0.4145 -0.1277
 5744SOL    HW132652   0.265   5.342  12.137 -0.4261  2.0590 -0.3337
 5744SOL    HW232653   0.164   5.251  12.203 -0.6320  1.1345 -1.8988
 5745SOL     OW32654   3.507   0.841   0.187  0.4590  0.3185 -0.3182
 5745SOL    HW132655   3.459   0.831   0.270  1.3337 -0.8615  0.0547
 5745SOL    HW232656   3.559   0.920   0.199  0.1196  0.4951  0.0212
 5746SOL     OW32657   4.070   4.205  11.708  0.6958  0.0185  0.0812
 5746SOL    HW132658   4.104   4.118  11.731 -0.3096 -1.1056 -2.4967
 5746SOL    HW232659   4.029   4.193  11.622 -0.4900  2.7944  0.1995
 5747SOL     OW32660   4.071   2.471   2.107 -0.3654 -0.2756  0.0606
 5747SOL    HW132661   4.137   2.490   2.173 -1.3936  0.6874  0.8150
 5747SOL    HW232662   4.108   2.398   2.057  0.8339 -0.3798  1.0817
 5748SOL     OW32663   2.691   5.694   2.847  0.7931 -0.7656 -0.5633
 5748SOL    HW132664   2.628   5.628   2.819  2.0632 -1.7766 -1.0653
 5748SOL    HW232665   2.650   5.777   2.821  0.2266 -1.4724 -2.0100
 5749SOL     OW32666   5.861   3.863   0.407  0.2162 -0.4916  0.2140
 5749SOL    HW132667   5.945   3.825   0.383  0.6571  0.2815  0.5132
 5749SOL    HW232668   5.796   3.811   0.359  0.9232 -0.4695 -0.7792
 5750SOL     OW32669   3.426   5.478   9.544  0.5020  0.6867 -0.2413
 5750SOL    HW132670   3.486   5.434   9.485  1.8300  1.8825  0.1900
 5750SOL    HW232671   3.420   5.568   9.511 -0.2124  0.8586  0.3338
 5751SOL     OW32672   5.885   0.811   3.739 -0.5691 -0.2759  0.5579
 5751SOL    HW132673   5.868   0.836   3.830  0.9409  1.7733  0.3147
 5751SOL    HW232674   5.844   0.880   3.687 -0.2883 -0.7344 -0.2930
 5752SOL     OW32675   3.704   0.176   8.333  0.0336 -0.7666 -0.1623
 5752SOL    HW132676   3.794   0.191   8.303  0.1810  2.3551  1.6249
 5752SOL    HW232677   3.650   0.214   8.264  0.1938  0.5008  0.4000
 5753SOL     OW32678   4.655   2.733   9.959 -0.0410  0.8437  0.1402
 5753SOL    HW132679   4.675   2.815   9.913  1.7468  0.5909  0.4501
 5753SOL    HW232680   4.676   2.751  10.050 -2.3983  0.9336  0.7093
 5754SOL     OW32681   5.662   1.552   9.438 -0.4482  0.2696 -0.1829
 5754SOL    HW132682   5.664   1.481   9.501  2.4666 -1.1509 -1.7725
 5754SOL    HW232683   5.742   1.602   9.455  2.4108 -2.2878 -4.9872
 5755SOL     OW32684   0.739   1.184   0.698 -0.0415  0.3531 -0.2647
 5755SOL    HW132685   0.688   1.222   0.769 -0.1387  0.3988 -0.3579
 5755SOL    HW232686   0.686   1.199   0.619 -0.3235 -0.4294 -0.2310
 5756SOL     OW32687   5.080   1.909   9.905 -0.0618  0.0253  0.0687
 5756SOL    HW132688   5.053   1.830   9.857  1.3976  0.0847 -0.9033
 5756SOL    HW232689   4.998   1.946   9.937 -1.0354 -0.4509 -1.7404
 5757SOL     OW32690   0.549   3.422  10.678 -0.2688 -0.0706  0.5431
 5757SOL    HW132691   0.474   3.433  10.736 -0.4586 -0.1212  0.3105
 5757SOL    HW232692   0.625   3.422  10.736 -0.4568 -0.1096  0.7887
 5758SOL     OW32693   2.895   3.869  11.586  0.0930  0.7779 -0.4067
 5758SOL    HW132694   2.979   3.860  11.631  0.6920  1.5109 -1.3621
 5758SOL    HW232695   2.832   3.828  11.645  1.2981 -0.9373 -0.2596
 5759SOL     OW32696   0.245   0.510  12.454 -0.6201  0.1709 -0.6179
 5759SOL    HW132697   0.304   0.574  12.493 -2.5357  0.9959  0.9784
 5759SOL    HW232698   0.165   0.559  12.435 -0.7311 -0.8613 -3.0256
 5760SOL     OW32699   2.301   3.909   9.623  0.0089  0.0838  0.1173
 5760SOL    HW132700   2.249   3.862   9.689  2.3890 -2.6394  0.1447
 5760SOL    HW232701   2.236   3.953   9.568 -2.2811 -2.0861  0.9895
 5761SOL     OW32702   5.914   0.179   8.702 -0.1549 -0.0188 -0.8274
 5761SOL    HW132703   5.980   0.119   8.667  1.8436  0.2463  2.2577
 5761SOL    HW232704   5.876   0.131   8.775 -0.2749  1.5073  0.1268
 5762SOL     OW32705   1.721   5.000  11.069 -0.3294 -0.8705 -0.0515
 5762SOL    HW132706   1.802   4.999  11.019 -0.3797  0.1917 -0.1819
 5762SOL    HW232707   1.656   4.961  11.011  0.0124 -1.3894 -0.0848
 5763SOL     OW32708   0.920   4.655   0.516 -0.2483 -0.2553  0.0147
 5763SOL    HW132709   0.908   4.677   0.608 -0.7929 -2.8566  0.5928
 5763SOL    HW232710   0.992   4.592   0.516  2.8772  3.0774 -1.8298
 5764SOL     OW32711   3.593   0.939   9.871  0.4881  0.0709  0.7648
 5764SOL    HW132712   3.608   0.856   9.825  1.6556  1.0402 -0.6495
 5764SOL    HW232713   3.559   0.913   9.957 -0.0052 -1.8420  0.0236
 5765SOL     OW32714   1.335   5.093   2.365  0.2888  0.3454  0.3102
 5765SOL    HW132715   1.263   5.146   2.399  0.9069  1.1547  0.3770
 5765SOL    HW232716   1.296   5.008   2.348 -0.4076  0.4224  1.4847
 5766SOL     OW32717   4.051  -0.016  10.564  0.1578  0.9696 -0.5938
 5766SOL    HW132718   4.067   0.079  10.561  1.2589  0.8367  0.8359
 5766SOL    HW232719   4.035  -0.040  10.473 -2.4204  2.9073 -0.7392
 5767SOL     OW32720   2.390   3.680   2.226  0.4279 -0.2520 -0.1569
 5767SOL    HW132721   2.391   3.584   2.224  0.0595 -0.2612  0.0855
 5767SOL    HW232722   2.332   3.704   2.153 -0.2641 -0.2346  0.3952
 5768SOL     OW32723   1.894   3.434   1.214  0.2279 -0.4468 -0.0197
 5768SOL    HW132724   1.845   3.375   1.272 -0.6386 -0.2670 -0.5608
 5768SOL    HW232725   1.977   3.448   1.259 -0.4930 -0.1992  1.2685
 5769SOL     OW32726   4.603   5.331  12.119 -0.2020  0.2223  0.3898
 5769SOL    HW132727   4.613   5.240  12.090  0.0629  0.8958 -1.7549
 5769SOL    HW232728   4.675   5.378  12.078  1.7450  0.8377  4.2945
 5770SOL     OW32729   0.219   1.731   0.768 -0.0546 -0.0522  0.0396
 5770SOL    HW132730   0.306   1.754   0.802 -0.4147 -1.4874  2.0071
 5770SOL    HW232731   0.181   1.815   0.742  2.4375  0.4740 -2.2102
 5771SOL     OW32732   4.473   5.774  10.926 -0.0002  0.6116  0.0378
 5771SOL    HW132733   4.496   5.838  10.859 -0.8917  1.5280  0.5949
 5771SOL    HW232734   4.543   5.781  10.991 -0.5565  1.6608  0.5380
 5772SOL     OW32735   0.847   0.357   0.051  1.2139  0.5028  0.2008
 5772SOL    HW132736   0.852   0.393  -0.038  0.1991  0.8833  0.2900
 5772SOL    HW232737   0.938   0.355   0.081  1.4405  1.5271 -0.3905
 5773SOL     OW32738   2.923   2.821   9.742  0.6034 -0.3340  0.1524
 5773SOL    HW132739   2.892   2.820   9.652  2.0339  0.0693 -0.3558
 5773SOL    HW232740   2.906   2.732   9.774  0.5384 -0.6244 -0.6702
 5774SOL     OW32741   1.833   3.972   9.072  0.3375  0.5821  0.0094
 5774SOL    HW132742   1.853   3.990   9.164 -0.6926  0.4842  0.2616
 5774SOL    HW232743   1.741   3.945   9.073 -0.0070  1.6700 -1.2015
 5775SOL     OW32744   4.240   0.860   0.237 -0.3676 -0.5578  0.2237
 5775SOL    HW132745   4.176   0.875   0.308 -1.4267 -1.5072 -0.5158
 5775SOL    HW232746   4.280   0.776   0.259  1.8056  0.7488  1.5340
 5776SOL     OW32747   1.806   1.344   9.105 -0.1915  0.2362  0.0177
 5776SOL    HW132748   1.772   1.434   9.099 -1.4263 -0.1417  1.3026
 5776SOL    HW232749   1.807   1.325   9.198  0.6438 -0.8844 -0.2156
 5777SOL     OW32750   5.223   3.970  11.384  0.0389  0.0349  0.8456
 5777SOL    HW132751   5.199   3.925  11.465  1.7799  0.4091  1.6025
 5777SOL    HW232752   5.173   4.052  11.386  1.7711  1.0821  2.6786
 5778SOL     OW32753   5.572   2.392  10.485 -0.1468  0.1116  0.0380
 5778SOL    HW132754   5.660   2.353  10.482 -0.3433 -0.4753  1.4398
 5778SOL    HW232755   5.513   2.319  10.470 -0.3803  0.7237 -2.2010
 5779SOL     OW32756   5.690   0.250   1.099 -0.0657 -0.2558  0.6920
 5779SOL    HW132757   5.750   0.244   1.174  0.1800  1.8999  0.6859
 5779SOL    HW232758   5.734   0.200   1.030  1.7937  1.3874  0.6496
 5780SOL     OW32759   1.279   3.479   9.461  0.0015 -0.1187  0.2635
 5780SOL    HW132760   1.248   3.530   9.536  0.1737 -0.1421  0.3497
 5780SOL    HW232761   1.367   3.451   9.485 -0.1001 -0.4798  0.2292
 5781SOL     OW32762   0.098   1.509   2.527 -0.3932  0.1633 -0.6216
 5781SOL    HW132763   0.042   1.574   2.569 -0.5088 -0.7444  0.6297
 5781SOL    HW232764   0.061   1.498   2.440 -0.2947  1.8727 -0.9096
 5782SOL     OW32765   2.696   0.103  11.858  0.2192 -0.4548  0.0882
 5782SOL    HW132766   2.678   0.075  11.948  2.0002 -1.0745  0.2581
 5782SOL    HW232767   2.651   0.038  11.803 -0.6341 -0.2345  0.5117
 5783SOL     OW32768   5.702   3.135   8.442  0.4435 -0.4083 -0.6207
 5783SOL    HW132769   5.720   3.180   8.359  0.7214 -0.4223 -0.5681
 5783SOL    HW232770   5.787   3.102   8.470  0.3761 -0.2509 -0.2393
 5784SOL     OW32771   3.569   1.536   8.229 -0.0597 -0.1381 -0.0280
 5784SOL    HW132772   3.604   1.560   8.143  2.3838  0.1181  0.9810
 5784SOL    HW232773   3.557   1.620   8.274 -2.1374 -0.2206 -0.3959
 5785SOL     OW32774   4.436   2.545  10.150  0.1278 -0.4036 -0.2052
 5785SOL    HW132775   4.426   2.533  10.244 -1.0464 -0.6584 -0.3583
 5785SOL    HW232776   4.351   2.577  10.120  1.1921  1.8960 -0.8310
 5786SOL     OW32777   4.546   2.395   9.944 -1.1807  0.2457  0.1754
 5786SOL    HW132778   4.549   2.470  10.003 -1.6150 -0.0253  0.5412
 5786SOL    HW232779   4.452   2.380   9.930 -1.0866  0.0616 -0.2707
 5787SOL     OW32780   4.013   5.646  11.741 -0.0886  0.0587 -0.3746
 5787SOL    HW132781   3.919   5.645  11.723 -0.3395 -1.2857  0.9255
 5787SOL    HW232782   4.053   5.618  11.658 -0.7863  1.2340 -1.1200
 5788SOL     OW32783   4.174   5.216   7.955 -0.9237 -0.2210 -0.1020
 5788SOL    HW132784   4.095   5.254   7.916 -0.4462  0.2580 -0.6107
 5788SOL    HW232785   4.201   5.148   7.894 -1.4283 -0.9699  0.5031
 5789SOL     OW32786   1.707   2.346  10.892  0.2821  0.1443  0.5411
 5789SOL    HW132787   1.628   2.383  10.932  0.6744  0.6157  0.8952
 5789SOL    HW232788   1.777   2.368  10.954  0.1134 -3.6297  2.2003
 5790SOL     OW32789   5.564   3.770   3.386  0.0854 -0.1236  0.1935
 5790SOL    HW132790   5.658   3.762   3.377  0.1605  0.2645  0.6086
 5790SOL    HW232791   5.550   3.786   3.479 -0.4852 -1.4809  0.3452
 5791SOL     OW32792   0.572   5.760   8.779  0.1863 -0.2717  0.4002
 5791SOL    HW132793   0.601   5.844   8.813  0.5129 -0.1540 -0.1628
 5791SOL    HW232794   0.485   5.748   8.818  0.7063 -0.3287  1.5852
 5792SOL     OW32795   1.138   2.042   0.132 -0.1601 -0.1872  0.1242
 5792SOL    HW132796   1.226   2.013   0.156  0.1154  0.0215 -0.6216
 5792SOL    HW232797   1.104   1.972   0.077 -0.7632 -0.6315  1.0472
 5793SOL     OW32798   5.096   1.023  12.477  0.2034  0.1306 -0.5330
 5793SOL    HW132799   5.026   0.971  12.438 -0.4647  1.9584 -1.8660
 5793SOL    HW232800   5.133   1.072  12.403  1.1267  1.1732  0.5971
 5794SOL     OW32801   2.248   5.183   9.613 -0.4152 -0.3866 -0.0285
 5794SOL    HW132802   2.299   5.233   9.549 -2.4450  1.4848 -0.2528
 5794SOL    HW232803   2.302   5.182   9.692  0.3723  0.7784 -0.5411
 5795SOL     OW32804   0.797   0.968   0.099  0.4367  0.1557  0.0843
 5795SOL    HW132805   0.794   0.995   0.191 -1.3615 -0.1164  0.1224
 5795SOL    HW232806   0.846   1.038   0.055  1.1000  0.4004  1.2126
 5796SOL     OW32807   5.284   4.614  10.106 -0.2010  0.0367  0.1213
 5796SOL    HW132808   5.226   4.542  10.082  0.2772 -0.2780 -0.1189
 5796SOL    HW232809   5.285   4.672  10.030 -0.7303  0.3888  0.3824
 5797SOL     OW32810   0.497   5.434  12.160 -0.1617 -0.0417 -0.0414
 5797SOL    HW132811   0.491   5.366  12.227 -0.9963  0.1808  0.1173
 5797SOL    HW232812   0.552   5.396  12.092 -0.4843 -0.8117  0.1213
 5798SOL     OW32813   4.631   5.530   3.373 -0.1123  0.4683  0.1901
 5798SOL    HW132814   4.628   5.460   3.307  2.3642  0.7588 -0.2695
 5798SOL    HW232815   4.550   5.518   3.424 -0.4358 -1.8199 -0.7962
 5799SOL     OW32816   4.034   2.195  12.061 -0.8606 -0.2156  0.5357
 5799SOL    HW132817   4.054   2.213  11.969 -2.4676 -0.2970  0.1531
 5799SOL    HW232818   4.004   2.104  12.062 -0.8911 -0.2030  1.1303
 5800SOL     OW32819   4.059   4.486   3.660 -0.4848  0.7725 -0.0802
 5800SOL    HW132820   4.137   4.457   3.613 -0.7245  1.0647 -0.6641
 5800SOL    HW232821   4.053   4.579   3.641 -0.5155  0.9208  0.6378
 5801SOL     OW32822   1.878   5.339  11.958  0.1999 -0.0522  0.0254
 5801SOL    HW132823   1.795   5.305  11.991 -0.4932  0.7608 -0.8355
 5801SOL    HW232824   1.945   5.290  12.005 -0.7724 -1.5239 -0.0925
 5802SOL     OW32825   3.503   4.569   9.763 -0.1662 -0.0922  0.4966
 5802SOL    HW132826   3.434   4.530   9.816 -0.6920 -2.3078 -1.6799
 5802SOL    HW232827   3.572   4.592   9.825 -0.0891 -4.0402  2.0369
 5803SOL     OW32828   2.779   1.591   2.984 -0.1949 -0.1774  0.1664
 5803SOL    HW132829   2.702   1.619   2.936 -0.0701 -0.8393 -0.4179
 5803SOL    HW232830   2.814   1.672   3.022  0.5324  0.5784 -2.0414
 5804SOL     OW32831   4.472   5.417   8.663 -0.5909  0.2686  0.1848
 5804SOL    HW132832   4.419   5.450   8.590 -0.4204  2.6974  1.0969
 5804SOL    HW232833   4.562   5.437   8.638 -0.2935 -1.5166 -0.2113
 5805SOL     OW32834   4.860   1.286   0.316  0.5397 -0.5898  0.1182
 5805SOL    HW132835   4.815   1.358   0.272  0.1187 -0.1893  1.1945
 5805SOL    HW232836   4.851   1.305   0.409 -0.3954 -2.5314  0.4496
 5806SOL     OW32837   3.054   3.491  10.039 -0.2955  0.8801 -0.1010
 5806SOL    HW132838   3.071   3.582  10.062 -1.3428  0.7174  1.3554
 5806SOL    HW232839   3.000   3.496   9.960  1.9416  1.4551 -1.6653
 5807SOL     OW32840   2.790   3.898   8.234 -0.7092 -0.1388  0.0379
 5807SOL    HW132841   2.705   3.855   8.216 -1.1676  0.4253  0.8453
 5807SOL    HW232842   2.804   3.955   8.158 -1.0764 -0.1947 -0.0763
 5808SOL     OW32843   2.849   0.452   2.743  0.2457  0.6869 -0.6433
 5808SOL    HW132844   2.889   0.479   2.826 -0.6898  0.5300 -0.1346
 5808SOL    HW232845   2.756   0.470   2.754 -0.3586 -2.2251 -0.4743
 5809SOL     OW32846   4.425   4.785  10.901 -0.1620  0.5177  0.4804
 5809SOL    HW132847   4.443   4.694  10.926  0.2864  0.5639  0.3226
 5809SOL    HW232848   4.503   4.833  10.929 -0.8657  1.0341  1.5672
 5810SOL     OW32849   2.393   4.892   9.108 -0.0723  1.0875  0.0541
 5810SOL    HW132850   2.475   4.851   9.136 -0.0966  0.8580 -0.2140
 5810SOL    HW232851   2.326   4.855   9.167  0.1902  2.1178  1.0124
 5811SOL     OW32852   5.732   0.036   2.762 -0.1700 -0.5094 -0.0269
 5811SOL    HW132853   5.666   0.016   2.696 -0.5495 -0.1290  0.2253
 5811SOL    HW232854   5.737  -0.042   2.816  0.5180 -1.0134 -0.8127
 5812SOL     OW32855   3.365   4.872   1.036  0.0910  0.3020  0.4769
 5812SOL    HW132856   3.346   4.808   0.967  0.3992  1.5655 -0.8112
 5812SOL    HW232857   3.378   4.819   1.115  1.3043 -1.2901 -0.7541
 5813SOL     OW32858   5.687   3.064   1.754  0.3678  0.0320  0.1748
 5813SOL    HW132859   5.700   2.979   1.713  2.8041  0.9702 -1.0612
 5813SOL    HW232860   5.605   3.097   1.717  1.8987  0.3367 -3.1229
 5814SOL     OW32861   3.403   3.376   0.724 -0.4089  0.1024  0.1012
 5814SOL    HW132862   3.460   3.301   0.710 -1.6437 -1.1366  1.5520
 5814SOL    HW232863   3.340   3.372   0.652 -0.3157 -0.0991  0.0305
 5815SOL     OW32864   1.191   2.355  11.778 -0.0633 -0.8227 -0.3169
 5815SOL    HW132865   1.222   2.296  11.847  1.6199 -1.0489 -1.2409
 5815SOL    HW232866   1.170   2.296  11.705  0.6806 -0.3663 -0.9025
 5816SOL     OW32867   5.573   4.016  10.015 -0.2253  0.3078 -0.6103
 5816SOL    HW132868   5.622   4.096   9.997  0.5917 -0.0051  0.1701
 5816SOL    HW232869   5.617   3.977  10.091 -3.3654  1.4409  1.9038
 5817SOL     OW32870   5.428   0.162   2.743 -1.3229 -0.5897 -0.3801
 5817SOL    HW132871   5.341   0.128   2.764 -0.9987 -2.3611 -1.7506
 5817SOL    HW232872   5.475   0.087   2.706  1.5237 -0.2585  2.3508
 5818SOL     OW32873   2.818   2.304   0.306  0.0613  0.1458 -0.2361
 5818SOL    HW132874   2.900   2.337   0.270  0.2310  0.1758  0.1804
 5818SOL    HW232875   2.842   2.265   0.389 -0.0688 -1.4331 -0.9225
 5819SOL     OW32876   1.201   2.402   9.244  0.5815  0.2201  0.1760
 5819SOL    HW132877   1.155   2.328   9.206  1.0815 -0.9377  1.7659
 5819SOL    HW232878   1.222   2.459   9.169  0.9067 -1.6354 -1.1784
 5820SOL     OW32879   2.095   4.320  11.690  0.3834 -0.5405  0.5668
 5820SOL    HW132880   2.013   4.371  11.687 -0.1911 -1.4489  0.6603
 5820SOL    HW232881   2.131   4.338  11.776  0.6826  0.4747  0.2440
 5821SOL     OW32882   5.250   5.244   3.156  0.1572 -0.3213 -0.3977
 5821SOL    HW132883   5.305   5.193   3.095  3.0455  0.5902  1.3371
 5821SOL    HW232884   5.251   5.193   3.237 -0.4851  0.3724  0.0459
 5822SOL     OW32885   5.325   1.399   2.870 -0.0393 -0.1813 -0.1533
 5822SOL    HW132886   5.349   1.445   2.790 -0.9654  0.1547 -0.2432
 5822SOL    HW232887   5.386   1.325   2.874  0.3362  0.0811 -0.9080
 5823SOL     OW32888   4.393   3.688  10.076  0.5530 -0.1651  0.2898
 5823SOL    HW132889   4.308   3.652  10.099 -0.0518  1.1484  0.1736
 5823SOL    HW232890   4.373   3.771  10.032  1.7784 -1.1757 -2.2955
 5824SOL     OW32891   2.712   0.865  11.240 -0.4403  0.4982 -0.6168
 5824SOL    HW132892   2.619   0.859  11.216 -0.8967  0.0039  1.2019
 5824SOL    HW232893   2.742   0.775  11.242 -0.6441  0.4500  1.4653
 5825SOL     OW32894   5.902   5.570   2.325  0.6270 -0.3014  0.3370
 5825SOL    HW132895   5.811   5.592   2.308  0.9428  0.6755 -0.1275
 5825SOL    HW232896   5.933   5.639   2.384  1.4440  0.1518 -0.6090
 5826SOL     OW32897   4.868   3.720   3.451 -0.2026 -0.2745 -0.0132
 5826SOL    HW132898   4.948   3.670   3.470 -2.6886 -3.6215  2.1754
 5826SOL    HW232899   4.842   3.690   3.364 -0.5377 -1.2609  0.4169
 5827SOL     OW32900   4.953   1.445   3.406 -0.3287  0.3534 -0.3035
 5827SOL    HW132901   4.868   1.435   3.449  0.3906  0.1772  1.1097
 5827SOL    HW232902   4.983   1.533   3.432  0.7720 -0.3215  0.7706
 5828SOL     OW32903   3.071   5.206   4.340  0.2018  0.8268  0.3084
 5828SOL    HW132904   3.096   5.160   4.260 -0.4752  0.4465  0.3130
 5828SOL    HW232905   3.108   5.294   4.329  0.7343  0.5573 -0.0957
 5829SOL     OW32906   2.716   5.669   2.456  0.1191  0.0608  0.0389
 5829SOL    HW132907   2.670   5.612   2.518  1.0346 -0.0252  0.6525
 5829SOL    HW232908   2.701   5.757   2.488 -0.4625  0.1053 -0.3422
 5830SOL     OW32909   4.294   5.961   1.646  0.2694  0.4405 -0.7046
 5830SOL    HW132910   4.275   5.951   1.739  0.2151 -0.0766 -0.7694
 5830SOL    HW232911   4.375   5.911   1.633  0.0975  0.2322 -0.9969
 5831SOL     OW32912   2.986   1.249   0.264  0.1193  0.4175 -0.6351
 5831SOL    HW132913   2.997   1.290   0.349 -1.1581 -0.7173  0.1122
 5831SOL    HW232914   2.891   1.246   0.251  0.0589 -3.3121 -0.0872
 5832SOL     OW32915   1.751   4.436  10.581 -0.1337 -0.3556 -0.4051
 5832SOL    HW132916   1.787   4.504  10.639  2.1228  0.1676 -2.3838
 5832SOL    HW232917   1.673   4.477  10.544 -1.6074 -0.6806  2.1714
 5833SOL     OW32918   0.956   4.713  11.258 -0.6684 -0.1226  0.2719
 5833SOL    HW132919   1.005   4.726  11.177  0.0872  0.0783  0.7640
 5833SOL    HW232920   0.905   4.794  11.268 -0.3274  0.0871  0.3061
 5834SOL     OW32921   1.355   4.017   3.358 -0.1225  0.2436 -0.1423
 5834SOL    HW132922   1.262   3.999   3.349  0.0081  0.1012 -1.2745
 5834SOL    HW232923   1.370   4.094   3.302  0.3591  0.5256  0.3644
 5835SOL     OW32924   5.554   0.209   8.829 -0.0713 -0.4700 -0.1212
 5835SOL    HW132925   5.493   0.280   8.810 -0.8700 -0.5200  2.1193
 5835SOL    HW232926   5.501   0.144   8.875  1.6310 -0.5671  1.7476
 5836SOL     OW32927   2.602   2.030   2.544  0.1418  0.1462  0.0825
 5836SOL    HW132928   2.625   1.954   2.598  0.3334 -0.3619 -0.7080
 5836SOL    HW232929   2.669   2.095   2.565  1.1445 -0.6082 -0.7012
 5837SOL     OW32930   0.117   4.103  11.621  0.5877  0.4266  0.7712
 5837SOL    HW132931   0.091   4.015  11.648  1.1016 -0.3439 -1.2089
 5837SOL    HW232932   0.213   4.103  11.630  0.7782  0.1234 -1.1034
 5838SOL     OW32933   5.713   0.576   2.705  0.4619 -0.0057 -0.2378
 5838SOL    HW132934   5.758   0.522   2.640 -1.2777 -0.7901 -0.7887
 5838SOL    HW232935   5.781   0.637   2.735  1.9212 -1.1990 -1.0247
 5839SOL     OW32936   1.901   3.929  10.663 -0.3400 -0.0553  1.0604
 5839SOL    HW132937   1.930   3.856  10.718 -1.3658  0.4101  2.2482
 5839SOL    HW232938   1.866   3.994  10.725  0.2759  1.3202  0.0061
 5840SOL     OW32939   5.455   2.370  10.949 -0.0544  0.3019  0.3028
 5840SOL    HW132940   5.550   2.374  10.957 -0.0701 -0.1502  0.7676
 5840SOL    HW232941   5.424   2.347  11.036 -0.5056 -0.7915 -0.1273
 5841SOL     OW32942   4.903   4.121   9.159  0.6539 -0.7327  0.2156
 5841SOL    HW132943   4.848   4.175   9.217  0.8324  1.1624 -1.3129
 5841SOL    HW232944   4.859   4.036   9.158 -0.8401 -0.0101  1.0248
 5842SOL     OW32945   0.292   2.404  11.331  0.1625  0.6074 -0.0054
 5842SOL    HW132946   0.351   2.461  11.381 -0.6248  0.5765  0.9849
 5842SOL    HW232947   0.277   2.330  11.389  0.6572 -0.3060 -1.0295
 5843SOL     OW32948   4.111   3.982  11.845  0.3531 -0.3525 -0.5302
 5843SOL    HW132949   4.186   3.926  11.826  1.2357  0.9785 -1.0034
 5843SOL    HW232950   4.128   4.015  11.934  0.6538  0.4615 -0.8853
 5844SOL     OW32951   5.347   3.457  10.130 -0.1029 -0.8928 -0.0300
 5844SOL    HW132952   5.406   3.521  10.168 -0.1913 -1.7931  1.6699
 5844SOL    HW232953   5.289   3.432  10.202 -2.8000  0.2168 -1.7151
 5845SOL     OW32954   1.137   0.878  12.242  0.7552 -0.2089 -0.2420
 5845SOL    HW132955   1.208   0.818  12.220  0.7687 -0.3768  0.2635
 5845SOL    HW232956   1.076   0.870  12.168  0.4883 -1.2633  0.0690
 5846SOL     OW32957   2.673   4.377  11.305  0.3726  0.1554 -0.0758
 5846SOL    HW132958   2.633   4.413  11.225 -1.7801 -0.0817  0.8540
 5846SOL    HW232959   2.628   4.421  11.377  0.0876 -1.8543  1.0352
 5847SOL     OW32960   1.277   1.001   8.704 -0.1722 -0.0937 -0.2784
 5847SOL    HW132961   1.254   1.085   8.665  0.2056  0.5048  0.7903
 5847SOL    HW232962   1.213   0.940   8.667  0.4492  0.3656 -2.1818
 5848SOL     OW32963   0.425   0.833   1.308 -0.1004 -0.3316 -0.3501
 5848SOL    HW132964   0.384   0.797   1.229  0.0789 -1.9806  0.2984
 5848SOL    HW232965   0.376   0.794   1.380  1.5950 -1.0611  0.4103
 5849SOL     OW32966   4.482   0.544   8.769  0.1582 -0.2049  0.5435
 5849SOL    HW132967   4.439   0.506   8.692 -1.2327 -1.3518  1.8390
 5849SOL    HW232968   4.557   0.592   8.734 -0.8486 -0.1118 -1.5828
 5850SOL     OW32969   0.876   5.454   8.554  0.6803 -1.1150  0.7336
 5850SOL    HW132970   0.884   5.417   8.466 -0.1690  0.5175 -0.0540
 5850SOL    HW232971   0.903   5.545   8.544  0.9237 -1.0141  2.2451
 5851SOL     OW32972   5.090   3.676   3.047  0.8388  0.0327 -0.2089
 5851SOL    HW132973   5.085   3.586   3.081  1.2103 -0.2586 -0.8881
 5851SOL    HW232974   5.070   3.667   2.954 -4.1071  1.3451  0.5925
 5852SOL     OW32975   1.028   1.835   9.762 -0.0850  0.8194 -0.4039
 5852SOL    HW132976   0.963   1.901   9.785 -0.8389  0.1116 -0.4660
 5852SOL    HW232977   1.112   1.873   9.789 -0.5435  1.6478 -0.1236
 5853SOL     OW32978   5.510   2.417   9.544  0.0970 -0.5240  0.0066
 5853SOL    HW132979   5.537   2.363   9.619  1.4667  1.3272  0.8635
 5853SOL    HW232980   5.507   2.506   9.579 -0.2794  0.2175 -1.9029
 5854SOL     OW32981   0.358   5.827   0.405  0.3535 -0.4004  0.5524
 5854SOL    HW132982   0.356   5.906   0.352 -1.6938 -1.1571 -0.5256
 5854SOL    HW232983   0.450   5.818   0.431  0.9197  1.3523 -0.7716
 5855SOL     OW32984   0.048   1.587   0.569 -0.0346  0.1014  0.6882
 5855SOL    HW132985   0.059   1.493   0.559 -1.3567  0.1304 -1.1594
 5855SOL    HW232986   0.137   1.619   0.588  0.2931 -1.5809  2.1237
 5856SOL     OW32987   0.959   5.802   2.915  0.0612 -0.5442  0.0248
 5856SOL    HW132988   0.985   5.877   2.969 -1.2568 -0.0096 -0.0804
 5856SOL    HW232989   0.952   5.729   2.976 -0.9223 -0.0562  0.4936
 5857SOL     OW32990   4.092   2.054   1.576 -0.0487 -0.1659  0.4699
 5857SOL    HW132991   4.127   1.966   1.566  0.5012  0.1045 -0.0516
 5857SOL    HW232992   4.141   2.107   1.513  0.7647  0.8327  1.8908
 5858SOL     OW32993   5.744   5.323   8.666 -0.5002 -0.2305 -0.6572
 5858SOL    HW132994   5.743   5.418   8.666 -2.4259 -0.2296 -0.8080
 5858SOL    HW232995   5.730   5.298   8.574  1.5947 -0.6743 -0.8820
 5859SOL     OW32996   3.680   1.276  10.386  0.0714  0.0039 -0.1818
 5859SOL    HW132997   3.633   1.344  10.337 -1.3760 -0.4474  0.5612
 5859SOL    HW232998   3.683   1.201  10.327  0.9814  0.4341 -0.7021
 5860SOL     OW32999   3.743   0.748   8.148 -0.0584  0.3022 -0.3596
 5860SOL    HW133000   3.814   0.684   8.144 -0.8596 -0.5931 -0.2717
 5860SOL    HW233001   3.706   0.749   8.059 -0.2445  0.4189 -0.2829
 5861SOL     OW33002   2.839   2.068  11.710  0.7192 -0.0821  0.1591
 5861SOL    HW133003   2.884   1.996  11.667 -0.2255  0.4299 -1.7805
 5861SOL    HW233004   2.781   2.026  11.773  1.1597 -0.9447 -0.0025
 5862SOL     OW33005   3.157   3.961  11.304 -0.8439  0.1083 -0.2087
 5862SOL    HW133006   3.079   4.011  11.332  1.1501  2.7041  0.9528
 5862SOL    HW233007   3.171   3.988  11.213 -2.1536 -1.5322 -0.9192
 5863SOL     OW33008   4.848   3.594   2.495  0.1226  0.1673  0.0650
 5863SOL    HW133009   4.826   3.501   2.500  1.1382 -0.0562  0.6145
 5863SOL    HW233010   4.854   3.622   2.587  2.9974 -0.0239 -0.0112
 5864SOL     OW33011   1.874   5.338   0.192  0.1153  0.2862 -0.0117
 5864SOL    HW133012   1.965   5.310   0.180 -0.0539 -0.3676  0.1445
 5864SOL    HW233013   1.837   5.339   0.104 -0.0018 -0.4484  0.0239
 5865SOL     OW33014   1.796   3.700   3.545  0.0015 -0.3088 -0.3730
 5865SOL    HW133015   1.888   3.677   3.559  0.1662  0.6759  0.1308
 5865SOL    HW233016   1.798   3.765   3.475 -0.3201 -0.3742 -0.4435
 5866SOL     OW33017   3.446   2.144   0.855 -0.1499  0.3931  0.2276
 5866SOL    HW133018   3.379   2.166   0.920 -0.1704  2.2413 -0.3893
 5866SOL    HW233019   3.478   2.229   0.823  1.5855 -0.4731 -0.4130
 5867SOL     OW33020   0.951   1.118  11.552 -0.2881  0.9385  0.7884
 5867SOL    HW133021   0.991   1.204  11.537 -0.7759  0.6439 -2.3499
 5867SOL    HW233022   0.878   1.137  11.613  0.0691  2.6104  0.7373
 5868SOL     OW33023   2.605   1.891   0.771 -0.4013  0.1014  0.4239
 5868SOL    HW133024   2.582   1.959   0.834 -0.2967 -0.8126  1.4542
 5868SOL    HW233025   2.538   1.898   0.703 -2.2223 -0.7657  2.0540
 5869SOL     OW33026   4.264   5.922  10.769 -0.3908 -0.1672 -0.3676
 5869SOL    HW133027   4.282   5.828  10.782 -1.2349 -0.1897  0.7890
 5869SOL    HW233028   4.176   5.924  10.733 -0.5928  0.1986  0.1384
 5870SOL     OW33029   4.086   3.483   1.232  0.5185 -0.6145  0.2434
 5870SOL    HW133030   4.079   3.451   1.322  0.3246  0.7974  0.7303
 5870SOL    HW233031   4.098   3.403   1.180  0.6862 -1.4386  1.5165
 5871SOL     OW33032   3.646   1.875   1.856 -0.1130 -0.4675  0.8662
 5871SOL    HW133033   3.625   1.861   1.764 -0.8340 -0.3025  1.0015
 5871SOL    HW233034   3.649   1.970   1.866  0.1088 -0.4853  0.9816
 5872SOL     OW33035   2.192   4.174   2.036 -0.0900  0.2581  0.0094
 5872SOL    HW133036   2.135   4.157   1.961 -0.7019 -0.2378  0.5740
 5872SOL    HW233037   2.136   4.219   2.099 -0.4367 -1.9490  1.3522
 5873SOL     OW33038   5.585   3.406   8.157  0.2326  0.2450 -0.0396
 5873SOL    HW133039   5.565   3.474   8.221 -0.1990 -0.1712  0.2637
 5873SOL    HW233040   5.661   3.360   8.193 -0.4525 -0.4548  0.5267
 5874SOL     OW33041   2.410   4.215   3.026 -0.3482  0.7186 -0.4218
 5874SOL    HW133042   2.444   4.166   2.952 -0.1741 -1.7016  1.2234
 5874SOL    HW233043   2.342   4.272   2.988  1.2417  1.1295 -2.7438
 5875SOL     OW33044   4.038   0.495   1.512  0.0257 -0.3393  0.2259
 5875SOL    HW133045   4.073   0.407   1.529 -3.8898 -2.1440 -0.4514
 5875SOL    HW233046   4.087   0.526   1.435  3.5682 -0.5607  2.2449
 5876SOL     OW33047   0.979   4.147  10.809 -0.2730  0.0607 -0.7630
 5876SOL    HW133048   0.980   4.213  10.739 -1.7311 -0.1171 -0.9803
 5876SOL    HW233049   0.974   4.197  10.890 -0.9397  0.2306 -0.9072
 5877SOL     OW33050   3.531   1.945  10.565  0.4912  0.4714 -0.0889
 5877SOL    HW133051   3.581   2.004  10.622  1.0514 -0.7446  0.7005
 5877SOL    HW233052   3.447   1.989  10.553  1.0446  1.6207  0.1591
 5878SOL     OW33053   1.663   0.788   0.377  0.2770 -0.3210 -0.0703
 5878SOL    HW133054   1.737   0.831   0.421  0.9146 -1.3103 -0.1591
 5878SOL    HW233055   1.590   0.799   0.438  0.9813 -1.0830  0.9293
 5879SOL     OW33056   4.742   0.905   0.673  0.0406 -0.4226  0.2122
 5879SOL    HW133057   4.688   0.969   0.720  0.7579  0.0065  0.4542
 5879SOL    HW233058   4.828   0.946   0.666 -0.1426 -0.2969 -1.8317
 5880SOL     OW33059   2.105   2.471   8.312  0.7892 -0.1728 -0.2097
 5880SOL    HW133060   2.165   2.411   8.267  0.9128 -0.8593  0.8492
 5880SOL    HW233061   2.072   2.528   8.243  0.7208 -1.4307 -1.2298
 5881SOL     OW33062   2.850   2.318  11.848  0.0971  0.2009  0.1756
 5881SOL    HW133063   2.857   2.404  11.805  1.0288 -0.3869 -0.8814
 5881SOL    HW233064   2.874   2.255  11.779  1.7963 -0.7660  1.6353
 5882SOL     OW33065   3.011   1.862   8.065  0.1155 -0.2552  0.3198
 5882SOL    HW133066   3.009   1.951   8.031 -0.0785 -1.0327 -1.7552
 5882SOL    HW233067   3.098   1.854   8.105  0.0495  0.9284  0.7190
 5883SOL     OW33068   0.631   3.030   3.282  0.1191 -0.5387  0.0897
 5883SOL    HW133069   0.712   2.995   3.244  0.9975 -1.2267  2.5333
 5883SOL    HW233070   0.587   3.072   3.208  1.9653 -1.4837 -1.6108
 5884SOL     OW33071   0.612   5.588   9.601 -0.5076  0.2695  0.0132
 5884SOL    HW133072   0.601   5.652   9.671  0.6641  0.1116  0.3557
 5884SOL    HW233073   0.661   5.516   9.642  1.4094  0.7811 -1.3052
 5885SOL     OW33074   5.811   4.642   3.406  0.5282  0.0699 -0.1690
 5885SOL    HW133075   5.797   4.701   3.480  0.8227 -1.4052  1.1011
 5885SOL    HW233076   5.896   4.668   3.371 -0.5596  2.1569 -1.3221
 5886SOL     OW33077   2.899   5.461   8.945  0.4732  0.4136 -0.0513
 5886SOL    HW133078   2.914   5.431   9.035 -0.4281  1.7247  0.5577
 5886SOL    HW233079   2.840   5.397   8.907  2.0720 -0.9920 -0.2164
 5887SOL     OW33080   3.124   5.922   1.754 -0.0775  0.1351  0.4538
 5887SOL    HW133081   3.181   5.846   1.742 -1.3066 -0.6681 -0.4458
 5887SOL    HW233082   3.131   5.943   1.847  0.3795 -1.0040  0.6779
 5888SOL     OW33083   4.440   0.862   9.289 -0.2350  0.1523 -0.4644
 5888SOL    HW133084   4.438   0.884   9.196  0.4851  1.7450 -0.1261
 5888SOL    HW233085   4.527   0.888   9.318 -0.9238  0.9523  0.9518
 5889SOL     OW33086   0.860   0.230   0.410 -0.4588  0.1915  0.0004
 5889SOL    HW133087   0.803   0.156   0.391 -1.0558  1.1352 -1.9349
 5889SOL    HW233088   0.801   0.305   0.415  0.4629  0.9696 -0.7156
 5890SOL     OW33089   1.509   1.617   1.155 -0.1371  0.6601  0.5620
 5890SOL    HW133090   1.514   1.614   1.251 -0.7302 -0.0292  0.5794
 5890SOL    HW233091   1.487   1.527   1.130 -2.5172  1.3726 -0.0511
 5891SOL     OW33092   1.163   5.013  10.916 -0.7567  0.4843  0.1082
 5891SOL    HW133093   1.162   5.109  10.914  0.7877  0.5708  2.0833
 5891SOL    HW233094   1.104   4.990  10.988  1.4552  0.1093  1.8732
 5892SOL     OW33095   3.274   5.904   9.751  0.0481 -0.2925  0.0114
 5892SOL    HW133096   3.194   5.956   9.753 -0.1198 -0.5327 -0.4228
 5892SOL    HW233097   3.319   5.933   9.671  1.4244  1.3845  1.3464
 5893SOL     OW33098   3.755   5.046   8.802  0.4373  0.0289 -0.3276
 5893SOL    HW133099   3.744   5.088   8.716  0.1802  0.3077 -0.1595
 5893SOL    HW233100   3.688   5.086   8.857 -1.3998 -2.3013 -0.8019
 5894SOL     OW33101   5.386   5.030   1.178 -0.1225 -0.6599 -0.0454
 5894SOL    HW133102   5.430   5.072   1.105  0.6283 -0.7548  0.3380
 5894SOL    HW233103   5.428   5.067   1.256 -0.9682 -0.4929  0.3368
 5895SOL     OW33104   4.563   3.286  12.148  0.6761  0.1876  0.6857
 5895SOL    HW133105   4.582   3.319  12.060 -0.2724 -1.3797 -0.1288
 5895SOL    HW233106   4.644   3.241  12.174  1.4217  1.7504  1.1689
 5896SOL     OW33107   2.743   1.394   3.175 -0.5181 -0.6042 -0.2261
 5896SOL    HW133108   2.693   1.422   3.099 -1.2255  0.6157  0.6562
 5896SOL    HW233109   2.814   1.457   3.182 -0.5064 -0.6542  0.1558
 5897SOL     OW33110   0.743   3.314   3.177  0.6557  0.1649 -1.0868
 5897SOL    HW133111   0.653   3.285   3.157  0.2671  0.7253 -0.1871
 5897SOL    HW233112   0.795   3.234   3.173 -0.0325 -0.3070 -0.7929
 5898SOL     OW33113   2.663   3.769   7.866  0.4385 -0.3799  0.0854
 5898SOL    HW133114   2.728   3.705   7.896 -0.2854 -1.1220  0.0701
 5898SOL    HW233115   2.699   3.853   7.894  0.8503 -0.8775  1.1047
 5899SOL     OW33116   4.598   5.226   0.278  0.1820 -0.2587 -0.2850
 5899SOL    HW133117   4.535   5.171   0.232 -0.0652 -0.2203  0.0012
 5899SOL    HW233118   4.664   5.165   0.311 -0.2334 -0.4237  0.2645
 5900SOL     OW33119   2.923   3.530   9.794 -0.1572  0.0572  0.1237
 5900SOL    HW133120   2.934   3.620   9.765  0.5500  0.0648  0.4122
 5900SOL    HW233121   2.831   3.511   9.778  0.0292  0.3289 -1.3870
 5901SOL     OW33122   3.742   4.341   2.167 -0.2863 -0.0849  0.0402
 5901SOL    HW133123   3.683   4.268   2.186 -0.4720 -0.1955 -0.9526
 5901SOL    HW233124   3.751   4.341   2.072 -1.1004  1.8302 -0.0630
 5902SOL     OW33125   0.030   5.918   0.725  0.0769  0.1333  0.2988
 5902SOL    HW133126   0.111   5.961   0.699  0.6446 -0.1410  1.5628
 5902SOL    HW233127  -0.012   5.893   0.643  1.1400  0.5294 -0.3675
 5903SOL     OW33128   1.201   0.126  12.218 -0.0983  0.5721 -0.6951
 5903SOL    HW133129   1.160   0.061  12.275  0.2003  1.7338  0.8759
 5903SOL    HW233130   1.292   0.099  12.211  0.2411  1.3072  0.7042
 5904SOL     OW33131   4.044   0.459  11.071  0.3597  0.2284  0.0751
 5904SOL    HW133132   4.009   0.461  10.982 -2.6630 -2.0401  1.1302
 5904SOL    HW233133   3.971   0.489  11.126  2.1915  1.6347  1.8196
 5905SOL     OW33134   3.416   5.392   2.501  0.0579 -0.2901  0.4949
 5905SOL    HW133135   3.339   5.399   2.445  0.9506 -1.6812 -0.9430
 5905SOL    HW233136   3.392   5.329   2.568  0.2880 -1.5086 -0.5553
 5906SOL     OW33137   0.192   3.730   0.640  0.0539 -0.1304  0.2642
 5906SOL    HW133138   0.237   3.803   0.683 -0.9713 -0.4770  1.9788
 5906SOL    HW233139   0.225   3.731   0.550  0.5240  2.0574  0.4329
 5907SOL     OW33140   3.798   3.954   0.991  0.1016 -0.2529 -0.1626
 5907SOL    HW133141   3.732   3.944   1.060 -0.2949  1.2377 -0.3134
 5907SOL    HW233142   3.880   3.970   1.038  0.2215 -1.3204  0.0059
 5908SOL     OW33143   0.143   4.779   4.022 -0.0669 -0.2892 -0.1170
 5908SOL    HW133144   0.210   4.781   3.954 -0.1950  0.4916 -0.2231
 5908SOL    HW233145   0.171   4.844   4.085 -1.8282  1.5906 -1.2223
 5909SOL     OW33146   4.998   0.080   2.057 -0.4222 -0.2379 -0.0045
 5909SOL    HW133147   5.082   0.039   2.072 -0.2673  0.1142  0.0978
 5909SOL    HW233148   5.019   0.168   2.024 -0.7474 -1.1223 -2.6595
 5910SOL     OW33149   2.834   1.326   4.182  0.4126 -0.5291 -0.2527
 5910SOL    HW133150   2.927   1.303   4.188  1.0346  2.0232  0.6310
 5910SOL    HW233151   2.790   1.265   4.242  1.6628 -1.0120  0.1840
 5911SOL     OW33152   4.048   4.274   2.700  0.3574  0.1294 -0.4446
 5911SOL    HW133153   4.014   4.205   2.757  0.2004 -1.0333 -1.8967
 5911SOL    HW233154   4.140   4.252   2.689  0.2940  0.0950 -0.9504
 5912SOL     OW33155   4.503   5.400   3.584 -0.2016 -0.0288  0.0962
 5912SOL    HW133156   4.596   5.383   3.598 -0.6831 -2.8006  0.1340
 5912SOL    HW233157   4.480   5.462   3.654  1.6011  0.6991  0.0720
 5913SOL     OW33158   4.001   5.014   1.179  0.1687 -0.0730  0.2113
 5913SOL    HW133159   4.017   5.085   1.117  2.7441  0.1623  1.0833
 5913SOL    HW233160   3.962   4.944   1.126  1.8522  0.3172 -1.6029
 5914SOL     OW33161   4.347   2.331   1.547  0.5250  0.7980 -0.1399
 5914SOL    HW133162   4.395   2.249   1.561 -3.6444 -2.1416 -2.0000
 5914SOL    HW233163   4.320   2.358   1.635  1.5797 -0.0366  0.4548
 5915SOL     OW33164   3.419   3.468  10.218 -0.2198 -0.5358  0.1702
 5915SOL    HW133165   3.497   3.463  10.163 -1.0574 -0.1636 -1.0697
 5915SOL    HW233166   3.429   3.550  10.266  0.6809 -1.0273  0.8336
 5916SOL     OW33167   2.042   1.537   3.001  0.0555  0.7030  0.3173
 5916SOL    HW133168   2.050   1.525   3.096  0.1323  0.1396  0.2392
 5916SOL    HW233169   1.991   1.462   2.971  1.4276 -0.0001 -0.3157
 5917SOL     OW33170   0.608   5.206  10.347  0.1976 -0.0516 -0.2227
 5917SOL    HW133171   0.530   5.260  10.362 -0.0946 -0.6000  0.2719
 5917SOL    HW233172   0.583   5.119  10.380  1.4616  0.0961  1.1460
 5918SOL     OW33173   5.478   3.772  12.253  0.0946 -0.3692 -0.3279
 5918SOL    HW133174   5.502   3.858  12.286  0.3934 -0.9850  1.1160
 5918SOL    HW233175   5.442   3.726  12.329  0.7963 -1.8401 -0.8589
 5919SOL     OW33176   1.380   2.822   1.795 -0.1854 -0.5399 -0.1228
 5919SOL    HW133177   1.323   2.874   1.739 -1.2372  0.9630  2.2266
 5919SOL    HW233178   1.425   2.887   1.850  2.6630 -1.7828 -0.8602
 5920SOL     OW33179   2.714   3.437   8.150 -0.3116 -0.1434 -0.1685
 5920SOL    HW133180   2.765   3.511   8.117 -1.7422  1.9378  2.0598
 5920SOL    HW233181   2.624   3.456   8.122 -0.2658 -2.5925 -2.1116
 5921SOL     OW33182   2.128   3.201   2.604 -0.4107  0.1319 -0.4815
 5921SOL    HW133183   2.090   3.289   2.608 -1.8269 -0.5108  2.2230
 5921SOL    HW233184   2.183   3.196   2.682 -1.7046 -1.9238  0.3421
 5922SOL     OW33185   2.595   2.945   3.863 -0.0016 -0.7034 -0.0830
 5922SOL    HW133186   2.659   2.985   3.805 -0.1125 -2.7706 -1.7123
 5922SOL    HW233187   2.636   2.864   3.892 -1.2966 -1.3478 -0.0085
 5923SOL     OW33188   4.549   5.643   3.025  0.2514 -0.3386 -0.0628
 5923SOL    HW133189   4.611   5.578   2.992  0.2645 -1.1090  1.4245
 5923SOL    HW233190   4.602   5.722   3.039  0.7862 -0.8040  0.6025
 5924SOL     OW33191   5.960   3.500   0.486  0.8434  0.3191 -0.7475
 5924SOL    HW133192   5.873   3.503   0.446 -0.3004 -0.1701  1.5718
 5924SOL    HW233193   5.969   3.585   0.530  0.8383 -0.2333  0.3521
 5925SOL     OW33194   0.218   3.382   3.848 -0.3363 -0.6268 -0.3592
 5925SOL    HW133195   0.205   3.384   3.753  2.0335  3.8020 -0.7231
 5925SOL    HW233196   0.303   3.340   3.860 -1.7359 -3.5042  0.0942
 5926SOL     OW33197   4.541   4.310   0.849 -0.0852 -0.1799 -0.3179
 5926SOL    HW133198   4.509   4.237   0.902  0.5684  0.2942  0.7432
 5926SOL    HW233199   4.461   4.350   0.813 -0.3696 -2.3977 -2.2678
 5927SOL     OW33200   3.550   4.997   2.613  0.3975  0.1676  0.5830
 5927SOL    HW133201   3.593   4.999   2.528 -1.6976  0.5379 -0.5004
 5927SOL    HW233202   3.596   4.928   2.662  1.3977 -0.2608 -0.9430
 5928SOL     OW33203   3.091   4.476   8.333  0.4225  0.5449  0.2802
 5928SOL    HW133204   3.075   4.405   8.394  0.6267  0.9362  0.7936
 5928SOL    HW233205   3.157   4.442   8.272  0.7342  0.4028  0.6989
 5929SOL     OW33206   1.132   1.735   1.150 -0.3933  0.5410  0.1392
 5929SOL    HW133207   1.119   1.717   1.057  2.1745 -1.4729  0.1085
 5929SOL    HW233208   1.214   1.783   1.153 -0.5666  0.7607  1.3470
 5930SOL     OW33209   5.341   4.429   2.957  0.3176  0.2434  0.2699
 5930SOL    HW133210   5.338   4.525   2.955 -1.2094  0.2742  1.9727
 5930SOL    HW233211   5.432   4.408   2.978  0.5688  1.3394  0.3040
 5931SOL     OW33212   1.689   5.285   9.052  0.1700  0.4181 -0.3790
 5931SOL    HW133213   1.599   5.263   9.077  0.8153 -1.1037  0.7112
 5931SOL    HW233214   1.741   5.211   9.083  1.5719  0.3676 -2.6845
 5932SOL     OW33215   4.885   0.727  10.391 -0.0321 -0.0137  0.0059
 5932SOL    HW133216   4.792   0.736  10.371  0.1250  0.3702 -0.5567
 5932SOL    HW233217   4.889   0.730  10.487 -0.4832  1.2506  0.0003
 5933SOL     OW33218   0.333   1.902  10.402  0.1696 -0.3574  0.1426
 5933SOL    HW133219   0.408   1.935  10.353 -0.2222 -2.1618 -1.7084
 5933SOL    HW233220   0.324   1.964  10.475  1.4477  1.7206 -1.3928
 5934SOL     OW33221   2.332   1.534  10.449 -0.1779 -0.2532  0.0973
 5934SOL    HW133222   2.366   1.624  10.449 -0.1794 -0.2493 -0.3160
 5934SOL    HW233223   2.350   1.502  10.361 -0.3324 -0.6017  0.1917
 5935SOL     OW33224   2.089   2.227  10.087 -0.2475 -0.3703 -0.0001
 5935SOL    HW133225   2.093   2.137  10.054  0.2256 -0.3395 -0.0322
 5935SOL    HW233226   2.160   2.232  10.151  0.1866  0.1967 -0.5278
 5936SOL     OW33227   1.488   0.076   9.833 -0.0872 -0.1258 -0.3821
 5936SOL    HW133228   1.467  -0.017   9.840  1.8775 -0.4443  1.6027
 5936SOL    HW233229   1.563   0.079   9.774 -1.0785  0.3610 -1.6451
 5937SOL     OW33230   0.743   2.827  11.505 -0.1795 -0.4958  0.4925
 5937SOL    HW133231   0.665   2.882  11.519  0.2337  0.0632  0.6113
 5937SOL    HW233232   0.762   2.835  11.412 -0.1217 -0.4452  0.5073
 5938SOL     OW33233   5.084   1.220   1.961 -0.0293 -0.1044 -0.3727
 5938SOL    HW133234   5.079   1.149   1.898 -0.7530 -0.4171  0.0278
 5938SOL    HW233235   4.994   1.252   1.969  0.7651  2.9010 -2.8510
 5939SOL     OW33236   5.432   1.678   1.319 -0.7212 -0.0741 -0.2694
 5939SOL    HW133237   5.398   1.720   1.398  0.2854  1.0652 -0.4244
 5939SOL    HW233238   5.435   1.749   1.254  0.1682 -0.5879 -0.7981
 5940SOL     OW33239   0.933   0.145   8.752 -0.1775 -0.3869 -0.4499
 5940SOL    HW133240   0.992   0.216   8.776 -4.0661  2.1588  2.0135
 5940SOL    HW233241   0.898   0.170   8.667  0.7203 -0.9200 -0.9899
 5941SOL     OW33242   0.088   2.766   8.487 -0.1519 -0.1746 -0.0957
 5941SOL    HW133243   0.155   2.754   8.555  0.6644  1.9648 -0.5003
 5941SOL    HW233244   0.097   2.689   8.431  1.1463 -0.5085  0.5561
 5942SOL     OW33245   0.188   5.455   9.200  0.6172  0.2181  0.5350
 5942SOL    HW133246   0.237   5.415   9.272  2.3108  0.2475 -0.5810
 5942SOL    HW233247   0.203   5.549   9.211 -2.9219  0.6265  2.8440
 5943SOL     OW33248   0.831   1.991   8.570 -0.6601 -0.3559 -0.9564
 5943SOL    HW133249   0.889   2.065   8.548  0.8738 -1.4939 -0.8361
 5943SOL    HW233250   0.795   1.963   8.486 -0.7441  0.1193 -1.0829
 5944SOL     OW33251   2.320   3.720   4.059 -0.4565  0.1667  0.1264
 5944SOL    HW133252   2.232   3.713   4.096 -1.2226 -1.5682 -1.9262
 5944SOL    HW233253   2.360   3.635   4.076 -0.3290 -0.1679 -1.7267
 5945SOL     OW33254   3.803   2.357   0.165  0.0093 -0.3114  0.6966
 5945SOL    HW133255   3.870   2.367   0.098  1.5556  0.7608  2.3362
 5945SOL    HW233256   3.783   2.263   0.166 -0.9183 -0.1721 -2.0415
 5946SOL     OW33257   2.552   2.748   9.892 -0.1952  0.4281 -0.0441
 5946SOL    HW133258   2.510   2.739   9.806 -0.5699 -0.6395  0.2498
 5946SOL    HW233259   2.602   2.830   9.885  0.6894 -0.2186 -1.6606
 5947SOL     OW33260   1.684   1.030   9.827 -0.1258 -0.2880 -0.2067
 5947SOL    HW133261   1.713   0.947   9.790 -0.9555 -1.0965  0.9370
 5947SOL    HW233262   1.716   1.029   9.917 -3.1883 -0.9856  0.9538
 5948SOL     OW33263   5.144   5.167   2.502 -0.2277 -0.3783 -0.0288
 5948SOL    HW133264   5.089   5.112   2.558  1.7450 -2.4940 -0.1212
 5948SOL    HW233265   5.206   5.208   2.562 -0.9733  0.8993 -0.1085
 5949SOL     OW33266   1.042   4.851  12.304 -0.1291 -0.2512  0.1944
 5949SOL    HW133267   0.998   4.903  12.236 -2.2147 -0.7031  1.1500
 5949SOL    HW233268   1.009   4.887  12.386  0.4724 -1.3178  0.9087
 5950SOL     OW33269   2.774   3.096   0.820 -0.0391 -0.2593  0.5339
 5950SOL    HW133270   2.726   3.040   0.759  0.1326 -0.6687  0.7708
 5950SOL    HW233271   2.857   3.114   0.775 -0.4988  0.6432  0.0201
 5951SOL     OW33272   0.179   1.345  10.434 -0.1238  0.1049  0.1669
 5951SOL    HW133273   0.198   1.428  10.391 -1.0201 -0.8851 -2.2464
 5951SOL    HW233274   0.086   1.329  10.417  0.1166 -1.5503  0.2889
 5952SOL     OW33275   3.124   4.909   1.340 -0.1513 -0.6746 -0.4632
 5952SOL    HW133276   3.158   4.831   1.296 -1.6284 -0.0843 -2.7004
 5952SOL    HW233277   3.133   4.979   1.276  0.0276  0.7672  1.0944
 5953SOL     OW33278   1.494   2.845   9.581  0.0100  0.5638 -0.1212
 5953SOL    HW133279   1.542   2.927   9.588 -0.1252  0.4615  2.5476
 5953SOL    HW233280   1.437   2.843   9.658 -2.0377 -0.7552 -1.6023
 5954SOL     OW33281   2.574   3.897   9.630  0.6841 -0.3269  0.2823
 5954SOL    HW133282   2.480   3.906   9.647  1.1728  2.1346  1.9416
 5954SOL    HW233283   2.612   3.881   9.717  2.1358  2.0345  0.1141
 5955SOL     OW33284   1.265   2.664   9.424 -0.1172 -0.2359 -0.1654
 5955SOL    HW133285   1.360   2.666   9.410 -0.1075 -1.2016 -0.2552
 5955SOL    HW233286   1.228   2.701   9.344  0.1770  0.1259 -0.1403
 5956SOL     OW33287   0.860   2.819   8.653 -0.6375  0.2919 -0.0300
 5956SOL    HW133288   0.885   2.779   8.569  0.3469  0.7106  0.0547
 5956SOL    HW233289   0.820   2.747   8.702 -1.4067  0.0891 -0.9295
 5957SOL     OW33290   2.514   4.824  12.089  0.1346  0.4246  0.0373
 5957SOL    HW133291   2.421   4.847  12.089 -0.3470 -1.4348 -0.5601
 5957SOL    HW233292   2.515   4.728  12.095  2.0421  0.5010  1.1559
 5958SOL     OW33293   2.110   1.328  12.057 -0.1901 -0.5322  0.1368
 5958SOL    HW133294   2.023   1.366  12.054  0.3243  0.5725 -0.9722
 5958SOL    HW233295   2.159   1.373  11.989  1.2167 -1.2291  0.6587
 5959SOL     OW33296   0.251   4.471   2.965  0.4783  0.3642 -0.4855
 5959SOL    HW133297   0.229   4.378   2.967 -2.7110  1.0730  0.5134
 5959SOL    HW233298   0.251   4.494   2.872  0.0042 -0.3491 -0.6644
 5960SOL     OW33299   3.354   3.824  10.421 -0.2396  0.4101 -0.1277
 5960SOL    HW133300   3.359   3.917  10.395 -2.1804  0.6714  0.3811
 5960SOL    HW233301   3.345   3.826  10.516 -0.1464 -0.3142 -0.1028
 5961SOL     OW33302   3.251   0.382   2.679  0.6438 -0.0747  0.0426
 5961SOL    HW133303   3.202   0.425   2.609 -0.1645 -0.8791  0.1064
 5961SOL    HW233304   3.256   0.291   2.652  0.8625 -0.2681  0.7289
 5962SOL     OW33305   5.413   2.187  10.170  0.3523  0.1867  0.0333
 5962SOL    HW133306   5.368   2.149  10.094 -0.0766  1.2195 -0.2330
 5962SOL    HW233307   5.356   2.258  10.198  0.7715  0.1365  1.0091
 5963SOL     OW33308   5.752   2.175   1.359  0.4370  0.2149  0.2196
 5963SOL    HW133309   5.782   2.249   1.411  0.0328  0.4065  0.1827
 5963SOL    HW233310   5.680   2.137   1.410  1.6167 -1.0684  0.9717
 5964SOL     OW33311   2.777   4.050   0.321 -0.1650  0.0575  0.2291
 5964SOL    HW133312   2.742   3.966   0.290 -1.5757  1.0298 -0.8943
 5964SOL    HW233313   2.717   4.076   0.392  0.5718 -0.1217  0.9258
 5965SOL     OW33314   0.370   0.618  10.144 -0.1115  0.1448  0.0004
 5965SOL    HW133315   0.319   0.697  10.161  0.0101  0.5770 -1.5420
 5965SOL    HW233316   0.457   0.651  10.121  0.1276 -0.4734  0.0032
 5966SOL     OW33317   0.814   1.583   2.949 -0.6917 -0.0521  0.5140
 5966SOL    HW133318   0.745   1.611   2.890  0.5733  0.0574 -0.9509
 5966SOL    HW233319   0.878   1.654   2.947  0.8403 -1.4189 -0.4423
 5967SOL     OW33320   1.600   0.331   0.631 -0.0510 -0.4193 -0.0115
 5967SOL    HW133321   1.509   0.360   0.628  0.3756  1.2556  1.9484
 5967SOL    HW233322   1.650   0.402   0.591  0.8735  1.1646  3.6890
 5968SOL     OW33323   2.098   5.472  12.324  0.0705 -0.8083 -0.2470
 5968SOL    HW133324   2.141   5.491  12.407  1.1619 -1.6019 -0.6247
 5968SOL    HW233325   2.051   5.390  12.339 -0.8924 -0.2170  0.0090
 5969SOL     OW33326   2.491   0.559  10.752 -0.5206 -0.2303  0.4462
 5969SOL    HW133327   2.401   0.589  10.764  0.8297  3.5210  1.6357
 5969SOL    HW233328   2.499   0.545  10.657 -2.6897 -1.9632  0.4627
 5970SOL     OW33329   1.924   0.270  11.373  0.4966  0.2468  0.1880
 5970SOL    HW133330   1.936   0.181  11.339 -1.7408 -0.8412  2.0712
 5970SOL    HW233331   1.877   0.258  11.455 -0.7393  3.2628 -0.0106
 5971SOL     OW33332   4.858   1.072   2.622 -0.1676  0.2239  0.3331
 5971SOL    HW133333   4.949   1.099   2.605 -0.0823 -0.8767 -1.1275
 5971SOL    HW233334   4.842   1.003   2.558 -1.5011 -0.7614  1.7003
 5972SOL     OW33335   4.641   3.390   7.583  0.3785  0.2603  0.1243
 5972SOL    HW133336   4.554   3.361   7.556  0.8604 -1.6590  0.5793
 5972SOL    HW233337   4.651   3.476   7.542 -1.3426  0.0741 -0.7278
 5973SOL     OW33338   2.210   1.144   1.861  0.0490  0.1487 -0.2367
 5973SOL    HW133339   2.219   1.107   1.773  0.5465 -0.7504  0.1921
 5973SOL    HW233340   2.172   1.073   1.913 -0.0735  0.6202  0.3219
 5974SOL     OW33341   2.788   2.307  11.528  0.4042 -0.0779 -0.2846
 5974SOL    HW133342   2.880   2.286  11.540  0.8195  1.8405  0.0170
 5974SOL    HW233343   2.742   2.253  11.594  1.3785 -0.3939  0.1440
 5975SOL     OW33344   0.150   2.153  11.971 -0.6867 -0.2802 -0.0605
 5975SOL    HW133345   0.089   2.175  12.042  1.8995  3.0012  1.3192
 5975SOL    HW233346   0.096   2.150  11.892 -3.0118  0.0241  1.4676
 5976SOL     OW33347   5.820   5.535  12.253  0.4574 -0.1478  0.5628
 5976SOL    HW133348   5.759   5.531  12.327  0.2062 -1.0536  0.3046
 5976SOL    HW233349   5.852   5.445  12.243  0.5382 -0.0184 -0.3903
 5977SOL     OW33350   5.017   5.130  10.930 -0.2078 -0.1881 -0.2727
 5977SOL    HW133351   5.018   5.149  10.836 -0.9328  2.3022  0.1880
 5977SOL    HW233352   5.084   5.187  10.968 -1.0594  0.0401  0.9324
 5978SOL     OW33353   2.137   3.158  11.461  0.3211 -0.3659  0.2233
 5978SOL    HW133354   2.056   3.109  11.469  0.8776 -1.1322  1.3386
 5978SOL    HW233355   2.170   3.165  11.551  2.0394 -1.0099 -0.3286
 5979SOL     OW33356   4.828   4.276   1.482  0.6438  0.1654  0.1319
 5979SOL    HW133357   4.757   4.226   1.441  0.4799  2.0548 -2.0094
 5979SOL    HW233358   4.883   4.209   1.523 -0.6513 -1.6080 -0.9007
 5980SOL     OW33359   0.984   5.424  11.351 -0.5234 -0.0634  0.2908
 5980SOL    HW133360   0.953   5.341  11.315 -0.6846 -0.3288  1.0305
 5980SOL    HW233361   1.015   5.473  11.275  0.6630 -1.2581  0.0005
 5981SOL     OW33362   4.921   2.916  10.313  0.0414  0.1827 -0.8579
 5981SOL    HW133363   4.934   2.821  10.313  0.3253  0.2208  0.2937
 5981SOL    HW233364   4.998   2.951  10.357 -0.2284  0.9306 -0.9679
 5982SOL     OW33365   5.239   5.505   1.430 -0.1594  0.7526 -0.2535
 5982SOL    HW133366   5.245   5.410   1.424  1.1159  0.5719  2.6704
 5982SOL    HW233367   5.305   5.538   1.369  0.7263 -0.2950  0.1273
 5983SOL     OW33368   0.212   0.130   2.895  1.0099  0.0118  0.1816
 5983SOL    HW133369   0.170   0.071   2.957 -0.2877 -0.2082 -0.8746
 5983SOL    HW233370   0.220   0.079   2.815  3.2229  0.0923  0.3053
 5984SOL     OW33371   5.257   2.311   3.182 -0.0156  0.2546  0.2255
 5984SOL    HW133372   5.198   2.338   3.253 -0.4170  0.1539 -0.0643
 5984SOL    HW233373   5.342   2.301   3.224  0.1160  1.8027  0.3856
 5985SOL     OW33374   1.909   1.758   4.286  0.0027 -0.0323  0.1178
 5985SOL    HW133375   1.989   1.764   4.232  0.5948  0.2226  1.0153
 5985SOL    HW233376   1.920   1.677   4.335 -1.4916 -1.3269 -1.6479
 5986SOL     OW33377   0.538   0.933   0.565 -0.2961 -0.6282 -0.3886
 5986SOL    HW133378   0.471   1.000   0.555 -1.4659 -1.6039  0.5937
 5986SOL    HW233379   0.509   0.882   0.641  2.0719 -0.4833  0.6575
 5987SOL     OW33380   2.502   5.296  11.187  0.0674  0.3866 -0.6255
 5987SOL    HW133381   2.449   5.363  11.144 -0.6087 -0.8761 -1.8029
 5987SOL    HW233382   2.563   5.267  11.119 -0.7001 -1.3044 -0.6176
 5988SOL     OW33383   0.796   4.151  11.782 -0.2521 -0.8858  0.3292
 5988SOL    HW133384   0.783   4.066  11.823 -1.3517 -0.0956  1.6906
 5988SOL    HW233385   0.790   4.214  11.855 -0.6438  0.4265 -0.8080
 5989SOL     OW33386   1.008   4.805   2.675 -0.2732  0.3514 -0.6923
 5989SOL    HW133387   1.046   4.791   2.588 -0.6535  2.1951 -1.1575
 5989SOL    HW233388   1.083   4.827   2.731 -0.2010  0.4491 -0.8278
 5990SOL     OW33389   5.864   0.066   8.452 -0.2876  0.0190 -1.1346
 5990SOL    HW133390   5.837   0.081   8.542 -2.2491  0.7027 -1.7942
 5990SOL    HW233391   5.886  -0.027   8.449 -0.3854 -0.0509  0.0059
 5991SOL     OW33392   3.332   1.465  10.691 -0.4397 -0.2056  0.0562
 5991SOL    HW133393   3.341   1.532  10.623 -0.1310 -0.5120 -0.2057
 5991SOL    HW233394   3.415   1.417  10.689 -0.7710 -0.7850  0.0423
 5992SOL     OW33395   2.069   1.008  10.111  0.0049 -0.0697  0.7528
 5992SOL    HW133396   2.127   1.054  10.050 -0.5450  0.2148  0.4306
 5992SOL    HW233397   2.106   1.026  10.197 -0.0794  0.8232  0.6173
 5993SOL     OW33398   4.040   1.899   9.946  0.4253 -0.2474 -0.0763
 5993SOL    HW133399   3.951   1.919   9.917 -0.4723 -1.7455  1.5116
 5993SOL    HW233400   4.073   1.981   9.982 -0.9377 -0.0926  0.8398
 5994SOL     OW33401   2.183   4.993   9.434 -0.1390  0.6600  0.5053
 5994SOL    HW133402   2.253   4.928   9.438  1.0359  1.7803 -1.0214
 5994SOL    HW233403   2.199   5.051   9.509  0.0410  0.4171  0.6563
 5995SOL     OW33404   2.583   1.494   4.169 -0.0961  0.2667  0.1716
 5995SOL    HW133405   2.552   1.514   4.257  1.2579  0.2405  0.6748
 5995SOL    HW233406   2.637   1.416   4.180  0.1126  0.2852 -0.6672
 5996SOL     OW33407   0.105   0.126   9.553  0.2154  0.4759 -0.0027
 5996SOL    HW133408   0.189   0.140   9.510  0.0684 -0.2694 -0.5392
 5996SOL    HW233409   0.114   0.042   9.598 -0.9757 -0.7669 -1.9386
 5997SOL     OW33410   3.155   0.455   3.452 -0.4466 -0.1354 -0.0059
 5997SOL    HW133411   3.165   0.382   3.390  0.7644 -0.3312  0.4022
 5997SOL    HW233412   3.201   0.528   3.411 -0.8829  0.1388 -0.0024
 5998SOL     OW33413   3.910   3.595   3.718 -0.8539  0.2503 -0.5416
 5998SOL    HW133414   3.837   3.537   3.742 -1.0818  0.1734 -1.4040
 5998SOL    HW233415   3.867   3.672   3.680 -0.5437  0.8721  0.3593
 5999SOL     OW33416   2.061   4.361  11.315  0.7485  0.8058  0.7141
 5999SOL    HW133417   2.126   4.424  11.284 -0.2171  2.1871  1.4025
 5999SOL    HW233418   1.992   4.416  11.353  0.7880 -0.7210  3.1003
 6000SOL     OW33419   2.410   5.890   9.716 -0.2243 -0.3585 -0.1861
 6000SOL    HW133420   2.495   5.848   9.727  0.4626  0.3054 -2.7472
 6000SOL    HW233421   2.347   5.820   9.734  0.8948 -1.8791 -1.9737
 6001SOL     OW33422   1.516   1.342   3.212 -0.0038  0.7280  0.1038
 6001SOL    HW133423   1.478   1.412   3.265 -0.5077 -0.1982  0.9607
 6001SOL    HW233424   1.456   1.334   3.137 -0.1195  0.9875  0.1655
 6002SOL     OW33425   1.026   0.011   1.842 -0.3407  0.6906 -0.2509
 6002SOL    HW133426   0.981   0.054   1.769 -0.6642  1.3346  0.3156
 6002SOL    HW233427   1.063   0.084   1.893 -1.6118  0.3418  1.1897
 6003SOL     OW33428   5.557   5.873   2.292  0.7610 -0.0337  0.0093
 6003SOL    HW133429   5.471   5.831   2.285  0.4942  0.2516  1.3407
 6003SOL    HW233430   5.561   5.932   2.217 -2.1389  3.3517  2.3135
 6004SOL     OW33431   4.449   5.723   1.654 -0.0711 -0.0168  0.1125
 6004SOL    HW133432   4.466   5.633   1.684  2.4178 -0.3609 -2.1538
 6004SOL    HW233433   4.515   5.776   1.699  1.5081 -0.0543 -2.0780
 6005SOL     OW33434   1.340   3.745   0.706  0.1708  0.1137 -0.1301
 6005SOL    HW133435   1.273   3.794   0.658  1.0115  0.8452 -0.5758
 6005SOL    HW233436   1.387   3.696   0.639  2.0785  1.9960 -0.2601
 6006SOL     OW33437   0.277   0.248   8.525  0.4580  0.1060  0.2834
 6006SOL    HW133438   0.213   0.299   8.574  0.6709  1.3758 -0.7424
 6006SOL    HW233439   0.339   0.218   8.591 -0.7804 -0.5364  1.1834
 6007SOL     OW33440   0.673   3.876  10.253  1.1100 -0.0143  0.9940
 6007SOL    HW133441   0.703   3.788  10.230  1.9069  0.0351  1.8303
 6007SOL    HW233442   0.647   3.870  10.345 -0.7341  0.1416  0.5015
 6008SOL     OW33443   0.348   0.515   3.664  0.0517 -0.6814 -0.2526
 6008SOL    HW133444   0.394   0.569   3.729 -0.9947 -3.4887  2.9462
 6008SOL    HW233445   0.255   0.528   3.682 -0.3517  0.0961 -2.6225
 6009SOL     OW33446   0.227   0.884   3.711 -0.3536 -0.3468 -0.2776
 6009SOL    HW133447   0.246   0.819   3.644 -1.4896 -0.3863 -0.5819
 6009SOL    HW233448   0.163   0.942   3.671 -1.2844 -0.5536  0.8634
 6010SOL     OW33449   5.706   4.867   1.194 -0.2421 -0.4666 -1.0005
 6010SOL    HW133450   5.755   4.798   1.239  0.3619 -0.0087 -0.9431
 6010SOL    HW233451   5.619   4.864   1.232  0.1655 -0.3141 -0.0516
 6011SOL     OW33452   1.911   5.521   3.020  0.2717  0.0168 -0.0404
 6011SOL    HW133453   1.853   5.561   3.086  0.2106 -0.6517  0.3124
 6011SOL    HW233454   1.979   5.477   3.071 -1.4473 -3.0716 -0.3193
 6012SOL     OW33455   1.899   2.122  10.453  0.2480 -0.9457  0.5454
 6012SOL    HW133456   1.853   2.053  10.404 -0.1528 -0.3335  0.0539
 6012SOL    HW233457   1.985   2.084  10.471  0.0409 -1.5726  0.2600
 6013SOL     OW33458   0.730   2.552   7.951 -0.3603 -0.0653 -0.0350
 6013SOL    HW133459   0.727   2.645   7.973  0.5306  0.2624 -1.2677
 6013SOL    HW233460   0.821   2.526   7.965 -0.6141 -0.7726  0.3543
 6014SOL     OW33461   0.094   4.417  11.205 -0.8455 -0.2488 -0.5896
 6014SOL    HW133462   0.117   4.454  11.120  2.4469 -1.2010 -0.1836
 6014SOL    HW233463   0.053   4.333  11.184 -1.4278  0.2067 -1.2812
 6015SOL     OW33464   0.865   4.673   0.123 -0.0528  0.3594  0.1942
 6015SOL    HW133465   0.775   4.704   0.109  0.1306  0.9800  0.3796
 6015SOL    HW233466   0.918   4.752   0.119  0.4216  0.0654  0.6757
 6016SOL     OW33467   1.701   3.947   2.475 -0.2382  0.3639 -0.1497
 6016SOL    HW133468   1.781   3.993   2.449 -0.3233  0.2589 -0.6035
 6016SOL    HW233469   1.726   3.855   2.481 -0.0257  0.4868  0.9263
 6017SOL     OW33470   4.543   0.755   2.672  0.2550  0.5343 -0.2260
 6017SOL    HW133471   4.583   0.788   2.752  1.4967  0.5069 -0.8158
 6017SOL    HW233472   4.541   0.660   2.683  0.9438  0.4916 -0.4623
 6018SOL     OW33473   5.892   0.006  11.631 -0.1261  0.4955  0.2005
 6018SOL    HW133474   5.957   0.059  11.585 -2.0693  4.3591  1.6844
 6018SOL    HW233475   5.922   0.004  11.722 -0.1788 -0.8720  0.2095
 6019SOL     OW33476   1.938   0.106  12.222  0.4598 -0.0533 -0.2948
 6019SOL    HW133477   1.984   0.181  12.260 -1.0300  0.3224  0.8258
 6019SOL    HW233478   2.006   0.039  12.212  1.4966  0.9068  0.1374
 6020SOL     OW33479   4.181   0.252   1.537  0.4969 -0.2280 -0.1426
 6020SOL    HW133480   4.140   0.221   1.456 -0.6819 -0.6016  0.5796
 6020SOL    HW233481   4.186   0.173   1.592  0.3787  0.2243  0.5171
 6021SOL     OW33482   0.321   5.511   2.244  0.5188  0.1297 -0.0244
 6021SOL    HW133483   0.327   5.580   2.310  0.3988  1.4764 -1.3852
 6021SOL    HW233484   0.394   5.453   2.263  0.7275  0.7262  1.0418
 6022SOL     OW33485   1.448   3.399   3.619 -0.3182  0.2487 -0.0015
 6022SOL    HW133486   1.497   3.320   3.599 -2.2026 -1.1646  0.8272
 6022SOL    HW233487   1.494   3.469   3.573  3.5335 -0.7135  2.2008
 6023SOL     OW33488   2.229   4.811  12.089  0.0080 -0.5893 -0.1557
 6023SOL    HW133489   2.269   4.746  12.148  1.8386  0.8374  0.2442
 6023SOL    HW233490   2.193   4.877  12.148 -0.1109 -0.2616 -0.5971
 6024SOL     OW33491  -0.002   4.224  12.374  0.3676  0.0109 -0.4119
 6024SOL    HW133492   0.005   4.316  12.347 -0.3533  0.0720 -0.4025
 6024SOL    HW233493   0.011   4.175  12.293  2.7545  0.0506 -0.0885
 6025SOL     OW33494   4.755   4.859   2.809 -0.2868 -0.5401 -0.7362
 6025SOL    HW133495   4.768   4.886   2.899  0.7030  0.1250 -1.0807
 6025SOL    HW233496   4.794   4.772   2.804 -1.0712 -0.9244 -0.3237
 6026SOL     OW33497   2.763   5.425  11.730 -0.1918 -0.7529 -0.2143
 6026SOL    HW133498   2.720   5.364  11.790  1.2032 -0.2442  1.3343
 6026SOL    HW233499   2.826   5.472  11.785 -1.3489  2.2049 -1.3239
 6027SOL     OW33500   3.522   0.644   1.943  0.4015  0.0558 -0.4546
 6027SOL    HW133501   3.583   0.593   1.996 -0.3355 -0.7371 -0.3657
 6027SOL    HW233502   3.570   0.724   1.922  1.3173 -0.3772 -0.0354
 6028SOL     OW33503   3.955   5.298   0.313  0.3775 -0.2114 -0.1656
 6028SOL    HW133504   4.005   5.260   0.241 -0.8738  1.2759 -1.8749
 6028SOL    HW233505   4.018   5.352   0.361  1.7501 -2.9360  1.2569
 6029SOL     OW33506   4.161   3.832   3.126 -0.0856 -0.0167  0.1699
 6029SOL    HW133507   4.132   3.742   3.136 -1.8324  0.4653 -0.3561
 6029SOL    HW233508   4.198   3.855   3.211 -0.0680 -1.0580  0.4491
 6030SOL     OW33509   4.556   4.175   1.973  0.3653  0.7080  0.2352
 6030SOL    HW133510   4.597   4.236   2.035  0.9162 -0.0515  0.6267
 6030SOL    HW233511   4.582   4.088   2.004 -0.7699  0.2500 -0.0743
 6031SOL     OW33512   5.824   1.901   1.585  0.5775  0.0370 -0.0819
 6031SOL    HW133513   5.815   1.806   1.577 -0.8862  0.1284  0.1615
 6031SOL    HW233514   5.756   1.936   1.527 -0.2174  0.8894  1.3375
 6032SOL     OW33515   3.924   4.963   3.714  0.3792 -0.3548 -0.1474
 6032SOL    HW133516   3.961   5.047   3.743  0.4589  0.2358 -1.8888
 6032SOL    HW233517   3.829   4.977   3.716  0.3750 -0.4341  0.1938
 6033SOL     OW33518   1.534   1.740   2.333  0.4870 -0.3396 -0.4624
 6033SOL    HW133519   1.547   1.653   2.370 -0.2630 -0.6585 -0.9255
 6033SOL    HW233520   1.619   1.765   2.298  1.2288 -0.0259  1.4630
 6034SOL     OW33521   1.175   4.620   8.600 -0.7623  0.5644  0.3240
 6034SOL    HW133522   1.267   4.618   8.574 -0.3914  1.8441  1.4331
 6034SOL    HW233523   1.147   4.529   8.598  0.1223  0.3118 -1.4264
 6035SOL     OW33524   1.561   3.600   3.459  0.1783  0.6610 -0.2699
 6035SOL    HW133525   1.636   3.651   3.490  0.2953  0.7905 -0.7479
 6035SOL    HW233526   1.486   3.659   3.468  0.0869  0.4421  0.4528
 6036SOL     OW33527   1.283   0.455  11.511 -0.2239 -0.3650 -0.0807
 6036SOL    HW133528   1.205   0.417  11.551 -1.2555 -0.5489 -2.1768
 6036SOL    HW233529   1.300   0.535  11.561 -0.9295 -1.0417  1.2643
 6037SOL     OW33530   5.381   0.798   1.375  1.0828 -0.1455 -0.3568
 6037SOL    HW133531   5.467   0.803   1.419  1.0068  1.9815 -0.3799
 6037SOL    HW233532   5.344   0.886   1.386 -1.9388 -1.5540  1.3277
 6038SOL     OW33533   0.994   1.524  11.453 -0.0692 -0.9420  0.1200
 6038SOL    HW133534   1.045   1.446  11.475 -1.1354 -1.0072  2.4267
 6038SOL    HW233535   0.903   1.499  11.464 -0.4629  0.3931  0.0754
 6039SOL     OW33536   4.717   0.200   8.094 -0.0290 -0.5997 -0.0183
 6039SOL    HW133537   4.709   0.282   8.045 -2.6480 -0.5709  0.3819
 6039SOL    HW233538   4.811   0.189   8.106  0.5941  0.3516 -3.4172
 6040SOL     OW33539   5.803   2.987   9.821  0.0234  0.6819  0.6650
 6040SOL    HW133540   5.800   3.002   9.727  0.7637  0.5476  0.6107
 6040SOL    HW233541   5.891   2.954   9.837 -0.1310  0.6069  1.3906
 6041SOL     OW33542   2.578   2.081  10.022  0.2551  0.4075  0.0828
 6041SOL    HW133543   2.631   2.042  10.091 -0.5966  1.6481  1.4817
 6041SOL    HW233544   2.603   2.174  10.023 -0.0455  0.5059 -1.0123
 6042SOL     OW33545   0.067   0.536  12.071  1.1116  0.2019 -0.2402
 6042SOL    HW133546   0.095   0.534  11.980 -0.2247 -1.1998 -0.6377
 6042SOL    HW233547   0.089   0.450  12.106  0.3877  0.2535  0.3761
 6043SOL     OW33548   5.603   4.215   2.752  0.3141 -0.0680 -0.0342
 6043SOL    HW133549   5.539   4.231   2.683 -1.0609  2.4963  1.7852
 6043SOL    HW233550   5.674   4.276   2.734  0.1745  0.2649  0.5285
 6044SOL     OW33551   0.932   2.638  12.113  0.3946 -0.4719 -0.5962
 6044SOL    HW133552   0.951   2.718  12.064  0.4361 -0.2135 -0.1710
 6044SOL    HW233553   0.908   2.670  12.201  0.2358 -0.9168 -0.4782
 6045SOL     OW33554   3.589   5.749  11.027  0.2833 -0.2459  0.3397
 6045SOL    HW133555   3.511   5.803  11.041  0.1513 -0.4906  0.5459
 6045SOL    HW233556   3.589   5.688  11.100  1.9359  1.2771  1.6747
 6046SOL     OW33557   5.479   1.068   9.277  0.4415 -0.0829 -0.1189
 6046SOL    HW133558   5.558   1.017   9.262  0.8772  0.5692 -0.0808
 6046SOL    HW233559   5.446   1.037   9.362  1.2563  0.3945  0.3820
 6047SOL     OW33560   3.260   1.086   1.694  0.1412 -0.0547  0.3767
 6047SOL    HW133561   3.341   1.040   1.675  0.2276 -0.1825  1.0248
 6047SOL    HW233562   3.244   1.140   1.617  2.0034  1.6198  1.1178
 6048SOL     OW33563   0.782   5.209   0.947 -0.4778  0.2295 -0.6133
 6048SOL    HW133564   0.731   5.266   1.004  0.3659  0.2252  0.1531
 6048SOL    HW233565   0.796   5.261   0.868  0.5203  1.1910  0.1879
 6049SOL     OW33566   4.052   4.814   1.957  0.7885  0.0679  0.4138
 6049SOL    HW133567   4.063   4.764   1.877 -0.3994  1.3033 -0.5441
 6049SOL    HW233568   4.104   4.767   2.022  0.7344 -1.6592 -0.7602
 6050SOL     OW33569   2.965   3.349   9.110 -0.1060  0.6306 -0.1152
 6050SOL    HW133570   2.914   3.302   9.045  2.7039 -1.1069 -1.1860
 6050SOL    HW233571   2.960   3.295   9.189  1.0724 -0.2038 -0.5989
 6051SOL     OW33572   1.892   3.728   0.366 -0.4849  0.2246  0.1545
 6051SOL    HW133573   1.896   3.734   0.271 -0.1687  0.3448  0.1765
 6051SOL    HW233574   1.983   3.731   0.395 -0.6390  1.5223  0.5378
 6052SOL     OW33575   2.332   3.675  11.237 -0.4321 -0.0172  0.0069
 6052SOL    HW133576   2.316   3.659  11.330  0.7285 -1.4423 -0.0111
 6052SOL    HW233577   2.296   3.598  11.193 -1.2270  0.7776 -0.7481
 6053SOL     OW33578   2.453   0.913  11.761 -0.3870  0.3286  0.5848
 6053SOL    HW133579   2.377   0.856  11.774 -0.2119  0.5587  2.8501
 6053SOL    HW233580   2.436   0.989  11.817  0.9529  0.9285  0.1903
 6054SOL     OW33581   3.441   5.793   2.399  0.0000 -0.0448 -0.0569
 6054SOL    HW133582   3.475   5.843   2.325 -1.0520 -2.1745 -2.0417
 6054SOL    HW233583   3.346   5.790   2.385  0.0287 -2.4992  0.0185
 6055SOL     OW33584   2.207   0.910   9.286 -0.2129 -0.1671 -0.1579
 6055SOL    HW133585   2.272   0.887   9.220  0.6161 -0.6248  0.8133
 6055SOL    HW233586   2.141   0.840   9.281  0.8761 -1.2722  0.8843
 6056SOL     OW33587   1.661   1.787  10.112 -0.5015 -0.6290 -0.2942
 6056SOL    HW133588   1.572   1.815  10.087 -0.4255 -0.2305 -0.1329
 6056SOL    HW233589   1.653   1.693  10.127 -0.9187 -0.5825 -0.1944
 6057SOL     OW33590   2.052   3.744   1.230  1.2443  0.2432  0.5047
 6057SOL    HW133591   2.084   3.702   1.310  4.1945 -1.2841 -1.3764
 6057SOL    HW233592   1.962   3.770   1.250  1.3426 -1.6682  3.7019
 6058SOL     OW33593   1.350   5.551  11.653  0.2010  0.0445  0.2636
 6058SOL    HW133594   1.323   5.493  11.581  3.3148 -0.3710 -0.6216
 6058SOL    HW233595   1.375   5.491  11.724 -3.3189  0.4515  1.9697
 6059SOL     OW33596   3.207   1.630  10.043  0.3232  0.2366 -0.1599
 6059SOL    HW133597   3.150   1.555  10.033 -0.4842  1.0441 -1.7077
 6059SOL    HW233598   3.281   1.613   9.985  0.3745  0.4167 -0.1505
 6060SOL     OW33599   0.283   4.780   0.515 -0.0128 -0.0363  0.1674
 6060SOL    HW133600   0.272   4.862   0.467  0.3940  1.2504  2.2066
 6060SOL    HW233601   0.194   4.746   0.525 -0.1277 -0.1973 -1.2479
 6061SOL     OW33602   4.971   2.720   2.332 -0.2609 -0.8379  0.0132
 6061SOL    HW133603   4.897   2.673   2.294 -0.8892  1.5241 -1.8126
 6061SOL    HW233604   4.931   2.789   2.385  0.6004  0.7373 -1.3464
 6062SOL     OW33605   3.173   3.849   2.979 -0.5019  0.0088  0.4984
 6062SOL    HW133606   3.182   3.755   2.992  0.0545  0.0291  0.2864
 6062SOL    HW233607   3.238   3.888   3.038  2.3584  0.0873 -2.5438
 6063SOL     OW33608   5.487  -0.022   3.051  0.0228  0.2236  0.5901
 6063SOL    HW133609   5.488  -0.000   2.958  0.7187  0.2564  0.5996
 6063SOL    HW233610   5.459   0.059   3.094 -1.4035 -0.1177  0.3362
 6064SOL     OW33611   3.492   0.589  10.519  0.6714 -0.5835 -0.2972
 6064SOL    HW133612   3.525   0.560  10.604  0.5953  0.2594  0.0248
 6064SOL    HW233613   3.561   0.644  10.484 -0.4151  1.2705  0.4212
 6065SOL     OW33614   3.390   2.374   1.962 -0.0944 -0.3720 -0.2784
 6065SOL    HW133615   3.437   2.327   1.893  1.1305 -2.2414  1.7649
 6065SOL    HW233616   3.302   2.335   1.962  0.0039 -0.5964 -0.5326
 6066SOL     OW33617   3.944   2.722   1.195  0.2754 -0.3153  0.5032
 6066SOL    HW133618   3.906   2.808   1.211 -0.3171 -0.3702 -0.5347
 6066SOL    HW233619   3.997   2.704   1.272  2.3669  2.0390 -0.2893
 6067SOL     OW33620   1.485   2.699   2.368  0.2032  0.1454  0.3111
 6067SOL    HW133621   1.502   2.717   2.275  1.6786 -0.0595  0.5270
 6067SOL    HW233622   1.535   2.619   2.386 -0.9063 -0.3923  1.0290
 6068SOL     OW33623   3.818   1.523   2.758 -0.2785  0.2192 -0.0396
 6068SOL    HW133624   3.815   1.455   2.826  3.0066 -0.1492 -0.2015
 6068SOL    HW233625   3.728   1.527   2.724 -2.0126  0.3604  4.2401
 6069SOL     OW33626   4.483   1.051   1.994  0.2060  0.3261 -0.5360
 6069SOL    HW133627   4.566   1.040   1.948  0.3423  1.4161 -0.5692
 6069SOL    HW233628   4.479   0.978   2.055  1.3988  0.4999 -0.2326
 6070SOL     OW33629   5.516   0.248  10.095  0.1717 -0.6561  0.0585
 6070SOL    HW133630   5.463   0.169  10.110 -1.4921  0.5551  0.7053
 6070SOL    HW233631   5.497   0.304  10.170  0.7283  0.7020 -0.8000
 6071SOL     OW33632   0.948   3.272   0.072  0.3663 -0.2526 -0.1312
 6071SOL    HW133633   0.915   3.362   0.079  1.1621  0.2617 -2.4607
 6071SOL    HW233634   1.003   3.260   0.149 -0.1877  1.0599  0.4893
 6072SOL     OW33635   4.340   0.940   3.692 -0.2486 -0.7689  0.3319
 6072SOL    HW133636   4.416   0.926   3.634 -1.8115 -0.7571 -1.7992
 6072SOL    HW233637   4.330   1.035   3.694 -0.4833 -0.7900  0.2199
 6073SOL     OW33638   4.208   0.744   0.523 -0.1393 -0.7023  0.3884
 6073SOL    HW133639   4.126   0.776   0.486  0.5255 -0.3480 -0.7898
 6073SOL    HW233640   4.217   0.655   0.488  1.8122  0.5593 -2.5233
 6074SOL     OW33641   1.674   4.939   3.540 -0.1413 -0.0641  0.3179
 6074SOL    HW133642   1.694   4.905   3.452 -2.0510  1.9401 -0.9325
 6074SOL    HW233643   1.601   4.885   3.571 -1.9032  1.5770 -0.8761
 6075SOL     OW33644   2.004   2.461  10.781  1.0825 -0.2137  0.5192
 6075SOL    HW133645   2.011   2.442  10.688  1.6846  1.6944  0.1476
 6075SOL    HW233646   2.019   2.377  10.824  0.3348 -1.2056 -1.1054
 6076SOL     OW33647   5.479   4.454   8.815  0.3982 -0.3325  0.2160
 6076SOL    HW133648   5.557   4.476   8.867  1.4893  2.1635 -2.3298
 6076SOL    HW233649   5.425   4.533   8.820 -0.3825 -0.7972 -0.8237
 6077SOL     OW33650   1.917   3.219   2.940  0.2197  0.0258  0.1908
 6077SOL    HW133651   1.924   3.125   2.925  1.1989 -0.0612  1.0922
 6077SOL    HW233652   1.834   3.244   2.901  0.4495 -1.0307 -0.9886
 6078SOL     OW33653   1.265   0.058   2.585 -0.2987 -0.1481  0.5351
 6078SOL    HW133654   1.222  -0.005   2.526 -0.1642  0.5951 -0.3760
 6078SOL    HW233655   1.222   0.046   2.669 -0.6212 -1.1091  0.2360
 6079SOL     OW33656   1.268   0.135   0.548  0.3228  0.9567  0.0124
 6079SOL    HW133657   1.233   0.198   0.484  1.6867 -0.0890 -1.8263
 6079SOL    HW233658   1.285   0.186   0.626 -2.2772  2.1057 -0.1353
 6080SOL     OW33659   1.113   5.553  10.300  0.5432  0.2204  0.4610
 6080SOL    HW133660   1.120   5.459  10.283 -0.2987 -0.1762  2.1589
 6080SOL    HW233661   1.024   5.564  10.333  0.9563  1.4699  1.1559
 6081SOL     OW33662   4.141   2.884   8.733 -0.8628  0.5750 -0.5955
 6081SOL    HW133663   4.194   2.807   8.715 -2.2739 -0.4483 -0.4731
 6081SOL    HW233664   4.203   2.957   8.728  0.8075 -0.6950  0.8729
 6082SOL     OW33665   5.746   1.214   2.398 -0.0499 -0.3182 -0.2690
 6082SOL    HW133666   5.676   1.183   2.455  0.4052 -1.2950 -0.2293
 6082SOL    HW233667   5.821   1.158   2.420  0.5385  0.2561 -0.8032
 6083SOL     OW33668   3.538   2.394  11.684 -0.0793 -0.0212 -0.1998
 6083SOL    HW133669   3.460   2.344  11.710 -0.7148  0.7447 -0.6041
 6083SOL    HW233670   3.568   2.434  11.766 -0.3282 -0.0335 -0.0988
 6084SOL     OW33671   4.865   3.629  10.879 -0.3183  0.0366  0.2761
 6084SOL    HW133672   4.860   3.723  10.895  0.2630  0.0683  0.3094
 6084SOL    HW233673   4.953   3.605  10.909 -1.2903 -0.9246  2.4347
 6085SOL     OW33674   5.686   2.264   2.286  0.0371  0.4284 -0.2896
 6085SOL    HW133675   5.724   2.198   2.228  0.6534  0.8348 -0.3594
 6085SOL    HW233676   5.607   2.223   2.322  0.6378 -0.4967 -0.0081
 6086SOL     OW33677   0.586   3.820   9.757 -0.7267 -0.0408 -0.0512
 6086SOL    HW133678   0.514   3.841   9.817 -0.6936 -1.8734  0.6622
 6086SOL    HW233679   0.655   3.786   9.813  0.2602  0.6198 -0.8610
 6087SOL     OW33680   0.473   3.022   9.970  0.2464 -0.1540 -0.2837
 6087SOL    HW133681   0.399   2.972  10.004  0.4429 -0.3278 -0.1111
 6087SOL    HW233682   0.503   3.074  10.044 -0.6046  0.9981 -0.7330
 6088SOL     OW33683   4.320   2.028  10.968 -0.0025  1.1124  0.6163
 6088SOL    HW133684   4.291   2.111  10.930  0.3061  1.3610  0.9198
 6088SOL    HW233685   4.312   2.041  11.063  3.0988  1.9336  0.8076
 6089SOL     OW33686   5.230   2.391   2.165  0.1842  0.3982  0.4465
 6089SOL    HW133687   5.306   2.446   2.145 -0.1539  0.0814 -1.8948
 6089SOL    HW233688   5.156   2.439   2.128 -0.6994  0.4688  2.2812
 6090SOL     OW33689   1.808   4.047   1.330 -0.0855  0.4646  0.4451
 6090SOL    HW133690   1.865   4.110   1.284  0.1310  0.5241  0.7938
 6090SOL    HW233691   1.777   3.988   1.261  3.3129 -1.8277  0.7890
 6091SOL     OW33692   1.949   2.469  12.004 -0.2929 -0.5348  0.1382
 6091SOL    HW133693   1.879   2.493  12.065 -0.6580  2.2589 -1.2981
 6091SOL    HW233694   1.906   2.467  11.918  0.9839 -0.6966 -0.5045
 6092SOL     OW33695   3.265   5.091   0.831 -0.3334 -0.2750  0.1736
 6092SOL    HW133696   3.281   5.040   0.911 -0.1694 -0.1798  0.2024
 6092SOL    HW233697   3.179   5.061   0.801  0.1756 -1.2622 -0.3287
 6093SOL     OW33698   4.558   0.266  11.731 -0.0269 -0.6199 -0.1797
 6093SOL    HW133699   4.482   0.208  11.720 -0.8007  0.3257  0.0694
 6093SOL    HW233700   4.551   0.327  11.658  1.5000 -1.6074 -1.1736
 6094SOL     OW33701   0.333   1.507   3.731 -0.0821 -0.6643 -0.0267
 6094SOL    HW133702   0.298   1.434   3.783 -1.8370  0.0492 -0.1658
 6094SOL    HW233703   0.361   1.571   3.796 -3.3383  0.7225  0.1071
 6095SOL     OW33704   3.656   4.699   3.792 -0.2395  0.1313  0.1741
 6095SOL    HW133705   3.694   4.743   3.716 -1.8387 -0.7170 -1.1560
 6095SOL    HW233706   3.728   4.649   3.830  0.4567  0.1692 -1.0916
 6096SOL     OW33707   1.735   3.121  12.348 -0.4493 -0.6681 -0.3208
 6096SOL    HW133708   1.649   3.125  12.391  0.3872  2.2875  1.1900
 6096SOL    HW233709   1.783   3.056  12.399 -1.5345 -1.8112 -0.7212
 6097SOL     OW33710   3.532   2.606  11.961 -0.3282  0.5041  0.0182
 6097SOL    HW133711   3.602   2.543  11.975  0.0913  1.1206  0.6780
 6097SOL    HW233712   3.470   2.590  12.032 -0.2123  0.8495  0.1997
 6098SOL     OW33713   4.508   4.020   7.685 -0.5168  0.1514  0.3306
 6098SOL    HW133714   4.438   3.955   7.695  0.5519 -0.8432  1.4852
 6098SOL    HW233715   4.566   3.984   7.618  0.3093 -0.2968  1.2800
 6099SOL     OW33716   5.672   3.866   0.634  0.3079 -0.4216  0.3828
 6099SOL    HW133717   5.699   3.836   0.721  0.8497  0.7186  0.6214
 6099SOL    HW233718   5.748   3.850   0.578 -0.5770 -2.5836 -0.2335
 6100SOL     OW33719   4.225   0.263   0.777 -0.1642  0.4983 -0.8163
 6100SOL    HW133720   4.260   0.346   0.745  3.0156  0.0751  1.2633
 6100SOL    HW233721   4.289   0.198   0.750 -0.6543 -0.7253  0.8615
 6101SOL     OW33722   4.400   2.199   2.762  0.2046 -0.2214  0.3242
 6101SOL    HW133723   4.310   2.211   2.729 -0.2818 -2.8120  0.6190
 6101SOL    HW233724   4.440   2.137   2.701  1.9236  1.1756  0.0107
 6102SOL     OW33725   3.943   2.276  11.012  0.1887  0.3226  0.0325
 6102SOL    HW133726   3.928   2.298  10.920  0.8686 -0.2387 -0.2081
 6102SOL    HW233727   3.855   2.260  11.047 -0.0043 -0.2888 -0.7227
 6103SOL     OW33728   2.713   2.353   8.873 -0.2533  0.2037 -0.9074
 6103SOL    HW133729   2.737   2.437   8.834 -1.0344  0.5485 -0.6560
 6103SOL    HW233730   2.631   2.370   8.920  0.3559 -0.3536  0.3716
 6104SOL     OW33731   5.867   3.162  11.451 -0.2238 -0.0700  0.3114
 6104SOL    HW133732   5.936   3.166  11.517 -0.7665 -1.1366  0.9651
 6104SOL    HW233733   5.834   3.251  11.444 -0.8977 -0.1435  2.2816
 6105SOL     OW33734   1.138   4.848   2.402  0.0303  0.3975 -0.0059
 6105SOL    HW133735   1.205   4.800   2.450  0.6996  0.6596 -0.6833
 6105SOL    HW233736   1.094   4.782   2.349 -1.8708 -0.2196  2.2462
 6106SOL     OW33737   1.923   3.938  11.379 -0.2871  0.5358  0.1100
 6106SOL    HW133738   1.829   3.951  11.391 -0.1418  0.8834  0.9344
 6106SOL    HW233739   1.963   4.011  11.427  0.3420  1.8936 -2.4009
 6107SOL     OW33740   2.528   0.436   4.207 -0.3290  0.1135  0.4054
 6107SOL    HW133741   2.558   0.365   4.264  1.2873  0.1823 -0.3467
 6107SOL    HW233742   2.512   0.509   4.266 -1.2178 -0.6101  1.0866
 6108SOL     OW33743   4.721   2.388   2.440 -0.2592 -0.3401  0.2652
 6108SOL    HW133744   4.776   2.350   2.508 -0.6870 -0.8332  0.3412
 6108SOL    HW233745   4.651   2.433   2.488 -1.2565 -1.7268  0.1474
 6109SOL     OW33746   4.011   2.405  12.466 -0.1610  0.3825 -0.3339
 6109SOL    HW133747   4.060   2.391  12.385 -0.0417 -0.0381 -0.1911
 6109SOL    HW233748   4.063   2.360  12.533  0.4937  1.9442  0.2282
 6110SOL     OW33749   5.016   4.458   0.560  0.2746 -0.6017 -0.0516
 6110SOL    HW133750   5.004   4.446   0.466  1.2237  1.2375 -0.4448
 6110SOL    HW233751   4.994   4.550   0.575 -0.2925 -0.9942  1.5958
 6111SOL     OW33752   4.438   1.799  10.163  0.2485 -0.1369 -0.5694
 6111SOL    HW133753   4.463   1.821  10.073  2.0172  1.6651  0.3250
 6111SOL    HW233754   4.356   1.846  10.177  0.8319  0.9488 -0.7084
 6112SOL     OW33755   2.751   2.732  10.127  0.0106 -0.4407 -0.6616
 6112SOL    HW133756   2.672   2.707  10.174 -0.5169  0.0425 -1.2753
 6112SOL    HW233757   2.741   2.690  10.041 -0.8704  1.8230 -1.6973
 6113SOL     OW33758   4.341   3.051   2.389  0.7704 -0.2863  0.4761
 6113SOL    HW133759   4.274   3.119   2.394 -1.6775 -2.5263 -0.1731
 6113SOL    HW233760   4.330   3.001   2.469  2.0179 -0.3849  0.5898
 6114SOL     OW33761   2.821   4.540  10.716  0.2483  0.1395  0.3623
 6114SOL    HW133762   2.889   4.516  10.779 -0.3407  2.9054  2.1553
 6114SOL    HW233763   2.739   4.514  10.758 -0.1272  1.6912  0.6513
 6115SOL     OW33764   5.115   4.043   0.667  0.6678 -0.7467  0.5457
 6115SOL    HW133765   5.044   4.046   0.731  0.9005  1.3942  0.7416
 6115SOL    HW233766   5.191   4.012   0.717  0.2806 -1.4307  0.7225
 6116SOL     OW33767   4.430   2.955   7.917  0.1128 -0.3732  0.1840
 6116SOL    HW133768   4.450   3.012   7.843  2.1584 -0.2927  0.7719
 6116SOL    HW233769   4.514   2.942   7.960 -1.0634 -0.3338  2.5525
 6117SOL     OW33770   2.131   2.933   1.273 -0.3179 -0.5450 -0.1530
 6117SOL    HW133771   2.145   2.981   1.355  0.6196 -1.1466  0.0466
 6117SOL    HW233772   2.206   2.875   1.266 -0.2274 -0.2762 -1.6102
 6118SOL     OW33773   2.492   4.173   9.091  0.3224 -0.0256  0.4098
 6118SOL    HW133774   2.460   4.263   9.093  0.8240  0.1354  1.0890
 6118SOL    HW233775   2.434   4.129   9.027 -0.4509  0.5668  0.6916
 6119SOL     OW33776   3.219   5.674  12.457  0.4542  0.3184  0.1384
 6119SOL    HW133777   3.149   5.634  12.509  1.1570 -0.2957  0.6297
 6119SOL    HW233778   3.275   5.600  12.431  2.2239  1.0615  1.7209
 6120SOL     OW33779   4.183   2.096   8.668  0.4653 -0.0236 -0.0870
 6120SOL    HW133780   4.218   2.142   8.744 -1.8809 -0.0164  1.0332
 6120SOL    HW233781   4.088   2.106   8.675 -0.0309 -3.4360 -0.8380
 6121SOL     OW33782   1.804   5.766  11.186 -0.0083  0.1123 -0.1496
 6121SOL    HW133783   1.773   5.679  11.210 -1.4576  0.3425 -1.1108
 6121SOL    HW233784   1.832   5.756  11.095 -2.1284  1.1211 -0.9368
 6122SOL     OW33785   0.109   2.781   3.426  0.2166 -0.6278 -0.1672
 6122SOL    HW133786   0.043   2.839   3.464 -0.0560  0.3052 -2.0115
 6122SOL    HW233787   0.160   2.751   3.501 -1.7802 -0.7100  1.1977
 6123SOL     OW33788   4.254   0.711   2.457  0.4844  0.7035  0.4484
 6123SOL    HW133789   4.227   0.720   2.548 -3.3223  1.4306 -0.6747
 6123SOL    HW233790   4.349   0.727   2.458  0.4409  1.0289  4.2008
 6124SOL     OW33791   5.527   3.285   9.464  0.2301 -1.0251 -0.3450
 6124SOL    HW133792   5.621   3.279   9.446  0.2472  0.2979 -0.7272
 6124SOL    HW233793   5.521   3.308   9.556  0.2594 -2.1692 -0.0552
 6125SOL     OW33794   4.037   1.962   4.050  0.0960  0.5972  0.3474
 6125SOL    HW133795   3.980   2.038   4.062  0.3163  0.7490  0.4381
 6125SOL    HW233796   4.114   1.981   4.104 -0.1991 -0.0547  0.9949
 6126SOL     OW33797   3.143   0.555   3.158 -0.3641 -0.5739 -0.2282
 6126SOL    HW133798   3.060   0.595   3.182 -0.0591 -1.3910  2.3027
 6126SOL    HW233799   3.119   0.471   3.118 -0.7953 -0.3914 -0.3513
 6127SOL     OW33800   0.191   4.907  11.634 -0.3304 -0.5089  0.5619
 6127SOL    HW133801   0.151   4.827  11.601 -0.5335  0.2905 -1.1956
 6127SOL    HW233802   0.252   4.878  11.702 -0.0660 -2.1914 -0.3821
 6128SOL     OW33803   3.254   3.484   9.481  0.2843 -0.2527  0.2459
 6128SOL    HW133804   3.243   3.479   9.576  1.8251  0.2934  0.4625
 6128SOL    HW233805   3.292   3.399   9.458  1.8489  0.4014  0.3990
 6129SOL     OW33806   0.130   5.073   3.525  0.1279 -0.6332  0.2575
 6129SOL    HW133807   0.049   5.123   3.532  0.1018 -0.7908  1.2678
 6129SOL    HW233808   0.157   5.059   3.616  0.9338 -1.1487 -0.0538
 6130SOL     OW33809   1.983   1.143   9.702  0.4304 -0.8319  0.1354
 6130SOL    HW133810   1.900   1.157   9.746 -0.4296  0.6112 -1.8503
 6130SOL    HW233811   2.048   1.143   9.772 -0.8438  1.8857  1.3864
 6131SOL     OW33812   3.386   1.818   1.822 -0.2492 -0.2150 -0.5102
 6131SOL    HW133813   3.339   1.833   1.905  1.5255  2.9469  0.0077
 6131SOL    HW233814   3.474   1.791   1.849 -0.2563 -1.1537 -1.4046
 6132SOL     OW33815   1.861   1.248   1.126  0.0159 -0.2833  0.7966
 6132SOL    HW133816   1.863   1.343   1.116 -0.3186 -0.1863  1.5971
 6132SOL    HW233817   1.814   1.233   1.208 -1.7166 -1.2029 -0.3163
 6133SOL     OW33818   0.579   3.218  11.830  0.1060  0.4392 -0.5870
 6133SOL    HW133819   0.529   3.298  11.815  0.9352  1.2967  1.0470
 6133SOL    HW233820   0.567   3.200  11.923  1.1266 -0.5127 -0.6360
 6134SOL     OW33821   4.676   3.155   2.080 -0.1843 -0.2984  0.2205
 6134SOL    HW133822   4.641   3.229   2.029 -0.9402 -0.7990  0.0016
 6134SOL    HW233823   4.599   3.112   2.116  0.4443  1.9229  4.5004
 6135SOL     OW33824   0.689   5.818   4.327 -0.0595  0.7273  0.2072
 6135SOL    HW133825   0.739   5.776   4.257 -0.1346  0.7312  0.1503
 6135SOL    HW233826   0.625   5.751   4.353  0.0370  0.6877  0.3448
 6136SOL     OW33827   2.472   5.554   1.073  0.0198  0.4593 -0.2609
 6136SOL    HW133828   2.384   5.565   1.038 -0.5510 -0.5801  0.8037
 6136SOL    HW233829   2.463   5.488   1.141  1.5431  0.6843  0.1907
 6137SOL     OW33830   3.822   1.589   9.515  0.0662  0.1313  0.2115
 6137SOL    HW133831   3.847   1.576   9.424 -0.0859  0.2951  0.1455
 6137SOL    HW233832   3.884   1.655   9.548  0.9218 -0.8322  0.5789
 6138SOL     OW33833   1.948   5.706   9.252 -0.5658 -0.2573  1.0242
 6138SOL    HW133834   2.033   5.672   9.222 -0.2461  1.6315 -0.2818
 6138SOL    HW233835   1.964   5.735   9.341  0.6462  1.7513  0.1758
 6139SOL     OW33836   2.608   5.163   9.546  0.2405 -0.2548  0.2228
 6139SOL    HW133837   2.618   5.160   9.641 -3.3394 -1.9064  0.6350
 6139SOL    HW233838   2.640   5.077   9.516 -2.1255 -1.2170  0.3776
 6140SOL     OW33839   5.072   3.724   8.301  0.4340  0.1980 -0.2647
 6140SOL    HW133840   5.065   3.737   8.396 -0.2934 -0.7973 -0.1756
 6140SOL    HW233841   5.120   3.801   8.270  0.2235  0.7885  0.8457
 6141SOL     OW33842   5.264   3.101  10.666 -0.0263  0.1396  0.4601
 6141SOL    HW133843   5.347   3.141  10.691  0.1010 -0.9346  1.8016
 6141SOL    HW233844   5.214   3.098  10.748 -1.6364  1.3657 -0.4511
 6142SOL     OW33845   1.962   0.338   9.058  0.1318 -0.0693 -0.7255
 6142SOL    HW133846   2.051   0.372   9.054  0.1123  0.3560  1.5124
 6142SOL    HW233847   1.971   0.251   9.097 -0.4515  0.1211 -0.1465
 6143SOL     OW33848   1.920   4.945   9.841  0.6286 -0.6209  0.0415
 6143SOL    HW133849   1.977   4.987   9.906  1.7335  1.8755 -2.4156
 6143SOL    HW233850   1.833   4.980   9.860  1.2629  1.5941 -0.9356
 6144SOL     OW33851   1.402   1.249   4.223  0.2532  0.5726  0.2301
 6144SOL    HW133852   1.332   1.304   4.258  0.4481  0.6755  0.4651
 6144SOL    HW233853   1.395   1.258   4.128  0.7330  1.5710  0.2766
 6145SOL     OW33854   3.893   1.925   1.396 -0.0366 -0.9101  0.7847
 6145SOL    HW133855   3.929   1.964   1.475  1.4382  1.1229 -0.8426
 6145SOL    HW233856   3.823   1.985   1.369  2.8155  1.2199 -2.2215
 6146SOL     OW33857   0.344   5.696   9.289  0.1820 -0.2647 -0.4360
 6146SOL    HW133858   0.296   5.750   9.227  0.1602 -0.7408 -0.8333
 6146SOL    HW233859   0.344   5.747   9.370 -0.2388  0.1227 -0.6765
 6147SOL     OW33860   2.551   4.628   1.793 -0.3908  1.1799  0.2240
 6147SOL    HW133861   2.482   4.613   1.729 -0.1061  0.2388  0.1324
 6147SOL    HW233862   2.508   4.614   1.878  0.3814 -2.3995  0.0845
 6148SOL     OW33863   4.904   4.080   2.156  0.1531 -0.2802  0.1837
 6148SOL    HW133864   4.918   4.174   2.168 -1.6072  0.1286 -0.6678
 6148SOL    HW233865   4.829   4.060   2.212  0.0456 -1.0259 -0.2186
 6149SOL     OW33866   4.167   4.481   0.322 -0.5211  0.2018  0.3529
 6149SOL    HW133867   4.115   4.409   0.358  0.9120 -0.1157  1.8181
 6149SOL    HW233868   4.125   4.501   0.238 -1.0045 -2.2711 -0.0316
 6150SOL     OW33869   0.951   3.234   3.798 -0.2119 -0.3512  0.2892
 6150SOL    HW133870   1.034   3.275   3.773 -1.9985  2.3918 -1.4817
 6150SOL    HW233871   0.949   3.152   3.750  0.6545  0.4825 -1.2191
 6151SOL     OW33872   1.363   0.766   0.170 -1.2813 -0.3162  0.2263
 6151SOL    HW133873   1.441   0.724   0.206 -0.1652  1.5664  0.0701
 6151SOL    HW233874   1.291   0.707   0.193  0.0147 -1.4425  1.4805
 6152SOL     OW33875   2.885   5.505   8.545 -0.1366 -0.0812 -0.9297
 6152SOL    HW133876   2.809   5.549   8.506  1.4170  0.9408 -2.9067
 6152SOL    HW233877   2.872   5.514   8.639 -2.0779  0.7736 -1.2560
 6153SOL     OW33878   0.762   3.390  10.834 -0.0410 -0.6413 -0.7407
 6153SOL    HW133879   0.756   3.386  10.930  1.9388 -1.6924 -0.6464
 6153SOL    HW233880   0.852   3.418  10.817 -0.7187  0.6896 -2.2961
 6154SOL     OW33881   3.563   1.771  10.841  0.3536  0.4478 -0.0225
 6154SOL    HW133882   3.623   1.741  10.773  1.8427 -0.1311  1.4800
 6154SOL    HW233883   3.621   1.795  10.914 -1.3003 -1.6720  2.0846
 6155SOL     OW33884   1.182   2.788  11.055 -0.4545  0.5707  0.0049
 6155SOL    HW133885   1.197   2.882  11.071 -1.1973  0.7130 -0.1022
 6155SOL    HW233886   1.174   2.750  11.143  3.0921  0.0401  0.1516
 6156SOL     OW33887   0.369   0.468   8.329  0.5400 -0.1615  0.3228
 6156SOL    HW133888   0.444   0.431   8.282 -0.6563 -2.2136 -0.0414
 6156SOL    HW233889   0.375   0.431   8.417 -0.7281 -1.3574 -0.0713
 6157SOL     OW33890   2.852   1.687   0.378  0.2404  0.3785 -0.5342
 6157SOL    HW133891   2.864   1.623   0.448  1.4159  2.3112  1.1022
 6157SOL    HW233892   2.765   1.669   0.343  0.0374 -1.2583  0.7530
 6158SOL     OW33893   3.034   5.433   0.680 -0.1389  0.2640 -0.4983
 6158SOL    HW133894   2.975   5.447   0.754  0.1084  0.4770 -0.3409
 6158SOL    HW233895   3.117   5.408   0.720  0.2978  1.4184 -0.6629
 6159SOL     OW33896   5.656   5.381  10.875  0.4990 -0.2176 -0.5301
 6159SOL    HW133897   5.713   5.455  10.854 -0.1218  0.1753 -0.8605
 6159SOL    HW233898   5.575   5.399  10.826  0.5403 -1.3867 -1.0431
 6160SOL     OW33899   3.670   0.639  12.209 -0.1066 -0.5885 -0.0962
 6160SOL    HW133900   3.603   0.676  12.266 -0.3724 -1.2503  0.0295
 6160SOL    HW233901   3.750   0.687  12.230 -0.3359 -0.4362  0.4166
 6161SOL     OW33902   0.059   0.200  11.445  0.3340  0.7066 -0.4680
 6161SOL    HW133903   0.014   0.269  11.493  1.3324  2.0681 -1.4221
 6161SOL    HW233904   0.054   0.228  11.353  0.4010 -0.7037 -0.9171
 6162SOL     OW33905   5.032   5.555   0.347 -0.0753 -0.2364 -0.0182
 6162SOL    HW133906   4.959   5.596   0.392 -0.9647  0.9704 -2.4569
 6162SOL    HW233907   5.001   5.468   0.323 -0.7464  0.3049 -1.1227
 6163SOL     OW33908   2.958   2.238   1.696  0.2317 -0.0643  0.2773
 6163SOL    HW133909   2.881   2.291   1.674  0.6605 -0.3358 -1.9941
 6163SOL    HW233910   3.032   2.288   1.664  0.7495 -1.3313 -0.5576
 6164SOL     OW33911   4.231   0.548  10.518  0.0355 -0.2452 -0.1487
 6164SOL    HW133912   4.225   0.509  10.605  1.2883 -1.3057 -0.5297
 6164SOL    HW233913   4.298   0.497  10.473  0.2624  1.0723 -1.3368
 6165SOL     OW33914   4.629   0.220   0.611  0.5053  0.8919 -0.5075
 6165SOL    HW133915   4.642   0.292   0.672  0.7423  0.1861  0.2707
 6165SOL    HW233916   4.704   0.225   0.552 -0.1381  2.0704 -1.2511
 6166SOL     OW33917   0.386   0.126   2.287  0.0582  0.1192  0.6413
 6166SOL    HW133918   0.378   0.188   2.360 -0.8737 -0.2124  0.8236
 6166SOL    HW233919   0.312   0.145   2.231  1.3847  1.1308 -0.8175
 6167SOL     OW33920   3.409   1.095   0.442  0.0110 -0.1413  0.2556
 6167SOL    HW133921   3.441   1.181   0.468 -0.7976  0.8207 -1.8248
 6167SOL    HW233922   3.441   1.083   0.353  0.4431 -2.1656  0.6717
 6168SOL     OW33923   1.379   5.313   1.668 -0.1874 -0.9552  0.0693
 6168SOL    HW133924   1.454   5.266   1.705 -0.1612 -0.4202  0.7165
 6168SOL    HW233925   1.366   5.274   1.582  0.4209 -1.5036  0.2198
 6169SOL     OW33926   4.677   1.518   0.937 -0.0692  0.2638 -0.0722
 6169SOL    HW133927   4.770   1.536   0.949 -0.1579  1.6084 -1.2234
 6169SOL    HW233928   4.633   1.594   0.974 -0.7807 -1.0440  1.8074
 6170SOL     OW33929   3.305   0.050   1.433 -0.5740 -0.1786  0.0938
 6170SOL    HW133930   3.251   0.100   1.494 -0.5761 -0.6555  0.4815
 6170SOL    HW233931   3.390   0.093   1.436  0.0016 -1.3899  1.9193
 6171SOL     OW33932   2.420   3.700   9.966 -0.1563 -0.1506 -0.0139
 6171SOL    HW133933   2.487   3.750   9.919 -1.5512  1.4374 -0.3643
 6171SOL    HW233934   2.452   3.695  10.056  1.3979 -1.1686 -0.6052
 6172SOL     OW33935   3.202   2.641   3.130  0.2858 -0.2339 -0.0341
 6172SOL    HW133936   3.276   2.623   3.073  1.4752 -2.3089  2.0983
 6172SOL    HW233937   3.128   2.597   3.088  0.3786  1.1669 -1.7381
 6173SOL     OW33938   1.726   2.958   9.662  0.7035 -0.1470  0.1557
 6173SOL    HW133939   1.710   3.024   9.595  2.3535 -0.3623 -0.4709
 6173SOL    HW233940   1.704   3.002   9.744  1.8476  1.2159 -0.2510
 6174SOL     OW33941   0.982   2.382  12.045 -0.2236  0.2545 -0.1470
 6174SOL    HW133942   0.968   2.474  12.064 -1.7470 -0.1785  0.8711
 6174SOL    HW233943   1.021   2.346  12.124 -1.5530 -0.4096  0.2121
 6175SOL     OW33944   3.651   1.801  12.336  0.3685  0.0992  0.5497
 6175SOL    HW133945   3.692   1.883  12.363  0.4280  0.2463  0.0312
 6175SOL    HW233946   3.579   1.788  12.398 -0.0577  0.8857  0.2310
 6176SOL     OW33947   3.164   4.461   1.961 -0.2513  0.1321 -0.2070
 6176SOL    HW133948   3.106   4.437   1.888 -0.6873  1.7115 -0.4160
 6176SOL    HW233949   3.104   4.491   2.030  0.2052 -0.4792  0.4533
 6177SOL     OW33950   1.040   0.511  11.652 -0.3391 -0.3786  0.1701
 6177SOL    HW133951   0.946   0.525  11.663 -0.5052 -1.5358  0.2179
 6177SOL    HW233952   1.047   0.423  11.615  0.5644  0.6869 -2.3456
 6178SOL     OW33953   0.943   4.193   8.520  0.0711 -0.3069 -0.9259
 6178SOL    HW133954   0.928   4.248   8.443  0.4421  0.6545 -0.3255
 6178SOL    HW233955   0.966   4.255   8.589 -1.6962 -1.0279  0.3353
 6179SOL     OW33956   1.486   1.372   8.616 -0.1519 -0.0582  0.4730
 6179SOL    HW133957   1.415   1.327   8.568  0.1421 -0.6112  0.5458
 6179SOL    HW233958   1.547   1.400   8.547 -0.4835  0.4947  0.4050
 6180SOL     OW33959   1.941   0.636  11.904 -0.2344 -0.0250 -0.1416
 6180SOL    HW133960   1.876   0.580  11.948 -1.4688  1.5023  0.0023
 6180SOL    HW233961   1.892   0.714  11.878  0.6461 -0.4700 -3.4466
 6181SOL     OW33962   3.568   0.108   2.782  0.0713  0.2691 -0.0460
 6181SOL    HW133963   3.490   0.053   2.773  0.0985  0.2681 -0.2954
 6181SOL    HW233964   3.580   0.118   2.876 -0.8117  1.0967 -0.0138
 6182SOL     OW33965   1.788   0.465   9.257  0.1027  0.1043 -0.0317
 6182SOL    HW133966   1.784   0.554   9.223  0.9224  0.5055  0.9220
 6182SOL    HW233967   1.834   0.416   9.189 -0.4635  0.3625 -0.6149
 6183SOL     OW33968   5.150   0.913   3.650  0.2967 -0.4868  1.1226
 6183SOL    HW133969   5.242   0.911   3.676  1.5712  1.3280 -2.7958
 6183SOL    HW233970   5.125   1.005   3.660 -0.0098 -0.3031 -1.0358
 6184SOL     OW33971   0.013   1.744  11.934 -0.3644  0.6889 -0.0678
 6184SOL    HW133972   0.024   1.738  12.029  1.2301  0.1765 -0.2823
 6184SOL    HW233973   0.000   1.838  11.918  1.5342  1.0550  0.4290
 6185SOL     OW33974   3.900   0.859   8.781  0.6717  0.4247  0.3402
 6185SOL    HW133975   3.832   0.839   8.716  1.1698  2.4153 -0.8402
 6185SOL    HW233976   3.930   0.947   8.758  3.0343 -0.0618  1.3959
 6186SOL     OW33977   4.430   5.228   8.845 -0.8811  0.5264 -0.4442
 6186SOL    HW133978   4.436   5.295   8.777 -0.9832 -1.3559 -2.3503
 6186SOL    HW233979   4.336   5.222   8.864 -0.8937  0.7901 -0.4270
 6187SOL     OW33980   5.593   5.032   3.472  0.4339  0.1885 -0.3447
 6187SOL    HW133981   5.566   5.124   3.475  0.8599  0.2930  1.3062
 6187SOL    HW233982   5.513   4.984   3.450  0.5234  1.0499 -2.6914
 6188SOL     OW33983   0.037   1.703   1.134  0.5170 -0.2209 -0.3552
 6188SOL    HW133984   0.003   1.788   1.162 -0.5250 -1.5021  2.3958
 6188SOL    HW233985  -0.034   1.663   1.085  0.8851  0.3305 -1.3551
 6189SOL     OW33986   1.600   3.662   1.272  0.3434 -0.0154 -0.0793
 6189SOL    HW133987   1.518   3.622   1.245 -0.1842  0.7800  0.3007
 6189SOL    HW233988   1.667   3.597   1.251 -0.5196 -1.2318  0.8250
 6190SOL     OW33989   3.786   2.925  10.060  0.4834  0.1371  0.0778
 6190SOL    HW133990   3.749   2.912  10.148 -0.7688  1.1778 -0.2890
 6190SOL    HW233991   3.782   3.019  10.046 -0.1744 -0.1019 -1.4703
 6191SOL     OW33992   2.551   4.191  12.474 -0.1469 -0.9332  0.4120
 6191SOL    HW133993   2.636   4.178  12.515  0.9300 -0.1894 -1.5359
 6191SOL    HW233994   2.564   4.167  12.382 -1.8845 -0.2668 -0.0347
 6192SOL     OW33995   1.105   1.504   3.157  0.3557  0.2422 -0.5060
 6192SOL    HW133996   1.102   1.525   3.250  1.4621 -0.8941 -0.1930
 6192SOL    HW233997   1.087   1.587   3.113 -0.1182  0.8064  0.7110
 6193SOL     OW33998   0.647   0.730  10.134  0.0792  0.3135 -0.3956
 6193SOL    HW133999   0.689   0.767  10.056  1.1833  0.3634  0.2072
 6193SOL    HW234000   0.708   0.664  10.166  0.4391  1.4446  1.3691
 6194SOL     OW34001   2.531   2.757  12.312 -0.6408  0.4459  0.1607
 6194SOL    HW134002   2.539   2.776  12.219  0.8783 -2.0771 -0.2740
 6194SOL    HW234003   2.499   2.667  12.315 -2.6302  1.1778  2.0988
 6195SOL     OW34004   5.511   2.384   1.603  0.0434 -0.4004 -0.1103
 6195SOL    HW134005   5.480   2.460   1.553  1.0785 -0.5113 -0.9383
 6195SOL    HW234006   5.465   2.390   1.687 -2.1783 -0.5376 -1.2803
 6196SOL     OW34007   0.785   4.859  11.009  0.0955  0.0927  0.1038
 6196SOL    HW134008   0.700   4.899  11.026 -0.6632 -0.9476 -1.1425
 6196SOL    HW234009   0.774   4.767  11.032  1.4148  0.2973  1.6279
 6197SOL     OW34010   2.402   3.040  12.331 -0.1977  0.4952  0.6418
 6197SOL    HW134011   2.399   3.127  12.370  0.4167  1.4274 -1.3617
 6197SOL    HW234012   2.492   3.011  12.344  0.3781  1.3592 -1.1962
 6198SOL     OW34013   0.347   3.701  10.147 -0.4270 -0.0617 -0.1532
 6198SOL    HW134014   0.355   3.623  10.202  0.3221 -0.2262 -0.4897
 6198SOL    HW234015   0.330   3.772  10.209 -1.5417 -0.5520  0.1205
 6199SOL     OW34016   1.234   5.179  12.501 -0.1459 -0.4659  0.2687
 6199SOL    HW134017   1.267   5.090  12.512 -1.7933 -0.9269  1.6118
 6199SOL    HW234018   1.201   5.181  12.411  0.4262 -1.0425  0.0460
 6200SOL     OW34019   3.314   1.158   8.877 -0.2076  0.1534  0.2182
 6200SOL    HW134020   3.331   1.246   8.841 -0.4218 -0.6033 -1.7805
 6200SOL    HW234021   3.396   1.110   8.862 -1.2684 -1.0456 -1.9819
 6201SOL     OW34022   0.541   3.019   2.894 -0.2747 -0.2603 -0.0990
 6201SOL    HW134023   0.576   3.083   2.833  0.1959 -1.7796 -1.4438
 6201SOL    HW234024   0.618   2.981   2.937 -0.4948 -0.5707  0.0295
 6202SOL     OW34025   4.856   4.134   9.794 -0.0504 -0.9203 -0.3967
 6202SOL    HW134026   4.786   4.147   9.858 -1.6298 -3.1882 -1.5632
 6202SOL    HW234027   4.821   4.168   9.712  0.9665 -0.3386 -0.6000
 6203SOL     OW34028   4.090   2.682  11.095  0.1280  0.2640 -0.3606
 6203SOL    HW134029   4.088   2.662  11.001 -0.5752  1.4002 -0.5891
 6203SOL    HW234030   4.003   2.659  11.127  1.4462 -3.5244  0.7505
 6204SOL     OW34031   2.531   0.874   0.770  0.1684  0.5524  0.0991
 6204SOL    HW134032   2.485   0.917   0.698  1.1812  0.0597 -0.8475
 6204SOL    HW234033   2.620   0.862   0.739 -0.0534 -2.1644  0.3393
 6205SOL     OW34034   1.652   2.767   1.173  0.0894 -0.6866 -0.2118
 6205SOL    HW134035   1.603   2.744   1.094  0.9543 -2.4297 -0.2507
 6205SOL    HW234036   1.594   2.741   1.245 -0.4425  0.3447 -0.2557
 6206SOL     OW34037   3.586   1.404   8.478  0.4599 -1.1315  0.0994
 6206SOL    HW134038   3.592   1.371   8.388  0.3508 -0.4979 -0.1432
 6206SOL    HW234039   3.541   1.488   8.470 -1.9482 -2.2938  1.0337
 6207SOL     OW34040   4.977   5.838   2.530  1.5786 -0.3776  0.3277
 6207SOL    HW134041   4.895   5.804   2.568  1.3722  0.5769  0.7459
 6207SOL    HW234042   5.024   5.759   2.503  0.7006 -0.9643  0.4539
 6208SOL     OW34043   2.062   3.962   8.377 -0.3729 -0.5130 -0.3657
 6208SOL    HW134044   2.031   4.017   8.449 -0.7198  0.0396 -0.9271
 6208SOL    HW234045   2.012   3.993   8.301 -1.2216 -2.1907 -0.5234
 6209SOL     OW34046   5.762   1.051   8.690 -0.2901  0.1414 -0.0512
 6209SOL    HW134047   5.685   1.059   8.633  0.8017  0.3326 -1.5152
 6209SOL    HW234048   5.728   1.069   8.778 -2.0668 -0.4946 -0.5739
 6210SOL     OW34049   5.343   1.310   8.945 -0.5018  0.2172  0.8970
 6210SOL    HW134050   5.284   1.250   8.898  0.8552 -0.4250 -0.0060
 6210SOL    HW234051   5.351   1.386   8.886 -0.7760  0.5098  1.2284
 6211SOL     OW34052   3.982   3.251   9.297  0.3843 -0.0265 -0.4908
 6211SOL    HW134053   4.074   3.274   9.287  0.3078 -0.0182 -1.2077
 6211SOL    HW234054   3.942   3.274   9.213 -0.2695 -0.0319 -0.1870
 6212SOL     OW34055   3.021   1.583   2.715 -0.2757  0.0783  0.8023
 6212SOL    HW134056   2.951   1.645   2.695 -0.2629  0.3744  1.6697
 6212SOL    HW234057   3.095   1.637   2.739  1.1618 -0.1263 -2.8450
 6213SOL     OW34058   1.283   5.131   2.715  0.2809  0.8565 -0.5220
 6213SOL    HW134059   1.294   5.037   2.729  0.3663  0.2977 -3.9003
 6213SOL    HW234060   1.190   5.147   2.732  0.3081  0.2199  0.2823
 6214SOL     OW34061   1.756   2.711  10.680 -0.0095  0.2716  0.3826
 6214SOL    HW134062   1.819   2.668  10.738  2.7667  2.5945 -0.8050
 6214SOL    HW234063   1.690   2.747  10.739  1.6447  0.8009  1.9647
 6215SOL     OW34064   2.912   0.969   8.732  0.3762 -0.4789 -0.5839
 6215SOL    HW134065   2.840   1.017   8.689 -1.8875 -1.2640  2.1617
 6215SOL    HW234066   2.950   1.033   8.793  0.2946 -0.8218 -0.1671
 6216SOL     OW34067   0.858   1.659   9.878 -0.5169 -0.1393  0.0969
 6216SOL    HW134068   0.904   1.719   9.820 -0.4703  1.5595  1.8359
 6216SOL    HW234069   0.769   1.656   9.843 -0.2149  0.0345 -0.6881
 6217SOL     OW34070   2.481   4.569   3.443  0.1787  0.2339 -0.1337
 6217SOL    HW134071   2.502   4.657   3.473 -0.7873  0.8994 -1.3618
 6217SOL    HW234072   2.405   4.543   3.495 -0.4082  0.6894 -0.7553
 6218SOL     OW34073   5.238   2.217   2.947  0.3530  0.1988 -0.6346
 6218SOL    HW134074   5.232   2.250   3.037  1.8120 -0.2985 -0.3448
 6218SOL    HW234075   5.259   2.294   2.894 -0.4335  0.4796 -0.5436
 6219SOL     OW34076   1.048   4.821   1.910 -0.4684  0.8189 -0.0897
 6219SOL    HW134077   1.032   4.909   1.944 -1.3432 -0.6777  3.6358
 6219SOL    HW234078   0.961   4.785   1.894 -0.4893 -1.3308  4.0101
 6220SOL     OW34079   5.159   1.850   8.942  0.4050 -0.3472  0.3308
 6220SOL    HW134080   5.191   1.855   8.852  1.7678  1.2374  0.8617
 6220SOL    HW234081   5.118   1.764   8.950  0.2308 -0.4688 -1.8100
 6221SOL     OW34082   4.316   4.183  10.413 -0.2829  0.2888 -0.4642
 6221SOL    HW134083   4.412   4.182  10.422 -0.2927 -0.1719 -0.4352
 6221SOL    HW234084   4.289   4.093  10.428 -0.4813 -0.1202 -3.0063
 6222SOL     OW34085   4.385   0.829   0.690 -0.4001  0.5006 -0.7695
 6222SOL    HW134086   4.453   0.773   0.652 -0.2627  0.6135 -0.6936
 6222SOL    HW234087   4.304   0.801   0.648 -0.3219  0.2876 -0.7790
 6223SOL     OW34088   2.830   0.504  10.298 -0.2413  0.5201 -0.0542
 6223SOL    HW134089   2.842   0.594  10.267 -1.0425  0.6416 -0.0030
 6223SOL    HW234090   2.902   0.492  10.361  1.3769  0.2812 -1.8907
 6224SOL     OW34091   5.836   3.932   2.279 -0.5201 -0.3548  0.1590
 6224SOL    HW134092   5.833   3.837   2.263 -0.7892 -0.1538 -1.0352
 6224SOL    HW234093   5.854   3.970   2.193  1.9924  0.5674  1.0583
 6225SOL     OW34094   0.677   5.292   1.371  0.5419  0.5987 -0.1514
 6225SOL    HW134095   0.659   5.297   1.277 -0.9610  0.1965  0.0914
 6225SOL    HW234096   0.761   5.247   1.378 -0.3382 -1.3011 -1.2542
 6226SOL     OW34097   5.376   4.247   9.104 -0.0766 -0.2257 -0.6394
 6226SOL    HW134098   5.305   4.203   9.151  0.7075 -1.0845 -0.2379
 6226SOL    HW234099   5.452   4.190   9.117  0.8814  1.0914 -0.4013
 6227SOL     OW34100   1.771   3.983  12.394  0.5259 -0.1340 -0.2632
 6227SOL    HW134101   1.858   3.956  12.423  1.3454  3.2563  0.6824
 6227SOL    HW234102   1.764   4.075  12.421 -2.8090  0.0757 -1.5638
 6228SOL     OW34103   5.250   5.566   9.542 -0.4078  0.2208 -0.3525
 6228SOL    HW134104   5.335   5.608   9.534 -0.5000  0.5999  0.6698
 6228SOL    HW234105   5.254   5.493   9.479  0.7815  0.0338 -0.0759
 6229SOL     OW34106   5.370   0.373  11.004  0.6449 -0.2850 -0.5364
 6229SOL    HW134107   5.458   0.341  11.023  0.0763 -1.5497  0.0437
 6229SOL    HW234108   5.331   0.304  10.951 -1.2372 -1.4480  2.2789
 6230SOL     OW34109   1.217   3.426  11.070 -0.0616 -0.2443 -0.1946
 6230SOL    HW134110   1.241   3.519  11.066 -0.1999 -0.2895 -2.9712
 6230SOL    HW234111   1.160   3.419  11.147 -1.4055  2.2862 -0.9056
 6231SOL     OW34112   3.470   4.294  11.048  0.7600  0.5344  0.0674
 6231SOL    HW134113   3.490   4.227  10.983 -0.2945  0.7818 -0.5231
 6231SOL    HW234114   3.391   4.337  11.015 -0.0935  0.3109  1.7771
 6232SOL     OW34115   0.282   1.872   2.905 -0.0960  0.2046  0.1683
 6232SOL    HW134116   0.227   1.795   2.890 -1.3362  1.3833 -1.5720
 6232SOL    HW234117   0.226   1.931   2.955 -0.3805  1.3244 -1.4172
 6233SOL     OW34118   2.372   0.925   8.339 -0.1287  0.4767  0.9884
 6233SOL    HW134119   2.441   0.965   8.286 -0.0190  0.4682  1.1241
 6233SOL    HW234120   2.378   0.831   8.318 -0.7049  0.5870  0.2994
 6234SOL     OW34121   4.107   4.863   1.395 -0.3751 -0.0935  0.1059
 6234SOL    HW134122   4.132   4.951   1.422  0.0747 -0.0740 -0.3607
 6234SOL    HW234123   4.084   4.872   1.302  3.8897 -1.2492 -1.1763
 6235SOL     OW34124   3.378   2.691  12.353 -0.7742  0.1262 -0.0647
 6235SOL    HW134125   3.296   2.643  12.365 -1.1311  0.8193  0.3393
 6235SOL    HW234126   3.352   2.784  12.361 -0.0701  0.3716 -0.6462
 6236SOL     OW34127   0.838   4.912   7.976  0.2716 -0.4246  0.1885
 6236SOL    HW134128   0.874   4.840   8.027  1.7752 -0.4720 -0.9205
 6236SOL    HW234129   0.865   4.894   7.886  2.1700  2.4190  0.1088
 6237SOL     OW34130   4.455   1.188  11.587 -0.2451  0.0629  0.7427
 6237SOL    HW134131   4.464   1.177  11.492  1.2584 -1.8219  1.0836
 6237SOL    HW234132   4.508   1.266  11.606  0.5241 -0.3124  0.2029
 6238SOL     OW34133   0.560   3.205   3.584  0.0951  0.1035  0.7388
 6238SOL    HW134134   0.631   3.254   3.543 -0.5987 -0.7770 -1.6187
 6238SOL    HW234135   0.574   3.114   3.558 -0.8706 -0.3593  1.7601
 6239SOL     OW34136   3.857   1.190   3.562  0.7006  0.2610 -0.0661
 6239SOL    HW134137   3.809   1.130   3.620  1.1523 -1.3008 -1.2796
 6239SOL    HW234138   3.828   1.277   3.589  0.5425 -0.4531  2.1932
 6240SOL     OW34139   2.736   1.543   3.669  0.3653 -0.2789 -0.8554
 6240SOL    HW134140   2.763   1.624   3.624  0.2799  0.8443  1.0321
 6240SOL    HW234141   2.818   1.507   3.703 -0.0547  1.8289  2.7614
 6241SOL     OW34142   2.677   1.912  11.852  0.1965 -0.4585 -0.4058
 6241SOL    HW134143   2.729   1.859  11.912  0.8482 -0.5727 -1.0588
 6241SOL    HW234144   2.650   1.851  11.783  1.3808  0.1451 -1.4362
 6242SOL     OW34145   3.877   1.734   8.330  0.4324  0.4092 -0.0444
 6242SOL    HW134146   3.890   1.683   8.250  1.6763  0.7025 -0.0508
 6242SOL    HW234147   3.784   1.756   8.330 -0.3696 -2.7974  0.5363
 6243SOL     OW34148   2.917   5.300   0.484 -0.0532 -0.1989  0.1844
 6243SOL    HW134149   2.995   5.258   0.446  1.2455  2.9928 -0.8989
 6243SOL    HW234150   2.951   5.355   0.554 -1.0337  2.5005 -1.3454
 6244SOL     OW34151   4.421   0.406  10.396 -0.5776  0.5906  0.1986
 6244SOL    HW134152   4.434   0.315  10.421 -0.3976  0.5167 -0.1506
 6244SOL    HW234153   4.508   0.445  10.402 -0.7532  0.8834  0.9023
 6245SOL     OW34154   0.028   3.666   1.781 -0.5001 -0.0411 -0.0450
 6245SOL    HW134155   0.026   3.597   1.715  0.3602 -1.8935  1.7912
 6245SOL    HW234156  -0.054   3.655   1.829  0.4051 -0.9424  1.3446
 6246SOL     OW34157   5.939   2.692   0.428  0.0148 -0.0509  0.5456
 6246SOL    HW134158   5.920   2.783   0.454  1.0151  0.6461 -1.0975
 6246SOL    HW234159   5.889   2.680   0.347  0.1231 -0.8720  0.6041
 6247SOL     OW34160   0.410   1.578  10.966  0.3042  0.2146 -0.0194
 6247SOL    HW134161   0.366   1.540  11.042  1.0801  0.1899  0.4195
 6247SOL    HW234162   0.461   1.651  11.001 -2.8784  3.1233 -1.1335
 6248SOL     OW34163   3.067   1.625   1.994 -0.2384  0.3324 -0.0950
 6248SOL    HW134164   3.142   1.565   1.994 -0.3005  0.2472  0.4301
 6248SOL    HW234165   3.053   1.644   2.087 -1.3500 -0.2433 -0.1430
 6249SOL     OW34166   3.837   2.037   8.272  0.0690 -0.1009 -0.0058
 6249SOL    HW134167   3.877   1.952   8.290 -2.0794 -1.3524 -0.8426
 6249SOL    HW234168   3.819   2.036   8.178  0.7865  1.6584 -0.1938
 6250SOL     OW34169   0.722   0.848  11.632  0.4737  0.3445 -0.0827
 6250SOL    HW134170   0.749   0.859  11.541  0.7873 -0.7976 -0.1288
 6250SOL    HW234171   0.668   0.925  11.650  1.2810  1.1251 -0.9040
 6251SOL     OW34172   4.778   5.385  11.818 -0.4152  0.2391 -0.0867
 6251SOL    HW134173   4.693   5.422  11.795 -0.5437  2.0647  3.0602
 6251SOL    HW234174   4.787   5.309  11.761 -3.1927  1.2206 -1.9604
 6252SOL     OW34175   1.858   1.374   8.437  0.2344 -0.3668  0.2496
 6252SOL    HW134176   1.917   1.384   8.363  0.2876 -1.4103  0.1499
 6252SOL    HW234177   1.788   1.438   8.421 -0.8759 -2.0305 -1.8025
 6253SOL     OW34178   2.630   0.620   1.019 -0.6569 -0.0158  0.2582
 6253SOL    HW134179   2.702   0.631   0.956  0.4762 -1.9028  1.1844
 6253SOL    HW234180   2.674   0.599   1.101 -2.2957 -1.6233  0.7398
 6254SOL     OW34181   3.873   0.509  11.277 -0.4143 -0.0127 -0.2893
 6254SOL    HW134182   3.880   0.418  11.305  1.5723 -0.4676 -2.1263
 6254SOL    HW234183   3.791   0.513  11.228 -2.2835  0.0470  2.7481
 6255SOL     OW34184   5.770   2.431   1.483 -0.2611 -0.4143  0.5641
 6255SOL    HW134185   5.824   2.489   1.537 -0.8075  0.2587  0.4040
 6255SOL    HW234186   5.690   2.419   1.534 -0.7250  0.1171 -0.0379
 6256SOL     OW34187   3.095   4.384   9.241  0.5750  0.5070 -0.3131
 6256SOL    HW134188   3.091   4.475   9.212 -0.9173  0.5005 -0.1653
 6256SOL    HW234189   3.050   4.384   9.325 -0.2090 -0.5226 -0.7210
 6257SOL     OW34190   4.226   1.385   3.824 -0.1978  0.4216  0.4050
 6257SOL    HW134191   4.267   1.453   3.877  0.4145 -0.7400  1.4427
 6257SOL    HW234192   4.199   1.318   3.887 -1.4190  0.0088 -0.5313
 6258SOL     OW34193   0.921   1.450   3.350 -0.2377 -0.2882  0.2641
 6258SOL    HW134194   0.873   1.473   3.270  0.2572 -1.6366 -0.4510
 6258SOL    HW234195   0.856   1.403   3.403  0.0192 -1.3289 -0.3170
 6259SOL     OW34196   2.693   0.818   4.081  0.1143  0.0329  0.3253
 6259SOL    HW134197   2.771   0.837   4.133 -0.7324 -0.9266  1.9957
 6259SOL    HW234198   2.627   0.879   4.115 -0.2122 -0.0132 -0.2243
 6260SOL     OW34199   4.614   4.047   2.317 -0.3333 -0.0648  0.0587
 6260SOL    HW134200   4.672   4.092   2.379 -0.2610  2.5448 -1.8305
 6260SOL    HW234201   4.587   3.967   2.363  2.8637 -0.1733  1.9040
 6261SOL     OW34202   5.680   2.089   9.223  0.3329  0.3726  0.0366
 6261SOL    HW134203   5.672   2.183   9.240  0.1411  0.9099 -2.8578
 6261SOL    HW234204   5.592   2.061   9.198  0.5458 -0.4300  0.1699
 6262SOL     OW34205   1.266   0.581   8.895  0.1431 -0.0232  0.1580
 6262SOL    HW134206   1.297   0.652   8.840  0.8804  0.2801  0.9538
 6262SOL    HW234207   1.344   0.530   8.915 -0.2257 -0.5087  0.3796
 6263SOL     OW34208   3.057   4.752   2.206 -0.1425  0.5375  0.2299
 6263SOL    HW134209   2.995   4.799   2.262 -0.1863  0.9392 -0.1489
 6263SOL    HW234210   3.055   4.800   2.123 -1.3414 -1.0561 -0.6843
 6264SOL     OW34211   1.246   4.687   2.097 -0.9580 -0.0549  0.0798
 6264SOL    HW134212   1.191   4.634   2.154 -1.2785  0.3076  0.1138
 6264SOL    HW234213   1.184   4.745   2.052 -0.3595  2.0528  1.9173
 6265SOL     OW34214   1.560   0.726  10.993  0.0477  0.1761  0.1722
 6265SOL    HW134215   1.548   0.715  11.088  0.5694 -1.2568  0.0927
 6265SOL    HW234216   1.649   0.696  10.976 -0.3093 -0.3371 -0.8725
 6266SOL     OW34217   5.744   5.750   1.629  0.3315 -0.2087 -0.0207
 6266SOL    HW134218   5.775   5.815   1.566  1.5961  0.6593  1.4487
 6266SOL    HW234219   5.652   5.736   1.606  0.3150  1.3377 -0.9963
 6267SOL     OW34220   0.158   5.365   0.145 -0.7509 -0.4822  0.3843
 6267SOL    HW134221   0.235   5.315   0.173  0.4241  0.3704 -1.2101
 6267SOL    HW234222   0.175   5.454   0.177 -0.9287 -0.2326 -0.2050
 6268SOL     OW34223   1.789   4.668   2.053 -0.6190  0.5151  0.3679
 6268SOL    HW134224   1.801   4.755   2.090 -1.5496  1.3014 -1.1060
 6268SOL    HW234225   1.735   4.683   1.976 -1.1172 -1.4291  0.3281
 6269SOL     OW34226   2.925   3.790   9.705  0.3722  0.0749 -0.3614
 6269SOL    HW134227   2.917   3.883   9.723  0.6235 -0.2990  1.8007
 6269SOL    HW234228   2.958   3.786   9.615 -0.9748  2.0141 -0.9749
 6270SOL     OW34229   2.478   5.006   2.311  0.0184  0.5112  0.3869
 6270SOL    HW134230   2.573   5.015   2.316  0.0358  0.3018  0.4239
 6270SOL    HW234231   2.447   5.030   2.398  0.0056  1.0073  0.2493
 6271SOL     OW34232   2.680   1.160   2.394 -1.3544 -0.1775 -0.1779
 6271SOL    HW134233   2.638   1.080   2.424 -0.4072 -0.6310 -0.0266
 6271SOL    HW234234   2.751   1.175   2.458  0.2908 -0.8133 -1.8150
 6272SOL     OW34235   4.819   5.399   9.449  0.5376 -0.1310 -0.4366
 6272SOL    HW134236   4.857   5.441   9.372  0.9238  0.6168  0.1503
 6272SOL    HW234237   4.894   5.383   9.507  0.3083 -1.0448 -0.3803
 6273SOL     OW34238   2.785   2.455   1.143 -0.5564  0.2103 -0.1451
 6273SOL    HW134239   2.802   2.526   1.205  0.4943 -0.7698  0.7324
 6273SOL    HW234240   2.745   2.386   1.196  0.2702 -0.6091 -0.5674
 6274SOL     OW34241   0.629   0.105   9.973  0.2775  0.4947  0.4256
 6274SOL    HW134242   0.646   0.168   9.903  1.0083  0.5797  0.6750
 6274SOL    HW234243   0.566   0.149  10.031  1.0475  1.1305  0.7857
 6275SOL     OW34244   5.365   5.188  11.504 -0.5903  0.0529 -0.2230
 6275SOL    HW134245   5.430   5.118  11.495 -0.7496  0.0201 -1.1651
 6275SOL    HW234246   5.383   5.226  11.590  0.8722  0.2337 -0.5856
 6276SOL     OW34247   0.457   5.558  10.818  0.2892  0.3682  0.1756
 6276SOL    HW134248   0.364   5.538  10.805  0.3398  0.7396 -0.7370
 6276SOL    HW234249   0.478   5.620  10.750  0.7808  1.6235  1.4454
 6277SOL     OW34250   5.865   4.330  11.701 -0.0309  0.4745  0.0685
 6277SOL    HW134251   5.827   4.380  11.629  0.8327  0.3643 -0.4700
 6277SOL    HW234252   5.938   4.281  11.662  0.5678  0.5568  1.0412
 6278SOL     OW34253   0.538   1.498  12.258 -0.3112  0.1756  0.0028
 6278SOL    HW134254   0.482   1.558  12.307 -0.5890  0.4038 -0.5865
 6278SOL    HW234255   0.492   1.414  12.261 -0.3673  0.2078  0.0658
 6279SOL     OW34256   2.186   1.345   9.053 -0.0228 -0.1133  0.2980
 6279SOL    HW134257   2.199   1.258   9.091 -1.6656 -0.0991  0.9422
 6279SOL    HW234258   2.169   1.401   9.129  1.4213  0.8764 -0.0683
 6280SOL     OW34259   0.777   2.994  10.236 -0.5973 -0.1536  0.1013
 6280SOL    HW134260   0.764   2.907  10.199 -0.2596 -0.3144  0.3624
 6280SOL    HW234261   0.864   3.020  10.207 -0.4491 -0.1602  0.5396
 6281SOL     OW34262   4.657   2.903  10.705 -0.5893 -0.5903  0.4539
 6281SOL    HW134263   4.618   2.857  10.631  0.6399 -1.2465  0.2008
 6281SOL    HW234264   4.630   2.994  10.694 -1.4361 -0.9077 -0.1146
 6282SOL     OW34265   5.592   5.900   7.806  0.7220  0.5770 -0.2473
 6282SOL    HW134266   5.562   5.970   7.747 -2.1920  2.0401  2.7948
 6282SOL    HW234267   5.557   5.820   7.767  1.3864  1.1359 -2.0790
 6283SOL     OW34268   2.135   5.724   3.496  0.3714  0.5163  0.2462
 6283SOL    HW134269   2.187   5.779   3.555  0.5932 -0.1359  0.6592
 6283SOL    HW234270   2.055   5.774   3.482  1.5702  2.0660 -1.2962
 6284SOL     OW34271   0.496   2.897   4.155 -0.2340  0.1520  0.4452
 6284SOL    HW134272   0.489   2.963   4.225 -2.9308  0.7708 -0.3400
 6284SOL    HW234273   0.564   2.931   4.097 -0.7128  1.6429  0.7200
 6285SOL     OW34274   2.330   0.549  11.596  0.7638 -0.1631 -0.5978
 6285SOL    HW134275   2.397   0.501  11.644  0.1330  0.5417  1.0402
 6285SOL    HW234276   2.308   0.493  11.522  0.7996 -1.9305  0.6988
 6286SOL     OW34277   1.294   4.177   0.616  0.1023  0.5322 -0.1282
 6286SOL    HW134278   1.323   4.266   0.597  0.6985  0.5702  0.9514
 6286SOL    HW234279   1.200   4.186   0.632  0.0301  0.8583 -0.7120
 6287SOL     OW34280   5.206   2.583   1.241  0.2542  0.8586 -0.2848
 6287SOL    HW134281   5.260   2.526   1.186  1.1711  1.9849 -0.5768
 6287SOL    HW234282   5.176   2.652   1.181 -1.4674  0.3009 -0.1146
 6288SOL     OW34283   1.264   0.308   0.745 -0.3133  0.2175 -0.2363
 6288SOL    HW134284   1.276   0.370   0.673 -1.2265 -0.2535 -0.8059
 6288SOL    HW234285   1.254   0.363   0.823 -2.1955  0.8329 -0.8867
 6289SOL     OW34286   5.846   2.598  10.590 -0.5993  0.4148  0.8700
 6289SOL    HW134287   5.901   2.542  10.645  2.5254  1.3680 -1.1615
 6289SOL    HW234288   5.828   2.545  10.512 -1.3256  0.6720  0.8574
 6290SOL     OW34289   4.011   1.162   9.134  0.1129 -0.1910  0.3122
 6290SOL    HW134290   4.061   1.223   9.079 -1.1694 -0.1156 -0.7879
 6290SOL    HW234291   4.018   1.078   9.088  0.4307 -0.5008  0.9206
 6291SOL     OW34292   1.782   1.261  11.600 -0.2992 -0.3070  0.1572
 6291SOL    HW134293   1.707   1.246  11.657  0.8762 -1.5489  1.4423
 6291SOL    HW234294   1.835   1.181  11.608 -0.4629 -0.8474 -3.2991
 6292SOL     OW34295   3.642   5.123   9.245 -0.3797  0.3018  0.4840
 6292SOL    HW134296   3.699   5.064   9.295 -1.7508  0.0924  1.8224
 6292SOL    HW234297   3.566   5.070   9.223  0.1867  0.4032 -1.8451
 6293SOL     OW34298   2.265   1.469  10.887 -0.2550 -0.4069  0.2309
 6293SOL    HW134299   2.316   1.463  10.806  0.0954 -0.4143  0.4499
 6293SOL    HW234300   2.181   1.508  10.861 -0.1272 -0.3764 -0.1271
 6294SOL     OW34301   0.422   3.631   9.120  0.5668  0.0184 -0.1695
 6294SOL    HW134302   0.378   3.713   9.098  0.7756  0.2202  0.1718
 6294SOL    HW234303   0.513   3.645   9.096  0.3179 -0.6601 -1.5832
 6295SOL     OW34304   4.476   4.201  12.004 -0.4399  0.1401  0.5409
 6295SOL    HW134305   4.439   4.237  12.085 -0.8553  0.0321  0.4070
 6295SOL    HW234306   4.560   4.245  11.994 -0.4531  0.2666  0.9512
 6296SOL     OW34307   1.341   5.589   9.491 -0.3455  0.0955  0.1418
 6296SOL    HW134308   1.275   5.612   9.556 -0.2475 -3.3444  1.6020
 6296SOL    HW234309   1.304   5.514   9.445  0.4270  1.2727 -2.4959
 6297SOL     OW34310   4.029   3.011  10.372  0.3274  0.2754  0.1049
 6297SOL    HW134311   4.076   2.984  10.293 -1.5641 -0.6539 -0.7285
 6297SOL    HW234312   3.944   2.968  10.365 -0.2265  0.9927  2.1689
 6298SOL     OW34313   5.079   0.547  12.302  0.0022 -0.4401  0.7412
 6298SOL    HW134314   5.118   0.460  12.298 -2.4170 -1.4613 -1.8726
 6298SOL    HW234315   5.078   0.578  12.212 -3.6778  0.1907  0.9079
 6299SOL     OW34316   3.855   4.235   8.925  0.2839 -0.0424  0.7534
 6299SOL    HW134317   3.765   4.262   8.944  0.4180  1.2209 -0.2801
 6299SOL    HW234318   3.862   4.146   8.959 -1.4268 -0.2334  0.6403
 6300SOL     OW34319   4.796   3.943   1.831 -0.0862 -0.3973 -0.2911
 6300SOL    HW134320   4.736   3.945   1.905 -1.2046 -2.8520 -1.0820
 6300SOL    HW234321   4.853   3.868   1.848  1.2766  0.5430 -0.6640
 6301SOL     OW34322   5.136   3.573   2.077 -0.1173 -0.0937  0.3683
 6301SOL    HW134323   5.218   3.622   2.078 -0.2837  0.3227 -2.1283
 6301SOL    HW234324   5.069   3.638   2.101  0.1819 -0.2170  1.5415
 6302SOL     OW34325   0.652   4.972   9.125  0.2350  0.0006  0.1903
 6302SOL    HW134326   0.698   4.923   9.193 -1.3442 -0.9891  0.5808
 6302SOL    HW234327   0.665   4.919   9.046  0.0914 -0.0862  0.2224
 6303SOL     OW34328   0.358   4.584   9.579  0.0350  0.5935 -0.0266
 6303SOL    HW134329   0.366   4.539   9.495 -1.0212  1.8631 -0.8134
 6303SOL    HW234330   0.443   4.627   9.591  0.0520  0.7217 -0.6126
 6304SOL     OW34331   0.056   4.415   3.999  0.1175 -0.0497 -0.1680
 6304SOL    HW134332   0.004   4.425   4.079 -2.0494 -1.2588 -1.3541
 6304SOL    HW234333   0.007   4.466   3.934 -0.1318 -1.9760 -1.5341
 6305SOL     OW34334   4.511   0.398   7.918  0.4899 -0.3567 -0.0756
 6305SOL    HW134335   4.599   0.401   7.957  0.4966  3.2131 -0.2209
 6305SOL    HW234336   4.494   0.488   7.891 -2.9808 -1.1360 -0.6458
 6306SOL     OW34337   3.386   2.451   1.345 -0.5732 -0.0867  0.6023
 6306SOL    HW134338   3.458   2.483   1.399 -0.4892  0.0393  0.4187
 6306SOL    HW234339   3.371   2.521   1.281 -1.9722  0.6231  1.6645
 6307SOL     OW34340   1.101   3.491  10.775 -0.0062 -0.1365  0.0796
 6307SOL    HW134341   1.189   3.483  10.737  0.6441  0.5020  1.4269
 6307SOL    HW234342   1.062   3.405  10.763 -0.2417  0.3548 -3.0811
 6308SOL     OW34343   2.323   3.304   8.027  0.1677 -0.1369  0.2205
 6308SOL    HW134344   2.238   3.269   7.999  0.3858 -0.2045 -0.3621
 6308SOL    HW234345   2.369   3.229   8.063  0.9383 -0.6353 -1.7411
 6309SOL     OW34346   3.597   3.069   9.755 -0.2412  0.3317  0.4092
 6309SOL    HW134347   3.675   3.058   9.810  0.2990  2.0860  0.0078
 6309SOL    HW234348   3.594   2.989   9.703  0.7862 -0.1564  1.0721
 6310SOL     OW34349   4.477   2.233   2.321 -0.4569  0.2781  0.6321
 6310SOL    HW134350   4.449   2.253   2.410 -0.3902 -0.4636  0.8294
 6310SOL    HW234351   4.567   2.265   2.316  0.1043 -1.1269  1.3617
 6311SOL     OW34352   1.757   4.249   3.974 -0.8315  0.0427 -0.0498
 6311SOL    HW134353   1.663   4.239   3.987 -0.9831  1.8642  0.4775
 6311SOL    HW234354   1.769   4.344   3.965  1.3048  0.1115  2.8384
 6312SOL     OW34355   3.363   2.595   7.620  0.1107  0.7209  0.0815
 6312SOL    HW134356   3.393   2.686   7.610  1.4403  0.3273  0.4705
 6312SOL    HW234357   3.427   2.543   7.572 -0.0106 -0.1269  0.8406
 6313SOL     OW34358   2.113   0.049  11.463 -0.1735 -0.0368 -0.6247
 6313SOL    HW134359   2.163   0.075  11.541 -0.1467 -1.6131 -0.0866
 6313SOL    HW234360   2.164   0.082  11.390  0.6437  0.0892 -0.0122
 6314SOL     OW34361   0.940   2.620   9.010 -1.2549  0.1532  0.1742
 6314SOL    HW134362   0.918   2.611   8.918  1.3948 -2.6696 -0.2626
 6314SOL    HW234363   0.920   2.535   9.048 -1.9964  1.1863  2.1744
 6315SOL     OW34364   2.872   3.196  10.663 -0.1546 -0.0936  0.6153
 6315SOL    HW134365   2.926   3.235  10.732  2.4011 -2.0536 -0.1709
 6315SOL    HW234366   2.895   3.245  10.584 -2.3396  1.5060  0.9515
 6316SOL     OW34367   1.099   0.263  11.587  0.5862 -0.1646  0.0382
 6316SOL    HW134368   1.093   0.177  11.630 -2.0164 -0.3916 -0.6891
 6316SOL    HW234369   1.140   0.245  11.503  0.9180 -0.5280  0.2737
 6317SOL     OW34370   3.908   3.712   2.160 -0.6036  0.2654 -0.3147
 6317SOL    HW134371   3.845   3.777   2.191 -0.6828  0.1813 -0.2998
 6317SOL    HW234372   3.887   3.701   2.067  1.0538  2.1686 -0.9467
 6318SOL     OW34373   5.594   5.539   1.954 -0.2775 -0.0602 -0.1301
 6318SOL    HW134374   5.634   5.602   1.894 -0.9575  1.3786  0.8919
 6318SOL    HW234375   5.514   5.510   1.909 -0.2381  0.2108 -0.3772
 6319SOL     OW34376   4.925   4.531   8.078 -0.4604 -0.1198 -0.1418
 6319SOL    HW134377   4.874   4.544   7.998 -1.1903 -0.5810  0.2500
 6319SOL    HW234378   4.862   4.538   8.149  0.2681  0.7305  0.4217
 6320SOL     OW34379   0.952   0.640  12.238 -0.1557  0.4830 -0.1426
 6320SOL    HW134380   1.037   0.634  12.280 -0.3171  0.6880  0.2291
 6320SOL    HW234381   0.895   0.677  12.306 -0.5895  0.1291 -0.3121
 6321SOL     OW34382   2.151   3.772   8.851  0.0072 -0.5248 -0.3097
 6321SOL    HW134383   2.196   3.815   8.778 -0.4827 -1.9312 -1.4683
 6321SOL    HW234384   2.188   3.812   8.930  0.7735  0.7856 -1.3308
 6322SOL     OW34385   4.482   4.301  10.760 -0.3435 -1.2847  0.7803
 6322SOL    HW134386   4.421   4.231  10.739 -0.4930 -0.9037 -0.0703
 6322SOL    HW234387   4.455   4.374  10.704  0.3305 -0.8203  1.0526
 6323SOL     OW34388   5.406   2.023   9.193  0.5793 -0.4270 -0.6055
 6323SOL    HW134389   5.366   1.945   9.154  1.4529 -0.3536 -1.6712
 6323SOL    HW234390   5.336   2.063   9.244  0.2052 -2.1005  0.2373
 6324SOL     OW34391   3.135   2.375   3.846 -0.0808  0.2673 -0.2142
 6324SOL    HW134392   3.178   2.341   3.768 -1.5562 -1.3330 -0.3617
 6324SOL    HW234393   3.062   2.427   3.813 -0.3480  0.0899  0.0920
 6325SOL     OW34394   4.324   0.480   3.035  0.1831 -0.5513 -0.9233
 6325SOL    HW134395   4.382   0.554   3.017  0.0486 -0.5283 -1.2651
 6325SOL    HW234396   4.236   0.513   3.017 -0.0369 -0.2782  0.5680
 6326SOL     OW34397   4.226   4.194   0.126 -0.0299  0.3976  0.5811
 6326SOL    HW134398   4.131   4.191   0.122 -0.0295  0.8408  0.2179
 6326SOL    HW234399   4.250   4.276   0.084  0.7096 -1.4092 -2.6840
 6327SOL     OW34400   2.400   1.374  11.642  0.0911 -0.3526  0.2216
 6327SOL    HW134401   2.462   1.316  11.599  0.7006  1.3284 -1.2510
 6327SOL    HW234402   2.344   1.407  11.572 -1.1274 -0.2165  1.2237
 6328SOL     OW34403   2.497   1.459   0.554  0.3681 -0.3502 -0.8187
 6328SOL    HW134404   2.477   1.388   0.615 -1.7631  0.9541  0.0551
 6328SOL    HW234405   2.448   1.437   0.474  0.4166 -0.3035 -0.8620
 6329SOL     OW34406   4.599   4.167  10.450 -0.2178  0.4945 -0.5948
 6329SOL    HW134407   4.624   4.240  10.508  0.1692  0.8590 -1.2085
 6329SOL    HW234408   4.640   4.090  10.489 -0.4072  0.6505 -0.0829
 6330SOL     OW34409   2.568   2.781  12.012 -0.2944 -0.3724  0.4689
 6330SOL    HW134410   2.646   2.726  12.010  0.0151 -0.0880  2.6492
 6330SOL    HW234411   2.586   2.851  11.950  1.8313  0.4795  1.9693
 6331SOL     OW34412   4.782   3.838  12.310  0.3526  0.2646 -0.3359
 6331SOL    HW134413   4.877   3.851  12.320  0.0735  0.7162  1.9439
 6331SOL    HW234414   4.743   3.893  12.379 -1.4617 -2.0094  0.5012
 6332SOL     OW34415   1.779   5.768   8.816 -0.2762 -0.9657  0.0777
 6332SOL    HW134416   1.732   5.758   8.732 -0.4101 -2.8619  0.3571
 6332SOL    HW234417   1.871   5.758   8.793 -0.2623 -0.8448  0.0763
 6333SOL     OW34418   1.692   4.110  10.194  0.4843 -0.0669  0.4366
 6333SOL    HW134419   1.706   4.168  10.269 -0.4073  2.2273 -1.1156
 6333SOL    HW234420   1.766   4.128  10.136 -0.9025  1.1265 -1.0090
 6334SOL     OW34421   0.017   0.714  11.125 -0.4261 -0.1149  0.1282
 6334SOL    HW134422   0.058   0.670  11.051 -0.4242  1.7902 -1.0387
 6334SOL    HW234423  -0.071   0.734  11.096  0.4791  3.2878 -0.5235
 6335SOL     OW34424   3.517   2.321   1.700 -0.7691  0.2244  0.2995
 6335SOL    HW134425   3.484   2.251   1.644 -0.1040 -0.6025  0.9271
 6335SOL    HW234426   3.577   2.277   1.761  2.0692  1.8027 -1.2713
 6336SOL     OW34427   4.326   0.828   9.921  0.1585  0.2223  0.4783
 6336SOL    HW134428   4.281   0.913   9.921 -0.3902 -0.0391 -1.5786
 6336SOL    HW234429   4.364   0.821   9.834 -1.5033 -2.5051 -0.0797
 6337SOL     OW34430   2.258   3.479  11.432  0.3206 -0.1683 -0.4879
 6337SOL    HW134431   2.265   3.383  11.428 -0.2288 -0.2132 -0.5649
 6337SOL    HW234432   2.166   3.494  11.455  1.0518  0.3066  2.1519
 6338SOL     OW34433   2.808   5.612  11.096 -0.7306  0.0847 -0.1515
 6338SOL    HW134434   2.713   5.620  11.109 -0.6962  0.8440 -0.3256
 6338SOL    HW234435   2.818   5.568  11.012 -0.9285  0.4891 -0.3886
 6339SOL     OW34436   3.749   5.677  11.587 -0.1904  0.0140  0.2673
 6339SOL    HW134437   3.755   5.771  11.566 -1.6880  0.5563  2.1087
 6339SOL    HW234438   3.753   5.633  11.503 -0.1968  1.7956 -0.6854
 6340SOL     OW34439   3.693   4.597   9.017  0.1432 -0.1980 -0.1917
 6340SOL    HW134440   3.778   4.567   9.051  0.0177 -1.7366 -1.1508
 6340SOL    HW234441   3.631   4.533   9.051 -0.7835  1.4984  1.3212
 6341SOL     OW34442   0.732   3.156   2.718  0.1498  0.2699  0.5021
 6341SOL    HW134443   0.704   3.248   2.717  0.0366  0.2345 -0.1377
 6341SOL    HW234444   0.827   3.161   2.717  0.1771  0.3968 -2.8968
 6342SOL     OW34445   3.317   4.323   2.682  0.6012 -0.3316 -0.0393
 6342SOL    HW134446   3.379   4.322   2.754  0.8731 -1.1705 -0.2682
 6342SOL    HW234447   3.365   4.359   2.608  1.1991 -2.0408 -0.5227
 6343SOL     OW34448   3.976   4.344   1.128 -0.3246 -0.2285 -0.3512
 6343SOL    HW134449   3.890   4.305   1.116 -0.4927  0.4514 -1.3871
 6343SOL    HW234450   4.017   4.339   1.041  0.2578  0.4588 -0.1196
 6344SOL     OW34451   2.175   2.687  10.746  0.2638  0.6329 -0.0043
 6344SOL    HW134452   2.256   2.644  10.718 -0.9847 -0.8256 -1.5042
 6344SOL    HW234453   2.117   2.615  10.769 -0.7506  1.6641  0.7109
 6345SOL     OW34454   3.368   5.340  11.763  0.2299  0.2392 -0.0437
 6345SOL    HW134455   3.339   5.309  11.849  0.0251  0.3727 -0.0621
 6345SOL    HW234456   3.288   5.343  11.710  0.1752  1.1826  0.0790
 6346SOL     OW34457   2.345   5.161   9.135  0.0943  0.5768  0.6090
 6346SOL    HW134458   2.339   5.180   9.041  3.1750 -0.7055  0.0775
 6346SOL    HW234459   2.362   5.067   9.138  2.0433  0.9610  2.3339
 6347SOL     OW34460   4.622   4.622   2.617 -0.0861 -0.4450  0.0956
 6347SOL    HW134461   4.633   4.714   2.593  1.0217 -0.2613  1.2509
 6347SOL    HW234462   4.540   4.620   2.667 -0.3184 -0.1559 -0.2688
 6348SOL     OW34463   4.041   4.345  12.222  0.4629  0.5554 -0.3397
 6348SOL    HW134464   4.134   4.323  12.223  0.5411  0.8465 -0.8117
 6348SOL    HW234465   4.021   4.360  12.129  0.2835  1.8779 -0.0985
 6349SOL     OW34466   4.247   4.309   9.316  0.3456 -0.1372 -0.2479
 6349SOL    HW134467   4.228   4.346   9.402 -1.4072  3.0848 -1.8942
 6349SOL    HW234468   4.195   4.229   9.311 -1.2530  0.7968  0.9141
 6350SOL     OW34469   5.064   5.601   2.724  0.1437  0.7573 -0.1702
 6350SOL    HW134470   5.063   5.511   2.692  0.3269  0.4933  0.5582
 6350SOL    HW234471   4.994   5.645   2.676 -0.6607 -0.0434  0.2495
 6351SOL     OW34472   2.971   3.977  10.640  0.1161 -0.1874  0.1175
 6351SOL    HW134473   2.981   4.013  10.727  1.6350  0.5555 -0.3558
 6351SOL    HW234474   2.996   3.885  10.649 -2.0054 -0.7162  0.9388
 6352SOL     OW34475   5.689   4.102  11.754  0.1401 -0.2290 -0.3675
 6352SOL    HW134476   5.696   4.196  11.735  3.7319  0.0623  1.8273
 6352SOL    HW234477   5.693   4.060  11.668 -0.7869  1.5576 -1.3345
 6353SOL     OW34478   5.389   0.130   9.558  0.5623  0.3268 -0.4867
 6353SOL    HW134479   5.452   0.164   9.494  0.2804  0.6127 -0.6153
 6353SOL    HW234480   5.349   0.208   9.596 -0.7602  0.1443 -1.4548
 6354SOL     OW34481   2.205   4.572   3.812 -0.3674 -0.0298 -0.5632
 6354SOL    HW134482   2.246   4.648   3.853  0.0725 -0.3490 -0.4007
 6354SOL    HW234483   2.233   4.498   3.866 -1.5184 -0.2051 -0.2031
 6355SOL     OW34484   4.428   0.798   7.610 -0.2841 -0.3930  0.2755
 6355SOL    HW134485   4.346   0.845   7.629 -0.6376 -1.4442  1.4663
 6355SOL    HW234486   4.417   0.765   7.521 -0.6355  0.5481 -0.0300
 6356SOL     OW34487   2.124   1.301   2.523  0.2544 -0.0136 -0.0914
 6356SOL    HW134488   2.109   1.214   2.561 -1.7900 -0.1760 -1.2301
 6356SOL    HW234489   2.136   1.285   2.430  0.6615  0.8491 -0.1921
 6357SOL     OW34490   3.167   5.666   9.788  0.2216 -0.5462 -0.1661
 6357SOL    HW134491   3.174   5.686   9.881 -2.3910 -0.0126 -0.0595
 6357SOL    HW234492   3.214   5.738   9.745 -1.3794  0.9899  0.6081
 6358SOL     OW34493   1.148   2.272  12.457  0.0574 -0.2349  0.1455
 6358SOL    HW134494   1.128   2.208  12.525 -0.0253 -1.2520 -0.8136
 6358SOL    HW234495   1.242   2.266  12.445  0.0972  0.0718  0.2987
 6359SOL     OW34496   5.685   4.873   4.001  0.1134  0.2561  0.1499
 6359SOL    HW134497   5.740   4.933   4.051 -0.2197  1.4041 -0.8128
 6359SOL    HW234498   5.641   4.929   3.937 -0.1526 -1.0337 -0.8341
 6360SOL     OW34499   3.068   2.940   2.148 -0.1001  0.4140  0.0690
 6360SOL    HW134500   3.002   2.873   2.130  0.2887  0.2490 -0.7585
 6360SOL    HW234501   3.085   2.981   2.064 -1.1296  2.3092  0.7593
 6361SOL     OW34502   4.163   4.179  11.346 -0.3051  0.6059  0.3869
 6361SOL    HW134503   4.103   4.105  11.344  1.0398 -0.5641  1.9081
 6361SOL    HW234504   4.110   4.252  11.378 -2.0847  0.7802 -2.7703
 6362SOL     OW34505   4.264   5.863   1.346  0.3819  0.0327  0.0114
 6362SOL    HW134506   4.275   5.779   1.392  2.0840  0.2588  0.0561
 6362SOL    HW234507   4.307   5.849   1.262 -2.2138 -0.1857 -1.3113
 6363SOL     OW34508   3.788   5.249  11.373 -0.1655  0.4954  0.6403
 6363SOL    HW134509   3.758   5.259  11.463 -0.0583  0.4770  0.6790
 6363SOL    HW234510   3.836   5.167  11.372 -3.3594 -1.4673 -0.2861
 6364SOL     OW34511   1.469   4.863   2.187  0.2080  0.2382 -0.4097
 6364SOL    HW134512   1.515   4.783   2.211 -2.4053 -0.7991  1.3512
 6364SOL    HW234513   1.389   4.833   2.145 -0.2628  1.9507 -0.7889
 6365SOL     OW34514   5.178   2.785   9.819 -0.0393 -0.1243 -0.1657
 6365SOL    HW134515   5.113   2.751   9.881 -1.6879  0.0531 -1.7540
 6365SOL    HW234516   5.213   2.708   9.775 -0.2850 -0.1193 -0.3750
 6366SOL     OW34517   2.376   4.601  11.772  0.1673  0.1395 -0.2985
 6366SOL    HW134518   2.455   4.653  11.754 -0.6349  0.7454 -2.2321
 6366SOL    HW234519   2.309   4.665  11.794 -0.9709  0.0483 -3.2055
 6367SOL     OW34520   5.360   4.173  11.755 -0.3732 -0.1935 -0.3423
 6367SOL    HW134521   5.386   4.165  11.847 -0.5438 -1.2686 -0.3802
 6367SOL    HW234522   5.306   4.096  11.739  0.4395 -0.5044 -1.6184
 6368SOL     OW34523   4.364   5.575  10.617  0.0648 -0.2780  0.0333
 6368SOL    HW134524   4.427   5.620  10.674  0.2541 -0.2639 -0.1876
 6368SOL    HW234525   4.283   5.571  10.669  0.0280  0.3766  0.0232
 6369SOL     OW34526   2.392   2.946   1.653  0.3359 -0.1442 -0.1705
 6369SOL    HW134527   2.471   2.976   1.609 -0.0180  0.3855 -0.4548
 6369SOL    HW234528   2.368   2.865   1.609 -0.2016  0.5507 -1.1691
 6370SOL     OW34529   1.254   1.456   0.155 -0.2812 -0.4942 -0.7371
 6370SOL    HW134530   1.287   1.440   0.066  1.1488  0.9808 -0.4895
 6370SOL    HW234531   1.325   1.503   0.199 -0.4976 -2.2719  1.5901
 6371SOL     OW34532   0.994   5.113   9.794  0.3702 -0.5807 -0.5808
 6371SOL    HW134533   0.982   5.205   9.816  0.6203 -0.4233 -1.0823
 6371SOL    HW234534   0.934   5.066   9.851 -0.6355 -0.0182 -1.1492
 6372SOL     OW34535   3.169   5.545   8.490  0.0520 -0.7601  0.7700
 6372SOL    HW134536   3.075   5.550   8.507 -0.3474  1.6912 -1.8128
 6372SOL    HW234537   3.201   5.635   8.504  1.4225 -0.8606 -1.4723
 6373SOL     OW34538   3.934   2.210   9.775  0.3073  0.6202  0.0460
 6373SOL    HW134539   4.028   2.225   9.780  0.7233 -1.5956 -0.5769
 6373SOL    HW234540   3.910   2.232   9.685 -0.0064  2.2674  0.5074
 6374SOL     OW34541   2.755   2.249  12.213 -0.1261  0.1695  0.3442
 6374SOL    HW134542   2.704   2.238  12.133  0.2563 -0.2245  0.1496
 6374SOL    HW234543   2.690   2.260  12.282 -0.5076 -1.8085  0.3276
 6375SOL     OW34544   5.348   2.436  11.803 -0.1115  0.6191 -0.2645
 6375SOL    HW134545   5.261   2.464  11.773  0.3765  1.0096 -1.3691
 6375SOL    HW234546   5.403   2.513  11.790  0.5260  0.1898 -0.1177
 6376SOL     OW34547   2.034   3.853   3.840 -0.3195  0.0159  0.2880
 6376SOL    HW134548   1.951   3.820   3.874  0.1816 -1.0361  0.5457
 6376SOL    HW234549   2.028   3.948   3.846 -0.4588 -0.1331  2.8203
 6377SOL     OW34550   5.643   0.979   1.288  0.1147  0.1410  0.0189
 6377SOL    HW134551   5.650   1.007   1.197 -0.5707  0.0786 -0.0541
 6377SOL    HW234552   5.670   0.887   1.286  0.0959  0.1376 -0.1154
 6378SOL     OW34553   1.992   2.981   0.637  0.2933  0.3111  0.1528
 6378SOL    HW134554   2.042   2.952   0.713  0.9671  0.5635 -0.1887
 6378SOL    HW234555   2.048   2.961   0.562  0.9962  2.8799 -0.0665
 6379SOL     OW34556   3.330   5.300   8.967  0.6224 -0.0353 -0.3140
 6379SOL    HW134557   3.350   5.220   8.919 -1.7628 -1.4150  0.8835
 6379SOL    HW234558   3.267   5.346   8.911 -0.9804 -0.9077  0.7129
 6380SOL     OW34559   5.484   0.941  10.310 -0.2143 -0.4915  0.1254
 6380SOL    HW134560   5.553   0.936  10.244 -1.4980 -0.3851 -1.2649
 6380SOL    HW234561   5.526   0.981  10.386  1.4387 -1.1379 -0.4235
 6381SOL     OW34562   4.049   1.040   0.065  0.2607 -0.2253 -0.3330
 6381SOL    HW134563   4.078   0.963   0.114  1.3429  0.1698 -0.3473
 6381SOL    HW234564   4.099   1.037  -0.017 -1.8351 -1.1170 -1.6374
 6382SOL     OW34565   2.783   0.189  10.463  0.1875 -0.7721 -0.0079
 6382SOL    HW134566   2.878   0.179  10.459  0.1791 -0.7927 -0.1650
 6382SOL    HW234567   2.753   0.171  10.374  0.0328 -0.8055  0.0510
 6383SOL     OW34568   2.587   5.453  10.346 -0.3921  0.3024 -0.4002
 6383SOL    HW134569   2.635   5.535  10.334 -0.8345  0.4880 -0.9373
 6383SOL    HW234570   2.614   5.398  10.272  0.3368 -0.2545  0.2691
 6384SOL     OW34571   3.860   1.390   0.361  0.2897 -0.5373  0.2940
 6384SOL    HW134572   3.839   1.389   0.455  1.0378 -1.2213  0.4635
 6384SOL    HW234573   3.886   1.300   0.341 -1.4298 -0.7751 -0.9543
 6385SOL     OW34574   2.699   1.460   8.798 -0.4208  0.2189 -0.7429
 6385SOL    HW134575   2.672   1.549   8.774 -1.2015 -0.0399 -0.8699
 6385SOL    HW234576   2.616   1.414   8.812 -0.0335 -0.6035 -1.1063
 6386SOL     OW34577   2.041   4.515   3.292 -0.3611  0.0100  0.1275
 6386SOL    HW134578   2.034   4.564   3.210 -0.1201 -0.4840 -0.1953
 6386SOL    HW234579   2.098   4.568   3.347 -0.6440  0.4184  0.0309
 6387SOL     OW34580   1.086   5.121   7.920  0.3581  0.0553  0.1402
 6387SOL    HW134581   1.143   5.121   7.997 -1.3178 -0.5802  1.4155
 6387SOL    HW234582   1.120   5.051   7.865 -0.8761 -2.2524  2.2071
 6388SOL     OW34583   0.469   0.716   8.723  0.1686 -0.3617 -0.0576
 6388SOL    HW134584   0.394   0.765   8.690  0.3960 -0.9822 -1.5094
 6388SOL    HW234585   0.488   0.651   8.655  2.1289 -0.0982  0.2072
 6389SOL     OW34586   1.219   4.071   2.852 -0.4701  0.1777 -0.9099
 6389SOL    HW134587   1.223   4.167   2.851 -0.7644  0.1914 -0.9394
 6389SOL    HW234588   1.171   4.050   2.932 -0.7467  0.0682 -1.1037
 6390SOL     OW34589   2.118   1.941  10.309  0.5929 -0.1006  0.8088
 6390SOL    HW134590   2.188   1.878  10.295 -0.3689 -0.9991 -0.1004
 6390SOL    HW234591   2.044   1.906  10.259  0.2018  2.0150 -0.1607
 6391SOL     OW34592   0.692   3.482  11.664 -0.1508  0.5076 -0.4713
 6391SOL    HW134593   0.622   3.420  11.644 -0.4636  0.5333  0.5099
 6391SOL    HW234594   0.768   3.427  11.680 -0.2774  0.4062 -0.2087
 6392SOL     OW34595   1.665   2.548   3.452  0.3868 -0.1135  0.2309
 6392SOL    HW134596   1.630   2.635   3.471  0.6399 -0.2641  1.4111
 6392SOL    HW234597   1.626   2.525   3.367  0.6451  1.3107 -0.2840
 6393SOL     OW34598   5.796   1.440   8.208  0.1226  0.1250  0.1096
 6393SOL    HW134599   5.734   1.377   8.171  1.3407 -0.3205 -1.2508
 6393SOL    HW234600   5.769   1.524   8.173  1.0310 -0.2427 -1.5112
 6394SOL     OW34601   1.496   1.511   2.830  0.3184  0.0163 -0.1967
 6394SOL    HW134602   1.467   1.580   2.889 -0.9588 -0.1158 -0.6617
 6394SOL    HW234603   1.433   1.513   2.757  2.4561  0.8972 -2.0970
 6395SOL     OW34604   0.580   2.941   3.532  0.3771 -0.0190 -0.5245
 6395SOL    HW134605   0.600   2.972   3.444  1.2503 -0.7443 -0.5954
 6395SOL    HW234606   0.549   2.851   3.520 -1.2649  0.4991 -0.2463
 6396SOL     OW34607   1.298   1.831   2.863 -0.4011 -0.0594 -0.6209
 6396SOL    HW134608   1.344   1.785   2.933 -1.6446  0.6273  0.6938
 6396SOL    HW234609   1.333   1.794   2.782  0.3074 -1.6191  0.3730
 6397SOL     OW34610   0.565   4.385   2.687 -0.3357 -0.4409  0.4001
 6397SOL    HW134611   0.595   4.415   2.773 -1.3691 -1.3647  1.0880
 6397SOL    HW234612   0.470   4.394   2.689 -0.2893  0.6505 -1.0829
 6398SOL     OW34613   2.909   4.725   3.074 -0.2578  0.2091  0.5723
 6398SOL    HW134614   2.895   4.660   3.143 -0.5360 -0.0436  0.2840
 6398SOL    HW234615   2.970   4.683   3.013  0.5521  0.7088  1.0308
 6399SOL     OW34616   3.268   4.865  11.419  0.2407 -0.0031 -0.4518
 6399SOL    HW134617   3.233   4.888  11.333  1.7686 -0.5643 -1.2320
 6399SOL    HW234618   3.347   4.918  11.428 -1.3522  2.1464  1.7964
 6400SOL     OW34619   3.008   1.616   3.291 -0.4376 -0.0143  0.1228
 6400SOL    HW134620   3.064   1.678   3.338  1.4191 -0.4373 -1.4758
 6400SOL    HW234621   3.001   1.540   3.350  0.5326  0.1087  0.3962
 6401SOL     OW34622   3.767   1.034   8.212 -0.0745 -0.6939  0.1915
 6401SOL    HW134623   3.777   0.940   8.195 -0.3480 -0.6909  0.0109
 6401SOL    HW234624   3.852   1.061   8.247  0.1872 -0.8891 -0.2921
 6402SOL     OW34625   0.496   4.309   8.161  0.4162  0.2696  0.4821
 6402SOL    HW134626   0.576   4.258   8.171  0.6410  0.3866 -0.6301
 6402SOL    HW234627   0.526   4.397   8.138  0.0179  0.7568  1.7907
 6403SOL     OW34628   4.641   3.438  12.438 -0.1093  0.3305 -0.1151
 6403SOL    HW134629   4.672   3.451  12.348 -1.3850  3.5855 -0.1554
 6403SOL    HW234630   4.717   3.404  12.484  0.9233 -0.2544 -2.1661
 6404SOL     OW34631   2.779   0.456   2.427 -0.1537 -0.2967  0.3184
 6404SOL    HW134632   2.739   0.543   2.420 -0.9450 -0.7492 -1.0215
 6404SOL    HW234633   2.842   0.465   2.498  0.7551  1.7686 -0.6901
 6405SOL     OW34634   3.903   5.547  10.044 -0.1419  0.0798  0.1991
 6405SOL    HW134635   3.979   5.604  10.058  1.6969 -1.8939 -1.3239
 6405SOL    HW234636   3.912   5.479  10.110 -0.1103 -0.6232 -0.5241
 6406SOL     OW34637   4.202   5.039   0.322  0.6148  0.1718  0.0132
 6406SOL    HW134638   4.260   5.041   0.245  0.6801  0.2879  0.0638
 6406SOL    HW234639   4.214   5.125   0.362 -0.6563  0.7162 -0.7559
 6407SOL     OW34640   2.245   0.364   9.632  0.1294 -0.3123  0.1812
 6407SOL    HW134641   2.153   0.363   9.605  0.6860  3.1913 -2.1784
 6407SOL    HW234642   2.242   0.354   9.727 -2.7195  0.1359  0.1958
 6408SOL     OW34643   3.144   0.515   0.484  0.1351  0.0696 -0.9307
 6408SOL    HW134644   3.104   0.592   0.443 -3.5625 -0.2689  1.8018
 6408SOL    HW234645   3.101   0.441   0.442  1.1691 -0.4401 -1.1009
 6409SOL     OW34646   0.356   0.957   9.469 -0.3731  0.4292 -0.3131
 6409SOL    HW134647   0.404   0.976   9.388 -1.6879  1.5752 -0.8457
 6409SOL    HW234648   0.297   0.886   9.445 -0.9018  0.9009 -0.4218
 6410SOL     OW34649   2.815   5.717   8.358  0.4884 -0.2577 -0.0516
 6410SOL    HW134650   2.746   5.652   8.371 -0.9292  0.8613 -1.7576
 6410SOL    HW234651   2.876   5.676   8.298  0.7508 -0.8338  0.5966
 6411SOL     OW34652   3.026   4.771   0.979 -0.0443 -0.0588 -0.0490
 6411SOL    HW134653   3.098   4.747   1.037 -0.3035  0.0221  0.3123
 6411SOL    HW234654   2.947   4.753   1.030 -0.3082 -1.1374 -0.8249
 6412SOL     OW34655   1.545   2.160   0.286  0.2667  0.3483 -0.0904
 6412SOL    HW134656   1.615   2.161   0.351 -0.9812  0.6450  1.2716
 6412SOL    HW234657   1.517   2.251   0.279  0.1147  0.2551 -0.7258
 6413SOL     OW34658   2.591   1.947   2.274 -0.0434 -0.2537 -0.8230
 6413SOL    HW134659   2.521   1.884   2.257 -0.6377  0.5316 -1.2738
 6413SOL    HW234660   2.561   1.998   2.349  0.4688 -0.5395 -0.4146
 6414SOL     OW34661   0.497   3.804   0.802  0.4568  0.1090  0.2554
 6414SOL    HW134662   0.438   3.835   0.872  1.3590  1.4279  0.4554
 6414SOL    HW234663   0.585   3.821   0.836  0.9441 -0.9871 -0.4303
 6415SOL     OW34664   5.020   2.327   1.798  0.4122 -0.3638  0.3764
 6415SOL    HW134665   4.934   2.287   1.804 -0.5475  0.9422 -3.3149
 6415SOL    HW234666   5.026   2.384   1.875 -1.7962 -0.8209  0.9091
 6416SOL     OW34667   3.041   1.511  11.390  0.3853 -0.4222  0.5521
 6416SOL    HW134668   3.031   1.577  11.459  1.3312  0.4311 -0.1062
 6416SOL    HW234669   3.129   1.475  11.404  0.8706  0.2533 -0.6042
 6417SOL     OW34670   2.709   4.869  10.098  0.1944  0.0734  0.8232
 6417SOL    HW134671   2.632   4.864  10.041  0.3189 -1.2459  0.7584
 6417SOL    HW234672   2.709   4.959  10.129  0.3300  0.9292 -1.5532
 6418SOL     OW34673   0.456   2.300  10.176  0.2610  0.4881  0.4553
 6418SOL    HW134674   0.408   2.345  10.106  1.0587  0.0114 -0.4232
 6418SOL    HW234675   0.409   2.321  10.256  0.0361  2.0615 -0.0741
 6419SOL     OW34676   4.843   2.829   3.332 -0.3265 -0.4746  0.0619
 6419SOL    HW134677   4.884   2.778   3.403 -0.4379  1.3046  1.4206
 6419SOL    HW234678   4.751   2.835   3.356 -0.5127 -0.5046 -0.6316
 6420SOL     OW34679   4.646   5.492   1.697 -0.1438  0.6779  0.3188
 6420SOL    HW134680   4.677   5.426   1.634 -1.8857 -1.2606  1.4324
 6420SOL    HW234681   4.719   5.502   1.759  0.3445  0.2372 -0.1718
 6421SOL     OW34682   4.072  -0.002   9.898 -0.4198 -0.4230  0.7123
 6421SOL    HW134683   4.159   0.027   9.923 -0.0721 -1.2136  0.4482
 6421SOL    HW234684   4.062   0.027   9.808 -0.7341  0.3373  0.9896
 6422SOL     OW34685   2.761   5.039   0.010 -0.2255 -0.4907 -0.5086
 6422SOL    HW134686   2.845   4.998   0.030 -0.0817 -0.3058 -0.7242
 6422SOL    HW234687   2.750   5.105   0.079 -0.7892 -1.3661  0.2479
 6423SOL     OW34688   0.779   4.331   9.426  0.2775 -0.0600 -0.3352
 6423SOL    HW134689   0.845   4.283   9.475  2.4728  0.5298 -2.6096
 6423SOL    HW234690   0.735   4.265   9.372 -0.6563 -0.3647  0.7740
 6424SOL     OW34691   2.715   0.878   3.779  0.3283  0.3851 -0.1115
 6424SOL    HW134692   2.801   0.840   3.798 -0.2743 -1.2705 -0.5709
 6424SOL    HW234693   2.682   0.907   3.864  1.3695  1.1414  0.0525
 6425SOL     OW34694   3.683   3.329   8.079 -0.3482 -1.0987  0.2393
 6425SOL    HW134695   3.699   3.413   8.122 -1.5002 -0.8897  0.2820
 6425SOL    HW234696   3.706   3.345   7.987 -1.1935 -0.5474  0.1211
 6426SOL     OW34697   2.580   3.765   3.750 -0.0880  0.5981  0.6254
 6426SOL    HW134698   2.486   3.780   3.737  0.1375 -0.2109 -2.0579
 6426SOL    HW234699   2.617   3.853   3.757 -0.7766  0.9753 -0.3676
 6427SOL     OW34700   5.543   3.600   0.738  0.3521  0.0213  0.4691
 6427SOL    HW134701   5.638   3.587   0.744  0.5308  0.8646 -0.4599
 6427SOL    HW234702   5.517   3.633   0.824  1.2655  2.0171  0.0057
 6428SOL     OW34703   3.715   4.949   3.206  0.1751 -0.0297  0.1872
 6428SOL    HW134704   3.692   4.873   3.153  0.7779 -0.7609  0.9621
 6428SOL    HW234705   3.680   5.024   3.158 -0.3011 -0.7884 -0.6465
 6429SOL     OW34706   2.529   0.591   0.775  0.6752 -0.0163 -0.0963
 6429SOL    HW134707   2.554   0.679   0.747 -1.7559  0.9912  0.7826
 6429SOL    HW234708   2.571   0.581   0.861  2.7749 -0.6005 -1.1611
 6430SOL     OW34709   0.308   5.689   8.905  0.9254 -0.3543  0.3260
 6430SOL    HW134710   0.289   5.748   8.978 -1.4650  0.2729 -0.7630
 6430SOL    HW234711   0.222   5.666   8.870  1.9821 -1.8943 -1.3262
 6431SOL     OW34712   3.645   3.228   8.647  0.4013 -0.2781 -0.3310
 6431SOL    HW134713   3.630   3.309   8.599  0.7582 -1.4022 -2.3944
 6431SOL    HW234714   3.600   3.161   8.595  3.3301 -2.0002 -0.7554
 6432SOL     OW34715   1.722   0.781   1.591  0.0288 -0.1560 -0.0834
 6432SOL    HW134716   1.754   0.853   1.644 -0.0826 -0.8230  0.9061
 6432SOL    HW234717   1.732   0.811   1.500  0.7391  0.7677  0.2952
 6433SOL     OW34718   1.471   3.980  10.213 -0.3760 -0.6049  0.1271
 6433SOL    HW134719   1.407   4.006  10.146 -1.1981 -0.1916  1.0633
 6433SOL    HW234720   1.547   4.035  10.197 -0.5238 -0.5887 -0.5404
 6434SOL     OW34721   1.513   3.231  10.584 -0.1116  0.0399 -0.0386
 6434SOL    HW134722   1.520   3.146  10.540 -1.5000  0.0696 -0.3180
 6434SOL    HW234723   1.480   3.290  10.517 -0.3047  0.5328  0.4905
 6435SOL     OW34724   4.306   0.433   1.696  0.1828  1.1121 -0.0870
 6435SOL    HW134725   4.276   0.363   1.638 -1.9056  2.5666 -0.8288
 6435SOL    HW234726   4.236   0.441   1.761  1.0154  1.6313  0.7446
 6436SOL     OW34727   4.211   3.307   0.948  0.5122  0.1840 -0.0040
 6436SOL    HW134728   4.267   3.343   1.016 -0.8947 -0.6939  1.6511
 6436SOL    HW234729   4.214   3.212   0.961 -2.8612  0.1775  1.4127
 6437SOL     OW34730   5.806   1.689   0.896  0.0144 -0.2029 -0.1509
 6437SOL    HW134731   5.807   1.612   0.839  0.7121 -1.1813  1.1732
 6437SOL    HW234732   5.715   1.718   0.895 -0.5913 -2.0328  0.6640
 6438SOL     OW34733   5.209   5.283   0.566 -0.1853 -0.0800 -0.1242
 6438SOL    HW134734   5.168   5.197   0.552  0.5135 -0.5656  0.7643
 6438SOL    HW234735   5.137   5.338   0.598 -0.2442 -0.8234  1.0589
 6439SOL     OW34736   2.692   3.525   1.062  0.4548  0.1028 -0.1476
 6439SOL    HW134737   2.661   3.480   1.141 -0.6485  1.1647  0.0369
 6439SOL    HW234738   2.648   3.481   0.990 -0.9520  1.1427  0.0625
 6440SOL     OW34739   5.709   3.977  12.155 -0.3430 -0.3235  0.1511
 6440SOL    HW134740   5.668   4.001  12.238 -0.7521 -0.0059 -0.1406
 6440SOL    HW234741   5.682   4.046  12.094  2.0601  0.8765  0.3819
 6441SOL     OW34742   3.326   3.034  11.935  0.0681  0.4743  0.3897
 6441SOL    HW134743   3.374   3.116  11.926 -2.1407  1.7425 -0.2419
 6441SOL    HW234744   3.243   3.059  11.975 -0.9869 -1.3255 -0.5914
 6442SOL     OW34745   4.223   5.326   1.168 -0.4196  0.1319 -0.0223
 6442SOL    HW134746   4.293   5.333   1.103 -1.9357  1.4446 -1.5756
 6442SOL    HW234747   4.261   5.361   1.248  1.6428 -1.9861 -0.0375
 6443SOL     OW34748   4.826   0.648   2.582 -0.3645  0.0911  0.1369
 6443SOL    HW134749   4.759   0.632   2.648  0.2788  1.0003  1.0314
 6443SOL    HW234750   4.783   0.629   2.499 -2.9584  4.2431  0.3685
 6444SOL     OW34751   0.849   5.253  10.429 -0.6930 -0.2051 -0.2646
 6444SOL    HW134752   0.767   5.219  10.394 -0.7618  0.1811 -0.4904
 6444SOL    HW234753   0.861   5.207  10.512 -1.9089  0.8354  0.5031
 6445SOL     OW34754   5.771   3.631   1.983  1.0396  0.0171 -0.4542
 6445SOL    HW134755   5.828   3.587   2.045 -0.2974 -0.5414  0.4133
 6445SOL    HW234756   5.700   3.667   2.036  0.8336  1.1074 -1.4445
 6446SOL     OW34757   0.092   4.660  11.818 -0.3655  0.0753 -0.4856
 6446SOL    HW134758   0.064   4.643  11.728  1.4625 -1.6998 -0.7615
 6446SOL    HW234759   0.138   4.580  11.844  2.9807  2.2424  0.4753
 6447SOL     OW34760   5.655   0.140  10.771 -0.1198 -0.5623  0.0978
 6447SOL    HW134761   5.679   0.095  10.852  1.2431 -0.4550 -0.2453
 6447SOL    HW234762   5.677   0.078  10.701 -0.8921 -0.4851 -0.2210
 6448SOL     OW34763   2.053   2.574   4.024  0.2180 -0.2366  0.8730
 6448SOL    HW134764   1.965   2.537   4.019 -0.5118  1.4910  0.6658
 6448SOL    HW234765   2.041   2.668   4.012  2.1610 -0.0392  0.2436
 6449SOL     OW34766   3.443   5.190   3.733  0.1084  0.0713 -0.1061
 6449SOL    HW134767   3.360   5.146   3.750 -0.4750  1.4490  0.6853
 6449SOL    HW234768   3.422   5.284   3.739  1.8482  0.4206  0.6963
 6450SOL     OW34769   5.258   0.149   8.965  0.3841 -0.4227  0.4179
 6450SOL    HW134770   5.183   0.120   9.017  1.2437 -0.7428  1.5074
 6450SOL    HW234771   5.271   0.080   8.900 -0.6111 -0.0913 -0.1304
 6451SOL     OW34772   3.253   0.334  12.446 -0.2110  0.4942  0.3154
 6451SOL    HW134773   3.250   0.371  12.534  1.6213  2.4806 -0.4376
 6451SOL    HW234774   3.292   0.247  12.458 -1.4445  0.0984  1.6344
 6452SOL     OW34775   2.744   3.729  11.782  0.2705  0.0181 -0.1372
 6452SOL    HW134776   2.730   3.711  11.875 -1.5096  1.7547 -0.0318
 6452SOL    HW234777   2.663   3.771  11.753  0.6651 -0.7645 -2.5623
 6453SOL     OW34778   4.891   4.051   0.823  0.1224  0.2993  0.2229
 6453SOL    HW134779   4.826   3.983   0.802  0.5364  0.3639 -1.3088
 6453SOL    HW234780   4.867   4.080   0.911 -1.5108 -0.1636 -0.0472
 6454SOL     OW34781   1.830   5.476  10.495 -0.0676 -0.4194 -0.8705
 6454SOL    HW134782   1.905   5.519  10.535 -2.1875  1.5058  1.1488
 6454SOL    HW234783   1.837   5.499  10.402  1.5502  0.1288 -0.6406
 6455SOL     OW34784   2.874   3.261  12.278 -0.6090  0.4069  0.4021
 6455SOL    HW134785   2.919   3.345  12.268  1.3126 -0.3736  2.1444
 6455SOL    HW234786   2.831   3.247  12.193  1.2470  1.8673 -0.8355
 6456SOL     OW34787   4.810   2.971  11.053  0.4763  0.4529  0.6343
 6456SOL    HW134788   4.817   2.908  11.125  0.6690 -0.4157 -0.1390
 6456SOL    HW234789   4.881   2.948  10.993 -0.6585  0.1671 -0.6170
 6457SOL     OW34790   4.826   5.261  11.508  0.0123  0.3657  0.0608
 6457SOL    HW134791   4.920   5.266  11.527  0.3456  0.2700 -1.5405
 6457SOL    HW234792   4.799   5.353  11.500  0.4415  0.3449 -1.7343
 6458SOL     OW34793   2.008   2.179   9.497  0.1648  0.1497 -0.0853
 6458SOL    HW134794   1.983   2.157   9.587  0.3510  0.3075  0.0070
 6458SOL    HW234795   2.091   2.133   9.484 -0.1165 -0.2878 -0.3535
 6459SOL     OW34796   3.412   4.035   1.916 -0.0963  0.3300 -0.3708
 6459SOL    HW134797   3.395   3.944   1.942  0.5902  0.0488 -0.8671
 6459SOL    HW234798   3.333   4.082   1.940  0.2313 -0.0644  1.5254
 6460SOL     OW34799   4.349   2.173   0.669  0.2504 -0.0409  0.1341
 6460SOL    HW134800   4.437   2.150   0.696  0.5729  0.6516 -0.2950
 6460SOL    HW234801   4.361   2.249   0.612 -0.5988 -0.1118 -0.1465
 6461SOL     OW34802   1.613   0.601  10.283 -0.0437 -0.6639  0.2444
 6461SOL    HW134803   1.529   0.574  10.322 -0.8605  1.1876 -0.1761
 6461SOL    HW234804   1.663   0.520  10.277 -2.2649 -2.0385 -0.6401
 6462SOL     OW34805   1.604   5.904   9.559 -0.7215  0.1135 -0.1855
 6462SOL    HW134806   1.552   5.825   9.546 -0.5217  0.0957 -0.9020
 6462SOL    HW234807   1.541   5.976   9.555 -0.8946  0.0003  0.4030
 6463SOL     OW34808   2.557   2.969   1.241  0.3626  0.8560 -0.4129
 6463SOL    HW134809   2.570   2.994   1.333  0.4482  1.0250 -0.4708
 6463SOL    HW234810   2.576   2.875   1.239 -0.7723  0.6055 -0.0341
 6464SOL     OW34811   4.177   0.261   8.687  0.6810  0.4286 -0.3185
 6464SOL    HW134812   4.096   0.230   8.646  0.7748 -0.1969 -0.0353
 6464SOL    HW234813   4.246   0.215   8.639  0.8018 -0.1466  0.4078
 6465SOL     OW34814   4.736   0.815  12.078 -0.1437 -0.5165  0.3563
 6465SOL    HW134815   4.723   0.728  12.116  1.1432 -0.6557  0.4994
 6465SOL    HW234816   4.791   0.800  12.001 -0.7175  0.0590 -0.1786
 6466SOL     OW34817   3.031   5.792   8.521  0.6563  0.1054 -0.3776
 6466SOL    HW134818   2.986   5.777   8.438  0.7475 -1.7748 -0.1207
 6466SOL    HW234819   2.984   5.737   8.584 -0.6568  2.9991  1.2850
 6467SOL     OW34820   2.369   4.137   8.266 -0.0970  0.3888 -0.0402
 6467SOL    HW134821   2.410   4.102   8.186 -0.6130 -0.0993 -0.0971
 6467SOL    HW234822   2.421   4.099   8.337 -1.5859 -1.7689 -0.0421
 6468SOL     OW34823   3.898   2.167   8.771 -0.3675  0.3728  0.0798
 6468SOL    HW134824   3.874   2.260   8.763 -1.7832 -0.0107 -0.2469
 6468SOL    HW234825   3.874   2.129   8.687 -0.7032 -0.4953  0.5656
 6469SOL     OW34826   3.045   1.611   9.705  0.4352  0.1035 -0.1090
 6469SOL    HW134827   3.126   1.651   9.672 -0.0481  3.6012  2.6024
 6469SOL    HW234828   3.069   1.574   9.789 -0.4796 -0.0276  0.1024
 6470SOL     OW34829   3.877   4.681  10.590  0.0892 -0.2107  0.0740
 6470SOL    HW134830   3.871   4.622  10.666 -0.4532  0.3146  0.4439
 6470SOL    HW234831   3.962   4.724  10.600  0.3402 -0.6871 -0.0125
 6471SOL     OW34832   1.950   2.381  10.505  0.6507 -0.0514  0.2112
 6471SOL    HW134833   1.922   2.292  10.484  0.4468 -0.3349  1.6752
 6471SOL    HW234834   1.871   2.425  10.535  1.0057  0.2507  0.7079
 6472SOL     OW34835   3.088   3.726  10.642  0.2691  0.0591 -0.4152
 6472SOL    HW134836   3.091   3.727  10.547 -0.7409  3.2102 -0.4658
 6472SOL    HW234837   3.109   3.636  10.666  1.4164 -0.5652 -3.5625
 6473SOL     OW34838   2.791   0.101   0.816 -0.6383  0.5190  0.0865
 6473SOL    HW134839   2.730   0.146   0.876 -1.6123  1.5032 -1.5960
 6473SOL    HW234840   2.759   0.123   0.729 -0.2059 -2.2348 -0.8110
 6474SOL     OW34841   0.660   1.284   0.441 -0.1092  0.2767 -0.2399
 6474SOL    HW134842   0.718   1.360   0.442 -0.3028  0.4526 -1.5526
 6474SOL    HW234843   0.589   1.308   0.381 -0.6584 -0.5751  0.0585
 6475SOL     OW34844   1.887   3.600   2.803  0.3388 -0.5068 -0.2831
 6475SOL    HW134845   1.806   3.639   2.836  0.6874 -0.4875  0.5662
 6475SOL    HW234846   1.928   3.561   2.880  1.0371 -0.6996 -0.7452
 6476SOL     OW34847   1.261   2.897  11.935  0.0988  0.4241  0.8114
 6476SOL    HW134848   1.224   2.809  11.924 -0.2390  0.7557 -0.6827
 6476SOL    HW234849   1.300   2.894  12.023  0.8437 -1.4986  0.4575
 6477SOL     OW34850   2.056   4.320   0.639  0.5811  0.0949  0.2168
 6477SOL    HW134851   2.037   4.397   0.585  1.3601  0.0053 -0.1922
 6477SOL    HW234852   2.109   4.264   0.583  0.6121 -0.4219  0.7604
 6478SOL     OW34853   3.299   0.750   2.288  0.2022  0.4406  0.3721
 6478SOL    HW134854   3.271   0.697   2.213  1.1293  0.0215  0.3186
 6478SOL    HW234855   3.238   0.823   2.289 -0.2261  0.1031 -0.3994
 6479SOL     OW34856   0.116   2.059   8.296  0.4178  0.7326  0.5766
 6479SOL    HW134857   0.037   2.104   8.265 -0.0724  0.0798  0.8520
 6479SOL    HW234858   0.104   1.968   8.268  0.3414  0.3015  1.9461
 6480SOL     OW34859   1.966   2.731   1.135  0.1792 -0.3753 -0.3774
 6480SOL    HW134860   2.016   2.778   1.067 -0.7744 -0.2203 -0.9777
 6480SOL    HW234861   1.944   2.799   1.199  0.4303 -0.3795 -0.2820
 6481SOL     OW34862   4.789   0.478   0.701  0.1322  0.0552 -0.8411
 6481SOL    HW134863   4.823   0.402   0.749  1.4295  0.8307 -0.5129
 6481SOL    HW234864   4.766   0.541   0.769 -0.0702  0.3155 -1.1477
 6482SOL     OW34865   0.293   2.347  10.401 -0.2140 -0.2317  0.0185
 6482SOL    HW134866   0.197   2.351  10.393 -0.3658 -0.3910  1.6931
 6482SOL    HW234867   0.316   2.425  10.450  0.3360 -1.0953  1.1525
 6483SOL     OW34868   4.720   1.577   8.419 -0.5574  0.0816  0.0264
 6483SOL    HW134869   4.762   1.529   8.491 -1.5527 -0.6299  0.1340
 6483SOL    HW234870   4.677   1.510   8.367 -1.4947  0.8055 -0.1421
 6484SOL     OW34871   4.535   5.383   9.843  0.2927 -0.2341 -0.0832
 6484SOL    HW134872   4.511   5.331   9.766  0.4364  0.4465 -0.5967
 6484SOL    HW234873   4.574   5.463   9.806 -0.1623  0.3502  0.6847
 6485SOL     OW34874   2.028   2.746  10.268 -0.0622  0.2702 -0.3432
 6485SOL    HW134875   1.953   2.748  10.328  1.8169 -0.9796  2.1062
 6485SOL    HW234876   2.060   2.836  10.266  0.2849  0.1760  1.0691
 6486SOL     OW34877   4.362   3.735   2.158  0.0692 -0.3674  0.4430
 6486SOL    HW134878   4.297   3.790   2.114  1.5429  0.6061 -0.5649
 6486SOL    HW234879   4.368   3.772   2.246 -1.9879 -1.5535  1.1228
 6487SOL     OW34880   4.074   2.781  12.264  0.1428  0.2362  0.3617
 6487SOL    HW134881   4.054   2.869  12.232 -1.6407 -0.4721 -0.5039
 6487SOL    HW234882   4.027   2.722  12.205  3.1462 -1.4398 -0.5204
 6488SOL     OW34883   1.984   0.244   9.861  0.4286 -0.4868 -0.2951
 6488SOL    HW134884   2.022   0.169   9.816 -0.1462 -0.3017 -1.1134
 6488SOL    HW234885   1.921   0.280   9.798  1.3722  1.2257 -0.2854
 6489SOL     OW34886   2.968   0.911   1.492 -0.3362 -0.1799 -0.1743
 6489SOL    HW134887   2.890   0.935   1.542 -0.0958 -1.1153  0.6702
 6489SOL    HW234888   2.933   0.874   1.410 -0.7654  0.0683 -0.1064
 6490SOL     OW34889   0.141   4.605   4.221 -0.7624 -0.5316 -0.3426
 6490SOL    HW134890   0.188   4.577   4.143 -1.1783 -1.2102 -0.3610
 6490SOL    HW234891   0.114   4.695   4.202  0.8093 -0.0149 -0.1871
 6491SOL     OW34892   1.970   0.179   3.632 -0.2715  0.1132 -0.0444
 6491SOL    HW134893   2.025   0.222   3.567  0.6492  0.7591  1.1587
 6491SOL    HW234894   1.882   0.211   3.614  0.0308  0.5729 -0.7278
 6492SOL     OW34895   5.655   1.493   9.179 -0.4876 -0.2735 -0.3498
 6492SOL    HW134896   5.595   1.418   9.180 -1.6324  0.6086 -0.4152
 6492SOL    HW234897   5.664   1.517   9.271  1.1924 -1.5017 -0.1883
 6493SOL     OW34898   1.758   4.292   8.462 -0.1600 -0.1533  0.0459
 6493SOL    HW134899   1.809   4.326   8.388 -2.5390  0.5038 -1.3512
 6493SOL    HW234900   1.704   4.223   8.423 -2.3634  1.0628  0.8941
 6494SOL     OW34901   5.087   5.764  10.339 -0.3861 -0.1695  0.6709
 6494SOL    HW134902   5.168   5.803  10.373 -0.7193 -0.8484  2.3162
 6494SOL    HW234903   5.060   5.822  10.268  1.0822  0.5419  0.6765
 6495SOL     OW34904   2.120   0.785   8.701  0.4236 -0.0640 -0.0927
 6495SOL    HW134905   2.197   0.774   8.756  0.1974 -1.8682 -0.0869
 6495SOL    HW234906   2.143   0.742   8.619 -0.2518  0.1595 -0.4034
 6496SOL     OW34907   3.111   5.157   2.563 -0.0703  0.1993 -0.4865
 6496SOL    HW134908   3.101   5.190   2.474 -0.6730  1.4265  0.0090
 6496SOL    HW234909   3.182   5.094   2.558  1.2065  1.6686 -1.4660
 6497SOL     OW34910   5.025   2.907  10.884  0.5910  0.6089  0.0891
 6497SOL    HW134911   5.085   2.981  10.889 -1.4505  2.4530 -1.4824
 6497SOL    HW234912   4.977   2.920  10.802 -0.5984 -1.8508  0.3378
 6498SOL     OW34913   1.376   4.269   9.744 -0.1960 -0.3620  0.5261
 6498SOL    HW134914   1.445   4.225   9.794  0.2257  2.1596  2.2591
 6498SOL    HW234915   1.423   4.325   9.682 -0.7111 -0.6154 -0.1030
 6499SOL     OW34916   3.266   0.580  11.044 -1.1926 -0.5674 -0.1334
 6499SOL    HW134917   3.242   0.561  11.134 -1.3218 -0.6828 -0.1922
 6499SOL    HW234918   3.214   0.657  11.021  0.4213  0.7595  0.5805
 6500SOL     OW34919   4.209   3.956   2.061  0.1251  0.0464  0.4955
 6500SOL    HW134920   4.276   4.004   2.110  0.3097  1.2811 -0.9488
 6500SOL    HW234921   4.126   3.984   2.100  0.3353 -0.0980  1.0626
 6501SOL     OW34922   0.993   0.596   9.714 -0.1071  0.6103 -0.1975
 6501SOL    HW134923   0.992   0.577   9.808 -2.5812 -0.1128 -0.3299
 6501SOL    HW234924   1.047   0.674   9.705 -0.0981  0.8583  1.8667
 6502SOL     OW34925   0.437   1.175   9.684 -0.5220 -0.7597  0.4231
 6502SOL    HW134926   0.342   1.172   9.676 -0.4915 -2.5096  0.5920
 6502SOL    HW234927   0.469   1.114   9.617  0.6135  2.0683 -1.7005
 6503SOL     OW34928   3.164   4.131   1.813 -0.2452  0.3816  0.7288
 6503SOL    HW134929   3.179   4.222   1.837  1.2330  0.1453  0.7250
 6503SOL    HW234930   3.069   4.125   1.802 -0.4542  1.6878  1.6532
 6504SOL     OW34931   4.897   0.255   0.509  0.0998 -0.3790  0.0706
 6504SOL    HW134932   4.917   0.284   0.598 -2.1298  0.1162  0.4511
 6504SOL    HW234933   4.964   0.296   0.454  1.2832 -0.4137  1.4704
 6505SOL     OW34934   1.138   4.557  10.953 -0.1088 -0.0753  0.5084
 6505SOL    HW134935   1.104   4.562  10.863  0.2880  0.6349  0.3913
 6505SOL    HW234936   1.160   4.648  10.975  0.6938 -0.3840  0.9761
 6506SOL     OW34937   4.378   1.550   2.529  0.1114  0.7367  0.1183
 6506SOL    HW134938   4.448   1.595   2.482 -0.1380  1.4308  0.4021
 6506SOL    HW234939   4.341   1.489   2.465  0.7505  0.6165 -0.1346
 6507SOL     OW34940   5.459   4.090  11.199 -0.2802 -0.5720  0.3374
 6507SOL    HW134941   5.436   4.051  11.284 -1.4140 -0.0491  0.2852
 6507SOL    HW234942   5.389   4.154  11.183  0.9891  0.7284 -0.0744
 6508SOL     OW34943   5.049   3.040   1.377  0.1459 -0.1228 -0.8593
 6508SOL    HW134944   5.028   3.085   1.459  1.2034 -1.2940  0.0638
 6508SOL    HW234945   5.136   3.003   1.391  0.5386  0.0664 -2.6891
 6509SOL     OW34946   0.249   3.141  10.366  0.0667  0.1923 -0.3195
 6509SOL    HW134947   0.233   3.197  10.290 -0.5701 -2.5079 -2.2276
 6509SOL    HW234948   0.323   3.183  10.410 -0.7448  2.8395 -1.3601
 6510SOL     OW34949   5.041   1.752   0.442 -0.0550  0.0365  0.3574
 6510SOL    HW134950   4.972   1.738   0.377  0.7952 -0.8232 -0.3700
 6510SOL    HW234951   5.028   1.682   0.506 -0.5785  0.5775  0.8469
 6511SOL     OW34952   4.276   3.063   9.953 -0.5807 -0.5281  0.0581
 6511SOL    HW134953   4.320   3.005  10.015  0.0048  0.4759  0.5981
 6511SOL    HW234954   4.255   3.008   9.878  0.3574 -1.3294  0.3849
 6512SOL     OW34955   4.311   3.635   9.732 -0.0801  0.2042 -0.5643
 6512SOL    HW134956   4.250   3.665   9.800 -0.6676 -3.5738  0.7170
 6512SOL    HW234957   4.388   3.606   9.781  1.1018  1.0883 -1.8673
 6513SOL     OW34958   1.441   2.551   3.278 -0.3153  0.5658 -0.0738
 6513SOL    HW134959   1.445   2.636   3.320 -0.3385  0.2968  0.4792
 6513SOL    HW234960   1.352   2.520   3.292  0.5456 -0.9450  2.5453
 6514SOL     OW34961   4.330   2.632   7.580  0.2559 -0.1404 -0.2019
 6514SOL    HW134962   4.334   2.668   7.668 -0.6961  1.6515 -0.8592
 6514SOL    HW234963   4.270   2.557   7.587 -0.1919  0.2847  0.5807
 6515SOL     OW34964   2.235   2.222   1.664 -0.2316 -0.2513 -0.2804
 6515SOL    HW134965   2.175   2.234   1.590 -2.4167 -1.9082  1.1478
 6515SOL    HW234966   2.322   2.231   1.626 -1.3009 -1.0867 -3.0585
 6516SOL     OW34967   2.345   3.710   9.405 -0.2553  0.6761  0.2791
 6516SOL    HW134968   2.441   3.707   9.407 -0.2181  0.2989 -1.2642
 6516SOL    HW234969   2.321   3.759   9.484  1.2643  1.9858 -0.0327
 6517SOL     OW34970   0.472   1.226   1.171  0.3729 -0.1247  0.0659
 6517SOL    HW134971   0.537   1.232   1.101  0.1035 -1.0437 -0.2752
 6517SOL    HW234972   0.391   1.258   1.131  0.3340 -0.1608  0.1147
 6518SOL     OW34973   1.459   1.846   7.901 -0.0821  0.3869 -0.1210
 6518SOL    HW134974   1.522   1.839   7.973 -0.1463 -0.8541 -0.1688
 6518SOL    HW234975   1.462   1.760   7.859 -2.6855 -0.0950  0.6047
 6519SOL     OW34976   1.195   4.903  12.058 -0.1885 -0.3967  0.4322
 6519SOL    HW134977   1.222   4.844  12.128  1.8683 -0.8492 -0.6977
 6519SOL    HW234978   1.149   4.846  11.996 -0.9592 -0.2235  0.8449
 6520SOL     OW34979   1.420   4.991   1.579 -0.1022 -0.2448 -0.0070
 6520SOL    HW134980   1.385   4.942   1.653 -0.5677  1.6544  1.0513
 6520SOL    HW234981   1.484   5.051   1.617  0.7628 -0.2794 -1.3405
 6521SOL     OW34982   0.658   2.700   8.836  0.0069  0.3466  0.5626
 6521SOL    HW134983   0.605   2.622   8.847 -1.3523  1.2482  0.4796
 6521SOL    HW234984   0.597   2.767   8.807  1.2972  1.2378 -0.1722
 6522SOL     OW34985   5.960   4.050   3.460  0.8705  0.0344 -0.3554
 6522SOL    HW134986   5.881   4.083   3.502  0.6507 -1.0501  0.1282
 6522SOL    HW234987   5.935   3.964   3.426  1.5374  0.1601 -1.1848
 6523SOL     OW34988   5.589   3.868   1.187  0.2145  0.2415 -0.2500
 6523SOL    HW134989   5.649   3.941   1.201  0.3550 -0.3173  2.2720
 6523SOL    HW234990   5.630   3.794   1.233 -2.0618 -0.2996  0.9594
 6524SOL     OW34991   2.388   3.902   0.221 -0.6657 -0.2440 -0.2501
 6524SOL    HW134992   2.363   3.875   0.133 -2.9279 -0.8860  0.5499
 6524SOL    HW234993   2.312   3.950   0.254  1.6087  3.4426 -0.0344
 6525SOL     OW34994   4.202   5.630   1.567  0.5521  0.1763 -0.3641
 6525SOL    HW134995   4.198   5.538   1.593  0.4827 -0.5217 -2.7596
 6525SOL    HW234996   4.269   5.668   1.624 -0.7262 -0.9007  1.9165
 6526SOL     OW34997   3.205   1.804   0.064  0.5359  0.4423  0.1763
 6526SOL    HW134998   3.195   1.888   0.019  1.4478 -0.2909 -1.4608
 6526SOL    HW234999   3.116   1.775   0.082  0.1654  1.0819 -0.5815
 6527SOL     OW35000   0.938   2.852  10.492  0.2735 -0.2666  0.7051
 6527SOL    HW135001   0.990   2.891  10.562  0.8116  1.3949 -0.5776
 6527SOL    HW235002   0.991   2.863  10.413 -0.8938 -0.8941 -0.1885
 6528SOL     OW35003   4.150   0.151   3.091 -0.1955  0.0912 -0.6192
 6528SOL    HW135004   4.218   0.214   3.114  0.6201 -1.0109  0.0259
 6528SOL    HW235005   4.174   0.071   3.138 -2.3777 -0.0797  0.2392
 6529SOL     OW35006   1.038   3.977   8.369 -0.1695  0.0331 -0.2254
 6529SOL    HW135007   1.004   3.999   8.283 -0.3303  1.3152  0.1576
 6529SOL    HW235008   0.989   4.032   8.430  0.3030 -0.4758  0.6389
 6530SOL     OW35009   2.767   5.221   7.905  0.4963 -0.7237 -0.2796
 6530SOL    HW135010   2.689   5.246   7.856  0.0848 -1.1182  0.1677
 6530SOL    HW235011   2.751   5.130   7.931  1.0166 -0.7411 -0.0156
 6531SOL     OW35012   2.106   4.255   8.885  0.3267 -0.3704 -0.1858
 6531SOL    HW135013   2.042   4.203   8.836 -0.0886 -0.1431  0.1088
 6531SOL    HW235014   2.055   4.296   8.954  0.4149  1.3214 -1.0887
 6532SOL     OW35015   5.235   3.814   3.236  0.0600  0.8663 -0.0016
 6532SOL    HW135016   5.191   3.765   3.306  0.7171 -0.8725 -0.7709
 6532SOL    HW235017   5.248   3.749   3.167 -0.6610  2.5849 -1.7785
 6533SOL     OW35018   1.067   2.396   1.779  0.0545  0.1317 -0.1532
 6533SOL    HW135019   1.008   2.470   1.791 -0.6336 -0.5462  0.8006
 6533SOL    HW235020   1.061   2.375   1.686 -0.6528  0.5291 -0.2015
 6534SOL     OW35021  -0.020   4.410   3.580 -0.4517 -0.6525 -0.0192
 6534SOL    HW135022  -0.018   4.497   3.539 -0.8557 -0.5486  0.1756
 6534SOL    HW235023   0.055   4.364   3.542  1.7190  0.8717  2.2657
 6535SOL     OW35024   2.879   4.738   8.007  0.0677 -0.0300  0.3786
 6535SOL    HW135025   2.878   4.643   8.021  0.2628 -0.7348 -3.6765
 6535SOL    HW235026   2.967   4.757   7.975  0.1574  1.6015  1.5302
 6536SOL     OW35027   2.241   5.877   1.427  0.3158  0.5590 -0.0560
 6536SOL    HW135028   2.229   5.963   1.468  0.4965 -0.1158  1.4296
 6536SOL    HW235029   2.152   5.842   1.419  0.1750  1.1716 -1.3224
 6537SOL     OW35030   1.965   4.421  10.969 -0.2395  0.4048 -0.0458
 6537SOL    HW135031   1.997   4.500  11.014  0.4329  0.6801 -0.9928
 6537SOL    HW235032   2.020   4.414  10.891 -1.5984  0.0995 -0.9915
 6538SOL     OW35033   0.860   3.528   2.253 -0.0699 -0.7012 -0.0181
 6538SOL    HW135034   0.834   3.603   2.305 -1.5627 -0.5737 -0.9144
 6538SOL    HW235035   0.799   3.527   2.179  1.7178 -1.1282 -1.5358
 6539SOL     OW35036   3.003   3.421  11.825  0.0127 -0.3643 -0.5552
 6539SOL    HW135037   3.047   3.494  11.783  0.9101  0.6359  2.0228
 6539SOL    HW235038   3.066   3.349  11.821 -0.0595 -0.3950 -1.2322
 6540SOL     OW35039   0.321   0.791  10.768 -0.0112  0.1791 -0.5056
 6540SOL    HW135040   0.361   0.761  10.850  0.0063  1.1884 -0.1272
 6540SOL    HW235041   0.380   0.860  10.737 -1.1354  1.2631 -0.2549
 6541SOL     OW35042   3.532   4.907   1.382  0.4564 -0.1048  0.4187
 6541SOL    HW135043   3.460   4.961   1.417  0.3372  0.8558 -1.2144
 6541SOL    HW235044   3.608   4.966   1.383  0.2238  0.2861 -1.8052
 6542SOL     OW35045   2.857   5.942  10.779 -0.5450  0.0170  0.1735
 6542SOL    HW135046   2.860   5.875  10.711  0.1534  0.5035 -0.2798
 6542SOL    HW235047   2.931   5.919  10.837 -0.4566  0.2534  0.1562
 6543SOL     OW35048   4.237   5.875   9.187 -0.4075  0.4066 -0.4169
 6543SOL    HW135049   4.317   5.918   9.157 -0.3351  0.1684 -0.5628
 6543SOL    HW235050   4.234   5.793   9.138 -0.4032  0.1181  0.0644
 6544SOL     OW35051   1.643   2.044  11.901 -0.2390 -0.0892 -0.0251
 6544SOL    HW135052   1.711   1.995  11.854 -0.9684  1.3769 -2.6844
 6544SOL    HW235053   1.572   1.980  11.912 -0.5084 -0.1535 -1.9496
 6545SOL     OW35054   5.700   0.397   8.980  0.5367 -0.8691  0.3574
 6545SOL    HW135055   5.706   0.309   8.942 -0.2207 -0.1055 -1.5796
 6545SOL    HW235056   5.658   0.384   9.065 -0.1381 -2.2934 -0.1862
 6546SOL     OW35057   4.375   1.648   8.936  0.3216 -0.0776  0.3556
 6546SOL    HW135058   4.301   1.701   8.965 -0.3760 -1.5078  1.2717
 6546SOL    HW235059   4.422   1.625   9.016  0.8058 -0.5426 -0.0545
 6547SOL     OW35060   0.334   4.549   1.356  0.1790 -0.5867 -0.0654
 6547SOL    HW135061   0.311   4.547   1.263 -0.6045 -1.5945  0.1338
 6547SOL    HW235062   0.277   4.616   1.394  0.5638 -0.1106 -0.3251
 6548SOL     OW35063   4.497   2.121   3.457  0.0148  0.2664 -0.5874
 6548SOL    HW135064   4.478   2.030   3.432  0.7217  0.0729 -0.4141
 6548SOL    HW235065   4.446   2.134   3.537  0.3024 -0.1368 -0.3326
 6549SOL     OW35066   3.773   3.078   1.614 -0.0706 -0.1983 -0.1410
 6549SOL    HW135067   3.868   3.080   1.601 -0.1634 -0.0214 -0.8061
 6549SOL    HW235068   3.758   3.135   1.690  0.3245  0.0207 -0.2244
 6550SOL     OW35069   4.043   3.001   0.611  0.6151  0.1121 -0.0663
 6550SOL    HW135070   3.988   3.029   0.685  0.1707  0.8561 -0.6714
 6550SOL    HW235071   4.011   2.913   0.591  1.0999 -0.3190  0.9630
 6551SOL     OW35072   5.586   0.174   7.976  0.3665  0.2642  0.3435
 6551SOL    HW135073   5.583   0.104   7.910  1.8973  0.8320 -0.3592
 6551SOL    HW235074   5.533   0.141   8.049  1.9682 -2.0856  0.4835
 6552SOL     OW35075   2.260   4.923   2.561  0.4474  0.5545 -0.2727
 6552SOL    HW135076   2.227   4.842   2.522 -0.0555  0.3350  0.5973
 6552SOL    HW235077   2.345   4.900   2.596 -0.1512  0.1235  0.9168
 6553SOL     OW35078   2.956   1.400   2.889  0.9275 -0.5462 -0.2944
 6553SOL    HW135079   2.976   1.458   2.815  1.3066 -1.4313 -0.8873
 6553SOL    HW235080   2.884   1.444   2.934  1.2674  0.4449 -0.6816
 6554SOL     OW35081   0.616   1.634   2.767  0.0445 -0.1581  0.6314
 6554SOL    HW135082   0.544   1.572   2.759  2.0711 -2.4173 -0.3917
 6554SOL    HW235083   0.609   1.689   2.689 -1.3948  0.5702  1.2502
 6555SOL     OW35084   4.678   5.435   2.479 -0.6327 -0.5627 -0.1282
 6555SOL    HW135085   4.586   5.416   2.461 -1.0349  0.0058  1.2145
 6555SOL    HW235086   4.699   5.512   2.426 -0.8390 -0.8730 -0.6615
 6556SOL     OW35087   0.441   5.187  12.006 -0.1258  0.1869 -0.4410
 6556SOL    HW135088   0.389   5.210  11.930 -0.4284  1.5587  0.1579
 6556SOL    HW235089   0.379   5.147  12.067 -0.1770  0.4077 -0.3457
 6557SOL     OW35090   0.901   5.601   1.339 -0.0257 -0.1589 -1.2458
 6557SOL    HW135091   0.931   5.532   1.398  0.1571 -0.9512 -2.2440
 6557SOL    HW235092   0.980   5.632   1.296  0.1712  2.1585  0.7382
 6558SOL     OW35093   3.187   5.841   2.038  0.0200  0.1998 -0.1787
 6558SOL    HW135094   3.238   5.917   2.067  0.8424  0.1852 -1.5672
 6558SOL    HW235095   3.170   5.792   2.119  0.9562  0.9548  0.4902
 6559SOL     OW35096   4.429   0.398   0.469 -0.5278 -0.6457 -0.4227
 6559SOL    HW135097   4.506   0.432   0.424 -1.0969  0.3698 -0.6452
 6559SOL    HW235098   4.441   0.423   0.560 -0.3549 -0.9335 -0.3638
 6560SOL     OW35099   0.284   3.642   2.897 -0.2154  0.9052  0.2774
 6560SOL    HW135100   0.327   3.717   2.856  1.1605  0.5632  1.0422
 6560SOL    HW235101   0.328   3.633   2.982  0.0045 -1.0701 -0.0184
 6561SOL     OW35102   4.245   2.705   3.124  0.4890  0.1230  0.1202
 6561SOL    HW135103   4.295   2.654   3.061  3.3084 -0.6085  2.8010
 6561SOL    HW235104   4.226   2.643   3.195 -0.4045  1.5327  1.1487
 6562SOL     OW35105   0.949   3.118   3.248  0.2848  0.2898 -0.1524
 6562SOL    HW135106   1.031   3.084   3.213  0.3479 -0.6245  0.8593
 6562SOL    HW235107   0.974   3.194   3.301  0.4162  0.3697 -0.3298
 6563SOL     OW35108   1.365  -0.007   9.101  0.1643 -0.7637 -0.5390
 6563SOL    HW135109   1.380   0.084   9.126 -0.3654 -0.6356 -0.6799
 6563SOL    HW235110   1.274  -0.024   9.125  0.6132 -1.6236  0.5923
 6564SOL     OW35111   3.594   2.416   3.697  1.1944  0.0478  0.3749
 6564SOL    HW135112   3.610   2.453   3.784  0.7416 -0.6099  0.7327
 6564SOL    HW235113   3.607   2.490   3.637  0.3210  0.7829  1.0895
 6565SOL     OW35114   3.731   3.932   1.257 -0.1126 -0.0812 -0.2782
 6565SOL    HW135115   3.811   3.903   1.302 -0.4010 -0.8956 -0.2755
 6565SOL    HW235116   3.673   3.958   1.328 -0.3547 -0.8108 -0.2037
 6566SOL     OW35117   3.508   4.079   9.433  0.2056 -0.2624  0.3667
 6566SOL    HW135118   3.527   4.169   9.404 -0.4752  0.5133  2.2529
 6566SOL    HW235119   3.419   4.062   9.401  0.3477 -0.2865 -0.0241
 6567SOL     OW35120   0.547   4.193   1.722 -0.2694 -0.2924  0.6844
 6567SOL    HW135121   0.490   4.243   1.664 -0.4899 -1.5457 -0.2144
 6567SOL    HW235122   0.488   4.151   1.784 -0.0212  1.1590  1.9127
 6568SOL     OW35123   3.533   5.245   1.506  0.2340  0.3689 -0.6801
 6568SOL    HW135124   3.592   5.207   1.570 -0.2080  0.1182 -0.4129
 6568SOL    HW235125   3.590   5.277   1.436  0.6393 -0.3908 -0.6975
 6569SOL     OW35126   0.015   2.732   9.221  0.5544 -0.0096 -0.4855
 6569SOL    HW135127   0.022   2.782   9.139 -1.0703  2.1549  0.6694
 6569SOL    HW235128   0.090   2.761   9.273  0.3879  0.1851 -0.3548
 6570SOL     OW35129   1.656   3.474   8.724  0.2361  0.1582 -0.0439
 6570SOL    HW135130   1.736   3.521   8.747 -0.5188  1.2082  0.5116
 6570SOL    HW235131   1.635   3.503   8.636  0.5793 -0.2872 -0.2762
 6571SOL     OW35132   2.068   5.356  11.257  0.2635 -0.0408  0.4124
 6571SOL    HW135133   2.090   5.369  11.349  0.5955 -1.4657  0.5409
 6571SOL    HW235134   2.038   5.265  11.252 -1.2601  0.4974 -0.5954
 6572SOL     OW35135   3.572   2.331   8.930  0.0676 -0.2124  0.0697
 6572SOL    HW135136   3.541   2.250   8.971  0.6380 -0.8678 -0.7531
 6572SOL    HW235137   3.526   2.401   8.976 -0.7156 -1.0249  0.5468
 6573SOL     OW35138   3.467   5.636   1.893  0.0608 -0.0532  0.0983
 6573SOL    HW135139   3.498   5.635   1.983 -0.5350  0.7079  0.3209
 6573SOL    HW235140   3.505   5.716   1.856  1.4186 -1.0596 -0.7318
 6574SOL     OW35141   3.495   2.207  11.371 -0.5707  0.0957  0.0896
 6574SOL    HW135142   3.409   2.190  11.334 -1.7008  0.7373  2.3497
 6574SOL    HW235143   3.493   2.299  11.396  0.8459  0.1583  0.0275
 6575SOL     OW35144   5.289   2.589   9.162  0.0383 -0.2328 -0.1644
 6575SOL    HW135145   5.294   2.675   9.205 -0.4460  0.5953 -1.7262
 6575SOL    HW235146   5.373   2.580   9.117 -0.2871 -0.1369 -0.7997
 6576SOL     OW35147   4.604   4.494   1.054 -0.5160  0.3511  0.6147
 6576SOL    HW135148   4.523   4.489   1.104 -0.7968 -0.4374  0.0782
 6576SOL    HW235149   4.599   4.423   0.991  1.0422 -0.3544  1.2545
 6577SOL     OW35150   0.831   2.991   8.878  0.5411 -1.0631 -0.4890
 6577SOL    HW135151   0.737   2.980   8.891  0.5303  0.0538  0.4571
 6577SOL    HW235152   0.853   2.927   8.810 -1.1423 -0.4006 -1.6990
 6578SOL     OW35153   2.759   5.053   9.301  0.2553 -0.9075 -0.3465
 6578SOL    HW135154   2.716   5.018   9.223 -1.0492 -0.9608  0.3908
 6578SOL    HW235155   2.830   5.108   9.266 -0.6360 -0.5204 -1.5752
 6579SOL     OW35156   0.617   5.496  10.266 -0.7142  0.7441 -0.2475
 6579SOL    HW135157   0.693   5.544  10.298  1.9002 -2.4064 -1.4183
 6579SOL    HW235158   0.593   5.438  10.337 -1.5485  1.1646 -0.1784
 6580SOL     OW35159   2.347   5.316  10.435 -0.0703  0.0948 -0.5558
 6580SOL    HW135160   2.419   5.374  10.410  0.7291 -0.9430 -0.7122
 6580SOL    HW235161   2.279   5.332  10.370  0.0581  1.0212 -0.4638
 6581SOL     OW35162   4.819   0.690   3.218 -0.1028 -0.0717  0.0666
 6581SOL    HW135163   4.766   0.611   3.213 -1.0431  0.5837 -0.6040
 6581SOL    HW235164   4.764   0.753   3.263  0.6386  0.2051  0.5982
 6582SOL     OW35165   4.452   4.212  11.412  0.1992 -0.3274  0.1631
 6582SOL    HW135166   4.369   4.171  11.386  0.6534 -1.6179  0.6960
 6582SOL    HW235167   4.429   4.271  11.483 -0.3892 -0.0858 -0.2274
 6583SOL     OW35168   1.402   3.924  10.475  0.2701 -0.4562 -0.1632
 6583SOL    HW135169   1.392   4.009  10.519 -2.3988 -0.5408 -0.5245
 6583SOL    HW235170   1.449   3.945  10.394 -0.5337  0.7273 -0.3438
 6584SOL     OW35171   5.578   0.925   8.969  0.0141  0.0403 -0.3127
 6584SOL    HW135172   5.606   1.006   8.926  1.1604 -1.0288 -1.6164
 6584SOL    HW235173   5.605   0.935   9.060  0.3735  1.0131 -0.5198
 6585SOL     OW35174   3.473   5.411   8.672 -0.1711  0.1087  0.4131
 6585SOL    HW135175   3.486   5.506   8.678  0.2236  0.0028  1.2860
 6585SOL    HW235176   3.381   5.398   8.697 -0.4486  0.3206 -0.4462
 6586SOL     OW35177   3.034   1.120   9.360 -0.4293  0.0419  0.4185
 6586SOL    HW135178   3.099   1.189   9.346 -0.5147 -0.2120 -1.3560
 6586SOL    HW235179   2.951   1.167   9.369 -0.6846  0.1425 -2.0864
 6587SOL     OW35180   5.399   4.759   9.186 -0.4836 -0.3302  0.2242
 6587SOL    HW135181   5.467   4.822   9.210 -0.1849 -0.5565 -0.0217
 6587SOL    HW235182   5.436   4.674   9.208 -0.0669 -0.5688 -1.3566
 6588SOL     OW35183   4.096   0.176   1.278 -0.8110 -0.0491  0.2639
 6588SOL    HW135184   4.149   0.096   1.274 -1.0370 -0.1204 -1.9739
 6588SOL    HW235185   4.009   0.145   1.305 -0.7418 -0.4842 -0.0025
 6589SOL     OW35186   1.821   2.717   1.515 -0.4105  0.6894  0.6114
 6589SOL    HW135187   1.777   2.751   1.593 -2.1730 -1.2942  0.5292
 6589SOL    HW235188   1.760   2.733   1.444  0.8807  1.8210 -0.2616
 6590SOL     OW35189   2.482   1.048  10.004  0.0678 -0.2309  0.2560
 6590SOL    HW135190   2.471   1.135  10.043 -1.3116 -0.7399  1.0344
 6590SOL    HW235191   2.404   1.000  10.031  1.2225 -1.9881  0.5298
 6591SOL     OW35192   1.210   3.277  11.452  0.0101 -0.3271  0.2488
 6591SOL    HW135193   1.268   3.315  11.386  0.8337 -1.7515  0.1153
 6591SOL    HW235194   1.264   3.272  11.531  0.4663 -2.7062 -0.1779
 6592SOL     OW35195   5.759   0.087  12.507 -0.4275 -0.0192 -0.0138
 6592SOL    HW135196   5.687   0.037  12.470 -1.2059  0.4852  0.8071
 6592SOL    HW235197   5.740   0.178  12.483 -0.8434  0.2922  1.4393
 6593SOL     OW35198   1.133   1.007   3.436  0.7937  0.6781 -0.0733
 6593SOL    HW135199   1.100   1.038   3.521 -1.4911 -1.0628 -0.2670
 6593SOL    HW235200   1.154   1.087   3.388 -0.5257  1.7874  1.1304
 6594SOL     OW35201   4.065   3.954  11.202 -0.3525  0.7596  0.3923
 6594SOL    HW135202   4.078   3.882  11.263  0.7373 -0.0557 -0.7682
 6594SOL    HW235203   3.972   3.976  11.210 -0.7365 -0.9064  0.6193
 6595SOL     OW35204   1.267   4.772  11.377 -0.2094 -0.2318  0.1618
 6595SOL    HW135205   1.217   4.851  11.397  0.9110  0.4927  0.1450
 6595SOL    HW235206   1.242   4.710  11.445 -0.8464  0.2426  0.3685
 6596SOL     OW35207   4.728   2.846   3.036  0.7558 -0.3744 -0.2180
 6596SOL    HW135208   4.731   2.772   3.096 -1.5082 -0.2837  0.0454
 6596SOL    HW235209   4.697   2.919   3.089  1.0099  0.2771 -0.9551
 6597SOL     OW35210   0.042   4.174   9.989  0.0167  0.0796 -0.6598
 6597SOL    HW135211  -0.043   4.218   9.989 -0.0770 -0.0970 -1.4661
 6597SOL    HW235212   0.100   4.233   9.941  0.5893  0.6334  0.6619
 6598SOL     OW35213   1.004   1.429   8.906  0.2024 -0.3703 -0.2503
 6598SOL    HW135214   0.980   1.342   8.873  0.1488 -0.3101 -0.3730
 6598SOL    HW235215   0.923   1.464   8.942  0.4877 -0.8523  0.8911
 6599SOL     OW35216   0.159   3.766   2.493  0.2924 -0.4107 -0.2530
 6599SOL    HW135217   0.151   3.844   2.439  0.8518 -0.3335 -0.2289
 6599SOL    HW235218   0.246   3.773   2.533 -0.6093  0.2197  1.6975
 6600SOL     OW35219   2.099   1.969   9.942 -0.3324  0.3527 -0.1480
 6600SOL    HW135220   2.100   1.985   9.848  1.3483 -1.1817 -0.4324
 6600SOL    HW235221   2.056   1.884   9.951 -0.6570  0.5848  0.4793
 6601SOL     OW35222   2.419   3.032   9.174  0.5143  0.3972 -0.1936
 6601SOL    HW135223   2.348   2.998   9.229  2.9191 -1.2228  2.0300
 6601SOL    HW235224   2.390   3.120   9.150 -2.3623 -0.3146  0.4211
 6602SOL     OW35225   2.509   2.365  11.296 -0.0637 -0.4136  0.0138
 6602SOL    HW135226   2.430   2.366  11.242  0.8169  1.1793 -1.2869
 6602SOL    HW235227   2.483   2.407  11.378 -0.4917  0.3443 -0.5096
 6603SOL     OW35228   0.131   0.812   4.346  0.1853 -0.8181 -0.0644
 6603SOL    HW135229   0.172   0.787   4.263  1.0834 -0.3095  0.2224
 6603SOL    HW235230   0.180   0.765   4.412  1.4461  1.1018  0.4272
 6604SOL     OW35231   4.050   1.905  12.092 -0.3216  0.4153 -0.9810
 6604SOL    HW135232   4.033   1.826  12.143  0.8793  0.0646 -1.1148
 6604SOL    HW235233   4.137   1.934  12.120  0.2501  0.3508 -2.6366
 6605SOL     OW35234   2.024   3.065   9.922 -0.0530  0.0219  0.5041
 6605SOL    HW135235   1.963   3.007   9.968  0.1219 -1.2005 -0.7484
 6605SOL    HW235236   2.085   3.005   9.878  0.5507  1.1720 -0.2437
 6606SOL     OW35237   1.507   3.606   0.935 -0.1025 -0.3891  0.5492
 6606SOL    HW135238   1.472   3.560   0.859  1.2562 -1.4610  0.5559
 6606SOL    HW235239   1.556   3.539   0.983  0.7584  0.7517  1.2862
 6607SOL     OW35240   2.810   1.111  10.734  0.1247 -0.4659  0.1370
 6607SOL    HW135241   2.753   1.078  10.804 -0.2968  0.2348  0.1282
 6607SOL    HW235242   2.767   1.083  10.653  0.2097 -0.6242  0.1469
 6608SOL     OW35243   1.964   1.203   3.714 -0.2285 -0.4512  0.3015
 6608SOL    HW135244   1.926   1.279   3.668 -0.5973 -1.0423 -0.3743
 6608SOL    HW235245   1.926   1.207   3.802 -1.7056 -0.9098 -0.3017
 6609SOL     OW35246   0.715   1.300   2.395 -0.6187  0.0403  0.3642
 6609SOL    HW135247   0.752   1.380   2.357 -0.9366  0.6072  1.2223
 6609SOL    HW235248   0.760   1.229   2.350 -0.4481  0.7017 -0.5336
 6610SOL     OW35249   4.368   0.677   1.600 -0.4458 -0.3541  1.1742
 6610SOL    HW135250   4.348   0.596   1.648 -0.8074 -0.9348  0.0595
 6610SOL    HW235251   4.307   0.677   1.527  1.6384 -0.6375 -0.6075
 6611SOL     OW35252   1.935   3.466  10.133  0.0362  0.1992  0.5540
 6611SOL    HW135253   1.892   3.458  10.218 -3.6514  1.2056 -1.1145
 6611SOL    HW235254   1.964   3.557  10.128  2.9811 -0.5871  1.8666
 6612SOL     OW35255   0.726   5.272   3.203 -0.3063 -0.5458  0.2076
 6612SOL    HW135256   0.679   5.354   3.186  1.0858 -0.0874 -1.7308
 6612SOL    HW235257   0.813   5.299   3.233  0.2843 -1.2758 -0.7770
 6613SOL     OW35258   1.422   5.461   8.638  0.0575 -0.4856 -0.1025
 6613SOL    HW135259   1.472   5.454   8.719 -0.5823  0.5589  0.4007
 6613SOL    HW235260   1.331   5.447   8.664 -0.2422  0.6113 -0.5009
 6614SOL     OW35261   2.885   1.804   3.134  0.6039  0.0942 -0.0458
 6614SOL    HW135262   2.932   1.734   3.179 -0.2801  0.0449  0.8234
 6614SOL    HW235263   2.849   1.858   3.205  0.2665  0.7418 -0.7016
 6615SOL     OW35264   5.907   5.517   1.729  0.2818  0.4189 -0.1097
 6615SOL    HW135265   5.888   5.591   1.672  0.7424  1.8191  1.5180
 6615SOL    HW235266   5.889   5.549   1.817  0.0894 -1.5470  0.5887
 6616SOL     OW35267   5.742   0.570   0.948 -0.0895  0.3340 -0.0627
 6616SOL    HW135268   5.801   0.502   0.979 -0.4125  0.3288  0.5502
 6616SOL    HW235269   5.721   0.621   1.026 -0.3071  0.7869 -0.4126
 6617SOL     OW35270   4.642   1.903   0.987  0.4680 -0.2425 -0.3947
 6617SOL    HW135271   4.563   1.956   0.993 -0.0244 -1.0522  0.3775
 6617SOL    HW235272   4.714   1.966   0.981 -0.2377  0.4966 -1.1754
 6618SOL     OW35273   0.032   0.712   8.476 -0.1317  0.1227  0.7778
 6618SOL    HW135274  -0.041   0.752   8.428 -0.9286 -0.5497  1.4074
 6618SOL    HW235275   0.058   0.637   8.423  0.2749  0.5084  0.4245
 6619SOL     OW35276   2.277   0.242   0.588 -0.3622  0.1147 -0.3714
 6619SOL    HW135277   2.306   0.329   0.614 -1.2316  0.6795 -1.2488
 6619SOL    HW235278   2.194   0.230   0.633 -0.2866 -0.2203 -0.3201
 6620SOL     OW35279   5.332   5.570  10.278 -0.8393 -0.3752  0.7305
 6620SOL    HW135280   5.400   5.576  10.345  0.1490 -0.1070 -0.2751
 6620SOL    HW235281   5.286   5.654  10.283 -0.1784  0.0074  0.4593
 6621SOL     OW35282   0.052   0.669  12.333 -0.5551 -0.2063 -0.1224
 6621SOL    HW135283   0.106   0.662  12.254  0.6533  0.6503  0.6031
 6621SOL    HW235284  -0.021   0.725  12.307 -0.0666  0.2202 -0.5963
 6622SOL     OW35285   3.140   5.801   1.358  0.3153  0.3806  0.1872
 6622SOL    HW135286   3.211   5.858   1.387  1.4981 -0.4297 -1.0620
 6622SOL    HW235287   3.062   5.836   1.401  1.6555  0.4919  2.6265
 6623SOL     OW35288   3.579   1.508  11.991 -1.0359  0.0085  0.2027
 6623SOL    HW135289   3.578   1.431  11.934  3.2629 -0.7814  1.0206
 6623SOL    HW235290   3.556   1.581  11.933  1.1491 -1.0556 -2.1112
 6624SOL     OW35291   0.621   4.854   7.628  0.4798  0.4440 -0.4191
 6624SOL    HW135292   0.569   4.921   7.673  0.8841 -0.0579  0.8038
 6624SOL    HW235293   0.682   4.904   7.573 -1.2182  1.0494 -1.8195
 6625SOL     OW35294   2.802   1.126  11.275 -0.1631  0.0506  0.6049
 6625SOL    HW135295   2.763   1.038  11.269  2.0823 -0.8664 -1.4134
 6625SOL    HW235296   2.836   1.131  11.365  1.1909 -1.8587  0.2380
 6626SOL     OW35297   2.087   2.071   2.443  0.2542  0.2493  0.1698
 6626SOL    HW135298   2.055   2.020   2.518  1.9464  1.2804  1.6131
 6626SOL    HW235299   2.182   2.070   2.452  0.4134  1.4639 -1.2638
 6627SOL     OW35300   0.946   5.721   9.743 -0.0865 -0.3618 -0.0729
 6627SOL    HW135301   0.890   5.769   9.681 -0.2692  0.7911  0.9785
 6627SOL    HW235302   0.901   5.728   9.827  1.3186  0.0585  0.6690
 6628SOL     OW35303   5.075   3.342   2.611  0.2022 -0.1220  0.2489
 6628SOL    HW135304   4.986   3.347   2.645 -0.1845  0.5851 -0.8446
 6628SOL    HW235305   5.065   3.312   2.521  1.2814 -3.0350  1.0418
 6629SOL     OW35306   0.486   4.038  11.610 -0.9325  0.1967  0.1920
 6629SOL    HW135307   0.510   4.006  11.697 -1.9033  1.3876  0.9190
 6629SOL    HW235308   0.478   3.959  11.557 -0.7563 -0.5808  1.2900
 6630SOL     OW35309   3.406   0.403  10.915  0.3938 -0.2020  0.5390
 6630SOL    HW135310   3.335   0.344  10.889  0.7880 -1.1989  1.7052
 6630SOL    HW235311   3.361   0.477  10.957 -0.0582  0.0053 -0.2942
 6631SOL     OW35312   3.130   2.308   0.504 -0.6577  0.4978  0.2891
 6631SOL    HW135313   3.158   2.356   0.582 -0.5711 -0.5441  0.8939
 6631SOL    HW235314   3.061   2.250   0.534  1.0333 -1.6868  0.0901
 6632SOL     OW35315   4.959   3.068   0.411 -0.5962 -0.1904 -0.5468
 6632SOL    HW135316   5.050   3.040   0.404 -0.2472  0.3013  1.6015
 6632SOL    HW235317   4.909   2.986   0.409 -0.1477 -0.4462 -2.0479
 6633SOL     OW35318   3.710   5.893   8.761 -0.1181 -0.3884 -0.4617
 6633SOL    HW135319   3.757   5.855   8.836 -1.4739  0.7208  0.9701
 6633SOL    HW235320   3.778   5.938   8.712  0.5616  0.0748  0.8671
 6634SOL     OW35321   2.553   2.086  10.864  0.6415  0.1036 -0.2852
 6634SOL    HW135322   2.566   2.115  10.774 -1.1550  1.0715 -0.2522
 6634SOL    HW235323   2.464   2.113  10.886  0.2435 -2.0788  1.0373
 6635SOL     OW35324   1.155   5.167   8.336 -0.0059  0.7138 -0.2944
 6635SOL    HW135325   1.199   5.155   8.251  0.2277  0.4280 -0.1359
 6635SOL    HW235326   1.224   5.194   8.395 -0.4275  2.2701 -0.5089
 6636SOL     OW35327   3.772   4.659   0.620 -0.5397  0.5059  0.3622
 6636SOL    HW135328   3.860   4.666   0.583 -0.4618  1.0103  0.6460
 6636SOL    HW235329   3.714   4.681   0.547 -0.5311 -2.0128 -0.4646
 6637SOL     OW35330   5.348   5.373   0.334 -0.0425 -0.0756  0.0885
 6637SOL    HW135331   5.308   5.376   0.420 -0.3686  0.4187 -0.0804
 6637SOL    HW235332   5.442   5.361   0.351 -0.2984 -1.6275  0.4714
 6638SOL     OW35333   1.741   4.865  11.576 -0.5648  0.5512 -0.3514
 6638SOL    HW135334   1.707   4.894  11.492  0.6742 -0.2576 -1.1485
 6638SOL    HW235335   1.663   4.835  11.624 -1.0930 -0.5237 -1.8334
 6639SOL     OW35336   0.449   0.160   1.518  0.2223  0.0052  0.1787
 6639SOL    HW135337   0.369   0.115   1.489 -0.7633  0.8966  1.4574
 6639SOL    HW235338   0.502   0.090   1.557 -0.0844 -0.5275 -0.3376
 6640SOL     OW35339   5.547   0.241  12.148  0.0764 -0.2993 -0.3457
 6640SOL    HW135340   5.608   0.167  12.153  0.4006 -0.0218 -0.1799
 6640SOL    HW235341   5.590   0.303  12.089 -0.2356 -0.2754 -0.5524
 6641SOL     OW35342   2.341   1.114   2.488  0.7526  0.1059  0.1652
 6641SOL    HW135343   2.324   1.208   2.496 -2.1355 -0.4112  0.8014
 6641SOL    HW235344   2.406   1.095   2.556  0.7394  1.5102  0.5763
 6642SOL     OW35345   2.542   0.085  11.579  1.0779  0.3330 -0.4077
 6642SOL    HW135346   2.494   0.052  11.503  0.7656  1.4688 -0.7088
 6642SOL    HW235347   2.632   0.093  11.549  0.9004  1.0677 -0.7541
 6643SOL     OW35348   3.241   1.756   1.360  0.5964  0.1215 -0.6163
 6643SOL    HW135349   3.221   1.847   1.379 -0.7963 -0.1790 -0.5818
 6643SOL    HW235350   3.290   1.725   1.437  0.5145  0.6511 -0.3512
 6644SOL     OW35351   1.293   0.478   2.093 -0.1371 -0.9168  0.2023
 6644SOL    HW135352   1.367   0.465   2.152  0.0361 -2.4282 -0.3288
 6644SOL    HW235353   1.237   0.541   2.138  0.3924 -1.4325  1.5958
 6645SOL     OW35354   5.729   4.247  10.025 -0.6545 -0.1281  0.1241
 6645SOL    HW135355   5.684   4.320   9.983 -0.8684 -0.0023  0.5729
 6645SOL    HW235356   5.781   4.287  10.094 -1.6612 -0.5078  1.1185
 6646SOL     OW35357   0.194   3.593  10.509  0.1698  0.0951 -0.0797
 6646SOL    HW135358   0.107   3.571  10.543  0.1883  0.5638  0.2802
 6646SOL    HW235359   0.183   3.680  10.470  0.4721  0.1498 -0.0480
 6647SOL     OW35360   0.377   5.063  12.235  0.6616  0.6095 -0.5130
 6647SOL    HW135361   0.364   5.023  12.321  2.7185  0.3032 -0.3228
 6647SOL    HW235362   0.422   5.145  12.253 -0.7260  1.5336 -1.1576
 6648SOL     OW35363   4.859   2.291   8.950 -0.1361 -0.1694  0.3304
 6648SOL    HW135364   4.918   2.297   8.875  0.9744 -2.4501  0.9624
 6648SOL    HW235365   4.909   2.329   9.022 -0.9608  1.4460  0.0684
 6649SOL     OW35366   2.064   3.949   0.721  0.7159  0.0942 -0.7695
 6649SOL    HW135367   2.131   4.013   0.744  0.8540  0.1853 -1.4211
 6649SOL    HW235368   2.109   3.865   0.724  0.5802  0.0373 -0.0987
 6650SOL     OW35369   4.348   3.918   9.979  0.3876  0.0811 -0.0805
 6650SOL    HW135370   4.345   4.002  10.024  0.9431 -0.3722  0.8251
 6650SOL    HW235371   4.261   3.908   9.940 -0.3554  0.1551  1.5038
 6651SOL     OW35372   4.993   4.808   0.801  0.2463 -0.2496 -0.1586
 6651SOL    HW135373   4.958   4.766   0.722  0.0796 -0.9736  0.3000
 6651SOL    HW235374   5.050   4.743   0.840  1.5728  0.6755 -0.5112
 6652SOL     OW35375   3.993   5.521   0.593  0.5480  0.3162  0.6216
 6652SOL    HW135376   4.040   5.604   0.602 -0.5912  0.9137  1.1189
 6652SOL    HW235377   3.904   5.541   0.621 -0.8567 -0.0056 -3.3851
 6653SOL     OW35378   2.297   1.115   9.701  0.4790  0.5740  0.4273
 6653SOL    HW135379   2.321   1.050   9.635  1.4735  1.8368 -0.4729
 6653SOL    HW235380   2.318   1.072   9.785 -4.3315 -2.5044  0.1953
 6654SOL     OW35381   5.619   3.508   9.909 -0.4770 -0.5344  0.6875
 6654SOL    HW135382   5.561   3.542   9.841 -0.4980  1.4143  1.6444
 6654SOL    HW235383   5.566   3.511   9.989 -0.4314 -2.7212  0.8438
 6655SOL     OW35384   3.630   2.372   4.330 -0.4690 -0.7754  0.0565
 6655SOL    HW135385   3.618   2.448   4.274  1.0364 -1.1209 -0.7613
 6655SOL    HW235386   3.548   2.364   4.377 -0.7208  1.2531  0.0226
 6656SOL     OW35387   2.419   0.899  10.950  0.2865  0.1112  0.3826
 6656SOL    HW135388   2.380   0.874  11.034 -1.3407  0.4665 -0.2516
 6656SOL    HW235389   2.361   0.860  10.884 -0.6858  3.1113 -0.6107
 6657SOL     OW35390   5.535   3.533   0.119 -0.9192 -0.4058  0.1914
 6657SOL    HW135391   5.581   3.499   0.042 -0.4160  0.0154  0.3020
 6657SOL    HW235392   5.470   3.593   0.084 -0.5670 -0.0750  0.1072
 6658SOL     OW35393   4.136   3.768   0.213 -0.2939  0.1368  0.7950
 6658SOL    HW135394   4.232   3.763   0.209 -0.2940  0.4622  0.2125
 6658SOL    HW235395   4.112   3.717   0.290  0.2198 -1.5279 -0.1183
 6659SOL     OW35396   4.811   4.958  10.767  0.0458  0.1078  0.3168
 6659SOL    HW135397   4.750   5.032  10.770 -1.2903 -0.9417 -0.5137
 6659SOL    HW235398   4.793   4.908  10.847 -0.5302 -0.4736 -0.1744
 6660SOL     OW35399   2.048   1.566  11.648 -0.2212 -0.2793  0.3261
 6660SOL    HW135400   2.111   1.573  11.576 -1.9705 -0.5402 -1.2558
 6660SOL    HW235401   2.013   1.655  11.658 -0.6767 -0.4406  0.1983
 6661SOL     OW35402   2.879   5.690   0.815  0.1373 -0.3910 -0.1749
 6661SOL    HW135403   2.952   5.664   0.871  1.2860 -0.2869 -1.6106
 6661SOL    HW235404   2.903   5.778   0.785  0.4531 -1.2172 -2.3709
 6662SOL     OW35405   5.635   1.488   1.948  0.7946  0.1560 -0.2424
 6662SOL    HW135406   5.573   1.415   1.954  0.5394  0.3556 -0.4702
 6662SOL    HW235407   5.666   1.500   2.038  3.2514 -2.3158 -0.6834
 6663SOL     OW35408   5.886   2.865   1.023 -0.0389  0.2304 -0.0009
 6663SOL    HW135409   5.956   2.927   1.042  1.4703 -0.5416 -2.8046
 6663SOL    HW235410   5.811   2.919   0.999  0.8687  0.9982 -1.1398
 6664SOL     OW35411   0.514   3.070   9.713  0.1084 -0.5178 -0.2419
 6664SOL    HW135412   0.502   3.060   9.807  1.2989 -1.1670 -0.1410
 6664SOL    HW235413   0.519   3.165   9.699  1.5668 -0.4608  0.5839
 6665SOL     OW35414   4.139   4.400   9.102 -0.4139  0.4809 -0.2909
 6665SOL    HW135415   4.156   4.494   9.107 -0.5731  0.4869  0.2164
 6665SOL    HW235416   4.186   4.363   9.177 -2.1150  0.4256  0.7941
 6666SOL     OW35417   4.694   5.914  10.333 -0.2654  0.9069  0.4148
 6666SOL    HW135418   4.770   5.933  10.387 -0.1181  0.9487  0.1935
 6666SOL    HW235419   4.671   5.823  10.355  0.1466  0.7302  0.1149
 6667SOL     OW35420   2.603   1.517   9.135  0.1121 -0.0015  0.0676
 6667SOL    HW135421   2.642   1.449   9.080  1.0514 -0.7502  1.6118
 6667SOL    HW235422   2.677   1.557   9.181 -0.5063  1.5982 -0.3030
 6668SOL     OW35423   1.796   3.419   9.904 -0.0967  0.0828  0.1204
 6668SOL    HW135424   1.856   3.431   9.977 -2.4848  0.2998  2.0851
 6668SOL    HW235425   1.739   3.496   9.906 -0.5913 -0.2047 -1.5996
 6669SOL     OW35426   0.641   1.608  11.182  0.2377  0.3825 -0.2121
 6669SOL    HW135427   0.628   1.594  11.276 -2.2593 -3.2210 -0.9785
 6669SOL    HW235428   0.564   1.657  11.155  0.2133  0.1152 -0.6300
 6670SOL     OW35429   5.477   0.574  12.389  0.5046  0.5724  0.0526
 6670SOL    HW135430   5.433   0.502  12.433  0.6719  0.5930  0.2616
 6670SOL    HW235431   5.557   0.536  12.354 -0.0115  0.3774 -0.9325
 6671SOL     OW35432   2.344   2.629   3.523 -0.0021 -0.3262 -0.2557
 6671SOL    HW135433   2.393   2.566   3.576 -1.2889 -1.2733 -0.1711
 6671SOL    HW235434   2.266   2.649   3.576  0.7896  1.9534  0.0749
 6672SOL     OW35435   0.774  -0.012   9.651 -0.1621  0.2978 -0.0981
 6672SOL    HW135436   0.687  -0.050   9.665 -0.6704  0.4202 -2.7237
 6672SOL    HW235437   0.765   0.079   9.677 -0.4694  0.0073  0.8349
 6673SOL     OW35438   1.706   4.105  11.528 -0.2075  0.0217 -0.2199
 6673SOL    HW135439   1.667   4.018  11.526 -0.9169  0.3419 -0.5439
 6673SOL    HW235440   1.659   4.151  11.598 -0.6016  0.4935 -0.7892
 6674SOL     OW35441   1.432   1.857   0.567 -0.1970 -0.4901  0.1296
 6674SOL    HW135442   1.509   1.830   0.517 -0.0618  3.0709 -1.7462
 6674SOL    HW235443   1.467   1.905   0.642 -0.5188 -2.5434  1.6317
 6675SOL     OW35444   4.769   5.959   9.734  0.0674 -0.2048 -0.3413
 6675SOL    HW135445   4.767   5.923   9.645  0.2738 -0.3417 -0.2889
 6675SOL    HW235446   4.751   5.884   9.791 -0.9257  0.0387 -0.3133
 6676SOL     OW35447   3.350   2.458   2.229 -0.4154 -0.1223 -0.2950
 6676SOL    HW135448   3.367   2.439   2.137  2.7907 -1.8406  0.5752
 6676SOL    HW235449   3.339   2.553   2.232 -3.0759 -0.2608 -2.7379
 6677SOL     OW35450   2.311   0.175   9.178  0.1036 -0.2489  0.2527
 6677SOL    HW135451   2.262   0.093   9.179  1.3535 -1.0231 -0.1508
 6677SOL    HW235452   2.381   0.162   9.241 -0.2493  0.8689  0.8819
 6678SOL     OW35453   0.235   3.917   2.275  0.4310  0.0322  0.1656
 6678SOL    HW135454   0.306   3.876   2.226 -0.9530 -1.3689 -0.7147
 6678SOL    HW235455   0.162   3.919   2.213 -1.2697 -1.4808  2.0773
 6679SOL     OW35456   4.789   5.412   3.664  0.4963  0.2768 -0.0471
 6679SOL    HW135457   4.861   5.422   3.602 -0.7289  1.4491 -1.3181
 6679SOL    HW235458   4.779   5.499   3.705  1.0288 -0.3743  1.5179
 6680SOL     OW35459   1.742   3.182   0.953  0.0580 -0.0276  0.2743
 6680SOL    HW135460   1.769   3.230   0.875 -1.9592 -0.5689 -0.8024
 6680SOL    HW235461   1.823   3.158   0.997  1.1495  2.3579 -0.3901
 6681SOL     OW35462   1.143   0.293   0.115 -0.1152 -0.0796 -0.2206
 6681SOL    HW135463   1.191   0.345   0.051 -2.5995 -1.5430 -3.3503
 6681SOL    HW235464   1.116   0.214   0.068 -3.2096 -0.5611  2.2168
 6682SOL     OW35465   3.421   1.784   8.749  0.1239  0.2416 -0.0576
 6682SOL    HW135466   3.452   1.848   8.684  1.0163  1.3316  1.3959
 6682SOL    HW235467   3.338   1.820   8.780  0.7226  0.8356  0.9061
 6683SOL     OW35468   2.999   2.262   1.196 -0.4878 -0.0550 -0.4195
 6683SOL    HW135469   2.951   2.336   1.232 -0.4415  0.0374 -0.5458
 6683SOL    HW235470   2.931   2.207   1.156 -0.2591  1.1983 -2.5908
 6684SOL     OW35471   1.267   4.851   2.804  0.5635 -0.1204  0.2088
 6684SOL    HW135472   1.273   4.906   2.882 -0.3654  0.5221 -0.1590
 6684SOL    HW235473   1.357   4.825   2.786  0.8808  0.4007  1.0182
 6685SOL     OW35474   5.336   0.696   9.655  0.3824  1.0838  0.0249
 6685SOL    HW135475   5.424   0.703   9.694 -0.6217  3.3090  2.0194
 6685SOL    HW235476   5.285   0.648   9.719 -0.0494  0.4024 -0.8226
 6686SOL     OW35477   5.817   4.187   9.039 -0.2978  0.6892 -0.5269
 6686SOL    HW135478   5.741   4.193   8.982 -1.6523 -0.8887  1.0849
 6686SOL    HW235479   5.840   4.094   9.039 -0.5592  0.6151  1.8212
 6687SOL     OW35480   2.024   1.563  10.735  0.2879  0.4465 -0.3160
 6687SOL    HW135481   1.954   1.536  10.793  0.4429  1.2730  0.2700
 6687SOL    HW235482   2.041   1.654  10.759  1.0951  0.4581 -0.9098
 6688SOL     OW35483   3.717   5.053  12.473 -0.7898  0.1332 -0.3089
 6688SOL    HW135484   3.653   5.008  12.417 -0.7897  1.2431 -1.2066
 6688SOL    HW235485   3.711   5.145  12.449 -0.8925  0.6685  1.6337
 6689SOL     OW35486   2.769   0.311   9.344  0.0181 -0.1931 -0.2359
 6689SOL    HW135487   2.739   0.357   9.421 -0.1962 -1.0409  0.1997
 6689SOL    HW235488   2.696   0.318   9.282 -0.9950 -1.9986  0.7127
 6690SOL     OW35489   5.650   5.691   9.548  0.4822 -0.0110 -0.1692
 6690SOL    HW135490   5.640   5.596   9.546  0.4011 -0.0042 -0.0982
 6690SOL    HW235491   5.709   5.707   9.621  0.3066  0.0131 -0.0349
 6691SOL     OW35492   4.738   3.174   1.020  0.0391 -0.3686 -0.1528
 6691SOL    HW135493   4.775   3.262   1.015 -0.6321 -0.2118 -3.4750
 6691SOL    HW235494   4.814   3.117   1.037  0.6212  0.7296  1.0056
 6692SOL     OW35495   1.209   3.775  10.238 -0.3045 -0.0331 -0.0479
 6692SOL    HW135496   1.202   3.868  10.262  0.4667  0.6267 -2.2674
 6692SOL    HW235497   1.301   3.764  10.213 -0.0576 -1.7454  1.4855
 6693SOL     OW35498   5.266   4.353   0.660 -0.1845  0.8154 -0.2693
 6693SOL    HW135499   5.240   4.280   0.604 -0.4971  0.5325  0.2370
 6693SOL    HW235500   5.189   4.371   0.713  0.6449 -0.0211  1.2376
 6694SOL     OW35501   1.409   0.994   0.012  0.2014 -0.1617  0.2421
 6694SOL    HW135502   1.391   0.924   0.074 -0.7284  0.8049  1.0741
 6694SOL    HW235503   1.428   0.948  -0.070  0.8193 -1.4205  1.0774
 6695SOL     OW35504   2.345   0.746   2.976 -0.7631 -0.9814 -0.1345
 6695SOL    HW135505   2.324   0.680   3.042  0.5666  0.7244  2.0307
 6695SOL    HW235506   2.439   0.736   2.960 -0.2899  1.1685  1.1284
 6696SOL     OW35507   3.081   2.342   0.224 -0.0380 -0.4727  0.7194
 6696SOL    HW135508   3.128   2.361   0.142 -0.6777  0.0830  0.4747
 6696SOL    HW235509   3.149   2.311   0.284  0.3853 -1.1765 -0.1218
 6697SOL     OW35510   2.667   0.150  10.228 -0.4926 -0.2942 -0.7267
 6697SOL    HW135511   2.638   0.235  10.194 -0.8516 -0.1316 -0.0411
 6697SOL    HW235512   2.720   0.112  10.158  0.0696  0.7115 -0.8599
 6698SOL     OW35513   3.463   2.103   9.064  0.1066 -0.4994  0.9165
 6698SOL    HW135514   3.388   2.044   9.056  0.1089 -0.3622 -0.2120
 6698SOL    HW235515   3.537   2.046   9.082 -0.1693 -0.6882  1.4641
 6699SOL     OW35516   2.084   5.825  12.251  0.0477  0.5113 -0.0952
 6699SOL    HW135517   2.084   5.776  12.333 -0.5083 -1.2643 -1.1290
 6699SOL    HW235518   2.027   5.775  12.192 -0.6472  2.4643 -1.1597
 6700SOL     OW35519   3.731   2.880  12.411 -0.2571  0.0118 -0.3915
 6700SOL    HW135520   3.806   2.820  12.412 -0.1489  0.0853  3.2648
 6700SOL    HW235521   3.769   2.965  12.391  0.3281 -0.3181 -0.7170
 6701SOL     OW35522   3.771   2.558   8.983  0.1575 -0.1879 -0.0712
 6701SOL    HW135523   3.827   2.617   8.933 -0.5026  1.2611  0.8830
 6701SOL    HW235524   3.752   2.486   8.922 -0.8990  1.6990 -2.0442
 6702SOL     OW35525   5.581   0.837   2.555 -0.0471  0.3342 -0.0921
 6702SOL    HW135526   5.542   0.773   2.615 -1.7321  0.2696 -1.1925
 6702SOL    HW235527   5.539   0.818   2.471 -0.1540  2.5036 -0.5632
 6703SOL     OW35528   2.634  -0.002   2.648 -0.0200  0.1438  0.0280
 6703SOL    HW135529   2.703   0.059   2.620 -0.1306  0.8745  1.2890
 6703SOL    HW235530   2.552   0.044   2.628 -0.1219 -0.1782 -0.2973
 6704SOL     OW35531   0.786   5.832   2.299  0.6214  0.4558  0.7841
 6704SOL    HW135532   0.829   5.873   2.225 -0.4276 -0.3921 -0.3193
 6704SOL    HW235533   0.743   5.904   2.345 -0.0807  0.7792 -0.3585
 6705SOL     OW35534   3.080   2.838   2.869  0.6096  0.2624 -0.3382
 6705SOL    HW135535   3.017   2.791   2.923 -0.7952  2.1941 -0.2453
 6705SOL    HW235536   3.058   2.813   2.779  2.0781 -1.8872 -0.1465
 6706SOL     OW35537   5.510   5.837   1.505  0.4263 -0.1566  0.2031
 6706SOL    HW135538   5.423   5.866   1.479  0.2288 -1.1718 -0.2904
 6706SOL    HW235539   5.563   5.917   1.508 -0.3790  0.3868 -0.0383
 6707SOL     OW35540   3.649   4.135   0.106  0.0086 -0.3665 -0.0770
 6707SOL    HW135541   3.701   4.059   0.130  1.7452  0.4461 -1.1561
 6707SOL    HW235542   3.592   4.105   0.035  1.8112 -0.2827 -1.5928
 6708SOL     OW35543   2.157   3.710   0.394 -0.8188  0.1690  0.1469
 6708SOL    HW135544   2.184   3.802   0.394 -0.8013  0.1890 -1.4494
 6708SOL    HW235545   2.224   3.665   0.446 -0.6401  1.0151  0.6504
 6709SOL     OW35546   3.118   3.967   8.277  0.2492 -0.5066  0.2039
 6709SOL    HW135547   3.073   3.895   8.322 -0.9983  0.6636  0.8413
 6709SOL    HW235548   3.134   3.933   8.189  0.3499 -1.8496  0.7220
 6710SOL     OW35549   2.176   3.862   3.436 -0.5489  0.5888 -0.0185
 6710SOL    HW135550   2.151   3.776   3.469 -0.3060  0.3888 -0.3491
 6710SOL    HW235551   2.132   3.869   3.351  0.9309  0.0124 -0.8603
 6711SOL     OW35552   3.194   3.593  11.160 -0.4722  0.2853  0.4242
 6711SOL    HW135553   3.177   3.539  11.082 -1.2706  1.9294 -0.5745
 6711SOL    HW235554   3.284   3.623  11.150  0.3313 -1.6978  1.5174
 6712SOL     OW35555   2.097   5.456   2.180 -0.2067  0.6818 -0.7877
 6712SOL    HW135556   2.050   5.419   2.106  2.0710 -1.9093 -0.9997
 6712SOL    HW235557   2.178   5.490   2.143  0.3634  0.5611  0.3229
 6713SOL     OW35558   2.248   3.743   3.026 -0.1728 -0.0199 -0.2530
 6713SOL    HW135559   2.302   3.696   3.089 -0.8897  1.1026  1.2343
 6713SOL    HW235560   2.228   3.827   3.068 -1.0109  0.5910 -1.7961
 6714SOL     OW35561   2.618   0.488  11.003  0.0374  0.2913  0.2854
 6714SOL    HW135562   2.609   0.547  10.928  0.5718  0.8731  0.6766
 6714SOL    HW235563   2.683   0.424  10.975 -2.5269 -1.7590 -1.1816
 6715SOL     OW35564   1.969   4.784  10.753  0.3337 -0.2265  0.1202
 6715SOL    HW135565   1.986   4.721  10.823  0.4872 -1.8633 -1.3538
 6715SOL    HW235566   1.896   4.745  10.704  0.0661  1.0236 -0.4853
 6716SOL     OW35567   1.163   1.097   4.491 -0.6042 -0.3743 -0.0678
 6716SOL    HW135568   1.075   1.062   4.475 -0.5753 -0.9542  0.9648
 6716SOL    HW235569   1.148   1.174   4.545 -0.5945  0.5936 -1.4346
 6717SOL     OW35570   0.419   0.321   4.508  0.3217  0.3954 -0.1376
 6717SOL    HW135571   0.399   0.233   4.538  2.1356 -0.2579 -0.7746
 6717SOL    HW235572   0.355   0.377   4.551 -0.9252 -1.2532  0.1601
 6718SOL     OW35573   4.247   3.508   1.963 -0.1985  0.3153 -0.2137
 6718SOL    HW135574   4.289   3.592   1.948  0.0105  0.0960 -0.8892
 6718SOL    HW235575   4.199   3.490   1.883  1.7495 -1.3578 -1.0688
 6719SOL     OW35576   0.566   5.602   4.041  0.1732 -0.2370  0.3374
 6719SOL    HW135577   0.483   5.608   3.994  1.1096 -1.0589 -1.4782
 6719SOL    HW235578   0.615   5.679   4.012 -0.1578  0.5610  1.8475
 6720SOL     OW35579   4.458   5.101   2.329  0.2138  0.3993 -0.2423
 6720SOL    HW135580   4.511   5.181   2.333  0.8121  0.0688 -1.2409
 6720SOL    HW235581   4.379   5.127   2.282 -0.1325  0.6900  0.4953
 6721SOL     OW35582   0.377   0.413   0.246  0.1729  0.9980  0.4053
 6721SOL    HW135583   0.323   0.378   0.175 -0.8832  2.0323  0.6736
 6721SOL    HW235584   0.465   0.382   0.227 -0.2751  0.4298 -0.8098
 6722SOL     OW35585   2.922   0.938   9.637  0.1019 -0.2499  0.5079
 6722SOL    HW135586   2.856   0.872   9.659 -1.0313  0.1662 -1.5544
 6722SOL    HW235587   2.874   1.005   9.588  2.2246 -0.4584 -1.9464
 6723SOL     OW35588   4.834   3.880   9.693  0.3429  0.4488  0.3132
 6723SOL    HW135589   4.862   3.946   9.757 -1.6523  0.5356  1.1445
 6723SOL    HW235590   4.840   3.797   9.741 -2.2107  0.6340  0.9997
 6724SOL     OW35591   0.695   2.116  10.125  0.4253 -0.1082 -0.3694
 6724SOL    HW135592   0.693   2.036  10.177  0.9899 -0.3542 -0.7189
 6724SOL    HW235593   0.603   2.141  10.117  0.4000  0.5496  1.6776
 6725SOL     OW35594   2.146   4.413   8.649 -0.1894 -0.2602 -0.8131
 6725SOL    HW135595   2.164   4.376   8.735  0.3773  0.8346 -0.4637
 6725SOL    HW235596   2.152   4.338   8.589  0.0866 -0.8922  0.0071
 6726SOL     OW35597   0.639   4.560   2.484 -0.1150  0.1187 -0.4090
 6726SOL    HW135598   0.677   4.518   2.561  0.2965  2.0916  0.4969
 6726SOL    HW235599   0.570   4.616   2.519  0.2773  1.2675 -1.4380
 6727SOL     OW35600   5.773   1.072   2.768  0.6360 -0.3204  0.1988
 6727SOL    HW135601   5.757   1.070   2.673  2.2735 -0.0579 -0.0885
 6727SOL    HW235602   5.833   1.145   2.781 -0.8491  0.6664  1.6544
 6728SOL     OW35603   2.566   4.150   1.931  0.1273 -0.3953 -0.1486
 6728SOL    HW135604   2.588   4.199   2.010 -0.8779 -0.5075  0.2062
 6728SOL    HW235605   2.614   4.194   1.861  0.5678  0.0553  0.4327
 6729SOL     OW35606   2.816   1.050   0.068  0.5422 -0.1667 -0.0861
 6729SOL    HW135607   2.891   1.047   0.009  0.4355  0.4145 -0.2576
 6729SOL    HW235608   2.804   0.959   0.095  1.7963 -0.1505  0.5671
 6730SOL     OW35609   1.952   4.048   1.543 -0.2892  0.2338 -0.4823
 6730SOL    HW135610   1.895   4.028   1.468 -0.9401 -0.2038  0.1229
 6730SOL    HW235611   2.036   4.007   1.521 -0.5372 -0.0602 -0.8882
 6731SOL     OW35612   2.838   0.753   0.205 -0.3017 -0.4322  0.6420
 6731SOL    HW135613   2.861   0.815   0.274 -0.9704  0.2252  0.2784
 6731SOL    HW235614   2.742   0.759   0.198 -0.1975 -0.0871 -0.7132
 6732SOL     OW35615   2.067   3.418  11.808  0.0623  0.0515 -0.8184
 6732SOL    HW135616   2.003   3.362  11.765  1.1036  0.2406 -2.6543
 6732SOL    HW235617   2.086   3.488  11.745  1.2870  0.5723  0.0933
 6733SOL     OW35618   3.316   5.293   0.517 -0.1316  0.4485 -0.3012
 6733SOL    HW135619   3.286   5.325   0.602  1.1422  0.3908  0.1861
 6733SOL    HW235620   3.404   5.328   0.507  0.2832 -0.7256 -0.9460
 6734SOL     OW35621   2.774   0.111  11.478  0.1054 -0.5907  0.2678
 6734SOL    HW135622   2.818   0.029  11.501 -0.5667 -1.0655 -0.1070
 6734SOL    HW235623   2.845   0.175  11.472  0.3399 -0.4687  3.3915
 6735SOL     OW35624   0.508   1.350  11.840  0.0885  0.0984 -0.4056
 6735SOL    HW135625   0.555   1.392  11.767 -0.0316  0.5919 -0.1948
 6735SOL    HW235626   0.563   1.366  11.916 -0.4606  0.7310 -0.1450
 6736SOL     OW35627   1.106   1.953  10.168  0.3226  0.7933 -0.1353
 6736SOL    HW135628   1.079   1.979  10.256 -0.0063 -0.3347  0.1044
 6736SOL    HW235629   1.140   2.033  10.129 -1.4170  1.7731  0.3024
 6737SOL     OW35630   2.054   1.675   9.063 -0.3784 -0.1485 -0.2926
 6737SOL    HW135631   2.116   1.618   9.017 -1.3036 -2.0731  0.7561
 6737SOL    HW235632   1.986   1.615   9.096 -1.1543  1.5039  1.2303
 6738SOL     OW35633   0.752   5.975   3.812 -0.2806  0.1496 -0.1252
 6738SOL    HW135634   0.752   5.940   3.901 -0.8770 -1.5256 -0.7695
 6738SOL    HW235635   0.797   5.909   3.760 -1.1449  0.4820 -1.3012
 6739SOL     OW35636   4.595   1.962   7.797 -0.4492 -0.2334  0.1117
 6739SOL    HW135637   4.575   2.054   7.811  0.9929  0.2515 -0.8879
 6739SOL    HW235638   4.691   1.958   7.794 -0.4718 -1.8700  0.8434
 6740SOL     OW35639   1.362   4.031   1.383  0.1216 -0.2458 -0.4538
 6740SOL    HW135640   1.441   4.081   1.405 -0.6503  0.3041  1.1108
 6740SOL    HW235641   1.294   4.097   1.371 -0.7559 -0.8718  0.9766
 6741SOL     OW35642   0.070   3.556  12.049 -0.2126  0.4833 -0.0808
 6741SOL    HW135643   0.029   3.574  11.965 -0.4121 -0.9086 -0.3000
 6741SOL    HW235644   0.028   3.616  12.110 -0.1718  1.3986 -0.9424
 6742SOL     OW35645   5.054   2.606  10.961  0.1629  0.2127  0.1945
 6742SOL    HW135646   5.108   2.596  10.883  0.1750 -1.0998  0.3669
 6742SOL    HW235647   5.018   2.695  10.954  0.9688  0.4666 -0.7824
 6743SOL     OW35648   3.027   5.279   7.790  0.0680 -0.0155  0.5533
 6743SOL    HW135649   2.944   5.276   7.839 -0.1716  0.5633  0.1937
 6743SOL    HW235650   3.063   5.366   7.810  0.2873 -0.0328  0.2285
 6744SOL     OW35651   4.697   4.646   1.283 -0.6434 -0.0691  0.4582
 6744SOL    HW135652   4.766   4.694   1.238 -0.6670 -0.3972  0.0647
 6744SOL    HW235653   4.632   4.628   1.215 -1.0091  0.0380  0.7743
 6745SOL     OW35654   2.278   5.050   0.624  0.2902  0.3040  0.4230
 6745SOL    HW135655   2.232   5.130   0.651 -0.3047 -0.4938  1.8562
 6745SOL    HW235656   2.245   4.982   0.684  1.1148 -0.9189 -0.4850
 6746SOL     OW35657   1.561   3.758   3.192 -0.3553  0.0746  0.3385
 6746SOL    HW135658   1.509   3.685   3.224  0.3982 -0.6688 -0.1062
 6746SOL    HW235659   1.624   3.718   3.132 -0.0815  1.1151 -0.0809
 6747SOL     OW35660   4.226   4.439   3.083  0.1892 -0.0202 -0.0056
 6747SOL    HW135661   4.178   4.466   3.005 -0.3944 -0.1534  0.2964
 6747SOL    HW235662   4.260   4.521   3.120 -1.3226  0.2845  0.7492
 6748SOL     OW35663   0.252   1.187   8.807  0.1657 -0.4113 -0.2973
 6748SOL    HW135664   0.157   1.202   8.806  0.3253  0.7845  0.6211
 6748SOL    HW235665   0.277   1.187   8.715 -0.6307 -0.0347 -0.5215
 6749SOL     OW35666   4.908   1.251  11.258 -0.1914  0.5666  0.3226
 6749SOL    HW135667   4.886   1.293  11.174  1.4589  2.1266  0.6205
 6749SOL    HW235668   4.963   1.176  11.233 -0.5013  0.4577 -0.0448
 6750SOL     OW35669   0.962   3.798   3.927  0.0530  0.2854 -0.2652
 6750SOL    HW135670   0.964   3.747   3.846 -1.3145  1.5563 -1.1362
 6750SOL    HW235671   0.872   3.790   3.958  1.0653 -1.8622  2.2663
 6751SOL     OW35672   5.201   2.777  10.383 -0.0307  0.4759  0.1565
 6751SOL    HW135673   5.143   2.737  10.448 -0.4956  1.7532  0.5342
 6751SOL    HW235674   5.267   2.823  10.434  1.9980 -1.8773 -0.2592
 6752SOL     OW35675   5.502   1.217  11.638 -0.5482 -0.3624  0.8234
 6752SOL    HW135676   5.579   1.258  11.600 -0.6730 -1.1799 -0.3385
 6752SOL    HW235677   5.521   1.213  11.732  0.2727  0.5915  0.7046
 6753SOL     OW35678   2.812   1.571   0.880 -0.5284 -0.3019  0.1313
 6753SOL    HW135679   2.858   1.624   0.945 -0.8871 -1.4494  1.3472
 6753SOL    HW235680   2.720   1.575   0.907 -0.9815  0.9982 -1.5812
 6754SOL     OW35681   4.728   2.759   2.086 -0.1123 -0.5387  0.2097
 6754SOL    HW135682   4.701   2.765   2.177  0.4658 -2.2331  0.5244
 6754SOL    HW235683   4.734   2.664   2.069  0.0357 -0.2485 -1.4991
 6755SOL     OW35684   1.015   2.167  12.253 -0.3237 -0.0002 -0.3619
 6755SOL    HW135685   1.066   2.228  12.306 -1.8924 -0.5000  1.8047
 6755SOL    HW235686   1.022   2.083  12.298 -1.5310 -0.4892 -1.0455
 6756SOL     OW35687   3.871   5.335  -0.003 -0.4465 -1.0864 -0.0661
 6756SOL    HW135688   3.923   5.263   0.033 -0.7469 -1.4393 -0.3258
 6756SOL    HW235689   3.916   5.415   0.027 -0.6348 -1.3686  1.0020
 6757SOL     OW35690   1.432   0.217   0.316  0.3384  0.4046 -0.9856
 6757SOL    HW135691   1.445   0.132   0.358  1.9689  0.0727 -2.1104
 6757SOL    HW235692   1.339   0.220   0.295  0.0341 -0.5779  0.1669
 6758SOL     OW35693   2.973   5.364   2.714  0.0687 -0.2067  0.4819
 6758SOL    HW135694   3.006   5.453   2.697  0.2880 -0.0626  1.6320
 6758SOL    HW235695   3.023   5.308   2.654 -0.6130  0.5353 -0.8009
 6759SOL     OW35696   2.159   2.816   0.439  0.1656  0.2239 -0.0610
 6759SOL    HW135697   2.158   2.790   0.347 -0.7658  2.3005 -0.6755
 6759SOL    HW235698   2.243   2.783   0.472  0.8408  0.0814 -1.8377
 6760SOL     OW35699   3.325   4.298  11.971  0.6482 -0.0004  0.1313
 6760SOL    HW135700   3.355   4.277  11.883  0.0279 -0.4949  0.0321
 6760SOL    HW235701   3.285   4.384  11.964  0.9615  0.1396  0.0197
 6761SOL     OW35702   5.307   0.762  10.414  0.0136 -0.7531 -0.6252
 6761SOL    HW135703   5.360   0.834  10.378 -0.1344 -0.7346 -0.8105
 6761SOL    HW235704   5.300   0.700  10.341 -0.2273 -0.7522 -0.6036
 6762SOL     OW35705   5.646   0.729  10.498 -0.0305 -0.3119  0.3587
 6762SOL    HW135706   5.630   0.636  10.515  1.2208 -0.7038 -0.5250
 6762SOL    HW235707   5.584   0.774  10.555 -3.1882 -1.7437 -1.7414
 6763SOL     OW35708   1.557   0.509  12.337  0.1544 -0.2246  0.6168
 6763SOL    HW135709   1.539   0.477  12.248 -2.0946  0.4294  0.8040
 6763SOL    HW235710   1.551   0.431  12.392 -0.3283 -0.3088  0.4454
 6764SOL     OW35711   5.251   4.429   8.586  0.4504 -0.0936 -0.6233
 6764SOL    HW135712   5.318   4.456   8.648  0.1259 -1.2277  0.2380
 6764SOL    HW235713   5.169   4.462   8.623  0.2705 -0.6423 -0.5392
 6765SOL     OW35714   5.828   2.763   2.060  0.5172  0.6918  0.0165
 6765SOL    HW135715   5.740   2.801   2.058  0.9930  1.8821  0.8312
 6765SOL    HW235716   5.824   2.695   2.127 -0.2644 -0.5498 -1.2437
 6766SOL     OW35717   3.452   0.488   1.721  0.5872 -0.1617  0.1321
 6766SOL    HW135718   3.452   0.568   1.667 -1.2282 -0.4037 -0.2634
 6766SOL    HW235719   3.451   0.521   1.811 -0.5351  0.2633 -0.0319
 6767SOL     OW35720   0.318   0.973   1.887 -0.3257  0.5105  0.3652
 6767SOL    HW135721   0.223   0.970   1.871  0.0155  1.5509 -2.0479
 6767SOL    HW235722   0.329   1.047   1.946 -0.9421  0.9048  0.0014
 6768SOL     OW35723   3.591   4.785   1.912 -0.1024  0.7700 -0.0352
 6768SOL    HW135724   3.617   4.764   1.822  0.3292 -0.8342  0.4575
 6768SOL    HW235725   3.501   4.753   1.919  0.3743 -0.4610  0.5532
 6769SOL     OW35726   4.602   3.185   2.385  0.4606 -0.0246  0.3260
 6769SOL    HW135727   4.625   3.092   2.381 -0.4186 -0.2053 -0.8842
 6769SOL    HW235728   4.511   3.188   2.356  0.6315  1.2725 -0.1113
 6770SOL     OW35729   3.618   1.831  10.155  0.2002 -0.0733  0.0770
 6770SOL    HW135730   3.622   1.795  10.244 -1.7962 -0.2346  0.1237
 6770SOL    HW235731   3.638   1.924  10.167  1.9771 -0.4769  0.4053
 6771SOL     OW35732   3.502   0.273   0.176  0.1977 -0.0801  0.4537
 6771SOL    HW135733   3.450   0.236   0.247 -0.5791 -0.0780 -0.1079
 6771SOL    HW235734   3.464   0.360   0.160  0.7241  0.1450  0.4181
 6772SOL     OW35735   2.732   1.113   3.991 -0.5918 -0.0289 -0.3128
 6772SOL    HW135736   2.644   1.091   4.021 -0.3886  1.7294  1.6189
 6772SOL    HW235737   2.751   1.199   4.029  1.1625  0.5641 -2.3891
 6773SOL     OW35738   0.158   3.818   9.125 -0.5483  0.2290  0.8386
 6773SOL    HW135739   0.111   3.739   9.100 -0.4915 -0.3446  2.4505
 6773SOL    HW235740   0.140   3.827   9.219  2.2080  0.2294  1.3904
 6774SOL     OW35741   2.267   0.885   9.940  0.1105  0.2590 -0.4067
 6774SOL    HW135742   2.243   0.817   9.878 -0.4540  0.5654 -0.5257
 6774SOL    HW235743   2.271   0.840  10.025  2.2992 -0.4705 -0.8618
 6775SOL     OW35744   4.447   3.521  11.566 -0.9869  0.5466  0.4490
 6775SOL    HW135745   4.376   3.580  11.591  0.4199  1.8388  1.5246
 6775SOL    HW235746   4.524   3.577  11.562  0.5537 -1.3613  2.3378
 6776SOL     OW35747   5.512   1.820   8.327 -0.1963  0.2566  0.3003
 6776SOL    HW135748   5.480   1.821   8.417 -2.0531  0.8587 -0.3515
 6776SOL    HW235749   5.508   1.912   8.299  0.5758  0.1067 -0.3336
 6777SOL     OW35750   1.810   4.101  10.876 -0.4021 -0.1225  0.6950
 6777SOL    HW135751   1.888   4.150  10.901  1.4387 -2.3699 -0.4283
 6777SOL    HW235752   1.793   4.043  10.951  0.1064 -0.9351  0.1826
 6778SOL     OW35753   4.561   3.603   0.999 -0.1962 -0.2541  0.1392
 6778SOL    HW135754   4.623   3.612   0.927 -1.0492 -2.1300 -0.8400
 6778SOL    HW235755   4.613   3.620   1.078  0.7669  1.6454 -0.8761
 6779SOL     OW35756   4.519   1.392  10.391  1.3425 -0.5276  0.7852
 6779SOL    HW135757   4.507   1.349  10.476 -0.6776 -1.9251 -0.1831
 6779SOL    HW235758   4.550   1.480  10.414  1.5697 -1.1285  2.9442
 6780SOL     OW35759   2.195   4.428   0.380 -0.7326  0.7522  0.1563
 6780SOL    HW135760   2.167   4.516   0.355 -1.1375  0.3530 -0.8138
 6780SOL    HW235761   2.268   4.442   0.440 -0.5552  1.7365 -0.2829
 6781SOL     OW35762   5.271   5.616   0.256  0.2957  0.2914  0.3538
 6781SOL    HW135763   5.305   5.527   0.258  0.8307  0.5056  1.2843
 6781SOL    HW235764   5.183   5.609   0.294  1.7296  0.7090  3.9520
 6782SOL     OW35765   1.418   2.395   0.187 -0.6920  0.7335  0.2041
 6782SOL    HW135766   1.469   2.472   0.162 -0.2947  0.3881 -0.0514
 6782SOL    HW235767   1.384   2.361   0.105 -0.6181  0.4556  0.2891
 6783SOL     OW35768   5.014   1.318   2.908  0.2204  0.3717 -0.3135
 6783SOL    HW135769   4.987   1.368   2.984  0.1545  1.1526 -0.8414
 6783SOL    HW235770   5.011   1.381   2.835 -2.6912 -1.0883 -1.5425
 6784SOL     OW35771   0.264   3.265   1.309  0.0843  0.0541  0.0388
 6784SOL    HW135772   0.356   3.253   1.333  0.2155 -1.2064 -1.0258
 6784SOL    HW235773   0.230   3.176   1.301 -0.3078  0.4206 -3.0046
 6785SOL     OW35774   3.526   2.283   1.066 -0.3316 -0.6434 -0.1077
 6785SOL    HW135775   3.512   2.242   1.152 -2.2151  0.2836  0.0748
 6785SOL    HW235776   3.540   2.210   1.006  0.3111 -1.3342  0.8700
 6786SOL     OW35777   0.543   0.436   2.868  0.2851 -0.0117 -0.1775
 6786SOL    HW135778   0.552   0.529   2.884  0.9940 -0.3854  1.6820
 6786SOL    HW235779   0.453   0.425   2.838 -0.6768  0.9360  2.2323
 6787SOL     OW35780   4.916   3.414  11.079 -0.9237 -0.1195 -0.3222
 6787SOL    HW135781   5.007   3.417  11.111 -1.0818 -1.2248  0.2479
 6787SOL    HW235782   4.903   3.499  11.036  0.0243  0.5047  0.5878
 6788SOL     OW35783   2.212   0.615   8.473  0.0779 -0.7058  0.1168
 6788SOL    HW135784   2.273   0.569   8.530  2.0899  2.3628  0.5666
 6788SOL    HW235785   2.265   0.643   8.398 -0.9112  1.2838  0.1199
 6789SOL     OW35786   2.272   1.575   2.849  0.1655  0.2925 -0.1432
 6789SOL    HW135787   2.194   1.546   2.897  0.1023  2.3409  1.0449
 6789SOL    HW235788   2.237   1.629   2.778  0.4914  1.2658  0.4278
 6790SOL     OW35789   0.364   3.373   2.889  0.4558  0.0454  0.3810
 6790SOL    HW135790   0.330   3.462   2.875  0.9615  0.4645  1.6792
 6790SOL    HW235791   0.302   3.316   2.844  0.7334  1.1305 -1.4297
 6791SOL     OW35792   1.053   2.393   3.535 -0.0521 -0.9175 -0.4065
 6791SOL    HW135793   1.053   2.453   3.610 -1.9312 -0.8710 -0.4355
 6791SOL    HW235794   1.001   2.318   3.564 -0.0933 -1.2712 -1.3692
 6792SOL     OW35795   0.748   5.602   0.119 -0.3701 -0.5291 -0.1819
 6792SOL    HW135796   0.772   5.515   0.086  0.4390 -0.6629  0.7377
 6792SOL    HW235797   0.778   5.662   0.051  0.8737 -0.8340  0.0888
 6793SOL     OW35798   0.579   2.498  10.576  0.2310 -0.4274 -0.1855
 6793SOL    HW135799   0.629   2.420  10.551  0.4337 -0.0981 -0.7954
 6793SOL    HW235800   0.620   2.570  10.528 -1.4449 -0.3015 -1.4781
 6794SOL     OW35801   2.463   2.876   3.626  0.7735 -0.2488  0.3807
 6794SOL    HW135802   2.435   2.792   3.590 -1.4547  0.2996  0.7576
 6794SOL    HW235803   2.490   2.856   3.716 -0.1709 -0.5166  0.6158
 6795SOL     OW35804   0.984   2.194   9.642 -0.1779 -0.0988  0.3357
 6795SOL    HW135805   1.020   2.200   9.730  2.1114 -1.8820 -0.4248
 6795SOL    HW235806   0.907   2.137   9.651 -1.7684  2.1878  1.6524
 6796SOL     OW35807   5.725   3.442   0.328  0.0611 -0.0763  0.1716
 6796SOL    HW135808   5.642   3.396   0.341  0.0242  0.2256  1.0494
 6796SOL    HW235809   5.762   3.403   0.250  0.2997 -2.0195  1.2333
 6797SOL     OW35810   1.976   4.388   9.101  0.5080  0.1129 -0.1469
 6797SOL    HW135811   1.895   4.363   9.145  0.9359 -0.7390  0.1833
 6797SOL    HW235812   2.030   4.426   9.171  0.1892  1.1844 -0.4723
 6798SOL     OW35813   1.616   3.438   9.259  0.2036 -0.1117 -0.8397
 6798SOL    HW135814   1.591   3.351   9.227  2.6386 -1.1893  0.0700
 6798SOL    HW235815   1.692   3.461   9.205 -1.0506  1.9297 -1.7785
 6799SOL     OW35816   0.348   5.248   2.376 -0.3022  0.4196  0.3312
 6799SOL    HW135817   0.439   5.276   2.386 -0.3354  0.0316  1.7613
 6799SOL    HW235818   0.297   5.329   2.379  0.0096  0.6833 -0.9040
 6800SOL     OW35819   3.548   0.799  11.348 -0.3829  0.4203  0.4992
 6800SOL    HW135820   3.528   0.748  11.426  0.7977 -1.3446 -0.3245
 6800SOL    HW235821   3.470   0.852  11.334 -1.9818 -1.7370  0.9373
 6801SOL     OW35822   1.196   4.688   8.125  0.0082 -0.1256 -0.3347
 6801SOL    HW135823   1.103   4.709   8.119 -0.1556 -0.6781  0.1976
 6801SOL    HW235824   1.205   4.604   8.080 -0.2420 -1.4615  2.0193
 6802SOL     OW35825   2.337   0.913   2.309  0.3980  0.4412  0.5393
 6802SOL    HW135826   2.372   0.954   2.229 -0.1221 -1.0106 -0.4584
 6802SOL    HW235827   2.324   0.986   2.369 -0.5767  1.7535 -1.2221
 6803SOL     OW35828   2.285   5.818  11.993 -0.0252  0.3636 -0.1195
 6803SOL    HW135829   2.225   5.799  12.065  0.7976  0.8955  0.7020
 6803SOL    HW235830   2.230   5.860  11.927 -0.6391  0.5122  0.4779
 6804SOL     OW35831   0.172   5.414   8.607 -0.8444  0.2152 -0.6047
 6804SOL    HW135832   0.265   5.393   8.594 -0.2257  1.8820  0.9669
 6804SOL    HW235833   0.144   5.451   8.523 -0.8669 -2.8526 -2.0355
 6805SOL     OW35834   3.878   4.545  11.137 -0.1424  0.0866 -0.2597
 6805SOL    HW135835   3.822   4.515  11.209  0.6466  0.0507  0.3593
 6805SOL    HW235836   3.967   4.538  11.173  0.3878 -1.5526 -1.8182
 6806SOL     OW35837   5.496   3.072   3.292 -0.1495  0.5174 -0.7081
 6806SOL    HW135838   5.436   2.997   3.291 -0.8068  1.0073  0.2397
 6806SOL    HW235839   5.487   3.108   3.381  0.9024  1.1197 -0.8390
 6807SOL     OW35840   5.793   0.191  10.106 -0.4722  0.2845  0.8170
 6807SOL    HW135841   5.759   0.109  10.140  0.1870  0.3156  1.5801
 6807SOL    HW235842   5.715   0.244  10.088 -0.9013 -0.5640  0.1493
 6808SOL     OW35843   4.729   0.755   7.963  0.0039 -0.6007  0.0310
 6808SOL    HW135844   4.649   0.709   7.935  0.1796 -0.2970 -0.9983
 6808SOL    HW235845   4.798   0.719   7.908  0.4546 -0.3314  0.4136
 6809SOL     OW35846   4.632   0.492   2.692  0.0934 -0.7501 -0.0476
 6809SOL    HW135847   4.652   0.436   2.767  1.4089 -0.0006  0.1828
 6809SOL    HW235848   4.648   0.437   2.616  1.2540 -0.7597  0.1817
 6810SOL     OW35849   1.314   2.301   8.158 -0.4422  0.1901 -0.2177
 6810SOL    HW135850   1.383   2.366   8.171 -0.1834 -0.2305  0.5410
 6810SOL    HW235851   1.357   2.229   8.112 -0.3917 -0.0233  0.1546
 6811SOL     OW35852   0.779   3.495   9.622 -0.1550 -0.3208 -0.1284
 6811SOL    HW135853   0.807   3.584   9.600  1.6672  0.0463  3.3735
 6811SOL    HW235854   0.703   3.508   9.679  0.4212 -1.0047  0.7901
 6812SOL     OW35855   4.457   3.494   8.562 -1.3382  0.5386  0.6489
 6812SOL    HW135856   4.454   3.579   8.604  0.2640  0.3185  1.2435
 6812SOL    HW235857   4.473   3.514   8.469 -0.8671  0.8810  0.8022
 6813SOL     OW35858   3.797   3.876   2.866  0.1878 -0.0082  0.0617
 6813SOL    HW135859   3.877   3.926   2.879 -0.2871  0.6635  0.5110
 6813SOL    HW235860   3.823   3.798   2.818  1.3226 -0.4205  1.3210
 6814SOL     OW35861   2.106   2.204   3.897  0.3509 -0.4617 -0.2922
 6814SOL    HW135862   2.170   2.261   3.855 -0.2477 -1.0595 -2.0914
 6814SOL    HW235863   2.146   2.117   3.894  0.4191 -0.4692  0.6496
 6815SOL     OW35864   1.280   2.612   1.621  0.1279  0.0648  0.1718
 6815SOL    HW135865   1.221   2.680   1.587  1.7006  1.6594  0.5846
 6815SOL    HW235866   1.251   2.600   1.712 -0.1492  0.1799  0.1021
 6816SOL     OW35867   2.717   3.296  11.441  0.1582 -0.3296  0.6177
 6816SOL    HW135868   2.649   3.356  11.470 -0.3242 -0.5043 -0.1483
 6816SOL    HW235869   2.741   3.247  11.519 -1.2805 -0.9483  0.6847
 6817SOL     OW35870   3.204   0.734   1.561 -0.4944  0.5527 -0.2427
 6817SOL    HW135871   3.127   0.786   1.537 -1.1594 -0.3375 -0.0853
 6817SOL    HW235872   3.182   0.698   1.647 -0.8402 -1.4891 -1.1590
 6818SOL     OW35873   4.660   2.908   7.606  0.1344  0.3097  0.4408
 6818SOL    HW135874   4.578   2.954   7.626 -0.9342 -1.5719  0.5907
 6818SOL    HW235875   4.709   2.908   7.688 -0.1564  0.6092  0.6142
 6819SOL     OW35876   2.933   5.095  10.960 -0.0868  0.4979 -0.2568
 6819SOL    HW135877   2.919   5.105  10.865 -1.6368  0.8727 -0.0093
 6819SOL    HW235878   2.953   5.003  10.972  0.1701  0.4574 -0.9652
 6820SOL     OW35879   4.970   4.915   8.728 -0.2233 -0.3371  0.2211
 6820SOL    HW135880   5.065   4.911   8.720 -0.1702 -0.8418  1.0295
 6820SOL    HW235881   4.949   5.007   8.714  0.3886 -0.2137  0.0797
 6821SOL     OW35882   4.909   0.709  11.868  0.2172 -0.2034  0.1892
 6821SOL    HW135883   4.975   0.648  11.901  0.1742 -0.3558 -0.0011
 6821SOL    HW235884   4.831   0.655  11.857  0.4659 -0.3433 -0.9660
 6822SOL     OW35885   3.239   5.135   1.202 -1.0189 -0.4962 -0.0027
 6822SOL    HW135886   3.201   5.147   1.115 -0.9640  0.8435  0.1396
 6822SOL    HW235887   3.315   5.079   1.189 -1.7955 -1.4087 -0.6166
 6823SOL     OW35888   2.442   2.719   0.495 -0.5374 -0.3283  0.7726
 6823SOL    HW135889   2.478   2.798   0.456 -0.2446 -1.4912 -1.3693
 6823SOL    HW235890   2.511   2.687   0.554  0.3365 -0.3417 -0.2457
 6824SOL     OW35891   4.411   2.102   9.453 -0.1674 -0.1827 -0.3100
 6824SOL    HW135892   4.327   2.057   9.448  1.1902 -2.7816 -0.6303
 6824SOL    HW235893   4.425   2.138   9.365 -1.4641  1.2909  0.0682
 6825SOL     OW35894   1.183   4.974   3.427  0.4005  0.4660 -0.1880
 6825SOL    HW135895   1.205   5.060   3.461  0.5183  0.9404 -1.4429
 6825SOL    HW235896   1.141   4.929   3.501  0.1309  1.6697  0.4036
 6826SOL     OW35897   1.697   5.078  10.110  0.2315 -0.7761 -0.2088
 6826SOL    HW135898   1.743   5.024  10.174 -1.8365 -3.0960 -0.6013
 6826SOL    HW235899   1.670   5.017  10.042 -1.0083  0.9991 -1.3606
 6827SOL     OW35900   3.113   3.654   1.326 -0.3563  0.8002 -0.1592
 6827SOL    HW135901   3.169   3.727   1.299 -1.2825  0.5798 -2.9033
 6827SOL    HW235902   3.054   3.641   1.251 -2.3941 -0.6096  1.6453
 6828SOL     OW35903   2.184   5.553  11.433 -0.2537 -0.4704  0.3344
 6828SOL    HW135904   2.183   5.554  11.337  0.8193 -0.6280  0.3155
 6828SOL    HW235905   2.247   5.622  11.457 -0.0984 -0.8113  0.9205
 6829SOL     OW35906   5.937   1.920   0.814 -0.1264  0.4419 -0.4651
 6829SOL    HW135907   5.980   1.979   0.875 -0.1560 -0.2328  0.2219
 6829SOL    HW235908   5.917   1.842   0.866  2.4204 -1.2975 -2.0181
 6830SOL     OW35909   2.739   2.370   0.002  0.1403 -0.1004 -0.5198
 6830SOL    HW135910   2.714   2.447   0.053  0.3752 -0.1043 -0.3959
 6830SOL    HW235911   2.718   2.296   0.059 -2.0276 -0.2395 -1.4366
 6831SOL     OW35912   2.486   0.408   0.339  0.6666 -0.0560 -0.5336
 6831SOL    HW135913   2.439   0.325   0.336 -1.9386  1.2284  2.2912
 6831SOL    HW235914   2.543   0.401   0.416  0.9323  0.5141 -0.6723
 6832SOL     OW35915   4.982   3.427   1.348 -0.1059 -0.0905 -0.3215
 6832SOL    HW135916   5.027   3.415   1.265 -0.2588 -0.1050 -0.4026
 6832SOL    HW235917   4.918   3.355   1.351 -1.1912  0.8427 -0.9098
 6833SOL     OW35918   5.034   0.628  10.838 -0.3006 -0.6387 -0.3957
 6833SOL    HW135919   4.954   0.682  10.837  0.6000  0.7735  0.7511
 6833SOL    HW235920   5.092   0.671  10.775  0.3108 -0.4415  0.2955
 6834SOL     OW35921   3.170   3.767   2.568  0.7102  0.5269 -0.1209
 6834SOL    HW135922   3.131   3.715   2.639  0.4704  2.5992  1.3109
 6834SOL    HW235923   3.106   3.836   2.552  0.5739 -0.1358 -2.6908
 6835SOL     OW35924   4.444   5.676  10.272 -0.0982  0.4017 -0.0883
 6835SOL    HW135925   4.377   5.608  10.276  1.7052 -1.4474 -0.0562
 6835SOL    HW235926   4.449   5.700  10.180  1.3044 -1.6848 -0.5854
 6836SOL     OW35927   1.230   5.488   1.484  0.5135 -0.8169  0.1903
 6836SOL    HW135928   1.200   5.578   1.489 -1.0489 -1.1143 -2.6677
 6836SOL    HW235929   1.258   5.467   1.573 -1.9645  1.4726  1.5866
 6837SOL     OW35930   3.935   1.415  12.022 -0.1078  0.4143  0.1254
 6837SOL    HW135931   4.019   1.458  12.038 -0.6655  1.7966 -0.5845
 6837SOL    HW235932   3.874   1.458  12.083 -0.6956  0.7401 -0.6774
 6838SOL     OW35933   2.078   2.508   8.778  0.1293 -0.3956 -0.5191
 6838SOL    HW135934   2.021   2.431   8.787 -0.7715  0.1938 -1.1690
 6838SOL    HW235935   2.075   2.550   8.864 -0.0007 -0.6469 -0.3997
 6839SOL     OW35936   4.320   5.023   2.826  0.5895 -0.9556  0.3736
 6839SOL    HW135937   4.318   4.966   2.748  0.7431  0.8404 -0.9804
 6839SOL    HW235938   4.304   5.111   2.791  1.1195 -0.0649  2.3316
 6840SOL     OW35939   3.065   5.394  10.737 -0.1903  0.5077  0.1586
 6840SOL    HW135940   3.121   5.424  10.665 -1.6841  1.9514 -0.4181
 6840SOL    HW235941   3.066   5.298  10.729  0.1521  0.6327 -1.4148
 6841SOL     OW35942   5.143   2.256  10.015 -0.2913 -0.4087 -0.4244
 6841SOL    HW135943   5.083   2.254   9.940 -0.5433  2.3970 -0.3595
 6841SOL    HW235944   5.207   2.323   9.992  0.4722 -0.5543  1.2289
 6842SOL     OW35945   0.811   2.162   4.176  0.3472 -0.0338  0.3185
 6842SOL    HW135946   0.754   2.222   4.128  0.3954  0.3216  0.7021
 6842SOL    HW235947   0.893   2.210   4.185  1.0194 -0.8869 -1.0263
 6843SOL     OW35948   5.390   4.746  11.381  0.3498 -0.4676  0.4763
 6843SOL    HW135949   5.464   4.803  11.363  1.0167 -1.3503  0.3773
 6843SOL    HW235950   5.317   4.784  11.332  0.7472  0.3850  0.5456
 6844SOL     OW35951   0.439   5.863   0.884  0.1458 -0.0073 -0.0468
 6844SOL    HW135952   0.418   5.863   0.790 -0.6687  0.0024  0.1354
 6844SOL    HW235953   0.449   5.955   0.906  0.1537  0.0011 -0.0833
 6845SOL     OW35954   1.415   4.630  10.964 -0.4532  0.1949 -0.3668
 6845SOL    HW135955   1.337   4.596  10.919  0.1352  1.3637 -2.3475
 6845SOL    HW235956   1.477   4.557  10.964 -1.7978 -0.9973  1.9257
 6846SOL     OW35957   3.508   5.237   0.205 -0.0119  0.3499  0.4034
 6846SOL    HW135958   3.444   5.303   0.233 -0.2703 -0.4611  1.7407
 6846SOL    HW235959   3.580   5.246   0.266  0.0512 -0.4605  0.4517
 6847SOL     OW35960   2.923   1.276  11.883  0.2256  0.0435  0.4046
 6847SOL    HW135961   2.970   1.213  11.828  0.5221  0.0988  0.5893
 6847SOL    HW235962   2.963   1.267  11.969 -0.2426 -0.0503  0.6152
 6848SOL     OW35963   3.656   2.743  11.261 -0.0430  0.0472  0.2239
 6848SOL    HW135964   3.743   2.711  11.236 -1.0971 -1.6424 -1.3762
 6848SOL    HW235965   3.621   2.674  11.319 -0.1460  0.9285  1.2202
 6849SOL     OW35966   3.200   1.708   8.381  0.2068 -0.3870 -0.4817
 6849SOL    HW135967   3.228   1.725   8.291 -0.2901 -1.4149 -0.8537
 6849SOL    HW235968   3.275   1.666   8.422 -0.4335 -2.2865 -1.1975
 6850SOL     OW35969   4.205   4.438  11.698 -0.3395 -0.3792 -0.4073
 6850SOL    HW135970   4.161   4.354  11.700  0.5493 -0.8375  1.4963
 6850SOL    HW235971   4.187   4.473  11.611 -2.0116 -1.8271 -0.6702
 6851SOL     OW35972   2.924   1.831  11.602  0.3374 -0.1913  0.3672
 6851SOL    HW135973   2.848   1.842  11.546  2.8695  0.7624 -3.0795
 6851SOL    HW235974   2.925   1.738  11.625 -1.0491 -0.4732 -0.7096
 6852SOL     OW35975   3.121   4.288  11.523 -0.0830  0.7177  0.0431
 6852SOL    HW135976   3.034   4.246  11.518 -0.5053  1.3313  2.0235
 6852SOL    HW235977   3.169   4.251  11.449 -1.6971 -0.4245 -0.4671
 6853SOL     OW35978   3.355   5.501   2.146  0.0516  0.2033 -0.8602
 6853SOL    HW135979   3.301   5.507   2.225 -0.5445  1.7607 -1.3655
 6853SOL    HW235980   3.311   5.436   2.092  2.0397 -3.0294  1.2625
 6854SOL     OW35981   5.097   1.762  11.870  0.1607  0.1918  0.2993
 6854SOL    HW135982   5.081   1.717  11.788  1.6071  1.3076 -0.6161
 6854SOL    HW235983   5.045   1.714  11.935  0.8995 -2.1861 -0.8195
 6855SOL     OW35984   2.263   1.943   8.032  0.1442  0.2539  0.1169
 6855SOL    HW135985   2.275   1.854   8.065 -1.3353 -0.2305 -0.6317
 6855SOL    HW235986   2.350   1.983   8.041  0.4307 -0.7100  2.0604
 6856SOL     OW35987   5.400   3.188   7.850  0.2186  0.3552  0.6750
 6856SOL    HW135988   5.413   3.121   7.783 -0.8000  0.1624  0.6657
 6856SOL    HW235989   5.374   3.267   7.802 -2.0930 -0.2103  0.9422
 6857SOL     OW35990   2.215   1.838   9.216  0.2431 -0.3219  0.4079
 6857SOL    HW135991   2.241   1.913   9.162  0.7489  1.4528  2.9957
 6857SOL    HW235992   2.171   1.778   9.156  0.2299  1.8574 -1.8108
 6858SOL     OW35993   0.877   0.380   3.264 -0.4462 -0.1434 -0.1363
 6858SOL    HW135994   0.844   0.294   3.238 -0.5136 -0.6583  1.6135
 6858SOL    HW235995   0.972   0.374   3.252  0.1380 -2.0925  4.3812
 6859SOL     OW35996   5.526   4.267  11.574 -0.3519  0.3650 -0.4157
 6859SOL    HW135997   5.467   4.235  11.642 -2.5381  0.3465 -2.2652
 6859SOL    HW235998   5.504   4.359  11.565  0.6680  0.6178 -0.3764
 6860SOL     OW35999   5.607   2.936  11.565 -0.0286  0.0435  0.1681
 6860SOL    HW136000   5.618   2.953  11.658  1.0911  1.0200 -0.1310
 6860SOL    HW236001   5.635   3.017  11.522 -0.0783 -0.5629 -1.0352
 6861SOL     OW36002   2.480   1.667   3.440  0.1880 -0.2221 -0.4712
 6861SOL    HW136003   2.513   1.656   3.351 -0.6509  0.1107 -0.8416
 6861SOL    HW236004   2.466   1.762   3.448 -1.1836 -0.4006 -0.5358
 6862SOL     OW36005   5.942   4.846   1.010 -0.2394 -0.5173  0.4539
 6862SOL    HW136006   5.859   4.847   1.057  0.1181 -0.2946  1.0838
 6862SOL    HW236007   5.918   4.853   0.917 -0.9032 -0.1798  0.6524
 6863SOL     OW36008   2.190   1.545   8.865 -0.0602 -0.3245  0.4888
 6863SOL    HW136009   2.154   1.498   8.790 -1.0694  0.1012  0.7063
 6863SOL    HW236010   2.220   1.477   8.925  0.6110 -0.6724 -0.2218
 6864SOL     OW36011   3.579   0.129   1.317  0.1074 -0.1246  0.5342
 6864SOL    HW136012   3.671   0.102   1.316 -0.1463 -0.9464 -0.9336
 6864SOL    HW236013   3.579   0.217   1.280  0.4079  0.2685  1.4394
 6865SOL     OW36014   0.617   1.292  12.477 -0.2420  0.2706 -0.4926
 6865SOL    HW136015   0.638   1.385  12.470 -0.3443  0.3362  0.0871
 6865SOL    HW236016   0.700   1.247  12.465  0.0423  0.4854  0.6551
 6866SOL     OW36017   1.252   4.164   1.705 -0.0666  0.3308  0.2161
 6866SOL    HW136018   1.249   4.245   1.655 -1.2740 -0.5892 -1.2752
 6866SOL    HW236019   1.184   4.109   1.665 -0.3325 -0.8319  2.2030
 6867SOL     OW36020   5.180   4.154   7.941  0.1811 -0.1913  1.0646
 6867SOL    HW136021   5.175   4.118   7.852  0.0566 -1.5943  1.6298
 6867SOL    HW236022   5.265   4.199   7.943  1.0744 -1.8143  0.8283
 6868SOL     OW36023   5.872   2.254  11.160  0.7051  0.1819  0.5279
 6868SOL    HW136024   5.818   2.232  11.235  0.4878 -0.1116  0.2859
 6868SOL    HW236025   5.914   2.337  11.184  1.2404 -0.3002  1.2908
 6869SOL     OW36026   3.556   2.032   2.987 -1.1477 -0.1418  0.3452
 6869SOL    HW136027   3.640   1.988   2.973 -1.3446  0.0629 -1.6537
 6869SOL    HW236028   3.573   2.096   3.056  0.6459  0.6415 -0.7843
 6870SOL     OW36029   1.333   0.592   9.408  0.2108  0.4787 -0.0139
 6870SOL    HW136030   1.312   0.562   9.319  0.7594  0.3571 -0.1054
 6870SOL    HW236031   1.266   0.658   9.427  0.0024  0.4006 -0.4615
 6871SOL     OW36032   5.292   3.810   0.808  0.2054 -0.2448  0.2502
 6871SOL    HW136033   5.218   3.752   0.827 -1.0995  1.2610 -0.1118
 6871SOL    HW236034   5.368   3.763   0.842 -0.9514 -1.6831  0.9371
 6872SOL     OW36035   2.931   4.500   0.787  0.5611  0.1080 -0.3311
 6872SOL    HW136036   3.002   4.528   0.844 -0.0736  1.1965 -0.0627
 6872SOL    HW236037   2.930   4.565   0.716  0.7045 -0.6663 -1.0537
 6873SOL     OW36038   5.610   0.542   0.500  0.4311 -0.3251  0.0921
 6873SOL    HW136039   5.549   0.579   0.564 -0.4706 -0.5623 -0.6256
 6873SOL    HW236040   5.581   0.451   0.488  0.8000 -0.3840 -0.4040
 6874SOL     OW36041   0.396   3.876  12.395  0.1855 -0.4458  0.4564
 6874SOL    HW136042   0.454   3.854  12.468 -0.3400  0.4471  1.1468
 6874SOL    HW236043   0.397   3.972  12.390 -1.6478 -0.3921  0.8212
 6875SOL     OW36044   2.942   1.395   1.627  0.0193  0.3135 -0.4940
 6875SOL    HW136045   2.897   1.399   1.543 -1.7204  1.1884  0.4313
 6875SOL    HW236046   2.941   1.486   1.658  1.6305  0.1789 -0.0366
 6876SOL     OW36047   2.101   0.349   8.588 -0.3091 -0.3740  0.3614
 6876SOL    HW136048   2.023   0.351   8.644 -1.2296 -1.4948 -0.8367
 6876SOL    HW236049   2.107   0.438   8.553 -0.9437 -0.2264  0.6093
 6877SOL     OW36050   3.290   4.716  11.113  0.6977 -0.7538  0.6868
 6877SOL    HW136051   3.318   4.705  11.023  2.8946  0.6196  1.1653
 6877SOL    HW236052   3.204   4.759  11.107  1.3907  0.4726 -0.7345
 6878SOL     OW36053   3.868   3.240   0.265  0.1630  0.4688  0.1269
 6878SOL    HW136054   3.820   3.160   0.288 -0.0399  0.5622  0.0355
 6878SOL    HW236055   3.917   3.263   0.344  1.0055 -0.3084 -0.1618
 6879SOL     OW36056   1.819   3.105  10.426  0.5408  0.2307 -0.4732
 6879SOL    HW136057   1.801   3.154  10.346  1.8384  0.7405 -0.4618
 6879SOL    HW236058   1.741   3.050  10.438 -0.0863  0.8609 -1.5448
 6880SOL     OW36059   1.021   5.635  11.697  0.1113  0.0732  0.2744
 6880SOL    HW136060   1.064   5.714  11.730  0.3484 -0.3825  1.0709
 6880SOL    HW236061   1.057   5.564  11.749 -0.7765 -0.4570  0.1845
 6881SOL     OW36062   1.727   2.295   9.028  0.9315  0.0264 -0.0964
 6881SOL    HW136063   1.658   2.232   9.010  0.6893  0.8757 -2.2205
 6881SOL    HW236064   1.717   2.314   9.122 -0.4258 -1.3505  0.0658
 6882SOL     OW36065   2.395   4.599  12.230 -0.1743  0.0868  0.4210
 6882SOL    HW136066   2.395   4.541  12.305 -2.1512  0.3673  0.6538
 6882SOL    HW236067   2.373   4.543  12.155 -1.6986  0.4332  0.5887
 6883SOL     OW36068   4.930   5.358   1.696 -0.2391 -0.2073 -0.3975
 6883SOL    HW136069   4.885   5.365   1.780  1.4599  1.2541  0.4161
 6883SOL    HW236070   4.979   5.439   1.688  0.4725 -0.7951 -2.3212
 6884SOL     OW36071   3.971   4.791   3.055 -0.4642  0.0005  0.0625
 6884SOL    HW136072   3.875   4.787   3.055 -0.4627 -0.2400 -1.0385
 6884SOL    HW236073   3.992   4.863   2.996  0.0567 -0.8452 -0.8010
 6885SOL     OW36074   0.361   4.541   9.951 -0.3963  0.1386  0.3216
 6885SOL    HW136075   0.408   4.621   9.976 -0.7331  0.6367 -0.6126
 6885SOL    HW236076   0.422   4.495   9.894  0.0367 -0.5749  1.3505
 6886SOL     OW36077   1.992   4.532   0.873  0.2783  0.2958  0.3208
 6886SOL    HW136078   1.913   4.480   0.886 -0.8351  1.4055 -1.7182
 6886SOL    HW236079   2.009   4.527   0.779  2.6642  0.0628  0.7434
 6887SOL     OW36080   2.516   1.614  11.010 -0.8781 -0.0725 -0.7605
 6887SOL    HW136081   2.495   1.580  11.097 -1.6891 -2.2027 -1.7359
 6887SOL    HW236082   2.433   1.644  10.974 -0.2938  2.2915 -0.2257
 6888SOL     OW36083   1.562   5.398   2.366  0.0453 -0.6699  0.8062
 6888SOL    HW136084   1.536   5.373   2.455 -2.6521  2.9618  1.1364
 6888SOL    HW236085   1.644   5.351   2.352 -0.8246 -3.4456  4.1828
 6889SOL     OW36086   4.058   4.872   0.150  0.0615 -0.6072 -0.1714
 6889SOL    HW136087   4.090   4.917   0.228  0.2547 -0.1154 -0.5333
 6889SOL    HW236088   4.137   4.844   0.104 -0.0255  0.3769 -0.9333
 6890SOL     OW36089   2.397   4.257  12.146  0.5819  0.3377  0.1464
 6890SOL    HW136090   2.476   4.206  12.165  0.5674 -0.3756 -1.6248
 6890SOL    HW236091   2.427   4.324  12.085 -0.1032  0.3468 -0.1748
 6891SOL     OW36092   5.508   4.398  10.178  0.6415  0.0104 -0.0572
 6891SOL    HW136093   5.511   4.483  10.135  0.2042 -0.1175 -0.3373
 6891SOL    HW236094   5.466   4.339  10.115  1.1975 -0.4848  0.0189
 6892SOL     OW36095   5.332   0.106  10.218  0.1375  0.0160  0.7353
 6892SOL    HW136096   5.274   0.041  10.179  1.5575 -0.2128 -1.0708
 6892SOL    HW236097   5.273   0.164  10.267 -1.4591 -0.9072 -0.0378
 6893SOL     OW36098   1.992   0.848   9.631 -0.2759  0.2493  0.4474
 6893SOL    HW136099   1.947   0.814   9.554  1.5866 -0.8588 -0.2038
 6893SOL    HW236100   2.007   0.940   9.612 -0.1385  0.0610 -0.3797
 6894SOL     OW36101   0.233   0.297   3.548 -0.4544 -0.0546  0.3257
 6894SOL    HW136102   0.266   0.381   3.581 -0.2415 -0.2047  0.4936
 6894SOL    HW236103   0.181   0.321   3.470  1.3827  0.0262 -0.8990
 6895SOL     OW36104   3.677   3.054   8.066 -0.2175 -0.3348  0.6623
 6895SOL    HW136105   3.770   3.033   8.081  0.4840  1.3161 -1.1395
 6895SOL    HW236106   3.673   3.149   8.074 -1.6179 -0.3350 -0.0389
 6896SOL     OW36107   3.807   0.804  11.269 -1.1138  0.1685  0.3317
 6896SOL    HW136108   3.828   0.711  11.281  0.1069  0.4716  0.6219
 6896SOL    HW236109   3.713   0.810  11.290 -1.1354 -0.9424  0.6118
 6897SOL     OW36110   5.630   5.223  11.921 -0.3078  0.1609 -0.6399
 6897SOL    HW136111   5.644   5.273  11.841  0.0907  0.5987 -0.3059
 6897SOL    HW236112   5.719   5.201  11.951 -0.5053 -2.2695 -1.7200
 6898SOL     OW36113   2.656   3.631   2.995 -0.1750 -0.0025 -0.3771
 6898SOL    HW136114   2.577   3.614   2.944 -0.0834 -0.4673 -0.3622
 6898SOL    HW236115   2.719   3.665   2.932  0.0259 -0.8319 -0.6228
 6899SOL     OW36116   3.565   1.594   9.955  0.2583  0.2204 -0.3152
 6899SOL    HW136117   3.578   1.665  10.017  0.4760  1.3505 -1.6441
 6899SOL    HW236118   3.653   1.569   9.928  0.2265 -1.0771  0.6978
 6900SOL     OW36119   4.133   2.702   7.970  0.3551  0.1697  0.0059
 6900SOL    HW136120   4.169   2.739   8.051 -0.3931  1.8962 -0.4236
 6900SOL    HW236121   4.210   2.688   7.914  1.0461 -2.4525  1.5361
 6901SOL     OW36122   2.128   3.217   4.043 -0.3474 -0.2669  0.1601
 6901SOL    HW136123   2.136   3.209   4.138 -0.3350  0.3763  0.2167
 6901SOL    HW236124   2.081   3.138   4.017 -0.8054 -0.1990  0.7580
 6902SOL     OW36125   1.030   5.249   3.185 -0.6835 -0.1105 -0.2607
 6902SOL    HW136126   0.983   5.197   3.120  0.4001 -0.0238 -1.1258
 6902SOL    HW236127   1.122   5.237   3.163 -0.4260  3.4903 -1.5375
 6903SOL     OW36128   5.446   3.071   1.124  0.1613 -0.5103  0.1215
 6903SOL    HW136129   5.363   3.117   1.112  1.5455  1.9273 -0.3998
 6903SOL    HW236130   5.467   3.084   1.217 -0.1760 -1.3395  0.3113
 6904SOL     OW36131   2.740   4.048  10.450  0.1805 -0.7129  0.1774
 6904SOL    HW136132   2.800   4.046  10.525  0.5246  0.6558 -0.0478
 6904SOL    HW236133   2.660   4.088  10.484  0.8453  1.2644 -0.5240
 6905SOL     OW36134   2.298   3.220  10.611 -0.4017  0.2014  0.1763
 6905SOL    HW136135   2.239   3.231  10.537 -0.3506 -1.8851 -0.2067
 6905SOL    HW236136   2.340   3.136  10.596  0.6876  0.4183  1.8327
 6906SOL     OW36137   0.296   2.140   0.144 -0.3680 -0.8800 -0.5099
 6906SOL    HW136138   0.314   2.054   0.106 -0.5812 -0.6455 -1.1466
 6906SOL    HW236139   0.253   2.121   0.227 -0.8369 -1.3780 -0.8658
 6907SOL     OW36140   1.114   5.136  12.255  0.1060 -0.2773 -0.3255
 6907SOL    HW136141   1.021   5.122  12.238 -0.2737  0.6755  0.8962
 6907SOL    HW236142   1.157   5.064  12.210 -1.2469 -0.9219 -0.6254
 6908SOL     OW36143   2.636   5.169   2.042  0.1068 -0.7480  0.3079
 6908SOL    HW136144   2.689   5.232   1.993 -1.2160 -0.0036 -0.1809
 6908SOL    HW236145   2.643   5.198   2.133 -1.2460  0.6648 -0.0301
 6909SOL     OW36146   3.570   1.785   9.495  0.1450  0.5891 -0.4987
 6909SOL    HW136147   3.664   1.773   9.511  0.1904 -1.0107 -1.8650
 6909SOL    HW236148   3.542   1.845   9.564  1.5946 -1.1599  1.6843
 6910SOL     OW36149   1.709   2.486   2.948  0.3315 -0.7251 -0.1379
 6910SOL    HW136150   1.783   2.451   2.900  1.5471  1.1453  0.3362
 6910SOL    HW236151   1.746   2.517   3.031 -1.3331 -1.7227  1.0277
 6911SOL     OW36152   5.424   3.760   2.354 -0.0831 -0.3232 -0.7550
 6911SOL    HW136153   5.450   3.672   2.379 -0.1462  0.2779  1.4799
 6911SOL    HW236154   5.339   3.773   2.396 -0.9057  0.1997 -2.4961
 6912SOL     OW36155   4.540   5.227  10.986  0.2374  0.1003 -0.2274
 6912SOL    HW136156   4.508   5.167  11.053  0.5876 -0.6169 -0.6903
 6912SOL    HW236157   4.495   5.309  11.004 -1.1327 -0.6194 -0.2698
 6913SOL     OW36158   0.379   2.355   8.376 -0.3842 -0.4402  0.2625
 6913SOL    HW136159   0.456   2.300   8.392  1.1795  1.1838 -1.3538
 6913SOL    HW236160   0.406   2.413   8.305 -3.2425 -0.0438 -0.5716
 6914SOL     OW36161   5.409   3.324   9.174 -0.0827 -0.3436 -0.3460
 6914SOL    HW136162   5.448   3.322   9.262 -0.2273  2.7375 -0.1554
 6914SOL    HW236163   5.349   3.249   9.173 -0.7620  0.1044  2.5341
 6915SOL     OW36164   0.095   4.220  10.620  0.8207 -0.5402  0.5461
 6915SOL    HW136165   0.146   4.218  10.539  0.2260 -3.5714  0.2077
 6915SOL    HW236166   0.143   4.281  10.676  0.7805  2.2773 -2.3317
 6916SOL     OW36167   5.896   3.693  11.829  0.6166  0.3651  0.3564
 6916SOL    HW136168   5.860   3.702  11.740 -3.3605 -0.4611  1.7919
 6916SOL    HW236169   5.914   3.783  11.856  0.0732  0.7733 -0.5893
 6917SOL     OW36170   1.309   0.875   2.500  0.0699  0.1621  0.0693
 6917SOL    HW136171   1.281   0.848   2.588 -0.9793 -1.5642 -0.7541
 6917SOL    HW236172   1.243   0.836   2.442 -0.3745  2.9227 -1.3539
 6918SOL     OW36173   1.801   1.024  10.060 -0.7573  0.5379 -0.0612
 6918SOL    HW136174   1.896   1.032  10.060 -0.7518  0.5835 -1.3723
 6918SOL    HW236175   1.774   1.055  10.146  0.6091 -1.9577  1.3323
 6919SOL     OW36176   1.268   2.522   8.733 -0.0175 -0.1666  0.0110
 6919SOL    HW136177   1.291   2.516   8.640 -0.7432  2.1336 -0.3379
 6919SOL    HW236178   1.173   2.521   8.735 -0.0049 -0.3765  0.7493
 6920SOL     OW36179   0.454   2.320  12.489 -0.1678 -0.3894  0.7205
 6920SOL    HW136180   0.388   2.283  12.548  0.3841  0.4377  1.8784
 6920SOL    HW236181   0.405   2.341  12.409 -1.1704 -0.4335  1.3034
 6921SOL     OW36182   0.338   4.128   0.722  0.1672 -0.1422  0.5758
 6921SOL    HW136183   0.260   4.073   0.713 -0.1742  0.4268  0.0328
 6921SOL    HW236184   0.330   4.167   0.809  0.2710 -0.7382  0.8533
 6922SOL     OW36185   5.774   5.262  12.265 -0.2936 -0.3134 -0.2122
 6922SOL    HW136186   5.702   5.208  12.298 -0.7214 -0.9256 -2.0727
 6922SOL    HW236187   5.827   5.201  12.213  0.9501  0.3914  0.2024
 6923SOL     OW36188   0.890   0.321  11.960  0.4207  0.1581 -0.2192
 6923SOL    HW136189   0.967   0.266  11.945 -1.3924 -2.4401 -0.2762
 6923SOL    HW236190   0.849   0.328  11.874 -1.6016 -1.8908  0.5446
 6924SOL     OW36191   4.626   5.150  11.373 -0.1060 -0.1610 -0.0413
 6924SOL    HW136192   4.576   5.231  11.380 -0.7380 -0.6588  1.6945
 6924SOL    HW236193   4.710   5.170  11.414  0.4191  0.1391 -1.2643
 6925SOL     OW36194   2.283   0.628  12.258  0.1188 -0.2372  0.2062
 6925SOL    HW136195   2.368   0.596  12.289  0.1536 -0.9485 -0.5900
 6925SOL    HW236196   2.227   0.626  12.335  0.4265 -1.1742  0.4210
 6926SOL     OW36197   2.579   0.841   0.215  0.3740  0.2153  0.2859
 6926SOL    HW136198   2.582   0.891   0.297  0.1569 -0.6368  0.8228
 6926SOL    HW236199   2.520   0.891   0.158  0.0208  0.4745  0.8755
 6927SOL     OW36200   1.303   2.785   1.183 -0.3276 -0.2613  0.3230
 6927SOL    HW136201   1.357   2.736   1.122 -0.7942  0.9383 -1.0681
 6927SOL    HW236202   1.330   2.876   1.173 -3.1919  0.5108 -1.0800
 6928SOL     OW36203   1.525   0.246  -0.026 -0.1887  0.0301  0.1759
 6928SOL    HW136204   1.582   0.292   0.035  0.3569  1.7061 -1.5533
 6928SOL    HW236205   1.530   0.154   0.000  0.1786  0.7023  2.5090
 6929SOL     OW36206   3.253   0.747  11.405 -0.4058  0.0981  0.5697
 6929SOL    HW136207   3.272   0.730  11.497  0.7609 -0.4800  0.2430
 6929SOL    HW236208   3.165   0.711  11.391  0.0821 -1.3451  1.0732
 6930SOL     OW36209   4.833   0.451  12.401 -0.1562  0.0077  0.3409
 6930SOL    HW136210   4.925   0.440  12.376  0.1214 -0.5040  1.5623
 6930SOL    HW236211   4.789   0.475  12.319  1.1006  0.4915 -0.2057
 6931SOL     OW36212   3.564   0.195  11.191  0.2947  0.1374  0.6314
 6931SOL    HW136213   3.594   0.190  11.100  1.6464  0.3890  1.0403
 6931SOL    HW236214   3.579   0.107  11.226  2.1741  0.7014  1.3092
 6932SOL     OW36215   1.387   4.123  12.185 -0.1560  0.5330 -0.1445
 6932SOL    HW136216   1.478   4.150  12.196  0.3943 -1.1567 -0.2839
 6932SOL    HW236217   1.377   4.112  12.091 -0.0329 -0.7812 -0.0135
 6933SOL     OW36218   4.526   3.433   9.956  0.4723  0.2436  0.2516
 6933SOL    HW136219   4.468   3.509   9.960  0.4127  0.1715  0.8291
 6933SOL    HW236220   4.614   3.470   9.948  0.3065  0.3471 -1.1509
 6934SOL     OW36221   5.311   1.601   3.370 -0.3229  0.5621 -0.3754
 6934SOL    HW136222   5.395   1.646   3.364  0.5976 -0.9745  0.5990
 6934SOL    HW236223   5.294   1.568   3.282 -0.3907  1.7231 -0.7973
 6935SOL     OW36224   0.573   4.184   2.522 -0.1634 -0.0174  0.1889
 6935SOL    HW136225   0.667   4.175   2.511 -0.3775 -0.9235 -1.0941
 6935SOL    HW236226   0.562   4.264   2.573  1.2827  0.3126  0.0065
 6936SOL     OW36227   2.036   2.544   0.340 -0.0194 -0.6119 -0.2463
 6936SOL    HW136228   1.959   2.591   0.372 -0.3159 -1.1037 -0.2190
 6936SOL    HW236229   2.094   2.612   0.307 -1.2197 -0.3457 -1.8741
 6937SOL     OW36230   1.507   1.810   8.860  1.4379 -0.1618 -0.1676
 6937SOL    HW136231   1.477   1.728   8.899 -0.2548  0.2625 -0.5311
 6937SOL    HW236232   1.552   1.783   8.779 -3.1714 -0.5228 -2.7664
 6938SOL     OW36233   0.728   0.267   9.768  0.0104  0.0555 -0.1022
 6938SOL    HW136234   0.804   0.261   9.825 -0.0807  0.4042  0.0635
 6938SOL    HW236235   0.749   0.337   9.706 -0.3131  0.3821  0.1565
 6939SOL     OW36236   4.396   2.098  12.389  0.4056  0.0956  0.3580
 6939SOL    HW136237   4.374   2.048  12.309  0.3023  1.0629 -0.2211
 6939SOL    HW236238   4.316   2.147  12.409  0.4622 -0.0751  1.0140
 6940SOL     OW36239   2.729   1.544   1.829 -0.3959 -0.6633 -0.3807
 6940SOL    HW136240   2.792   1.615   1.823 -0.4929 -0.5665 -0.2617
 6940SOL    HW236241   2.754   1.496   1.908 -0.8775 -0.2338  0.0392
 6941SOL     OW36242   4.220   0.055   8.296  0.3997  0.2619  0.6619
 6941SOL    HW136243   4.165  -0.018   8.266  1.6613 -0.3347 -0.2690
 6941SOL    HW236244   4.281   0.015   8.357 -0.0094  0.8681  1.4674
 6942SOL     OW36245   5.545   2.275  11.387 -0.0508  0.6629  0.1985
 6942SOL    HW136246   5.637   2.301  11.391  0.3071 -0.7831  2.1306
 6942SOL    HW236247   5.522   2.253  11.477 -2.0462  0.1195 -0.4032
 6943SOL     OW36248   3.550   0.328  10.671  0.1897 -0.1589  0.1670
 6943SOL    HW136249   3.500   0.351  10.749  0.2315 -3.4277  1.2414
 6943SOL    HW236250   3.485   0.323  10.601 -0.2947 -0.0025  0.5992
 6944SOL     OW36251   1.234   3.439  10.488 -0.3182  0.3958  0.0817
 6944SOL    HW136252   1.282   3.521  10.499  1.1673 -0.5459  0.7429
 6944SOL    HW236253   1.241   3.420  10.394  1.8941 -0.4773  0.3844
 6945SOL     OW36254   0.518   0.117   7.982  0.4627 -0.6087  0.2735
 6945SOL    HW136255   0.428   0.148   7.987  0.5273 -0.4905  0.8466
 6945SOL    HW236256   0.571   0.196   7.998  0.7709  0.0443 -3.5651
 6946SOL     OW36257   2.048   4.108  10.345 -0.2771 -0.3315  0.0809
 6946SOL    HW136258   2.100   4.057  10.408 -0.6194 -0.7106  0.0628
 6946SOL    HW236259   1.957   4.087  10.368 -0.4226  0.3897  0.1669
 6947SOL     OW36260   1.429   1.059   1.443 -0.1454  0.1450 -0.8816
 6947SOL    HW136261   1.503   1.120   1.440 -0.5043  0.6382  0.0308
 6947SOL    HW236262   1.370   1.096   1.509 -0.8322 -0.6652 -1.0310
 6948SOL     OW36263   1.872   3.516  12.195  0.4080  0.4378 -0.3206
 6948SOL    HW136264   1.907   3.432  12.222  0.2465  0.2916 -0.5636
 6948SOL    HW236265   1.818   3.545  12.269  2.4938  1.5202  0.8403
 6949SOL     OW36266   3.449   3.546  11.862 -0.4067  0.0656  0.1213
 6949SOL    HW136267   3.496   3.504  11.934 -0.2645  0.4248  0.2406
 6949SOL    HW236268   3.458   3.639  11.880 -2.6416  0.1285  1.1044
 6950SOL     OW36269   5.327   4.829   0.574  0.9612  0.7255 -0.0960
 6950SOL    HW136270   5.322   4.919   0.539  0.6285  0.3046 -1.1694
 6950SOL    HW236271   5.290   4.835   0.662  1.1374  1.6847 -0.0815
 6951SOL     OW36272   3.332   5.185  10.689  0.3471 -0.7689  0.3839
 6951SOL    HW136273   3.360   5.272  10.658 -0.5152 -0.7099 -0.2547
 6951SOL    HW236274   3.387   5.168  10.765 -0.2897  0.8702  1.2422
 6952SOL     OW36275   2.150   4.233   8.433 -0.4470  0.3719 -0.6121
 6952SOL    HW136276   2.102   4.291   8.374 -0.9069 -0.2431 -0.8462
 6952SOL    HW236277   2.222   4.199   8.381  1.3457  2.7075  0.2582
 6953SOL     OW36278   0.785   3.157  11.686 -0.1385  0.4447  0.6529
 6953SOL    HW136279   0.756   3.092  11.622  0.5869  1.0743 -0.3209
 6953SOL    HW236280   0.711   3.166  11.746 -0.7984 -0.1875 -0.0566
 6954SOL     OW36281   0.512   3.310  11.561  0.1639 -0.2002 -1.0604
 6954SOL    HW136282   0.502   3.237  11.621  1.2142  0.8960  0.5073
 6954SOL    HW236283   0.519   3.270  11.474  0.0240 -1.8940 -0.3085
 6955SOL     OW36284   1.786   3.514   9.053  0.2782  0.0788  0.7141
 6955SOL    HW136285   1.754   3.597   9.019  0.4130 -0.7124 -1.3871
 6955SOL    HW236286   1.882   3.522   9.048  0.3286  0.3819  1.9734
 6956SOL     OW36287   1.198   0.564   0.237  0.0176 -0.5585 -0.6419
 6956SOL    HW136288   1.199   0.471   0.257  0.6935 -1.2098 -3.5757
 6956SOL    HW236289   1.114   0.579   0.194 -1.0146  0.6451  1.6959
 6957SOL     OW36290   3.178   0.759   8.792 -0.1296  0.2312 -0.0891
 6957SOL    HW136291   3.109   0.693   8.792  0.0829 -0.0000  1.0909
 6957SOL    HW236292   3.242   0.727   8.856 -0.2591  1.8261  0.8648
 6958SOL     OW36293   3.048   1.585  10.954  0.3990  0.5598 -0.3216
 6958SOL    HW136294   3.039   1.617  10.864 -0.8890  0.0817 -0.3727
 6958SOL    HW236295   2.961   1.597  10.993  1.0032  1.0020  0.9481
 6959SOL     OW36296   4.787   0.774   2.192 -0.5228 -0.2761  0.5985
 6959SOL    HW136297   4.733   0.839   2.147 -0.2029  0.4023  1.1670
 6959SOL    HW236298   4.768   0.691   2.148 -1.4603  0.0858  0.3159
 6960SOL     OW36299   3.357   1.474   0.348  0.0322  0.6749  0.2975
 6960SOL    HW136300   3.389   1.561   0.372 -1.7714  1.4593 -0.0408
 6960SOL    HW236301   3.403   1.415   0.408 -1.5586  2.2260  3.1744
 6961SOL     OW36302   4.051   2.809  10.557  0.3376 -0.3754 -0.2302
 6961SOL    HW136303   4.142   2.791  10.579 -0.1944  1.0179  3.4351
 6961SOL    HW236304   4.053   2.894  10.513  0.6693  0.6169  1.6378
 6962SOL     OW36305   0.399   1.278   2.831 -0.4016  0.0402 -0.3621
 6962SOL    HW136306   0.482   1.244   2.797 -0.5115 -1.2238  0.6138
 6962SOL    HW236307   0.373   1.344   2.767 -0.0949 -1.5958 -2.2328
 6963SOL     OW36308   2.398   5.832   0.185 -0.2141  0.0770 -0.4391
 6963SOL    HW136309   2.344   5.773   0.238  2.3851 -0.8453  1.2968
 6963SOL    HW236310   2.422   5.780   0.109  0.1436 -0.2969 -0.0717
 6964SOL     OW36311   3.720   3.795   0.719  0.0693 -0.4894 -0.4266
 6964SOL    HW136312   3.628   3.796   0.694  0.1744 -3.3611 -1.0574
 6964SOL    HW236313   3.725   3.851   0.797 -2.4241 -1.4301  0.4315
 6965SOL     OW36314   1.510   3.247   8.424 -0.1022  0.2679  0.2509
 6965SOL    HW136315   1.416   3.233   8.414 -0.5615  3.5517 -0.6367
 6965SOL    HW236316   1.540   3.274   8.337  0.7847  3.6590  1.5368
 6966SOL     OW36317   4.360   0.076  11.798 -0.0319  0.1602 -0.0109
 6966SOL    HW136318   4.336   0.001  11.744 -2.2335  0.1038  0.9985
 6966SOL    HW236319   4.339   0.050  11.887  0.6253  1.4094  0.5310
 6967SOL     OW36320   5.320   2.045   2.039  0.1521  0.1975 -0.3640
 6967SOL    HW136321   5.364   2.102   2.102 -0.0555  0.4118 -0.4116
 6967SOL    HW236322   5.315   2.098   1.959 -0.7201  0.3945 -0.1869
 6968SOL     OW36323   5.601   1.882  10.163  0.0795  0.0981  0.2829
 6968SOL    HW136324   5.543   1.897  10.088 -0.0575  0.0273  0.3747
 6968SOL    HW236325   5.678   1.937  10.145  0.5201 -0.7452 -0.4438
 6969SOL     OW36326   2.688   5.833   1.672  0.2263 -0.4513 -0.9261
 6969SOL    HW136327   2.720   5.825   1.582 -1.5122 -1.6720 -1.4523
 6969SOL    HW236328   2.663   5.744   1.697 -1.3684  0.2314 -0.0263
 6970SOL     OW36329   5.710   4.729  11.495  0.3888  0.1794 -0.1203
 6970SOL    HW136330   5.770   4.792  11.536  1.9416 -2.2356  1.4426
 6970SOL    HW236331   5.763   4.683  11.431  0.3826 -2.2880  1.5857
 6971SOL     OW36332   1.292   5.846   9.422 -0.0274 -0.3287  0.4520
 6971SOL    HW136333   1.326   5.758   9.408 -0.8279 -0.4907 -0.5637
 6971SOL    HW236334   1.206   5.845   9.381 -0.7161  0.4574  1.8467
 6972SOL     OW36335   2.218   0.557  10.496  0.0730  0.2862 -0.3600
 6972SOL    HW136336   2.212   0.629  10.559 -2.2208 -1.2226  1.2319
 6972SOL    HW236337   2.143   0.569  10.439  0.1887 -0.3472 -0.6435
 6973SOL     OW36338   5.740   0.812  10.259 -0.5037  0.2249 -0.3135
 6973SOL    HW136339   5.733   0.746  10.189  1.3502 -1.1062  0.6967
 6973SOL    HW236340   5.708   0.767  10.337  1.5367  0.2334  0.5497
 6974SOL     OW36341   2.537   3.139   3.550 -0.2539  0.2621 -0.1853
 6974SOL    HW136342   2.500   3.051   3.556 -0.4417  0.4671  1.9182
 6974SOL    HW236343   2.625   3.131   3.586  0.2604  0.6488 -1.3268
 6975SOL     OW36344   4.378   4.474   0.519  0.5201 -0.4346  0.1415
 6975SOL    HW136345   4.335   4.465   0.603  1.1287  2.3917  0.7994
 6975SOL    HW236346   4.307   4.482   0.456  0.0858 -0.6031  0.6092
 6976SOL     OW36347   4.411   1.139   2.606 -0.4386  0.0244  0.2939
 6976SOL    HW136348   4.502   1.170   2.601 -0.6195  0.9164  2.0985
 6976SOL    HW236349   4.393   1.103   2.520  1.5734  0.0303 -0.1475
 6977SOL     OW36350   2.004   3.200  10.772 -0.0498  0.1043  0.2888
 6977SOL    HW136351   2.082   3.148  10.752 -0.2051 -0.0408  0.0477
 6977SOL    HW236352   1.987   3.248  10.691 -0.8772 -0.7263 -0.0284
 6978SOL     OW36353   1.254   0.397  11.904 -0.3445  0.3452  0.6624
 6978SOL    HW136354   1.228   0.489  11.899  0.1396  0.3966 -1.5371
 6978SOL    HW236355   1.172   0.350  11.921 -0.6834  1.1416  1.2476
 6979SOL     OW36356   4.056   4.833  10.000 -0.8600  0.0664 -0.0309
 6979SOL    HW136357   4.088   4.773  10.068 -0.0008 -2.7227 -2.8334
 6979SOL    HW236358   4.118   4.907  10.004  0.9384 -1.4233  0.2504
 6980SOL     OW36359   3.425   5.426   1.725 -0.4460 -0.5586 -0.1033
 6980SOL    HW136360   3.454   5.515   1.705  0.3177 -1.5083 -3.4614
 6980SOL    HW236361   3.504   5.381   1.755 -0.1870 -0.8609 -1.2000
 6981SOL     OW36362   2.506   1.411   3.576  0.3549  0.5738  0.0996
 6981SOL    HW136363   2.476   1.492   3.535 -0.4311  1.2624  1.9509
 6981SOL    HW236364   2.597   1.428   3.601  0.5814  0.4366 -0.6256
 6982SOL     OW36365   1.679   0.205   3.625 -0.1610 -0.1124  0.2227
 6982SOL    HW136366   1.662   0.237   3.714 -1.5398  1.7294 -0.6581
 6982SOL    HW236367   1.644   0.116   3.624 -2.9054  0.9235  0.6768
 6983SOL     OW36368   2.728   3.754   0.644 -0.0316  0.3283  0.5421
 6983SOL    HW136369   2.767   3.835   0.612  1.1918  0.0213  1.2166
 6983SOL    HW236370   2.643   3.780   0.678  0.2978  1.3165  0.6340
 6984SOL     OW36371   2.290   5.561   3.338 -0.1817 -0.4984 -0.1425
 6984SOL    HW136372   2.213   5.609   3.367  0.4055  0.4738 -0.1618
 6984SOL    HW236373   2.339   5.544   3.418 -0.5554 -1.3600 -0.0965
 6985SOL     OW36374   0.835   2.666  12.376  0.7462  0.4658  0.2204
 6985SOL    HW136375   0.826   2.579  12.416 -0.2355  1.1799  1.6020
 6985SOL    HW236376   0.744   2.693  12.358  1.1832 -0.1306 -3.1883
 6986SOL     OW36377   5.393   1.904   4.007  0.2975 -0.5828  0.8380
 6986SOL    HW136378   5.459   1.958   4.051  1.2300 -0.1156 -1.0734
 6986SOL    HW236379   5.428   1.815   4.012  0.6310 -0.4652  0.6270
 6987SOL     OW36380   1.292   3.353  10.219 -0.1312 -0.2746  0.4786
 6987SOL    HW136381   1.232   3.344  10.145  0.1604 -0.9917  0.3260
 6987SOL    HW236382   1.367   3.299  10.195  0.1886 -0.0964  1.0738
 6988SOL     OW36383   0.300   0.036  12.076  0.1356  0.0701 -0.7699
 6988SOL    HW136384   0.322  -0.053  12.106  0.4904  0.3023 -0.3350
 6988SOL    HW236385   0.373   0.090  12.107 -0.3938  0.6255 -0.4789
 6989SOL     OW36386   3.555   3.103   0.547 -0.1431 -0.0459  0.4046
 6989SOL    HW136387   3.584   3.057   0.469 -0.0151  0.1061  0.3630
 6989SOL    HW236388   3.635   3.135   0.588 -0.2752  0.6295  0.1309
 6990SOL     OW36389   2.103   4.677  10.997  0.1758  0.2462 -0.3745
 6990SOL    HW136390   2.167   4.728  10.947 -0.0091  0.1302 -0.7349
 6990SOL    HW236391   2.067   4.740  11.060  1.8761 -0.1167  1.0000
 6991SOL     OW36392   3.327   3.146   3.337 -0.1153 -0.0921  0.1115
 6991SOL    HW136393   3.394   3.170   3.273  0.0719 -0.9580 -0.0307
 6991SOL    HW236394   3.328   3.050   3.337 -0.4010 -0.1025  1.1126
 6992SOL     OW36395   1.478   0.848   9.110 -0.4115 -0.1867 -0.1329
 6992SOL    HW136396   1.539   0.890   9.050  0.1501  0.0164  0.5739
 6992SOL    HW236397   1.392   0.859   9.068 -0.1876  1.0704 -0.2912
 6993SOL     OW36398   0.353   1.912   3.650 -0.2770 -0.2779 -0.8294
 6993SOL    HW136399   0.345   1.993   3.600 -0.9055  0.1840  0.0016
 6993SOL    HW236400   0.447   1.903   3.667 -0.3223  0.9227  0.1219
 6994SOL     OW36401   0.189   4.027  11.023 -0.4426  0.1534 -0.0785
 6994SOL    HW136402   0.264   4.084  11.038  0.5486 -1.3613  0.8710
 6994SOL    HW236403   0.196   4.001  10.931 -1.7748  2.7368 -0.9733
 6995SOL     OW36404   1.172   2.130   8.323 -0.3665 -0.2907 -0.5116
 6995SOL    HW136405   1.217   2.182   8.256  4.3070 -1.3501  1.5705
 6995SOL    HW236406   1.126   2.062   8.274  1.3019  0.1603 -2.8070
 6996SOL     OW36407   5.092   4.947  12.171 -0.3628  0.1497 -0.2237
 6996SOL    HW136408   5.006   4.905  12.166 -0.2143 -0.1883  0.0420
 6996SOL    HW236409   5.153   4.881  12.138 -0.2537  0.5473 -0.8330
 6997SOL     OW36410   3.300   4.916   1.566 -0.7695 -0.2841 -0.4794
 6997SOL    HW136411   3.277   4.844   1.625 -0.9925 -0.3178 -0.6029
 6997SOL    HW236412   3.221   4.929   1.513 -1.4608  1.4243  0.9125
 6998SOL     OW36413   1.552   5.837   0.277 -0.3111 -0.1096  0.2111
 6998SOL    HW136414   1.565   5.744   0.261  1.0894 -0.1559  1.4724
 6998SOL    HW236415   1.507   5.842   0.362 -1.5554  0.3273 -0.4608
 6999SOL     OW36416   4.967   1.016   1.469 -0.2361  0.1352 -0.5639
 6999SOL    HW136417   4.945   1.011   1.376 -1.1495 -0.5604 -0.3193
 6999SOL    HW236418   4.940   0.932   1.504  2.6324 -0.6870 -0.1856
 7000SOL     OW36419   4.893   4.014   1.589 -0.0279 -0.0283 -0.3301
 7000SOL    HW136420   4.947   3.942   1.556 -1.1821 -1.1633  0.2157
 7000SOL    HW236421   4.881   3.994   1.682  0.9006  1.6810  0.1808
 7001SOL     OW36422   5.762   3.204  10.411 -0.1712 -0.1346 -0.0533
 7001SOL    HW136423   5.750   3.281  10.466  0.9229  1.1884 -1.6292
 7001SOL    HW236424   5.673   3.177  10.388 -0.5443  1.3279 -0.3928
 7002SOL     OW36425   3.560   3.837   0.192 -0.1522  0.1438 -0.3668
 7002SOL    HW136426   3.515   3.795   0.265  1.7663 -1.3296  0.0078
 7002SOL    HW236427   3.506   3.816   0.116 -0.7035 -0.6529  0.2290
 7003SOL     OW36428   3.941   0.010   0.136  0.3353  0.5349 -0.4728
 7003SOL    HW136429   3.999   0.052   0.072 -0.7563  0.3220 -1.6144
 7003SOL    HW236430   3.855   0.045   0.117 -0.1161 -0.0583  0.4400
 7004SOL     OW36431   3.326   2.045   4.242 -0.3539  0.3202  0.4306
 7004SOL    HW136432   3.324   1.989   4.164 -1.3364  1.7925 -0.6422
 7004SOL    HW236433   3.233   2.062   4.261 -0.0831  1.1406  1.0494
 7005SOL     OW36434   1.949   5.500   4.216  0.4648  0.3270 -0.5385
 7005SOL    HW136435   1.879   5.552   4.176  0.6610 -0.1406 -1.5068
 7005SOL    HW236436   1.953   5.420   4.163  0.1724 -0.6812  0.9102
 7006SOL     OW36437   0.403   3.542  12.236 -0.1360 -0.1689 -0.1718
 7006SOL    HW136438   0.360   3.484  12.299 -1.7461 -0.7778 -1.7800
 7006SOL    HW236439   0.333   3.598  12.203  1.0295  1.3143 -0.1416
 7007SOL     OW36440   1.837   0.804  10.314  0.5843 -0.0747 -0.6408
 7007SOL    HW136441   1.790   0.886  10.306  0.2857 -0.0674  1.0092
 7007SOL    HW236442   1.773   0.737  10.291  0.5639  0.0928 -1.0812
 7008SOL     OW36443   4.340   0.751  11.726  0.3312  0.3447 -0.0417
 7008SOL    HW136444   4.349   0.806  11.648  1.3434  0.4278  0.1300
 7008SOL    HW236445   4.419   0.768  11.777  0.4822 -1.0036  0.1867
 7009SOL     OW36446   3.470   5.666   0.839  0.5514 -0.2675  0.1281
 7009SOL    HW136447   3.551   5.679   0.888  1.1815 -0.8168 -0.7442
 7009SOL    HW236448   3.422   5.601   0.889  0.8923 -0.3394  0.3698
 7010SOL     OW36449   0.465   4.235   9.586  0.8254  1.0516 -0.6280
 7010SOL    HW136450   0.511   4.290   9.523  2.4523  0.1735 -0.2647
 7010SOL    HW236451   0.512   4.151   9.582  0.6485  0.8402  1.3875
 7011SOL     OW36452   3.147   5.111  10.202  0.1140  0.8468 -0.0782
 7011SOL    HW136453   3.217   5.066  10.248 -1.5099 -0.4275  1.2238
 7011SOL    HW236454   3.144   5.198  10.241 -0.3256  0.2413  1.2824
 7012SOL     OW36455   2.277   2.301   3.210 -0.5385  0.6151 -0.6394
 7012SOL    HW136456   2.320   2.381   3.182 -0.4998  0.9533  0.3644
 7012SOL    HW236457   2.337   2.262   3.274 -1.0076  0.3055 -0.3814
 7013SOL     OW36458   5.393   3.925   8.618  0.0040  0.1336  0.0964
 7013SOL    HW136459   5.327   3.956   8.681  1.5000 -1.9531  2.8127
 7013SOL    HW236460   5.410   3.835   8.645  2.7219  0.0975 -1.6105
 7014SOL     OW36461   4.847   2.423  10.537 -0.0346 -0.5087 -0.3064
 7014SOL    HW136462   4.843   2.367  10.460 -0.0095 -1.2061  0.1952
 7014SOL    HW236463   4.761   2.416  10.578 -0.6522  1.2813 -1.2513
 7015SOL     OW36464   5.866   3.291  12.486 -0.8034 -1.0567 -0.0942
 7015SOL    HW136465   5.770   3.289  12.492 -0.7526 -1.3974  0.5975
 7015SOL    HW236466   5.886   3.381  12.462 -1.2001 -0.5286  1.4994
 7016SOL     OW36467   1.520   5.948   1.309 -0.9116  0.1402  0.1440
 7016SOL    HW136468   1.565   5.893   1.244 -0.1739  0.6936  0.1820
 7016SOL    HW236469   1.442   5.979   1.263 -1.1616 -0.6598  0.0091
 7017SOL     OW36470   5.834   1.489   8.742  0.7761 -0.5876 -0.1283
 7017SOL    HW136471   5.827   1.528   8.829  0.3639  1.5545 -1.0981
 7017SOL    HW236472   5.871   1.558   8.687 -2.1003 -0.7465 -2.3991
 7018SOL     OW36473   4.717   1.740   1.205 -0.3657 -0.4683 -0.7903
 7018SOL    HW136474   4.660   1.786   1.144 -0.4663 -0.6758 -0.8567
 7018SOL    HW236475   4.661   1.724   1.282  0.2052  1.1388 -0.0304
 7019SOL     OW36476   1.509   5.922   3.045  0.2203  0.1420 -0.3697
 7019SOL    HW136477   1.503   5.848   2.986  3.1541  0.3177 -0.9835
 7019SOL    HW236478   1.545   5.993   2.992 -1.2092  1.6083  0.5587
 7020SOL     OW36479   4.619   4.960   8.337 -0.2259  0.2718 -0.3051
 7020SOL    HW136480   4.595   4.876   8.297  0.8174 -0.9740  1.6026
 7020SOL    HW236481   4.642   5.016   8.263 -0.1924 -1.3750 -1.5741
 7021SOL     OW36482   0.968   4.993   0.058 -0.0312 -0.4481  0.2230
 7021SOL    HW136483   0.996   5.020   0.145 -1.1166  1.0710  0.1116
 7021SOL    HW236484   0.884   5.038   0.044 -0.0322 -0.9310 -1.4689
 7022SOL     OW36485   4.587   0.999  10.458 -0.6061  0.3465 -0.0886
 7022SOL    HW136486   4.642   0.941  10.511 -1.7803 -0.9579 -0.2631
 7022SOL    HW236487   4.646   1.035  10.392  0.4495  0.4892  0.9091
 7023SOL     OW36488   1.817   3.809  11.716  0.3642  0.0472  0.0458
 7023SOL    HW136489   1.861   3.894  11.720 -0.0197  0.1764  1.4456
 7023SOL    HW236490   1.826   3.783  11.624  0.8925  1.3765 -0.2964
 7024SOL     OW36491   4.074   3.166   1.235  0.5388  0.2531 -0.0964
 7024SOL    HW136492   3.983   3.140   1.221  0.9159 -2.7690  2.4289
 7024SOL    HW236493   4.120   3.137   1.156 -0.0190 -1.9921  0.3683
 7025SOL     OW36494   0.792   5.367  12.088 -0.5156  0.2527 -0.1614
 7025SOL    HW136495   0.846   5.332  12.158  0.8951  0.8171 -0.9459
 7025SOL    HW236496   0.847   5.360  12.009 -1.1682  1.8237 -0.7862
 7026SOL     OW36497   1.092   0.387   8.749  0.5602 -0.7204 -0.1337
 7026SOL    HW136498   1.105   0.475   8.783  0.3814 -0.3699 -0.9485
 7026SOL    HW236499   1.112   0.395   8.656 -1.6596 -1.0281 -0.6661
 7027SOL     OW36500   5.783   3.291   1.114 -0.1354 -0.1227  0.1441
 7027SOL    HW136501   5.790   3.364   1.051  0.3558 -0.1864  0.1226
 7027SOL    HW236502   5.754   3.333   1.195  0.7656  0.2073  0.3143
 7028SOL     OW36503   4.621   5.068  12.424 -0.5767  0.2041 -0.3022
 7028SOL    HW136504   4.702   5.073  12.374 -0.7274  1.1727 -0.4605
 7028SOL    HW236505   4.649   5.056  12.515 -0.3232 -4.4293 -0.8509
 7029SOL     OW36506   3.308   3.543   8.888  0.4339 -0.0469 -0.1026
 7029SOL    HW136507   3.236   3.502   8.936  1.3311  0.3341  1.5974
 7029SOL    HW236508   3.264   3.602   8.826 -0.7180  1.0412  1.6834
 7030SOL     OW36509   4.182   3.500   0.132  0.2240 -0.1656  0.0118
 7030SOL    HW136510   4.265   3.523   0.174  0.2823 -1.2446  0.4926
 7030SOL    HW236511   4.120   3.567   0.161  1.2729  1.5273 -1.5493
 7031SOL     OW36512   1.133   3.592   0.186 -0.2796  0.2208 -0.2069
 7031SOL    HW136513   1.125   3.686   0.200 -0.6376  0.0062  1.1458
 7031SOL    HW236514   1.081   3.553   0.256 -0.0839 -0.9866 -0.7167
 7032SOL     OW36515   3.268   5.026   8.609 -0.7308 -0.3048  0.2482
 7032SOL    HW136516   3.195   5.078   8.576  0.8058  1.2622 -0.8001
 7032SOL    HW236517   3.307   4.986   8.531  1.8778  2.0373  0.2422
 7033SOL     OW36518   4.697   4.074   9.446 -0.1890  0.1337 -0.4928
 7033SOL    HW136519   4.665   4.007   9.386  0.2567  0.8660 -1.5680
 7033SOL    HW236520   4.699   4.031   9.531 -1.8181 -0.6212 -0.8082
 7034SOL     OW36521   4.177   3.006  10.803 -0.3352  0.4428 -0.7308
 7034SOL    HW136522   4.144   3.062  10.873  0.1505  0.4568 -0.5106
 7034SOL    HW236523   4.220   2.933  10.848  0.0231  0.4761 -1.0099
 7035SOL     OW36524   3.570   2.313   2.343  0.0404 -0.1878 -0.4739
 7035SOL    HW136525   3.508   2.386   2.336  0.9682  1.0204  2.8592
 7035SOL    HW236526   3.655   2.351   2.325  0.5665 -0.3188  1.5716
 7036SOL     OW36527   4.642   3.714  11.552  0.5487  0.1221  0.5607
 7036SOL    HW136528   4.701   3.715  11.628 -1.1873  0.0443  1.9446
 7036SOL    HW236529   4.586   3.790  11.564  1.3134  1.0463 -1.5392
 7037SOL     OW36530   3.620   2.617  12.242  0.5515 -0.0601  0.1479
 7037SOL    HW136531   3.597   2.541  12.294 -0.4516  0.3004  0.2462
 7037SOL    HW236532   3.544   2.675  12.249  0.6064  0.2142 -1.3019
 7038SOL     OW36533   4.607   4.154   1.408 -0.9255 -0.5607  0.2403
 7038SOL    HW136534   4.587   4.111   1.491 -1.6608 -0.9844 -0.1605
 7038SOL    HW236535   4.617   4.083   1.345 -0.1511 -0.2528 -0.0004
 7039SOL     OW36536   1.233   4.888   3.171  0.2215 -0.0964  0.2963
 7039SOL    HW136537   1.248   4.971   3.127  1.6804 -0.2063  0.5813
 7039SOL    HW236538   1.212   4.913   3.261 -0.5359  0.0128  0.0976
 7040SOL     OW36539   3.502   2.140   3.928 -0.1018  0.3573 -0.3130
 7040SOL    HW136540   3.537   2.146   4.016  1.3923  1.1947 -0.9337
 7040SOL    HW236541   3.447   2.219   3.919  0.3307  0.6556 -0.3704
 7041SOL     OW36542   0.906   2.959   2.159 -0.4376 -0.1117  0.7401
 7041SOL    HW136543   0.814   2.951   2.182 -1.1265  0.4458 -1.6573
 7041SOL    HW236544   0.935   3.038   2.205 -1.7441  0.9523 -0.2254
 7042SOL     OW36545   3.263   1.466   3.709  0.4537 -0.7217  0.0650
 7042SOL    HW136546   3.321   1.467   3.633  0.3222 -0.6337 -0.0351
 7042SOL    HW236547   3.280   1.549   3.754  0.0934 -0.5000 -0.2009
 7043SOL     OW36548   2.641   1.810  10.486  0.0424 -0.1015  0.0036
 7043SOL    HW136549   2.725   1.786  10.447 -0.6017 -1.7419 -0.4296
 7043SOL    HW236550   2.581   1.813  10.412 -0.6661 -0.7801  0.5474
 7044SOL     OW36551   2.052   5.432   1.036  0.2870 -0.6987 -0.1319
 7044SOL    HW136552   1.989   5.501   1.012  0.4993 -0.4705 -0.0394
 7044SOL    HW236553   2.042   5.423   1.131 -0.1518 -1.2018 -0.2231
 7045SOL     OW36554   5.788   4.728   9.163  0.6363  0.0778 -0.1811
 7045SOL    HW136555   5.833   4.812   9.158  0.0084  0.4686  0.6269
 7045SOL    HW236556   5.821   4.687   9.243 -1.0752  0.7539  0.8990
 7046SOL     OW36557   5.385   3.850   8.097  0.1743  0.5921  0.2375
 7046SOL    HW136558   5.450   3.832   8.166  0.3492 -0.2449 -0.1352
 7046SOL    HW236559   5.333   3.922   8.132  0.0436 -0.0396  1.4058
 7047SOL     OW36560   0.215   5.100   0.454 -0.4681 -0.1306 -0.3631
 7047SOL    HW136561   0.148   5.042   0.491 -1.8638  0.3853 -2.0195
 7047SOL    HW236562   0.197   5.185   0.493 -0.8668  0.0346 -0.8955
 7048SOL     OW36563   0.625   3.313   8.966  0.0747 -0.4913 -0.2545
 7048SOL    HW136564   0.698   3.265   8.926  0.4790 -0.5571  0.5500
 7048SOL    HW236565   0.646   3.314   9.059 -0.6077  0.0994 -0.1071
 7049SOL     OW36566   0.676   2.113  11.028  0.5999  0.7330  0.1627
 7049SOL    HW136567   0.706   2.034  11.074  1.2500  1.6788  1.4055
 7049SOL    HW236568   0.595   2.137  11.073  1.3382  1.7739  0.9462
 7050SOL     OW36569   5.689   3.922  10.257 -0.2346  0.0419  0.6220
 7050SOL    HW136570   5.703   4.006  10.300  1.7802  0.2401 -0.3529
 7050SOL    HW236571   5.745   3.861  10.305 -0.6667 -0.4668  0.4858
 7051SOL     OW36572   0.863   5.089   3.035 -0.1387 -0.2025  0.1604
 7051SOL    HW136573   0.820   5.011   2.999 -1.0857  1.4619 -2.5582
 7051SOL    HW236574   0.797   5.129   3.092  0.1900 -1.1696  1.2113
 7052SOL     OW36575   3.280   1.144   8.574  0.4914 -0.3490 -0.0172
 7052SOL    HW136576   3.240   1.230   8.588 -0.8968 -1.2057  1.4937
 7052SOL    HW236577   3.278   1.103   8.661  2.3371 -1.4024 -0.4647
 7053SOL     OW36578   2.175   1.358  10.572 -0.5565 -0.1566  0.4043
 7053SOL    HW136579   2.248   1.414  10.545 -0.0563 -0.4423  1.1133
 7053SOL    HW236580   2.123   1.413  10.630 -0.0506 -0.4073  1.1236
 7054SOL     OW36581   4.029   0.644   2.127 -0.2756 -0.1892 -0.3751
 7054SOL    HW136582   4.065   0.722   2.085  0.1673  0.1157  0.5458
 7054SOL    HW236583   4.063   0.571   2.075  0.1562  0.1834 -0.6207
 7055SOL     OW36584   2.272   2.937   4.157 -0.2480 -0.0815 -0.1841
 7055SOL    HW136585   2.189   2.908   4.122 -0.8464 -0.1098  1.2315
 7055SOL    HW236586   2.253   3.021   4.200  0.1602 -0.7549  1.3484
 7056SOL     OW36587   2.144   3.557   9.341  0.0408  0.3569  0.4082
 7056SOL    HW136588   2.230   3.590   9.366  1.4330 -0.7626 -2.6384
 7056SOL    HW236589   2.146   3.464   9.365 -0.0938  0.1938 -0.2052
 7057SOL     OW36590   4.391   4.302   9.891 -0.4136  0.2903 -0.1844
 7057SOL    HW136591   4.390   4.293   9.795 -1.5658  1.0334 -0.2512
 7057SOL    HW236592   4.366   4.393   9.907 -0.1538  0.1898  0.8301
 7058SOL     OW36593   4.160   5.777   0.214  0.2805  0.6255  0.0135
 7058SOL    HW136594   4.087   5.835   0.195 -0.9491 -1.3305 -1.4821
 7058SOL    HW236595   4.141   5.697   0.164  2.5937 -0.5504  0.9150
 7059SOL     OW36596   1.583   3.150   8.065  0.5544  0.4100  0.2323
 7059SOL    HW136597   1.603   3.072   8.118  1.7917  0.9993  0.6715
 7059SOL    HW236598   1.659   3.208   8.079 -0.7682  2.0790  0.6545
 7060SOL     OW36599   4.337   3.101   9.493  0.1939 -0.1045 -0.7243
 7060SOL    HW136600   4.312   3.010   9.478  0.5423 -0.2227 -0.5887
 7060SOL    HW236601   4.266   3.137   9.547 -0.4398 -0.0236 -1.6037
 7061SOL     OW36602   4.765   1.672   8.893  0.1705 -0.2284  0.0271
 7061SOL    HW136603   4.677   1.708   8.885 -0.4585 -1.6659  0.3077
 7061SOL    HW236604   4.815   1.713   8.822 -0.3751  1.5571  0.6321
 7062SOL     OW36605   4.746   3.222   1.452  0.2001 -0.3182 -0.3601
 7062SOL    HW136606   4.718   3.137   1.486 -0.6356  0.7325  1.6903
 7062SOL    HW236607   4.666   3.261   1.417 -0.3279  1.3775  2.6193
 7063SOL     OW36608   3.496   4.560   8.154  0.0618  0.2394  0.0381
 7063SOL    HW136609   3.550   4.613   8.096  1.7608 -1.6424 -0.1989
 7063SOL    HW236610   3.536   4.572   8.241 -0.0578 -0.0166  0.1304
 7064SOL     OW36611   0.922   5.347   7.904  0.1922  0.5178 -0.3645
 7064SOL    HW136612   0.991   5.289   7.870 -0.3004  1.2993 -2.8484
 7064SOL    HW236613   0.846   5.290   7.911  0.0048  0.5699 -1.7181
 7065SOL     OW36614   4.581   5.803   1.427 -0.0804 -0.3322  0.0526
 7065SOL    HW136615   4.527   5.867   1.382  1.5800 -0.3367 -2.0589
 7065SOL    HW236616   4.521   5.757   1.486 -1.8297  1.2948 -0.4269
 7066SOL     OW36617   0.169   4.595   7.959  0.1958  0.0324 -0.1179
 7066SOL    HW136618   0.083   4.572   7.994 -0.5622  2.3869 -0.3120
 7066SOL    HW236619   0.193   4.675   8.006 -0.4068  2.7084 -4.1580
 7067SOL     OW36620   2.812   4.167   3.278 -0.6429 -0.3710  0.1383
 7067SOL    HW136621   2.742   4.220   3.239  0.1819  2.0578  1.9014
 7067SOL    HW236622   2.872   4.150   3.205 -1.3863  0.3038 -0.6434
 7068SOL     OW36623   4.512   4.372   1.698 -0.2116  0.3039  0.2397
 7068SOL    HW136624   4.445   4.311   1.730  0.0934 -0.4648 -0.5550
 7068SOL    HW236625   4.498   4.375   1.603  1.9428 -1.1895 -0.1606
 7069SOL     OW36626   5.723   2.892  10.105  0.8024  0.3930  0.2318
 7069SOL    HW136627   5.754   2.948  10.034  0.1911  1.0460  0.4732
 7069SOL    HW236628   5.629   2.887  10.093  0.8402 -0.5000  0.2791
 7070SOL     OW36629   1.506   4.738   0.396  0.2533 -0.3186  0.0156
 7070SOL    HW136630   1.490   4.744   0.490  1.2646  1.3046  0.1028
 7070SOL    HW236631   1.506   4.828   0.365  1.3060 -0.7492 -1.3021
 7071SOL     OW36632   4.875   0.586   7.759 -0.7916  0.6913 -0.2159
 7071SOL    HW136633   4.827   0.608   7.679  0.5066  1.4475 -0.8053
 7071SOL    HW236634   4.950   0.535   7.729 -0.5155  0.6248  0.5580
 7072SOL     OW36635   1.511   4.552   1.331  0.0975 -0.2205 -0.1706
 7072SOL    HW136636   1.491   4.519   1.419 -3.8205  0.5872 -0.6587
 7072SOL    HW236637   1.565   4.630   1.347  0.6994 -0.9488  1.4514
 7073SOL     OW36638   4.341   4.014   8.901  0.0907 -0.4653 -0.0445
 7073SOL    HW136639   4.350   3.921   8.880  0.4889 -0.6173  0.7781
 7073SOL    HW236640   4.275   4.016   8.970  0.4128 -0.1812  0.2603
 7074SOL     OW36641   5.544   1.588   0.752  0.0432 -0.1256  0.2454
 7074SOL    HW136642   5.520   1.553   0.666  2.8451  0.7905 -0.9663
 7074SOL    HW236643   5.493   1.668   0.760 -2.0965 -1.4691  0.5567
 7075SOL     OW36644   2.367   5.839  12.323 -0.6824 -0.2892 -0.2360
 7075SOL    HW136645   2.289   5.888  12.295  0.4315  1.0422 -1.0408
 7075SOL    HW236646   2.354   5.751  12.286 -1.2751  0.2376 -1.2961
 7076SOL     OW36647   5.034   1.687   9.391  0.1106  0.8487 -0.0052
 7076SOL    HW136648   4.998   1.764   9.348 -1.4207 -0.3472 -0.9677
 7076SOL    HW236649   5.090   1.646   9.324 -0.9037 -0.0795 -0.3177
 7077SOL     OW36650   2.309   4.138   0.513 -0.0234 -0.9436  0.1131
 7077SOL    HW136651   2.363   4.150   0.435  1.3648 -0.5882  1.1122
 7077SOL    HW236652   2.334   4.210   0.571  0.6122 -2.5011  1.8143
 7078SOL     OW36653   3.338   3.481   3.209  0.0737  0.0187 -0.1933
 7078SOL    HW136654   3.394   3.507   3.282 -0.5205 -0.2911  0.3770
 7078SOL    HW236655   3.371   3.394   3.184 -0.0383 -0.0935  0.0384
 7079SOL     OW36656   4.982   3.185   2.937 -0.4428 -0.1959  0.2004
 7079SOL    HW136657   4.964   3.147   2.851 -0.8512 -1.2042  0.7322
 7079SOL    HW236658   4.917   3.255   2.946 -0.8135 -0.5052 -0.0398
 7080SOL     OW36659   4.345   4.552   2.724  0.5337  0.4140 -0.7116
 7080SOL    HW136660   4.261   4.571   2.765  0.0198 -0.6305 -1.2513
 7080SOL    HW236661   4.327   4.480   2.664  1.8550  0.0617 -0.7108
 7081SOL     OW36662   2.144   5.833   1.096  0.0826 -0.7360 -0.2650
 7081SOL    HW136663   2.218   5.815   1.037 -0.2078 -0.6425 -0.6651
 7081SOL    HW236664   2.185   5.857   1.179  0.5038 -0.0723 -0.6633
 7082SOL     OW36665   3.625   3.286   0.920  0.4406 -0.1919 -0.5574
 7082SOL    HW136666   3.636   3.356   0.856 -1.6936  0.1328 -0.6044
 7082SOL    HW236667   3.541   3.305   0.963  0.8405 -1.5543  0.8869
 7083SOL     OW36668   3.338   0.290  10.374 -0.4245  0.1473  0.1457
 7083SOL    HW136669   3.344   0.370  10.321 -1.6065 -0.1924 -0.5178
 7083SOL    HW236670   3.427   0.255  10.374  0.4663  2.3013  1.7882
 7084SOL     OW36671   3.552   0.005   8.501 -0.6785 -0.0374 -0.0400
 7084SOL    HW136672   3.610   0.002   8.577 -1.4111  3.1000  0.7500
 7084SOL    HW236673   3.601   0.053   8.435 -1.3157  0.2601 -0.3108
 7085SOL     OW36674   3.136   2.936   9.431  0.2243 -0.0889 -0.3074
 7085SOL    HW136675   3.059   2.968   9.477 -0.2832 -1.3938 -0.2302
 7085SOL    HW236676   3.109   2.933   9.339  0.6287  0.7171 -0.4658
 7086SOL     OW36677   4.661   1.020   9.346  0.0680 -0.4026 -0.0919
 7086SOL    HW136678   4.750   0.985   9.339  0.0793 -0.0910 -1.6861
 7086SOL    HW236679   4.661   1.070   9.427  1.7910  0.8442 -0.8372
 7087SOL     OW36680   3.284   2.879   3.286  0.3169 -0.0554 -0.4562
 7087SOL    HW136681   3.284   2.828   3.367 -0.6175  0.8922  0.1539
 7087SOL    HW236682   3.295   2.814   3.217 -0.6729 -1.0706  0.3144
 7088SOL     OW36683   5.153   4.496   9.082 -0.1843 -0.0077 -0.8576
 7088SOL    HW136684   5.162   4.402   9.069 -0.3836 -0.2514  0.6839
 7088SOL    HW236685   5.242   4.530   9.084 -0.0718 -0.3621  0.0088
 7089SOL     OW36686   3.652   0.877  10.193 -0.2753 -0.3541  0.1341
 7089SOL    HW136687   3.636   0.896  10.285 -0.5573 -0.8134  0.1785
 7089SOL    HW236688   3.581   0.818  10.167  0.1106 -0.6581 -0.2330
 7090SOL     OW36689   5.814   1.789   1.898  0.1641 -0.0769  0.9690
 7090SOL    HW136690   5.772   1.795   1.812  1.3921 -0.1087  0.3490
 7090SOL    HW236691   5.746   1.811   1.960 -0.9215 -0.6829  0.0172
 7091SOL     OW36692   0.423   2.701  11.985  0.0577 -0.0505 -0.5900
 7091SOL    HW136693   0.439   2.614  12.021  2.5509  0.6903  0.1966
 7091SOL    HW236694   0.494   2.716  11.924 -0.5260  1.3135 -0.9661
 7092SOL     OW36695   1.194   1.823  11.222  0.4267  0.1536 -0.0311
 7092SOL    HW136696   1.149   1.752  11.178  0.2585 -1.2107  2.2689
 7092SOL    HW236697   1.285   1.793  11.230 -0.0546 -0.6518  2.6482
 7093SOL     OW36698   1.590   0.156   4.293 -0.2680 -0.2170 -0.5440
 7093SOL    HW136699   1.637   0.079   4.260 -1.8882 -0.5829 -2.1182
 7093SOL    HW236700   1.640   0.230   4.261  0.1324 -0.6177 -0.8570
 7094SOL     OW36701   5.513   1.096   8.591  0.2644  0.0488  0.4330
 7094SOL    HW136702   5.563   1.100   8.509  1.7515  0.0642  1.3223
 7094SOL    HW236703   5.492   1.187   8.611  0.6699  0.1237  0.5284
 7095SOL     OW36704   0.170   3.308   1.753 -0.4920  0.6362  0.6140
 7095SOL    HW136705   0.240   3.370   1.736  0.3406 -0.4349  0.0768
 7095SOL    HW236706   0.122   3.302   1.671 -0.8053  0.8553  0.7788
 7096SOL     OW36707   4.865   3.971  10.739 -0.2772  0.4685 -0.1656
 7096SOL    HW136708   4.941   4.016  10.704 -0.0505  2.0386  2.2481
 7096SOL    HW236709   4.818   3.938  10.662  1.1947  2.1538 -1.8024
 7097SOL     OW36710   1.181   1.019  11.202  0.0184  0.0028 -1.0031
 7097SOL    HW136711   1.139   1.004  11.117 -2.9154  1.6699  0.0658
 7097SOL    HW236712   1.161   0.940  11.252  1.9678 -1.0907 -1.9222
 7098SOL     OW36713   4.884   4.909  11.907  0.4719 -0.2715  0.3413
 7098SOL    HW136714   4.858   4.936  11.819 -0.6900 -1.6182  0.2512
 7098SOL    HW236715   4.909   4.991  11.951  1.3516  0.3702 -1.3149
 7099SOL     OW36716   5.082   3.075  10.451  0.3033 -0.0343  1.0217
 7099SOL    HW136717   5.017   3.144  10.453  0.3707  0.0580  0.3987
 7099SOL    HW236718   5.126   3.080  10.536  0.2929  0.6669  0.9891
 7100SOL     OW36719   0.706   3.831   4.004  0.1690  0.3175 -0.1096
 7100SOL    HW136720   0.655   3.761   4.044 -1.7424  0.5613 -2.0173
 7100SOL    HW236721   0.703   3.903   4.066 -2.4992  0.5996 -0.4994
 7101SOL     OW36722   2.885   0.653   3.182 -0.5973 -0.2255 -0.0015
 7101SOL    HW136723   2.922   0.741   3.183  1.8824 -1.2390  0.8683
 7101SOL    HW236724   2.856   0.638   3.272  1.0349 -1.1035  0.4019
 7102SOL     OW36725   0.632   1.015   1.236 -0.2301  0.1321 -0.9768
 7102SOL    HW136726   0.565   0.952   1.262  0.8055 -0.4491  0.3186
 7102SOL    HW236727   0.585   1.097   1.224 -1.1829 -0.3033 -0.1920
 7103SOL     OW36728   1.907   2.026   2.901 -0.2670  0.3354 -0.4609
 7103SOL    HW136729   1.947   1.955   2.952  0.0215  1.3221  0.7275
 7103SOL    HW236730   1.838   2.061   2.958 -0.2052  1.1959 -0.8999
 7104SOL     OW36731   2.683   5.047  10.789 -0.1752 -0.5128  0.0865
 7104SOL    HW136732   2.726   4.962  10.801  1.6107  0.3805  0.1245
 7104SOL    HW236733   2.710   5.075  10.702  0.0529  0.4777  0.4754
 7105SOL     OW36734   2.002   4.388   4.386 -0.1095  0.5324 -0.1225
 7105SOL    HW136735   2.075   4.326   4.386 -0.9414 -0.5142  2.5908
 7105SOL    HW236736   2.044   4.474   4.384  1.1158 -0.0714 -1.3050
 7106SOL     OW36737   1.190   0.126   2.103  0.2099 -0.4714 -0.0370
 7106SOL    HW136738   1.264   0.141   2.162  0.5340 -1.4892 -0.1652
 7106SOL    HW236739   1.205   0.038   2.068 -3.2537 -2.4657  3.1368
 7107SOL     OW36740   1.332   3.251  12.267  0.2928 -0.0004  0.5150
 7107SOL    HW136741   1.289   3.333  12.291  2.4248  1.1944  0.3954
 7107SOL    HW236742   1.297   3.229  12.181  1.2245  1.9096 -0.3793
 7108SOL     OW36743   0.789   1.744   3.226 -0.7566  0.4918 -0.0403
 7108SOL    HW136744   0.727   1.769   3.295 -1.4020 -0.6715 -0.1752
 7108SOL    HW236745   0.766   1.653   3.205 -0.1770  0.6349 -1.3657
 7109SOL     OW36746   2.638   1.696  11.688  0.6620 -0.2421 -0.3377
 7109SOL    HW136747   2.659   1.651  11.606 -1.5845 -1.7798 -0.0943
 7109SOL    HW236748   2.670   1.637  11.757 -0.1653 -0.3665 -0.0567
 7110SOL     OW36749   1.398   5.036  11.150 -0.5184 -0.3681 -0.5076
 7110SOL    HW136750   1.321   5.004  11.196 -1.0623  0.0678 -1.1072
 7110SOL    HW236751   1.393   4.995  11.063 -1.3625  1.5300 -1.3756
 7111SOL     OW36752   0.075   1.099  11.534  0.2812 -0.4887 -0.3397
 7111SOL    HW136753   0.076   1.039  11.608  0.9935 -0.1487 -0.0560
 7111SOL    HW236754   0.038   1.180  11.569 -0.3095 -0.6417 -0.6161
 7112SOL     OW36755   2.804   3.080   3.222  0.1333 -0.1040 -0.5929
 7112SOL    HW136756   2.733   3.031   3.180 -0.8520  2.0321 -1.5382
 7112SOL    HW236757   2.767   3.167   3.236  2.3236  0.8316 -0.4040
 7113SOL     OW36758   0.045   4.821  10.966 -0.0329 -0.2566  0.1205
 7113SOL    HW136759   0.102   4.896  10.947  0.9906 -1.7652 -3.2795
 7113SOL    HW236760  -0.039   4.844  10.925 -0.1858 -0.3093  0.4035
 7114SOL     OW36761   0.456   4.168  12.394  0.4386 -0.0195  0.1305
 7114SOL    HW136762   0.541   4.158  12.349  0.1001 -1.3005 -0.2533
 7114SOL    HW236763   0.408   4.231  12.340  0.5891 -0.4385 -0.5089
 7115SOL     OW36764   1.389   0.887   0.497  0.3771 -0.2474  0.4340
 7115SOL    HW136765   1.324   0.820   0.477  1.9492 -1.3397 -1.1948
 7115SOL    HW236766   1.368   0.959   0.437  0.2422 -0.3096  0.4049
 7116SOL     OW36767   5.917   5.774   9.082  0.7110 -0.2943 -0.4482
 7116SOL    HW136768   5.872   5.835   9.024 -2.0582 -1.9619 -0.0911
 7116SOL    HW236769   5.912   5.689   9.037  1.2869 -0.9831  0.7678
 7117SOL     OW36770   4.475   3.203   9.804 -0.8116 -0.4443 -0.3131
 7117SOL    HW136771   4.484   3.293   9.836  0.4444 -0.1017 -1.5669
 7117SOL    HW236772   4.413   3.162   9.864 -0.0352  0.7393  1.3288
 7118SOL     OW36773   1.779   4.188  10.470 -0.3936 -0.0474 -0.0152
 7118SOL    HW136774   1.754   4.266  10.520  0.5920 -0.1830  0.7067
 7118SOL    HW236775   1.799   4.123  10.536  0.2168 -0.4575 -0.5962
 7119SOL     OW36776   1.774   5.496  10.785 -0.0875 -0.1020 -0.8297
 7119SOL    HW136777   1.806   5.586  10.780  0.2424 -0.1865 -0.3489
 7119SOL    HW236778   1.771   5.466  10.694 -0.4497  0.4807 -1.0120
 7120SOL     OW36779   3.192   5.368   9.426 -0.5478 -0.1798  0.0212
 7120SOL    HW136780   3.272   5.372   9.480 -1.7139  0.5897  1.7448
 7120SOL    HW236781   3.144   5.293   9.461 -1.6229  0.7262  0.5101
 7121SOL     OW36782   4.865   1.354   1.413  0.2295 -0.2577  0.3734
 7121SOL    HW136783   4.837   1.438   1.451 -0.0101 -0.4647  0.6637
 7121SOL    HW236784   4.830   1.355   1.324 -0.1188 -0.2231  0.5098
 7122SOL     OW36785   3.412   0.685   7.779 -0.0261  0.1994 -0.0812
 7122SOL    HW136786   3.505   0.668   7.767 -0.1587 -0.2873 -0.4345
 7122SOL    HW236787   3.372   0.598   7.790 -0.5947  0.3167 -1.0807
 7123SOL     OW36788   3.888   2.741  11.877  0.0788  0.0921  0.4059
 7123SOL    HW136789   3.888   2.723  11.971 -0.3788  1.8406  0.7634
 7123SOL    HW236790   3.798   2.725  11.849 -0.0552  0.6773  0.4953
 7124SOL     OW36791   1.967   4.727  11.652  0.0121  0.2619 -0.5999
 7124SOL    HW136792   1.971   4.696  11.743  1.9725  0.1366 -0.7163
 7124SOL    HW236793   1.881   4.770  11.646  0.3034  1.2637  1.6436
 7125SOL     OW36794   5.122   2.361  11.248 -0.1626 -0.0712 -0.2068
 7125SOL    HW136795   5.049   2.417  11.273  0.1083  0.0775  0.2456
 7125SOL    HW236796   5.089   2.310  11.174 -0.2412  1.0511 -0.9472
 7126SOL     OW36797   3.533   1.227   9.921  0.0997 -0.4051  0.1196
 7126SOL    HW136798   3.568   1.268  10.000  0.1078 -0.0498 -0.0643
 7126SOL    HW236799   3.567   1.138   9.922 -1.9220 -1.2178  1.8412
 7127SOL     OW36800   2.434   1.239   0.760  0.2511 -0.2027  0.1980
 7127SOL    HW136801   2.447   1.231   0.855 -0.0161 -1.8896  0.1102
 7127SOL    HW236802   2.345   1.273   0.751  0.5485  0.6890  0.5589
 7128SOL     OW36803   4.214   0.745  11.245  0.2459  0.2931 -0.3321
 7128SOL    HW136804   4.146   0.802  11.281  0.5730  0.2339  0.3922
 7128SOL    HW236805   4.232   0.782  11.158 -0.5119  0.4711 -0.4212
 7129SOL     OW36806   3.719   1.106  11.877  0.6966 -0.0380 -0.3183
 7129SOL    HW136807   3.801   1.091  11.830  0.9529 -1.8514  0.6768
 7129SOL    HW236808   3.700   1.023  11.920 -1.3611  0.5481 -0.0390
 7130SOL     OW36809   3.302   2.532  10.032  0.2834 -0.0511 -0.1374
 7130SOL    HW136810   3.339   2.613   9.997  0.7648 -0.3112 -0.2454
 7130SOL    HW236811   3.279   2.481   9.955  0.2701 -0.1504 -0.0678
 7131SOL     OW36812   4.875   1.763  11.074  0.3215  0.0693 -0.6615
 7131SOL    HW136813   4.860   1.814  10.995  0.4253 -0.4973 -1.0457
 7131SOL    HW236814   4.894   1.674  11.043  0.8940 -0.0328 -0.0270
 7132SOL     OW36815   0.739   1.797   9.451  0.6832 -0.2173 -0.1810
 7132SOL    HW136816   0.726   1.782   9.545 -1.6522  0.2926 -0.3838
 7132SOL    HW236817   0.819   1.850   9.446 -0.3534  1.6240  1.6946
 7133SOL     OW36818   4.671   2.064   8.775 -0.6294  0.0675  0.0391
 7133SOL    HW136819   4.761   2.061   8.807 -0.8408 -0.1298  0.6336
 7133SOL    HW236820   4.629   1.988   8.816 -0.9474 -0.0963 -0.5907
 7134SOL     OW36821   4.057   3.657  10.386  0.1707 -0.3251 -0.2334
 7134SOL    HW136822   4.132   3.696  10.432  1.7186 -1.9832 -1.2712
 7134SOL    HW236823   4.066   3.563  10.402 -1.7692 -0.5271 -0.2987
 7135SOL     OW36824   5.033   4.150  10.569  0.4457 -0.5203 -0.3668
 7135SOL    HW136825   5.073   4.073  10.529 -0.6806  0.1791 -2.9789
 7135SOL    HW236826   5.102   4.190  10.621  1.3789 -2.6171  0.0467
 7136SOL     OW36827   5.459   2.424   1.016 -0.3404 -0.7960  0.4020
 7136SOL    HW136828   5.487   2.396   1.103  2.1315 -3.1787 -1.0589
 7136SOL    HW236829   5.504   2.507   1.002 -2.0504  0.4369  1.9953
 7137SOL     OW36830   4.624   2.985   8.311  0.1182 -0.0926  0.0751
 7137SOL    HW136831   4.624   3.075   8.346  0.5188  0.2003 -0.6820
 7137SOL    HW236832   4.673   2.991   8.229  0.5231 -1.0939  0.2414
 7138SOL     OW36833   5.864   4.375  10.234  0.1058  0.1413  0.1845
 7138SOL    HW136834   5.949   4.382  10.192  0.4992  2.3842  1.2870
 7138SOL    HW236835   5.837   4.465  10.250 -1.9352 -0.5674  0.9456
 7139SOL     OW36836   0.334   1.614   1.382  0.1673 -0.3562 -0.4386
 7139SOL    HW136837   0.313   1.598   1.474  1.8146 -2.1934 -0.3343
 7139SOL    HW236838   0.300   1.702   1.365 -1.7388 -0.6808  1.4142
 7140SOL     OW36839   2.432   0.241  11.093 -0.2869  0.6095  0.0262
 7140SOL    HW136840   2.473   0.324  11.115  1.3400 -0.8318  2.6952
 7140SOL    HW236841   2.493   0.198  11.034 -0.7303  0.9139 -0.6681
 7141SOL     OW36842   4.736   4.838   8.905  0.2390  0.4993  0.3150
 7141SOL    HW136843   4.663   4.900   8.905 -1.9396 -1.9219 -2.2788
 7141SOL    HW236844   4.800   4.876   8.846 -1.9370 -0.5329 -2.8558
 7142SOL     OW36845   2.843   2.597  12.385 -0.0116  0.2684 -0.4671
 7142SOL    HW136846   2.810   2.661  12.447 -0.8125  0.4223 -1.0394
 7142SOL    HW236847   2.785   2.521  12.394 -0.6500  0.6027 -1.5955
 7143SOL     OW36848   5.750   1.724   8.184 -0.0342 -0.6618 -0.6428
 7143SOL    HW136849   5.654   1.719   8.184 -0.1670  1.2446  0.7336
 7143SOL    HW236850   5.770   1.804   8.137  0.9371 -1.5548 -1.7664
 7144SOL     OW36851   3.575   2.167   4.179  0.4160 -0.4977  0.0715
 7144SOL    HW136852   3.586   2.250   4.225  0.9383  0.1002 -1.1158
 7144SOL    HW236853   3.504   2.123   4.226 -0.0169  0.7173  0.5802
 7145SOL     OW36854   5.313   1.803   1.586  0.8580 -0.0061 -0.2601
 7145SOL    HW136855   5.339   1.895   1.577  1.1289  0.0798  1.3042
 7145SOL    HW236856   5.379   1.765   1.644  0.7226 -1.1829 -0.8616
 7146SOL     OW36857   1.060   1.348   1.613 -0.4505  0.1157  0.1694
 7146SOL    HW136858   1.154   1.331   1.616 -0.6111 -0.5749  2.3116
 7146SOL    HW236859   1.029   1.300   1.535  0.9542  0.3420 -0.5410
 7147SOL     OW36860   0.302   1.709   1.099 -0.2146 -0.6163  0.0002
 7147SOL    HW136861   0.207   1.700   1.102 -0.2124 -0.4773  0.5863
 7147SOL    HW236862   0.335   1.644   1.161 -0.1616  2.6336  3.5484
 7148SOL     OW36863   0.164   0.508  11.834 -0.1762  0.1642 -0.4915
 7148SOL    HW136864   0.159   0.494  11.740  0.9435 -0.5892 -0.4461
 7148SOL    HW236865   0.257   0.503  11.854 -0.4065  0.3378  0.6576
 7149SOL     OW36866   5.162   5.504   3.199 -0.3318  0.2184  0.5818
 7149SOL    HW136867   5.180   5.414   3.171  0.4618  0.8348 -0.9280
 7149SOL    HW236868   5.096   5.535   3.138  0.1142  1.0002  0.5033
 7150SOL     OW36869   4.132   1.664  10.427 -0.2004  0.1020 -0.0892
 7150SOL    HW136870   4.093   1.751  10.418  0.0716  0.2609  0.2724
 7150SOL    HW236871   4.223   1.675  10.400  0.0221  0.0848  0.6436
 7151SOL     OW36872   0.270   1.612   9.036  0.1589  0.2497 -0.3308
 7151SOL    HW136873   0.226   1.540   8.991  0.5972 -1.1722  1.4840
 7151SOL    HW236874   0.200   1.676   9.051 -0.8450 -1.0522  0.6169
 7152SOL     OW36875   2.967   4.515  11.043  0.9625 -0.0736  0.2872
 7152SOL    HW136876   3.017   4.438  11.072  0.5709 -0.0851  0.9487
 7152SOL    HW236877   3.015   4.589  11.081  1.6307  0.0425 -0.7746
 7153SOL     OW36878   1.791   5.877  10.314  0.0840  0.2083  0.7198
 7153SOL    HW136879   1.724   5.945  10.308 -0.3474 -0.3054 -0.5926
 7153SOL    HW236880   1.871   5.923  10.338 -0.2840  1.1383  0.1843
 7154SOL     OW36881  -0.007   2.806   2.641  0.6616 -0.3645  0.6031
 7154SOL    HW136882  -0.051   2.792   2.724  1.7594  2.6172  1.7558
 7154SOL    HW236883   0.079   2.765   2.652  1.3374  1.2385  1.4996
 7155SOL     OW36884   1.146   0.653   3.599  0.2884 -0.0772 -0.4360
 7155SOL    HW136885   1.127   0.574   3.649 -0.4426 -0.6991 -1.6580
 7155SOL    HW236886   1.071   0.662   3.540  0.4460  1.4326 -0.4228
 7156SOL     OW36887   2.942   0.227  11.838 -0.1732  0.5123 -1.1742
 7156SOL    HW136888   2.852   0.202  11.856  0.4178 -2.4783 -2.1239
 7156SOL    HW236889   2.988   0.215  11.921 -0.0253 -1.0365 -1.4654
 7157SOL     OW36890   1.577   5.855   1.026  0.0778 -0.6378  0.0564
 7157SOL    HW136891   1.507   5.850   0.961 -0.9235 -0.0235  1.0541
 7157SOL    HW236892   1.582   5.766   1.061  1.0710 -1.1313 -1.2949
 7158SOL     OW36893   2.377   2.100   3.824  0.3146 -0.1097 -0.6298
 7158SOL    HW136894   2.324   2.038   3.874 -2.2970  2.6540  0.2056
 7158SOL    HW236895   2.457   2.110   3.876  0.3232 -1.9187 -0.2454
 7159SOL     OW36896   2.496   1.116   1.454 -0.4121  0.0095  0.2886
 7159SOL    HW136897   2.432   1.064   1.406 -0.2542  0.2666 -0.2142
 7159SOL    HW236898   2.478   1.206   1.429  0.5822  0.0297 -0.4033
 7160SOL     OW36899   2.485   1.713   2.950 -0.6589  0.4160 -0.0514
 7160SOL    HW136900   2.512   1.710   3.042  0.4924 -1.0354 -0.4105
 7160SOL    HW236901   2.390   1.700   2.952 -0.9268  2.3478  1.0412
 7161SOL     OW36902   4.150   2.512   0.300 -0.3815  0.7515  0.1599
 7161SOL    HW136903   4.091   2.509   0.224  1.6832 -0.2820 -1.4379
 7161SOL    HW236904   4.131   2.431   0.348 -0.6437  0.6846 -0.0526
 7162SOL     OW36905   1.046   3.735   0.792 -0.0802  0.0842  0.1091
 7162SOL    HW136906   1.108   3.677   0.836  2.1407  1.1056 -1.5095
 7162SOL    HW236907   1.054   3.818   0.839 -1.1235 -0.1140  0.6407
 7163SOL     OW36908   3.957   4.055  11.491  0.4651 -0.0318  0.2798
 7163SOL    HW136909   3.906   4.033  11.569  0.2738  1.5083  0.6055
 7163SOL    HW236910   3.911   4.013  11.419 -0.6955  0.4937  0.7029
 7164SOL     OW36911   4.391   4.768   8.735  0.2346  0.0240  0.0072
 7164SOL    HW136912   4.467   4.710   8.726 -0.3223 -0.7982  0.5258
 7164SOL    HW236913   4.317   4.708   8.740 -0.5351  0.8329 -1.2901
 7165SOL     OW36914   0.107   5.680   0.859 -0.1840 -0.2655 -0.0737
 7165SOL    HW136915   0.155   5.638   0.788 -3.5850 -2.3897 -1.2568
 7165SOL    HW236916   0.087   5.767   0.826 -0.0953 -0.5746 -0.9668
 7166SOL     OW36917   3.695   5.162   8.103 -0.2568  0.0758  0.0578
 7166SOL    HW136918   3.668   5.070   8.104 -0.9904  0.2868  0.4269
 7166SOL    HW236919   3.660   5.196   8.021  0.6702 -0.1615 -0.4397
 7167SOL     OW36920   3.084   2.206   3.407 -0.3155  0.2252  0.3938
 7167SOL    HW136921   3.076   2.120   3.449 -1.5600  0.1320 -0.0108
 7167SOL    HW236922   3.151   2.252   3.458 -0.3126 -0.6448  1.1824
 7168SOL     OW36923   2.148   3.664  11.625 -0.1084  0.2326  0.0573
 7168SOL    HW136924   2.138   3.714  11.544 -0.3921  0.0441 -0.0241
 7168SOL    HW236925   2.177   3.729  11.689  2.2129 -0.0306 -0.6955
 7169SOL     OW36926   3.624   2.139   1.919  0.2879 -0.6571 -0.1001
 7169SOL    HW136927   3.702   2.194   1.928  0.9394 -1.6192  0.1315
 7169SOL    HW236928   3.599   2.119   2.009  1.5240 -2.8108 -0.2012
 7170SOL     OW36929   2.747   1.944   3.309  0.3241  0.1368 -0.4550
 7170SOL    HW136930   2.728   1.927   3.401  0.2335 -0.5138 -0.5906
 7170SOL    HW236931   2.769   2.037   3.306  0.5199  0.1179  0.2505
 7171SOL     OW36932   1.016   2.324   2.795  0.3734  0.0447 -0.0131
 7171SOL    HW136933   0.953   2.254   2.779  2.1983 -1.4540 -0.9328
 7171SOL    HW236934   1.098   2.278   2.811  1.1488  1.9367  1.5591
 7172SOL     OW36935   5.342   3.930   1.491  0.2320  0.3216 -0.0908
 7172SOL    HW136936   5.263   3.877   1.503  0.3093 -0.1647 -1.5834
 7172SOL    HW236937   5.312   4.007   1.442  0.6805  0.1118 -0.7043
 7173SOL     OW36938   4.200   4.060  12.120  0.5412  0.2244  0.1031
 7173SOL    HW136939   4.279   4.007  12.136  0.5244  0.2418  0.2521
 7173SOL    HW236940   4.233   4.148  12.104  0.5638  0.1897 -0.0435
 7174SOL     OW36941   0.443   2.609   9.564  0.0112  0.5353  0.2562
 7174SOL    HW136942   0.472   2.669   9.496  0.8235  1.3561  1.3141
 7174SOL    HW236943   0.521   2.591   9.616 -0.5731 -0.1640  0.9194
 7175SOL     OW36944   3.148   2.244   2.768  0.4322  0.6735 -0.3766
 7175SOL    HW136945   3.117   2.238   2.859 -0.6376  0.0634 -0.7755
 7175SOL    HW236946   3.244   2.245   2.776  0.3460  1.3359  0.7950
 7176SOL     OW36947   2.668   2.536   0.899  0.0911 -0.4432 -0.7634
 7176SOL    HW136948   2.717   2.503   0.975 -0.0720 -0.3289 -0.6099
 7176SOL    HW236949   2.656   2.459   0.843 -0.2005 -0.6240 -0.4529
 7177SOL     OW36950   4.221   0.699   1.360 -0.2036  0.2432  0.2134
 7177SOL    HW136951   4.130   0.697   1.329  0.1105 -2.0771 -0.6837
 7177SOL    HW236952   4.273   0.715   1.282  0.0585  4.3565  1.1348
 7178SOL     OW36953   3.850   5.805  10.887 -0.2862 -0.0534  0.0425
 7178SOL    HW136954   3.855   5.759  10.803 -3.7422  2.2830 -1.5718
 7178SOL    HW236955   3.789   5.752  10.939 -0.9786  0.4566 -0.2543
 7179SOL     OW36956   4.347   3.090   1.648  0.0586 -0.1150 -0.1730
 7179SOL    HW136957   4.410   3.025   1.618 -1.7398 -0.7158 -2.8294
 7179SOL    HW236958   4.352   3.161   1.584 -0.4805  0.7841  0.7472
 7180SOL     OW36959   2.858   2.559  10.549 -0.1494  0.6839 -0.2191
 7180SOL    HW136960   2.901   2.634  10.589  2.3917 -0.4238 -0.7453
 7180SOL    HW236961   2.930   2.502  10.521 -1.9827 -1.4260 -0.8306
 7181SOL     OW36962   2.227   2.978   9.349 -0.2018  0.4186  0.3894
 7181SOL    HW136963   2.214   2.885   9.331 -0.6082  0.5156  0.1710
 7181SOL    HW236964   2.144   3.007   9.386 -0.6039  1.0446 -0.9953
 7182SOL     OW36965   4.820   0.239   1.376 -0.5262 -0.0334 -0.0860
 7182SOL    HW136966   4.910   0.256   1.404  0.0832 -2.7980 -0.2093
 7182SOL    HW236967   4.798   0.313   1.320  3.2430 -1.4282 -3.6190
 7183SOL     OW36968   4.817   5.073   1.070 -1.1976  0.1310 -0.0411
 7183SOL    HW136969   4.890   5.125   1.037  0.7489 -2.4042  0.1386
 7183SOL    HW236970   4.768   5.049   0.991 -1.6971  1.5947 -0.1933
 7184SOL     OW36971   5.758   1.732   3.692 -0.3108 -0.2032  0.2939
 7184SOL    HW136972   5.721   1.648   3.716 -0.3039  0.0172  1.0780
 7184SOL    HW236973   5.694   1.796   3.721 -0.7139  0.0225 -1.0749
 7185SOL     OW36974   0.083   1.643   1.874 -0.6636  0.1686 -0.6953
 7185SOL    HW136975  -0.008   1.669   1.885 -0.3660  1.6902 -1.7264
 7185SOL    HW236976   0.134   1.720   1.900  0.3414 -0.6165 -0.2579
 7186SOL     OW36977   1.225   3.563  11.416  0.4881  0.0894 -0.0695
 7186SOL    HW136978   1.213   3.635  11.478 -0.4867 -0.0407 -0.0920
 7186SOL    HW236979   1.150   3.570  11.356 -0.3366 -1.7292  0.7203
 7187SOL     OW36980   3.673   3.258   9.386 -0.1255  0.8046  0.5899
 7187SOL    HW136981   3.698   3.318   9.316  1.2907  0.6430  0.9187
 7187SOL    HW236982   3.632   3.184   9.341  1.0790  0.5425 -0.1180
 7188SOL     OW36983   0.925   0.615   0.583 -0.2912  0.4734  0.0302
 7188SOL    HW136984   0.894   0.665   0.658 -0.7053  3.2990 -1.9620
 7188SOL    HW236985   1.017   0.640   0.574 -0.1089 -0.2311 -0.1162
 7189SOL     OW36986   2.996   3.334  10.472 -0.4386 -0.3167  0.6064
 7189SOL    HW136987   2.912   3.337  10.426 -0.3792  0.4686  0.5371
 7189SOL    HW236988   3.061   3.352  10.404 -0.2333 -0.5993  0.7234
 7190SOL     OW36989   5.455   0.890  10.664  0.2066  0.1200  0.3264
 7190SOL    HW136990   5.504   0.964  10.698  1.1605 -0.5244  0.3849
 7190SOL    HW236991   5.396   0.865  10.735  2.2903 -1.3066  1.6042
 7191SOL     OW36992   1.467   0.623   8.438 -0.5509  0.0388  0.0734
 7191SOL    HW136993   1.447   0.631   8.531 -1.5493 -0.9540 -0.0424
 7191SOL    HW236994   1.417   0.693   8.396  0.0397  0.5973  0.3057
 7192SOL     OW36995   2.736   4.291   9.142 -0.2002  0.5845 -0.1391
 7192SOL    HW136996   2.801   4.221   9.145 -1.8480 -0.9080  2.3830
 7192SOL    HW236997   2.651   4.246   9.148 -1.3425  2.7169  0.5106
 7193SOL     OW36998   0.083   5.883  11.322 -0.2299  0.1387 -1.0309
 7193SOL    HW136999  -0.007   5.851  11.320  0.4063 -1.6993 -0.5995
 7193SOL    HW237000   0.079   5.961  11.377 -1.5819  0.1731 -1.1584
 7194SOL     OW37001   1.761   0.060   2.581  0.1025 -0.0059 -0.4460
 7194SOL    HW137002   1.671   0.094   2.578  0.4073  0.7379 -1.8380
 7194SOL    HW237003   1.753  -0.028   2.616 -0.9776  0.6702  1.0836
 7195SOL     OW37004   2.428   0.920  12.432  0.1732  0.0393  0.1928
 7195SOL    HW137005   2.429   0.826  12.451  0.8150  0.2647  1.3389
 7195SOL    HW237006   2.356   0.931  12.370 -2.6416 -0.6564  3.1834
 7196SOL     OW37007   5.899   2.018   3.320 -0.0892  0.7006 -0.3092
 7196SOL    HW137008   5.955   2.070   3.378  0.3058  0.2058 -0.2367
 7196SOL    HW237009   5.890   1.934   3.365 -0.8728  0.7647 -0.3366
 7197SOL     OW37010   2.957   0.737   2.446 -0.0309  0.5589 -0.1518
 7197SOL    HW137011   2.916   0.774   2.524  1.2428  0.2389  0.6966
 7197SOL    HW237012   3.047   0.718   2.474  0.7235  1.3198 -1.9545
 7198SOL     OW37013   4.769   4.127  11.946  0.3535  0.2543  0.7892
 7198SOL    HW137014   4.856   4.108  11.911  0.0546  0.1951  0.0596
 7198SOL    HW237015   4.709   4.108  11.874 -0.1404  1.9078  0.7341
 7199SOL     OW37016   0.387   0.732   3.867  0.0143  0.3499  0.0966
 7199SOL    HW137017   0.346   0.809   3.828 -1.0778 -0.5615 -0.6149
 7199SOL    HW237018   0.334   0.714   3.945  0.6176  0.6508  0.5798
 7200SOL     OW37019   5.315   5.848   8.532  0.1626  0.0971 -0.3191
 7200SOL    HW137020   5.267   5.783   8.480  0.0644  1.1489 -1.5616
 7200SOL    HW237021   5.386   5.877   8.474 -0.0795  1.4541  0.0507
 7201SOL     OW37022   4.636   2.750  10.497  0.0385  0.3167  0.0490
 7201SOL    HW137023   4.685   2.673  10.525 -2.0887 -0.5671  1.4428
 7201SOL    HW237024   4.647   2.752  10.402  0.2035 -1.6518  0.0086
 7202SOL     OW37025   2.965   0.036  11.255  0.4221  0.3646 -0.3390
 7202SOL    HW137026   3.059   0.028  11.275  0.5285  2.1365 -0.0878
 7202SOL    HW237027   2.942   0.125  11.281 -1.6810 -0.5137  0.9651
 7203SOL     OW37028   3.601   3.522   1.468 -0.5306 -0.2138 -0.1543
 7203SOL    HW137029   3.684   3.494   1.429  0.5767  1.4625  0.9695
 7203SOL    HW237030   3.541   3.526   1.394  0.8704  0.3780 -1.2877
 7204SOL     OW37031   5.006   3.945  10.345 -0.2023  0.3849  0.1123
 7204SOL    HW137032   4.946   4.013  10.317 -1.7089 -0.7949  0.4144
 7204SOL    HW237033   5.043   3.910  10.264  0.0865  1.1089 -0.0725
 7205SOL     OW37034   2.653   5.935   8.494 -0.3710 -0.1870 -0.2345
 7205SOL    HW137035   2.691   5.873   8.432 -0.6661  0.0940 -0.7076
 7205SOL    HW237036   2.726   5.962   8.549 -0.6230 -2.4756  1.2983
 7206SOL     OW37037   4.993   1.945   9.305  0.5372 -0.1237  0.2233
 7206SOL    HW137038   4.937   2.021   9.322  1.0266  0.3712 -0.3273
 7206SOL    HW237039   5.059   1.978   9.244 -1.2170 -1.8194 -2.7345
 7207SOL     OW37040   3.633   0.920   2.475  0.2708 -0.3616 -0.3982
 7207SOL    HW137041   3.589   0.874   2.546  0.3214  0.4136  0.1364
 7207SOL    HW237042   3.606   0.873   2.396 -0.8080 -0.4428  0.0103
 7208SOL     OW37043   2.766   0.455   9.829 -0.5378  0.3485  0.5210
 7208SOL    HW137044   2.810   0.392   9.886 -1.0077 -1.2837 -0.8894
 7208SOL    HW237045   2.819   0.534   9.837  3.3129 -1.8300 -1.8258
 7209SOL     OW37046   2.457   3.324  12.447  0.2476  0.5693 -0.1291
 7209SOL    HW137047   2.472   3.399  12.505  0.7527  1.1524 -0.9923
 7209SOL    HW237048   2.418   3.363  12.368  1.1845  0.0320 -0.8778
 7210SOL     OW37049   2.574   5.267   8.538 -0.2198  0.3911 -0.2508
 7210SOL    HW137050   2.644   5.209   8.509 -0.9598  0.4674 -2.2955
 7210SOL    HW237051   2.496   5.236   8.492 -0.9904  1.8946 -0.0047
 7211SOL     OW37052   2.236   1.537  11.459 -0.0292 -0.1442 -0.1423
 7211SOL    HW137053   2.276   1.571  11.379  0.5899 -1.3116 -0.3414
 7211SOL    HW237054   2.208   1.449  11.435 -2.1738  0.4116  0.1765
 7212SOL     OW37055   1.572   2.825  10.861 -1.0573  0.1037  0.3544
 7212SOL    HW137056   1.501   2.775  10.900 -0.4546 -0.0722  1.2385
 7212SOL    HW237057   1.544   2.917  10.869 -1.0194  0.0550  1.0235
 7213SOL     OW37058   3.901   4.013  10.008  0.5233 -0.5371 -0.3554
 7213SOL    HW137059   3.984   3.982  10.044  0.9441  0.5204 -0.3759
 7213SOL    HW237060   3.915   4.017   9.914  0.9464  0.9985 -0.2486
 7214SOL     OW37061   4.159   0.266  12.167 -0.1902 -0.3755  0.2231
 7214SOL    HW137062   4.162   0.347  12.117  0.5278 -0.4113  0.2034
 7214SOL    HW237063   4.216   0.206  12.119  0.5822 -0.3872  1.1189
 7215SOL     OW37064   1.669   0.769  12.073 -0.5511  0.5979 -0.5788
 7215SOL    HW137065   1.676   0.685  12.028 -0.5124  0.3602 -0.1324
 7215SOL    HW237066   1.751   0.815  12.053 -1.2480  1.2105 -2.1875
 7216SOL     OW37067   4.170   5.131   3.420  0.8377 -0.7060  0.3120
 7216SOL    HW137068   4.091   5.122   3.367  1.1141  0.0806 -0.2523
 7216SOL    HW237069   4.229   5.184   3.366  1.2097 -0.0814  1.3081
 7217SOL     OW37070   3.699   1.804   8.076 -0.4476  0.8043 -0.5128
 7217SOL    HW137071   3.703   1.736   8.008  0.9268  0.6836 -0.3068
 7217SOL    HW237072   3.734   1.883   8.033 -1.3180  1.2049 -0.5097
 7218SOL     OW37073   5.237   5.219   3.461  0.2488 -0.3795  0.1747
 7218SOL    HW137074   5.327   5.250   3.448  0.0729  0.4865  1.0217
 7218SOL    HW237075   5.232   5.197   3.554  0.0006 -1.7938 -0.1564
 7219SOL     OW37076   0.901   2.775   1.257 -0.1011  0.3417 -0.2969
 7219SOL    HW137077   0.922   2.710   1.189 -1.9552 -0.7422  0.1228
 7219SOL    HW237078   0.914   2.859   1.214 -2.1827 -0.3202 -2.3635
 7220SOL     OW37079   1.455   0.108   3.427  0.3951 -0.3689 -0.3071
 7220SOL    HW137080   1.390   0.096   3.497  0.1560  0.4739 -0.3818
 7220SOL    HW237081   1.514   0.175   3.460 -0.6511  1.2259 -1.5555
 7221SOL     OW37082   5.790   2.374  11.419 -0.2454  0.5000  0.5884
 7221SOL    HW137083   5.794   2.465  11.391  1.9180  0.4841  0.7687
 7221SOL    HW237084   5.859   2.365  11.485  0.0861 -1.4193  0.0367
 7222SOL     OW37085   1.489   2.270  11.823 -0.3955 -0.0834  0.2731
 7222SOL    HW137086   1.540   2.231  11.894  2.4418 -0.3630 -1.8499
 7222SOL    HW237087   1.462   2.356  11.857  1.3216 -0.0194  1.5153
 7223SOL     OW37088   0.326   3.364   2.015 -0.3626 -0.3727 -0.2812
 7223SOL    HW137089   0.374   3.423   1.957 -1.2217  0.0741 -0.5464
 7223SOL    HW237090   0.292   3.296   1.957  0.1347 -0.8248 -0.0582
 7224SOL     OW37091   5.300   4.710  10.366  0.3383  0.0748 -0.1546
 7224SOL    HW137092   5.316   4.804  10.363 -0.1658  0.2031  0.7730
 7224SOL    HW237093   5.293   4.684  10.274  1.3627  0.7773 -0.4442
 7225SOL     OW37094   2.877   5.549   3.084 -0.2083 -0.0410  0.0455
 7225SOL    HW137095   2.813   5.535   3.014  0.7578 -1.0806 -0.6413
 7225SOL    HW237096   2.839   5.619   3.137 -0.5357  1.4090 -2.0391
 7226SOL     OW37097   0.760   1.185  12.233  0.0516 -0.0380 -0.0223
 7226SOL    HW137098   0.851   1.194  12.262  0.0703 -0.8487  0.1699
 7226SOL    HW237099   0.723   1.119  12.291 -0.0003 -1.4331 -1.6280
 7227SOL     OW37100   1.803   4.460   3.459 -0.0285  0.2429 -0.5469
 7227SOL    HW137101   1.851   4.502   3.529  1.9338 -1.6802 -0.6840
 7227SOL    HW237102   1.864   4.458   3.385 -0.8658 -0.8013 -1.2399
 7228SOL     OW37103   1.561   2.743   1.442 -0.1465  0.3887  0.9778
 7228SOL    HW137104   1.556   2.838   1.452  0.2476  0.3267  1.8561
 7228SOL    HW237105   1.472   2.712   1.460 -0.4945  0.6646 -0.2424
 7229SOL     OW37106   1.155   3.944  10.803 -0.1684  0.5752 -0.0633
 7229SOL    HW137107   1.092   4.011  10.831  0.3733  1.0818 -0.0306
 7229SOL    HW237108   1.214   3.991  10.744 -0.6525 -0.2299 -1.2167
 7230SOL     OW37109   5.528   4.113   1.651 -0.1291 -0.0989 -0.7387
 7230SOL    HW137110   5.505   4.027   1.615 -0.5479  0.4474 -1.7967
 7230SOL    HW237111   5.593   4.094   1.719  0.2765 -1.2040 -1.4164
 7231SOL     OW37112   2.909   2.775   0.645 -0.6166 -0.2535 -0.5102
 7231SOL    HW137113   2.944   2.724   0.573  2.8039  2.2835 -0.7807
 7231SOL    HW237114   2.965   2.754   0.719 -0.4858  1.4856 -0.0982
 7232SOL     OW37115   5.756   0.065   2.397  0.4909  0.0352 -0.4320
 7232SOL    HW137116   5.686   0.008   2.364 -0.9073  0.7338  1.2610
 7232SOL    HW237117   5.720   0.104   2.476  3.5853 -1.2704  1.7456
 7233SOL     OW37118   1.244   2.316   3.048  0.4267  0.5092 -0.0521
 7233SOL    HW137119   1.305   2.387   3.025  1.6741 -0.5832 -0.1762
 7233SOL    HW237120   1.301   2.242   3.069 -0.8144 -0.0256  1.5464
 7234SOL     OW37121   3.737   3.616  11.264 -0.0776  0.3339 -0.0135
 7234SOL    HW137122   3.699   3.587  11.347  0.2150  0.9425  0.3339
 7234SOL    HW237123   3.710   3.549  11.201 -1.5749  0.6544  0.2609
 7235SOL     OW37124   3.757   1.531  12.202  0.2378  0.0621 -0.1299
 7235SOL    HW137125   3.711   1.597  12.255 -1.0060 -0.9498  0.0799
 7235SOL    HW237126   3.693   1.504  12.137  1.5524  0.8090 -1.7565
 7236SOL     OW37127   1.864   1.294   1.696 -0.6483 -0.6560 -0.1240
 7236SOL    HW137128   1.920   1.300   1.619 -1.0217 -0.8741 -0.4161
 7236SOL    HW237129   1.844   1.384   1.719 -0.4841 -0.5887 -0.2437
 7237SOL     OW37130   4.769   5.146   2.512  0.4674 -0.7307  0.0356
 7237SOL    HW137131   4.767   5.242   2.508 -0.7082 -0.7928 -1.2583
 7237SOL    HW237132   4.748   5.118   2.423  2.0164 -2.1922  0.0897
 7238SOL     OW37133   0.360   4.150   3.467  0.6864  0.3625  0.1149
 7238SOL    HW137134   0.313   4.222   3.508 -1.2131 -0.8517  0.0948
 7238SOL    HW237135   0.426   4.193   3.411 -1.5989  2.1270 -1.2990
 7239SOL     OW37136   1.994   5.541   1.875 -0.6466  0.0205  0.2284
 7239SOL    HW137137   1.951   5.606   1.931  0.8784  0.4069  0.9889
 7239SOL    HW237138   1.948   5.459   1.893 -0.8238  0.3490  1.3084
 7240SOL     OW37139   3.825   4.362   1.868 -0.3335 -0.4317  0.4969
 7240SOL    HW137140   3.811   4.429   1.801 -1.2953  0.6707  1.7761
 7240SOL    HW237141   3.755   4.298   1.852 -0.6070 -0.1333  0.4825
 7241SOL     OW37142   3.561   0.012  11.759 -0.1689  0.9415 -0.0289
 7241SOL    HW137143   3.609   0.049  11.832  0.3561  0.0939  0.0614
 7241SOL    HW237144   3.481  -0.024  11.798  1.1733 -1.5854  0.5135
 7242SOL     OW37145   5.427   4.123   9.662  0.0904 -0.0199  0.2907
 7242SOL    HW137146   5.404   4.210   9.696 -0.4403 -0.1946  0.3826
 7242SOL    HW237147   5.350   4.070   9.680  0.4896 -0.5619  0.4098
 7243SOL     OW37148   5.583   1.085   3.311 -0.6201 -0.4573 -0.4793
 7243SOL    HW137149   5.584   1.135   3.393 -1.0469  1.5083 -1.6404
 7243SOL    HW237150   5.492   1.057   3.300 -0.8330  0.3963 -0.9307
 7244SOL     OW37151   0.888   5.779  10.254 -0.1761  0.6346  0.1630
 7244SOL    HW137152   0.821   5.770  10.321  0.8006 -0.4105  1.0303
 7244SOL    HW237153   0.840   5.787  10.171 -1.3564  0.1097  0.7946
 7245SOL     OW37154   2.625   5.114   7.613 -0.2183 -0.1477  0.0280
 7245SOL    HW137155   2.585   5.198   7.634  0.1544 -0.0372  0.2991
 7245SOL    HW237156   2.716   5.134   7.594  0.6723 -0.8604  3.2099
 7246SOL     OW37157   4.319   5.674  11.528  0.0575  0.0613  0.3341
 7246SOL    HW137158   4.252   5.610  11.551 -0.5690  0.4665 -0.3305
 7246SOL    HW237159   4.282   5.759  11.553  0.6026  0.2279  0.5949
 7247SOL     OW37160   2.862   3.454   8.425 -0.4732  0.2657 -0.0415
 7247SOL    HW137161   2.857   3.369   8.470 -0.4187 -0.1108 -0.7387
 7247SOL    HW237162   2.790   3.451   8.362 -0.6349  0.8475  0.1175
 7248SOL     OW37163   0.091   3.955   1.363  0.3303  0.1084  0.2356
 7248SOL    HW137164   0.072   4.017   1.293  0.5234 -0.3521 -0.2309
 7248SOL    HW237165   0.005   3.930   1.398  0.0354 -1.8928 -1.7944
 7249SOL     OW37166   4.143   2.532   2.493 -0.2623  0.3139  0.5687
 7249SOL    HW137167   4.179   2.521   2.406 -0.9761  0.6923  0.2197
 7249SOL    HW237168   4.098   2.617   2.490 -0.5508  0.1894  1.2088
 7250SOL     OW37169   3.484   1.772   0.046  0.2181 -0.0361 -0.1759
 7250SOL    HW137170   3.483   1.677   0.063  1.0451  0.4981  3.2945
 7250SOL    HW237171   3.398   1.802   0.076  1.1325  0.7232  1.8083
 7251SOL     OW37172   4.713   2.031   9.495  0.0086  0.6485 -0.4553
 7251SOL    HW137173   4.621   2.049   9.516 -0.1766  0.1552 -0.8150
 7251SOL    HW237174   4.740   2.104   9.440  0.2529  1.5198  0.8090
 7252SOL     OW37175   3.131   2.975  11.613  0.4382  0.0903 -0.1733
 7252SOL    HW137176   3.177   3.057  11.595  0.7149 -0.0441 -0.0917
 7252SOL    HW237177   3.043   2.989  11.579 -0.8567  1.9769  3.5870
 7253SOL     OW37178   1.654   5.136   8.621 -0.3254  0.1263  0.2858
 7253SOL    HW137179   1.602   5.077   8.677 -1.4297  2.3209  1.6377
 7253SOL    HW237180   1.671   5.212   8.676  1.8509  0.7138 -1.1479
 7254SOL     OW37181   4.918   3.440   8.917  0.3177  0.6943  0.1693
 7254SOL    HW137182   4.907   3.368   8.980  1.4512 -0.1105 -0.5196
 7254SOL    HW237183   4.957   3.511   8.968 -0.7044  0.7881  0.8320
 7255SOL     OW37184   3.374   4.387   1.051  0.0386  0.2662 -0.5827
 7255SOL    HW137185   3.361   4.472   1.009  0.9008  0.4027 -0.5761
 7255SOL    HW237186   3.408   4.331   0.981 -0.9357 -0.1970 -0.7003
 7256SOL     OW37187   0.632   5.147  10.843  0.0862 -0.7054 -0.0004
 7256SOL    HW137188   0.597   5.059  10.852 -1.0771 -0.1652  0.8094
 7256SOL    HW237189   0.562   5.205  10.874  1.6577  0.3956  1.5533
 7257SOL     OW37190   2.304   5.116   1.141  0.0200 -0.4832  0.3675
 7257SOL    HW137191   2.280   5.048   1.204  0.0128 -0.3838  0.4721
 7257SOL    HW237192   2.221   5.151   1.110  0.0313 -0.1177  0.7495
 7258SOL     OW37193   4.845   2.606   8.429  0.7220 -0.3331 -0.3969
 7258SOL    HW137194   4.870   2.574   8.342  0.3108 -0.0165 -0.6298
 7258SOL    HW237195   4.771   2.664   8.413  1.6645  1.0007 -0.0097
 7259SOL     OW37196   0.833   5.753  12.404 -0.6158 -0.3168 -0.1740
 7259SOL    HW137197   0.879   5.835  12.422  0.3602 -0.5193 -1.6117
 7259SOL    HW237198   0.785   5.770  12.322 -0.7050 -1.0519 -0.2825
 7260SOL     OW37199   2.892   1.445   9.546 -0.2998  0.3680  0.1439
 7260SOL    HW137200   2.929   1.526   9.580 -0.2996  0.2216  0.4984
 7260SOL    HW237201   2.902   1.382   9.618  1.8980 -0.6043 -0.9748
 7261SOL     OW37202   2.586   5.586   1.734 -0.0707 -0.4579  0.2101
 7261SOL    HW137203   2.499   5.620   1.752 -0.2712 -1.5270  1.3474
 7261SOL    HW237204   2.571   5.495   1.707  0.5263 -0.0006 -1.7141
 7262SOL     OW37205   0.873   3.706   1.863  0.5621 -0.0489  0.2951
 7262SOL    HW137206   0.843   3.756   1.787 -0.2439  0.0350  0.6608
 7262SOL    HW237207   0.908   3.771   1.923 -1.0522  0.1609  1.0364
 7263SOL     OW37208   3.373   2.786   8.970 -0.0602  0.1626 -0.7122
 7263SOL    HW137209   3.292   2.835   8.957  0.1895  0.3046 -1.8680
 7263SOL    HW237210   3.421   2.796   8.887  1.0625 -0.0550 -0.1120
 7264SOL     OW37211   4.972   0.855   1.873 -0.2585  0.5171  0.2386
 7264SOL    HW137212   5.052   0.902   1.853  0.5289 -0.2749  1.4283
 7264SOL    HW237213   4.982   0.829   1.965 -2.6877  2.0302  0.9964
 7265SOL     OW37214   2.226   4.867   9.924 -0.3126 -0.1346  0.2042
 7265SOL    HW137215   2.197   4.807   9.855 -1.4233 -0.3043  0.8065
 7265SOL    HW237216   2.264   4.810   9.991  2.1188  0.1288 -0.8737
 7266SOL     OW37217   2.307   3.853   8.359  0.1021 -0.0120 -0.1394
 7266SOL    HW137218   2.292   3.830   8.267  0.2227 -3.2935  0.6239
 7266SOL    HW237219   2.229   3.903   8.384  0.1050  0.9880 -2.0054
 7267SOL     OW37220   4.731   5.187   2.878  0.7406 -0.0173 -0.5250
 7267SOL    HW137221   4.694   5.123   2.938  1.3542  0.6995  0.6341
 7267SOL    HW237222   4.673   5.186   2.802 -0.7237 -0.0869  0.5769
 7268SOL     OW37223   3.229   2.364   9.801 -0.0804  0.3402  0.4586
 7268SOL    HW137224   3.167   2.309   9.848  0.4228 -0.5133  0.1377
 7268SOL    HW237225   3.275   2.304   9.742 -0.2744  1.2777 -0.6773
 7269SOL     OW37226   1.213   2.918   3.833  0.5180 -0.3820  0.0810
 7269SOL    HW137227   1.209   2.822   3.833  0.0429 -0.3796 -1.0772
 7269SOL    HW237228   1.276   2.939   3.764 -1.4302  0.1626 -1.6020
 7270SOL     OW37229   5.147   5.908   9.832 -0.8559 -0.0873 -0.0125
 7270SOL    HW137230   5.240   5.895   9.814 -0.6504  0.0734  0.9000
 7270SOL    HW237231   5.106   5.823   9.815 -0.5231 -0.1888 -0.2947
 7271SOL     OW37232   4.875   2.717  11.711 -0.4048 -0.3505  0.2889
 7271SOL    HW137233   4.786   2.746  11.730 -0.6210 -0.3671 -0.6579
 7271SOL    HW237234   4.917   2.793  11.671 -0.5345 -0.8804 -0.8727
 7272SOL     OW37235   1.204   1.875   7.877  0.0373 -0.0582 -0.8018
 7272SOL    HW137236   1.296   1.857   7.856  0.3523  0.9309 -0.3222
 7272SOL    HW237237   1.179   1.805   7.936  0.9426  0.4954  0.2688
 7273SOL     OW37238   0.031   2.033  10.594 -0.5288  0.4792  0.4232
 7273SOL    HW137239   0.019   1.966  10.526  0.4463  0.9904 -0.2519
 7273SOL    HW237240   0.019   1.985  10.676 -2.3741 -0.0118 -0.1122
 7274SOL     OW37241   0.905   4.710   1.109  0.3465 -0.3444  0.0009
 7274SOL    HW137242   0.813   4.693   1.128  0.5002 -0.3359  0.7648
 7274SOL    HW237243   0.941   4.745   1.191  0.6713  1.0719 -0.7317
 7275SOL     OW37244   5.627   3.016  11.825 -0.3736 -0.3329 -0.2467
 7275SOL    HW137245   5.557   3.063  11.869 -0.4625  0.4320 -1.2122
 7275SOL    HW237246   5.694   3.004  11.893 -1.1753 -0.5616  0.5175
 7276SOL     OW37247   1.015   5.593   3.067 -0.0435 -0.4897 -0.3060
 7276SOL    HW137248   0.970   5.632   3.142 -0.3046  0.0315 -0.7244
 7276SOL    HW237249   0.994   5.500   3.071  0.4921 -0.5748  0.6470
 7277SOL     OW37250   2.794   3.106  11.657  0.4451 -0.7184  0.0740
 7277SOL    HW137251   2.823   3.049  11.729  0.4190  0.9408  1.4234
 7277SOL    HW237252   2.822   3.060  11.578  0.2369 -2.7131  1.1208
 7278SOL     OW37253   5.190   1.633  10.879  0.1523 -0.4089 -0.5109
 7278SOL    HW137254   5.233   1.609  10.797 -0.7952  0.0696 -1.1613
 7278SOL    HW237255   5.222   1.721  10.899  0.9602 -0.8204  0.0383
 7279SOL     OW37256   3.162   3.396   0.199  0.5855  0.3997  0.4533
 7279SOL    HW137257   3.220   3.342   0.253  1.0445  2.3435  1.9289
 7279SOL    HW237258   3.083   3.407   0.252 -0.4077 -0.6099 -0.7565
 7280SOL     OW37259   5.167   0.217  11.662  0.4152 -0.2538 -0.1163
 7280SOL    HW137260   5.212   0.152  11.716 -0.9754 -0.6080  0.6310
 7280SOL    HW237261   5.152   0.291  11.721 -1.2354 -0.6956  0.0155
 7281SOL     OW37262   5.499   5.877   9.970  0.3694 -0.2992  0.2615
 7281SOL    HW137263   5.560   5.938   9.927 -0.4734 -0.2694 -0.9045
 7281SOL    HW237264   5.464   5.824   9.899 -1.5865  0.2125  0.8174
 7282SOL     OW37265   2.633   2.642   1.827 -0.1780 -0.3307 -0.0458
 7282SOL    HW137266   2.593   2.672   1.909 -1.7408 -0.1327 -0.8742
 7282SOL    HW237267   2.653   2.550   1.842  3.8047  0.7751  2.2044
 7283SOL     OW37268   5.876   3.342   2.310  0.0108 -0.2792  0.2485
 7283SOL    HW137269   5.906   3.366   2.222 -0.3747 -4.4900 -1.1217
 7283SOL    HW237270   5.953   3.303   2.351  0.0702  1.2860  1.7167
 7284SOL     OW37271   0.329   4.886   3.420  0.3500 -0.1759 -0.3198
 7284SOL    HW137272   0.254   4.928   3.461 -1.0805 -0.1736 -2.8782
 7284SOL    HW237273   0.399   4.951   3.424 -0.7846  1.0853 -1.0106
 7285SOL     OW37274   3.179   1.390   0.130 -0.2919 -0.3122 -0.4612
 7285SOL    HW137275   3.225   1.438   0.199  1.4319 -1.2684 -0.8967
 7285SOL    HW237276   3.124   1.327   0.176  2.0466 -2.0348  0.0852
 7286SOL     OW37277   1.976   1.199  10.679 -0.4044 -0.1987  0.0042
 7286SOL    HW137278   2.025   1.252  10.616  0.6322 -3.5095 -2.1109
 7286SOL    HW237279   1.890   1.239  10.683  0.7343  2.4152 -0.4829
 7287SOL     OW37280   4.086   2.297   9.274  0.2134 -0.2477  0.5937
 7287SOL    HW137281   4.042   2.246   9.206  0.6672 -0.7107  0.6448
 7287SOL    HW237282   4.178   2.296   9.249  0.0854  1.5060 -0.0119
 7288SOL     OW37283   1.373   1.871   2.164  0.6224 -0.1305 -0.1235
 7288SOL    HW137284   1.426   1.812   2.218  0.5040 -0.8134 -0.7443
 7288SOL    HW237285   1.372   1.953   2.212  2.9824  0.1724 -0.5034
 7289SOL     OW37286   5.089   2.064   9.075  0.7027 -0.3828  0.2223
 7289SOL    HW137287   5.124   1.988   9.029 -1.6377  0.4123 -3.0941
 7289SOL    HW237288   5.121   2.139   9.024 -2.4717  0.5012 -0.5826
 7290SOL     OW37289   5.841   4.946  11.633  0.3717 -0.2195  0.5819
 7290SOL    HW137290   5.923   4.919  11.591  1.5642 -0.2155  2.8024
 7290SOL    HW237291   5.841   5.042  11.626 -0.0325 -0.2914 -0.4589
 7291SOL     OW37292   2.741   3.948   2.000  0.2296 -0.1264 -0.4354
 7291SOL    HW137293   2.709   3.870   1.955  1.9875 -0.1842 -1.6302
 7291SOL    HW237294   2.673   4.014   1.984 -0.7952 -1.1176 -0.2511
 7292SOL     OW37295   4.975   5.514   2.142 -0.1283 -0.0163  0.4148
 7292SOL    HW137296   4.976   5.437   2.199 -0.8604 -1.0460 -0.9473
 7292SOL    HW237297   4.901   5.565   2.173 -1.9634 -1.7082 -1.0754
 7293SOL     OW37298   2.796   1.927   1.474  0.8993  0.6869  0.3015
 7293SOL    HW137299   2.747   2.008   1.487  0.2966  0.1059  1.6918
 7293SOL    HW237300   2.887   1.952   1.491  0.5726  0.8110  1.9501
 7294SOL     OW37301   1.022   4.520   1.699 -0.1478  0.0709 -0.5163
 7294SOL    HW137302   0.960   4.512   1.626  0.2830  2.5648 -1.2209
 7294SOL    HW237303   0.975   4.571   1.764  0.7291  0.9706 -0.5701
 7295SOL     OW37304   2.121   1.705   2.651 -0.5295  0.3370  0.4110
 7295SOL    HW137305   2.070   1.639   2.604  0.6321 -0.0524 -0.3419
 7295SOL    HW237306   2.065   1.782   2.653 -2.1368 -0.8406  1.8003
 7296SOL     OW37307   2.317   3.461  11.070 -0.0966 -0.3047 -0.1307
 7296SOL    HW137308   2.236   3.450  11.020 -0.1594  1.1527 -0.3772
 7296SOL    HW237309   2.323   3.382  11.123 -0.7736 -1.2302 -1.3945
 7297SOL     OW37310   4.851   3.181  11.211 -0.2490 -0.0201 -0.5082
 7297SOL    HW137311   4.884   3.245  11.148 -2.1373  1.7274  0.2316
 7297SOL    HW237312   4.821   3.108  11.158  0.5917  0.3036 -1.4439
 7298SOL     OW37313   0.794   5.698   0.398  0.1528  0.0173 -0.0424
 7298SOL    HW137314   0.889   5.688   0.394  0.3819  1.3173  1.5079
 7298SOL    HW237315   0.761   5.650   0.322  2.1716  1.0814 -1.6423
 7299SOL     OW37316   3.128   4.059  10.050  0.1769  0.2022 -0.3475
 7299SOL    HW137317   3.052   4.020  10.093  0.7706 -1.4220 -0.7478
 7299SOL    HW237318   3.130   4.149  10.083 -1.2419 -0.0754  0.5504
 7300SOL     OW37319   0.982   3.019  11.230  0.6385 -0.5984  0.1021
 7300SOL    HW137320   1.020   3.049  11.147  2.1291 -1.5538  0.4289
 7300SOL    HW237321   1.057   2.997  11.285 -0.3443 -0.1977  1.6396
 7301SOL     OW37322   3.667   0.208  10.907  0.1274 -0.3120 -0.1798
 7301SOL    HW137323   3.616   0.187  10.829 -1.4064  2.0446  0.1622
 7301SOL    HW237324   3.758   0.199  10.879 -0.3954  0.6899 -2.3074
 7302SOL     OW37325   2.662   5.752   3.527  0.4274 -0.2915 -0.1508
 7302SOL    HW137326   2.665   5.755   3.623  0.0962  0.7924 -0.1662
 7302SOL    HW237327   2.716   5.825   3.499 -2.0258  1.3850 -0.7374
 7303SOL     OW37328   5.728   3.200  10.091  0.1247 -0.2412  0.3495
 7303SOL    HW137329   5.711   3.178  10.183 -0.9072 -0.9200  0.0053
 7303SOL    HW237330   5.642   3.191  10.049  0.6610 -0.2385 -0.7432
 7304SOL     OW37331   1.907   4.624   1.427  0.1149 -0.4450  0.5935
 7304SOL    HW137332   1.872   4.692   1.369 -2.3952 -1.4713  0.7971
 7304SOL    HW237333   1.883   4.653   1.515  0.3789 -0.8245  0.7921
 7305SOL     OW37334   3.204   4.507  11.693  0.0865  0.0575 -0.2811
 7305SOL    HW137335   3.156   4.590  11.685 -0.7173 -0.5524 -2.0326
 7305SOL    HW237336   3.214   4.476  11.603  1.8917 -0.9134  0.2320
 7306SOL     OW37337   0.025   5.583  11.449  0.0997 -0.6078 -0.0752
 7306SOL    HW137338  -0.021   5.580  11.366 -1.3022  1.9894  0.5573
 7306SOL    HW237339   0.115   5.608  11.426 -0.7876  2.1728 -0.6848
 7307SOL     OW37340   2.421   0.338   1.962  0.1484 -0.0907 -0.1929
 7307SOL    HW137341   2.469   0.308   1.885 -3.1449 -0.9621 -2.0034
 7307SOL    HW237342   2.462   0.422   1.984 -0.1114  1.2158 -4.1898
 7308SOL     OW37343   5.802   4.670   1.352 -0.1050 -0.4319 -0.1598
 7308SOL    HW137344   5.711   4.641   1.355 -0.0687 -0.8054 -1.9497
 7308SOL    HW237345   5.851   4.592   1.325  0.8201 -0.3690  1.2892
 7309SOL     OW37346   3.458   5.697  11.624  0.2573  0.2108  0.2601
 7309SOL    HW137347   3.398   5.753  11.575  1.5417 -0.2718 -1.9164
 7309SOL    HW237348   3.544   5.736  11.610  1.0096 -1.5923 -0.2261
 7310SOL     OW37349   2.056   3.408  10.971  0.1349  0.1480  0.3364
 7310SOL    HW137350   1.971   3.369  10.990  0.0964  0.1373  0.1511
 7310SOL    HW237351   2.085   3.364  10.891 -0.8216  1.9038 -1.0260
 7311SOL     OW37352   4.358   4.858   9.764  0.3001 -0.1250 -0.3176
 7311SOL    HW137353   4.309   4.933   9.728 -0.0582  0.3062  1.0312
 7311SOL    HW237354   4.425   4.898   9.820  1.5569 -0.7539 -1.3463
 7312SOL     OW37355   3.038   2.651   9.001  0.2557  0.2205  0.7401
 7312SOL    HW137356   3.079   2.701   9.072  1.2896 -0.7363  0.8229
 7312SOL    HW237357   2.945   2.651   9.024  0.5377  0.1746  1.9529
 7313SOL     OW37358   2.039   0.556   9.951  1.1683 -0.4994  0.1956
 7313SOL    HW137359   1.998   0.477   9.986  0.7255 -0.4471 -0.1963
 7313SOL    HW237360   1.981   0.627   9.977  0.0192 -0.6133 -1.8843
 7314SOL     OW37361   1.570   3.713  11.806  0.4143 -0.2374 -0.5054
 7314SOL    HW137362   1.593   3.657  11.881 -0.6673 -1.3288 -0.9699
 7314SOL    HW237363   1.654   3.740  11.769  0.9652  0.2803  1.0714
 7315SOL     OW37364   3.466   3.656   9.553 -0.3119 -0.2486  0.3598
 7315SOL    HW137365   3.512   3.707   9.486  1.0620 -2.3578 -0.3736
 7315SOL    HW237366   3.409   3.598   9.503 -1.1987 -0.0523  1.1453
 7316SOL     OW37367   1.022   3.576  10.301 -0.0390 -0.5406 -0.0170
 7316SOL    HW137368   1.076   3.653  10.286  0.5737 -0.9787 -0.0965
 7316SOL    HW237369   0.978   3.593  10.384 -0.4343  0.1890 -0.3706
 7317SOL     OW37370   3.839   1.522  11.228 -0.2648  0.3829  0.2233
 7317SOL    HW137371   3.777   1.526  11.301  1.4169  1.0337  1.6374
 7317SOL    HW237372   3.920   1.558  11.263  0.8508 -0.2068 -1.6857
 7318SOL     OW37373   2.956   3.055  11.203  0.5995  0.1042 -0.1566
 7318SOL    HW137374   2.941   3.026  11.113  0.8552 -4.2138  1.0520
 7318SOL    HW237375   2.877   3.102  11.227 -0.6570 -1.1386 -1.7380
 7319SOL     OW37376   0.974   2.873   4.082 -0.3631 -0.1235  0.2719
 7319SOL    HW137377   1.068   2.891   4.089 -0.8299  2.5492  0.3909
 7319SOL    HW237378   0.968   2.779   4.070  2.3356 -0.3430  0.3606
 7320SOL     OW37379   5.676   3.162   2.870  0.4009 -0.0501  0.2358
 7320SOL    HW137380   5.608   3.147   2.936  0.6020 -0.8458  0.2717
 7320SOL    HW237381   5.642   3.233   2.816 -0.3700 -0.3011  0.3790
 7321SOL     OW37382   3.680   1.755  10.427 -0.0019  0.2922  0.1657
 7321SOL    HW137383   3.644   1.818  10.489 -0.4779  0.0278  0.1632
 7321SOL    HW237384   3.715   1.684  10.481 -1.5965 -0.5610  0.0900
 7322SOL     OW37385   1.670   3.001  12.074  0.2302 -0.0935  0.2147
 7322SOL    HW137386   1.743   2.940  12.064 -0.8911 -1.5411  0.7154
 7322SOL    HW237387   1.685   3.042  12.160  0.6296 -0.1361  0.1659
 7323SOL     OW37388   5.277   3.874   2.813 -0.7037  0.5083  0.3246
 7323SOL    HW137389   5.193   3.839   2.843 -0.5989  0.8420  1.0320
 7323SOL    HW237390   5.337   3.855   2.886 -0.1711  0.2823 -0.1723
 7324SOL     OW37391   4.330   4.204   2.951  0.3275  0.2364  0.3484
 7324SOL    HW137392   4.289   4.274   3.003 -3.3191 -1.4966  0.0197
 7324SOL    HW237393   4.402   4.247   2.906 -1.5050  3.7050  0.4898
 7325SOL     OW37394   0.535   0.538   1.280 -0.4133 -0.5088 -0.0802
 7325SOL    HW137395   0.544   0.587   1.362 -1.2680  1.8513 -1.3465
 7325SOL    HW237396   0.600   0.577   1.222 -3.3406  1.5126 -2.1771
 7326SOL     OW37397   1.911   5.869   3.069  0.6302 -0.0970 -0.3623
 7326SOL    HW137398   1.983   5.820   3.107 -0.6958 -2.3945 -0.7522
 7326SOL    HW237399   1.919   5.856   2.975 -1.6269 -2.3286 -0.2826
 7327SOL     OW37400   4.992   4.467   1.325 -0.2601  0.3597  0.3942
 7327SOL    HW137401   4.908   4.421   1.334  0.1807 -0.4627  0.4122
 7327SOL    HW237402   5.042   4.440   1.402 -0.1906  1.3105  0.6860
 7328SOL     OW37403   1.063   3.382   1.284 -0.3226 -0.2743  0.2548
 7328SOL    HW137404   1.104   3.327   1.217  1.1712  0.9803  0.0909
 7328SOL    HW237405   0.977   3.404   1.249  0.5725  0.6434 -1.4176
 7329SOL     OW37406   1.751   3.015  10.161  0.2072 -0.4389  0.0137
 7329SOL    HW137407   1.846   3.024  10.173 -0.0525  1.6000  0.8505
 7329SOL    HW237408   1.734   2.922  10.172  1.9525 -0.6499  1.1847
 7330SOL     OW37409   2.203   4.285   0.151  0.3421 -0.6437  0.7630
 7330SOL    HW137410   2.295   4.261   0.166  1.2479  1.3722 -1.3396
 7330SOL    HW237411   2.180   4.339   0.227  1.9094  1.4983 -0.2351
 7331SOL     OW37412   4.598   1.600   8.142  0.0707  0.5856 -0.0884
 7331SOL    HW137413   4.570   1.518   8.183  0.2946  0.5055 -0.0960
 7331SOL    HW237414   4.598   1.581   8.049  0.5724  0.4556 -0.0626
 7332SOL     OW37415   0.023   1.165  12.404  0.0145 -0.6366 -0.2660
 7332SOL    HW137416  -0.063   1.123  12.405  0.2415 -1.0944  1.6826
 7332SOL    HW237417   0.085   1.095  12.422  0.8333 -0.3250 -1.7285
 7333SOL     OW37418   3.892   5.938   8.049 -0.5118  0.0272 -0.1660
 7333SOL    HW137419   3.910   6.017   7.998  1.2665 -1.1352 -1.4111
 7333SOL    HW237420   3.837   5.884   7.992 -2.5212  0.7249  1.0463
 7334SOL     OW37421   1.765   0.408  10.965  0.4365  0.0291  0.1440
 7334SOL    HW137422   1.771   0.430  10.872 -0.0153 -1.2108 -0.1967
 7334SOL    HW237423   1.778   0.490  11.011 -0.1552  0.7981 -1.0440
 7335SOL     OW37424   0.277   5.210   3.328  0.0300  0.1894  0.0053
 7335SOL    HW137425   0.218   5.154   3.378  0.0541  0.9819  0.9379
 7335SOL    HW237426   0.291   5.286   3.384 -1.7969  2.1915 -2.1998
 7336SOL     OW37427   5.081   3.708   0.261 -0.3863  0.2789 -0.4164
 7336SOL    HW137428   5.113   3.714   0.351 -2.0147 -0.5272  0.2217
 7336SOL    HW237429   5.113   3.623   0.230  1.6513  1.2839 -1.2168
 7337SOL     OW37430   3.232   4.272   4.122  0.2080  0.0003  0.1982
 7337SOL    HW137431   3.224   4.178   4.142 -1.2124  0.5083  2.1222
 7337SOL    HW237432   3.278   4.274   4.038  0.0900 -2.4275  0.0277
 7338SOL     OW37433   3.976   0.721   1.249 -0.3877  0.3155 -0.1459
 7338SOL    HW137434   3.881   0.720   1.262 -0.4860  1.4278 -0.7195
 7338SOL    HW237435   3.988   0.753   1.160  0.4335 -2.9271 -1.3004
 7339SOL     OW37436   5.844   0.272   1.316 -0.7433 -0.4260 -0.4517
 7339SOL    HW137437   5.807   0.355   1.347 -0.1148 -0.3347  0.0693
 7339SOL    HW237438   5.937   0.279   1.335 -0.6572 -1.1738 -0.5856
 7340SOL     OW37439   1.878   0.805   3.507 -0.5026  0.2896 -0.6812
 7340SOL    HW137440   1.852   0.845   3.590 -2.6557 -2.4340  0.0236
 7340SOL    HW237441   1.838   0.861   3.440 -1.6739  0.5258  0.2057
 7341SOL     OW37442   0.737   4.225   9.734  0.0768 -0.1429  0.2076
 7341SOL    HW137443   0.719   4.135   9.708  2.0169 -0.0755 -1.4449
 7341SOL    HW237444   0.813   4.251   9.683  1.6587  1.3066  3.1586
 7342SOL     OW37445   2.493   3.068   2.133 -0.0753  0.1065 -0.2206
 7342SOL    HW137446   2.538   3.001   2.184 -1.0663 -0.3400  0.0920
 7342SOL    HW237447   2.525   3.151   2.169  1.8036 -0.1719 -1.1884
 7343SOL     OW37448   5.232   5.955   2.455 -0.3151  0.3142 -0.2378
 7343SOL    HW137449   5.142   5.924   2.466 -0.8363  1.1033 -2.1628
 7343SOL    HW237450   5.266   5.904   2.382  1.1808 -0.7405  1.1600
 7344SOL     OW37451   1.051   3.808   9.955 -0.2048  0.1733  0.1902
 7344SOL    HW137452   1.041   3.854   9.872 -2.6361 -0.8168 -0.1088
 7344SOL    HW237453   1.038   3.877  10.021  3.7818  1.3801 -0.1650
 7345SOL     OW37454   2.057   2.906   0.896 -0.3872  0.3392 -0.2246
 7345SOL    HW137455   2.152   2.896   0.910 -0.8810 -1.7635  1.9101
 7345SOL    HW237456   2.032   2.976   0.956 -0.2673  0.5640 -0.4350
 7346SOL     OW37457   0.106   2.127   1.276  0.2307  0.5189 -0.5826
 7346SOL    HW137458   0.020   2.140   1.317  0.1307 -0.0043 -0.6173
 7346SOL    HW237459   0.159   2.200   1.307 -0.0516  0.5161 -0.0832
 7347SOL     OW37460   5.531   3.758   1.537  0.5997 -0.6954 -0.1248
 7347SOL    HW137461   5.477   3.680   1.546 -1.1629  0.3837 -0.9622
 7347SOL    HW237462   5.469   3.826   1.508  2.1372  0.9293  0.3454
 7348SOL     OW37463   1.890   2.901  12.470  0.2849  0.5725  0.4773
 7348SOL    HW137464   1.921   2.943  12.550  1.0669  1.0482 -0.0701
 7348SOL    HW237465   1.961   2.914  12.407  0.2290 -0.9699  0.0960
 7349SOL     OW37466   3.405   5.471  10.850  0.1644 -0.3296 -0.1113
 7349SOL    HW137467   3.361   5.439  10.772  0.5542 -1.9913  0.3408
 7349SOL    HW237468   3.484   5.514  10.817 -0.0047 -0.4455 -0.6737
 7350SOL     OW37469   3.957   1.926  11.158  0.4090  0.1526  0.3377
 7350SOL    HW137470   3.882   1.955  11.210  0.8160 -0.4027  1.2607
 7350SOL    HW237471   4.030   1.978  11.192  0.3648  0.9930 -0.8449
 7351SOL     OW37472   4.250   0.464  11.263  0.2873  0.0227  0.1634
 7351SOL    HW137473   4.255   0.556  11.289 -0.4805  0.3315 -0.7470
 7351SOL    HW237474   4.180   0.462  11.198  0.1774 -1.2433  0.3235
 7352SOL     OW37475   4.536   4.345  11.199  0.6402 -0.1123  0.0808
 7352SOL    HW137476   4.627   4.328  11.175 -0.2029 -1.7373 -2.1762
 7352SOL    HW237477   4.515   4.275  11.261  0.4459 -0.7612 -0.7027
 7353SOL     OW37478   4.534   1.382   2.216 -0.2834  0.4100 -0.4003
 7353SOL    HW137479   4.602   1.315   2.220 -0.0099  0.6246 -1.4734
 7353SOL    HW237480   4.454   1.334   2.193 -0.5074  0.1579  0.8562
 7354SOL     OW37481   2.845   0.210   2.312 -0.5657  0.2591 -0.2048
 7354SOL    HW137482   2.780   0.193   2.244 -0.0877  2.3104 -1.2422
 7354SOL    HW237483   2.821   0.296   2.346  0.8677  0.4787  0.2667
 7355SOL     OW37484   0.815   3.627  11.063 -0.1421 -0.3716 -0.5301
 7355SOL    HW137485   0.866   3.604  10.985 -0.6569 -0.2102 -0.9192
 7355SOL    HW237486   0.785   3.716  11.046 -1.7724 -0.9922 -0.9601
 7356SOL     OW37487   3.264   0.594  10.301 -0.0975  0.1492 -0.3112
 7356SOL    HW137488   3.342   0.606  10.356 -0.7214  3.7957 -0.0946
 7356SOL    HW237489   3.193   0.579  10.363 -0.4022  1.9452 -0.1912
 7357SOL     OW37490   5.705   2.780   3.419  0.2885  0.2695 -0.2181
 7357SOL    HW137491   5.759   2.766   3.341 -0.2520 -2.2371 -0.1796
 7357SOL    HW237492   5.615   2.776   3.387  0.0552  2.5103  0.0410
 7358SOL     OW37493   1.998   5.850   7.968 -0.4826  0.4983 -0.2841
 7358SOL    HW137494   1.913   5.862   7.926 -0.1626  0.3155 -0.9837
 7358SOL    HW237495   2.049   5.799   7.905  0.9404  2.5974 -0.8526
 7359SOL     OW37496   5.064   2.487   3.729 -0.0889  0.4468  0.0124
 7359SOL    HW137497   5.056   2.451   3.641 -2.8976  1.9008 -0.4131
 7359SOL    HW237498   5.060   2.582   3.716 -0.3254  0.6771  1.6915
 7360SOL     OW37499   2.616   5.810   9.437 -0.0726  0.4312  0.0037
 7360SOL    HW137500   2.654   5.764   9.362  0.9152  1.8577 -0.3726
 7360SOL    HW237501   2.566   5.742   9.483  0.7875 -0.8636 -0.9341
 7361SOL     OW37502   1.470   1.504   9.631  0.0552 -0.4253  0.6060
 7361SOL    HW137503   1.559   1.489   9.599  0.6218  2.8368  0.5199
 7361SOL    HW237504   1.475   1.484   9.725  1.5346  2.0527  1.1052
 7362SOL     OW37505   4.262   5.012  10.017  0.2138 -0.8644 -0.7146
 7362SOL    HW137506   4.269   5.102   9.985  0.6101  0.4843  2.9714
 7362SOL    HW237507   4.353   4.986  10.036  0.0209 -1.7605 -0.9708
 7363SOL     OW37508   2.897   2.741   2.177 -1.0557 -0.2756  0.4598
 7363SOL    HW137509   2.822   2.718   2.231 -1.7630 -0.3516 -0.5259
 7363SOL    HW237510   2.938   2.657   2.155 -0.6064 -0.2266  1.0985
 7364SOL     OW37511   3.624   0.667   7.577  0.0687 -0.4390  0.1185
 7364SOL    HW137512   3.688   0.738   7.572 -0.4308  0.0366  0.4152
 7364SOL    HW237513   3.552   0.695   7.522 -0.9032  0.0993  1.6286
 7365SOL     OW37514   4.776   4.308   9.597  0.0746 -0.4496  0.3602
 7365SOL    HW137515   4.787   4.391   9.552  1.2575 -0.2586  0.9834
 7365SOL    HW237516   4.734   4.251   9.532  2.5208 -0.4272 -1.2994
 7366SOL     OW37517   1.879   0.881  12.271 -0.4981  0.2396 -0.5685
 7366SOL    HW137518   1.928   0.825  12.211  2.1581  0.2983  1.4643
 7366SOL    HW237519   1.853   0.824  12.343  0.7337  1.1831  0.6701
 7367SOL     OW37520   5.763   2.517   1.212 -0.2532  0.1763  0.4781
 7367SOL    HW137521   5.736   2.509   1.304  1.0649 -0.7602  0.8007
 7367SOL    HW237522   5.857   2.533   1.217 -0.5119  2.1349 -0.6563
 7368SOL     OW37523   2.112   4.996  12.251 -0.4069 -0.5161  0.0295
 7368SOL    HW137524   2.033   4.971  12.298 -1.4648  0.1667 -1.3498
 7368SOL    HW237525   2.169   5.034  12.319 -0.4242 -2.8117  1.3857
 7369SOL     OW37526   0.109   0.394   8.669 -0.3998 -0.1737 -0.0574
 7369SOL    HW137527   0.142   0.452   8.737 -0.0672 -0.3296 -0.0842
 7369SOL    HW237528   0.049   0.335   8.715 -1.9831  1.2066 -0.3124
 7370SOL     OW37529   0.201   0.225   2.135 -0.1269 -0.3788  0.7999
 7370SOL    HW137530   0.115   0.216   2.175 -0.7979 -1.3132 -0.8041
 7370SOL    HW237531   0.187   0.284   2.061  0.9510  0.7817  1.4977
 7371SOL     OW37532   2.851   5.296   8.315  0.3419  0.0203 -0.3554
 7371SOL    HW137533   2.866   5.374   8.368  0.2535  0.3979 -0.8812
 7371SOL    HW237534   2.824   5.329   8.229 -0.2318 -0.5948 -0.4246
 7372SOL     OW37535   3.475   1.253   4.231  0.6205  0.7554  0.2179
 7372SOL    HW137536   3.558   1.271   4.276  0.5535  1.8131 -0.0499
 7372SOL    HW237537   3.462   1.159   4.241  0.7646  0.9242  2.1446
 7373SOL     OW37538   1.997   5.352  10.057 -0.0355  0.6008  0.4789
 7373SOL    HW137539   1.907   5.377  10.035  0.4988  2.4573  0.3315
 7373SOL    HW237540   1.995   5.256  10.059 -1.8083  0.5916 -0.3969
 7374SOL     OW37541   3.012   4.263   8.971 -0.5454  0.6065 -0.0024
 7374SOL    HW137542   3.085   4.309   8.931 -0.2112  0.1284  0.0609
 7374SOL    HW237543   3.035   4.256   9.064 -1.6128  2.2999  0.4163
 7375SOL     OW37544   1.654   3.176   3.298 -0.2386 -0.4083  0.3938
 7375SOL    HW137545   1.719   3.247   3.308  1.8978 -2.4316  1.3295
 7375SOL    HW237546   1.680   3.131   3.218 -0.4993 -1.2583  0.7904
 7376SOL     OW37547   4.686   3.273   8.389 -0.6811  0.5178  0.2626
 7376SOL    HW137548   4.658   3.355   8.430  0.0397  1.6977 -1.5433
 7376SOL    HW237549   4.666   3.284   8.296 -0.5264 -1.3426 -0.0178
 7377SOL     OW37550   3.380   1.868   4.060  0.8124  0.1305  0.4144
 7377SOL    HW137551   3.448   1.830   4.115  0.0034  0.2753  1.5334
 7377SOL    HW237552   3.364   1.801   3.992  2.3065  0.2542 -0.0856
 7378SOL     OW37553   3.033   4.314  12.393  0.5596 -0.5508 -0.4280
 7378SOL    HW137554   3.044   4.228  12.352 -0.3377 -0.9006  0.0441
 7378SOL    HW237555   2.972   4.298  12.465  0.5525  0.4457 -0.2104
 7379SOL     OW37556   5.058   5.007  10.639 -0.2547 -0.0591 -0.1611
 7379SOL    HW137557   4.976   5.019  10.686 -0.0771 -1.7931  0.6558
 7379SOL    HW237558   5.038   4.939  10.574  0.5104 -0.4702  0.0236
 7380SOL     OW37559   5.005   2.887   8.125 -0.2427 -0.0248 -0.3847
 7380SOL    HW137560   5.034   2.870   8.035  1.3297  3.8135 -0.7087
 7380SOL    HW237561   5.085   2.908   8.173 -1.5266  2.9094  0.6289
 7381SOL     OW37562   1.980   1.116   9.042 -0.0312 -0.3492 -0.3679
 7381SOL    HW137563   1.885   1.106   9.053 -0.3543  2.0489 -0.6645
 7381SOL    HW237564   1.989   1.194   8.987  2.1335 -0.1189  0.2785
 7382SOL     OW37565   4.051   4.886  11.183  0.2531 -0.1058 -0.2008
 7382SOL    HW137566   4.070   4.792  11.173  0.7526  0.0850 -1.0982
 7382SOL    HW237567   4.094   4.911  11.265 -0.6988 -0.8717  0.5510
 7383SOL     OW37568   0.085   0.153   9.980 -0.1633  0.3807  0.1401
 7383SOL    HW137569   0.077   0.187   9.891  0.7202  1.2247  0.3806
 7383SOL    HW237570   0.004   0.180  10.024 -0.9541 -0.7100 -0.6220
 7384SOL     OW37571   4.353   3.893   9.417  0.0774 -0.5264 -0.1696
 7384SOL    HW137572   4.429   3.920   9.366  0.0381  0.9790  0.5268
 7384SOL    HW237573   4.350   3.798   9.408  1.5172 -0.5146 -0.9240
 7385SOL     OW37574   0.546   4.618   1.753  0.1630 -0.3879  0.1109
 7385SOL    HW137575   0.476   4.577   1.804 -0.1522  0.3693  0.2972
 7385SOL    HW237576   0.504   4.692   1.709  1.0564  0.7078  1.0501
 7386SOL     OW37577   3.048   4.483  12.025 -0.6169  0.2022 -0.2278
 7386SOL    HW137578   3.016   4.473  11.935 -1.3594 -1.1579  0.1789
 7386SOL    HW237579   2.992   4.550  12.063  0.2902  1.4402 -1.0568
 7387SOL     OW37580   0.141   2.502   8.386  1.0869  0.3615 -0.6029
 7387SOL    HW137581   0.122   2.505   8.293 -0.5413 -0.2525 -0.3124
 7387SOL    HW237582   0.214   2.440   8.394 -0.3790 -1.4831 -1.2296
 7388SOL     OW37583   2.214   2.337   0.309  0.5572  0.0668 -0.3659
 7388SOL    HW137584   2.144   2.399   0.290  0.7584  0.4209  0.0375
 7388SOL    HW237585   2.295   2.387   0.295  0.7158  0.1139  0.6900
 7389SOL     OW37586   1.988   1.516   1.105 -0.4721 -0.0939 -0.7476
 7389SOL    HW137587   1.920   1.578   1.130 -1.0310 -0.3520 -1.5941
 7389SOL    HW237588   2.054   1.570   1.062 -1.1020 -0.1155 -1.7682
 7390SOL     OW37589   5.320   4.988  10.400  0.0054 -0.3417  0.2142
 7390SOL    HW137590   5.379   5.062  10.383 -2.2329  1.3199 -0.7130
 7390SOL    HW237591   5.273   5.014  10.479 -0.8630 -0.7099 -0.1759
 7391SOL     OW37592   3.649   5.328  11.162  0.0969 -0.0858 -0.7728
 7391SOL    HW137593   3.711   5.277  11.214 -0.8475  1.3956  1.8897
 7391SOL    HW237594   3.598   5.262  11.115  1.5726 -1.4344 -0.5353
 7392SOL     OW37595   2.893   5.548  11.517 -0.2083  0.2135 -0.4935
 7392SOL    HW137596   2.855   5.487  11.580 -1.9721  0.3601 -1.3730
 7392SOL    HW237597   2.922   5.493  11.445  2.9919 -0.0981  0.9218
 7393SOL     OW37598   4.057   3.055   1.548  0.2814 -0.3186  0.5312
 7393SOL    HW137599   4.069   3.056   1.643  1.1761 -2.1810  0.4555
 7393SOL    HW237600   4.146   3.061   1.513 -0.0541  0.4933 -0.2076
 7394SOL     OW37601   1.108   1.916  10.892  0.6415  0.3623  0.4219
 7394SOL    HW137602   1.132   1.946  10.979  0.8318 -1.6523  1.0944
 7394SOL    HW237603   1.054   1.987  10.855  0.7339  1.3076  2.0816
 7395SOL     OW37604   5.375   1.190  10.949 -0.1915 -0.1653  0.5242
 7395SOL    HW137605   5.331   1.130  10.888 -1.5885  2.0382 -0.7133
 7395SOL    HW237606   5.467   1.185  10.925 -0.2220 -2.0813  0.6951
 7396SOL     OW37607   0.827   4.177   3.422  0.0105 -0.4080 -0.4661
 7396SOL    HW137608   0.843   4.262   3.382  0.8855 -0.7833 -0.9309
 7396SOL    HW237609   0.910   4.155   3.465  0.7592 -2.3297 -2.8020
 7397SOL     OW37610   3.656   4.177   1.703  0.7154  0.4756  0.5485
 7397SOL    HW137611   3.664   4.261   1.657 -0.0555 -0.0370 -0.5566
 7397SOL    HW237612   3.698   4.114   1.645  2.1831  0.2455  1.8436
 7398SOL     OW37613   4.160   1.300   1.761  0.1462  0.0088 -0.4941
 7398SOL    HW137614   4.109   1.326   1.684 -0.5808 -0.4691 -0.1705
 7398SOL    HW237615   4.114   1.340   1.835  1.9924  2.2108 -0.4792
 7399SOL     OW37616   0.873   3.215   0.440  0.2881 -0.3650 -0.9332
 7399SOL    HW137617   0.787   3.193   0.474 -0.9339  0.5715 -3.2986
 7399SOL    HW237618   0.912   3.130   0.418 -0.3136 -0.7512 -0.5238
 7400SOL     OW37619   4.683   0.233   9.181 -0.4354  0.2989  0.0368
 7400SOL    HW137620   4.657   0.279   9.100 -1.2083  1.2114  0.7927
 7400SOL    HW237621   4.779   0.241   9.183 -0.2128 -1.3141 -1.7145
 7401SOL     OW37622   2.512   4.405  11.939  0.2543 -0.1389 -0.1461
 7401SOL    HW137623   2.595   4.430  11.897  0.5255  2.2043  1.6895
 7401SOL    HW237624   2.446   4.460  11.896 -0.1608 -0.9811 -0.6078
 7402SOL     OW37625   5.825   2.926  12.071  0.2956 -0.0961 -0.3287
 7402SOL    HW137626   5.878   2.847  12.060  0.2564 -0.1252 -0.3137
 7402SOL    HW237627   5.873   2.979  12.135  0.5491  0.0936 -0.6702
 7403SOL     OW37628   0.721   4.485   1.622  0.4011  0.2096  0.0413
 7403SOL    HW137629   0.716   4.511   1.530 -0.6850  2.0566  0.5947
 7403SOL    HW237630   0.646   4.527   1.663  0.6399 -0.9375  1.7039
 7404SOL     OW37631   0.542   1.707  11.448  0.0218  0.6257 -0.3474
 7404SOL    HW137632   0.484   1.700  11.524  1.2902 -1.4910  0.4428
 7404SOL    HW237633   0.558   1.801  11.439 -0.7870  0.9596  1.4795
 7405SOL     OW37634   0.349   1.129   0.485 -0.4956 -0.2194 -0.2584
 7405SOL    HW137635   0.370   1.170   0.401  1.6009  0.7078  0.6839
 7405SOL    HW237636   0.375   1.194   0.550 -2.5949 -0.7214  1.1028
 7406SOL     OW37637   0.658   1.402   8.026  0.0511  0.1807  0.3383
 7406SOL    HW137638   0.588   1.381   8.086  0.5393 -0.6439  0.6202
 7406SOL    HW237639   0.648   1.496   8.009 -0.8115  0.1621  0.7534
 7407SOL     OW37640   3.534   4.019   0.400 -0.1764  0.2855  0.0310
 7407SOL    HW137641   3.472   4.079   0.359  0.1424 -0.1142 -1.0560
 7407SOL    HW237642   3.550   3.953   0.334  1.1785  0.2153  0.4222
 7408SOL     OW37643   2.988   2.865   1.648  0.1816  0.2377  0.1784
 7408SOL    HW137644   2.978   2.799   1.581 -0.7017  1.4793 -0.9361
 7408SOL    HW237645   3.027   2.819   1.722  0.3632 -1.3221 -0.8777
 7409SOL     OW37646   3.980   4.529   2.677  0.2071  0.3789 -0.5693
 7409SOL    HW137647   4.011   4.439   2.666  0.1717  0.2204  0.4921
 7409SOL    HW237648   3.900   4.534   2.625 -0.3112 -0.4880  0.1219
 7410SOL     OW37649   3.321   4.729  12.377 -0.6278 -0.0595  0.3026
 7410SOL    HW137650   3.327   4.701  12.469  0.3064 -0.2876  0.1840
 7410SOL    HW237651   3.250   4.677  12.340 -0.2008 -0.8547  0.5851
 7411SOL     OW37652   0.005   2.902   3.136 -0.4150 -0.4779  0.1083
 7411SOL    HW137653   0.085   2.911   3.187 -1.5098 -1.1605  2.0039
 7411SOL    HW237654  -0.057   2.962   3.176 -0.0290  2.2788 -3.2020
 7412SOL     OW37655   4.729   5.435   8.453 -0.1711 -0.0881 -0.0412
 7412SOL    HW137656   4.800   5.389   8.408 -0.9308 -2.2543  0.9051
 7412SOL    HW237657   4.653   5.420   8.397 -0.4356 -0.0619  0.3128
 7413SOL     OW37658   2.205   1.089   8.521 -0.4037 -0.3408  0.5262
 7413SOL    HW137659   2.219   1.133   8.437 -1.3016  1.7829  1.4610
 7413SOL    HW237660   2.215   0.996   8.501  0.7726  0.2231 -1.6509
 7414SOL     OW37661   3.128   3.686   8.714  0.6776  0.0561  0.9002
 7414SOL    HW137662   3.050   3.671   8.767  0.5066 -0.8337  0.4078
 7414SOL    HW237663   3.134   3.609   8.657  1.5265  0.4381  0.4572
 7415SOL     OW37664   3.498   3.640   0.671 -0.9991  0.1444  0.5963
 7415SOL    HW137665   3.480   3.590   0.751  1.0744 -0.5525  0.6520
 7415SOL    HW237666   3.426   3.618   0.612 -1.5932 -0.7261  1.6317
 7416SOL     OW37667   3.935   3.343   0.870  0.2911  0.5425  0.2600
 7416SOL    HW137668   4.028   3.352   0.892  0.5018  1.0883 -0.8216
 7416SOL    HW237669   3.897   3.428   0.891  0.1472  0.5050  0.1493
 7417SOL     OW37670   5.041   3.849   8.898 -0.2467  0.0991 -0.2246
 7417SOL    HW137671   5.066   3.941   8.900 -3.0557  0.9186  0.2071
 7417SOL    HW237672   4.948   3.850   8.872 -0.2306 -2.6250 -0.5673
 7418SOL     OW37673   5.044   4.395  10.447  0.1678  0.6017 -0.2587
 7418SOL    HW137674   5.044   4.310  10.491 -0.3219  0.0957 -1.2141
 7418SOL    HW237675   5.108   4.385  10.376  1.2443  1.5342  0.5629
 7419SOL     OW37676   1.440   2.403   1.548  0.2099 -0.0254  0.4215
 7419SOL    HW137677   1.381   2.475   1.570 -0.0832  0.1797 -0.9656
 7419SOL    HW237678   1.393   2.354   1.480  0.0553 -2.0056  1.9383
 7420SOL     OW37679   3.593   0.271   2.109  0.7188  0.0497  0.6542
 7420SOL    HW137680   3.670   0.223   2.079  0.2807 -0.7988  0.8845
 7420SOL    HW237681   3.527   0.204   2.126 -0.4679  0.8467 -0.6701
 7421SOL     OW37682   3.744   3.256   1.163 -0.2381 -0.1201 -0.8743
 7421SOL    HW137683   3.702   3.296   1.086 -0.8043  0.5269 -0.2398
 7421SOL    HW237684   3.672   3.247   1.226 -0.2723 -2.8218 -1.2689
 7422SOL     OW37685   3.244   1.132  10.433  0.0334  0.1155 -0.2500
 7422SOL    HW137686   3.281   1.055  10.477  3.0583  1.1894 -0.7665
 7422SOL    HW237687   3.196   1.178  10.502 -0.0270 -1.1420  0.5767
 7423SOL     OW37688   1.755   2.717   2.795  0.2253  0.2808 -0.1602
 7423SOL    HW137689   1.746   2.644   2.734 -0.0143 -1.1132  1.4833
 7423SOL    HW237690   1.691   2.698   2.864  2.1779  0.5053  1.7583
 7424SOL     OW37691   3.554   2.926   1.685  0.4830 -0.1218 -0.0841
 7424SOL    HW137692   3.568   2.882   1.769  0.1168 -0.8864 -0.4237
 7424SOL    HW237693   3.638   2.968   1.667  0.9254 -0.8938  0.1206
 7425SOL     OW37694   0.043   1.749   4.367 -0.3630 -0.1265 -0.1947
 7425SOL    HW137695   0.043   1.839   4.333 -2.0207 -0.1152 -0.1861
 7425SOL    HW237696   0.010   1.696   4.295 -0.9470 -0.5135  0.3528
 7426SOL     OW37697   1.389   0.202  10.629 -0.1259  0.0627 -0.3397
 7426SOL    HW137698   1.343   0.158  10.701 -1.7719  0.6920 -0.9777
 7426SOL    HW237699   1.374   0.146  10.553 -0.5157  0.6603 -0.7152
 7427SOL     OW37700   1.621   3.936  11.129 -0.3164 -0.0244  0.4581
 7427SOL    HW137701   1.711   3.925  11.161 -0.0284  0.7261 -0.0717
 7427SOL    HW237702   1.567   3.890  11.193  0.3126  0.8363  1.6341
 7428SOL     OW37703   3.877   0.409   9.482 -0.3115  0.0717  0.2845
 7428SOL    HW137704   3.969   0.431   9.470 -0.3245  0.9319  1.5911
 7428SOL    HW237705   3.876   0.316   9.504  0.1548 -0.1620 -0.6650
 7429SOL     OW37706   3.714   2.342  12.329 -0.3954 -0.1826 -0.1926
 7429SOL    HW137707   3.663   2.377  12.402 -1.8961 -0.0948 -1.2455
 7429SOL    HW237708   3.759   2.266  12.365 -2.1178 -0.8878  0.5036
 7430SOL     OW37709   5.343   5.082   1.622 -0.1600 -0.5675  0.5590
 7430SOL    HW137710   5.274   5.070   1.557 -2.1256  1.5238  2.1821
 7430SOL    HW237711   5.409   5.135   1.578  0.0657 -1.9266 -0.7590
 7431SOL     OW37712   4.628   5.757  12.256  0.5180 -0.1718  0.2374
 7431SOL    HW137713   4.545   5.746  12.302 -1.0548  2.9796 -1.5922
 7431SOL    HW237714   4.675   5.824  12.307 -0.2008  1.5599 -1.2851
 7432SOL     OW37715   4.633   0.275   2.420 -0.0033  0.5789 -0.1825
 7432SOL    HW137716   4.572   0.330   2.371  0.1212 -0.5451 -1.6198
 7432SOL    HW237717   4.581   0.198   2.445  0.3344  0.4624  0.1606
 7433SOL     OW37718   1.618   4.942  11.316 -0.0843 -0.6251 -0.3048
 7433SOL    HW137719   1.537   4.992  11.308 -0.7430 -1.4156  1.4062
 7433SOL    HW237720   1.664   4.959  11.233 -0.5681  2.3119 -0.0440
 7434SOL     OW37721   4.866   5.857   9.063  0.1639  0.2202  0.5893
 7434SOL    HW137722   4.811   5.813   8.998 -0.6543  1.0998  0.6643
 7434SOL    HW237723   4.839   5.821   9.147  1.1039 -0.7946  0.4719
 7435SOL     OW37724   3.785   4.225  10.973 -0.7006 -0.0640 -0.1754
 7435SOL    HW137725   3.782   4.243  10.879 -2.3534 -0.8532 -0.2800
 7435SOL    HW237726   3.786   4.312  11.013 -0.8020  0.2782 -0.9030
 7436SOL     OW37727   4.490   5.608  12.050  0.3826  0.0803 -0.0096
 7436SOL    HW137728   4.531   5.672  12.107  0.1458 -0.2552  0.5456
 7436SOL    HW237729   4.502   5.524  12.094 -0.4788 -0.0835 -0.0610
 7437SOL     OW37730   4.717   4.009   0.060 -0.5747  0.6369  0.2393
 7437SOL    HW137731   4.630   4.048   0.061 -0.9719 -0.2298 -0.0714
 7437SOL    HW237732   4.718   3.948   0.133  0.0067  1.1403  0.6571
 7438SOL     OW37733   1.351   1.337   1.640  0.5569 -0.0378 -0.2763
 7438SOL    HW137734   1.385   1.274   1.704  1.9549  0.9327 -0.0284
 7438SOL    HW237735   1.404   1.415   1.654 -1.3618  1.3211 -0.3621
 7439SOL     OW37736   1.750   0.944  11.342  0.1750  0.1412 -0.3043
 7439SOL    HW137737   1.795   0.946  11.257 -2.6668 -0.1142 -1.8920
 7439SOL    HW237738   1.716   1.032  11.353  1.8485  0.5996  1.3559
 7440SOL     OW37739   4.995   1.395   3.791 -0.5370 -0.3887 -0.0567
 7440SOL    HW137740   4.910   1.351   3.791 -0.5650 -0.3457 -0.6798
 7440SOL    HW237741   4.974   1.487   3.804 -0.8883  0.1172 -3.6492
 7441SOL     OW37742   3.977   0.609  11.524  0.1962 -0.7903  0.2092
 7441SOL    HW137743   3.967   0.601  11.429 -2.8994 -0.2244  0.4213
 7441SOL    HW237744   4.003   0.700  11.538  0.8139 -0.9164 -0.0796
 7442SOL     OW37745   0.923   3.362   0.716  0.1343  0.0765  0.9809
 7442SOL    HW137746   0.905   3.452   0.691 -0.0861 -0.5583 -1.2064
 7442SOL    HW237747   0.859   3.310   0.667  1.1977 -1.3829  1.1186
 7443SOL     OW37748   5.387   4.521   0.516  0.5734 -0.2664  0.1242
 7443SOL    HW137749   5.338   4.602   0.530 -0.3029 -0.1809 -2.9970
 7443SOL    HW237750   5.351   4.459   0.579 -2.0919  0.4125 -0.6733
 7444SOL     OW37751   1.425   3.331  10.927 -0.2689  0.2352 -0.2117
 7444SOL    HW137752   1.419   3.385  10.848  0.6168  0.9603  0.2140
 7444SOL    HW237753   1.345   3.352  10.976 -0.9294 -0.3795 -0.9996
 7445SOL     OW37754   4.166   4.291   1.595 -0.3367 -0.4978  0.0786
 7445SOL    HW137755   4.235   4.312   1.532 -1.5584  1.0442 -0.8008
 7445SOL    HW237756   4.200   4.218   1.645  1.0019 -1.2354 -1.8620
 7446SOL     OW37757   5.582   1.164   1.680 -0.3565 -0.1609  0.1865
 7446SOL    HW137758   5.607   1.193   1.592 -1.0734  0.1168  0.0724
 7446SOL    HW237759   5.496   1.203   1.695 -0.8068 -1.2490  0.5096
 7447SOL     OW37760   1.117   2.564  12.495  0.3552 -0.2463  0.1570
 7447SOL    HW137761   1.044   2.583  12.436  0.2716 -0.3852  0.2164
 7447SOL    HW237762   1.122   2.469  12.497  1.5052 -0.2395 -1.0601
 7448SOL     OW37763   5.336   0.082   8.137 -0.1659  1.1320 -0.4105
 7448SOL    HW137764   5.294   0.018   8.079 -2.2007  0.7445  1.4309
 7448SOL    HW237765   5.281   0.160   8.129  1.0880  1.9686 -1.0179
 7449SOL     OW37766   4.756   3.623   1.187 -0.2521 -0.4176 -0.4453
 7449SOL    HW137767   4.770   3.530   1.202  0.9282 -0.3505 -1.0599
 7449SOL    HW237768   4.819   3.647   1.119 -1.1380  0.6457 -0.9249
 7450SOL     OW37769   5.696   2.893   0.092  0.1581  0.0711  0.2114
 7450SOL    HW137770   5.665   2.860   0.008 -1.1288 -1.1326  1.1298
 7450SOL    HW237771   5.629   2.954   0.121 -0.5670 -1.2451  1.4055
 7451SOL     OW37772   4.132   0.196   2.084  0.3183 -0.2891 -0.5494
 7451SOL    HW137773   4.117   0.236   2.170 -2.0426 -0.7423 -0.7056
 7451SOL    HW237774   4.151   0.105   2.103 -0.1447 -0.3767 -0.4822
 7452SOL     OW37775   0.803   3.781   3.217 -0.1398  0.3135 -0.2478
 7452SOL    HW137776   0.750   3.841   3.163 -0.5048  1.3536  1.2193
 7452SOL    HW237777   0.788   3.811   3.307 -0.4377 -2.1062  0.5262
 7453SOL     OW37778   4.537   0.522  11.614  0.7153  0.5042  0.1137
 7453SOL    HW137779   4.562   0.535  11.523 -0.5559  0.7148 -0.2235
 7453SOL    HW237780   4.465   0.585  11.628  0.0928 -0.3699  0.9008
 7454SOL     OW37781   5.517   5.203  11.031  0.3630  0.3272 -0.2242
 7454SOL    HW137782   5.437   5.251  11.049  1.1788  1.2627  1.0471
 7454SOL    HW237783   5.552   5.244  10.952 -0.4769 -0.1638 -0.8485
 7455SOL     OW37784   0.475   4.062   8.630  0.1193  0.0752 -0.3672
 7455SOL    HW137785   0.492   4.156   8.629 -0.2550  0.1747  1.1100
 7455SOL    HW237786   0.387   4.054   8.667  1.1519 -0.9757  1.9189
 7456SOL     OW37787   5.079   1.163   3.697  0.7592 -0.1656  0.0100
 7456SOL    HW137788   4.987   1.146   3.676  1.1519 -1.4192 -0.8031
 7456SOL    HW237789   5.081   1.254   3.725 -0.6044  0.1080 -0.7224
 7457SOL     OW37790   1.712   0.825   3.054  0.0250 -0.4116 -0.0480
 7457SOL    HW137791   1.781   0.826   3.120  0.9238  1.2038 -0.9649
 7457SOL    HW237792   1.758   0.813   2.971 -1.0357 -1.8312 -0.4344
 7458SOL     OW37793   1.590   3.195   3.554 -0.5527  0.3883  0.5177
 7458SOL    HW137794   1.678   3.182   3.590 -0.5198  0.0020  0.3072
 7458SOL    HW237795   1.602   3.186   3.460 -0.8822 -0.0360  0.5165
 7459SOL     OW37796   5.803   5.267  11.079 -0.1315 -0.4509  0.7210
 7459SOL    HW137797   5.811   5.172  11.069 -0.7373 -0.4331 -0.0451
 7459SOL    HW237798   5.748   5.294  11.005  1.4351  0.7154 -0.0409
 7460SOL     OW37799   5.008   1.375  11.501  0.6518 -0.3298  0.2125
 7460SOL    HW137800   5.038   1.303  11.555  1.6639  0.0704  0.1973
 7460SOL    HW237801   4.961   1.333  11.429  4.0797 -1.1848 -1.6142
 7461SOL     OW37802   2.132   4.738   4.062  0.0415  0.2298  0.6964
 7461SOL    HW137803   2.185   4.684   4.120 -0.4000  1.1188  1.9753
 7461SOL    HW237804   2.192   4.769   3.995  0.3150 -1.7604  0.0008
 7462SOL     OW37805   4.319   2.321  11.033 -0.4948 -0.3595  0.1122
 7462SOL    HW137806   4.248   2.379  11.006  1.0572  1.0540 -0.9984
 7462SOL    HW237807   4.337   2.346  11.124  0.7595  1.4997 -0.6431
 7463SOL     OW37808   4.117   2.586   3.376 -0.1009  0.6254  0.4076
 7463SOL    HW137809   4.136   2.504   3.421 -0.0166  1.5137  1.9957
 7463SOL    HW237810   4.195   2.640   3.388  1.1997 -0.2450 -3.4620
 7464SOL     OW37811   4.878   5.739   7.898  1.0931 -0.2220 -0.2981
 7464SOL    HW137812   4.875   5.670   7.832  1.3533 -0.2648 -0.2673
 7464SOL    HW237813   4.854   5.696   7.980 -3.7340  0.7070 -1.0519
 7465SOL     OW37814   2.705   3.513   9.072 -0.2552  0.3624  0.0822
 7465SOL    HW137815   2.643   3.471   9.013  0.7385  0.6617 -1.2048
 7465SOL    HW237816   2.788   3.469   9.053  0.1390  0.6976  1.0213
 7466SOL     OW37817   5.821   1.766   9.595 -0.3389  0.2016 -0.6188
 7466SOL    HW137818   5.832   1.861   9.588  1.0893  0.1484  0.5494
 7466SOL    HW237819   5.757   1.754   9.665  1.2365  0.2872  0.8903
 7467SOL     OW37820   3.029   4.801  11.073  0.3853 -0.3390  0.4321
 7467SOL    HW137821   2.939   4.771  11.076  0.2009 -0.3756 -3.4240
 7467SOL    HW237822   3.031   4.879  11.129 -1.7635 -0.8837  1.3034
 7468SOL     OW37823   4.459   3.040   0.849 -0.6508  0.5204  0.1835
 7468SOL    HW137824   4.450   3.056   0.943  0.3665 -0.7989  0.5194
 7468SOL    HW237825   4.551   3.016   0.837 -1.4157 -2.2287 -0.6801
 7469SOL     OW37826   0.361   3.163   0.996 -0.3010 -0.0090  0.2332
 7469SOL    HW137827   0.372   3.164   0.901  2.1901 -0.2250  0.4771
 7469SOL    HW237828   0.300   3.234   1.014  0.4532  1.0932 -1.4147
 7470SOL     OW37829   3.778   4.807   3.515  0.6572 -0.1738  0.7058
 7470SOL    HW137830   3.854   4.847   3.558 -0.1280  0.6561  1.3258
 7470SOL    HW237831   3.729   4.881   3.479 -1.4927 -0.4319  2.9819
 7471SOL     OW37832   1.634   3.544  12.035 -0.3862  0.4259 -0.0103
 7471SOL    HW137833   1.708   3.553  12.096 -0.3081 -0.1027 -0.0206
 7471SOL    HW237834   1.559   3.524  12.091 -0.3237 -0.0181 -0.0814
 7472SOL     OW37835   3.851   0.169   2.072  0.0121 -0.5541  0.2384
 7472SOL    HW137836   3.858   0.172   2.167 -0.8120  3.6056  0.2960
 7472SOL    HW237837   3.940   0.186   2.041  0.3604 -2.3279  0.2483
 7473SOL     OW37838   0.553   5.057   8.153  0.3382  0.3381  0.1632
 7473SOL    HW137839   0.572   4.964   8.149  3.4998  0.8111  2.3032
 7473SOL    HW237840   0.492   5.073   8.081  0.8931 -3.0788 -1.1251
 7474SOL     OW37841   3.622   2.758  11.757  0.4114 -0.8181 -0.1160
 7474SOL    HW137842   3.578   2.693  11.813 -0.9003  0.7745  0.7424
 7474SOL    HW237843   3.553   2.819  11.733  1.8381  0.8506 -0.0605
 7475SOL     OW37844   1.437   0.214   1.454  0.3441 -0.0943 -0.0582
 7475SOL    HW137845   1.358   0.223   1.399 -0.0120 -2.5367 -0.0040
 7475SOL    HW237846   1.489   0.147   1.410  1.6027  0.2784  0.8407
 7476SOL     OW37847   3.712   4.747  12.214  0.2536  0.4924  0.3371
 7476SOL    HW137848   3.758   4.700  12.284  1.0785 -0.9498 -1.1297
 7476SOL    HW237849   3.698   4.681  12.146 -2.1395  1.4398 -0.1256
 7477SOL     OW37850   0.303   3.514  11.578 -0.3754 -0.3287 -0.5326
 7477SOL    HW137851   0.335   3.565  11.653 -0.3119  0.8128 -1.3164
 7477SOL    HW237852   0.356   3.435  11.579  1.2293  0.7027 -0.7046
 7478SOL     OW37853   4.189   1.072  11.625  0.1807  0.1781  0.0404
 7478SOL    HW137854   4.181   1.011  11.551 -0.7917 -0.4223  0.6281
 7478SOL    HW237855   4.280   1.100  11.623  0.8372 -1.9138  0.2469
 7479SOL     OW37856   1.659   5.612   9.058  0.2542  0.0756 -0.1266
 7479SOL    HW137857   1.680   5.701   9.028  0.6020  0.1686  0.3932
 7479SOL    HW237858   1.743   5.569   9.065  0.0730 -0.3479 -0.5235
 7480SOL     OW37859   1.463   2.651   1.010 -0.3431 -0.5040  0.1897
 7480SOL    HW137860   1.465   2.556   1.009 -0.3565 -0.5170  1.0211
 7480SOL    HW237861   1.455   2.676   0.918 -2.8027 -1.3741  0.1351
 7481SOL     OW37862   2.260   1.847  11.887 -0.7104  0.8041 -0.6931
 7481SOL    HW137863   2.235   1.811  11.802 -1.6442  0.4695 -0.2784
 7481SOL    HW237864   2.182   1.835  11.942  0.4703 -0.5394  0.7126
 7482SOL     OW37865   1.316   2.740   0.115 -0.3975  0.9383  0.3301
 7482SOL    HW137866   1.345   2.796   0.044  2.0763 -1.3833 -0.6103
 7482SOL    HW237867   1.241   2.692   0.080  0.3832  0.3025 -0.4895
 7483SOL     OW37868   4.769   0.121  11.897 -0.2129  0.5531 -0.6833
 7483SOL    HW137869   4.750   0.038  11.940 -0.3081  0.7735 -0.2895
 7483SOL    HW237870   4.701   0.131  11.831 -1.8048  1.5912  1.0578
 7484SOL     OW37871   2.346   3.251   1.431 -0.2163  0.3029 -0.4202
 7484SOL    HW137872   2.275   3.208   1.477 -0.4355  0.7201 -0.3651
 7484SOL    HW237873   2.395   3.297   1.499  1.0630 -1.3050 -0.2346
 7485SOL     OW37874   4.033   3.847   9.563  0.1204  0.1703  0.1343
 7485SOL    HW137875   4.113   3.853   9.511 -0.5351 -0.9751 -1.0187
 7485SOL    HW237876   3.967   3.893   9.511 -0.3423 -0.2197  0.3748
 7486SOL     OW37877   4.495   4.557  10.572 -0.7186  0.1157  0.2674
 7486SOL    HW137878   4.559   4.602  10.627 -1.0170 -1.1754  1.7086
 7486SOL    HW237879   4.532   4.560  10.484  2.4337 -2.5691  1.4228
 7487SOL     OW37880   4.489   1.128   2.959  0.0234 -0.0464 -0.5280
 7487SOL    HW137881   4.521   1.135   2.869  1.2139 -1.0058 -0.2057
 7487SOL    HW237882   4.569   1.127   3.012 -0.6155 -0.7416  0.4340
 7488SOL     OW37883   4.591   1.192   0.434  0.6086  0.2803  0.3146
 7488SOL    HW137884   4.651   1.118   0.423  1.0522  0.5565  0.8646
 7488SOL    HW237885   4.509   1.152   0.463  0.4923 -0.1068 -0.5103
 7489SOL     OW37886   0.613   4.599   1.376 -0.2629  0.6739 -0.0104
 7489SOL    HW137887   0.522   4.573   1.385 -0.3213  1.0365  0.4713
 7489SOL    HW237888   0.630   4.595   1.282 -1.0181  1.4278 -0.1787
 7490SOL     OW37889   4.428   1.269  10.122 -0.5505 -0.7207 -0.3145
 7490SOL    HW137890   4.468   1.321  10.192 -0.4470 -0.1088 -0.8232
 7490SOL    HW237891   4.374   1.332  10.074 -0.0107 -0.9571 -1.2562
 7491SOL     OW37892   2.212   1.375   0.267 -0.1800  0.3766  0.4705
 7491SOL    HW137893   2.177   1.456   0.305 -1.0087 -0.3002  1.1695
 7491SOL    HW237894   2.142   1.344   0.210 -0.6410 -0.8679  1.6901
 7492SOL     OW37895   2.262   2.271  11.164  0.1500 -0.5608  0.3440
 7492SOL    HW137896   2.168   2.257  11.176  0.1939  0.6279  2.3500
 7492SOL    HW237897   2.302   2.194  11.204  0.0801 -0.0188  1.4778
 7493SOL     OW37898   3.556   2.470   3.143  0.1399  0.1006 -0.6110
 7493SOL    HW137899   3.641   2.449   3.105 -0.0408 -1.8239 -0.0302
 7493SOL    HW237900   3.512   2.523   3.077  1.0763 -0.4784 -1.7069
 7494SOL     OW37901   0.276   5.456   3.772 -0.3872 -0.1818  0.6996
 7494SOL    HW137902   0.317   5.525   3.825 -0.4960 -0.0292  0.5853
 7494SOL    HW237903   0.227   5.403   3.835 -0.9672  0.3231  0.6719
 7495SOL     OW37904   0.832   1.394   1.739  0.1531 -0.2249 -0.2748
 7495SOL    HW137905   0.757   1.410   1.681 -0.4969 -0.8260  0.3861
 7495SOL    HW237906   0.907   1.387   1.680 -0.3295  0.2954 -0.9537
 7496SOL     OW37907   2.507   0.743  10.530 -0.8191  0.3776 -0.2961
 7496SOL    HW137908   2.466   0.780  10.609 -3.8165 -0.1282 -1.5673
 7496SOL    HW237909   2.554   0.817  10.491 -1.6287  1.3128  0.4587
 7497SOL     OW37910   0.407   4.658  12.312  0.1009 -0.1183  0.9552
 7497SOL    HW137911   0.314   4.661  12.335 -0.6428 -0.3321 -1.8153
 7497SOL    HW237912   0.421   4.567  12.283  0.9203  0.1548  0.4857
 7498SOL     OW37913   4.880   0.359  11.601  0.1137 -0.7239 -0.1178
 7498SOL    HW137914   4.951   0.295  11.589  0.0036 -0.8721  0.0187
 7498SOL    HW237915   4.897   0.397  11.687  0.2644 -0.4645 -0.2630
 7499SOL     OW37916   1.516   2.607  11.258 -0.1224  0.1175 -0.2489
 7499SOL    HW137917   1.425   2.635  11.270 -0.1654  0.6385 -1.6748
 7499SOL    HW237918   1.510   2.529  11.203  0.2535 -0.2706  0.2574
 7500SOL     OW37919   3.889   0.786  12.288  0.0900  0.0078 -0.4235
 7500SOL    HW137920   3.941   0.799  12.209 -0.4315 -0.0222 -0.7755
 7500SOL    HW237921   3.871   0.874  12.320 -0.7658  0.0534 -1.0380
 7501SOL     OW37922   1.326   3.510  12.090 -0.4463 -0.3978  0.6730
 7501SOL    HW137923   1.297   3.504  11.999  3.1596 -0.6528 -0.5613
 7501SOL    HW237924   1.265   3.572  12.130 -1.1557  0.9801 -2.3354
 7502SOL     OW37925   2.086   5.729   4.168 -0.0437 -0.3024  0.2398
 7502SOL    HW137926   2.091   5.635   4.186 -1.0711 -0.5888 -0.9218
 7502SOL    HW237927   2.043   5.735   4.083  0.1349  1.2231  0.2418
 7503SOL     OW37928   0.225   1.349   2.182 -0.2205  0.4563  0.2691
 7503SOL    HW137929   0.160   1.412   2.152  0.4389  0.2846 -1.5914
 7503SOL    HW237930   0.288   1.401   2.232 -0.1920  1.1204 -0.4450
 7504SOL     OW37931   2.302   2.738   0.738 -0.7036 -0.1458  0.2421
 7504SOL    HW137932   2.256   2.655   0.747 -2.1138  0.4499 -1.1108
 7504SOL    HW237933   2.369   2.722   0.672 -0.8029 -0.2717  0.1723
 7505SOL     OW37934   4.446   3.727   7.537  0.2303 -0.0434 -0.0814
 7505SOL    HW137935   4.387   3.778   7.593  0.5273 -0.8700  0.9903
 7505SOL    HW237936   4.528   3.776   7.538 -0.2205  0.7451 -1.0226
 7506SOL     OW37937   0.945   2.021   1.267  0.1201  0.0859  0.3972
 7506SOL    HW137938   0.991   1.962   1.328  1.4683 -0.5002 -1.1551
 7506SOL    HW237939   1.013   2.081   1.236 -1.1487  2.2107  1.6133
 7507SOL     OW37940   2.068   4.324   3.656  0.1091  0.7738  0.6400
 7507SOL    HW137941   2.092   4.265   3.728 -2.5060 -0.9993  0.1483
 7507SOL    HW237942   2.068   4.268   3.578 -0.7622  1.8020 -0.1171
 7508SOL     OW37943   5.638   1.541   1.243 -0.1527  0.2767  0.6000
 7508SOL    HW137944   5.552   1.577   1.265  0.6798  1.2558  2.3780
 7508SOL    HW237945   5.630   1.514   1.152 -2.5932 -0.3965  0.9714
 7509SOL     OW37946   1.639   3.337  11.833 -0.2952  0.3683 -0.2204
 7509SOL    HW137947   1.584   3.268  11.870  1.7761 -1.4498 -0.4546
 7509SOL    HW237948   1.660   3.393  11.908 -0.3111 -0.4055  0.3665
 7510SOL     OW37949   3.096   5.255  11.126  0.4859  0.1614  0.0215
 7510SOL    HW137950   3.190   5.242  11.120  0.5354  1.1774 -1.5675
 7510SOL    HW237951   3.059   5.197  11.060 -0.0533 -0.6018  0.9714
 7511SOL     OW37952   4.998   1.285   9.194  0.7629 -0.1640 -0.3885
 7511SOL    HW137953   5.074   1.331   9.231  1.6934 -0.2024 -2.2049
 7511SOL    HW237954   4.970   1.340   9.121 -2.4839  1.0994  1.6692
 7512SOL     OW37955   0.713   1.502  11.969  0.0822 -0.2009  0.1324
 7512SOL    HW137956   0.718   1.484  12.063  0.3732  1.2568  0.4090
 7512SOL    HW237957   0.694   1.596  11.963 -0.3988 -0.3700 -1.2605
 7513SOL     OW37958   3.923   2.876  10.902  0.4589 -0.2932  0.2392
 7513SOL    HW137959   4.014   2.866  10.873  0.3482  0.0113 -0.2102
 7513SOL    HW237960   3.888   2.946  10.848 -0.1522 -0.6540  0.1619
 7514SOL     OW37961   3.135   3.757   9.960 -0.6340  0.5741 -0.3828
 7514SOL    HW137962   3.139   3.800   9.875  0.8878  2.2532  0.5056
 7514SOL    HW237963   3.227   3.749   9.987 -0.9030 -2.5942 -0.1767
 7515SOL     OW37964   3.144   2.761   3.655  0.3786 -0.3231  0.0578
 7515SOL    HW137965   3.164   2.852   3.679 -1.3152  0.6163 -1.9104
 7515SOL    HW237966   3.051   2.752   3.675 -0.1079 -0.7621 -2.2953
 7516SOL     OW37967   0.973   5.690   1.876 -0.3151 -0.2901 -0.2582
 7516SOL    HW137968   0.972   5.785   1.861 -0.7316 -0.5809 -2.2575
 7516SOL    HW237969   1.064   5.665   1.862  0.1219  0.0227  1.8571
 7517SOL     OW37970   3.165   3.594   2.202  0.3638 -0.1635 -0.2723
 7517SOL    HW137971   3.245   3.551   2.173 -0.3963 -0.4076 -2.0392
 7517SOL    HW237972   3.095   3.556   2.149 -0.5999  1.7995 -0.4943
 7518SOL     OW37973   4.756   1.972   9.811 -0.2802  0.3550  0.3416
 7518SOL    HW137974   4.715   2.051   9.776 -1.5434 -0.7357 -0.7418
 7518SOL    HW237975   4.795   1.929   9.735 -0.3459 -0.4812  0.7641
 7519SOL     OW37976   2.523   1.264  12.288  0.2820  0.0337 -0.1334
 7519SOL    HW137977   2.612   1.298  12.303 -0.5759  2.1053  0.3621
 7519SOL    HW237978   2.499   1.296  12.201 -0.4730  0.6063  0.2771
 7520SOL     OW37979   1.967   0.799   8.937  0.2799  0.9638 -0.4320
 7520SOL    HW137980   1.991   0.889   8.960  1.2346  0.6719 -0.2855
 7520SOL    HW237981   2.016   0.781   8.857  0.2057  0.5197 -0.3796
 7521SOL     OW37982   5.464   3.666  10.902  0.1917  0.4156  0.1850
 7521SOL    HW137983   5.558   3.682  10.910  0.2342  0.1815  0.1569
 7521SOL    HW237984   5.432   3.670  10.992 -0.1446  2.7534 -0.0046
 7522SOL     OW37985   3.491   4.853   8.487  0.2096 -0.0430 -0.1856
 7522SOL    HW137986   3.491   4.764   8.521 -2.1909 -0.2615 -0.6702
 7522SOL    HW237987   3.488   4.843   8.391  0.4723  0.5571 -0.2632
 7523SOL     OW37988   4.735   5.096  11.742  0.3506  0.4437 -0.2174
 7523SOL    HW137989   4.736   5.006  11.711  1.1550  0.2782  0.2832
 7523SOL    HW237990   4.744   5.149  11.663  1.1256  0.0553 -0.3905
 7524SOL     OW37991   3.181   2.037  12.347 -0.3856  0.4252  0.1936
 7524SOL    HW137992   3.213   1.999  12.264  0.2471  0.8837  0.2228
 7524SOL    HW237993   3.092   2.065  12.327  0.2117  1.7394 -0.7317
 7525SOL     OW37994   1.356   4.474   2.327 -0.0440  0.3497  0.0100
 7525SOL    HW137995   1.290   4.490   2.259 -0.5758 -1.6458  0.0131
 7525SOL    HW237996   1.432   4.525   2.300 -1.0146  1.3287 -0.9068
 7526SOL     OW37997   1.725   0.117   0.234  0.1117  0.5719 -0.2356
 7526SOL    HW137998   1.646   0.064   0.245 -0.1624  0.7295 -1.3932
 7526SOL    HW237999   1.795   0.065   0.274 -0.2387 -0.4307 -0.9192
 7527SOL     OW38000   1.232   3.162   9.124  0.0188 -0.4652 -0.3701
 7527SOL    HW138001   1.168   3.094   9.145 -0.3405 -0.6713 -2.0682
 7527SOL    HW238002   1.212   3.186   9.033  3.9684 -2.2841 -1.7900
 7528SOL     OW38003   1.505   3.846   9.199  0.0951  0.2870  0.1180
 7528SOL    HW138004   1.471   3.758   9.185 -2.9758  1.5934 -1.1612
 7528SOL    HW238005   1.484   3.866   9.290 -0.0241  0.0047  0.1537
 7529SOL     OW38006   2.760   0.359  12.312  0.3068 -0.5614  0.0281
 7529SOL    HW138007   2.709   0.371  12.232  0.5984 -1.7336 -0.3570
 7529SOL    HW238008   2.842   0.321  12.282  0.5525 -0.6999  0.8520
 7530SOL     OW38009   5.296   4.573  10.602  0.6270 -0.4539 -0.0739
 7530SOL    HW138010   5.207   4.588  10.633 -0.6793 -3.8281 -1.8610
 7530SOL    HW238011   5.299   4.614  10.515  1.6266  1.7043  0.9318
 7531SOL     OW38012   3.033   2.853   2.590  0.5187 -0.2809 -0.4055
 7531SOL    HW138013   3.128   2.865   2.586  0.6086 -0.6363  0.5326
 7531SOL    HW238014   2.997   2.939   2.567  1.1167  0.8827  2.6858
 7532SOL     OW38015   4.999   4.247   2.489  0.1844 -0.3992  0.4155
 7532SOL    HW138016   4.966   4.160   2.509 -1.2923  0.1596  0.4606
 7532SOL    HW238017   4.983   4.298   2.568  1.0500 -0.0739  0.3917
 7533SOL     OW38018   1.376   3.636   1.726  0.0161 -0.0868 -0.5525
 7533SOL    HW138019   1.445   3.679   1.676 -2.5053  1.4217 -2.8408
 7533SOL    HW238020   1.413   3.627   1.814  1.7642  3.9868 -0.7671
 7534SOL     OW38021   4.838   3.616   1.643 -0.4111  0.1851 -0.1895
 7534SOL    HW138022   4.869   3.694   1.597 -2.9355  1.0662 -0.4858
 7534SOL    HW238023   4.902   3.548   1.620  0.8258  1.7111 -1.4034
 7535SOL     OW38024   0.335   4.041   9.090 -0.0135 -0.5052 -0.5388
 7535SOL    HW138025   0.419   3.999   9.068 -0.3212  0.1616 -3.0892
 7535SOL    HW238026   0.279   3.968   9.118  0.9624 -1.1365 -0.1838
 7536SOL     OW38027   3.273   2.660   1.755 -0.0335 -0.1636 -0.5733
 7536SOL    HW138028   3.312   2.686   1.839  1.1659 -0.5948 -0.9806
 7536SOL    HW238029   3.286   2.736   1.698  0.1758 -0.2923 -0.6988
 7537SOL     OW38030   1.232   1.186   9.879 -0.4383 -0.0558  0.4096
 7537SOL    HW138031   1.302   1.134   9.838  0.1963 -0.8774  2.4516
 7537SOL    HW238032   1.176   1.213   9.806  1.4621 -0.2167 -1.1609
 7538SOL     OW38033   0.892   0.363   1.474 -0.2579  0.6041 -0.8304
 7538SOL    HW138034   0.859   0.381   1.385 -1.5599 -1.1012 -0.7127
 7538SOL    HW238035   0.881   0.447   1.520 -2.1560  0.7692 -1.5164
 7539SOL     OW38036   0.796   1.095   9.979  0.1440 -0.3727  0.0939
 7539SOL    HW138037   0.816   1.186  10.000  2.1399 -1.1466  1.7901
 7539SOL    HW238038   0.714   1.077  10.024  0.5287  0.1619  1.0206
 7540SOL     OW38039   0.824   0.444   9.602  0.4220  0.2323  0.6585
 7540SOL    HW138040   0.890   0.507   9.632 -0.9338  1.2076  1.6799
 7540SOL    HW238041   0.762   0.498   9.552  0.9408 -0.8475 -1.1894
 7541SOL     OW38042   0.246   1.882   1.364  0.0958 -0.2111 -0.4692
 7541SOL    HW138043   0.174   1.930   1.325 -0.0613 -1.2303 -1.4606
 7541SOL    HW238044   0.324   1.917   1.322  0.1125  0.2684 -0.0454
 7542SOL     OW38045   1.076   5.251   0.836  0.1715  0.2917 -0.2569
 7542SOL    HW138046   0.996   5.246   0.888  0.5542 -0.4865  0.2634
 7542SOL    HW238047   1.081   5.343   0.809 -1.1103  0.2560 -0.6396
 7543SOL     OW38048   5.442   2.226   2.398  0.2213 -0.5247 -0.6279
 7543SOL    HW138049   5.386   2.288   2.350 -0.9389 -1.4424 -0.4779
 7543SOL    HW238050   5.431   2.250   2.490  2.4840  1.2690 -0.7700
 7544SOL     OW38051   3.013   1.348   2.198  0.2277 -0.0306 -0.2210
 7544SOL    HW138052   2.992   1.357   2.291 -0.5100 -1.3208 -0.2482
 7544SOL    HW238053   3.107   1.334   2.196  0.6686  2.5846  0.1346
 7545SOL     OW38054   4.881   5.250  10.576 -0.3443 -0.2957  0.3378
 7545SOL    HW138055   4.796   5.244  10.618 -0.1613 -1.0706  0.6018
 7545SOL    HW238056   4.875   5.194  10.499 -0.0301 -0.4471  0.4199
 7546SOL     OW38057   2.571   4.269   2.215  0.4342  0.3564  0.4239
 7546SOL    HW138058   2.619   4.347   2.186 -0.6445  0.6394 -0.6345
 7546SOL    HW238059   2.540   4.292   2.302 -0.1314  1.2399 -0.0006
 7547SOL     OW38060   3.834   5.448   3.027  0.1738  0.1376 -0.0648
 7547SOL    HW138061   3.788   5.386   2.971 -1.5003  1.6855 -0.4829
 7547SOL    HW238062   3.861   5.518   2.967  0.2360  0.7918  0.7158
 7548SOL     OW38063   5.230   3.306   3.001 -0.2175 -0.1335  0.1836
 7548SOL    HW138064   5.137   3.286   2.996 -0.1598 -0.2906 -0.3108
 7548SOL    HW238065   5.259   3.310   2.910  0.3821 -0.6669  0.3422
 7549SOL     OW38066   3.696   5.330   9.080 -0.6209 -0.1470  0.4037
 7549SOL    HW138067   3.621   5.352   9.025 -0.6148  1.8497  1.1352
 7549SOL    HW238068   3.661   5.272   9.147 -1.6023  1.0046  0.9157
 7550SOL     OW38069   0.089   1.324  10.715  0.8566 -0.0528 -0.3258
 7550SOL    HW138070   0.112   1.330  10.622  0.1505 -1.1602 -0.5819
 7550SOL    HW238071   0.104   1.233  10.739 -0.9728 -0.2843  0.0816
 7551SOL     OW38072   2.208   3.685   2.747 -0.2375 -0.2055 -0.1118
 7551SOL    HW138073   2.209   3.718   2.837 -0.7251 -0.8511  0.1302
 7551SOL    HW238074   2.231   3.593   2.754 -1.3049 -0.5177 -0.5426
 7552SOL     OW38075   0.079   3.148  10.077 -0.6198  0.0739 -0.4619
 7552SOL    HW138076   0.094   3.165   9.983 -0.0902  0.1000 -0.3772
 7552SOL    HW238077  -0.016   3.146  10.086 -0.6838 -1.0156 -1.2043
 7553SOL     OW38078   3.014   5.457   2.047 -0.3776 -0.3942 -0.2932
 7553SOL    HW138079   3.077   5.428   1.981  0.9118  2.0923 -0.2337
 7553SOL    HW238080   2.956   5.517   2.000  0.8538  1.7836  0.8446
 7554SOL     OW38081   1.090   0.898   9.770  0.7899  0.1255  0.8956
 7554SOL    HW138082   1.018   0.953   9.738  0.6371 -0.4806  0.1778
 7554SOL    HW238083   1.123   0.944   9.847  1.2295  1.6976 -0.1953
 7555SOL     OW38084   2.973   4.755   9.564 -0.5428  0.3482 -0.7120
 7555SOL    HW138085   2.979   4.661   9.545  0.5861  0.3499 -0.4372
 7555SOL    HW238086   3.050   4.793   9.520 -0.7728  1.0805 -0.4846
 7556SOL     OW38087   1.368   0.335   8.144 -0.1261 -0.0978 -0.6588
 7556SOL    HW138088   1.443   0.371   8.190 -0.3532  0.4458 -0.7053
 7556SOL    HW238089   1.345   0.256   8.193 -0.3332  0.4435  0.1430
 7557SOL     OW38090   1.852   3.154   9.080 -0.7169  0.4752 -0.0540
 7557SOL    HW138091   1.823   3.096   9.151 -0.3285  1.5482  0.9885
 7557SOL    HW238092   1.775   3.208   9.061 -0.4808  0.9329  0.2968
 7558SOL     OW38093   5.788   3.067   3.285 -0.6758 -0.2403  0.8126
 7558SOL    HW138094   5.792   3.134   3.354  0.0480 -1.7300  2.2776
 7558SOL    HW238095   5.696   3.040   3.283 -0.9597  0.7636  0.2492
 7559SOL     OW38096   5.520   5.714   2.765  0.5719  0.0623  0.1212
 7559SOL    HW138097   5.527   5.633   2.714  0.2748  0.3989 -0.4617
 7559SOL    HW238098   5.581   5.702   2.838 -1.6752 -1.9593  1.7627
 7560SOL     OW38099   3.962   2.863   9.879 -0.0806  0.1074 -0.3357
 7560SOL    HW138100   3.885   2.870   9.936  0.2176  1.4369 -0.0906
 7560SOL    HW238101   4.026   2.923   9.917  0.7864 -0.3650 -1.0234
 7561SOL     OW38102   5.511   0.041   0.303  0.3174 -0.1563  0.2028
 7561SOL    HW138103   5.499  -0.033   0.243  1.7651 -0.3465  0.1465
 7561SOL    HW238104   5.445   0.105   0.274  0.9500 -0.2618 -1.5761
 7562SOL     OW38105   2.874   0.495   0.343 -0.4153 -0.2673  0.1285
 7562SOL    HW138106   2.879   0.432   0.271 -0.7704  0.7522 -0.8019
 7562SOL    HW238107   2.832   0.572   0.305 -0.3801  0.3820  1.3642
 7563SOL     OW38108   1.157   0.085   9.705  0.0165 -0.5130 -0.0533
 7563SOL    HW138109   1.240   0.085   9.752 -0.1033  3.1427  0.3149
 7563SOL    HW238110   1.181   0.077   9.613  0.8305  0.9173  0.0224
 7564SOL     OW38111   5.792   0.625   1.697  0.4180 -0.1299 -0.5862
 7564SOL    HW138112   5.844   0.558   1.654  1.2761 -0.4814  0.9507
 7564SOL    HW238113   5.832   0.635   1.783 -1.3978  0.3757  0.2370
 7565SOL     OW38114   0.478   4.403  12.233  0.2474 -0.2808  0.1518
 7565SOL    HW138115   0.547   4.399  12.299 -0.0921 -0.0898  0.5234
 7565SOL    HW238116   0.523   4.388  12.150  0.7121 -0.2971  0.4066
 7566SOL     OW38117   0.985   3.601   9.431 -0.2528 -0.2538 -0.1034
 7566SOL    HW138118   0.910   3.650   9.466 -1.0447 -0.6251 -1.2454
 7566SOL    HW238119   1.027   3.563   9.508 -2.0576 -1.1973  0.4535
 7567SOL     OW38120   4.042   4.296   0.432  0.8991 -0.0928 -0.3227
 7567SOL    HW138121   3.954   4.289   0.397  0.8479 -1.5695  0.0823
 7567SOL    HW238122   4.061   4.209   0.467  2.6493  0.1130 -0.7281
 7568SOL     OW38123   2.721   0.587  11.245  0.4046  0.0470 -0.1127
 7568SOL    HW138124   2.681   0.557  11.164  0.4000 -1.2163  0.3397
 7568SOL    HW238125   2.667   0.547  11.314  1.0875  0.1787  0.5033
 7569SOL     OW38126   2.065   5.160   1.880 -0.5229 -0.0745 -0.2563
 7569SOL    HW138127   2.108   5.233   1.926 -3.0928  0.7220  0.9694
 7569SOL    HW238128   2.011   5.202   1.814 -2.0066 -0.8686  0.4438
 7570SOL     OW38129   2.115   1.940   9.669  0.1098  0.3506 -0.4042
 7570SOL    HW138130   2.073   1.862   9.632 -2.2518  1.4555 -0.1649
 7570SOL    HW238131   2.162   1.979   9.595 -1.0084  0.1882 -1.2146
 7571SOL     OW38132   1.400   2.274  10.568  0.4942  0.4618 -0.1761
 7571SOL    HW138133   1.375   2.185  10.542  2.5618 -0.3503  0.4789
 7571SOL    HW238134   1.477   2.293  10.514 -1.0537  2.6336 -1.6872
 7572SOL     OW38135   1.692   2.159  12.140 -0.0130 -0.2062  0.5788
 7572SOL    HW138136   1.649   2.125  12.061  1.4658  0.1316 -0.3850
 7572SOL    HW238137   1.728   2.081  12.182  2.9728  0.0427 -1.3820
 7573SOL     OW38138   1.314   1.925  11.699 -0.2405  0.1828  0.1042
 7573SOL    HW138139   1.257   1.992  11.663  0.2191  0.0771 -0.8326
 7573SOL    HW238140   1.308   1.852  11.637  0.6388  0.0403  0.1745
 7574SOL     OW38141   5.252   0.573   8.985  0.3971 -0.2706 -0.0903
 7574SOL    HW138142   5.274   0.522   8.908  1.1769 -2.2069  1.3795
 7574SOL    HW238143   5.337   0.601   9.020  0.1236 -0.7015  0.9278
 7575SOL     OW38144   1.442   5.586   8.401 -0.2903 -0.7156 -0.0227
 7575SOL    HW138145   1.360   5.576   8.353  0.0771 -1.4276 -0.5157
 7575SOL    HW238146   1.430   5.531   8.479  0.2458 -1.9812 -0.8001
 7576SOL     OW38147   5.680   1.258  11.221 -0.1257 -0.2869  0.2908
 7576SOL    HW138148   5.661   1.172  11.183 -0.3343 -0.0940 -0.0420
 7576SOL    HW238149   5.597   1.306  11.214  0.3063  0.3499 -0.5999
 7577SOL     OW38150   5.491   4.025   2.447  0.0727  0.4554  1.2833
 7577SOL    HW138151   5.427   4.066   2.505 -1.0016  0.5419  0.0536
 7577SOL    HW238152   5.456   3.938   2.429  1.1369 -0.1279  1.9188
 7578SOL     OW38153   2.032   0.103   0.402  0.1146  0.1025 -0.0839
 7578SOL    HW138154   2.001   0.153   0.477 -1.1725 -1.3316  0.3839
 7578SOL    HW238155   2.115   0.065   0.430  0.0888  0.3234  0.2869
 7579SOL     OW38156   3.071   5.719   1.000 -0.7807 -0.3078  0.3689
 7579SOL    HW138157   3.048   5.653   1.065 -0.0440 -1.0566 -0.1102
 7579SOL    HW238158   3.167   5.723   1.002 -0.8811  2.3029  1.8965
 7580SOL     OW38159   4.820   1.589   1.520  0.0685  0.0763 -0.4075
 7580SOL    HW138160   4.768   1.669   1.515 -0.2422  0.1170  2.4240
 7580SOL    HW238161   4.909   1.620   1.539  0.2609 -0.1811 -0.8867
 7581SOL     OW38162   2.125   4.425   2.534 -0.2484 -0.4657  0.0837
 7581SOL    HW138163   2.211   4.383   2.535  0.1790  0.3892 -0.0775
 7581SOL    HW238164   2.095   4.421   2.625  0.5815  0.4831  0.4032
 7582SOL     OW38165   5.402   5.030   8.155  0.2466  0.1904 -0.3466
 7582SOL    HW138166   5.445   4.970   8.216 -0.4853  0.4991  0.4946
 7582SOL    HW238167   5.409   5.116   8.198  0.6388  0.5829 -1.1934
 7583SOL     OW38168   1.509   0.980   3.147  0.3975 -0.1087 -0.1944
 7583SOL    HW138169   1.462   1.013   3.071  0.4284 -0.8380 -0.5342
 7583SOL    HW238170   1.594   0.953   3.114  2.5547  4.6496  1.0529
 7584SOL     OW38171   1.578   0.364  12.102  0.4003 -0.3577  0.7569
 7584SOL    HW138172   1.614   0.275  12.103  1.0329 -0.1437 -1.1239
 7584SOL    HW238173   1.531   0.370  12.019 -0.0949  0.8980  1.1175
 7585SOL     OW38174   4.674   2.656  10.858  0.4364  0.4892  0.7713
 7585SOL    HW138175   4.679   2.745  10.822  0.8484 -0.3100 -1.2128
 7585SOL    HW238176   4.624   2.666  10.939 -0.2086  2.4072  0.1728
 7586SOL     OW38177   2.355   1.014  11.403 -0.6054  0.0643  0.2892
 7586SOL    HW138178   2.274   0.971  11.428 -0.4191  0.0277  0.8431
 7586SOL    HW238179   2.418   0.942  11.393 -1.0090 -0.0540 -1.6360
 7587SOL     OW38180   2.768   1.159   3.543 -0.1004 -0.0986  0.0937
 7587SOL    HW138181   2.833   1.096   3.511  0.4563 -0.4381  1.8588
 7587SOL    HW238182   2.758   1.221   3.471  3.6121  1.0713  0.4661
 7588SOL     OW38183   2.319   2.655  11.945  0.0244  0.1130  0.7750
 7588SOL    HW138184   2.400   2.684  11.986  0.0524  0.9869  0.1161
 7588SOL    HW238185   2.323   2.689  11.855 -0.9656 -0.0124  0.6666
 7589SOL     OW38186   4.268   1.016   3.321 -0.0827  0.6630  0.6042
 7589SOL    HW138187   4.339   0.975   3.372  0.0840 -0.4799 -0.5296
 7589SOL    HW238188   4.207   1.048   3.387  1.0189  0.8220  1.5792
 7590SOL     OW38189   3.036   0.060   9.731 -0.6116 -0.1489  0.2863
 7590SOL    HW138190   3.029   0.076   9.637  0.9764 -1.4607 -0.0815
 7590SOL    HW238191   2.947   0.036   9.758 -0.9145 -0.5863 -1.0499
 7591SOL     OW38192   1.168   5.463   8.713  0.2860 -0.4333  0.0440
 7591SOL    HW138193   1.094   5.432   8.661  0.0397 -1.5425  1.0259
 7591SOL    HW238194   1.131   5.533   8.766 -0.0506 -0.9152  0.4587
 7592SOL     OW38195   3.891   0.020  12.315  0.0467 -0.1898 -0.3492
 7592SOL    HW138196   3.879   0.115  12.311 -0.7959 -0.2723  0.0488
 7592SOL    HW238197   3.844  -0.013  12.238 -1.8660 -0.4764  0.9091
 7593SOL     OW38198   4.631   0.617  12.229 -0.1778  0.3680 -0.2500
 7593SOL    HW138199   4.613   0.664  12.310  0.9470 -1.0630  0.8515
 7593SOL    HW238200   4.544   0.595  12.194 -0.6631  0.1247  1.0870
 7594SOL     OW38201   5.820   3.302   9.607 -0.1304  0.1147 -0.0626
 7594SOL    HW138202   5.774   3.306   9.691  0.3832 -1.1922  0.2907
 7594SOL    HW238203   5.847   3.392   9.590 -1.7465  0.6806  0.3286
 7595SOL     OW38204   4.052   3.606   9.877  0.5240  0.4270  0.2494
 7595SOL    HW138205   4.083   3.569   9.960  2.7912  1.0883 -0.2564
 7595SOL    HW238206   4.045   3.530   9.819 -1.5468 -0.1058  1.1623
 7596SOL     OW38207   5.302   4.129  12.282  0.2102 -0.2137 -0.2231
 7596SOL    HW138208   5.270   4.109  12.370 -0.2656 -0.4452 -0.4389
 7596SOL    HW238209   5.361   4.203  12.294 -0.0967 -0.0379  0.2530
 7597SOL     OW38210   0.101   2.509  10.928  0.3426  0.0207  0.3084
 7597SOL    HW138211   0.009   2.526  10.908  0.3103  0.5812  0.9337
 7597SOL    HW238212   0.110   2.526  11.021  0.5645 -2.2715  0.7531
 7598SOL     OW38213   1.030   4.268   1.983  0.1910  0.2588 -0.3053
 7598SOL    HW138214   0.948   4.275   1.934  0.5541 -2.8590 -1.4880
 7598SOL    HW238215   1.096   4.305   1.924 -0.3794  3.2712  0.8644
 7599SOL     OW38216   5.080   2.591  11.828  0.3487  0.0229  0.5454
 7599SOL    HW138217   5.007   2.641  11.791  0.5659 -0.2455 -0.2530
 7599SOL    HW238218   5.040   2.530  11.889 -0.3702 -1.8811 -1.7544
 7600SOL     OW38219   2.654   2.460  10.217 -0.3625  0.0318  0.4563
 7600SOL    HW138220   2.641   2.517  10.293  1.3745  0.1597  0.6642
 7600SOL    HW238221   2.567   2.453  10.178 -0.9443  1.3557  1.4691
 7601SOL     OW38222   0.068   0.658  10.210  0.0099 -0.1560 -0.1184
 7601SOL    HW138223  -0.001   0.647  10.144  1.7525 -0.4614 -1.9540
 7601SOL    HW238224   0.046   0.596  10.279 -0.3046 -1.9397 -1.7816
 7602SOL     OW38225   2.565   2.901   3.206 -0.4506  0.6347 -0.6437
 7602SOL    HW138226   2.486   2.858   3.240 -0.4264 -0.1080 -1.4986
 7602SOL    HW238227   2.550   2.908   3.112  0.6034  0.2702 -0.8434
 7603SOL     OW38228   1.614   1.965  11.497  0.3644  0.1927  0.9035
 7603SOL    HW138229   1.611   2.057  11.524 -1.9023  0.0521  1.2500
 7603SOL    HW238230   1.539   1.925  11.541 -0.8241 -1.0256 -2.1262
 7604SOL     OW38231   4.739   0.529   1.315 -0.0074  0.0333  0.5498
 7604SOL    HW138232   4.683   0.595   1.274  0.0853 -0.9017 -1.1439
 7604SOL    HW238233   4.725   0.540   1.409 -0.8658  1.6872  0.2446
 7605SOL     OW38234   5.397   5.949   0.653 -0.2622 -0.3071  0.4601
 7605SOL    HW138235   5.328   5.955   0.719 -1.3357  1.0498 -0.7455
 7605SOL    HW238236   5.363   5.885   0.589 -0.2040  0.0214  0.0982
 7606SOL     OW38237   1.364   2.138   4.121  0.1372 -0.3080 -0.2011
 7606SOL    HW138238   1.374   2.183   4.205 -0.4855  0.8481 -0.7356
 7606SOL    HW238239   1.292   2.077   4.136  0.4655 -0.5760  0.3016
 7607SOL     OW38240   3.308   1.164  12.331 -0.1771  0.3012 -0.6705
 7607SOL    HW138241   3.390   1.131  12.295  1.3038  0.3715  2.4751
 7607SOL    HW238242   3.293   1.247  12.285  1.9338  0.6710 -0.7345
 7608SOL     OW38243   1.315   3.839   9.419 -0.4758  0.1810  0.7499
 7608SOL    HW138244   1.261   3.899   9.368  0.0956 -1.0011 -1.2877
 7608SOL    HW238245   1.261   3.760   9.428 -0.7709  0.5458  2.4372
 7609SOL     OW38246   0.386   1.307  10.892  0.0570 -0.0699 -0.0850
 7609SOL    HW138247   0.352   1.394  10.911  2.0572  0.7583 -0.1158
 7609SOL    HW238248   0.320   1.247  10.927 -0.4204  1.4465  1.7329
 7610SOL     OW38249   2.389   3.599   0.521  0.1196  0.2312  0.0672
 7610SOL    HW138250   2.458   3.534   0.536 -0.2973  0.0182  1.1336
 7610SOL    HW238251   2.434   3.683   0.519  0.5979 -0.0460 -0.7784
 7611SOL     OW38252   3.042   2.005   2.043 -0.3868 -0.1994 -0.3952
 7611SOL    HW138253   3.007   1.970   2.125 -1.7645 -4.2915 -2.6164
 7611SOL    HW238254   3.123   1.957   2.028 -0.4350  0.1078 -1.7141
 7612SOL     OW38255   5.854   0.396  11.578 -0.4585  0.4655  0.0734
 7612SOL    HW138256   5.879   0.463  11.514 -0.5623  0.1043 -0.3524
 7612SOL    HW238257   5.856   0.442  11.662  2.4259  0.2460  0.1733
 7613SOL     OW38258   4.577   0.426  10.780  0.2600  0.7206  0.2381
 7613SOL    HW138259   4.483   0.415  10.792  0.3887  0.9887  1.6222
 7613SOL    HW238260   4.610   0.337  10.769 -0.0111  0.5197  0.9833
 7614SOL     OW38261   1.769   0.171   9.711  0.6352  0.0553 -0.5309
 7614SOL    HW138262   1.789   0.165   9.617 -0.0247 -0.4377 -0.6459
 7614SOL    HW238263   1.819   0.099   9.751  1.5657  0.7724 -0.3888
 7615SOL     OW38264   5.297   5.871  10.428  0.0265 -0.0280  0.3012
 7615SOL    HW138265   5.340   5.863  10.513  0.0488 -0.6299  0.2316
 7615SOL    HW238266   5.357   5.926  10.376  0.4252 -0.3678  0.3979
 7616SOL     OW38267   4.568   3.134   8.616  0.1883  0.8581 -0.1468
 7616SOL    HW138268   4.532   3.210   8.660  2.7140  1.5365  0.8306
 7616SOL    HW238269   4.615   3.170   8.541  0.3720  0.1496 -0.3768
 7617SOL     OW38270   1.343   0.073  10.353 -0.2487 -0.2058 -0.6021
 7617SOL    HW138271   1.254   0.105  10.368 -0.4898 -0.4918 -1.4010
 7617SOL    HW238272   1.333  -0.021  10.341  0.3023 -0.4042  0.4262
 7618SOL     OW38273   3.198   3.290  10.226  0.2511 -0.1887 -0.2613
 7618SOL    HW138274   3.269   3.353  10.217  0.9784 -1.0109 -0.4041
 7618SOL    HW238275   3.171   3.271  10.136  0.3707 -0.4553 -0.2418
 7619SOL     OW38276   4.681   2.904   0.059  0.0128 -0.3185  0.7659
 7619SOL    HW138277   4.614   2.851   0.016 -0.6978  1.0886  0.0967
 7619SOL    HW238278   4.762   2.855   0.047 -0.4883 -0.8248 -0.5869
 7620SOL     OW38279   0.654   5.498   8.084 -0.8879 -0.0864 -0.2280
 7620SOL    HW138280   0.715   5.571   8.089 -2.5429  1.4628 -1.6114
 7620SOL    HW238281   0.651   5.475   7.991  0.7883 -2.9843  0.3901
 7621SOL     OW38282   5.829   4.163   1.492 -0.6306  0.4294 -0.5327
 7621SOL    HW138283   5.791   4.076   1.507  0.2929 -0.0661 -1.0411
 7621SOL    HW238284   5.760   4.212   1.446 -0.6801 -0.4408 -1.4044
 7622SOL     OW38285   2.803   1.276   9.376  0.0025  0.7083  0.5519
 7622SOL    HW138286   2.838   1.335   9.443 -1.0265  0.1619  1.5775
 7622SOL    HW238287   2.709   1.290   9.379 -0.1326 -0.0755 -0.0798
 7623SOL     OW38288   2.915   2.644   1.326 -0.3108  0.2787  0.5148
 7623SOL    HW138289   2.912   2.731   1.287  0.3166  0.3255  0.5577
 7623SOL    HW238290   3.007   2.632   1.349 -0.7690  0.5316  2.6201
 7624SOL     OW38291   0.694   0.636  10.709 -0.3226  0.2544 -0.1010
 7624SOL    HW138292   0.718   0.726  10.731 -0.3918 -0.0822  1.3808
 7624SOL    HW238293   0.763   0.607  10.650  0.1463  1.0016  0.0670
 7625SOL     OW38294   5.852   1.803   4.000 -0.1589 -0.1952 -0.3252
 7625SOL    HW138295   5.867   1.896   3.984 -0.2987  0.1466  1.4213
 7625SOL    HW238296   5.772   1.800   4.053  0.4811 -1.2300  0.6044
 7626SOL     OW38297   1.431   1.899  11.955  0.3109 -0.9562  0.1817
 7626SOL    HW138298   1.419   1.805  11.966  0.6354 -1.1995 -1.4298
 7626SOL    HW238299   1.399   1.918  11.867 -1.4532  0.7725  1.1477
 7627SOL     OW38300   4.221   0.625  12.360  0.0544 -0.1863  0.3567
 7627SOL    HW138301   4.290   0.637  12.294  1.3879 -1.8823  1.3897
 7627SOL    HW238302   4.171   0.707  12.357  2.2770  1.2164 -0.2283
 7628SOL     OW38303   0.026   2.059   8.678 -0.6710 -0.0112  0.6172
 7628SOL    HW138304  -0.031   2.002   8.626  0.3169 -0.3014 -0.1686
 7628SOL    HW238305   0.058   2.124   8.615  1.0314 -0.7299  0.7114
 7629SOL     OW38306   1.461   3.082  11.192 -0.2692 -0.2959  0.0724
 7629SOL    HW138307   1.410   3.116  11.119  0.5233 -0.2240 -0.4599
 7629SOL    HW238308   1.547   3.064  11.155  0.9682  2.2396  1.5804
 7630SOL     OW38309   3.749   1.006  11.533 -0.1068 -0.2806  0.8218
 7630SOL    HW138310   3.696   0.929  11.556  0.8039 -1.5326 -1.1990
 7630SOL    HW238311   3.698   1.051  11.466  0.1538 -0.0152  0.8004
 7631SOL     OW38312   4.738   2.673   2.619  0.4590 -0.2771  0.0238
 7631SOL    HW138313   4.678   2.681   2.693  1.0812  2.3148  0.2846
 7631SOL    HW238314   4.809   2.617   2.651 -0.3285 -0.9169  0.6728
 7632SOL     OW38315   2.994   3.836   2.131  0.3470  0.2555 -0.1748
 7632SOL    HW138316   2.922   3.783   2.165 -0.3663  0.2277 -1.6898
 7632SOL    HW238317   3.004   3.907   2.195 -1.6631  0.8058 -0.4359
 7633SOL     OW38318   4.726   4.841   0.503  0.1504  0.7704 -0.5677
 7633SOL    HW138319   4.654   4.904   0.504  0.3902  1.0401 -0.1014
 7633SOL    HW238320   4.692   4.766   0.454 -0.1885  1.1973 -0.9881
 7634SOL     OW38321   3.271   1.466   2.049 -0.0295  1.0871 -0.0869
 7634SOL    HW138322   3.333   1.467   2.122 -0.7596  1.1091  0.5283
 7634SOL    HW238323   3.282   1.380   2.009 -0.7005  0.5207  0.9497
 7635SOL     OW38324   5.816   3.033   9.542  0.0149 -0.7259  1.1364
 7635SOL    HW138325   5.838   3.126   9.550  0.0738 -0.8475  2.4998
 7635SOL    HW238326   5.901   2.989   9.543 -0.0786 -0.9241  2.5946
 7636SOL     OW38327   3.531   3.430  12.098 -0.7134 -0.6150  0.4574
 7636SOL    HW138328   3.536   3.337  12.075 -2.3903 -0.7949  0.7444
 7636SOL    HW238329   3.579   3.437  12.180  0.9224 -0.8987 -0.4562
 7637SOL     OW38330   5.761   1.190   3.129 -0.3796  0.0329  0.5890
 7637SOL    HW138331   5.707   1.179   3.208  0.2489 -0.6911  0.9260
 7637SOL    HW238332   5.848   1.163   3.157  0.3615  2.0516  0.2987
 7638SOL     OW38333   1.971   1.927   2.631  0.1664  0.0835 -0.0994
 7638SOL    HW138334   1.940   1.958   2.716 -0.8874  1.4578 -0.9586
 7638SOL    HW238335   1.893   1.896   2.586  0.0879  2.7330 -1.9318
 7639SOL     OW38336   4.002   2.139   9.056  0.5716 -0.5774  0.0667
 7639SOL    HW138337   3.982   2.170   8.967 -2.0543  1.3210  1.2361
 7639SOL    HW238338   3.935   2.073   9.073  0.7065 -0.5188  0.8438
 7640SOL     OW38339   2.860   1.810   3.644 -0.0622  0.5018  0.6199
 7640SOL    HW138340   2.937   1.817   3.588 -0.0328  0.0723  0.6084
 7640SOL    HW238341   2.823   1.898   3.644 -0.5081  0.3151 -0.6941
 7641SOL     OW38342   0.985   2.026  12.008  0.3430 -0.2370  0.1427
 7641SOL    HW138343   1.010   2.075  12.086  2.9966  0.1199 -0.8661
 7641SOL    HW238344   1.067   2.012  11.961 -1.0073 -1.6295 -1.9077
 7642SOL     OW38345  -0.006   3.562  10.732  0.0040 -0.0833  0.4187
 7642SOL    HW138346   0.041   3.479  10.726 -1.0160 -0.8352  2.3116
 7642SOL    HW238347   0.049   3.618  10.786 -0.6469 -0.5387  1.5832
 7643SOL     OW38348   2.714   3.296   1.544  0.0557  0.2258 -0.3285
 7643SOL    HW138349   2.799   3.256   1.560 -0.5645 -1.7551 -1.7268
 7643SOL    HW238350   2.666   3.285   1.626  0.9878  0.9784  0.3303
 7644SOL     OW38351   3.371   5.056   1.839  0.0022 -0.3347 -0.0437
 7644SOL    HW138352   3.293   5.102   1.808  0.6565  1.6471  1.1428
 7644SOL    HW238353   3.399   5.003   1.765 -0.9231  1.0370 -1.4052
 7645SOL     OW38354   5.067   4.407   2.279  0.2806 -0.2831  0.6450
 7645SOL    HW138355   5.027   4.487   2.314 -0.4924 -0.8600  1.0720
 7645SOL    HW238356   5.052   4.341   2.345  3.0223 -0.2337  1.3692
 7646SOL     OW38357   3.229   3.879   1.704  0.3388 -0.2652  0.9015
 7646SOL    HW138358   3.323   3.869   1.719  0.3647 -0.1125  0.8377
 7646SOL    HW238359   3.210   3.970   1.727  0.0764 -0.4992  1.6291
 7647SOL     OW38360   5.268   2.916   8.175  0.2103 -0.4933 -0.1648
 7647SOL    HW138361   5.303   2.884   8.092  1.1001 -0.4919  0.2020
 7647SOL    HW238362   5.336   2.975   8.208 -0.3908 -0.0494  0.2881
 7648SOL     OW38363   1.434   3.960   2.406  0.7047  0.6108  0.1028
 7648SOL    HW138364   1.527   3.969   2.424  0.7873 -0.1074  0.0695
 7648SOL    HW238365   1.406   3.888   2.462  0.0284  1.2656  0.6103
 7649SOL     OW38366   4.031   1.015  10.951 -0.2537 -0.0289 -0.1133
 7649SOL    HW138367   4.004   1.052  11.035  0.7799  1.4556 -0.4313
 7649SOL    HW238368   3.954   1.022  10.895 -0.6832 -0.2372  0.4550
 7650SOL     OW38369   3.143   0.901   9.468  0.5743  0.0404 -0.0735
 7650SOL    HW138370   3.128   0.967   9.401 -0.7685 -0.5056 -0.3445
 7650SOL    HW238371   3.091   0.930   9.543 -0.8336 -1.1937 -0.5384
 7651SOL     OW38372   3.177   1.843   3.334  0.0521  0.2307  0.3990
 7651SOL    HW138373   3.208   1.877   3.250  0.8681 -0.8114  0.2609
 7651SOL    HW238374   3.248   1.862   3.396 -0.0576 -0.0211  0.6061
 7652SOL     OW38375   2.294   1.329   3.190 -0.2861  0.0837 -0.3325
 7652SOL    HW138376   2.297   1.352   3.097  0.3416  0.4389 -0.2357
 7652SOL    HW238377   2.386   1.311   3.213 -0.2591  1.2173  0.5083
 7653SOL     OW38378   3.850   5.809  11.937  0.5327 -0.6480  0.0535
 7653SOL    HW138379   3.886   5.894  11.913 -0.1740 -0.7998 -1.6801
 7653SOL    HW238380   3.906   5.745  11.892 -0.3235 -0.9819 -0.5722
 7654SOL     OW38381   3.775   2.423  11.849  0.6393  0.2381  0.4975
 7654SOL    HW138382   3.822   2.421  11.933 -1.5233  0.6700  1.7483
 7654SOL    HW238383   3.769   2.331  11.823  0.7182  0.0395  1.1596
 7655SOL     OW38384   1.453   0.778  12.357  0.4634  0.1955  0.8531
 7655SOL    HW138385   1.433   0.814  12.271  0.8377  2.8011  1.8106
 7655SOL    HW238386   1.503   0.699  12.339 -0.1256  0.2777 -1.3239
 7656SOL     OW38387   1.512   3.754  10.934 -0.2559  0.0499  0.9221
 7656SOL    HW138388   1.601   3.770  10.902  0.2538  0.7144  2.6448
 7656SOL    HW238389   1.503   3.812  11.009 -2.2593  0.2012  0.5794
 7657SOL     OW38390   0.148   1.417   9.539  0.0540 -0.2635 -0.5179
 7657SOL    HW138391   0.173   1.326   9.553 -2.0526 -1.1535 -2.1945
 7657SOL    HW238392   0.120   1.448   9.626 -1.4082 -1.9419 -0.3543
 7658SOL     OW38393   4.098   1.354   9.328  0.4829  0.1781 -0.3285
 7658SOL    HW138394   4.022   1.405   9.301  0.5862  0.5966  0.1616
 7658SOL    HW238395   4.068   1.263   9.327 -0.0395  0.3446 -0.0995
 7659SOL     OW38396   1.086   3.954   3.073  0.2776  0.5781  0.1701
 7659SOL    HW138397   1.046   4.037   3.047  0.1126  0.7841  1.0726
 7659SOL    HW238398   1.081   3.953   3.169 -0.0902 -0.6612  0.1531
 7660SOL     OW38399   3.864   1.102   2.224  0.7183  0.4197  0.1482
 7660SOL    HW138400   3.771   1.083   2.237  0.8668  0.3127  1.0606
 7660SOL    HW238401   3.867   1.198   2.214  0.6010  0.4963  0.8455
 7661SOL     OW38402   2.724   3.825   1.115 -0.6819  0.1469  0.2273
 7661SOL    HW138403   2.815   3.802   1.099 -0.2165 -0.0317  2.7766
 7661SOL    HW238404   2.677   3.742   1.107 -0.5705  0.1749 -0.7469
 7662SOL     OW38405   4.437   5.666   2.240 -0.3476  0.3055  0.6099
 7662SOL    HW138406   4.410   5.751   2.274 -0.1755  0.5202  0.2141
 7662SOL    HW238407   4.398   5.661   2.153 -0.7078 -0.1998  0.8005
 7663SOL     OW38408   1.827   4.611   8.211  0.0722  0.0197  0.5798
 7663SOL    HW138409   1.822   4.557   8.132  0.0873 -1.0734  1.3307
 7663SOL    HW238410   1.738   4.611   8.246  0.0051  0.7288  0.4181
 7664SOL     OW38411   5.765   3.416   2.787 -0.3060 -0.2265 -0.6655
 7664SOL    HW138412   5.858   3.426   2.767  0.2389 -1.9288  0.8219
 7664SOL    HW238413   5.748   3.480   2.855  0.0188 -0.5711 -0.2572
 7665SOL     OW38414   5.168   4.372   9.602 -0.2630  0.1249  0.0571
 7665SOL    HW138415   5.215   4.368   9.685  0.9442 -0.5347 -0.6448
 7665SOL    HW238416   5.206   4.446   9.556  0.2215 -0.5233 -0.5946
 7666SOL     OW38417   1.532   1.980  12.453 -0.1033 -0.1212 -0.5602
 7666SOL    HW138418   1.574   1.946  12.374 -1.1914  0.8728 -1.5666
 7666SOL    HW238419   1.602   2.030  12.497  0.2858 -0.0497 -1.2581
 7667SOL     OW38420   1.922   0.861   4.429  0.0681 -0.3554 -0.0693
 7667SOL    HW138421   1.827   0.853   4.434 -0.0093  1.0746  1.2784
 7667SOL    HW238422   1.955   0.778   4.464 -0.6693 -1.0547 -1.0040
 7668SOL     OW38423   5.613   2.084   4.049 -0.1837  0.3834  0.2425
 7668SOL    HW138424   5.709   2.075   4.051 -0.2402 -1.1076 -1.6249
 7668SOL    HW238425   5.596   2.129   3.966 -1.1362 -0.1714  0.1268
 7669SOL     OW38426   2.263   5.618   0.347 -0.3973  0.8569  0.0118
 7669SOL    HW138427   2.327   5.614   0.418 -0.2176  1.8231 -0.0906
 7669SOL    HW238428   2.179   5.601   0.390 -0.1304 -0.0001  0.2132
 7670SOL     OW38429   1.195   2.781   0.753  0.1439 -0.5747  0.0109
 7670SOL    HW138430   1.126   2.715   0.747 -0.5536  0.1297  0.1083
 7670SOL    HW238431   1.151   2.863   0.730  1.2670 -0.3104 -1.2709
 7671SOL     OW38432   5.677   3.710   8.617 -0.0241  0.2941 -0.1002
 7671SOL    HW138433   5.755   3.679   8.571 -0.0527  0.0092  0.0418
 7671SOL    HW238434   5.706   3.791   8.659  0.6956 -0.6839  1.3589
 7672SOL     OW38435   3.692   2.823   1.913 -0.1979 -0.0351 -1.1335
 7672SOL    HW138436   3.644   2.741   1.928  0.7882 -0.5389 -0.7033
 7672SOL    HW238437   3.783   2.795   1.898  0.0244  0.9358 -1.6413
 7673SOL     OW38438   5.229   2.967   0.965  0.1604 -0.0248 -0.4614
 7673SOL    HW138439   5.313   2.921   0.973  1.3054  1.9640 -0.6645
 7673SOL    HW238440   5.234   3.010   0.880 -0.7336  0.7324 -0.1367
 7674SOL     OW38441   1.510   3.196   1.651  0.3155  0.3910 -0.5294
 7674SOL    HW138442   1.435   3.182   1.709  1.6726  0.2482  1.2498
 7674SOL    HW238443   1.540   3.285   1.671  2.2757 -0.5238  0.7911
 7675SOL     OW38444   3.012   2.587   2.399  0.2917 -0.3464 -0.1232
 7675SOL    HW138445   3.084   2.564   2.457 -0.5698 -0.3101  0.9688
 7675SOL    HW238446   3.055   2.614   2.318  1.4764 -1.1115  0.2301
 7676SOL     OW38447   4.207   2.597  11.581 -0.0457 -0.1204  0.1495
 7676SOL    HW138448   4.227   2.646  11.501 -1.0536  3.1347  1.8019
 7676SOL    HW238449   4.115   2.574  11.573 -0.0461 -0.1409  0.2066
 7677SOL     OW38450   5.303   5.283  10.500  0.0326  0.1518 -0.1237
 7677SOL    HW138451   5.315   5.254  10.590 -2.5859 -1.7881 -0.3321
 7677SOL    HW238452   5.390   5.307  10.470  1.4401 -2.1954  1.9402
 7678SOL     OW38453   4.930   4.588   2.419 -0.3739 -0.3067 -0.2463
 7678SOL    HW138454   4.919   4.683   2.415  0.3059 -0.3165 -2.7076
 7678SOL    HW238455   4.956   4.571   2.510  1.9677  2.1367 -0.3952
 7679SOL     OW38456   2.975   5.773  10.313  0.1650 -0.1441 -0.0080
 7679SOL    HW138457   3.013   5.694  10.274  0.0708  0.0229 -0.4432
 7679SOL    HW238458   2.979   5.838  10.242 -0.8306 -0.0886 -0.0183
 7680SOL     OW38459   2.299   2.308  10.277 -0.1462  0.1459  0.4461
 7680SOL    HW138460   2.278   2.312  10.370 -0.8863 -0.1217  0.2966
 7680SOL    HW238461   2.350   2.228  10.267  0.3645  0.4379  0.7032
 7681SOL     OW38462   3.513   1.404  10.201 -0.3713  0.0062  0.0426
 7681SOL    HW138463   3.491   1.461  10.128  0.9562 -0.8534 -1.0574
 7681SOL    HW238464   3.438   1.410  10.260 -1.8133  0.1045 -1.7663
 7682SOL     OW38465   2.922   0.911   1.825 -0.5198  0.5454 -0.2816
 7682SOL    HW138466   2.960   0.979   1.880  2.7132 -0.8140 -0.6980
 7682SOL    HW238467   2.860   0.956   1.768  1.8165  3.1741 -0.7928
 7683SOL     OW38468   5.670   3.730   0.294  0.0736 -0.1161 -0.1699
 7683SOL    HW138469   5.594   3.714   0.237 -1.0539  0.5130  1.1209
 7683SOL    HW238470   5.700   3.643   0.319 -0.1967 -0.3702 -0.7175
 7684SOL     OW38471   5.369   4.850   3.672 -0.5580  0.8731  0.4588
 7684SOL    HW138472   5.371   4.812   3.759 -0.0524 -0.9808 -0.3492
 7684SOL    HW238473   5.314   4.928   3.681  0.3365  1.2713  2.6454
 7685SOL     OW38474   4.201   3.172  11.929 -0.2430  0.2717  0.2777
 7685SOL    HW138475   4.124   3.172  11.872 -0.2738 -1.4328  0.2835
 7685SOL    HW238476   4.256   3.242  11.896 -0.1045 -0.9152 -2.0775
 7686SOL     OW38477   1.454   0.461  10.570 -0.1355 -0.2791 -0.4053
 7686SOL    HW138478   1.413   0.380  10.598 -2.5134 -0.0987 -3.1237
 7686SOL    HW238479   1.458   0.515  10.649 -1.3609 -1.8707  0.7681
 7687SOL     OW38480   1.258   4.811   8.768  0.3352 -0.7003  0.1333
 7687SOL    HW138481   1.221   4.735   8.725 -2.0638 -0.9098  2.4065
 7687SOL    HW238482   1.236   4.885   8.711 -0.3393 -1.2906 -0.3755
 7688SOL     OW38483   5.880   0.616   8.945 -0.3857 -0.5526 -0.0757
 7688SOL    HW138484   5.881   0.641   8.853  0.2305 -2.5888 -0.6461
 7688SOL    HW238485   5.820   0.542   8.949 -2.2359  0.9830  1.5776
 7689SOL     OW38486   1.613   5.026   1.986 -0.1703  0.0120  0.5129
 7689SOL    HW138487   1.697   4.986   2.009 -0.3395 -1.6206 -1.4944
 7689SOL    HW238488   1.550   4.981   2.041 -0.1167 -1.1990 -0.3778
 7690SOL     OW38489   0.969   0.229  10.475 -0.2176 -0.0537 -0.1875
 7690SOL    HW138490   1.027   0.246  10.549 -1.0181  0.3205  0.3630
 7690SOL    HW238491   0.974   0.134  10.462  1.5545  0.1295 -1.0207
 7691SOL     OW38492   0.192   0.918   0.126  0.2436  0.3852 -0.2957
 7691SOL    HW138493   0.219   0.846   0.183  1.0263 -0.2688 -1.4707
 7691SOL    HW238494   0.131   0.878   0.064 -1.5462  1.3423  0.8078
 7692SOL     OW38495   4.564   2.625  11.098 -0.2617 -0.7022  0.2558
 7692SOL    HW138496   4.603   2.538  11.100  0.9756 -0.1498  0.8442
 7692SOL    HW238497   4.506   2.627  11.173 -0.6761 -1.1890 -0.0485
 7693SOL     OW38498   1.992   0.273   0.606 -0.2622 -0.1376  0.2048
 7693SOL    HW138499   1.984   0.360   0.646 -2.2680  0.7754 -2.0894
 7693SOL    HW238500   1.908   0.230   0.624  1.5564 -2.5821  3.3996
 7694SOL     OW38501   4.340   3.104   1.931  0.3434  0.1711 -0.6208
 7694SOL    HW138502   4.345   3.086   1.837  1.4029  0.0173 -0.5488
 7694SOL    HW238503   4.391   3.184   1.943 -0.4395  0.6144 -0.2885
 7695SOL     OW38504   2.076   1.336   0.034 -0.2265  0.0001 -0.2525
 7695SOL    HW138505   2.164   1.340  -0.003 -0.3213 -2.2120 -0.7875
 7695SOL    HW238506   2.036   1.258  -0.006 -2.8236  1.5724 -0.8860
 7696SOL     OW38507   0.859   1.490  11.060  0.3111 -0.1465 -0.4363
 7696SOL    HW138508   0.776   1.531  11.086  0.3770 -0.7480  0.7774
 7696SOL    HW238509   0.888   1.541  10.985 -1.3739 -0.1905 -1.1496
 7697SOL     OW38510   5.718   4.035   1.858  0.1508 -0.6490  0.2937
 7697SOL    HW138511   5.666   4.066   1.932  1.4381 -0.1131  0.9998
 7697SOL    HW238512   5.806   4.068   1.875  0.4107 -0.2542 -1.6357
 7698SOL     OW38513   2.380   3.373   3.518 -0.4410  0.1281  0.1707
 7698SOL    HW138514   2.293   3.379   3.479 -0.1374  2.5330 -0.2420
 7698SOL    HW238515   2.410   3.284   3.496 -2.1448 -0.1793 -1.0418
 7699SOL     OW38516   0.365   2.302   0.568 -0.5997  0.1401  0.2060
 7699SOL    HW138517   0.454   2.283   0.598  0.1079  1.7808 -0.8165
 7699SOL    HW238518   0.376   2.345   0.484 -2.4027 -0.2187 -0.2418
 7700SOL     OW38519   3.809   2.630  10.792 -0.4539 -0.3562  0.4350
 7700SOL    HW138520   3.858   2.689  10.849  1.0357  0.2592 -1.4212
 7700SOL    HW238521   3.721   2.629  10.828  0.1406  1.0354  1.9680
 7701SOL     OW38522   3.541   1.462   7.935  0.9299  0.1644  0.2134
 7701SOL    HW138523   3.621   1.514   7.932  0.7582  0.4075 -0.1618
 7701SOL    HW238524   3.471   1.525   7.951  0.8858 -0.1266  1.2271
 7702SOL     OW38525   3.728   4.235   1.094  0.1806  0.1457  0.4952
 7702SOL    HW138526   3.682   4.253   1.176 -2.2035  1.7616 -1.0972
 7702SOL    HW238527   3.670   4.175   1.047  1.7210 -1.1002  0.1758
 7703SOL     OW38528   1.196   3.452  11.811  0.3578 -0.2826 -0.1635
 7703SOL    HW138529   1.195   3.376  11.870  0.4516  0.5412  0.9232
 7703SOL    HW238530   1.161   3.419  11.729  0.5425 -1.5427  0.2548
 7704SOL     OW38531   2.652   2.133   2.021  0.3221  0.2695 -0.3194
 7704SOL    HW138532   2.693   2.076   1.955  0.3336 -0.3431  0.2145
 7704SOL    HW238533   2.669   2.089   2.104 -0.1463  0.7778  0.0459
 7705SOL     OW38534   2.400   5.606   0.562  0.0670 -0.1542 -0.5213
 7705SOL    HW138535   2.417   5.612   0.656 -3.4779  2.7016  0.0308
 7705SOL    HW238536   2.483   5.631   0.521  0.9007  1.1848  1.8753
 7706SOL     OW38537   3.998   1.468   0.780  0.3929 -0.4116 -0.1740
 7706SOL    HW138538   4.018   1.561   0.771 -0.0306 -0.4478 -1.6867
 7706SOL    HW238539   4.008   1.450   0.873 -0.2721  1.3195  0.2510
 7707SOL     OW38540   1.925   1.115  12.429  0.2067 -0.0625  0.1449
 7707SOL    HW138541   1.903   1.055  12.357  1.1762 -0.4995  0.1997
 7707SOL    HW238542   1.919   1.061  12.508 -1.8756  0.6784  0.5138
 7708SOL     OW38543   3.163   5.747   3.792 -0.3347 -0.1394  0.1530
 7708SOL    HW138544   3.070   5.738   3.769 -0.0936 -2.9838  0.0466
 7708SOL    HW238545   3.164   5.753   3.887 -0.6788  0.6557  0.1068
 7709SOL     OW38546   3.752   4.936   9.450 -0.1385 -0.0033  0.5979
 7709SOL    HW138547   3.695   4.883   9.506  0.6489 -0.5758  0.8678
 7709SOL    HW238548   3.829   4.953   9.504  1.8155 -2.7849 -1.1911
 7710SOL     OW38549   2.089   4.266   2.872 -0.0232  0.3209  0.3629
 7710SOL    HW138550   2.167   4.322   2.877 -0.0349  0.4829 -1.0012
 7710SOL    HW238551   2.016   4.327   2.868 -0.2257  0.1688  1.6125
 7711SOL     OW38552   1.993   3.041   8.857  0.3749  0.2866 -0.5985
 7711SOL    HW138553   1.939   3.032   8.936  1.0299  2.6894  0.1561
 7711SOL    HW238554   2.052   2.966   8.861  0.4657  0.4223  1.2640
 7712SOL     OW38555   0.462   2.258   9.116 -0.0808  0.2668 -0.3056
 7712SOL    HW138556   0.389   2.200   9.136 -0.4234  1.1255  1.0019
 7712SOL    HW238557   0.507   2.270   9.199  2.2571 -1.1572 -1.3010
 7713SOL     OW38558   1.411   5.406   3.175  0.2728 -0.2022  0.1551
 7713SOL    HW138559   1.455   5.450   3.102 -1.7109  0.4556 -0.6650
 7713SOL    HW238560   1.398   5.475   3.240 -0.0873 -0.2590  0.1448
 7714SOL     OW38561   1.242   1.216   3.304  0.5585 -0.5248  0.0512
 7714SOL    HW138562   1.232   1.305   3.268 -1.9239 -0.9333 -0.4004
 7714SOL    HW238563   1.325   1.218   3.351 -0.4504  2.7020  1.8406
 7715SOL     OW38564   4.413   2.530   0.235 -0.4496 -0.0302  0.1160
 7715SOL    HW138565   4.332   2.534   0.285 -2.0932 -0.7570 -2.4308
 7715SOL    HW238566   4.387   2.548   0.145  1.9674 -1.7990 -0.9883
 7716SOL     OW38567   2.474   3.823  12.427  0.0407  0.0886 -0.0260
 7716SOL    HW138568   2.426   3.888  12.375 -0.0001  0.3293  0.3106
 7716SOL    HW238569   2.422   3.743  12.420 -0.6165  0.4524  0.6523
 7717SOL     OW38570   3.087   1.843   0.433  0.2810  0.1785  0.0268
 7717SOL    HW138571   2.996   1.819   0.417  0.1338 -0.0572  1.1797
 7717SOL    HW238572   3.131   1.829   0.349 -0.2802 -1.8430  0.0536
 7718SOL     OW38573   1.825   5.197   0.871  0.5490  0.4273  0.1610
 7718SOL    HW138574   1.788   5.136   0.807  0.4103 -0.3678  0.9856
 7718SOL    HW238575   1.759   5.265   0.881  1.1333  1.2622 -1.5242
 7719SOL     OW38576   0.960   4.876   4.141  0.3088  0.0688  0.0252
 7719SOL    HW138577   0.977   4.950   4.198 -2.5727  0.2111  0.8238
 7719SOL    HW238578   0.976   4.908   4.052  3.4702  0.2535  0.6145
 7720SOL     OW38579   1.478   2.334   2.559 -0.3540 -0.0240 -0.0271
 7720SOL    HW138580   1.447   2.273   2.491  0.9073  1.1365 -1.6716
 7720SOL    HW238581   1.573   2.326   2.557 -0.2348  1.2239  0.4759
 7721SOL     OW38582   5.830   4.491   0.284  0.4069  0.2261  0.1923
 7721SOL    HW138583   5.797   4.415   0.235 -1.3668  0.9316  0.2392
 7721SOL    HW238584   5.756   4.517   0.339  1.6920  0.7242  1.7040
 7722SOL     OW38585   0.331   4.840   9.263  0.2323  0.1508  0.2404
 7722SOL    HW138586   0.326   4.744   9.265  1.8499  0.0691  0.9005
 7722SOL    HW238587   0.385   4.860   9.186 -0.9163  0.5789 -0.4690
 7723SOL     OW38588   1.230   5.486   2.362 -0.1623 -0.4695 -0.0533
 7723SOL    HW138589   1.207   5.503   2.271 -1.1521 -1.3908  0.0219
 7723SOL    HW238590   1.270   5.568   2.392 -0.7494  0.1760 -1.0126
 7724SOL     OW38591   5.472   3.180   3.028  0.8203  0.0888  0.1499
 7724SOL    HW138592   5.382   3.213   3.021  1.5647  2.0029 -0.6612
 7724SOL    HW238593   5.485   3.166   3.122  0.7082  2.8074  0.6056
 7725SOL     OW38594   5.342   1.859  10.919 -0.0461 -0.2182 -0.0983
 7725SOL    HW138595   5.398   1.928  10.955 -0.1525 -1.1957  2.0011
 7725SOL    HW238596   5.255   1.880  10.952  0.0463 -1.7490  1.1736
 7726SOL     OW38597   3.381   1.654  12.203 -0.0062 -0.2450 -0.0298
 7726SOL    HW138598   3.460   1.705  12.224  1.1207 -2.3468  1.0720
 7726SOL    HW238599   3.330   1.710  12.145  1.2222  2.0836  1.0902
 7727SOL     OW38600   2.834   2.259  10.859  0.5754  0.2953  0.1351
 7727SOL    HW138601   2.870   2.178  10.824 -0.9609 -0.1871 -0.3942
 7727SOL    HW238602   2.795   2.233  10.943  0.6452  0.6214  0.2694
 7728SOL     OW38603   5.311   1.925  11.960 -0.9379 -0.4745 -0.0908
 7728SOL    HW138604   5.332   1.862  11.891  1.9339  1.5719 -1.2026
 7728SOL    HW238605   5.232   1.969  11.929  0.4753  0.6112 -2.2501
 7729SOL     OW38606   1.141   0.908  10.373  0.6446 -0.0169  0.2105
 7729SOL    HW138607   1.058   0.953  10.387 -0.0023 -0.8033 -0.9194
 7729SOL    HW238608   1.176   0.947  10.293  0.8318 -0.4276  0.0900
 7730SOL     OW38609   0.832   4.190   2.410  0.1007  0.2080  0.3884
 7730SOL    HW138610   0.835   4.282   2.384  0.5186 -0.3304 -1.5455
 7730SOL    HW238611   0.917   4.173   2.449  0.8206  0.1101 -1.1860
 7731SOL     OW38612   0.294   3.726  12.012 -0.0619  0.1034 -0.4868
 7731SOL    HW138613   0.204   3.714  12.041 -0.4546  1.3553 -1.1542
 7731SOL    HW238614   0.304   3.667  11.937 -0.3929  0.1121 -0.5391
 7732SOL     OW38615   1.584   0.709   1.956  0.5836  0.2595  0.4735
 7732SOL    HW138616   1.602   0.787   2.009 -0.5527  1.6132 -1.0579
 7732SOL    HW238617   1.488   0.707   1.948  0.7678  1.1334 -2.9556
 7733SOL     OW38618   0.597   0.751   2.161 -0.2293 -0.1909 -0.1301
 7733SOL    HW138619   0.554   0.763   2.077 -1.8929  1.3533  0.9117
 7733SOL    HW238620   0.610   0.839   2.195 -1.0894 -0.8338  1.9722
 7734SOL     OW38621   5.908   0.647   1.948  0.1312  0.1972  0.2837
 7734SOL    HW138622   5.939   0.609   2.030 -0.3543  0.1045  0.4263
 7734SOL    HW238623   5.941   0.737   1.950  1.0711 -0.1382  0.0595
 7735SOL     OW38624   3.376   5.825   0.152  0.6409  0.0918 -0.2921
 7735SOL    HW138625   3.338   5.761   0.213  1.4894 -1.6758 -1.5814
 7735SOL    HW238626   3.374   5.782   0.067  0.7267  2.0098 -1.2949
 7736SOL     OW38627   3.451   4.469   0.314 -0.0521 -0.8189 -0.2898
 7736SOL    HW138628   3.442   4.484   0.408 -0.9823  0.3564 -0.5474
 7736SOL    HW238629   3.545   4.458   0.300  0.4968  2.6419  0.2677
 7737SOL     OW38630   2.067   2.427   0.926  0.3466 -0.1262 -0.1742
 7737SOL    HW138631   2.018   2.474   0.859  2.3947  0.0463 -1.6347
 7737SOL    HW238632   2.038   2.464   1.009 -0.9874  0.8698 -1.0697
 7738SOL     OW38633   0.918   2.182   3.647 -0.0889 -0.5814 -0.2611
 7738SOL    HW138634   0.915   2.233   3.728 -1.1788 -0.7540 -0.1847
 7738SOL    HW238635   0.849   2.116   3.657 -0.2285 -0.6100 -1.3139
 7739SOL     OW38636   5.924   0.502   9.964 -0.3763 -0.1046 -0.0466
 7739SOL    HW138637   6.015   0.500   9.935 -0.2628 -1.3522  0.3887
 7739SOL    HW238638   5.873   0.499   9.882 -0.0372  0.0700 -0.2662
 7740SOL     OW38639   4.977   2.439   2.937 -0.2190  0.2836 -0.3047
 7740SOL    HW138640   5.051   2.499   2.951  0.3255 -0.7077  1.3058
 7740SOL    HW238641   4.955   2.449   2.845  3.4219 -1.0606 -1.4120
 7741SOL     OW38642   1.502   0.507   9.059  0.0823  0.7519  0.3097
 7741SOL    HW138643   1.572   0.572   9.059  0.7241  0.1415  3.2310
 7741SOL    HW238644   1.425   0.555   9.090  0.1351  0.5492  0.7647
 7742SOL     OW38645   2.407   2.512  11.510  0.6013  0.2322 -0.1467
 7742SOL    HW138646   2.405   2.434  11.564 -2.9590  1.7476  2.1254
 7742SOL    HW238647   2.465   2.573  11.556  2.4054 -0.6115 -1.2776
 7743SOL     OW38648   3.069   4.854   1.938 -0.0066 -0.2457 -0.9224
 7743SOL    HW138649   3.034   4.931   1.894  0.3275  0.3649 -0.1391
 7743SOL    HW238650   3.071   4.786   1.871  2.4388  1.2331 -2.3921
 7744SOL     OW38651   5.090   2.566   3.242  0.1111  0.6688 -0.3119
 7744SOL    HW138652   5.071   2.478   3.274 -2.1931  0.7826 -1.3167
 7744SOL    HW238653   5.136   2.608   3.315  1.3746 -1.3749  0.1236
 7745SOL     OW38654   2.085   5.919   9.750 -0.2347 -0.4147  0.8430
 7745SOL    HW138655   2.073   5.924   9.845  1.9042  1.6484  1.0747
 7745SOL    HW238656   2.180   5.915   9.738 -0.4995 -1.3676 -1.2044
 7746SOL     OW38657   1.119   1.808   2.084  0.1769 -0.0805  0.1959
 7746SOL    HW138658   1.210   1.820   2.111 -0.0669  1.1994  0.5042
 7746SOL    HW238659   1.067   1.838   2.159 -0.5021 -1.1675  0.1720
 7747SOL     OW38660   3.484   5.713   8.396 -0.3693 -0.1609  0.3232
 7747SOL    HW138661   3.513   5.803   8.408  2.5884 -0.9899 -0.3529
 7747SOL    HW238662   3.515   5.667   8.474 -0.5522 -0.9270 -0.0503
 7748SOL     OW38663   0.935   1.222   3.643 -0.2469  0.3749 -0.2519
 7748SOL    HW138664   0.853   1.175   3.626 -0.2827  0.7467 -1.1520
 7748SOL    HW238665   0.945   1.219   3.738 -0.4945 -1.0566 -0.2508
 7749SOL     OW38666   0.276   0.728  10.479  0.1733  0.3665  0.4945
 7749SOL    HW138667   0.332   0.757  10.407  1.0292 -1.0802  0.5443
 7749SOL    HW238668   0.194   0.776  10.467 -0.0072 -0.4670 -1.9655
 7750SOL     OW38669   2.527   2.306   1.767  0.2855 -0.2312 -0.1418
 7750SOL    HW138670   2.615   2.331   1.796  0.1794  2.5605 -2.0235
 7750SOL    HW238671   2.472   2.319   1.845  1.0887  0.6672  0.2869
 7751SOL     OW38672   4.812   5.549   9.919 -0.1578 -0.3372  0.4841
 7751SOL    HW138673   4.756   5.627   9.917  0.8439  0.3936  0.2680
 7751SOL    HW238674   4.883   5.569   9.858 -1.2378 -2.4763 -1.4926
 7752SOL     OW38675   0.451   1.092   3.912 -0.1822  0.5673  0.0960
 7752SOL    HW138676   0.460   1.105   3.818 -0.0299 -0.7432 -0.0792
 7752SOL    HW238677   0.535   1.119   3.948  0.9157 -1.9067 -0.4853
 7753SOL     OW38678   3.286   1.610   1.111  0.1171 -0.1465 -0.4191
 7753SOL    HW138679   3.314   1.638   1.198 -2.7413  0.5545  0.3459
 7753SOL    HW238680   3.264   1.517   1.122 -1.2757  0.2069 -0.0904
 7754SOL     OW38681   4.635   3.381  11.166  0.3528  0.1847  0.4647
 7754SOL    HW138682   4.719   3.363  11.124  1.0978  1.9074  1.1714
 7754SOL    HW238683   4.633   3.476  11.178 -1.6118  0.1530  0.6561
 7755SOL     OW38684   4.474   1.355   7.618  0.1241  0.1002 -0.3597
 7755SOL    HW138685   4.442   1.327   7.532 -0.9666 -1.3879  0.5064
 7755SOL    HW238686   4.419   1.308   7.680  1.5929  0.3635  1.1713
 7756SOL     OW38687   3.873   3.068   8.703 -0.2203 -0.4921  0.3466
 7756SOL    HW138688   3.851   3.000   8.766  1.0294 -1.5623 -0.3501
 7756SOL    HW238689   3.808   3.137   8.718 -1.4961 -1.8313  1.0489
 7757SOL     OW38690   0.464   1.069  10.052 -0.0275 -0.1408  0.1228
 7757SOL    HW138691   0.370   1.060  10.036 -0.1014 -1.0644  1.0196
 7757SOL    HW238692   0.491   1.140   9.994 -1.4996  0.9162  0.6918
 7758SOL     OW38693   3.182   3.178  10.876  0.3145  0.1910  0.1653
 7758SOL    HW138694   3.264   3.133  10.898 -0.5957 -0.8405  1.5225
 7758SOL    HW238695   3.194   3.267  10.909  0.4281 -0.2974  1.4472
 7759SOL     OW38696   0.603   1.369   8.493  0.1208 -0.0276  0.2112
 7759SOL    HW138697   0.590   1.367   8.398 -0.7251  1.1011  0.3015
 7759SOL    HW238698   0.696   1.348   8.505  0.5369  1.0958 -0.9426
 7760SOL     OW38699   5.057   2.163   9.748  0.0261  0.0792  0.0774
 7760SOL    HW138700   5.014   2.077   9.746  1.6838 -0.7594  0.0263
 7760SOL    HW238701   5.148   2.145   9.723 -0.0054  2.0917 -1.6495
 7761SOL     OW38702   2.192   5.650   8.207  0.1043  0.6593 -0.5301
 7761SOL    HW138703   2.199   5.634   8.113  0.1663 -0.7065 -0.3098
 7761SOL    HW238704   2.100   5.632   8.228  0.1094  0.8757 -0.3169
 7762SOL     OW38705   2.365   5.914   8.461 -0.2629 -0.2991  0.5476
 7762SOL    HW138706   2.352   6.008   8.445 -1.3580 -0.4963  0.2711
 7762SOL    HW238707   2.456   5.908   8.490 -0.2183  0.8678  0.6936
 7763SOL     OW38708   1.731   1.073  10.330 -0.0575 -0.2176 -0.1987
 7763SOL    HW138709   1.656   1.030  10.369 -0.0355  0.1226  0.2191
 7763SOL    HW238710   1.789   1.093  10.403  0.2310 -0.0693 -0.4626
 7764SOL     OW38711   3.905   5.520   9.149 -0.6917 -0.2038 -0.4940
 7764SOL    HW138712   3.923   5.568   9.068 -2.9527  1.7663  0.0959
 7764SOL    HW238713   3.832   5.462   9.126  0.1279 -1.2742 -0.4284
 7765SOL     OW38714   3.893   1.399  12.394  0.7698 -0.2091  0.4923
 7765SOL    HW138715   3.852   1.446  12.466  1.8673  1.0130  0.3320
 7765SOL    HW238716   3.842   1.424  12.317 -0.5454 -1.6927  0.8572
 7766SOL     OW38717   0.621   5.090   0.262 -0.5112  0.1802 -0.0150
 7766SOL    HW138718   0.666   5.173   0.277 -0.0472  0.4703 -2.7685
 7766SOL    HW238719   0.655   5.031   0.329  2.4868  0.9445 -0.8274
 7767SOL     OW38720   2.064   5.744   1.711 -0.3959 -0.3760 -0.3910
 7767SOL    HW138721   2.060   5.657   1.750 -0.5705  0.4122  1.3858
 7767SOL    HW238722   1.979   5.756   1.669 -0.0485 -1.4005 -1.4061
 7768SOL     OW38723   1.816   4.263   9.561  0.1594  0.3159 -0.0462
 7768SOL    HW138724   1.737   4.290   9.608 -0.2614 -1.5104  0.3295
 7768SOL    HW238725   1.885   4.319   9.595 -0.9733  1.9812 -0.4257
 7769SOL     OW38726   2.582   1.754   8.049 -0.3837  0.6224 -0.2352
 7769SOL    HW138727   2.559   1.833   8.099 -1.2038 -0.6357  1.4008
 7769SOL    HW238728   2.505   1.736   7.996 -0.6297  0.2942  0.2252
 7770SOL     OW38729   2.963   0.718  12.440 -0.1013 -0.2384 -0.1548
 7770SOL    HW138730   2.948   0.726  12.535  0.9967 -0.9336  0.0850
 7770SOL    HW238731   2.880   0.684  12.406  0.3091 -2.3925  0.9086
 7771SOL     OW38732   1.037   0.984   1.750 -0.3922 -0.7617  0.1189
 7771SOL    HW138733   0.973   1.055   1.747 -0.1473 -0.4880  1.3944
 7771SOL    HW238734   1.118   1.025   1.719 -0.3553 -0.6086  0.4207
 7772SOL     OW38735   0.787   4.574  10.030  0.1204 -0.0172 -0.8912
 7772SOL    HW138736   0.857   4.567  10.095 -0.0514  0.8913 -0.5901
 7772SOL    HW238737   0.763   4.484  10.010 -0.2270 -0.3145  0.7551
 7773SOL     OW38738   3.558   4.208  11.316 -0.2400  0.1392  0.1036
 7773SOL    HW138739   3.540   4.115  11.322 -0.0526  0.1086  0.2212
 7773SOL    HW238740   3.554   4.228  11.222  0.2688 -0.1017  0.0283
 7774SOL     OW38741   5.608   4.952   9.890  0.1413  0.4081  0.1761
 7774SOL    HW138742   5.677   4.886   9.897 -0.7274 -0.5131  0.1846
 7774SOL    HW238743   5.528   4.905   9.911 -0.6120  1.2483 -0.7549
 7775SOL     OW38744   0.740   5.189   8.575 -0.0995 -0.2665  0.1174
 7775SOL    HW138745   0.763   5.264   8.519 -1.0941  0.0595  0.1146
 7775SOL    HW238746   0.686   5.133   8.518  1.0060 -1.2058 -0.0106
 7776SOL     OW38747   4.553   3.592  10.289  0.0622 -0.4299 -0.4780
 7776SOL    HW138748   4.523   3.611  10.200  0.1788  2.7355  0.1071
 7776SOL    HW238749   4.609   3.666  10.312  1.8157 -2.2740  1.4458
 7777SOL     OW38750   5.393   2.239   0.636  0.1624  0.6295 -0.1153
 7777SOL    HW138751   5.337   2.221   0.561  1.7506 -1.8548 -0.7532
 7777SOL    HW238752   5.423   2.153   0.665  2.1773  1.7744  1.3455
 7778SOL     OW38753   1.821   1.595   9.780 -0.4193 -0.1372  0.0772
 7778SOL    HW138754   1.779   1.525   9.729 -0.9149  0.2404 -0.0410
 7778SOL    HW238755   1.831   1.667   9.718 -0.5511  0.1425  0.3835
 7779SOL     OW38756   0.997   1.171   2.455 -0.1154 -0.2811  0.1982
 7779SOL    HW138757   1.068   1.234   2.469 -0.4175  0.1915 -0.4391
 7779SOL    HW238758   1.026   1.093   2.503  0.0938  0.4458  1.2812
 7780SOL     OW38759   0.903   0.929   8.762  0.6153 -0.2422 -0.7359
 7780SOL    HW138760   0.826   0.939   8.706 -2.8901 -3.1758  3.2056
 7780SOL    HW238761   0.937   0.842   8.742 -0.9790 -1.5345  1.8744
 7781SOL     OW38762   4.794   4.392   9.307 -0.3331  0.4104 -0.1004
 7781SOL    HW138763   4.703   4.422   9.303 -0.6348 -0.2883  1.1409
 7781SOL    HW238764   4.827   4.405   9.218 -1.6178  0.7525 -0.5466
 7782SOL     OW38765   0.023   3.262  10.766 -0.0030  0.0338  0.0617
 7782SOL    HW138766   0.032   3.206  10.688  0.2478  1.7659 -1.1794
 7782SOL    HW238767   0.102   3.244  10.817  0.3953 -0.2687 -0.6497
 7783SOL     OW38768   1.243   4.401  10.342 -0.0329  0.0613  0.0621
 7783SOL    HW138769   1.235   4.493  10.320  0.2785  0.2185  0.5743
 7783SOL    HW238770   1.337   4.382  10.332 -0.4776 -0.8873 -2.6428
 7784SOL     OW38771   2.408   4.394   3.263 -0.7392 -0.7263  0.1756
 7784SOL    HW138772   2.327   4.422   3.221  0.3073  2.3568  0.0681
 7784SOL    HW238773   2.440   4.473   3.308  1.8548 -2.0411  0.7223
 7785SOL     OW38774   5.340   4.849  11.723  0.3466  0.6071 -0.3718
 7785SOL    HW138775   5.298   4.890  11.798 -0.9185 -0.5449 -0.4268
 7785SOL    HW238776   5.417   4.903  11.706  1.6188 -0.0367  2.8095
 7786SOL     OW38777   1.693   5.509   0.998  0.4524 -0.6004 -0.4720
 7786SOL    HW138778   1.650   5.437   1.043  2.0906 -0.5979  1.1857
 7786SOL    HW238779   1.752   5.546   1.063  1.4805  0.6476 -2.0563
 7787SOL     OW38780   5.801   1.442   1.672 -0.1098  0.3104  0.4843
 7787SOL    HW138781   5.808   1.347   1.684 -1.1851  0.0409 -0.8244
 7787SOL    HW238782   5.770   1.475   1.756  1.9139 -0.2866  1.4797
 7788SOL     OW38783   4.099   3.546   8.781 -0.0104 -0.4680 -0.3264
 7788SOL    HW138784   4.130   3.472   8.729  1.2288  0.5432 -1.0515
 7788SOL    HW238785   4.066   3.609   8.716  1.7032  0.8808  0.0680
 7789SOL     OW38786   0.195   4.371   8.706 -0.6826 -0.3147 -0.4005
 7789SOL    HW138787   0.267   4.393   8.765 -3.0963  0.3637  2.4756
 7789SOL    HW238788   0.202   4.434   8.635  0.7305  0.6659  0.5739
 7790SOL     OW38789   1.060   3.254   9.510  0.4193  0.2436  0.4264
 7790SOL    HW138790   1.093   3.339   9.481  0.5431  0.1274  0.2214
 7790SOL    HW238791   0.997   3.275   9.579  0.3561  0.5093  0.2918
 7791SOL     OW38792   3.392   0.165   3.886 -0.6722 -0.8321 -0.1998
 7791SOL    HW138793   3.313   0.142   3.934 -0.0652 -2.3915  0.0724
 7791SOL    HW238794   3.412   0.089   3.833  0.9651 -0.6835  0.1662
 7792SOL     OW38795   0.136   1.554  11.759  0.4918  0.3471 -0.2488
 7792SOL    HW138796   0.083   1.608  11.818  0.1099  0.0746 -0.3434
 7792SOL    HW238797   0.209   1.525  11.813  1.1458  1.6354 -0.4063
 7793SOL     OW38798   2.070   3.664   3.633 -0.1000  0.0419  0.2750
 7793SOL    HW138799   2.060   3.576   3.670  0.3816  0.1201  0.5938
 7793SOL    HW238800   2.067   3.722   3.709 -1.3303  0.3765 -0.0151
 7794SOL     OW38801   0.651   0.366   2.056  0.0077  0.3370 -0.1970
 7794SOL    HW138802   0.582   0.307   2.026  0.5730 -1.0477  1.1471
 7794SOL    HW238803   0.731   0.312   2.054  0.5277  1.0480  1.0255
 7795SOL     OW38804   4.256   5.880   1.906 -0.2272  0.3034 -1.0145
 7795SOL    HW138805   4.246   5.801   1.960  0.2783  2.1162  1.8231
 7795SOL    HW238806   4.340   5.916   1.933 -0.8125  2.2217 -1.7331
 7796SOL     OW38807   2.457   5.543   8.251 -0.1977 -0.2236  0.1992
 7796SOL    HW138808   2.364   5.566   8.250 -0.0562  0.3433 -1.0163
 7796SOL    HW238809   2.462   5.461   8.202 -0.2992 -1.2562  1.8971
 7797SOL     OW38810   2.546   3.173   9.833  0.3792 -0.3410 -0.1730
 7797SOL    HW138811   2.507   3.116   9.767  0.1783 -1.1282  0.6129
 7797SOL    HW238812   2.473   3.228   9.863  0.3954 -0.2118 -0.3688
 7798SOL     OW38813   2.517   0.365  11.680 -0.2671 -0.1135  0.1016
 7798SOL    HW138814   2.553   0.277  11.694  1.8178  0.4674 -1.2989
 7798SOL    HW238815   2.554   0.418  11.752  0.8759  0.2540 -0.7434
 7799SOL     OW38816   2.635   3.112   0.540  0.7362 -0.0441  0.1008
 7799SOL    HW138817   2.574   3.081   0.473  1.9720 -1.3394 -0.4532
 7799SOL    HW238818   2.611   3.063   0.619 -0.2657  0.9677  0.4363
 7800SOL     OW38819   0.949   3.842   0.468  0.2805  0.1351 -0.1621
 7800SOL    HW138820   0.938   3.764   0.523 -2.1551  0.5837  0.0480
 7800SOL    HW238821   1.042   3.862   0.474  0.8148 -2.2881  0.4204
 7801SOL     OW38822   0.656   2.294   9.302  0.1368  0.6718  0.7163
 7801SOL    HW138823   0.685   2.335   9.384 -1.4307  1.3030  0.9772
 7801SOL    HW238824   0.670   2.200   9.317  1.3629  0.8929  1.0841
 7802SOL     OW38825   0.949   1.671   1.358 -0.0276  0.2493  0.2442
 7802SOL    HW138826   0.932   1.729   1.432  0.1148  0.2194  0.3015
 7802SOL    HW238827   1.013   1.718   1.305 -1.4124  1.0347 -0.7564
 7803SOL     OW38828   0.606   4.051   2.816  0.3639 -0.2689 -0.1800
 7803SOL    HW138829   0.612   4.130   2.761  0.2910  0.6022  1.0318
 7803SOL    HW238830   0.595   4.085   2.905 -1.9752 -1.6476  0.1041
 7804SOL     OW38831   5.624   3.502   7.888  0.0766  0.1305  0.2841
 7804SOL    HW138832   5.612   3.437   7.957 -0.9913 -0.5483 -0.5031
 7804SOL    HW238833   5.547   3.559   7.896 -1.4202 -1.4533 -1.8840
 7805SOL     OW38834   3.122   1.413   9.882  0.0988  0.1820 -0.0595
 7805SOL    HW138835   3.188   1.346   9.863  1.2880  1.9536 -2.5013
 7805SOL    HW238836   3.038   1.369   9.869  0.8591 -0.9942 -1.1308
 7806SOL     OW38837   5.537   5.923   2.566 -0.0455 -0.3886  0.0081
 7806SOL    HW138838   5.544   5.914   2.471 -1.2333 -1.6967  0.0197
 7806SOL    HW238839   5.501   5.839   2.595 -0.9503  0.4877  1.4696
 7807SOL     OW38840   0.951   0.201   2.356  0.5328  0.4800 -0.1850
 7807SOL    HW138841   1.008   0.274   2.380  0.7478  0.4198 -0.5039
 7807SOL    HW238842   1.010   0.126   2.351  0.2580  0.2249  0.4555
 7808SOL     OW38843   5.186   2.485   1.643  0.1515 -0.2749 -0.5924
 7808SOL    HW138844   5.210   2.405   1.595  3.1351  0.8470 -1.0583
 7808SOL    HW238845   5.109   2.460   1.694  1.0191 -3.4581 -0.7344
 7809SOL     OW38846   2.391   0.675   1.136  0.0798  0.0737  0.0129
 7809SOL    HW138847   2.338   0.700   1.061 -0.4307 -0.5946  0.1454
 7809SOL    HW238848   2.475   0.648   1.098 -0.5720 -1.3844 -0.4334
 7810SOL     OW38849   4.951   0.014  10.150 -0.0840  0.1412  0.2522
 7810SOL    HW138850   4.930   0.065  10.072  0.7920  0.5284  0.2611
 7810SOL    HW238851   4.921   0.069  10.223 -2.7043 -1.0777  0.1467
 7811SOL     OW38852   0.053   3.013   9.087 -0.2101 -0.1252  1.0657
 7811SOL    HW138853  -0.037   2.981   9.080 -0.4855  0.7796  0.3521
 7811SOL    HW238854   0.045   3.108   9.075  0.9407 -0.1461  0.1515
 7812SOL     OW38855   0.877   5.925  10.610 -0.5250  0.1670 -0.1376
 7812SOL    HW138856   0.963   5.888  10.588  0.3289  1.8400  0.3080
 7812SOL    HW238857   0.828   5.920  10.528  0.7448  1.1978 -0.9881
 7813SOL     OW38858   3.479   1.391   8.750 -0.4452 -0.5255 -0.1599
 7813SOL    HW138859   3.548   1.455   8.769 -1.8566  1.6785 -2.2161
 7813SOL    HW238860   3.499   1.360   8.662 -0.3141 -2.2485  0.4607
 7814SOL     OW38861   5.420   3.811   0.114  0.5865  0.2911 -0.1463
 7814SOL    HW138862   5.346   3.770   0.071  0.4098  0.5128 -0.0557
 7814SOL    HW238863   5.382   3.858   0.188  1.2363 -2.6165  2.1033
 7815SOL     OW38864   1.390   5.332   0.177  0.3261  0.1805  0.1231
 7815SOL    HW138865   1.472   5.286   0.193  0.5021 -0.4897 -2.4539
 7815SOL    HW238866   1.342   5.276   0.116  0.4750  3.2200 -2.9653
 7816SOL     OW38867   1.515   3.097  11.874  0.8030 -0.5984 -0.1263
 7816SOL    HW138868   1.536   3.034  11.805  0.4000 -1.0660  0.1746
 7816SOL    HW238869   1.574   3.074  11.946  1.0914 -0.2331 -0.2446
 7817SOL     OW38870   2.261   1.904   3.136  0.0272 -0.0135  0.3137
 7817SOL    HW138871   2.180   1.874   3.093  0.4420  1.0794 -1.2521
 7817SOL    HW238872   2.315   1.938   3.065  0.5154  2.3269  1.7564
 7818SOL     OW38873   0.232   1.789  11.255  0.1746 -0.4565 -0.2493
 7818SOL    HW138874   0.162   1.803  11.191 -0.1927  0.6307  0.3691
 7818SOL    HW238875   0.187   1.758  11.334  0.3080  0.8411  0.3494
 7819SOL     OW38876   4.653   0.664   9.687 -0.2314  0.1178  0.2081
 7819SOL    HW138877   4.662   0.616   9.769  0.3458  0.0014  0.0792
 7819SOL    HW238878   4.723   0.729   9.689 -0.1418  0.0439 -0.2391
 7820SOL     OW38879   4.406   3.970  10.957 -0.5743  0.7378 -0.7860
 7820SOL    HW138880   4.484   4.003  10.913  0.7838  1.1611  1.8116
 7820SOL    HW238881   4.403   3.877  10.934  2.3600  0.0399  1.2622
 7821SOL     OW38882   0.946   3.480   0.358 -0.3909  0.2339 -0.3485
 7821SOL    HW138883   0.936   3.392   0.394 -0.6845  0.3504 -0.1478
 7821SOL    HW238884   0.935   3.538   0.433 -3.4432  0.6008 -1.0182
 7822SOL     OW38885   0.160   4.382  11.858 -0.0909 -0.3556 -0.2845
 7822SOL    HW138886   0.183   4.415  11.945 -0.0351 -1.7999  0.2605
 7822SOL    HW238887   0.070   4.352  11.867 -0.1483 -0.3308 -0.7776
 7823SOL     OW38888   1.792   3.737  10.875 -0.3211  0.1015 -0.4371
 7823SOL    HW138889   1.771   3.660  10.927  0.2024  1.4702  1.8575
 7823SOL    HW238890   1.887   3.737  10.869 -0.3169  0.5471 -0.4375
 7824SOL     OW38891   0.719   1.941  11.531 -0.1730 -0.1940  0.0834
 7824SOL    HW138892   0.799   1.906  11.491  1.4015  1.6112  1.5564
 7824SOL    HW238893   0.686   2.003  11.466 -0.6003 -1.2146 -0.6923
 7825SOL     OW38894   2.408   4.875   1.515 -0.8237 -0.5078 -0.0289
 7825SOL    HW138895   2.491   4.848   1.555 -1.3913 -3.2642 -0.5754
 7825SOL    HW238896   2.399   4.817   1.439 -2.8640  0.3197 -0.4439
 7826SOL     OW38897   4.685   0.753  11.054  0.5722  0.2733 -0.7631
 7826SOL    HW138898   4.781   0.758  11.047  0.5953 -1.3931 -1.8682
 7826SOL    HW238899   4.667   0.660  11.070 -0.7824  0.8174  1.0858
 7827SOL     OW38900   5.636   5.199  10.047  0.1651 -0.7904  0.4380
 7827SOL    HW138901   5.610   5.113  10.014 -1.0708 -0.3638  0.2589
 7827SOL    HW238902   5.583   5.261   9.997 -0.1463 -0.0191  1.7021
 7828SOL     OW38903   3.275   1.697  11.065 -0.1673  0.4666  0.0235
 7828SOL    HW138904   3.201   1.651  11.025 -1.5170  2.3857  0.2841
 7828SOL    HW238905   3.268   1.787  11.033 -0.1261  1.5680  2.9573
 7829SOL     OW38906   5.247   3.220   1.269  0.3322  0.1297  0.7990
 7829SOL    HW138907   5.307   3.227   1.342  0.4792 -0.4995  0.7435
 7829SOL    HW238908   5.166   3.187   1.307  0.9336 -1.8511  0.4267
 7830SOL     OW38909   5.754   2.992  10.846  0.1366 -0.3134 -0.0011
 7830SOL    HW138910   5.779   2.960  10.759  1.4744  1.0808 -0.1571
 7830SOL    HW238911   5.826   2.965  10.903 -0.7440 -1.2386  0.6838
 7831SOL     OW38912   5.645   4.210  12.038 -0.6305 -0.1250  0.2116
 7831SOL    HW138913   5.637   4.201  11.943  2.1972 -1.9085  0.0820
 7831SOL    HW238914   5.727   4.257  12.051 -1.8617  1.6650  1.7533
 7832SOL     OW38915   4.998   4.097   8.660 -0.0965 -0.1418 -0.0042
 7832SOL    HW138916   5.087   4.095   8.624  0.4553 -0.1137  1.3259
 7832SOL    HW238917   5.011   4.103   8.755 -1.4920  2.9062  0.0612
 7833SOL     OW38918   0.506   0.022   1.983 -0.5713  0.2680 -0.1507
 7833SOL    HW138919   0.429  -0.011   2.029 -0.3759  1.1533  0.8432
 7833SOL    HW238920   0.480   0.109   1.954  0.0909  0.6259  0.3117
 7834SOL     OW38921   2.180   4.925   0.066  0.0996  0.5258 -0.0654
 7834SOL    HW138922   2.091   4.913   0.098  0.4459 -2.9109 -0.1786
 7834SOL    HW238923   2.200   5.018   0.083 -2.2734  0.5572  3.0252
 7835SOL     OW38924   3.936   5.363   7.876  0.2769 -0.2111 -0.0309
 7835SOL    HW138925   3.970   5.450   7.855  1.9003 -0.5948  1.0117
 7835SOL    HW238926   3.842   5.377   7.891  0.0588  0.9543 -2.2283
 7836SOL     OW38927   3.756   2.950   8.351  0.1350  0.4399  0.6277
 7836SOL    HW138928   3.718   2.887   8.411  0.4019 -0.2821  0.0516
 7836SOL    HW238929   3.770   2.901   8.270 -2.5459  2.0066 -0.8509
 7837SOL     OW38930   3.427   0.064   2.142  0.1226 -0.0600  0.0819
 7837SOL    HW138931   3.483   0.011   2.199 -2.4382 -1.3164  1.4915
 7837SOL    HW238932   3.438   0.025   2.055  0.7696 -0.8274  0.4981
 7838SOL     OW38933   0.036   4.090   3.165 -0.8027  0.2228  0.1345
 7838SOL    HW138934   0.003   4.179   3.163 -1.2222  0.1294  1.9378
 7838SOL    HW238935   0.071   4.079   3.253 -1.0969 -1.5074  0.0564
 7839SOL     OW38936   4.454   3.936  11.614 -0.8036 -0.5480 -0.3730
 7839SOL    HW138937   4.451   4.027  11.643  0.2039 -0.7753  0.4865
 7839SOL    HW238938   4.386   3.892  11.665  1.0652 -0.9797  1.8514
 7840SOL     OW38939   1.390   5.568  10.715 -0.1632  0.0753  0.1967
 7840SOL    HW138940   1.453   5.503  10.747 -1.5414 -2.2284 -1.5479
 7840SOL    HW238941   1.438   5.618  10.650  1.0095  1.0412  1.7732
 7841SOL     OW38942   4.683   4.917   9.275  0.6006  0.1730 -0.4769
 7841SOL    HW138943   4.699   4.985   9.209  1.6206  1.0694  0.6864
 7841SOL    HW238944   4.609   4.867   9.240 -0.4832  2.1744 -1.1158
 7842SOL     OW38945   5.762   3.637   2.962 -0.0442  0.0869 -0.4848
 7842SOL    HW138946   5.733   3.696   3.032  0.0561  1.3470 -1.4975
 7842SOL    HW238947   5.839   3.679   2.925  1.1952 -1.6351  0.0284
 7843SOL     OW38948   3.119   4.787  10.775  0.1685  0.2876  0.5886
 7843SOL    HW138949   3.107   4.796  10.870  0.4679 -0.9274  0.7455
 7843SOL    HW238950   3.200   4.736  10.766  0.3283  0.6917 -0.3314
 7844SOL     OW38951   4.806   4.626   8.535  0.0083 -0.2199 -0.0784
 7844SOL    HW138952   4.756   4.707   8.544  1.2642  0.7531 -1.5722
 7844SOL    HW238953   4.778   4.589   8.452  0.1225 -0.8569  0.1558
 7845SOL     OW38954   2.664   3.089  11.259 -0.2141 -0.1061  0.0024
 7845SOL    HW138955   2.583   3.045  11.284 -0.5183  1.1245  1.2998
 7845SOL    HW238956   2.671   3.162  11.321  2.3936 -0.7789  0.5886
 7846SOL     OW38957   0.906   1.099   9.715  0.6587  0.0051 -0.2117
 7846SOL    HW138958   0.860   1.100   9.799  0.5564  3.0896 -0.2486
 7846SOL    HW238959   0.968   1.171   9.721  0.9691 -0.0262 -2.6178
 7847SOL     OW38960   4.091   3.426   8.467  0.0758 -0.0300 -0.6303
 7847SOL    HW138961   4.117   3.499   8.412 -0.2189 -0.8078 -1.8203
 7847SOL    HW238962   3.997   3.417   8.452 -0.4823  1.2499  1.8134
 7848SOL     OW38963   1.754   1.457   2.712 -0.5637 -0.2339 -0.2351
 7848SOL    HW138964   1.799   1.404   2.778 -0.5408  0.6987  0.4976
 7848SOL    HW238965   1.662   1.456   2.739 -0.3497  1.2796  0.5877
 7849SOL     OW38966   1.585   0.252   8.372  0.2259 -0.7394 -0.1253
 7849SOL    HW138967   1.604   0.325   8.313 -1.0169 -1.5704 -1.5814
 7849SOL    HW238968   1.529   0.289   8.439  0.0828 -0.2173 -0.5277
 7850SOL     OW38969   3.296   5.858  12.116 -0.2753 -0.2590 -0.0662
 7850SOL    HW138970   3.324   5.767  12.108 -0.3338 -0.3476  0.6588
 7850SOL    HW238971   3.372   5.904  12.152 -1.4554 -0.7646  3.2408
 7851SOL     OW38972   4.387   5.415   0.591  0.4565  0.1083 -0.2145
 7851SOL    HW138973   4.431   5.336   0.621  1.7177  1.1971  0.8580
 7851SOL    HW238974   4.435   5.487   0.632 -1.8683  1.3708  0.3920
 7852SOL     OW38975   4.699   2.695   9.541  1.0054  0.6432 -0.3068
 7852SOL    HW138976   4.646   2.644   9.479  1.1916  0.9041 -0.6807
 7852SOL    HW238977   4.643   2.703   9.619  1.1286 -0.4769 -0.0903
 7853SOL     OW38978   1.794   1.550  10.219 -0.3574  0.4829 -0.2430
 7853SOL    HW138979   1.878   1.590  10.197  1.1605 -1.7679  1.2542
 7853SOL    HW238980   1.764   1.597  10.297 -0.5982  1.3895 -0.8700
 7854SOL     OW38981   1.314   0.169   1.157  0.2601  0.2806 -0.0745
 7854SOL    HW138982   1.402   0.182   1.121  0.6959 -0.8153  0.5339
 7854SOL    HW238983   1.276   0.256   1.161  1.2179  0.7320 -0.6315
 7855SOL     OW38984   2.067   1.898   1.193 -0.7458  0.0868  0.3761
 7855SOL    HW138985   2.111   1.844   1.128  0.4837 -0.9070  1.9931
 7855SOL    HW238986   1.990   1.847   1.219 -3.5603  2.2324 -3.1427
 7856SOL     OW38987   0.359   1.848   4.632 -0.3714 -0.2080  0.4284
 7856SOL    HW138988   0.325   1.811   4.551  1.5775  0.3347 -0.6545
 7856SOL    HW238989   0.301   1.922   4.650 -1.8115 -1.3117  0.4423
 7857SOL     OW38990   2.886   2.971   8.679 -0.0867 -0.5128 -0.4258
 7857SOL    HW138991   2.806   2.918   8.678  0.7460 -1.8012 -0.1805
 7857SOL    HW238992   2.945   2.925   8.619  0.3356  0.6353 -0.8865
 7858SOL     OW38993   2.193   5.434  11.685  0.3839  0.1623 -0.1553
 7858SOL    HW138994   2.144   5.354  11.667 -0.7438  1.0864 -1.3321
 7858SOL    HW238995   2.210   5.471  11.598  0.1271  1.6505  0.4237
 7859SOL     OW38996   3.287   4.077  12.103 -0.1320 -0.4391  0.4018
 7859SOL    HW138997   3.297   4.163  12.061 -2.3501 -0.7058 -0.7527
 7859SOL    HW238998   3.242   4.023  12.038  1.8294 -2.7074  0.8600
 7860SOL     OW38999   3.822   4.106   9.766  0.1442  0.3889 -0.0646
 7860SOL    HW139000   3.764   4.178   9.792  0.4513  0.2345  1.0661
 7860SOL    HW239001   3.851   4.130   9.678 -2.5303 -0.0801 -1.1345
 7861SOL     OW39002   5.679   0.139   0.491 -0.0230  0.5118  0.3373
 7861SOL    HW139003   5.601   0.115   0.440  0.5650  0.2774 -0.4561
 7861SOL    HW239004   5.692   0.064   0.550 -0.6421  0.7396  0.7807
 7862SOL     OW39005   5.886   1.701  12.234 -0.2911 -0.1630  0.5678
 7862SOL    HW139006   5.803   1.728  12.272 -0.6099  1.1255 -0.9555
 7862SOL    HW239007   5.863   1.635  12.169 -0.2075  0.6813 -0.3316
 7863SOL     OW39008   1.253   2.209   1.774 -0.2288 -0.7037 -0.2952
 7863SOL    HW139009   1.180   2.149   1.757  0.0182 -1.3713  0.9315
 7863SOL    HW239010   1.212   2.296   1.779 -0.9364 -1.0661  0.3208
 7864SOL     OW39011   2.391   1.778   9.781  0.0677  0.3330  0.1640
 7864SOL    HW139012   2.295   1.777   9.772  0.1089  3.0870 -1.0119
 7864SOL    HW239013   2.406   1.796   9.874 -0.5068 -2.3427  0.8200
 7865SOL     OW39014   1.926   4.581   3.695  0.3762  0.1980  0.2168
 7865SOL    HW139015   1.851   4.578   3.755  1.0547  1.9099  1.1806
 7865SOL    HW239016   1.993   4.529   3.739  0.1053 -0.4812 -0.1632
 7866SOL     OW39017   3.012   2.285  12.444  0.3863  0.4254 -0.2634
 7866SOL    HW139018   3.016   2.207  12.499  0.6085  0.7305  0.1591
 7866SOL    HW239019   2.918   2.302  12.434  0.3397  0.2148 -0.1942
 7867SOL     OW39020   1.335   3.827   0.958  0.2942  0.5722 -0.5848
 7867SOL    HW139021   1.352   3.802   0.867  0.6981  0.8665 -0.5884
 7867SOL    HW239022   1.402   3.781   1.008 -0.5800 -0.4587 -0.3155
 7868SOL     OW39023   1.376   4.636   3.034  0.3289 -0.0524 -0.1121
 7868SOL    HW139024   1.444   4.618   3.099  0.8101  0.6632 -0.4105
 7868SOL    HW239025   1.327   4.710   3.071  1.2576  1.0383 -1.0548
 7869SOL     OW39026   1.634   4.781  10.260 -0.5266  0.3703 -0.1162
 7869SOL    HW139027   1.715   4.827  10.283  0.3653 -0.3407 -1.6862
 7869SOL    HW239028   1.661   4.690  10.247 -1.4012  0.2934 -1.5128
 7870SOL     OW39029   0.896   4.219  12.414 -0.3205 -0.7840 -0.2177
 7870SOL    HW139030   0.986   4.244  12.390 -0.4686  0.1198  0.1247
 7870SOL    HW239031   0.901   4.198  12.507 -0.8185  1.1502  0.2812
 7871SOL     OW39032   2.462   5.693  10.519  0.2224  0.2875 -0.1774
 7871SOL    HW139033   2.483   5.605  10.485 -1.0654 -0.3048  0.5088
 7871SOL    HW239034   2.455   5.747  10.441 -1.6049 -0.8242 -0.8408
 7872SOL     OW39035   0.704   1.897   2.982  0.4991 -0.3803 -0.3969
 7872SOL    HW139036   0.661   1.970   3.025 -0.7256 -0.1630 -1.9213
 7872SOL    HW239037   0.709   1.828   3.049  0.6032  0.6806  0.6935
 7873SOL     OW39038   2.480   4.589  10.122 -0.3485  0.1655 -0.0684
 7873SOL    HW139039   2.467   4.650  10.195  0.6511  1.5869 -1.0435
 7873SOL    HW239040   2.566   4.550  10.140 -0.7785 -0.6184  0.3062
 7874SOL     OW39041   3.479   2.722   9.937  0.6102  0.1695  0.2859
 7874SOL    HW139042   3.539   2.705   9.864  0.9719 -1.0232  0.8370
 7874SOL    HW239043   3.537   2.737  10.013  0.2298  0.3243  0.5476
 7875SOL     OW39044   2.748   0.157   9.784 -0.7437 -0.2601  0.7464
 7875SOL    HW139045   2.778   0.243   9.754  0.6283 -0.8933  0.2998
 7875SOL    HW239046   2.660   0.174   9.818 -0.5934  1.2767  0.4272
 7876SOL     OW39047   4.599   2.722   8.057  0.2203  0.4019 -0.5281
 7876SOL    HW139048   4.580   2.643   8.007  0.8205 -1.1796  1.6900
 7876SOL    HW239049   4.596   2.694   8.148 -0.9052  3.2351  0.3663
 7877SOL     OW39050   2.619   3.397   0.578 -0.2582  0.3423 -0.1813
 7877SOL    HW139051   2.601   3.410   0.671 -1.7856 -0.0810 -0.4148
 7877SOL    HW239052   2.611   3.302   0.565 -1.2049  0.5293 -0.9857
 7878SOL     OW39053   5.102   3.743   8.587 -0.5980  0.0492  0.0300
 7878SOL    HW139054   5.055   3.679   8.641  0.4053  0.2354  1.1677
 7878SOL    HW239055   5.180   3.763   8.638  0.5820 -0.0606 -1.7010
 7879SOL     OW39056   0.475   1.786   9.194 -0.1583 -0.5818  0.3295
 7879SOL    HW139057   0.399   1.749   9.150  1.3554 -3.9113  0.4080
 7879SOL    HW239058   0.482   1.738   9.276  1.7184  0.0668  0.5892
 7880SOL     OW39059   0.370   0.070   0.206 -0.5810 -0.4340  0.4029
 7880SOL    HW139060   0.396   0.051   0.116 -1.3109 -0.8475  0.2755
 7880SOL    HW239061   0.298   0.133   0.197  1.3535  1.8944  0.7931
 7881SOL     OW39062   1.286   0.418   4.291  0.2823  0.6908 -0.2036
 7881SOL    HW139063   1.326   0.446   4.374  1.4413  0.5911 -0.7118
 7881SOL    HW239064   1.218   0.484   4.274  1.1452  1.6612  0.0010
 7882SOL     OW39065   2.649   1.425  10.450  0.0540 -0.4259  0.2908
 7882SOL    HW139066   2.740   1.447  10.430  0.8556 -3.2470  0.4920
 7882SOL    HW239067   2.597   1.469  10.382  1.6073  0.8078 -0.1113
 7883SOL     OW39068   1.582   5.453   8.869  0.1961  0.1851 -0.0622
 7883SOL    HW139069   1.599   5.536   8.914  2.7636 -0.4013  0.1592
 7883SOL    HW239070   1.613   5.386   8.931 -0.8656 -0.8922 -0.6724
 7884SOL     OW39071   0.606   2.851   0.175 -0.1883  0.8965  0.1007
 7884SOL    HW139072   0.606   2.768   0.127 -1.6299  0.8487  0.1644
 7884SOL    HW239073   0.662   2.908   0.123  0.9088 -0.1462  0.1157
 7885SOL     OW39074   2.620   4.750  11.675 -0.5249  0.3908  0.6313
 7885SOL    HW139075   2.707   4.711  11.686 -0.6323  0.4120  1.6582
 7885SOL    HW239076   2.614   4.814  11.746 -2.4468 -1.5998  2.3255
 7886SOL     OW39077   2.079   2.301   2.596  0.7372  0.4502 -0.0571
 7886SOL    HW139078   2.077   2.238   2.524  1.7949  0.5997 -0.2247
 7886SOL    HW239079   2.142   2.264   2.658 -1.6678 -0.7240  1.7747
 7887SOL     OW39080   2.097   5.897  11.788  0.6828  0.2874  0.3049
 7887SOL    HW139081   2.145   5.976  11.761  1.2579 -0.1543  0.0066
 7887SOL    HW239082   2.027   5.889  11.724 -0.5764  1.6490  1.4853
 7888SOL     OW39083   1.696   3.579   0.504 -0.2575  0.1267  0.5587
 7888SOL    HW139084   1.765   3.594   0.440  0.3114  0.8155  1.3126
 7888SOL    HW239085   1.740   3.583   0.589 -1.0900 -0.2059  1.0210
 7889SOL     OW39086   0.565   1.820   1.910  0.2202 -0.4790 -0.6925
 7889SOL    HW139087   0.532   1.793   1.996 -0.1363  0.9598 -0.3613
 7889SOL    HW239088   0.588   1.738   1.866 -0.2200 -1.2668  0.5234
 7890SOL     OW39089   2.148   1.526   4.014 -0.4694 -0.4987  1.0011
 7890SOL    HW139090   2.056   1.500   4.015 -0.6326  0.0755  0.7413
 7890SOL    HW239091   2.147   1.620   4.031 -0.1177  0.0695 -1.8582
 7891SOL     OW39092   3.975   5.638   8.904 -0.0590 -0.4536  0.5757
 7891SOL    HW139093   3.973   5.560   8.848  0.8082 -1.2300  1.5956
 7891SOL    HW239094   4.048   5.690   8.869 -1.3527  0.4573 -0.8141
 7892SOL     OW39095   1.344   5.209   8.544  0.3154 -0.0634 -0.0470
 7892SOL    HW139096   1.378   5.296   8.567  0.1646  0.0446 -0.2275
 7892SOL    HW239097   1.420   5.152   8.549  0.1253 -0.2049  1.5544
 7893SOL     OW39098   4.065   0.119   0.530  0.0800 -0.2467  0.0469
 7893SOL    HW139099   4.023   0.205   0.534  0.9772  0.2702 -1.4335
 7893SOL    HW239100   4.033   0.073   0.609 -0.9941  1.1527  0.4458
 7894SOL     OW39101   5.457   0.620   1.188 -0.0751  0.1967 -0.0765
 7894SOL    HW139102   5.425   0.649   1.102  0.6358  2.2975  0.3190
 7894SOL    HW239103   5.415   0.680   1.250  1.0251  0.0178  0.8528
 7895SOL     OW39104   0.216   3.021   8.851  0.6927 -0.4659 -0.3251
 7895SOL    HW139105   0.196   3.090   8.787  1.7995  0.3175  0.1639
 7895SOL    HW239106   0.146   3.027   8.916  0.4583 -0.2063 -0.5980
 7896SOL     OW39107   0.618   0.061   2.420 -0.0288  0.2641  0.6604
 7896SOL    HW139108   0.561   0.068   2.343  0.7269 -0.0816  0.0569
 7896SOL    HW239109   0.629   0.151   2.450  0.0535  0.4576  0.0721
 7897SOL     OW39110   3.403   5.864   3.781 -0.1229  0.2527 -0.1929
 7897SOL    HW139111   3.440   5.840   3.697 -0.7197 -0.3959 -0.2718
 7897SOL    HW239112   3.317   5.820   3.784  0.5050 -0.9333  1.3459
 7898SOL     OW39113   1.904   0.547   0.247 -0.1478  0.4992 -0.1329
 7898SOL    HW139114   1.837   0.526   0.182 -0.3158 -0.1400  0.2404
 7898SOL    HW239115   1.901   0.474   0.309  1.8441 -0.2560 -0.8754
 7899SOL     OW39116   4.531   1.734   9.536  0.4149  0.2932  0.1944
 7899SOL    HW139117   4.602   1.700   9.590  0.6526  0.2624 -0.1353
 7899SOL    HW239118   4.508   1.817   9.577  0.3150  0.0784  0.5857
 7900SOL     OW39119   0.426   3.732   0.248  0.2175 -0.4916  0.2238
 7900SOL    HW139120   0.461   3.783   0.322  1.2325 -0.4630 -0.2758
 7900SOL    HW239121   0.495   3.734   0.182 -0.3696 -1.1948 -0.4216
 7901SOL     OW39122   1.559   2.394  12.249  0.2112 -0.6032  0.6060
 7901SOL    HW139123   1.617   2.319  12.245  1.6771  0.5296  0.0079
 7901SOL    HW239124   1.608   2.464  12.205 -2.2635 -0.0386 -1.3637
 7902SOL     OW39125   5.916   5.230   9.728 -0.4888  0.2707 -0.0267
 7902SOL    HW139126   5.941   5.313   9.769  0.1578  0.1011 -0.0791
 7902SOL    HW239127   5.824   5.242   9.705 -0.8486  0.4104  1.3835
 7903SOL     OW39128   4.680   3.544  10.694 -0.3417 -0.4426 -0.5881
 7903SOL    HW139129   4.736   3.529  10.618 -1.5005 -0.8806 -1.3706
 7903SOL    HW239130   4.741   3.563  10.765  0.7710 -0.3093 -1.5568
 7904SOL     OW39131   2.224   3.435   3.844  0.1200 -0.0536  0.1443
 7904SOL    HW139132   2.210   3.386   3.925  0.9807  1.4895  1.2375
 7904SOL    HW239133   2.148   3.493   3.837  1.4506  1.9035  1.3996
 7905SOL     OW39134   0.471   0.753   1.908  0.1903  0.1019  0.3845
 7905SOL    HW139135   0.424   0.682   1.865 -1.1089  0.1454  1.7170
 7905SOL    HW239136   0.422   0.832   1.885 -0.0381  0.2210  1.2968
 7906SOL     OW39137   4.142   2.271   0.437 -0.7947  0.1075 -0.0991
 7906SOL    HW139138   4.065   2.214   0.433  0.0571 -1.0958  0.2679
 7906SOL    HW239139   4.214   2.216   0.406 -0.2643  1.5769 -1.5717
 7907SOL     OW39140   1.369   2.861   0.383 -0.4655  0.3040 -0.4695
 7907SOL    HW139141   1.331   2.839   0.298 -0.1944  0.4685 -0.6342
 7907SOL    HW239142   1.366   2.779   0.433 -4.8746  1.2271  1.0098
 7908SOL     OW39143   3.667   4.719   0.386  0.2326 -0.3558 -0.1450
 7908SOL    HW139144   3.656   4.813   0.397  2.5542 -0.2723  1.8466
 7908SOL    HW239145   3.740   4.710   0.324  0.1920 -0.8528 -0.1286
 7909SOL     OW39146   3.555   5.023  11.253 -0.4230  0.0904 -0.4809
 7909SOL    HW139147   3.473   5.053  11.293 -0.3733 -0.3369 -0.0496
 7909SOL    HW239148   3.544   4.928  11.246  0.3897 -0.0757  0.3909
 7910SOL     OW39149   1.063   3.986   1.911 -0.5829 -0.3970  0.0393
 7910SOL    HW139150   1.022   4.063   1.951  4.0429  2.3098 -0.0831
 7910SOL    HW239151   1.064   4.006   1.817  1.2973 -0.2186  0.0825
 7911SOL     OW39152   2.706   5.197   9.810 -0.5585 -0.0474  0.0884
 7911SOL    HW139153   2.754   5.262   9.757  0.0309 -1.3111 -0.9532
 7911SOL    HW239154   2.717   5.228   9.900  2.2558 -0.2751 -0.1094
 7912SOL     OW39155   5.228   1.048   0.600  0.6596  0.4872  0.5491
 7912SOL    HW139156   5.275   1.019   0.522  0.6647 -0.7706  0.9970
 7912SOL    HW239157   5.291   1.035   0.671  0.0341 -0.1521  0.9996
 7913SOL     OW39158   5.887   2.621   2.323  0.1934  0.1506 -0.1731
 7913SOL    HW139159   5.838   2.572   2.389  1.3383  1.0787  1.3621
 7913SOL    HW239160   5.900   2.707   2.361  1.5240  0.4604 -1.2996
 7914SOL     OW39161   1.672   4.436  11.024 -0.4994 -0.0385 -0.1832
 7914SOL    HW139162   1.627   4.357  10.997 -2.1839  0.8912 -0.1886
 7914SOL    HW239163   1.764   4.410  11.033 -0.6850 -1.4760 -2.1648
 7915SOL     OW39164   1.938   3.299   9.457 -0.0243 -0.0171  0.0036
 7915SOL    HW139165   1.928   3.299   9.553 -1.6479  0.0350 -0.1449
 7915SOL    HW239166   1.901   3.383   9.430  3.4153  1.4356 -0.4174
 7916SOL     OW39167   3.056   1.141   4.163  0.2799  0.9611 -0.3391
 7916SOL    HW139168   3.077   1.203   4.093 -0.3787  0.9581 -0.5437
 7916SOL    HW239169   3.087   1.057   4.131  2.9754  1.4870  0.7629
 7917SOL     OW39170   3.653   0.694   8.395  0.2990  0.4332  0.1607
 7917SOL    HW139171   3.667   0.724   8.305 -0.4845  0.8061  0.1581
 7917SOL    HW239172   3.614   0.769   8.440  2.1568  0.7869  1.2434
 7918SOL     OW39173   0.721   0.153   4.258 -0.0782 -0.3466  0.3821
 7918SOL    HW139174   0.632   0.187   4.247  0.1428 -0.8115 -3.9375
 7918SOL    HW239175   0.709   0.065   4.295 -1.3542  0.0273  0.8775
 7919SOL     OW39176   4.851   4.157  10.256 -0.6013  0.7167  0.1756
 7919SOL    HW139177   4.892   4.183  10.339  1.2599  2.1252 -1.1587
 7919SOL    HW239178   4.787   4.226  10.238  0.4782  1.5399 -0.5932
 7920SOL     OW39179   2.097   4.096  12.467  0.3460  0.1269 -0.0383
 7920SOL    HW139180   2.136   4.152  12.535 -2.1455  1.1370  0.6155
 7920SOL    HW239181   2.058   4.158  12.405  0.3982 -0.8557 -1.0716
 7921SOL     OW39182   1.648   2.770   1.727  0.2201  0.2524  0.0375
 7921SOL    HW139183   1.661   2.864   1.730 -1.0323  0.4260  0.4665
 7921SOL    HW239184   1.554   2.758   1.742  1.0325 -1.3040  4.7670
 7922SOL     OW39185   1.018   5.104   2.792  0.4008  0.2034 -0.1753
 7922SOL    HW139186   0.949   5.107   2.725  1.1428 -0.9316 -1.0160
 7922SOL    HW239187   0.970   5.098   2.875 -0.5297 -0.9549 -0.7758
 7923SOL     OW39188   5.721   2.947   9.131  0.4471  0.0858 -0.8926
 7923SOL    HW139189   5.677   2.909   9.055 -0.8517  2.0240 -1.1535
 7923SOL    HW239190   5.689   3.038   9.134 -1.3305 -0.5371  3.2808
 7924SOL     OW39191   3.837   2.156   0.641 -0.5677 -0.0579  0.1109
 7924SOL    HW139192   3.804   2.246   0.646  1.6167  0.7427  0.3849
 7924SOL    HW239193   3.840   2.126   0.731 -1.3556 -0.4432  0.0152
 7925SOL     OW39194   0.392   2.912   1.734  0.2301  0.1905 -0.3492
 7925SOL    HW139195   0.390   2.881   1.824  2.0845  0.1478 -0.2950
 7925SOL    HW239196   0.310   2.959   1.722 -0.7869 -1.2378  0.8340
 7926SOL     OW39197   2.622   2.590   0.098 -0.2816  0.6314 -0.1136
 7926SOL    HW139198   2.546   2.575   0.154 -0.5293  0.0234 -0.6003
 7926SOL    HW239199   2.631   2.685   0.095  0.1875  0.6603  1.5445
 7927SOL     OW39200   1.752   0.444  10.649  0.1259 -0.1401 -0.3800
 7927SOL    HW139201   1.657   0.456  10.652  0.4854  2.8492  0.9156
 7927SOL    HW239202   1.770   0.418  10.559 -1.8650 -0.3376 -0.7465
 7928SOL     OW39203   2.503   5.913   3.081 -0.5345 -0.0787  0.0932
 7928SOL    HW139204   2.573   5.954   3.132 -0.7591 -0.3637  0.6283
 7928SOL    HW239205   2.481   5.979   3.015  1.5387 -0.7144 -1.2813
 7929SOL     OW39206   4.257   3.475   7.481  0.0543  0.1560  0.4233
 7929SOL    HW139207   4.317   3.545   7.505  0.2347 -0.0303  0.5165
 7929SOL    HW239208   4.309   3.395   7.489  0.0046  0.0598 -0.2166
 7930SOL     OW39209   2.472   4.282   9.861  0.8752 -0.4424 -0.0531
 7930SOL    HW139210   2.557   4.284   9.906  0.9952  0.8584 -0.3017
 7930SOL    HW239211   2.449   4.190   9.858  1.7419 -0.7119  1.0415
 7931SOL     OW39212   1.912   1.241   2.010  0.2649 -0.4450 -0.0409
 7931SOL    HW139213   1.903   1.157   1.964 -2.0893 -0.6918  0.8060
 7931SOL    HW239214   1.822   1.268   2.028  1.0446  1.6317  0.8720
 7932SOL     OW39215   3.208   5.026   0.527 -0.2659 -0.1417  0.5324
 7932SOL    HW139216   3.180   5.034   0.618 -0.2650 -2.4954  0.7799
 7932SOL    HW239217   3.248   5.110   0.506 -0.9434  0.6844  2.4715
 7933SOL     OW39218   4.154   2.152   1.102  0.3078  0.4894  0.3348
 7933SOL    HW139219   4.099   2.215   1.055  1.5512  0.6218 -0.9902
 7933SOL    HW239220   4.113   2.067   1.084  0.6413  0.5664 -0.8285
 7934SOL     OW39221   2.079   1.039   2.627 -0.6466  0.1470  0.4075
 7934SOL    HW139222   2.051   1.067   2.713 -0.6006 -1.2431  0.8978
 7934SOL    HW239223   2.170   1.009   2.639 -0.2536  0.9996 -0.3573
 7935SOL     OW39224   3.829   1.172   0.158  0.6608 -0.3421  0.3248
 7935SOL    HW139225   3.839   1.259   0.118  0.4824 -0.5526 -0.1895
 7935SOL    HW239226   3.912   1.128   0.140  1.3932  0.2956  2.0375
 7936SOL     OW39227   1.647   2.637   9.664 -0.0993  0.0305 -0.1307
 7936SOL    HW139228   1.586   2.586   9.718 -1.1706  0.2990 -1.0624
 7936SOL    HW239229   1.593   2.705   9.624  0.8320  0.3411 -0.8959
 7937SOL     OW39230   3.292   3.873   9.627  0.0274 -0.5722 -0.0519
 7937SOL    HW139231   3.368   3.814   9.636 -0.0112 -0.7818 -1.0721
 7937SOL    HW239232   3.289   3.894   9.534 -1.2738 -0.6924 -0.0387
 7938SOL     OW39233   2.960   0.099   8.009  0.1155  0.6635  0.2541
 7938SOL    HW139234   2.884   0.154   8.028 -0.2615 -0.3272  1.6647
 7938SOL    HW239235   3.014   0.153   7.951 -0.8538  2.0313  0.5849
 7939SOL     OW39236   2.926   0.498  11.956  0.3503 -0.5931  0.2997
 7939SOL    HW139237   2.966   0.581  11.980  2.5939 -2.1808  2.2828
 7939SOL    HW239238   2.835   0.520  11.935  1.5894  2.7416 -1.9483
 7940SOL     OW39239   5.074   1.391  10.612  0.7150  0.1313 -0.4840
 7940SOL    HW139240   5.121   1.308  10.618  1.2815  0.3273 -2.0918
 7940SOL    HW239241   5.117   1.447  10.677 -0.4228 -1.1741  1.4348
 7941SOL     OW39242   2.385   2.735   8.588  0.5723  0.3130  0.1563
 7941SOL    HW139243   2.381   2.652   8.540 -0.9002  0.4126  0.0723
 7941SOL    HW239244   2.351   2.714   8.675 -0.4381  0.9603 -0.0714
 7942SOL     OW39245   3.872   5.939  11.191  0.0700 -0.6005  0.5968
 7942SOL    HW139246   3.878   5.925  11.097 -0.6822  1.5819  0.1900
 7942SOL    HW239247   3.957   5.911  11.225  0.4940 -1.0214 -0.7745
 7943SOL     OW39248   1.415   1.142   2.545  0.5277  0.1510  0.6853
 7943SOL    HW139249   1.378   1.057   2.524 -0.0353  0.5466  0.0807
 7943SOL    HW239250   1.370   1.169   2.625 -0.0564  0.3581  0.2890
 7944SOL     OW39251   4.807   2.938   1.428 -0.4300  0.6240  0.0945
 7944SOL    HW139252   4.784   2.856   1.385  2.8163 -0.6512  0.5913
 7944SOL    HW239253   4.891   2.962   1.389 -0.0395  2.2550  1.8885
 7945SOL     OW39254   5.315   5.826  11.454 -0.1430 -0.0776 -0.0818
 7945SOL    HW139255   5.288   5.847  11.543  0.6195 -0.1934  0.1793
 7945SOL    HW239256   5.294   5.904  11.403  1.0524  0.6730  0.5433
 7946SOL     OW39257   0.056   0.646   1.278 -0.1184  0.0147 -0.5498
 7946SOL    HW139258  -0.032   0.680   1.261  0.7625  2.1848 -1.0429
 7946SOL    HW239259   0.086   0.697   1.354  1.3786  0.6099 -1.5193
 7947SOL     OW39260   1.727   3.953   0.442 -0.0173  0.7581 -0.0559
 7947SOL    HW139261   1.778   3.873   0.428  0.2719  1.0115 -0.4684
 7947SOL    HW239262   1.737   3.973   0.535  3.6379  2.8584 -0.8345
 7948SOL     OW39263   5.368   1.159  11.230 -0.1171  0.2356 -0.0673
 7948SOL    HW139264   5.391   1.251  11.242  1.9275 -0.3474  0.7534
 7948SOL    HW239265   5.390   1.140  11.139  1.1150  0.1227  0.2444
 7949SOL     OW39266   0.064   1.298   0.576  0.2823  0.0805 -0.0315
 7949SOL    HW139267   0.062   1.223   0.517  2.9265 -0.2835  0.3063
 7949SOL    HW239268   0.155   1.306   0.603 -0.4238  1.8025  2.0254
 7950SOL     OW39269   2.436   1.712   2.552 -0.4549 -0.0902  0.2742
 7950SOL    HW139270   2.342   1.728   2.549 -0.2827  0.6626 -2.2191
 7950SOL    HW239271   2.444   1.617   2.541 -0.9266 -0.2110  0.9228
 7951SOL     OW39272   4.427   2.040   1.074  0.4638  0.2879  0.2365
 7951SOL    HW139273   4.474   2.115   1.037  1.9985  0.0079  1.5352
 7951SOL    HW239274   4.338   2.071   1.089  1.0172  1.7647  0.5009
 7952SOL     OW39275   3.885   0.860   2.902  0.5194  0.2271  0.6510
 7952SOL    HW139276   3.841   0.939   2.933 -0.3100  0.7743 -1.7504
 7952SOL    HW239277   3.873   0.862   2.807  0.4488 -2.8010  0.5326
 7953SOL     OW39278   1.702   4.638   3.143  0.0550 -0.1605 -0.1370
 7953SOL    HW139279   1.691   4.649   3.237 -0.6367  1.0531 -0.3411
 7953SOL    HW239280   1.795   4.656   3.127 -0.6154  3.6782 -0.1759
 7954SOL     OW39281   3.260   4.348   8.858  0.0404  0.0237 -0.2949
 7954SOL    HW139282   3.312   4.365   8.779 -0.5226 -0.5688 -0.7990
 7954SOL    HW239283   3.267   4.429   8.909  2.7450 -0.5801  0.3949
 7955SOL     OW39284   1.684   0.302   2.210 -0.2715  0.4213  0.2272
 7955SOL    HW139285   1.695   0.342   2.124  1.8590 -1.0964 -0.2318
 7955SOL    HW239286   1.750   0.344   2.265  0.9899 -1.4032  0.1173
 7956SOL     OW39287   4.343   5.583   8.466 -0.5652  0.2589  0.2945
 7956SOL    HW139288   4.329   5.559   8.375  1.8028 -1.3161  0.2937
 7956SOL    HW239289   4.321   5.676   8.471 -3.0718 -0.2085 -1.3021
 7957SOL     OW39290   4.968   4.734   0.520 -0.3862 -0.6025  0.4880
 7957SOL    HW139291   5.006   4.803   0.465 -0.3712  0.0011  1.2388
 7957SOL    HW239292   4.874   4.754   0.522 -0.2800 -0.1444  1.3273
 7958SOL     OW39293   1.116   1.487   8.367  0.7902  0.1773 -0.2056
 7958SOL    HW139294   1.163   1.568   8.386  1.8844 -1.1411  3.0570
 7958SOL    HW239295   1.175   1.440   8.307 -0.0355  1.9145 -2.4328
 7959SOL     OW39296   4.056   1.611  10.089  0.3597 -0.7385 -0.0526
 7959SOL    HW139297   3.972   1.595  10.131 -0.0573 -0.6969 -0.8516
 7959SOL    HW239298   4.050   1.700  10.055  1.2355 -0.2530  1.0477
 7960SOL     OW39299   0.346   0.066   8.784  0.2553 -0.5596  0.0149
 7960SOL    HW139300   0.273   0.004   8.780 -0.6089  0.4339  0.2351
 7960SOL    HW239301   0.329   0.117   8.863  0.3693  0.6971 -0.7670
 7961SOL     OW39302   2.501   5.768   2.033  0.5125 -0.1258 -0.2941
 7961SOL    HW139303   2.480   5.810   2.116  1.1228 -1.1075  0.3651
 7961SOL    HW239304   2.437   5.803   1.971  0.0398  0.5878  0.5976
 7962SOL     OW39305   1.240   1.681   3.606 -0.4608  0.3523 -0.2533
 7962SOL    HW139306   1.207   1.771   3.603 -1.7257 -0.0739  0.5924
 7962SOL    HW239307   1.166   1.627   3.579  1.0196 -0.2998 -3.2577
 7963SOL     OW39308   4.434   3.597   2.540 -0.5945 -0.2543 -0.6008
 7963SOL    HW139309   4.363   3.645   2.581  0.9434  1.2685  0.3104
 7963SOL    HW239310   4.435   3.512   2.585  0.3053  0.9563  1.6894
 7964SOL     OW39311   0.299   3.491   2.252  0.3995 -0.3604  0.3529
 7964SOL    HW139312   0.299   3.427   2.180 -0.3358  0.3059 -0.2483
 7964SOL    HW239313   0.359   3.560   2.223  0.3746 -0.2610  0.5367
 7965SOL     OW39314   5.505   5.433   2.718  0.5427 -0.4408  0.0387
 7965SOL    HW139315   5.564   5.397   2.783  0.6421 -0.1655  0.1043
 7965SOL    HW239316   5.417   5.414   2.751  0.5927 -0.2772  0.2662
 7966SOL     OW39317   4.202   1.941  10.234  0.3661  0.5003 -0.3871
 7966SOL    HW139318   4.183   2.013  10.174  0.0220  0.6133 -0.1461
 7966SOL    HW239319   4.116   1.911  10.264  0.5688  1.0862  0.8059
 7967SOL     OW39320   2.484   2.512   2.823 -0.2647  1.2417  0.0970
 7967SOL    HW139321   2.408   2.566   2.802 -0.8191  0.8555  1.0821
 7967SOL    HW239322   2.537   2.514   2.743 -2.5200 -0.5721 -1.5189
 7968SOL     OW39323   2.447   3.832   8.930 -0.2151 -0.1060  0.0153
 7968SOL    HW139324   2.402   3.916   8.944  0.4422  0.0519  1.2708
 7968SOL    HW239325   2.517   3.832   8.994  1.1957 -0.6404 -1.4905
 7969SOL     OW39326   3.660   0.374   1.199  0.1339  0.4704  0.1495
 7969SOL    HW139327   3.698   0.398   1.114 -0.8177 -0.2072 -0.4774
 7969SOL    HW239328   3.600   0.446   1.219 -0.6626 -0.0285 -0.4125
 7970SOL     OW39329   3.029   0.889   3.169 -0.1446  0.1333 -0.0707
 7970SOL    HW139330   3.107   0.873   3.115 -0.2537 -0.9648  0.0887
 7970SOL    HW239331   3.061   0.942   3.242  0.3502  0.1187 -0.2711
 7971SOL     OW39332   4.999   2.726  11.319 -0.2825 -0.3926 -0.2891
 7971SOL    HW139333   5.024   2.649  11.369 -0.4765 -0.2798 -0.0159
 7971SOL    HW239334   4.908   2.744  11.344  0.3397  1.0093  1.0514
 7972SOL     OW39335   5.940   3.063   2.108  0.0090 -0.1995  0.1070
 7972SOL    HW139336   5.926   2.970   2.089  0.3251  0.0536 -1.4593
 7972SOL    HW239337   5.860   3.105   2.077  0.3493  0.1841 -0.2503
 7973SOL     OW39338   1.622   3.430   4.345 -0.4556  0.3737  0.0767
 7973SOL    HW139339   1.538   3.423   4.299 -0.5530  0.2265  0.2745
 7973SOL    HW239340   1.599   3.429   4.437 -0.3207  1.4962  0.1290
 7974SOL     OW39341   1.662   3.948   7.926 -0.1898 -0.4098  0.1224
 7974SOL    HW139342   1.671   4.008   8.000 -0.9484 -1.0232  0.7155
 7974SOL    HW239343   1.717   3.873   7.948  0.5021 -0.1015 -0.4749
 7975SOL     OW39344   0.050   1.464   8.373  0.4152  0.4876 -0.2299
 7975SOL    HW139345   0.122   1.417   8.331 -0.4147  0.5541 -1.7732
 7975SOL    HW239346  -0.024   1.452   8.314 -1.1521 -0.5157  1.8832
 7976SOL     OW39347   1.050   3.924  12.102 -0.7136 -0.3503 -0.1635
 7976SOL    HW139348   0.963   3.951  12.131 -0.1267  0.4041  0.9259
 7976SOL    HW239349   1.072   3.986  12.033  1.2285  2.9951  3.2972
 7977SOL     OW39350   0.708   4.886   0.906 -0.2602  0.0800  0.3697
 7977SOL    HW139351   0.742   4.948   0.842  1.4092 -1.1022  0.0613
 7977SOL    HW239352   0.782   4.868   0.964 -0.8385 -1.2768  0.7130
 7978SOL     OW39353   2.312   4.163  10.175 -0.4618 -0.6227  0.5770
 7978SOL    HW139354   2.299   4.078  10.217  1.6608 -0.0884  2.4620
 7978SOL    HW239355   2.351   4.143  10.090 -0.0500 -1.5328  0.9731
 7979SOL     OW39356   1.166   3.580   0.990 -0.0234 -0.0053  0.3024
 7979SOL    HW139357   1.224   3.519   0.944  0.5285 -0.8736  2.1214
 7979SOL    HW239358   1.221   3.619   1.058 -1.2305  0.0991  1.2354
 7980SOL     OW39359   0.798   5.063   9.963  0.0167 -0.4798 -0.1241
 7980SOL    HW139360   0.793   4.993  10.029  1.7423 -1.4831 -1.0372
 7980SOL    HW239361   0.741   5.132   9.997 -0.3181 -1.6146  1.6639
 7981SOL     OW39362   3.157   3.524  12.115 -0.2017 -0.5488 -0.9667
 7981SOL    HW139363   3.115   3.592  12.064 -2.7206 -1.9430 -0.8317
 7981SOL    HW239364   3.179   3.456  12.052 -3.2299 -2.2315 -0.3037
 7982SOL     OW39365   1.730   2.353   2.052 -0.0400  0.6574 -0.1574
 7982SOL    HW139366   1.734   2.416   1.980  2.1126  0.9051  0.1699
 7982SOL    HW239367   1.783   2.279   2.022 -0.3763  0.1109  0.5729
 7983SOL     OW39368   1.807   2.436   8.798 -0.5151 -0.0608  0.2919
 7983SOL    HW139369   1.722   2.472   8.771 -0.2740  0.1535 -0.1901
 7983SOL    HW239370   1.795   2.413   8.890 -1.1469 -0.1805  0.1842
 7984SOL     OW39371   0.375   4.222  10.876  0.3656 -0.5853  0.2660
 7984SOL    HW139372   0.396   4.238  10.968 -0.3439  1.7341  0.0539
 7984SOL    HW239373   0.427   4.145  10.852  3.8601  1.3047  1.4638
 7985SOL     OW39374   3.034   5.567   9.565  0.2524 -0.2349  0.1458
 7985SOL    HW139375   3.098   5.499   9.542 -0.6452 -1.1545  0.2873
 7985SOL    HW239376   3.078   5.621   9.630  0.1834 -2.0383  1.7240
 7986SOL     OW39377   2.766   4.774  10.985  0.1084 -0.2683  0.8044
 7986SOL    HW139378   2.760   4.764  10.890 -2.8370  0.4571  0.8640
 7986SOL    HW239379   2.735   4.691  11.020 -2.9669  0.9355  1.1113
 7987SOL     OW39380   0.092   0.300  11.206  0.3915 -0.5777  0.1258
 7987SOL    HW139381   0.077   0.291  11.112  0.2437 -0.1287  0.1077
 7987SOL    HW239382   0.175   0.346  11.213 -0.8093  1.6048  0.2043
 7988SOL     OW39383   2.408   4.435  -0.009  0.0042 -0.6003  0.3410
 7988SOL    HW139384   2.428   4.342  -0.001  0.6060 -0.4121  1.0361
 7988SOL    HW239385   2.480   4.479   0.036 -0.1842  0.2091 -0.1458
 7989SOL     OW39386   4.447   1.386  11.015  0.0269 -0.1548  0.2932
 7989SOL    HW139387   4.382   1.441  10.971  0.7993 -0.0232 -0.7078
 7989SOL    HW239388   4.447   1.417  11.106  0.5369  1.5968 -0.2837
 7990SOL     OW39389   1.879   2.793  12.061 -0.1323  0.1894  0.0417
 7990SOL    HW139390   1.848   2.780  11.972 -0.5422 -1.0370  0.3552
 7990SOL    HW239391   1.969   2.824  12.051  0.4249 -1.6378 -0.7703
 7991SOL     OW39392   1.536   5.428   3.513  0.2111  0.1491 -0.4962
 7991SOL    HW139393   1.510   5.336   3.519  0.2527  0.2338  1.1362
 7991SOL    HW239394   1.478   5.465   3.447 -0.5902 -0.7632 -0.3137
 7992SOL     OW39395   4.487   0.265  12.005  0.2068 -0.0668 -0.3872
 7992SOL    HW139396   4.489   0.188  12.061 -0.3870  0.0697 -0.1719
 7992SOL    HW239397   4.530   0.237  11.924  1.9108  0.0098  0.4677
 7993SOL     OW39398   1.173   3.730  12.238 -0.4330  0.9116 -0.0579
 7993SOL    HW139399   1.161   3.803  12.177 -0.1900  0.8848 -0.1432
 7993SOL    HW239400   1.251   3.753  12.287  0.4079  0.1000 -0.9880
 7994SOL     OW39401   1.734   2.083   3.110 -0.2998 -0.3081  0.2864
 7994SOL    HW139402   1.745   2.017   3.178 -2.4620 -0.9815  0.0321
 7994SOL    HW239403   1.765   2.164   3.150 -1.8479 -0.6242  2.2162
 7995SOL     OW39404   2.979   3.776   8.399  0.8162 -0.5140 -0.3269
 7995SOL    HW139405   2.905   3.785   8.339  0.0015  0.2301  0.7739
 7995SOL    HW239406   2.957   3.702   8.454  0.5260  0.1880  0.5098
 7996SOL     OW39407   4.616   3.355   9.098  0.4590  0.5550  0.6380
 7996SOL    HW139408   4.695   3.302   9.084  0.6306  0.9653  0.0085
 7996SOL    HW239409   4.604   3.356   9.193 -1.7087 -3.7361  0.5430
 7997SOL     OW39410   0.747   4.163  12.198 -0.0241  0.3745  0.0433
 7997SOL    HW139411   0.780   4.196  12.115 -0.4864  0.7302  0.0037
 7997SOL    HW239412   0.810   4.196  12.263  0.3999 -0.0002 -0.1714
 7998SOL     OW39413   0.442   5.300   0.741  0.2570 -0.0578 -0.4289
 7998SOL    HW139414   0.501   5.233   0.707  0.0463 -0.4723  0.0204
 7998SOL    HW239415   0.362   5.290   0.688 -0.0178 -0.6040  0.0830
 7999SOL     OW39416   3.399   2.778   1.971 -0.1327  0.5183 -0.4579
 7999SOL    HW139417   3.455   2.848   2.006 -0.4519  0.4997  0.0884
 7999SOL    HW239418   3.353   2.744   2.047 -2.2446  1.7340 -1.1562
 8000SOL     OW39419   5.510   5.643   0.849 -0.1973 -0.3186 -0.3356
 8000SOL    HW139420   5.425   5.599   0.856 -1.0484  1.2599 -0.5700
 8000SOL    HW239421   5.515   5.672   0.758  0.1453  0.4811 -0.0651
 8001SOL     OW39422   2.795   5.447   8.050  0.2652  0.0855  0.2767
 8001SOL    HW139423   2.711   5.492   8.043  1.1793  1.5806 -1.4913
 8001SOL    HW239424   2.781   5.363   8.007 -1.0667 -0.8276  2.4053
 8002SOL     OW39425   2.150   1.704   1.000  0.0305  0.0337 -0.1637
 8002SOL    HW139426   2.236   1.681   0.965 -0.6922 -1.6251 -0.8988
 8002SOL    HW239427   2.110   1.757   0.932  0.8698  1.7636  0.6420
 8003SOL     OW39428   0.523   2.687   2.626 -0.7218  0.4383 -0.4507
 8003SOL    HW139429   0.466   2.682   2.703 -1.6686  0.2764 -1.1465
 8003SOL    HW239430   0.600   2.736   2.655  0.1430 -1.9267  1.3320
 8004SOL     OW39431   4.590   3.885   2.037  0.2572  0.2306 -0.0935
 8004SOL    HW139432   4.530   3.810   2.040  1.0860 -0.5636 -2.2324
 8004SOL    HW239433   4.657   3.865   2.102 -0.5993  0.0754  0.7526
 8005SOL     OW39434   1.696   3.328   2.767  0.1351  0.1267  0.1940
 8005SOL    HW139435   1.741   3.389   2.708 -0.7736 -0.2720 -0.9340
 8005SOL    HW239436   1.606   3.359   2.768  0.0868 -0.0397  1.1716
 8006SOL     OW39437   3.720   1.639   3.092 -0.3172 -0.1478 -0.3838
 8006SOL    HW139438   3.679   1.658   3.008 -0.4979  1.0697 -0.0219
 8006SOL    HW239439   3.814   1.655   3.077 -0.3035 -0.2789 -0.4471
 8007SOL     OW39440   2.414   0.556   9.205 -0.2326  0.4221 -0.3928
 8007SOL    HW139441   2.434   0.645   9.233 -0.6226 -0.0269  1.3899
 8007SOL    HW239442   2.353   0.523   9.271  0.2545 -1.3152 -0.7756
 8008SOL     OW39443   4.995   4.012   0.234 -0.1575 -0.1495 -0.5599
 8008SOL    HW139444   4.974   4.061   0.313  1.6164 -1.5956  0.8715
 8008SOL    HW239445   4.938   3.935   0.237  1.7016 -1.5262  0.7126
 8009SOL     OW39446   3.828   3.216  12.046  0.0891 -0.0858  0.2341
 8009SOL    HW139447   3.794   3.161  12.117 -0.5110 -1.8144 -1.3348
 8009SOL    HW239448   3.882   3.282  12.090 -0.6392 -0.8371  2.3176
 8010SOL     OW39449   0.734   2.918   4.631  0.4525 -0.4170  0.1578
 8010SOL    HW139450   0.719   2.825   4.612 -0.6182 -0.6009  1.7801
 8010SOL    HW239451   0.648   2.950   4.659  1.2543  0.6051  1.4485
 8011SOL     OW39452   0.606   1.920   1.517  0.0893 -0.2946 -0.3022
 8011SOL    HW139453   0.518   1.911   1.554  0.1818 -0.5378 -0.1449
 8011SOL    HW239454   0.641   2.000   1.557  0.0481 -0.3517 -0.1513
 8012SOL     OW39455   0.503   5.582  11.571 -0.1296  0.1293 -0.2188
 8012SOL    HW139456   0.594   5.581  11.542  0.7656  0.4079  2.4539
 8012SOL    HW239457   0.471   5.669  11.549  0.2004 -0.0213 -1.2983
 8013SOL     OW39458   0.177   4.441  10.142 -0.3867  0.0590 -0.1394
 8013SOL    HW139459   0.206   4.351  10.132 -0.2815  0.3071 -2.3509
 8013SOL    HW239460   0.228   4.490  10.077 -0.2249  1.7530  1.2304
 8014SOL     OW39461   4.605   2.748  11.879 -0.1336 -0.3997  0.3983
 8014SOL    HW139462   4.541   2.764  11.810 -0.5538  1.0760  1.1199
 8014SOL    HW239463   4.553   2.737  11.959  0.4576  0.2046  0.8774
 8015SOL     OW39464   5.051   4.611   8.665 -0.3735 -0.0782 -0.1333
 8015SOL    HW139465   4.961   4.592   8.636 -0.4052 -1.8731  1.0492
 8015SOL    HW239466   5.042   4.688   8.722 -1.3540 -1.0296  1.0147
 8016SOL     OW39467   2.609   3.975   0.898  0.2833  0.6193 -0.2432
 8016SOL    HW139468   2.644   3.925   0.972  1.5339  1.9938  0.1236
 8016SOL    HW239469   2.514   3.970   0.908  0.4407  1.4281  1.9155
 8017SOL     OW39470   2.746   1.373  11.625 -0.0088 -0.2951  0.6122
 8017SOL    HW139471   2.665   1.330  11.595  0.4494 -1.1681  0.5939
 8017SOL    HW239472   2.815   1.329  11.576  0.5625 -0.2188  1.3482
 8018SOL     OW39473   3.720   3.342   9.636  0.5530  0.1657 -0.2214
 8018SOL    HW139474   3.753   3.431   9.631  2.0009 -0.2515  1.4095
 8018SOL    HW239475   3.692   3.322   9.547  1.6938  1.6833 -0.9455
 8019SOL     OW39476   1.654   3.905   1.884  0.1292 -0.1012  0.4052
 8019SOL    HW139477   1.697   3.849   1.820  1.1982 -1.2243  2.0678
 8019SOL    HW239478   1.619   3.978   1.832  1.6753 -0.5562 -1.3441
 8020SOL     OW39479   2.666   4.065   2.852  0.4045  0.4682  0.3007
 8020SOL    HW139480   2.603   4.009   2.897 -0.3929  1.0270 -0.1104
 8020SOL    HW239481   2.695   4.013   2.778  3.5253 -1.4225  2.7282
 8021SOL     OW39482   3.789   3.397  10.710 -0.2701 -0.0931 -0.4932
 8021SOL    HW139483   3.765   3.311  10.675 -0.2617 -0.0897 -0.5089
 8021SOL    HW239484   3.752   3.459  10.647 -1.3765 -0.0453  0.1938
 8022SOL     OW39485   0.762   3.478   7.916  0.5433 -0.1670 -0.0276
 8022SOL    HW139486   0.744   3.463   7.823 -0.0499 -1.1848  0.2409
 8022SOL    HW239487   0.701   3.547   7.942  0.7084  0.1185 -0.3805
 8023SOL     OW39488   1.553   2.597   8.604  0.5130  0.0404  0.1039
 8023SOL    HW139489   1.517   2.681   8.635 -0.8777 -0.4090 -0.2379
 8023SOL    HW239490   1.523   2.590   8.514  3.0614  0.4984 -0.8131
 8024SOL     OW39491   3.637   2.562   9.222  0.1276 -0.4834 -0.5186
 8024SOL    HW139492   3.647   2.638   9.279 -2.7011 -0.9396  0.6858
 8024SOL    HW239493   3.687   2.583   9.144  1.3549  1.5753  0.7903
 8025SOL     OW39494   2.699   0.618   1.566 -0.8251  0.0264  0.8954
 8025SOL    HW139495   2.794   0.603   1.566 -1.1345 -2.1114  2.2292
 8025SOL    HW239496   2.687   0.693   1.509  1.8093  1.1327  1.7215
 8026SOL     OW39497   0.434   4.854   1.622 -0.1413  0.1273 -0.2212
 8026SOL    HW139498   0.343   4.871   1.596  0.3326  0.7953 -1.5086
 8026SOL    HW239499   0.478   4.938   1.612  0.6891 -0.2555  0.1262
 8027SOL     OW39500   2.399   0.183   0.072 -0.3524 -0.2222  0.2827
 8027SOL    HW139501   2.439   0.096   0.074 -2.2289 -1.0878  0.8517
 8027SOL    HW239502   2.388   0.207   0.164  1.5749  1.3157  0.1553
 8028SOL     OW39503   3.526   0.996  12.218 -0.4368 -0.4103 -0.1303
 8028SOL    HW139504   3.615   1.024  12.240 -1.2989  1.8141  0.6170
 8028SOL    HW239505   3.510   0.920  12.275  0.6215 -0.2118  0.4391
 8029SOL     OW39506   3.506   4.930  12.309  0.0927  0.6293  0.9505
 8029SOL    HW139507   3.551   4.860  12.261 -1.0244  0.2656  0.4333
 8029SOL    HW239508   3.433   4.887  12.352 -1.2431  1.6424 -0.2452
 8030SOL     OW39509   1.155   5.723   3.795  0.1642 -0.0548 -0.1144
 8030SOL    HW139510   1.073   5.720   3.845 -0.3567 -3.2529 -1.0487
 8030SOL    HW239511   1.188   5.634   3.798  2.3727  0.6665 -1.8510
 8031SOL     OW39512   3.744   4.267   9.288 -0.0406 -0.3398  0.2872
 8031SOL    HW139513   3.713   4.252   9.198  0.3588  0.1184  0.0702
 8031SOL    HW239514   3.665   4.287   9.337 -0.0499  1.2706 -0.3568
 8032SOL     OW39515   2.945   3.817  10.977 -0.4416 -0.5298 -0.3698
 8032SOL    HW139516   2.875   3.775  10.927 -0.2769 -0.3697 -0.7420
 8032SOL    HW239517   2.964   3.756  11.047 -0.6023 -0.8106 -0.5675
 8033SOL     OW39518   2.813   0.343   8.118 -0.2276  0.0803  0.3364
 8033SOL    HW139519   2.764   0.343   8.200 -2.6319  1.1622 -1.0454
 8033SOL    HW239520   2.860   0.427   8.118 -1.2377  0.6535  0.0445
 8034SOL     OW39521   0.256   3.496   0.989  0.5435  0.1533 -0.4891
 8034SOL    HW139522   0.324   3.556   0.956 -0.8603  2.4287  0.6398
 8034SOL    HW239523   0.254   3.512   1.083 -0.8914 -0.5914 -0.3864
 8035SOL     OW39524   2.453   2.179  12.356 -0.0060  1.0181 -0.4741
 8035SOL    HW139525   2.418   2.229  12.429 -1.6862 -1.9069  0.7937
 8035SOL    HW239526   2.386   2.184  12.288 -1.1277 -1.1406  0.4209
 8036SOL     OW39527   1.524   2.971   2.460  0.9036  0.8170  0.0210
 8036SOL    HW139528   1.554   2.883   2.437 -2.1516 -0.3132  0.2078
 8036SOL    HW239529   1.601   3.013   2.499  3.1110 -0.9038 -2.3094
 8037SOL     OW39530   2.280   2.630   1.832 -0.2488  0.3655  0.3257
 8037SOL    HW139531   2.188   2.657   1.842 -0.5800 -0.4561 -0.3973
 8037SOL    HW239532   2.328   2.712   1.827 -1.2454  0.8440 -1.9453
 8038SOL     OW39533   2.382   4.415   9.150  0.1046 -0.3790  0.1180
 8038SOL    HW139534   2.305   4.472   9.155  0.7123  0.3364  1.6275
 8038SOL    HW239535   2.386   4.373   9.236  2.8815  1.5478  1.0059
 8039SOL     OW39536   5.343   5.521   8.608 -0.2992 -0.4149 -0.2380
 8039SOL    HW139537   5.404   5.588   8.639 -0.4357 -0.3546 -0.0980
 8039SOL    HW239538   5.340   5.533   8.513  0.5142 -0.9283 -0.3339
 8040SOL     OW39539   0.862   2.753   0.654 -0.0726  0.4087 -0.0252
 8040SOL    HW139540   0.859   2.660   0.673  0.4276  0.8929  2.5311
 8040SOL    HW239541   0.793   2.766   0.589 -0.2663 -1.6906 -0.2677
 8041SOL     OW39542   0.024   5.775   0.434  0.4527 -0.2031 -0.0716
 8041SOL    HW139543   0.066   5.811   0.355  0.3175 -0.1918 -0.1390
 8041SOL    HW239544  -0.023   5.698   0.402  0.6751 -0.3924  0.0573
 8042SOL     OW39545   2.988   2.459   0.953 -0.1361  0.2692 -0.5192
 8042SOL    HW139546   2.932   2.412   1.014  0.2173  0.6460  0.0911
 8042SOL    HW239547   3.002   2.397   0.881 -0.9516  0.0111 -0.4555
 8043SOL     OW39548   3.877   1.486   7.650 -0.3533  0.0501  0.7903
 8043SOL    HW139549   3.897   1.544   7.576  0.7621 -0.7395  0.4560
 8043SOL    HW239550   3.958   1.483   7.701 -1.5165  1.6624  2.8286
 8044SOL     OW39551   3.824   2.615  11.590  0.1221 -0.1121 -0.3514
 8044SOL    HW139552   3.857   2.548  11.650  0.4859 -0.1745 -0.6143
 8044SOL    HW239553   3.759   2.663  11.640  0.9442  0.3056  0.3294
 8045SOL     OW39554   4.471   0.113   2.075 -0.4203  0.2868  0.1448
 8045SOL    HW139555   4.396   0.165   2.046 -1.1499 -1.4565 -1.2203
 8045SOL    HW239556   4.446   0.080   2.161 -0.9853  0.1942 -0.0537
 8046SOL     OW39557   0.694   2.638   9.734  0.4156 -0.0056 -0.6631
 8046SOL    HW139558   0.726   2.654   9.645 -0.5962  1.0131 -0.8545
 8046SOL    HW239559   0.692   2.725   9.775  0.6840 -0.4382  0.2971
 8047SOL     OW39560   2.900   3.213  10.039  0.2665 -0.5337 -0.3395
 8047SOL    HW139561   2.825   3.197   9.982 -0.1449  0.0231  0.0389
 8047SOL    HW239562   2.966   3.253   9.982  0.5002 -1.5560 -0.8031
 8048SOL     OW39563   1.005   3.951   9.686 -0.0967  0.3246  0.0863
 8048SOL    HW139564   1.042   4.017   9.745 -3.4223  2.0495  0.4087
 8048SOL    HW239565   0.939   3.999   9.636 -3.0633 -2.8422  0.7441
 8049SOL     OW39566   4.536   0.794   0.442  0.4804  0.2512 -0.1314
 8049SOL    HW139567   4.581   0.710   0.444 -0.1049 -0.1349 -2.0536
 8049SOL    HW239568   4.606   0.859   0.457  0.8868 -0.5721  1.5819
 8050SOL     OW39569   0.243   2.343   1.362  0.2983 -0.2020  0.0763
 8050SOL    HW139570   0.285   2.311   1.442 -1.1521 -1.1197  0.4798
 8050SOL    HW239571   0.315   2.351   1.299  0.9880 -2.3726  0.5463
 8051SOL     OW39572   1.139   0.298   0.373 -0.1065  0.5870  0.5115
 8051SOL    HW139573   1.134   0.296   0.278  1.3654 -1.5072  0.4447
 8051SOL    HW239574   1.048   0.293   0.402 -0.4868 -0.0244 -0.7670
 8052SOL     OW39575   3.977   1.298  11.420 -0.0574 -0.5083  0.2917
 8052SOL    HW139576   4.008   1.248  11.496 -0.1788 -1.4338 -0.2576
 8052SOL    HW239577   3.900   1.345  11.452  0.1116 -0.5925  0.8413
 8053SOL     OW39578   1.332   1.481  10.797  0.0842  0.2292 -0.4404
 8053SOL    HW139579   1.243   1.487  10.762  0.0576  1.3597 -0.2177
 8053SOL    HW239580   1.320   1.474  10.892  0.1959 -1.2739 -0.5296
 8054SOL     OW39581   3.827   0.195   2.345 -0.4149  0.7753 -0.0967
 8054SOL    HW139582   3.762   0.212   2.413  0.8450 -0.5067  1.4517
 8054SOL    HW239583   3.906   0.239   2.375 -0.0459  0.8136 -1.0886
 8055SOL     OW39584   1.453   2.519   3.011 -0.0646  0.6579  0.5872
 8055SOL    HW139585   1.539   2.479   3.007 -0.4514 -0.2652  1.3797
 8055SOL    HW239586   1.437   2.533   3.104 -1.6650 -1.1679  0.6229
 8056SOL     OW39587   1.860   2.323  11.139 -0.2022 -0.6229 -0.3524
 8056SOL    HW139588   1.857   2.272  11.219  0.4313 -1.0900 -0.6251
 8056SOL    HW239589   1.848   2.414  11.168 -1.0264 -0.8915  0.1580
 8057SOL     OW39590   4.693   1.994  10.359 -0.3104 -0.3129  0.4088
 8057SOL    HW139591   4.643   1.935  10.304 -2.0866  2.0500 -0.5990
 8057SOL    HW239592   4.768   2.019  10.306 -0.0958 -0.8587  0.4521
 8058SOL     OW39593   5.067   0.862   8.881  0.3597  0.3942 -0.3455
 8058SOL    HW139594   5.097   0.771   8.885  2.4856  1.0022 -1.5174
 8058SOL    HW239595   5.125   0.909   8.941 -0.4212  1.0608 -0.1046
 8059SOL     OW39596   0.560   1.978   0.567  0.8310  0.1234 -0.2634
 8059SOL    HW139597   0.501   1.903   0.556 -0.1655  1.0750 -1.5639
 8059SOL    HW239598   0.567   2.015   0.479  2.5489  0.6513  0.0851
 8060SOL     OW39599   5.262   4.268  10.696  0.0041 -0.2615 -0.4765
 8060SOL    HW139600   5.338   4.214  10.718  1.6144  1.0987 -2.4728
 8060SOL    HW239601   5.300   4.352  10.670 -2.1499  0.1588 -2.3706
 8061SOL     OW39602   1.213   4.399   1.559  0.3887  0.4502 -0.5440
 8061SOL    HW139603   1.160   4.354   1.492  1.6229 -0.8045 -0.7165
 8061SOL    HW239604   1.150   4.450   1.609 -1.0301 -1.1420 -0.6317
 8062SOL     OW39605   5.257   1.717   0.708  0.2446 -0.2819 -0.6574
 8062SOL    HW139606   5.171   1.676   0.718 -0.9887  2.3554 -0.3022
 8062SOL    HW239607   5.284   1.692   0.619 -1.0780 -0.7403 -0.9453
 8063SOL     OW39608   0.181   5.046  10.677  0.3036  0.4301 -0.5102
 8063SOL    HW139609   0.210   4.963  10.639 -1.7859 -0.6617  0.1649
 8063SOL    HW239610   0.089   5.053  10.651  0.1704  2.0072  0.3331
 8064SOL     OW39611   3.443   4.558   1.481  0.0096  0.5144  0.3605
 8064SOL    HW139612   3.506   4.608   1.532  1.2674  0.2732 -0.9289
 8064SOL    HW239613   3.439   4.603   1.397  0.7409 -1.2067 -0.6223
 8065SOL     OW39614   3.763   4.497   0.952  0.3263 -0.0653  0.3885
 8065SOL    HW139615   3.742   4.424   1.011  0.5159 -2.2053 -2.1182
 8065SOL    HW239616   3.733   4.468   0.866  1.7254  2.2330 -0.9232
 8066SOL     OW39617   2.871   4.855   8.922  0.7007  0.0435  0.1247
 8066SOL    HW139618   2.887   4.864   8.827 -0.2567  1.2571  0.0682
 8066SOL    HW239619   2.919   4.928   8.961  2.5235 -1.4494  0.7546
 8067SOL     OW39620   2.728   3.247   9.538  0.5117 -0.9251  0.3910
 8067SOL    HW139621   2.807   3.299   9.522 -0.3595 -0.2072 -1.7179
 8067SOL    HW239622   2.660   3.290   9.487 -1.5839 -0.8044  3.2167
 8068SOL     OW39623   5.263   2.847  12.429  0.2129 -0.1807  1.0652
 8068SOL    HW139624   5.234   2.757  12.415 -0.3380  0.1839 -0.1818
 8068SOL    HW239625   5.311   2.870  12.350  0.5879  0.5253  1.4904
 8069SOL     OW39626   1.983   4.659   1.121 -0.6599 -0.0018  0.0879
 8069SOL    HW139627   2.010   4.633   1.033 -0.6922  0.0721  0.0553
 8069SOL    HW239628   1.955   4.578   1.163  0.1643 -0.1810  0.3223
 8070SOL     OW39629   0.071   4.067   2.490 -0.2074  0.4963  0.2204
 8070SOL    HW139630  -0.015   4.039   2.521  0.6519 -0.4888  1.7898
 8070SOL    HW239631   0.073   4.040   2.398 -0.6792 -1.6496  0.7963
 8071SOL     OW39632   4.094   3.603   3.486  0.1768  0.0553 -0.0011
 8071SOL    HW139633   4.130   3.691   3.484  1.2530 -0.3941 -0.7617
 8071SOL    HW239634   4.039   3.601   3.564  3.3918  0.1468  2.3922
 8072SOL     OW39635   2.119   1.300   2.230 -0.1663 -0.1948  0.0381
 8072SOL    HW139636   2.083   1.361   2.165 -0.3908 -0.8092 -0.4181
 8072SOL    HW239637   2.083   1.215   2.206  0.3825 -0.5642  0.4988
 8073SOL     OW39638   3.305   2.568   9.292 -0.0019  0.4758  0.0642
 8073SOL    HW139639   3.279   2.624   9.366  0.5678 -0.7851  1.2476
 8073SOL    HW239640   3.386   2.527   9.321 -0.8584 -1.6398 -0.4143
 8074SOL     OW39641   5.640   0.151  11.285  0.4015  0.1220  0.1458
 8074SOL    HW139642   5.585   0.076  11.262 -0.1059  0.2248  1.0033
 8074SOL    HW239643   5.621   0.167  11.377 -1.4016  2.8808 -0.6373
 8075SOL     OW39644   5.312   1.931   2.920 -0.1278  0.1362  0.2192
 8075SOL    HW139645   5.341   2.020   2.901 -0.4054  0.4441  1.2310
 8075SOL    HW239646   5.280   1.934   3.010 -0.8385 -0.8123  0.0088
 8076SOL     OW39647   1.052   1.259   3.066  0.4137  0.1293  0.0223
 8076SOL    HW139648   0.973   1.274   3.014  1.2151  0.7063 -1.0433
 8076SOL    HW239649   1.066   1.341   3.112 -1.1417 -0.8526  2.3672
 8077SOL     OW39650   0.666   4.401  10.620  0.4768  0.4835 -0.1983
 8077SOL    HW139651   0.693   4.366  10.705  0.6936  2.7803  0.7178
 8077SOL    HW239652   0.722   4.478  10.606  0.7139 -0.0805 -2.6216
 8078SOL     OW39653   3.469   2.407  10.226  0.6758 -0.6382 -0.4947
 8078SOL    HW139654   3.415   2.471  10.180  0.0016  0.1302  1.3415
 8078SOL    HW239655   3.544   2.458  10.257  0.1287 -0.7176  0.9841
 8079SOL     OW39656   0.518   4.320   4.036 -0.1695  0.0648  0.4605
 8079SOL    HW139657   0.437   4.366   4.016  0.1996  0.2574 -0.6132
 8079SOL    HW239658   0.536   4.267   3.958  0.4226 -0.4302  0.9261
 8080SOL     OW39659   0.332   2.867  11.046 -0.1771 -0.4617 -0.3885
 8080SOL    HW139660   0.428   2.866  11.048 -0.0972  2.9806  0.7131
 8080SOL    HW239661   0.311   2.856  10.953  1.3560  0.7877 -0.9134
 8081SOL     OW39662   3.084   5.059  10.673 -0.2726 -0.0739  0.3316
 8081SOL    HW139663   3.091   4.969  10.640 -1.3840 -0.6684  1.6707
 8081SOL    HW239664   3.174   5.082  10.698  0.0409 -0.7378 -0.1526
 8082SOL     OW39665   3.279   4.238   2.072 -0.6086 -0.5697 -0.7081
 8082SOL    HW139666   3.207   4.227   2.133 -1.7372  0.5058 -1.8175
 8082SOL    HW239667   3.261   4.320   2.027  2.2417  0.6386  0.2369
 8083SOL     OW39668   1.400   4.399   0.494  0.0940  0.5541  0.6388
 8083SOL    HW139669   1.479   4.438   0.530 -0.0590  0.0388  1.5439
 8083SOL    HW239670   1.426   4.310   0.470 -0.8755 -0.5446  3.4626
 8084SOL     OW39671   3.014   1.180   1.971  0.0396 -0.0888 -0.2731
 8084SOL    HW139672   3.009   1.244   2.042 -0.4268 -0.5063  0.0702
 8084SOL    HW239673   3.099   1.197   1.931 -0.6846  1.7024 -1.0942
 8085SOL     OW39674   1.363   3.256   1.874 -0.0242  0.7993 -0.2047
 8085SOL    HW139675   1.402   3.321   1.933  0.2842 -0.5309  1.0865
 8085SOL    HW239676   1.284   3.226   1.919 -0.4779  0.6782 -1.0585
 8086SOL     OW39677   5.811   5.426   0.140 -0.3750 -0.2980 -0.0945
 8086SOL    HW139678   5.890   5.373   0.128 -0.9337 -0.9927 -0.8145
 8086SOL    HW239679   5.744   5.363   0.166 -1.1471 -0.0170 -1.3512
 8087SOL     OW39680   3.337   1.931   2.051  0.1350  0.3180  0.2689
 8087SOL    HW139681   3.309   1.872   2.121  1.7774 -1.1061 -0.2126
 8087SOL    HW239682   3.393   1.995   2.095 -1.4873  1.4090  0.7651
 8088SOL     OW39683   5.043   2.208   8.371  0.0973 -0.0945 -0.0375
 8088SOL    HW139684   4.987   2.274   8.330  0.3455  1.2003  1.6178
 8088SOL    HW239685   5.118   2.200   8.312 -0.5127  0.1956 -0.8700
 8089SOL     OW39686   4.729   3.654  10.010 -0.3731  0.2822  0.1401
 8089SOL    HW139687   4.810   3.661   9.961 -1.2237 -0.7046 -1.4485
 8089SOL    HW239688   4.677   3.730   9.982 -0.6478  0.0195 -0.0581
 8090SOL     OW39689   2.327   5.135   1.622 -0.4467  0.1302  0.1317
 8090SOL    HW139690   2.240   5.114   1.654 -0.1190  1.1698  1.6982
 8090SOL    HW239691   2.355   5.054   1.578 -1.5750 -0.7270  0.9462
 8091SOL     OW39692   5.485   2.498   2.128 -0.4995 -0.0566  0.4410
 8091SOL    HW139693   5.533   2.416   2.123 -0.6204 -0.0464 -0.9366
 8091SOL    HW239694   5.516   2.550   2.054 -1.0131  0.8253  0.8262
 8092SOL     OW39695   1.923   1.999   0.139  0.1830 -0.1862  0.5723
 8092SOL    HW139696   1.921   1.904   0.150 -0.1199 -0.2024  0.3758
 8092SOL    HW239697   1.845   2.019   0.088  1.0568 -0.0074 -0.7157
 8093SOL     OW39698   3.555   2.638   7.396 -0.5231  0.0242 -0.0444
 8093SOL    HW139699   3.631   2.649   7.340 -2.8469 -0.8665 -3.4934
 8093SOL    HW239700   3.567   2.552   7.437  0.4368  0.0179 -0.3472
 8094SOL     OW39701   2.095   3.286   3.433  0.2924  0.0568 -0.2126
 8094SOL    HW139702   2.106   3.203   3.387 -0.2492 -0.4387  0.5707
 8094SOL    HW239703   2.023   3.329   3.388  1.1726  0.5186 -1.2182
 8095SOL     OW39704   2.288   1.793  10.598  0.7540 -0.8412 -0.6558
 8095SOL    HW139705   2.349   1.790  10.672 -0.3483 -1.8308  0.2309
 8095SOL    HW239706   2.257   1.884  10.597  1.4541 -0.5922 -0.4796
 8096SOL     OW39707   4.373   3.858   2.421 -0.1492 -0.1653 -0.4059
 8096SOL    HW139708   4.360   3.771   2.458 -0.8791 -0.4834 -1.3571
 8096SOL    HW239709   4.299   3.909   2.454  1.9889  1.0288  2.7573
 8097SOL     OW39710   0.779   4.353  11.980  0.3540  0.3913  0.7959
 8097SOL    HW139711   0.744   4.430  11.934  0.0138  0.1598  0.6605
 8097SOL    HW239712   0.860   4.384  12.019  1.1407  0.3563 -0.7524
 8098SOL     OW39713   0.287   0.873   3.009 -0.2257 -0.0095  0.4830
 8098SOL    HW139714   0.291   0.841   2.919 -1.2068 -1.9893  1.1112
 8098SOL    HW239715   0.228   0.948   3.004 -1.0316 -0.6757 -0.3804
 8099SOL     OW39716   1.779   3.315   8.439 -0.6388  0.3645  0.5173
 8099SOL    HW139717   1.790   3.278   8.526 -2.2734  0.0981  0.6381
 8099SOL    HW239718   1.707   3.378   8.449  0.9729  2.3256 -0.0548
 8100SOL     OW39719   5.702   0.925   2.990  0.1888 -0.3541  0.0889
 8100SOL    HW139720   5.723   0.997   3.050  0.8258 -0.3973 -0.0708
 8100SOL    HW239721   5.724   0.961   2.903 -0.7469 -0.2804 -0.1191
 8101SOL     OW39722   0.738   4.217   9.182 -0.2017  0.0621 -0.5915
 8101SOL    HW139723   0.789   4.246   9.106  0.9706  0.2624  0.2520
 8101SOL    HW239724   0.656   4.184   9.145  0.8793 -1.0430 -2.0451
 8102SOL     OW39725   5.686   4.186  10.376  0.0557 -0.0935 -0.1167
 8102SOL    HW139726   5.734   4.247  10.320  1.0569 -0.9590 -0.2300
 8102SOL    HW239727   5.650   4.240  10.446  0.5957  0.6854 -0.4369
 8103SOL     OW39728   4.022   4.482   9.636 -0.1910  0.3928  0.0317
 8103SOL    HW139729   4.075   4.404   9.622  0.3841  0.5858  1.0326
 8103SOL    HW239730   4.009   4.519   9.549  0.3066 -0.3197 -0.3494
 8104SOL     OW39731   0.463   4.545   2.269 -0.5852 -0.3595  0.2122
 8104SOL    HW139732   0.516   4.579   2.341 -0.1558 -0.2221 -0.1665
 8104SOL    HW239733   0.408   4.619   2.243  1.6984  0.6514 -1.8791
 8105SOL     OW39734   5.077   4.663  10.740  0.1934  0.2985  0.4651
 8105SOL    HW139735   5.009   4.596  10.740 -2.3786  2.7738 -2.3471
 8105SOL    HW239736   5.073   4.701  10.828 -2.7099  0.9840  0.0914
 8106SOL     OW39737   2.164   5.626   9.050 -0.3001  0.2115  0.3401
 8106SOL    HW139738   2.129   5.538   9.066 -0.4280  0.4141  1.2319
 8106SOL    HW239739   2.192   5.625   8.959 -0.3966 -0.7257  0.3171
 8107SOL     OW39740   5.470   3.535   2.985  0.0173 -0.3635 -0.0950
 8107SOL    HW139741   5.412   3.532   2.909 -1.2435  0.0718  0.8387
 8107SOL    HW239742   5.546   3.584   2.955 -1.0844  1.0259 -0.6856
 8108SOL     OW39743   4.041   5.289   1.635 -0.3917  0.3514  0.3709
 8108SOL    HW139744   3.977   5.222   1.659  0.8552 -0.3076  1.9781
 8108SOL    HW239745   4.032   5.356   1.703  0.8932  0.0467  0.8629
 8109SOL     OW39746   3.863   5.080   1.609  0.0296  0.1446  0.3905
 8109SOL    HW139747   3.780   5.091   1.654 -1.2022  1.5309 -2.0833
 8109SOL    HW239748   3.846   5.011   1.544  0.4630  1.2023 -0.8623
 8110SOL     OW39749   3.910  -0.005   3.577  0.0957 -0.2009  0.1505
 8110SOL    HW139750   3.881   0.003   3.668 -2.3091 -2.2616 -0.3916
 8110SOL    HW239751   3.891   0.081   3.538 -2.4071 -0.4989  0.6381
 8111SOL     OW39752   0.137   5.807  11.775 -0.3639  0.2365 -0.0834
 8111SOL    HW139753   0.081   5.817  11.852 -0.8778 -3.3859  0.1164
 8111SOL    HW239754   0.200   5.878  11.782 -2.8117  2.3377  1.5323
 8112SOL     OW39755   1.839   3.251   7.981 -0.2573  0.2081  0.4830
 8112SOL    HW139756   1.860   3.344   7.987 -1.1413  0.3821  0.8342
 8112SOL    HW239757   1.921   3.207   8.005  0.6009  0.8787 -1.1115
 8113SOL     OW39758   2.993   5.456   3.912  0.5053 -0.2357 -0.3524
 8113SOL    HW139759   3.025   5.414   3.831 -0.1341  2.0536 -1.8423
 8113SOL    HW239760   2.905   5.421   3.924  0.7437 -0.8710 -0.4442
 8114SOL     OW39761   1.304   0.844   3.306  0.2762 -0.0501 -0.0740
 8114SOL    HW139762   1.345   0.899   3.239  1.7050 -1.9160 -0.7772
 8114SOL    HW239763   1.231   0.897   3.339  0.1425  1.3110 -2.4098
 8115SOL     OW39764   0.003   5.411  10.385 -0.5044 -0.0952  0.4348
 8115SOL    HW139765   0.043   5.432  10.301 -2.1106  0.9321 -0.0873
 8115SOL    HW239766   0.042   5.474  10.446 -1.3941  0.9987 -0.1013
 8116SOL     OW39767   0.810   5.147   3.682 -0.6677  0.2659  0.4418
 8116SOL    HW139768   0.884   5.205   3.700 -0.4475  0.5122 -1.1299
 8116SOL    HW239769   0.827   5.113   3.594 -0.7530 -2.2638  1.3612
 8117SOL     OW39770   3.916   2.245   3.374  0.0964  0.1619 -0.0751
 8117SOL    HW139771   3.857   2.169   3.372 -0.5827  0.6746  0.4963
 8117SOL    HW239772   3.986   2.219   3.434 -1.7335  1.1504  2.5786
 8118SOL     OW39773   5.300   1.363   9.860  0.0435 -0.5610 -0.2858
 8118SOL    HW139774   5.321   1.432   9.797 -1.6169 -0.6436 -0.9580
 8118SOL    HW239775   5.208   1.344   9.844  0.2776 -2.3669  0.4521
 8119SOL     OW39776   4.356   5.409   1.670 -0.0579  0.0045  0.1794
 8119SOL    HW139777   4.445   5.390   1.701 -0.2451 -1.5781 -0.2432
 8119SOL    HW239778   4.311   5.325   1.673 -1.1490  0.5414 -0.9480
 8120SOL     OW39779   2.583   1.292   1.166 -0.2850 -0.2378  0.0733
 8120SOL    HW139780   2.557   1.332   1.249  1.3242  0.9740  0.0232
 8120SOL    HW239781   2.504   1.249   1.134 -1.8461  2.2047  0.5519
 8121SOL     OW39782   4.663   3.469   2.131  0.4742  0.1254 -0.0599
 8121SOL    HW139783   4.673   3.492   2.038  0.4022 -4.0781 -1.2296
 8121SOL    HW239784   4.573   3.440   2.138  1.2952 -2.3322  0.6274
 8122SOL     OW39785   0.918   1.465  10.428 -0.1304  0.0393  0.0959
 8122SOL    HW139786   0.830   1.428  10.430  0.1505 -0.6019  1.3315
 8122SOL    HW239787   0.916   1.529  10.357 -1.0530 -1.2666 -1.0774
 8123SOL     OW39788   2.607   1.378   9.665 -0.4253 -0.1449 -0.2326
 8123SOL    HW139789   2.600   1.287   9.696 -0.6414 -0.5808 -1.5053
 8123SOL    HW239790   2.594   1.371   9.570 -0.0866  1.1815 -0.3798
 8124SOL     OW39791   3.837   2.351   1.485  0.2407 -0.6994  0.3724
 8124SOL    HW139792   3.767   2.305   1.439  2.4364 -0.8653 -3.0368
 8124SOL    HW239793   3.815   2.444   1.474 -0.2441 -0.7802  0.6524
 8125SOL     OW39794   2.247   5.718   9.325 -0.2544  0.7377  0.5612
 8125SOL    HW139795   2.208   5.632   9.339 -0.4586  0.6801 -0.2949
 8125SOL    HW239796   2.222   5.741   9.235  1.6178  0.7045 -0.0034
 8126SOL     OW39797   1.326   1.611  12.260 -0.0442 -0.9554 -0.0139
 8126SOL    HW139798   1.248   1.577  12.303 -0.6759 -0.0839 -0.4514
 8126SOL    HW239799   1.374   1.658  12.328 -1.2175  0.7256 -0.3141
 8127SOL     OW39800   1.382   2.400   3.520 -0.0027  0.1613  0.3554
 8127SOL    HW139801   1.428   2.329   3.474 -0.4203  1.2485 -1.8206
 8127SOL    HW239802   1.289   2.379   3.508 -0.1273 -0.7277  2.6529
 8128SOL     OW39803   2.492   1.404  10.714  0.6924  0.3763 -0.3109
 8128SOL    HW139804   2.540   1.482  10.742 -0.4419  0.9954 -0.0766
 8128SOL    HW239805   2.534   1.380  10.631 -0.0396  2.2354 -1.2622
 8129SOL     OW39806   4.470   1.465   0.422 -0.2916 -0.8233 -0.6793
 8129SOL    HW139807   4.389   1.437   0.465  0.1646 -0.9069  0.1198
 8129SOL    HW239808   4.524   1.386   0.418 -0.2674 -0.7816 -1.2670
 8130SOL     OW39809   3.072   1.386   0.538 -0.0563  0.2735  0.3958
 8130SOL    HW139810   3.137   1.449   0.568 -0.3505  1.4236 -1.3485
 8130SOL    HW239811   2.988   1.432   0.545 -0.2365  0.2404 -1.2634
 8131SOL     OW39812   3.098   2.491   9.601 -0.4468 -0.0675 -0.2394
 8131SOL    HW139813   3.136   2.559   9.546  1.7024 -0.6374  0.4946
 8131SOL    HW239814   3.173   2.454   9.648 -2.0213 -0.7148  1.8088
 8132SOL     OW39815   1.917   0.234  10.184  0.0232  0.2929  0.4282
 8132SOL    HW139816   1.912   0.166  10.117 -1.4746 -0.7100  1.5248
 8132SOL    HW239817   1.877   0.311  10.143 -1.9208 -0.6401  0.5242
 8133SOL     OW39818   0.749   1.052  11.997  0.2152 -0.1551  0.4230
 8133SOL    HW139819   0.831   1.011  12.024 -0.2773 -0.2903  1.7670
 8133SOL    HW239820   0.726   1.110  12.070 -0.9962 -0.2985  0.1679
 8134SOL     OW39821   0.668   5.870   3.146  0.5127 -0.0408 -0.3575
 8134SOL    HW139822   0.654   5.840   3.056  0.8685 -0.2392 -0.3495
 8134SOL    HW239823   0.626   5.803   3.200  2.0681 -1.0039 -0.3073
 8135SOL     OW39824   3.963   4.859  11.996 -0.6626  0.0857  0.0979
 8135SOL    HW139825   4.015   4.798  11.944  1.7099  1.3919  0.8465
 8135SOL    HW239826   3.897   4.892  11.934 -0.6943 -1.6860 -0.8488
 8136SOL     OW39827   5.769   2.548  11.806 -0.4036  0.4824  0.4291
 8136SOL    HW139828   5.842   2.608  11.823 -0.2621  0.2583  0.6166
 8136SOL    HW239829   5.712   2.597  11.746 -0.8867  1.2692  1.5168
 8137SOL     OW39830   5.908   0.498  10.414 -0.2098 -0.4959 -0.7297
 8137SOL    HW139831   5.908   0.402  10.420 -2.0530 -0.5781 -1.5920
 8137SOL    HW239832   5.893   0.528  10.504  0.5352 -1.0083 -0.4293
 8138SOL     OW39833   2.715   0.105   3.454  0.2185  0.4562  0.3703
 8138SOL    HW139834   2.786   0.168   3.470  0.7280 -0.4314  1.6634
 8138SOL    HW239835   2.668   0.099   3.537  0.0282 -0.6935  0.1949
 8139SOL     OW39836   5.305   0.330  11.440  0.4966 -0.0654  0.0107
 8139SOL    HW139837   5.388   0.373  11.462  0.5676 -0.7928  1.1928
 8139SOL    HW239838   5.265   0.310  11.524  0.3072 -2.0158 -0.5068
 8140SOL     OW39839   0.680   3.838   1.006  0.1116 -0.0081 -0.4715
 8140SOL    HW139840   0.711   3.788   0.931 -0.6268 -0.3565 -0.5446
 8140SOL    HW239841   0.692   3.779   1.081 -0.1693 -0.0544 -0.4647
 8141SOL     OW39842   4.114   3.269   8.702 -0.1900 -0.6138  0.2057
 8141SOL    HW139843   4.130   3.317   8.620 -0.6070 -0.5745  0.1425
 8141SOL    HW239844   4.056   3.197   8.677 -0.4532 -0.5053  0.4985
 8142SOL     OW39845   0.751   5.039   1.156  0.1503  0.0490  0.2126
 8142SOL    HW139846   0.767   5.091   1.077  0.6806  0.0960  0.3474
 8142SOL    HW239847   0.656   5.032   1.161  0.1604 -2.7072 -2.2294
 8143SOL     OW39848   1.846   1.208  11.883 -0.0160 -0.2730  0.2083
 8143SOL    HW139849   1.755   1.236  11.871  0.5859  1.1885 -1.0459
 8143SOL    HW239850   1.896   1.260  11.820  1.5234 -2.0836 -0.1028
 8144SOL     OW39851   5.098   4.414   1.990 -0.5965  0.1754  0.0359
 8144SOL    HW139852   5.034   4.353   1.953 -0.1886  0.6081 -1.3907
 8144SOL    HW239853   5.091   4.400   2.085 -0.0893 -2.5020 -0.2766
 8145SOL     OW39854   0.585   2.058   0.298  0.5344  0.3784  0.3577
 8145SOL    HW139855   0.632   2.142   0.296  1.0798  0.1667  3.0435
 8145SOL    HW239856   0.597   2.022   0.210  4.1684  1.0086  0.5292
 8146SOL     OW39857   1.415   0.726   8.714  0.2006  0.6869  0.0716
 8146SOL    HW139858   1.509   0.712   8.711  0.3446  1.7534 -0.7295
 8146SOL    HW239859   1.405   0.816   8.745 -0.5020  1.1197 -1.3663
 8147SOL     OW39860   2.336   5.788   7.611 -0.4028 -0.5659  0.1979
 8147SOL    HW139861   2.349   5.708   7.661  0.3382 -0.3239  0.4039
 8147SOL    HW239862   2.252   5.776   7.566 -0.9153 -0.9218  1.2403
 8148SOL     OW39863   1.377   2.920  12.166  0.4880  0.0816  0.1415
 8148SOL    HW139864   1.430   2.845  12.195  0.6862  0.3047  0.3672
 8148SOL    HW239865   1.441   2.991  12.158  0.0506  0.6389  1.4642
 8149SOL     OW39866   2.675   2.712  11.686  0.0753  0.4722  0.2725
 8149SOL    HW139867   2.671   2.753  11.600 -0.5736 -2.6500 -1.2612
 8149SOL    HW239868   2.584   2.692  11.708  0.2706  0.8975  1.5311
 8150SOL     OW39869   1.560   5.707  10.562  0.3275 -0.0079 -0.1126
 8150SOL    HW139870   1.584   5.765  10.490 -0.2276  0.5102  0.1128
 8150SOL    HW239871   1.634   5.713  10.623  1.2433 -1.2128 -1.0936
 8151SOL     OW39872   1.528   4.838  12.056 -0.1063 -0.3626  0.1153
 8151SOL    HW139873   1.492   4.922  12.083 -1.1395 -1.0029  0.7539
 8151SOL    HW239874   1.498   4.776  12.123  0.8229 -1.2024 -0.2283
 8152SOL     OW39875   4.359   2.690   7.836  0.9800 -0.6617  0.1613
 8152SOL    HW139876   4.423   2.622   7.854 -1.4169 -2.5995  1.7574
 8152SOL    HW239877   4.402   2.772   7.861  2.7115 -1.9341  1.4208
 8153SOL     OW39878   1.686   3.393   8.186 -0.2571 -0.0931 -0.3782
 8153SOL    HW139879   1.731   3.363   8.265 -0.4365 -0.9393 -0.5976
 8153SOL    HW239880   1.755   3.430   8.131  0.2477 -1.8075 -0.9230
 8154SOL     OW39881   2.104   4.689   0.363 -0.3349  0.6095 -0.0113
 8154SOL    HW139882   2.140   4.771   0.398  0.0906  0.3724  0.1108
 8154SOL    HW239883   2.037   4.717   0.300 -0.6371  1.0427  0.5029
 8155SOL     OW39884   4.271   2.979  12.432  0.1741  0.4618 -0.9077
 8155SOL    HW139885   4.179   2.988  12.406 -0.1538  0.0473  0.1047
 8155SOL    HW239886   4.307   3.067  12.426 -0.4674  0.7422 -0.6419
 8156SOL     OW39887   4.150   1.399   2.393  0.3655  0.2870 -0.4220
 8156SOL    HW139888   4.194   1.332   2.340  2.8137  0.2614  1.5159
 8156SOL    HW239889   4.070   1.357   2.423  0.9924 -1.1565 -0.6926
 8157SOL     OW39890   5.114   3.780  12.058 -0.5791 -0.8108  0.3791
 8157SOL    HW139891   5.159   3.865  12.053 -0.8886 -0.5707  1.4765
 8157SOL    HW239892   5.166   3.722  12.003 -0.3909  0.1097 -0.4231
 8158SOL     OW39893   5.060   0.019   1.507 -0.2160  0.0230 -0.5749
 8158SOL    HW139894   5.002   0.088   1.539 -0.2529 -1.0066  1.7307
 8158SOL    HW239895   5.001  -0.056   1.493  0.1899 -0.2828 -0.6524
 8159SOL     OW39896   1.708   3.491   3.743  0.8148 -0.1800  0.5569
 8159SOL    HW139897   1.654   3.543   3.802 -0.4197 -0.1497 -0.5703
 8159SOL    HW239898   1.777   3.550   3.714  1.1829 -0.0758  1.6334
 8160SOL     OW39899   2.255   5.773  11.554 -0.0955  0.3235  0.4863
 8160SOL    HW139900   2.241   5.828  11.478  0.9524 -0.0415  0.0100
 8160SOL    HW239901   2.205   5.814  11.624 -0.5088  1.0428 -0.2285
 8161SOL     OW39902   2.004   5.280  11.555 -0.5220 -0.5747 -0.2000
 8161SOL    HW139903   1.927   5.260  11.502 -0.4142 -0.3677 -0.4375
 8161SOL    HW239904   2.013   5.205  11.614 -1.1294 -0.4255  0.0942
 8162SOL     OW39905   1.806   5.009   9.599 -0.7577  0.4379  0.2117
 8162SOL    HW139906   1.884   4.995   9.654 -0.1853 -2.0126 -1.1555
 8162SOL    HW239907   1.827   5.086   9.547  1.0196 -0.5108 -0.5261
 8163SOL     OW39908   2.978   5.656   1.664 -0.4920 -0.3130  0.0254
 8163SOL    HW139909   3.065   5.655   1.706 -1.3682 -4.0366  2.0004
 8163SOL    HW239910   2.981   5.731   1.605  4.0041 -0.1972  0.1930
 8164SOL     OW39911   5.184   0.810   9.316 -0.1753  0.3202 -0.1052
 8164SOL    HW139912   5.138   0.811   9.400 -2.2368 -2.0011 -1.1278
 8164SOL    HW239913   5.147   0.885   9.269 -2.4977 -1.0959 -0.6453
 8165SOL     OW39914   4.259   1.581  11.437  0.7965 -0.3874  0.0273
 8165SOL    HW139915   4.182   1.595  11.493  1.9734  0.4933  1.4636
 8165SOL    HW239916   4.226   1.590  11.348 -0.6503  0.6443  0.6436
 8166SOL     OW39917   2.320   2.782   8.145 -0.2304 -0.8906  0.4452
 8166SOL    HW139918   2.267   2.862   8.142  1.9332  0.7455  3.2413
 8166SOL    HW239919   2.293   2.738   8.225  1.1161 -1.1054  0.7992
 8167SOL     OW39920   4.007   5.200   8.564  0.1457  0.3527 -0.5595
 8167SOL    HW139921   3.915   5.222   8.572  0.2266  0.7749 -0.7568
 8167SOL    HW239922   4.016   5.115   8.609 -0.1757  0.7090  0.1861
 8168SOL     OW39923   1.686   0.144  10.592 -0.0157  0.0423 -0.3297
 8168SOL    HW139924   1.651   0.139  10.503 -1.0373 -0.5024  0.0856
 8168SOL    HW239925   1.608   0.135  10.648  0.6279  0.2970  0.6133
 8169SOL     OW39926   5.441   3.276  10.794  0.1748 -0.3999  0.2648
 8169SOL    HW139927   5.441   3.369  10.773  0.0232 -0.5944 -0.6304
 8169SOL    HW239928   5.530   3.257  10.823  1.3114 -0.7711 -3.2205
 8170SOL     OW39929   1.720   1.911  12.260 -0.1194  0.1565 -0.0125
 8170SOL    HW139930   1.811   1.888  12.278 -0.2739 -0.1921  0.3343
 8170SOL    HW239931   1.690   1.844  12.199  0.1048  0.7594 -0.8040
 8171SOL     OW39932   1.167   3.200   1.040  0.2687 -0.7203  0.3782
 8171SOL    HW139933   1.241   3.162   1.086  0.9425  0.7915  0.5606
 8171SOL    HW239934   1.175   3.166   0.950  0.7547 -1.1476  0.5796
 8172SOL     OW39935   0.709   2.462   8.247 -0.1517 -0.3002  0.1358
 8172SOL    HW139936   0.682   2.376   8.282  0.7535 -0.4067  0.5915
 8172SOL    HW239937   0.639   2.486   8.187 -1.8150 -0.0732  2.1189
 8173SOL     OW39938   3.821   1.914   9.077 -0.1095 -0.2502  0.5007
 8173SOL    HW139939   3.741   1.885   9.119  0.8095 -1.4274  1.4558
 8173SOL    HW239940   3.860   1.835   9.040  0.6764  0.2899  0.1350
 8174SOL     OW39941   5.249   1.845   2.252  1.0510  0.0771 -0.5392
 8174SOL    HW139942   5.265   1.894   2.172  1.7017 -1.3035 -1.2681
 8174SOL    HW239943   5.158   1.819   2.247  1.0454  0.1350 -0.7474
 8175SOL     OW39944   4.311   1.971  12.142  0.0419 -0.0290 -0.1808
 8175SOL    HW139945   4.352   2.051  12.113 -0.8444  0.4470 -0.1517
 8175SOL    HW239946   4.378   1.904  12.132  0.5273  0.5686 -0.9616
 8176SOL     OW39947   0.354   3.356   9.117  0.5472 -0.3664 -0.0298
 8176SOL    HW139948   0.325   3.328   9.030 -1.5430  0.0287  0.5069
 8176SOL    HW239949   0.356   3.451   9.113  1.0562 -0.3662  0.1729
 8177SOL     OW39950   1.197   0.954   2.172 -0.4263 -0.4913 -0.5267
 8177SOL    HW139951   1.209   0.889   2.241  0.9076 -2.4444 -2.5441
 8177SOL    HW239952   1.138   0.912   2.110  3.1397 -1.2033 -3.5668
 8178SOL     OW39953   4.338   2.766  10.592 -0.3787  0.3665 -0.3500
 8178SOL    HW139954   4.355   2.791  10.683 -2.3044  1.5159 -0.2741
 8178SOL    HW239955   4.424   2.744  10.557  0.4229  0.1346  1.6762
 8179SOL     OW39956   2.030   2.524   7.856 -0.6083  0.3612 -0.3564
 8179SOL    HW139957   1.991   2.594   7.803 -1.0997  0.6118  0.3398
 8179SOL    HW239958   2.115   2.559   7.882 -0.5818  0.4423 -0.5444
 8180SOL     OW39959   5.507   3.449   3.254 -0.6041 -0.0749  0.7624
 8180SOL    HW139960   5.488   3.494   3.171  0.2272 -2.7143 -0.9064
 8180SOL    HW239961   5.425   3.403   3.275  0.1759 -2.0444 -0.3515
 8181SOL     OW39962   1.428   0.141   9.447  0.2045  0.5104 -0.3415
 8181SOL    HW139963   1.345   0.100   9.424 -0.3935  2.0532 -0.9795
 8181SOL    HW239964   1.434   0.218   9.391  1.8872  0.6416 -0.0294
 8182SOL     OW39965   4.596   2.953   8.812  0.2942 -0.3276 -0.0759
 8182SOL    HW139966   4.615   3.019   8.746  1.1782  0.0750  0.5664
 8182SOL    HW239967   4.553   3.003   8.882 -0.2999 -0.6824 -0.1892
 8183SOL     OW39968   0.642   4.418   0.928 -0.4191  0.2153  0.3951
 8183SOL    HW139969   0.722   4.394   0.880  1.6107  2.0057  2.7101
 8183SOL    HW239970   0.579   4.439   0.860  1.4934  0.0591 -1.5073
 8184SOL     OW39971   5.010   0.676   1.035 -0.5746 -0.1639  0.2121
 8184SOL    HW139972   4.989   0.750   1.093  1.0372 -0.5908  1.3669
 8184SOL    HW239973   5.054   0.717   0.960 -0.4188  0.1355  0.4624
 8185SOL     OW39974   3.364   4.423   9.567  1.3345  0.3083  0.0666
 8185SOL    HW139975   3.428   4.454   9.631  0.7396 -1.1300  1.4083
 8185SOL    HW239976   3.285   4.406   9.618 -0.0775  1.8871 -1.5452
 8186SOL     OW39977   5.165   4.643   9.759  0.0686 -0.8883  0.0307
 8186SOL    HW139978   5.181   4.643   9.665  1.0181  0.2253  0.1791
 8186SOL    HW239979   5.078   4.603   9.769 -0.1072 -0.8656 -1.3246
 8187SOL     OW39980   5.827   3.783   3.358  0.1221 -0.3023 -0.2334
 8187SOL    HW139981   5.921   3.790   3.375  0.4407 -2.3958 -0.9608
 8187SOL    HW239982   5.819   3.801   3.264 -0.0818 -1.0098 -0.3540
 8188SOL     OW39983   5.892   3.547   7.971  0.0881 -0.1158  0.5167
 8188SOL    HW139984   5.805   3.526   7.936  0.6226 -0.6313 -0.5454
 8188SOL    HW239985   5.921   3.465   8.011  0.3136 -0.1009  0.3826
 8189SOL     OW39986   5.796   2.043  10.383 -0.7504 -0.2272  0.7228
 8189SOL    HW139987   5.791   2.061  10.289  1.4897 -2.2432  0.1410
 8189SOL    HW239988   5.780   1.948  10.390 -1.2594 -0.0431  2.4310
 8190SOL     OW39989   3.807   1.097  12.256 -0.1336  0.0826 -0.2437
 8190SOL    HW139990   3.846   1.152  12.324 -1.7626  0.2621  0.5752
 8190SOL    HW239991   3.862   1.112  12.179  2.1724 -0.7157  1.2200
 8191SOL     OW39992   1.458   0.643  10.746  0.5320  0.4033 -0.5059
 8191SOL    HW139993   1.496   0.666  10.831  0.0316  0.8449 -0.4013
 8191SOL    HW239994   1.401   0.716  10.724  0.4326  0.1561 -1.0874
 8192SOL     OW39995   2.951   1.724   0.141 -0.5958  0.1290 -0.4510
 8192SOL    HW139996   2.949   1.632   0.113  0.8682 -0.0084 -0.1404
 8192SOL    HW239997   2.920   1.722   0.231 -0.1367 -0.1183 -0.2970
 8193SOL     OW39998   1.405   5.359   2.612 -0.3963  0.4396  0.2285
 8193SOL    HW139999   1.346   5.396   2.546  0.1334 -0.2178 -0.6152
 8193SOL    HW240000   1.349   5.303   2.666 -1.1015  2.0084  1.1826
 8194SOL     OW40001   4.189   2.495   0.934  0.1236 -0.4476  0.2273
 8194SOL    HW140002   4.188   2.418   0.876  2.0666 -0.7347  0.5301
 8194SOL    HW240003   4.125   2.475   1.002 -0.3402 -1.2207 -0.4299
 8195SOL     OW40004   1.869   0.847   2.543  0.7408  1.3445  0.4339
 8195SOL    HW140005   1.777   0.864   2.524  0.9176  0.8366 -0.9620
 8195SOL    HW240006   1.916   0.900   2.478  1.3673 -1.0833 -1.1294
 8196SOL     OW40007   1.633   4.939   9.900 -0.3068 -0.5634 -0.1088
 8196SOL    HW140008   1.556   4.893   9.933  0.9374 -3.6297 -1.2993
 8196SOL    HW240009   1.646   4.904   9.812  0.7400  2.0937 -1.0606
 8197SOL     OW40010   3.128   1.558  12.352  0.4936  0.0984 -0.4688
 8197SOL    HW140011   3.157   1.497  12.420  2.2531 -0.3578 -1.6039
 8197SOL    HW240012   3.176   1.639  12.371 -1.2471  0.8976  0.5749
 8198SOL     OW40013   0.988   5.427   9.495 -0.1105 -0.3960  0.2550
 8198SOL    HW140014   0.926   5.363   9.529 -0.5123 -1.1164 -1.7541
 8198SOL    HW240015   1.034   5.459   9.572 -0.8697 -2.0790  1.4460
 8199SOL     OW40016   1.697   0.129  12.081  0.3325 -0.3356  0.5666
 8199SOL    HW140017   1.688   0.034  12.070 -0.5505 -0.2125  0.1222
 8199SOL    HW240018   1.778   0.140  12.131  0.3070 -1.3367  0.8484
 8200SOL     OW40019   1.358   3.998   9.934 -0.3515 -0.1919 -0.5087
 8200SOL    HW140020   1.327   3.988   9.844 -0.7822 -1.2501 -0.2477
 8200SOL    HW240021   1.304   4.068   9.970  0.6622  1.1070 -1.4392
 8201SOL     OW40022   4.974   5.032   2.651  0.3275 -0.1513 -0.2206
 8201SOL    HW140023   4.936   4.994   2.730  1.9199 -0.0657  0.6259
 8201SOL    HW240024   4.905   5.087   2.615  0.4113  1.8988  2.5883
 8202SOL     OW40025   3.946   2.762   8.871 -0.5483 -0.0096 -0.2141
 8202SOL    HW140026   3.891   2.832   8.905  0.8354  0.5792  0.8869
 8202SOL    HW240027   4.012   2.806   8.818 -0.5897 -0.6202 -0.7873
 8203SOL     OW40028   2.985   5.721   0.543  0.0741  0.1709 -0.2566
 8203SOL    HW140029   3.048   5.739   0.613  0.4815 -0.2354 -0.5143
 8203SOL    HW240030   2.957   5.630   0.558  0.3543 -0.0057 -0.7642
 8204SOL     OW40031   1.422   0.575  11.722 -0.0176  0.0486  0.1616
 8204SOL    HW140032   1.496   0.598  11.778 -1.2027  1.8936  1.0322
 8204SOL    HW240033   1.410   0.481  11.734  0.4210  0.2346  2.2005
 8205SOL     OW40034   1.972   1.317   9.950  0.3857  0.5285  0.3238
 8205SOL    HW140035   1.884   1.338   9.919  0.0102  0.1184  1.0922
 8205SOL    HW240036   1.972   1.343  10.042  0.5511 -0.9411  0.7608
 8206SOL     OW40037   0.292   1.910   2.629 -0.3158  0.2782  0.0582
 8206SOL    HW140038   0.284   1.912   2.725 -1.3363  0.0595 -0.0176
 8206SOL    HW240039   0.205   1.935   2.598 -0.2187 -0.4647 -0.8151
 8207SOL     OW40040   3.958   0.441  10.198  0.2585 -0.3473  0.4957
 8207SOL    HW140041   3.894   0.413  10.263 -0.1357  0.7621  0.6000
 8207SOL    HW240042   3.967   0.535  10.213  2.1593 -0.5505  0.7042
 8208SOL     OW40043   3.206   1.378   1.699 -0.7202  0.1642  0.3801
 8208SOL    HW140044   3.218   1.296   1.747 -0.2259 -0.3093 -0.5290
 8208SOL    HW240045   3.111   1.384   1.687 -0.7205 -0.6433 -0.1393
 8209SOL     OW40046   3.452   3.854   2.661 -0.3554 -0.0010  0.1517
 8209SOL    HW140047   3.478   3.798   2.734  0.4079  1.1256  0.7722
 8209SOL    HW240048   3.367   3.820   2.633 -0.0007 -1.3229  0.6459
 8210SOL     OW40049   4.031   4.797   8.979 -0.1552  0.2755 -0.2184
 8210SOL    HW140050   4.098   4.773   9.042 -0.4034  1.0975  0.3657
 8210SOL    HW240051   3.961   4.836   9.032 -0.6799  0.2993 -0.9175
 8211SOL     OW40052   4.277   5.667   9.020  0.1542 -0.1329  0.1261
 8211SOL    HW140053   4.272   5.572   9.028  0.5707 -0.2131 -0.5298
 8211SOL    HW240054   4.252   5.685   8.929  1.9620  0.2321 -0.3179
 8212SOL     OW40055   1.235   0.549  10.004  0.1599 -0.0915  0.2060
 8212SOL    HW140056   1.295   0.623   9.991 -1.8255  1.4435 -0.5866
 8212SOL    HW240057   1.280   0.474   9.965  1.8441  0.8881  0.2352
 8213SOL     OW40058   0.539   5.288  12.408 -0.1381 -0.1895  0.2537
 8213SOL    HW140059   0.480   5.339  12.463  0.7223 -0.2501  1.2439
 8213SOL    HW240060   0.625   5.325  12.424 -0.1629  1.4068 -2.9114
 8214SOL     OW40061   3.428   2.540   1.031 -0.0316 -0.6965  0.6133
 8214SOL    HW140062   3.497   2.602   1.054 -1.1149  1.0298 -0.6639
 8214SOL    HW240063   3.463   2.454   1.056  2.6246  0.1224 -0.1538
 8215SOL     OW40064   1.738   5.094  11.737 -0.4468  0.7311  0.5368
 8215SOL    HW140065   1.822   5.089  11.783  0.6725  2.7226 -1.2052
 8215SOL    HW240066   1.742   5.024  11.672  0.3361  1.5484 -0.2956
 8216SOL     OW40067   0.249   0.186  10.324 -0.0515 -0.0113 -0.0891
 8216SOL    HW140068   0.185   0.115  10.314  0.6886 -0.5828 -0.8398
 8216SOL    HW240069   0.221   0.253  10.263  1.5082 -1.3385 -2.3684
 8217SOL     OW40070   1.188   0.180   9.278 -0.0739 -0.0907 -0.5704
 8217SOL    HW140071   1.119   0.142   9.224 -0.6188  1.8315 -1.2300
 8217SOL    HW240072   1.155   0.266   9.303  2.0954  0.8830 -0.9496
 8218SOL     OW40073   1.989   5.356   9.684  0.0152 -0.1071 -0.6580
 8218SOL    HW140074   2.061   5.293   9.691 -0.1557 -0.2474 -0.1099
 8218SOL    HW240075   1.941   5.328   9.607 -0.5917 -1.2141  0.1038
 8219SOL     OW40076   0.292   4.256   8.340  0.0359  0.5684  0.6377
 8219SOL    HW140077   0.307   4.163   8.360 -0.8819  0.3010  0.0823
 8219SOL    HW240078   0.351   4.274   8.267 -1.1534 -0.0609 -0.4825
 8220SOL     OW40079   0.896   1.022   1.357 -0.0610  0.3393 -0.0125
 8220SOL    HW140080   0.817   0.986   1.317 -0.9126  0.2427  1.7474
 8220SOL    HW240081   0.902   1.111   1.323 -1.1683  0.4991  0.2067
 8221SOL     OW40082   2.004   0.295   0.957 -0.0273  0.2202  0.6967
 8221SOL    HW140083   2.012   0.229   1.026  0.9521 -0.2559  0.1425
 8221SOL    HW240084   1.986   0.244   0.877  0.6104  0.6347  0.2885
 8222SOL     OW40085   0.101   3.980   0.777 -0.8510 -0.5032  0.0238
 8222SOL    HW140086   0.032   4.028   0.823 -1.7627 -1.1286 -0.6733
 8222SOL    HW240087   0.068   3.969   0.688  0.0609 -0.9935 -0.2638
 8223SOL     OW40088   5.069   1.967   1.427 -0.2497  0.1300 -0.6956
 8223SOL    HW140089   5.047   1.906   1.357  1.3600  1.0321 -2.0284
 8223SOL    HW240090   5.162   1.951   1.445 -0.4119  0.5540  0.5972
 8224SOL     OW40091   4.350   4.789   0.090  0.3123  0.2758  0.5668
 8224SOL    HW140092   4.402   4.711   0.107  1.9688  1.4950  1.1949
 8224SOL    HW240093   4.302   4.768   0.010  3.5149 -0.0301 -1.3524
 8225SOL     OW40094   2.134   2.940  12.338 -0.2998  0.6373  0.1549
 8225SOL    HW140095   2.116   2.923  12.245 -2.8441  0.2741  0.6742
 8225SOL    HW240096   2.227   2.963  12.340  0.0607 -0.3783 -2.3372
 8226SOL     OW40097   0.245   5.672   0.615  0.0308  0.0522 -0.1108
 8226SOL    HW140098   0.337   5.648   0.628 -0.0881  0.5090  1.8602
 8226SOL    HW240099   0.246   5.735   0.543  1.6832  2.3538  1.8042
 8227SOL     OW40100   5.274   3.121  11.129 -0.3182 -0.2842  0.5333
 8227SOL    HW140101   5.325   3.116  11.209  0.7125 -0.7943 -0.1461
 8227SOL    HW240102   5.260   3.030  11.103  1.6363 -0.1063 -1.2936
 8228SOL     OW40103   0.953   0.834  10.659  0.0421 -0.3001  0.4042
 8228SOL    HW140104   0.921   0.795  10.578 -0.4340 -1.1665  0.9929
 8228SOL    HW240105   0.877   0.878  10.696  0.1597 -0.2312  0.5658
 8229SOL     OW40106   0.316   0.391   1.554 -0.2096 -0.4955  0.3607
 8229SOL    HW140107   0.303   0.396   1.459 -1.6080 -1.3201  0.5025
 8229SOL    HW240108   0.349   0.303   1.569 -0.9605 -0.7134  0.7449
 8230SOL     OW40109   1.025   1.900   2.365 -0.1352 -0.1440  0.4076
 8230SOL    HW140110   1.051   1.912   2.456  1.1463 -0.5230  0.0945
 8230SOL    HW240111   1.042   1.985   2.324 -1.4090  0.2569  0.6740
 8231SOL     OW40112   0.644   2.662  10.064  0.0259 -0.0169 -0.0999
 8231SOL    HW140113   0.585   2.598  10.025  0.2245 -0.0540 -0.3449
 8231SOL    HW240114   0.655   2.729   9.996 -1.0763  0.8514  0.5824
 8232SOL     OW40115   3.830   3.643   2.431 -0.0515  0.3839  0.4495
 8232SOL    HW140116   3.842   3.731   2.465 -0.6512  0.2487  1.0355
 8232SOL    HW240117   3.850   3.650   2.338 -1.8386  1.5473  0.1158
 8233SOL     OW40118   1.269   4.191  10.520  0.1625 -0.0101  0.5287
 8233SOL    HW140119   1.306   4.242  10.592  1.2343  0.7850 -0.5621
 8233SOL    HW240120   1.257   4.255  10.450  0.7863 -1.1197 -0.5909
 8234SOL     OW40121   1.001   1.964   3.154  0.2619  0.4560 -0.4049
 8234SOL    HW140122   0.911   1.935   3.169  1.0300 -0.5928  2.4041
 8234SOL    HW240123   0.996   2.060   3.158 -0.3124  0.3385  2.4090
 8235SOL     OW40124   3.308   3.933  11.070  0.0104 -0.0705 -0.0932
 8235SOL    HW140125   3.382   3.979  11.030  0.9432 -2.7052 -1.5093
 8235SOL    HW240126   3.329   3.840  11.060 -1.8286 -0.8479  2.6729
 8236SOL     OW40127   2.430   2.069   0.912  0.3571 -0.2241 -0.3015
 8236SOL    HW140128   2.344   2.086   0.951  1.4578 -1.1209  2.6355
 8236SOL    HW240129   2.418   2.089   0.819 -2.2427  2.4483  0.5230
 8237SOL     OW40130   5.217   2.241   1.484  0.0938  0.1147 -0.0025
 8237SOL    HW140131   5.253   2.170   1.431  0.9613  1.0709 -0.7497
 8237SOL    HW240132   5.159   2.288   1.424 -2.1649 -1.2263  1.1138
 8238SOL     OW40133   2.150   0.287  10.655  0.1408  0.2433  0.2739
 8238SOL    HW140134   2.205   0.310  10.730 -0.8268  1.2757  0.7015
 8238SOL    HW240135   2.198   0.319  10.579  1.3701 -1.2670  0.4016
 8239SOL     OW40136   0.287   2.915   0.719  0.1392  0.0945  0.0532
 8239SOL    HW140137   0.247   2.865   0.790 -0.9549 -0.6689 -1.0700
 8239SOL    HW240138   0.332   2.849   0.666 -0.3411  0.4458 -0.8008
 8240SOL     OW40139   4.165   2.542   9.523  0.0647  0.6044 -0.0914
 8240SOL    HW140140   4.135   2.602   9.591 -0.3889 -1.2895  1.4223
 8240SOL    HW240141   4.085   2.497   9.494  0.8176 -1.5124  1.0393
 8241SOL     OW40142   2.522   0.638   9.875  0.5939  0.6705  0.0702
 8241SOL    HW140143   2.599   0.586   9.852 -0.4092 -0.1921 -1.4742
 8241SOL    HW240144   2.450   0.575   9.878 -0.5362  1.8367 -1.2130
 8242SOL     OW40145   1.305   4.430  10.707  0.3130  0.3064  0.1087
 8242SOL    HW140146   1.359   4.357  10.737  1.1939  0.2741 -1.5340
 8242SOL    HW240147   1.367   4.493  10.670 -0.6535  0.8114 -0.6814
 8243SOL     OW40148   4.290   1.285   3.029  0.6778  0.0308  0.7612
 8243SOL    HW140149   4.288   1.336   2.948 -0.7766  1.3607  1.5960
 8243SOL    HW240150   4.362   1.223   3.017 -0.4822 -0.8395 -2.1468
 8244SOL     OW40151   2.128   0.651  -0.018  0.5962 -0.0270 -0.1744
 8244SOL    HW140152   2.139   0.574   0.037  0.3147  0.7486  0.9897
 8244SOL    HW240153   2.078   0.713   0.036  1.5400  1.2849 -0.7610
 8245SOL     OW40154   3.510   5.666  11.305  0.1509 -0.0298  0.1302
 8245SOL    HW140155   3.448   5.594  11.301  0.0779 -0.0427  1.3243
 8245SOL    HW240156   3.596   5.625  11.312  0.0998  0.0033  0.9389
 8246SOL     OW40157   3.909   5.252  12.229  0.0880 -0.3397 -0.1879
 8246SOL    HW140158   3.908   5.280  12.320  0.6925  1.6786 -0.7768
 8246SOL    HW240159   3.993   5.283  12.195  0.2431 -1.7995 -1.2342
 8247SOL     OW40160   0.473   4.755   2.531 -0.2830 -0.0390 -0.1196
 8247SOL    HW140161   0.403   4.740   2.468 -0.0415 -0.0329 -0.3920
 8247SOL    HW240162   0.450   4.838   2.574 -1.2239 -0.7861  0.8529
 8248SOL     OW40163   0.249   4.076   0.341 -0.4340 -0.1682  0.4844
 8248SOL    HW140164   0.247   4.154   0.397  1.8230 -0.4080  0.9210
 8248SOL    HW240165   0.323   4.091   0.282 -0.3832 -1.6950  0.1526
 8249SOL     OW40166   4.254   5.219   2.558 -0.2892 -0.5060  0.2439
 8249SOL    HW140167   4.233   5.259   2.643  0.1349 -1.8380  0.9829
 8249SOL    HW240168   4.173   5.178   2.530 -0.3320 -0.3720  0.1634
 8250SOL     OW40169   3.853   4.610  10.880 -0.3725  0.2301  0.0415
 8250SOL    HW140170   3.855   4.600  10.975 -1.5307 -1.7004 -0.1008
 8250SOL    HW240171   3.928   4.558  10.849 -0.3675  0.3394 -0.1355
 8251SOL     OW40172   0.519   5.744   3.360 -0.3805  0.1717 -0.0444
 8251SOL    HW140173   0.443   5.768   3.307 -1.0654 -1.6011  0.0985
 8251SOL    HW240174   0.482   5.724   3.447  0.4212  0.6184  0.4060
 8252SOL     OW40175   0.724   0.907   9.004 -0.0318 -0.6298  0.5055
 8252SOL    HW140176   0.730   0.959   8.923  0.1320  3.1625  2.8100
 8252SOL    HW240177   0.635   0.874   9.005 -0.2331 -0.1615 -0.8929
 8253SOL     OW40178   5.450   4.663  11.023  0.1425  0.0502  0.3581
 8253SOL    HW140179   5.434   4.753  11.051 -0.8724 -0.7631  2.5492
 8253SOL    HW240180   5.394   4.610  11.081  0.6369 -1.9712 -0.9683
 8254SOL     OW40181   1.938   2.074   4.107 -0.3772 -0.3808  0.0264
 8254SOL    HW140182   2.028   2.043   4.114  0.0885  1.1082  0.9664
 8254SOL    HW240183   1.917   2.067   4.014 -0.3759 -3.6259  0.2095
 8255SOL     OW40184   2.837   1.998  10.751  0.1122  0.3129  0.0197
 8255SOL    HW140185   2.808   1.948  10.827  0.6057 -1.5368 -0.9909
 8255SOL    HW240186   2.758   2.008  10.698 -0.1723  1.3751  0.6095
 8256SOL     OW40187   0.918   5.023  11.185 -0.1468  0.9782  0.2001
 8256SOL    HW140188   0.881   4.994  11.102 -1.1038  0.8872  0.6554
 8256SOL    HW240189   0.895   5.115  11.192  0.2341  1.0786  0.2075
 8257SOL     OW40190   1.983   4.642   3.085 -0.2783  0.0467 -0.0359
 8257SOL    HW140191   2.017   4.729   3.108 -3.2145  1.6485 -1.4425
 8257SOL    HW240192   1.956   4.650   2.994 -1.6825 -1.9710  0.1661
 8258SOL     OW40193   1.670   0.132   2.870  0.5300  0.0485 -0.4148
 8258SOL    HW140194   1.685   0.132   2.776  1.8848 -0.9348 -0.2301
 8258SOL    HW240195   1.693   0.220   2.899  2.0929 -0.2239 -0.7482
 8259SOL     OW40196   2.504   0.734  11.424 -0.3066  0.8387 -0.4871
 8259SOL    HW140197   2.456   0.692  11.496 -1.9197  2.0224 -0.8303
 8259SOL    HW240198   2.461   0.702  11.345  2.8583 -2.1641 -1.0791
 8260SOL     OW40199   2.510   0.451   1.682 -0.2145 -0.1700  0.1736
 8260SOL    HW140200   2.582   0.497   1.638  0.1158 -0.8811 -0.0474
 8260SOL    HW240201   2.433   0.505   1.666 -0.1206 -0.4646 -1.3986
 8261SOL     OW40202   3.609   0.193  10.394 -0.3155  0.4638 -0.5790
 8261SOL    HW140203   3.666   0.252  10.442  0.7227 -2.4576  1.9576
 8261SOL    HW240204   3.649   0.186  10.307  0.1689  2.5352 -0.5411
 8262SOL     OW40205   1.820   3.371   3.442  0.0411  0.0135 -0.3685
 8262SOL    HW140206   1.782   3.458   3.442  0.4905  0.2120 -0.2426
 8262SOL    HW240207   1.768   3.322   3.506  0.8314  0.6508  0.7798
 8263SOL     OW40208   4.289   2.698   8.617 -0.2228 -0.2522  0.5641
 8263SOL    HW140209   4.380   2.720   8.599 -0.2858 -2.5980 -3.2253
 8263SOL    HW240210   4.292   2.640   8.693  1.3787  0.0747  0.7676
 8264SOL     OW40211   5.001   3.459   3.201 -0.2034  0.0509 -0.6990
 8264SOL    HW140212   4.923   3.513   3.188 -0.7208 -0.7861 -1.1126
 8264SOL    HW240213   4.985   3.412   3.282 -0.9576 -1.5125 -1.7311
 8265SOL     OW40214   1.189   0.818   9.507 -0.2127  0.2304 -0.3234
 8265SOL    HW140215   1.247   0.894   9.509 -1.9907  1.6355 -0.1499
 8265SOL    HW240216   1.153   0.814   9.595 -0.9542 -0.1500 -0.6411
 8266SOL     OW40217   4.691   0.085   0.961 -1.0459  0.0955  0.1789
 8266SOL    HW140218   4.748   0.033   1.018 -0.2679 -1.4952 -1.9956
 8266SOL    HW240219   4.602   0.061   0.988 -0.6907 -0.7553  0.6133
 8267SOL     OW40220   2.799   4.296   3.863  0.5439 -0.1266  0.5166
 8267SOL    HW140221   2.734   4.302   3.793 -2.1749 -1.0481  2.8832
 8267SOL    HW240222   2.858   4.226   3.834 -1.4503 -1.5849 -0.1778
 8268SOL     OW40223   3.294   4.873   3.287  0.0476 -0.0547 -0.1417
 8268SOL    HW140224   3.319   4.964   3.275  0.5138 -0.2939 -1.0400
 8268SOL    HW240225   3.203   4.877   3.317 -0.4045  0.6498 -1.5844
 8269SOL     OW40226   5.868   1.442   3.024  0.1296 -0.3386  0.1110
 8269SOL    HW140227   5.922   1.419   2.949  0.5573 -0.9136  0.5850
 8269SOL    HW240228   5.823   1.361   3.047  0.8837 -0.4637  1.1838
 8270SOL     OW40229   1.144   3.139   0.765  0.0508 -0.0985 -0.0759
 8270SOL    HW140230   1.174   3.121   0.676  1.6816  3.0989 -0.2346
 8270SOL    HW240231   1.114   3.230   0.763 -2.7082 -0.8797  1.9440
 8271SOL     OW40232   0.659   2.790   0.431 -0.1247 -0.0425  0.4252
 8271SOL    HW140233   0.626   2.833   0.352 -1.4139 -0.9934  0.4227
 8271SOL    HW240234   0.586   2.736   0.461  1.8907 -3.3957 -0.4116
 8272SOL     OW40235   1.851   4.315  12.228 -0.5720  0.1321  0.3238
 8272SOL    HW140236   1.800   4.379  12.179 -0.9277  0.1733  0.7382
 8272SOL    HW240237   1.902   4.268  12.162  1.6817  2.5773  0.2085
 8273SOL     OW40238   1.589   2.960   8.705  0.0322 -0.0542  0.3683
 8273SOL    HW140239   1.593   3.048   8.742 -0.0084 -0.1347  0.5688
 8273SOL    HW240240   1.503   2.927   8.732  0.7331 -0.7947  1.7563
 8274SOL     OW40241   0.725   3.013   0.761 -0.1502  0.0731  0.5191
 8274SOL    HW140242   0.739   2.922   0.734 -2.0041 -0.4798  1.3325
 8274SOL    HW240243   0.714   3.061   0.678 -5.0963 -1.4921  0.0988
 8275SOL     OW40244   3.026   0.332   9.270  0.3069 -1.0180  0.3539
 8275SOL    HW140245   3.027   0.413   9.322  0.8895 -0.7354 -0.0921
 8275SOL    HW240246   2.942   0.292   9.290 -0.0916 -0.1745  0.3904
 8276SOL     OW40247   5.442   4.002   3.278  0.2238  0.0049  0.2473
 8276SOL    HW140248   5.499   3.949   3.333  1.2565  0.2744 -0.5489
 8276SOL    HW240249   5.361   3.951   3.270  1.1038 -1.3278 -0.2969
 8277SOL     OW40250   5.118   2.214   0.546 -0.2621 -0.1099 -0.2839
 8277SOL    HW140251   5.116   2.197   0.640  1.1910 -0.6577 -0.3451
 8277SOL    HW240252   5.142   2.130   0.507  0.4221  0.4380 -1.0498
 8278SOL     OW40253   4.120   1.204  10.587  0.1078 -0.4873 -0.3326
 8278SOL    HW140254   4.184   1.138  10.614 -0.0478  0.2276  1.8976
 8278SOL    HW240255   4.172   1.282  10.567  0.1943 -0.9146 -1.8292
 8279SOL     OW40256   2.800   2.191  11.107  0.1283 -0.7147 -0.4068
 8279SOL    HW140257   2.803   2.280  11.144  1.7604 -0.6359 -0.7048
 8279SOL    HW240258   2.733   2.146  11.159 -0.1022  0.4393  0.3147
 8280SOL     OW40259   1.290   4.270   3.581  0.4017  0.0402  0.2211
 8280SOL    HW140260   1.281   4.297   3.490  0.1393  1.1791  0.5725
 8280SOL    HW240261   1.364   4.321   3.614  0.9259 -0.8585  0.4664
 8281SOL     OW40262   5.642   0.777   1.527 -0.1965 -0.0563  0.5587
 8281SOL    HW140263   5.659   0.722   1.604 -0.3870 -1.4520 -0.3896
 8281SOL    HW240264   5.722   0.830   1.517  0.2583 -0.6422  1.0610
 8282SOL     OW40265   1.557   5.796   2.804 -0.0257  0.1936 -0.4740
 8282SOL    HW140266   1.612   5.874   2.806 -1.3876  1.2371 -2.1111
 8282SOL    HW240267   1.556   5.769   2.712 -0.4873 -1.0773 -0.1102
 8283SOL     OW40268   3.386   0.884  10.117  0.0204  0.2567 -0.0174
 8283SOL    HW140269   3.304   0.860  10.159  1.0097 -1.4261  0.9847
 8283SOL    HW240270   3.393   0.979  10.130 -1.5597  0.3541  0.2165
 8284SOL     OW40271   4.978   0.158   2.810 -0.1774  0.0034 -0.1984
 8284SOL    HW140272   4.921   0.092   2.849 -0.2229  0.0488 -0.1867
 8284SOL    HW240273   4.954   0.160   2.718  0.3959 -0.5884 -0.3713
 8285SOL     OW40274   3.303   3.160   0.273  0.6400  0.5673 -0.1201
 8285SOL    HW140275   3.287   3.068   0.291 -0.8744  1.0644  1.2089
 8285SOL    HW240276   3.298   3.167   0.178 -0.8776 -0.4421 -0.1290
 8286SOL     OW40277   5.731   0.395   2.103  0.0310 -0.0311 -0.0506
 8286SOL    HW140278   5.684   0.426   2.026 -0.1226  1.0305  0.4628
 8286SOL    HW240279   5.770   0.473   2.141  1.6662 -0.8010 -0.0821
 8287SOL     OW40280   2.975   3.172   9.321  0.2573 -0.0959  0.0586
 8287SOL    HW140281   2.889   3.136   9.342  0.0036  1.3036  1.4998
 8287SOL    HW240282   3.024   3.168   9.404  1.5501 -0.7571 -0.7093
 8288SOL     OW40283   3.409   1.124   0.794 -0.1316  0.2176  0.2778
 8288SOL    HW140284   3.395   1.217   0.811  1.7699  0.5514  0.0562
 8288SOL    HW240285   3.330   1.097   0.747 -2.1786  0.9450  3.1388
 8289SOL     OW40286   0.408   1.875   0.003  0.4035 -0.5656 -0.2822
 8289SOL    HW140287   0.321   1.865  -0.035 -0.0597  1.9138  0.0470
 8289SOL    HW240288   0.429   1.788   0.038 -1.0002 -1.7545 -2.2422
 8290SOL     OW40289   5.497   0.492   3.150  0.1421 -1.0653  0.3921
 8290SOL    HW140290   5.450   0.552   3.207  1.5891 -1.7679  2.3644
 8290SOL    HW240291   5.525   0.546   3.076  0.2451  0.3651  1.4662
 8291SOL     OW40292   0.261   1.696  10.194  0.3124 -0.2475 -0.0576
 8291SOL    HW140293   0.186   1.659  10.240  0.8004 -1.5162 -0.2361
 8291SOL    HW240294   0.292   1.767  10.250  0.2005 -1.0332  1.0166
 8292SOL     OW40295   2.607   1.822   2.723 -0.1496 -0.3425 -0.0043
 8292SOL    HW140296   2.582   1.796   2.812  0.9603 -0.9145  0.1557
 8292SOL    HW240297   2.544   1.779   2.666  0.5943 -1.9783  0.3662
 8293SOL     OW40298   3.266   0.008  10.344  0.3635  0.2521  0.0872
 8293SOL    HW140299   3.280   0.077  10.280 -1.6392 -1.3261 -2.1359
 8293SOL    HW240300   3.172   0.009  10.362  0.3004 -1.7916  0.0749
 8294SOL     OW40301   4.333   1.455   1.028 -0.2605  0.5128 -0.0091
 8294SOL    HW140302   4.354   1.501   0.947  2.4400 -2.7660 -1.2924
 8294SOL    HW240303   4.271   1.387   1.002  2.9249 -2.5284 -0.0387
 8295SOL     OW40304   4.460   5.115   7.919 -0.2085  0.2174 -0.3261
 8295SOL    HW140305   4.522   5.178   7.956  2.5930 -1.3661 -2.0601
 8295SOL    HW240306   4.508   5.032   7.918 -2.9641 -1.4413 -0.2632
 8296SOL     OW40307   5.134   2.955   9.616  0.5400 -0.6642  0.4017
 8296SOL    HW140308   5.056   2.914   9.578 -0.4517 -0.8126  2.4997
 8296SOL    HW240309   5.151   2.904   9.695  2.3285 -0.1433  0.3724
 8297SOL     OW40310   5.234   2.575  10.220 -0.0981  0.0892 -0.2021
 8297SOL    HW140311   5.216   2.654  10.272  0.6942  0.2199 -0.1179
 8297SOL    HW240312   5.244   2.505  10.284  1.9333  0.4489 -0.0912
 8298SOL     OW40313   4.564   4.732   9.938 -0.3855  0.4155  0.1120
 8298SOL    HW140314   4.639   4.710   9.883 -0.1063  0.4823  0.4620
 8298SOL    HW240315   4.491   4.744   9.877 -0.0841  0.4629 -0.2366
 8299SOL     OW40316   0.023   3.875   2.010  0.2858  0.0383 -0.2827
 8299SOL    HW140317  -0.052   3.854   1.954  1.2694 -0.4299 -1.4507
 8299SOL    HW240318   0.088   3.807   1.990  1.6576  1.3884 -0.5323
 8300SOL     OW40319   5.767   3.677  11.586 -0.2994  0.9473  0.1059
 8300SOL    HW140320   5.682   3.690  11.626  0.1092 -0.9643  1.7111
 8300SOL    HW240321   5.748   3.660  11.494 -1.4149  3.3092 -0.1214
 8301SOL     OW40322   5.121   3.679  10.991 -0.7016  0.7439  0.0960
 8301SOL    HW140323   5.085   3.659  11.077  0.2033 -0.9730  0.0770
 8301SOL    HW240324   5.201   3.728  11.009 -0.8107  0.8874  0.2000
 8302SOL     OW40325   0.002   0.906   2.078  0.2247  0.0251 -0.4217
 8302SOL    HW140326   0.007   0.959   1.998  1.3123 -0.0884 -0.4365
 8302SOL    HW240327   0.051   0.957   2.143 -2.3136  1.0682  0.7267
 8303SOL     OW40328   1.469   0.860   3.740  0.2507  0.4002 -0.3298
 8303SOL    HW140329   1.451   0.790   3.677 -1.2320 -1.8869  2.4939
 8303SOL    HW240330   1.557   0.890   3.717  0.9536 -2.4349 -1.6022
 8304SOL     OW40331   5.029   3.326   2.051  0.5373  0.5394  0.0211
 8304SOL    HW140332   4.994   3.290   2.133  1.1763  1.2346  0.6088
 8304SOL    HW240333   5.054   3.416   2.074 -2.3740  1.8880 -1.7760
 8305SOL     OW40334   5.727   1.512   0.439 -0.1192 -0.1225  0.1812
 8305SOL    HW140335   5.691   1.524   0.351 -1.5896  1.3364  0.9587
 8305SOL    HW240336   5.819   1.538   0.431 -0.2899  0.1759 -0.8922
 8306SOL     OW40337   2.759   1.776   4.330  0.5070 -0.4562  0.8606
 8306SOL    HW140338   2.674   1.778   4.374 -0.9527  1.7217 -1.8705
 8306SOL    HW240339   2.756   1.851   4.270  3.0697 -2.2807 -1.6533
 8307SOL     OW40340   2.750   1.987   0.472 -0.2775 -0.0093  0.8657
 8307SOL    HW140341   2.772   1.905   0.516 -0.5727 -1.0475 -0.8616
 8307SOL    HW240342   2.784   1.976   0.383 -0.5713  1.6358  0.5357
 8308SOL     OW40343   0.968   2.754  11.637 -0.8118  0.3411  0.9644
 8308SOL    HW140344   1.011   2.691  11.580 -0.4435  0.4234  1.1452
 8308SOL    HW240345   0.887   2.777  11.591 -1.5524 -1.1840  1.4864
 8309SOL     OW40346   3.225   1.284   9.223  0.1215  0.5516  0.0239
 8309SOL    HW140347   3.310   1.242   9.233  0.7828  1.6580 -0.8099
 8309SOL    HW240348   3.244   1.378   9.218 -1.1805  0.8483  0.2633
 8310SOL     OW40349   2.922   5.171  11.960 -0.1006 -0.0363 -0.0283
 8310SOL    HW140350   2.829   5.185  11.943 -0.6195 -1.7811  1.1604
 8310SOL    HW240351   2.926   5.142  12.051  1.6368  0.2538  0.0194
 8311SOL     OW40352   1.645   0.857   4.408  0.0322 -0.1364  0.0662
 8311SOL    HW140353   1.659   0.786   4.345 -0.2391 -2.1316  2.1950
 8311SOL    HW240354   1.559   0.893   4.385  0.7565  0.4050 -1.8654
 8312SOL     OW40355   2.127   0.088   1.795  0.3335 -0.0133  0.2644
 8312SOL    HW140356   2.217   0.092   1.765  0.2141 -0.4088 -0.1470
 8312SOL    HW240357   2.088   0.016   1.746 -0.4216  0.6554 -0.1461
 8313SOL     OW40358   4.284   5.533   9.752 -0.3802 -0.0801 -0.1594
 8313SOL    HW140359   4.189   5.536   9.745 -0.3161 -0.2477 -1.1189
 8313SOL    HW240360   4.302   5.453   9.802 -0.6970 -0.5649 -0.8148
 8314SOL     OW40361   2.878   1.862   3.964 -0.3618 -0.4681  0.7646
 8314SOL    HW140362   2.939   1.789   3.976  1.7988  1.4132  1.7055
 8314SOL    HW240363   2.903   1.900   3.880  0.9849  1.3737  1.9573
 8315SOL     OW40364   5.134   1.123   2.614  0.0972  0.5362  0.2511
 8315SOL    HW140365   5.116   1.209   2.652 -0.1095  0.5647  0.0920
 8315SOL    HW240366   5.217   1.134   2.567  1.5876 -0.1159  2.6572
 8316SOL     OW40367   3.926   1.455  10.853  0.1103 -0.5132 -0.2392
 8316SOL    HW140368   3.990   1.512  10.811  0.1269 -0.0467  0.4047
 8316SOL    HW240369   3.847   1.508  10.857  0.1751 -0.4736  0.5217
 8317SOL     OW40370   0.629   0.741   4.279 -0.4941  0.1293  0.0883
 8317SOL    HW140371   0.602   0.714   4.366  0.2259 -2.4549 -0.4613
 8317SOL    HW240372   0.654   0.660   4.235  1.0681  1.6175 -1.8587
 8318SOL     OW40373   2.748   2.970  10.451 -0.1042 -0.3853  0.2187
 8318SOL    HW140374   2.786   3.042  10.400 -0.4167 -1.4144 -1.5219
 8318SOL    HW240375   2.820   2.909  10.464  0.3011  0.4780  2.1808
 8319SOL     OW40376   3.667   5.171   1.781 -0.7958  0.3714  0.2752
 8319SOL    HW140377   3.607   5.116   1.831 -0.6473  0.4718  0.5659
 8319SOL    HW240378   3.672   5.253   1.831 -0.1368  0.2333  0.4411
 8320SOL     OW40379   3.236   3.661  -0.003 -0.3654  0.4192  0.8459
 8320SOL    HW140380   3.312   3.622   0.040  0.1275 -1.3394 -1.5026
 8320SOL    HW240381   3.261   3.753  -0.015  0.5764  0.3048  1.8427
 8321SOL     OW40382   3.127   0.371   8.816  0.4809  0.4992 -0.2579
 8321SOL    HW140383   3.140   0.431   8.890  1.2238  0.3180 -0.2350
 8321SOL    HW240384   3.157   0.286   8.849 -0.7451  0.0726 -0.2283
 8322SOL     OW40385   2.656   3.930   3.209 -0.6584 -0.7995  0.0224
 8322SOL    HW140386   2.700   3.948   3.292 -0.1312 -0.7447 -0.2650
 8322SOL    HW240387   2.727   3.908   3.148 -0.8660  0.9515 -0.8917
 8323SOL     OW40388   2.617   3.318   8.465  0.0531 -0.6897 -0.0750
 8323SOL    HW140389   2.691   3.259   8.455  0.2557 -0.6012  0.8632
 8323SOL    HW240390   2.546   3.277   8.414  0.0527 -1.9737  0.9396
 8324SOL     OW40391   2.232   4.482  11.137 -0.1192  0.2635  0.2663
 8324SOL    HW140392   2.176   4.554  11.107  0.6630  0.8841  0.2689
 8324SOL    HW240393   2.314   4.525  11.162  0.0631 -0.5350  1.0560
 8325SOL     OW40394   2.353   5.884  11.004  0.0687  0.0543 -0.2687
 8325SOL    HW140395   2.297   5.887  10.926 -0.2709  1.5065  0.0171
 8325SOL    HW240396   2.417   5.954  10.990  0.1979  0.1152  0.6118
 8326SOL     OW40397   2.172   2.551  10.111  0.0557  0.0038 -0.0168
 8326SOL    HW140398   2.155   2.613  10.183  2.0499 -0.3397  0.7937
 8326SOL    HW240399   2.203   2.472  10.155 -1.5182 -1.2376 -1.1130
 8327SOL     OW40400   5.386   2.730  10.780 -0.1951 -0.5864  0.5073
 8327SOL    HW140401   5.408   2.780  10.859 -1.5671 -1.1793  1.2866
 8327SOL    HW240402   5.455   2.664  10.773  0.0047 -0.4541  1.1452
 8328SOL     OW40403   2.178   1.598  11.184  0.5595  0.3515 -0.6626
 8328SOL    HW140404   2.179   1.648  11.102 -2.5050 -0.2590 -1.1316
 8328SOL    HW240405   2.254   1.540  11.177  0.7527  0.7994 -2.7506
 8329SOL     OW40406   0.839   1.439   1.338 -0.6263 -0.4145  0.3631
 8329SOL    HW140407   0.882   1.524   1.342  0.3507 -0.7732 -1.9993
 8329SOL    HW240408   0.746   1.459   1.346 -0.4514  0.9487 -0.7761
 8330SOL     OW40409   5.941   2.385   2.094 -0.0016 -0.2191  0.2634
 8330SOL    HW140410   5.893   2.392   2.177 -1.1099 -0.3504 -0.3456
 8330SOL    HW240411   6.004   2.315   2.108  0.4302  0.3555  1.2837
 8331SOL     OW40412   2.728   3.272   2.537  0.2988 -0.0680  0.2029
 8331SOL    HW140413   2.698   3.278   2.628 -1.2152 -1.0057 -0.2132
 8331SOL    HW240414   2.723   3.362   2.505 -2.0450 -0.1658  0.1844
 8332SOL     OW40415   4.589   4.670   3.005  0.4518  0.5511  0.4616
 8332SOL    HW140416   4.628   4.731   3.069 -0.4713  1.9535 -0.2878
 8332SOL    HW240417   4.506   4.711   2.982 -0.0541 -0.8849 -0.2630
 8333SOL     OW40418   3.335   5.138  11.430 -0.3634  0.0151  0.1603
 8333SOL    HW140419   3.241   5.134  11.415 -0.2039 -0.7026 -0.6573
 8333SOL    HW240420   3.357   5.231  11.419 -0.5265 -0.2112 -2.4230
 8334SOL     OW40421   0.546   0.012  11.127 -0.5536 -0.1474 -0.0267
 8334SOL    HW140422   0.612   0.046  11.187 -0.6907 -0.4456  0.2923
 8334SOL    HW240423   0.579   0.034  11.040 -0.7389  0.9822  0.1806
 8335SOL     OW40424   2.807   3.625   2.153 -0.5570 -0.3176  0.0787
 8335SOL    HW140425   2.735   3.574   2.116 -0.9857  0.1547  0.2545
 8335SOL    HW240426   2.886   3.586   2.116 -0.9256 -0.5569 -0.4557
 8336SOL     OW40427   2.907   4.060   1.781 -0.2054  0.1333  0.0105
 8336SOL    HW140428   2.872   4.022   1.862  0.7683 -0.1479  0.2979
 8336SOL    HW240429   2.844   4.129   1.759  1.1475  2.3921  2.7510
 8337SOL     OW40430   0.439   0.024  12.441  0.4097  0.4020 -0.6009
 8337SOL    HW140431   0.531   0.048  12.445  0.4728  0.3406 -1.5794
 8337SOL    HW240432   0.439  -0.072  12.440  0.4365  0.4044 -2.5725
 8338SOL     OW40433   1.021   5.842   9.381  0.2998  0.1066  0.0070
 8338SOL    HW140434   0.989   5.874   9.465  1.1982 -1.7067  1.0592
 8338SOL    HW240435   0.942   5.809   9.337 -0.3655  2.1292 -0.3944
 8339SOL     OW40436   3.613   4.245  11.576  0.0973  0.3489  0.0914
 8339SOL    HW140437   3.594   4.209  11.489 -0.7720  0.7758  0.0952
 8339SOL    HW240438   3.533   4.230  11.626  0.7525 -0.2903  0.9533
 8340SOL     OW40439   4.289   3.383  11.400  0.5154  0.1524  0.5158
 8340SOL    HW140440   4.346   3.438  11.454  0.5783  0.9571 -0.3469
 8340SOL    HW240441   4.234   3.445  11.353 -0.8222 -0.6121  1.0566
 8341SOL     OW40442   5.546   1.690   1.795  0.1265  0.7484  0.1670
 8341SOL    HW140443   5.487   1.643   1.737  1.6064  0.3807 -1.0832
 8341SOL    HW240444   5.576   1.625   1.858  0.0795  0.6563  0.0947
 8342SOL     OW40445   2.156   1.877   1.469 -0.0333 -0.0354  0.1754
 8342SOL    HW140446   2.145   1.890   1.375 -1.0670 -1.1110  0.1386
 8342SOL    HW240447   2.249   1.854   1.479 -0.1993 -1.1434 -0.7265
 8343SOL     OW40448   4.007   4.564   1.285 -0.0392  0.6134  0.0406
 8343SOL    HW140449   3.994   4.496   1.219 -0.1236  1.5472 -0.9301
 8343SOL    HW240450   4.095   4.548   1.319 -0.5250 -0.7109  0.7023
 8344SOL     OW40451   5.634   1.973   3.353 -0.2422  0.0483 -0.3512
 8344SOL    HW140452   5.595   2.060   3.349 -0.2149  0.0155 -1.3357
 8344SOL    HW240453   5.727   1.989   3.334  0.2906  0.1569  2.1570
 8345SOL     OW40454   4.223   2.010   3.355 -0.7882 -0.1046 -0.0440
 8345SOL    HW140455   4.293   1.968   3.404 -0.7453  0.1751  0.1389
 8345SOL    HW240456   4.168   2.050   3.423 -1.5421 -0.9621 -0.1352
 8346SOL     OW40457   3.346   2.068   1.721  0.2324 -0.4858  0.3543
 8346SOL    HW140458   3.354   1.973   1.728 -0.3594 -0.5216  0.5662
 8346SOL    HW240459   3.302   2.094   1.802  0.8706  0.0277  0.5404
 8347SOL     OW40460   1.164   4.658  10.281 -0.0855  0.6001  0.0189
 8347SOL    HW140461   1.163   4.707  10.198 -0.4895  1.5362  0.5695
 8347SOL    HW240462   1.226   4.706  10.336  0.9130 -0.5769 -0.0653
 8348SOL     OW40463   1.766   1.553   9.347 -0.1324 -0.1593  0.7343
 8348SOL    HW140464   1.693   1.509   9.303 -0.3903 -0.8788  1.8522
 8348SOL    HW240465   1.760   1.523   9.438  0.1311  1.6338  1.3483
 8349SOL     OW40466   3.247   0.619   2.498  0.4950  0.2621 -0.0584
 8349SOL    HW140467   3.269   0.529   2.478 -1.8085  0.0102 -1.5931
 8349SOL    HW240468   3.276   0.669   2.422 -0.5142  0.4675 -0.3164
 8350SOL     OW40469   5.056   3.197  11.713  0.2332 -0.0869 -0.1992
 8350SOL    HW140470   4.992   3.231  11.650  0.1118 -0.1016 -0.0822
 8350SOL    HW240471   5.067   3.268  11.776 -0.1887 -0.3557  0.1741
 8351SOL     OW40472   3.613   2.661  10.190 -0.2556 -0.0547 -0.1285
 8351SOL    HW140473   3.706   2.678  10.205 -0.0554 -1.1671 -0.0286
 8351SOL    HW240474   3.568   2.731  10.237  0.4991 -0.4566  1.2401
 8352SOL     OW40475   3.851   1.968   2.869  0.1137  0.0618  0.5759
 8352SOL    HW140476   3.879   1.881   2.840  0.6266  0.9148 -1.5592
 8352SOL    HW240477   3.895   1.981   2.953 -0.8194 -2.1631  1.4609
 8353SOL     OW40478   3.730   2.414   8.748 -0.0565 -0.2608 -0.9068
 8353SOL    HW140479   3.674   2.375   8.815  0.1430 -1.6968 -1.5514
 8353SOL    HW240480   3.668   2.448   8.683 -0.2525  1.2375  0.0451
 8354SOL     OW40481   3.259   2.232  10.643 -0.3412 -0.0263 -0.4856
 8354SOL    HW140482   3.221   2.289  10.710  0.7914 -2.0510  1.9556
 8354SOL    HW240483   3.354   2.245  10.651 -0.0420 -2.3641  0.2698
 8355SOL     OW40484   3.677   1.016   9.545 -0.1894 -0.1311  0.6480
 8355SOL    HW140485   3.702   0.992   9.634  0.3135  0.3318  0.6334
 8355SOL    HW240486   3.589   1.052   9.554 -0.3061 -0.4702  0.8965
 8356SOL     OW40487   3.378   1.060  11.993  0.0381 -0.1739 -0.5070
 8356SOL    HW140488   3.416   1.057  12.081  0.1053 -1.7848 -0.5830
 8356SOL    HW240489   3.343   1.149  11.985 -0.5371 -0.2259  1.3738
 8357SOL     OW40490   4.074   2.430   8.680 -0.0087 -0.2984 -0.2763
 8357SOL    HW140491   4.012   2.500   8.696 -0.6796 -1.0466  0.4613
 8357SOL    HW240492   4.159   2.467   8.704 -0.0459  0.9817 -2.0534
 8358SOL     OW40493   3.496   3.086  11.422  0.2505  0.4899  0.0663
 8358SOL    HW140494   3.519   3.127  11.339  1.5431  0.5790  0.4536
 8358SOL    HW240495   3.574   3.098  11.477 -0.4002 -0.0139  1.1178
 8359SOL     OW40496   1.418   1.477  11.715  0.4985  0.2014 -0.2862
 8359SOL    HW140497   1.338   1.478  11.768  0.9702  1.5017  0.4292
 8359SOL    HW240498   1.459   1.393  11.735 -1.0487 -0.7844 -1.2229
 8360SOL     OW40499   1.213   0.006  10.767 -0.5698  0.5878  0.0521
 8360SOL    HW140500   1.166   0.089  10.766 -1.8060 -0.1132  0.1046
 8360SOL    HW240501   1.168  -0.049  10.703  1.2736  0.5171 -1.2353
 8361SOL     OW40502   1.824   5.282   1.389 -0.1353 -0.0946 -0.0790
 8361SOL    HW140503   1.850   5.224   1.317 -0.6429  2.3072 -2.2445
 8361SOL    HW240504   1.729   5.290   1.380 -0.1634  0.4546  0.6730
 8362SOL     OW40505   5.117   0.787   0.826 -0.3378  0.4597  0.1547
 8362SOL    HW140506   5.145   0.856   0.766  2.6316 -0.7659  0.0610
 8362SOL    HW240507   5.093   0.713   0.770  0.3098  0.0646  0.3916
 8363SOL     OW40508   3.033   4.729   1.503  0.0597  0.1929 -0.0686
 8363SOL    HW140509   2.949   4.695   1.473  0.5776 -1.2842  0.0939
 8363SOL    HW240510   3.050   4.805   1.447 -0.3831 -0.7599 -1.5238
 8364SOL     OW40511   5.080   5.813   9.496  0.2562  0.1949 -0.0709
 8364SOL    HW140512   5.026   5.796   9.573 -0.1281 -0.1786 -0.4204
 8364SOL    HW240513   5.103   5.726   9.463 -0.6604  0.3561 -1.1300
 8365SOL     OW40514   1.780   2.344  11.743  0.8229 -0.0968 -0.0903
 8365SOL    HW140515   1.849   2.277  11.743  2.4557  1.5367  0.1814
 8365SOL    HW240516   1.699   2.295  11.751  1.8710 -2.1621 -1.6776
 8366SOL     OW40517   3.313   2.834  11.741  0.0412 -0.6475 -0.5488
 8366SOL    HW140518   3.261   2.886  11.680  0.5803 -0.8566 -1.1968
 8366SOL    HW240519   3.325   2.891  11.817  1.8802  0.7514 -1.8582
 8367SOL     OW40520   0.527   5.818  11.844  0.0834 -0.3498 -0.3632
 8367SOL    HW140521   0.616   5.789  11.861  0.5994  0.5297 -1.4397
 8367SOL    HW240522   0.479   5.738  11.822  0.2724 -0.9918  1.5503
 8368SOL     OW40523   3.058   0.301  10.353 -0.4978  0.1364  0.5433
 8368SOL    HW140524   3.153   0.297  10.355 -0.5183 -0.2628  0.7085
 8368SOL    HW240525   3.033   0.347  10.433 -0.4097  0.9057  0.1386
 8369SOL     OW40526   1.013   3.345   8.539  0.5080 -0.1682  0.3872
 8369SOL    HW140527   1.092   3.314   8.494  1.2059  0.1083  1.3873
 8369SOL    HW240528   0.962   3.388   8.471  2.3863  1.8567  0.1771
 8370SOL     OW40529   4.877   5.663   0.548 -0.3712 -0.0881  0.2967
 8370SOL    HW140530   4.810   5.620   0.494 -0.4304 -0.3026  0.5366
 8370SOL    HW240531   4.827   5.709   0.616 -0.2624 -0.5372  0.6860
 8371SOL     OW40532   2.295   5.168   8.877 -0.2894  0.1753 -0.6619
 8371SOL    HW140533   2.312   5.163   8.783 -1.0698 -1.4815 -0.7352
 8371SOL    HW240534   2.224   5.106   8.892 -1.0014  1.3049  0.8430
 8372SOL     OW40535   0.281   4.062   7.480  0.1932  0.3452  0.2874
 8372SOL    HW140536   0.203   4.114   7.463  0.9775  0.2164 -4.4161
 8372SOL    HW240537   0.247   3.974   7.498 -0.8265  0.3050 -1.6278
 8373SOL     OW40538   5.798   1.779  10.416 -0.2188 -0.6506 -0.2952
 8373SOL    HW140539   5.841   1.698  10.388 -0.9859 -1.3509  0.5285
 8373SOL    HW240540   5.771   1.761  10.506 -2.5562 -0.3526 -0.9098
 8374SOL     OW40541   2.345   4.328  11.618  0.1839 -0.3806 -0.2720
 8374SOL    HW140542   2.400   4.407  11.616 -0.4183  0.1231  1.8894
 8374SOL    HW240543   2.256   4.362  11.627  0.0543 -1.3419  2.2477
 8375SOL     OW40544   1.368   2.838   9.844  0.4901 -0.1505 -0.3319
 8375SOL    HW140545   1.273   2.827   9.837  0.4326 -0.1121  0.3858
 8375SOL    HW240546   1.400   2.753   9.873  0.6537 -0.0870 -0.3221
 8376SOL     OW40547   3.479   3.248   0.059 -0.2131  0.4176 -0.1848
 8376SOL    HW140548   3.564   3.292   0.058 -0.2893  0.5822  0.7369
 8376SOL    HW240549   3.500   3.155   0.069 -0.1691  0.5121  0.5820
 8377SOL     OW40550   2.058   1.199   0.566 -0.9693 -0.4288  0.4532
 8377SOL    HW140551   2.029   1.116   0.605  1.2530 -0.8142  1.3488
 8377SOL    HW240552   2.070   1.258   0.641  1.3442 -0.5457  0.2140
 8378SOL     OW40553   0.643   1.458  10.494  0.1205 -0.1826 -1.1399
 8378SOL    HW140554   0.593   1.539  10.494 -0.6591 -0.6525 -0.6454
 8378SOL    HW240555   0.579   1.391  10.518  0.8951 -0.8530 -0.9354
 8379SOL     OW40556   2.422   3.366  10.021 -0.1110 -0.2840  0.3755
 8379SOL    HW140557   2.344   3.311  10.030 -0.4980  0.3495  0.8741
 8379SOL    HW240558   2.393   3.444   9.974  0.4335 -0.4748 -0.2950
 8380SOL     OW40559   3.401   3.477   2.295  0.8712 -0.6701  0.0784
 8380SOL    HW140560   3.402   3.541   2.367 -0.4034  1.2337 -1.5415
 8380SOL    HW240561   3.399   3.392   2.338 -0.6003  0.4564  2.2936
 8381SOL     OW40562   3.031   1.632   3.972 -0.5621 -0.6269 -0.3447
 8381SOL    HW140563   3.059   1.618   4.062 -0.3836 -0.5874 -0.3935
 8381SOL    HW240564   2.959   1.569   3.959 -0.2328 -1.0079 -0.3456
 8382SOL     OW40565   5.749   2.995   1.265 -0.1568 -0.2312 -0.3570
 8382SOL    HW140566   5.831   2.947   1.276  0.1393  0.4515  0.4610
 8382SOL    HW240567   5.776   3.082   1.235 -0.6788 -0.4904 -1.6330
 8383SOL     OW40568   1.627   0.589   3.779  0.6855  0.1715  0.2420
 8383SOL    HW140569   1.597   0.636   3.857  1.5524 -0.6675  1.0944
 8383SOL    HW240570   1.557   0.600   3.715 -0.4244  0.1389  1.4443
 8384SOL     OW40571   3.680   5.844   3.143  0.1752 -0.7832 -0.1072
 8384SOL    HW140572   3.609   5.828   3.206 -0.0852  1.4346  0.1776
 8384SOL    HW240573   3.643   5.816   3.059 -1.0038  0.2264  0.0623
 8385SOL     OW40574   3.451   1.641   8.511 -0.1469  0.0706 -0.0202
 8385SOL    HW140575   3.506   1.709   8.471  1.3048 -0.7601  0.5108
 8385SOL    HW240576   3.430   1.676   8.597 -0.0042  0.1554 -0.0189
 8386SOL     OW40577   1.180   3.100  11.043  0.4835 -0.5931  0.0700
 8386SOL    HW140578   1.211   3.188  11.063  2.8004 -0.7657 -2.4258
 8386SOL    HW240579   1.105   3.114  10.985  0.6779 -0.2441 -0.0979
 8387SOL     OW40580   3.133   3.575   3.064  0.0084 -0.1796  0.2102
 8387SOL    HW140581   3.215   3.552   3.109  1.0738 -0.8617 -1.9902
 8387SOL    HW240582   3.084   3.494   3.061 -0.8077  0.2504  1.6095
 8388SOL     OW40583   2.262   0.319   9.921  0.2996  0.2825 -0.0786
 8388SOL    HW140584   2.283   0.354  10.007  0.1770  1.5907 -0.5752
 8388SOL    HW240585   2.169   0.297   9.926  0.3968 -0.0538  0.2603
 8389SOL     OW40586   4.165   1.576  10.740  0.0935 -0.2565 -0.0079
 8389SOL    HW140587   4.198   1.555  10.827  2.0741  2.0213 -0.1609
 8389SOL    HW240588   4.214   1.519  10.681 -1.1327 -1.6840  0.3137
 8390SOL     OW40589   3.969   1.746  11.420  0.0890  0.0771  0.4082
 8390SOL    HW140590   3.900   1.788  11.369  1.4624  0.5379 -1.1335
 8390SOL    HW240591   4.008   1.817  11.470 -0.2781 -0.1048  0.9526
 8391SOL     OW40592   5.050   5.628   9.227 -0.3150  0.4112  0.3629
 8391SOL    HW140593   5.064   5.548   9.176 -1.2566  0.9109 -0.7193
 8391SOL    HW240594   4.958   5.651   9.210 -0.2795  1.2801  1.3047
 8392SOL     OW40595   5.488   3.473   1.180  0.5496 -0.6560 -0.3388
 8392SOL    HW140596   5.449   3.387   1.193 -0.2443 -0.1584  0.6560
 8392SOL    HW240597   5.561   3.477   1.242  0.6494 -0.6513 -0.4547
 8393SOL     OW40598   1.358   5.781  12.107  0.1054  0.4144 -1.0291
 8393SOL    HW140599   1.405   5.698  12.100 -0.8217 -0.2039  0.0220
 8393SOL    HW240600   1.427   5.847  12.113  0.8411 -0.4393  0.0786
 8394SOL     OW40601   4.254   5.349   8.164  0.1670  0.5449 -0.8985
 8394SOL    HW140602   4.217   5.292   8.096 -2.7472  1.5738 -0.2291
 8394SOL    HW240603   4.244   5.438   8.130  0.4865  0.9477  0.0325
 8395SOL     OW40604   1.093   3.712   8.381 -0.3566 -0.2321 -0.2979
 8395SOL    HW140605   1.108   3.806   8.377  0.7440 -0.3093  1.3002
 8395SOL    HW240606   1.000   3.704   8.403  0.0007  0.5605  1.6551
 8396SOL     OW40607   5.464   2.700  11.699 -0.1593  0.2149 -0.0103
 8396SOL    HW140608   5.449   2.657  11.615  2.6632 -0.0564 -0.4341
 8396SOL    HW240609   5.457   2.794  11.679  0.8671  0.1662 -0.6374
 8397SOL     OW40610   4.092   4.865  10.598 -0.1077 -0.0083  0.5358
 8397SOL    HW140611   4.108   4.895  10.688 -2.1297  0.2115  0.8474
 8397SOL    HW240612   4.164   4.902  10.548 -1.0482  3.2266  1.4005
 8398SOL     OW40613   0.163   4.433   1.837 -0.6916 -0.0847  0.2984
 8398SOL    HW140614   0.162   4.338   1.848  2.5403  0.1893  3.8454
 8398SOL    HW240615   0.079   4.463   1.873 -1.1864 -1.4646  0.3113
 8399SOL     OW40616   1.046   3.056  12.391  0.4120 -0.1850  0.7734
 8399SOL    HW140617   1.015   3.097  12.310 -0.7095 -2.1011  0.1955
 8399SOL    HW240618   1.014   3.114  12.461 -0.9596  0.0545 -0.0331
 8400SOL     OW40619   0.201   5.607  10.340  0.5175 -0.1149  0.2832
 8400SOL    HW140620   0.248   5.673  10.391 -1.0426  0.4437  1.0150
 8400SOL    HW240621   0.126   5.653  10.304 -0.5108 -1.4474  0.6675
 8401SOL     OW40622   1.354   1.239   3.970  0.1054  0.3907 -0.0577
 8401SOL    HW140623   1.288   1.207   3.909 -0.8181 -0.1223  1.1958
 8401SOL    HW240624   1.436   1.198   3.942  0.2527  2.2571 -2.6033
 8402SOL     OW40625   5.242   0.581   3.350 -0.3971  0.3166  0.2305
 8402SOL    HW140626   5.153   0.573   3.387 -0.1413  2.0653  1.3339
 8402SOL    HW240627   5.266   0.672   3.369  1.3672  0.0421 -0.6763
 8403SOL     OW40628   3.812   3.497   1.285  0.0491  0.2787  0.4340
 8403SOL    HW140629   3.816   3.414   1.237 -1.3250  0.6762 -0.3992
 8403SOL    HW240630   3.876   3.552   1.240  0.8398 -0.2583  0.8775
 8404SOL     OW40631   3.278   1.590   9.214  0.4247  0.0290 -0.1114
 8404SOL    HW140632   3.270   1.681   9.244  1.2140 -0.5230  1.8066
 8404SOL    HW240633   3.368   1.566   9.234  0.5516 -0.8072 -1.6968
 8405SOL     OW40634   1.640   5.265  10.799 -0.3734 -0.2003  0.3151
 8405SOL    HW140635   1.685   5.349  10.811 -0.0653 -0.6811  2.9352
 8405SOL    HW240636   1.710   5.200  10.799 -0.6839 -0.5494 -0.7966
 8406SOL     OW40637   0.857   3.508   0.043 -0.0979  0.1460 -0.6133
 8406SOL    HW140638   0.881   3.587  -0.007  0.5133  0.0024 -0.5551
 8406SOL    HW240639   0.782   3.535   0.096  2.2110  1.6908  1.9954
 8407SOL     OW40640   0.252   2.683   0.367  0.5290  0.0738  0.1794
 8407SOL    HW140641   0.163   2.689   0.401  0.3610  2.1823 -0.5098
 8407SOL    HW240642   0.244   2.703   0.273  1.5543 -1.1068 -0.1819
 8408SOL     OW40643   3.491   4.020  10.906  0.1880 -0.8228  0.1288
 8408SOL    HW140644   3.422   4.013  10.840 -2.0612 -0.4596  2.3230
 8408SOL    HW240645   3.573   4.022  10.857 -1.4605  0.3078 -2.6618
 8409SOL     OW40646   0.881   1.703  10.143 -0.0150  0.3271  0.1173
 8409SOL    HW140647   0.973   1.727  10.154  0.4738 -1.1678 -0.5138
 8409SOL    HW240648   0.866   1.705  10.049 -0.8602  1.3249  0.2576
 8410SOL     OW40649   4.513   1.907   9.926  0.5214  0.2921 -0.7167
 8410SOL    HW140650   4.601   1.928   9.893  0.7659 -3.8314 -3.1089
 8410SOL    HW240651   4.457   1.911   9.848 -1.2572  1.8603  0.5949
 8411SOL     OW40652   2.406   1.683   0.916  0.2471 -0.0283 -0.0279
 8411SOL    HW140653   2.475   1.619   0.937  0.2909  0.3805  1.0692
 8411SOL    HW240654   2.451   1.750   0.864  0.7708  0.4246  0.9861
 8412SOL     OW40655   0.767   5.797  11.656 -0.3140  0.1931  0.1726
 8412SOL    HW140656   0.804   5.785  11.743  0.1250 -0.5964 -0.1278
 8412SOL    HW240657   0.836   5.771  11.596 -0.2116  1.8270 -0.4468
 8413SOL     OW40658   4.157   1.794   1.641 -0.0282 -0.0651 -0.4551
 8413SOL    HW140659   4.228   1.761   1.695 -0.5661 -0.9644 -0.2852
 8413SOL    HW240660   4.080   1.745   1.669 -0.6712  0.7338 -0.7969
 8414SOL     OW40661   4.048   5.013   0.580  0.5665 -0.0429  0.2559
 8414SOL    HW140662   4.100   5.028   0.501  0.7955 -0.6540  0.2852
 8414SOL    HW240663   3.961   5.045   0.558  0.8936  0.7523  0.1155
 8415SOL     OW40664   4.162   3.027   0.991 -0.3939 -0.0660  0.1616
 8415SOL    HW140665   4.099   3.036   0.919 -1.7902 -0.5815  1.3045
 8415SOL    HW240666   4.184   2.934   0.991 -2.5889 -0.6467  2.1789
 8416SOL     OW40667   2.602   0.321   9.557  0.2984  0.6575  0.0104
 8416SOL    HW140668   2.612   0.415   9.573  0.8451  0.4554  0.9282
 8416SOL    HW240669   2.540   0.291   9.624 -0.9601  0.6084 -1.1640
 8417SOL     OW40670   5.307   1.728   0.219  0.3042  0.7047 -0.6809
 8417SOL    HW140671   5.377   1.714   0.154  2.1802 -0.4280  1.5268
 8417SOL    HW240672   5.308   1.823   0.234  0.7484  0.8088 -1.3036
 8418SOL     OW40673   2.784   1.059   3.178  0.1475  0.3460 -0.3262
 8418SOL    HW140674   2.809   1.150   3.162  0.5712  0.2107 -0.4464
 8418SOL    HW240675   2.866   1.010   3.170  0.0472  0.0392  0.4230
 8419SOL     OW40676   4.242   3.528   0.737 -0.0622  0.1111 -0.2620
 8419SOL    HW140677   4.310   3.468   0.708  0.7739  0.2756  1.3103
 8419SOL    HW240678   4.186   3.475   0.794 -1.7828 -0.2517 -2.2230
 8420SOL     OW40679   5.463   2.437  12.121  0.6588 -0.5873 -0.4981
 8420SOL    HW140680   5.551   2.420  12.087  1.0440  0.0754  0.1380
 8420SOL    HW240681   5.407   2.377  12.073  1.2984 -0.2304 -1.7266
 8421SOL     OW40682   2.178   2.159   8.378 -0.3562 -0.3704 -0.5726
 8421SOL    HW140683   2.125   2.166   8.298 -1.4865 -0.9783  0.1031
 8421SOL    HW240684   2.132   2.215   8.441 -0.1956 -0.9162  0.0280
 8422SOL     OW40685   2.841   4.718   4.231 -0.1380  0.0641 -0.1758
 8422SOL    HW140686   2.889   4.757   4.157  0.2414 -1.4215 -0.7447
 8422SOL    HW240687   2.901   4.725   4.305 -0.0684  0.5601 -0.2796
 8423SOL     OW40688   5.908   4.503   9.441 -0.3960 -0.7885 -0.2481
 8423SOL    HW140689   5.890   4.475   9.352 -1.9175 -0.5665 -0.0187
 8423SOL    HW240690   5.956   4.585   9.431 -0.1709 -0.9957 -0.8614
 8424SOL     OW40691   5.164   0.856   2.716 -0.2969  0.2379  0.3274
 8424SOL    HW140692   5.133   0.945   2.732 -1.9630 -0.0494 -1.1917
 8424SOL    HW240693   5.166   0.847   2.621 -1.6397 -1.8398  0.4528
 8425SOL     OW40694   0.949   1.720   9.097 -0.4131  0.2496 -0.3210
 8425SOL    HW140695   0.874   1.689   9.047  1.1808 -1.3248 -1.8480
 8425SOL    HW240696   1.022   1.666   9.066  1.0263  0.5836  2.3200
 8426SOL     OW40697   4.390   4.780   0.482 -0.0377 -0.0351  0.1196
 8426SOL    HW140698   4.406   4.690   0.508 -1.2289 -0.0563  0.8402
 8426SOL    HW240699   4.317   4.775   0.420  1.8635  0.1509 -2.2407
 8427SOL     OW40700   4.632   0.289   2.890 -0.0876 -0.7453  0.5303
 8427SOL    HW140701   4.647   0.280   2.984 -1.4016 -2.0107  0.6441
 8427SOL    HW240702   4.579   0.213   2.867 -0.3673 -0.0793 -1.1090
 8428SOL     OW40703   5.507   2.225   3.324  0.5026  0.1530 -0.0986
 8428SOL    HW140704   5.452   2.243   3.400  0.5161 -0.5557  0.0830
 8428SOL    HW240705   5.570   2.298   3.322 -0.7809  1.2672 -0.6339
 8429SOL     OW40706   0.456   3.015   9.133 -0.3921 -0.0943 -0.0846
 8429SOL    HW140707   0.473   3.062   9.214 -1.5091  2.3498 -1.2288
 8429SOL    HW240708   0.361   3.002   9.132 -0.4596  0.3825 -1.2413
 8430SOL     OW40709   0.895   2.100  10.810 -0.1506  0.9881  0.4493
 8430SOL    HW140710   0.860   2.112  10.722 -0.6065  0.0992  0.5075
 8430SOL    HW240711   0.818   2.092  10.866  0.0984 -2.5598  0.3556
 8431SOL     OW40712   5.753   4.233  10.723 -0.1802 -0.2038 -0.5508
 8431SOL    HW140713   5.735   4.319  10.759  0.1940 -0.0261 -0.7822
 8431SOL    HW240714   5.845   4.237  10.696  0.3015 -1.1954  0.8919
 8432SOL     OW40715   2.142   4.203   1.113 -0.4715 -0.0842  0.9555
 8432SOL    HW140716   2.058   4.247   1.095  0.1894  1.1602  0.8719
 8432SOL    HW240717   2.127   4.112   1.089 -0.7601  0.7862 -2.3482
 8433SOL     OW40718   0.084   3.574   9.000 -0.1461 -0.3003 -0.5437
 8433SOL    HW140719   0.141   3.556   8.925  2.0204  1.0029  0.7160
 8433SOL    HW240720   0.000   3.535   8.977  0.6281 -0.3892 -3.3989
 8434SOL     OW40721   5.951   4.964   0.599 -0.1571 -0.0246 -0.0487
 8434SOL    HW140722   6.007   4.958   0.676 -0.6333 -0.8436  0.2331
 8434SOL    HW240723   5.870   5.003   0.631  1.2866  4.0934 -1.0082
 8435SOL     OW40724   1.899   2.415  10.006 -0.0070  0.0353 -0.2792
 8435SOL    HW140725   1.914   2.507  10.028 -2.0909  0.1955  0.4978
 8435SOL    HW240726   1.974   2.369  10.044  0.3125  1.2311  0.5647
 8436SOL     OW40727   2.210   0.089   8.817 -0.0441 -0.3082 -0.0430
 8436SOL    HW140728   2.179   0.176   8.796  1.0478 -0.0672 -0.6775
 8436SOL    HW240729   2.303   0.090   8.796 -0.6406 -2.6148 -3.2424
 8437SOL     OW40730   1.317   1.132   9.205 -0.0767  0.7829  0.1292
 8437SOL    HW140731   1.273   1.051   9.181 -1.3071  1.2751  0.6693
 8437SOL    HW240732   1.317   1.185   9.125 -0.2753  0.6887  0.0684
 8438SOL     OW40733   5.756   4.024   2.562  0.7333 -0.6125 -0.0045
 8438SOL    HW140734   5.696   4.012   2.489 -0.7218 -0.3893  1.1394
 8438SOL    HW240735   5.772   3.936   2.595 -0.4194 -0.5168  0.8331
 8439SOL     OW40736   0.883   2.388  12.420 -0.4133 -0.0175  0.5097
 8439SOL    HW140737   0.943   2.363  12.490  1.4081  0.1705 -0.9489
 8439SOL    HW240738   0.803   2.338  12.438  0.8445 -1.7536  1.4089
 8440SOL     OW40739   2.527   1.525  10.230 -0.0042 -0.2304 -0.2922
 8440SOL    HW140740   2.491   1.446  10.191 -0.6618  0.1701 -0.4969
 8440SOL    HW240741   2.615   1.531  10.193 -0.2191 -0.4619 -0.8476
 8441SOL     OW40742   4.130   5.902   2.448  0.1543  0.2507  0.4928
 8441SOL    HW140743   4.051   5.855   2.473  0.3604 -0.5640 -0.3801
 8441SOL    HW240744   4.187   5.897   2.525  0.0467 -0.6352  0.5136
 8442SOL     OW40745   1.224   0.636   7.821 -0.3704  0.2500  0.4665
 8442SOL    HW140746   1.202   0.585   7.899 -0.3241 -1.6352 -0.7272
 8442SOL    HW240747   1.167   0.713   7.826 -2.2052 -1.1044  1.0471
 8443SOL     OW40748   5.136   1.510   0.144 -0.6878  0.1390 -0.1964
 8443SOL    HW140749   5.089   1.495   0.227  0.9079  0.2682  0.7526
 8443SOL    HW240750   5.207   1.569   0.168  1.3391 -1.8751 -1.1475
 8444SOL     OW40751   5.198   3.479  11.872  0.2904 -0.2541 -0.2926
 8444SOL    HW140752   5.250   3.453  11.795  0.1376  0.4489 -0.6427
 8444SOL    HW240753   5.238   3.432  11.945  1.9612  0.8951 -0.4259
 8445SOL     OW40754   4.854   2.432  11.307 -0.0762 -0.1946  0.2740
 8445SOL    HW140755   4.870   2.455  11.399 -0.5196  0.4269  0.2008
 8445SOL    HW240756   4.820   2.513  11.268 -1.5374 -0.9233 -0.0135
 8446SOL     OW40757   3.747   1.402  11.507  1.0563  0.1429  0.1652
 8446SOL    HW140758   3.770   1.369  11.594 -1.1254  0.0282  0.7323
 8446SOL    HW240759   3.659   1.438  11.518 -0.0537 -1.6342 -2.4217
 8447SOL     OW40760   0.097   1.430  11.406 -0.5891 -0.7046 -0.6706
 8447SOL    HW140761   0.160   1.368  11.443 -1.7426 -1.4269  0.1021
 8447SOL    HW240762   0.077   1.394  11.319  1.1991  0.3468 -1.5484
 8448SOL     OW40763   2.531   5.124   0.569 -0.0721  0.6704  0.4857
 8448SOL    HW140764   2.450   5.131   0.619  0.0738 -0.2442  0.8634
 8448SOL    HW240765   2.528   5.198   0.509  0.2257  2.3551  2.5024
 8449SOL     OW40766   4.260   1.141   0.728  0.2746 -0.0518 -0.3076
 8449SOL    HW140767   4.269   1.066   0.669  1.5490 -1.0474  1.1084
 8449SOL    HW240768   4.321   1.206   0.693 -0.3713  0.0992 -1.1748
 8450SOL     OW40769   3.753   3.943   8.567 -0.2331 -0.2779  0.3964
 8450SOL    HW140770   3.839   3.950   8.525 -0.1480  0.2048  0.6455
 8450SOL    HW240771   3.752   3.855   8.604  0.8185  0.2876  1.8154
 8451SOL     OW40772   0.739   3.619  10.158 -0.2235 -0.0334  0.2418
 8451SOL    HW140773   0.679   3.573  10.099 -2.7735  1.6866  1.3759
 8451SOL    HW240774   0.812   3.558  10.171 -2.5551 -2.9665  0.1740
 8452SOL     OW40775   4.132   1.199   8.829  0.2213  0.1936  0.4020
 8452SOL    HW140776   4.211   1.157   8.862  0.4976  0.8038  0.5166
 8452SOL    HW240777   4.126   1.281   8.878 -0.5359  0.1054  0.4674
 8453SOL     OW40778   5.190   4.298   2.752 -0.4221  0.0169 -0.5140
 8453SOL    HW140779   5.258   4.342   2.802  1.3255 -0.3553 -2.4836
 8453SOL    HW240780   5.132   4.369   2.723  0.2372  0.5721 -0.4866
 8454SOL     OW40781   0.645   3.587   1.385  0.0507  0.3057 -0.2522
 8454SOL    HW140782   0.640   3.539   1.468  0.7554  1.0202  0.2121
 8454SOL    HW240783   0.661   3.519   1.319 -1.3058 -0.3597  0.0785
 8455SOL     OW40784   2.141   0.732   2.293  0.1230  0.5821  0.3120
 8455SOL    HW140785   2.216   0.791   2.301  0.8385 -0.2012 -0.4323
 8455SOL    HW240786   2.106   0.751   2.206  0.4861 -0.2359 -0.0159
 8456SOL     OW40787   3.379   2.524   2.919  0.5296  0.3940  0.3468
 8456SOL    HW140788   3.352   2.576   2.844 -0.4086  0.0410  0.4302
 8456SOL    HW240789   3.404   2.439   2.883 -1.0087 -0.1652  0.5249
 8457SOL     OW40790   3.986   1.743   2.818 -0.1555 -0.2222  0.4429
 8457SOL    HW140791   4.046   1.738   2.744 -1.1674  1.3406 -0.5329
 8457SOL    HW240792   3.924   1.672   2.804 -0.6152  0.3446 -0.4944
 8458SOL     OW40793   5.325   4.781   2.268 -0.2978  0.2359 -0.0154
 8458SOL    HW140794   5.270   4.734   2.206 -0.9973  1.6302 -0.4707
 8458SOL    HW240795   5.295   4.872   2.264  1.7974  0.9667 -0.0052
 8459SOL     OW40796   3.523   2.068   2.212  0.2542  0.1897  0.2670
 8459SOL    HW140797   3.616   2.047   2.222  0.2442  0.5138  1.0809
 8459SOL    HW240798   3.514   2.154   2.253 -0.5964 -0.2726  1.0434
 8460SOL     OW40799   5.685   1.577  10.048 -0.6193 -0.0502 -0.7087
 8460SOL    HW140800   5.756   1.641  10.044  0.6032 -1.3525 -0.0498
 8460SOL    HW240801   5.624   1.614  10.112 -0.7238  1.2456 -1.5305
 8461SOL     OW40802   2.691   1.805   9.383 -0.3183  0.5825 -0.5872
 8461SOL    HW140803   2.640   1.884   9.363 -1.9627 -0.7285 -1.7616
 8461SOL    HW240804   2.660   1.777   9.469  0.7138  1.5449  0.1102
 8462SOL     OW40805   1.511   0.172   2.625  0.8178 -0.3408  0.0393
 8462SOL    HW140806   1.481   0.202   2.711 -0.1382  0.5313 -0.6005
 8462SOL    HW240807   1.442   0.114   2.594 -1.2755  3.2184 -2.3097
 8463SOL     OW40808   1.267   4.614   1.245 -0.3762  0.1924 -0.6555
 8463SOL    HW140809   1.255   4.635   1.337 -1.5791  1.6438 -1.1237
 8463SOL    HW240810   1.358   4.583   1.239  0.1519  1.4000  0.7639
 8464SOL     OW40811   2.856   2.668   7.802  0.3815  0.1302  0.8642
 8464SOL    HW140812   2.874   2.751   7.759  2.0541  0.1825  1.6095
 8464SOL    HW240813   2.943   2.629   7.816 -0.4396 -2.6300 -1.2118
 8465SOL     OW40814   3.083   1.405   3.477 -0.2119 -0.3843  0.7769
 8465SOL    HW140815   3.141   1.445   3.542  0.6370  1.2613 -0.9499
 8465SOL    HW240816   3.119   1.317   3.463  1.4152  0.3444  0.3004
 8466SOL     OW40817   5.589   1.590  10.571 -0.8876  0.2825 -0.0017
 8466SOL    HW140818   5.536   1.510  10.578  0.7514 -0.8825 -0.5873
 8466SOL    HW240819   5.675   1.564  10.604 -0.1529  1.6412 -0.8297
 8467SOL     OW40820   4.970   2.775  10.021 -0.2212 -0.2544  0.7768
 8467SOL    HW140821   4.966   2.761  10.115 -1.2345 -0.2194  0.7556
 8467SOL    HW240822   4.933   2.694   9.984  1.3999 -0.8223  0.3628
 8468SOL     OW40823   2.549   0.102   2.212 -0.1586  0.1781 -0.3853
 8468SOL    HW140824   2.478   0.112   2.149 -0.3466 -0.2080 -0.2408
 8468SOL    HW240825   2.505   0.070   2.291  0.3397 -1.1775 -0.6519
 8469SOL     OW40826   2.547   0.669   2.324  0.8151 -0.3482  0.0980
 8469SOL    HW140827   2.577   0.691   2.236 -0.7226  1.2241 -0.0616
 8469SOL    HW240828   2.499   0.747   2.354  0.4221 -1.2444  1.9172
 8470SOL     OW40829   4.290   1.453   9.458  0.3017  0.6638  0.7483
 8470SOL    HW140830   4.355   1.383   9.465  0.1687  0.5005  0.3553
 8470SOL    HW240831   4.221   1.416   9.402  0.5448  1.3532 -0.0100
 8471SOL     OW40832   3.497   4.179   2.258  0.1107 -0.3510 -0.0585
 8471SOL    HW140833   3.447   4.192   2.177 -0.1808  0.5061  0.2568
 8471SOL    HW240834   3.436   4.131   2.315 -0.8091  1.7378  0.7606
 8472SOL     OW40835   1.637   2.716   2.085 -0.2893 -0.2854 -0.3047
 8472SOL    HW140836   1.635   2.678   1.996 -3.1937 -0.7221 -0.0885
 8472SOL    HW240837   1.704   2.784   2.080  2.0518 -2.5689 -1.8766
 8473SOL     OW40838   1.852   4.481   8.866  0.2790  0.0154 -0.3346
 8473SOL    HW140839   1.813   4.394   8.856  0.7145 -0.3062  0.6546
 8473SOL    HW240840   1.865   4.491   8.961  4.0802 -0.6015 -0.6816
 8474SOL     OW40841   2.233   2.226   2.827 -0.3435 -0.2249  0.0271
 8474SOL    HW140842   2.146   2.253   2.857 -0.2630 -0.3236  0.3544
 8474SOL    HW240843   2.293   2.289   2.866 -0.3943  0.6703 -1.3258
 8475SOL     OW40844   1.898   5.572   0.728  0.0442  0.2081  0.1625
 8475SOL    HW140845   1.926   5.658   0.756 -1.4638  0.7928 -0.0759
 8475SOL    HW240846   1.888   5.522   0.809 -1.2577  0.9374  0.4590
 8476SOL     OW40847   4.453   1.988   1.340  0.0429  0.6092  0.0569
 8476SOL    HW140848   4.373   2.040   1.349 -2.1161 -2.6360  0.2145
 8476SOL    HW240849   4.476   1.995   1.247 -1.3834  0.1731 -0.3327
 8477SOL     OW40850   3.374   2.199   9.596  0.1029  0.0095  0.1261
 8477SOL    HW140851   3.350   2.246   9.516  2.5189  0.4373 -0.3888
 8477SOL    HW240852   3.313   2.125   9.600 -2.5810  2.1358 -0.0205
 8478SOL     OW40853   0.583   4.582  10.194 -0.6060  0.4234  0.1355
 8478SOL    HW140854   0.634   4.510  10.157  0.3469  0.1734  1.8647
 8478SOL    HW240855   0.579   4.647  10.124  0.9680 -0.1190 -0.4805
 8479SOL     OW40856   4.745   1.241   2.776 -0.0462 -0.1016  0.1191
 8479SOL    HW140857   4.765   1.168   2.717  0.9495  0.3670 -0.1327
 8479SOL    HW240858   4.830   1.268   2.810 -0.4724  0.5744  0.6579
 8480SOL     OW40859   5.882   2.567  10.306  0.2200  0.1813 -0.4931
 8480SOL    HW140860   5.864   2.653  10.344  0.6333  0.3778 -0.7384
 8480SOL    HW240861   5.812   2.554  10.241 -0.7338 -0.3403  0.6241
 8481SOL     OW40862   0.189   3.309   0.539  0.1626  0.1709  0.7759
 8481SOL    HW140863   0.269   3.339   0.496 -0.7109 -1.7884 -2.3962
 8481SOL    HW240864   0.121   3.369   0.510 -0.3359 -0.8528 -0.2234
 8482SOL     OW40865   1.052   0.830  11.057 -0.0045  0.0149 -0.6630
 8482SOL    HW140866   1.125   0.769  11.044  0.6856  1.1615 -2.2965
 8482SOL    HW240867   0.974   0.777  11.042  0.5059 -1.0324  0.2985
 8483SOL     OW40868   1.751   3.139   0.170 -0.2230 -0.4192 -0.1189
 8483SOL    HW140869   1.756   3.232   0.149  1.7819 -0.4935 -0.0998
 8483SOL    HW240870   1.669   3.129   0.218 -1.2265  1.0478 -1.4677
 8484SOL     OW40871   4.115   5.291   0.678 -0.0901 -0.2274  0.5431
 8484SOL    HW140872   4.069   5.371   0.656  0.6117  0.1887  0.5766
 8484SOL    HW240873   4.172   5.274   0.603 -1.9784 -2.0209 -0.5586
 8485SOL     OW40874   5.783   0.309   0.677 -0.4062  0.7861 -0.1951
 8485SOL    HW140875   5.723   0.275   0.611 -0.0655  0.8375 -0.5354
 8485SOL    HW240876   5.726   0.351   0.741 -0.7442  0.6989 -0.4330
 8486SOL     OW40877   4.084   3.595   0.414  0.5846 -0.2880  0.3783
 8486SOL    HW140878   4.015   3.603   0.479 -0.4478  3.5608 -1.0851
 8486SOL    HW240879   4.156   3.553   0.462 -0.9305  0.3328  3.3377
 8487SOL     OW40880   1.313   4.807   9.588  0.4665  0.2652 -0.2599
 8487SOL    HW140881   1.389   4.840   9.540  0.0925  1.2803 -0.1567
 8487SOL    HW240882   1.311   4.857   9.669  1.5226 -1.9347  1.1938
 8488SOL     OW40883   5.783   3.568   2.446  0.0101  0.3771  0.0311
 8488SOL    HW140884   5.818   3.479   2.449  0.0934  0.4133  0.1715
 8488SOL    HW240885   5.694   3.558   2.414 -0.5911  0.0533  1.7457
 8489SOL     OW40886   5.096   2.540  10.540 -0.1664 -0.2753 -0.3931
 8489SOL    HW140887   5.155   2.546  10.616 -1.6306 -0.1396  0.7453
 8489SOL    HW240888   5.015   2.504  10.575 -1.4182  1.2972 -1.5720
 8490SOL     OW40889   2.301   0.542   0.614  0.5522  0.0425 -0.7149
 8490SOL    HW140890   2.366   0.553   0.684 -0.6855 -1.0544  0.6292
 8490SOL    HW240891   2.292   0.630   0.577  1.4545  0.5855  0.2929
 8491SOL     OW40892   4.644   4.615   8.801  0.1996  0.5613  0.2036
 8491SOL    HW140893   4.682   4.695   8.837  0.7155  0.9750 -1.2215
 8491SOL    HW240894   4.677   4.611   8.711  0.1553 -1.2418  0.2469
 8492SOL     OW40895   1.198   0.518   9.145  0.9589  0.5363 -0.3711
 8492SOL    HW140896   1.117   0.470   9.125  1.0789  0.2681 -0.2221
 8492SOL    HW240897   1.215   0.569   9.066 -0.1199  1.6745  0.1166
 8493SOL     OW40898   1.848   4.721  10.484  0.3286  0.4143  0.0194
 8493SOL    HW140899   1.801   4.775  10.548  0.1009  0.5768 -0.2807
 8493SOL    HW240900   1.911   4.780  10.443  1.3575  0.0063  0.9877
 8494SOL     OW40901   3.073   3.772   0.681  0.0883  0.7909  0.0884
 8494SOL    HW140902   3.035   3.816   0.605 -2.2263 -1.1270  0.0506
 8494SOL    HW240903   3.099   3.843   0.740  2.0143  2.3132 -2.4823
 8495SOL     OW40904   0.179   2.460   1.713  0.4608 -0.4273 -0.3759
 8495SOL    HW140905   0.200   2.465   1.807  0.4194  0.2422 -0.3969
 8495SOL    HW240906   0.211   2.375   1.686  0.8821 -0.4425  0.1510
 8496SOL     OW40907   4.086   4.372   8.827  0.1368 -0.3687 -0.2541
 8496SOL    HW140908   4.100   4.368   8.922 -0.5837 -0.3879 -0.1468
 8496SOL    HW240909   4.009   4.318   8.812  0.0496 -0.0923 -0.8128
 8497SOL     OW40910   4.069   5.559  12.523  0.1436 -0.3337  0.1458
 8497SOL    HW140911   4.030   5.606  12.450 -1.1417  0.1058  1.0881
 8497SOL    HW240912   4.145   5.515  12.486 -0.9091 -0.7170 -1.6176
 8498SOL     OW40913   2.507   0.280   2.653 -0.2518 -0.3187 -0.0398
 8498SOL    HW140914   2.438   0.252   2.593 -0.0225 -0.7591 -0.1008
 8498SOL    HW240915   2.537   0.364   2.618 -0.9793  0.0335  0.1701
 8499SOL     OW40916   1.007   4.740   3.080  0.7739 -0.0491 -0.2720
 8499SOL    HW140917   0.961   4.739   3.163  1.6628 -0.3243  0.2253
 8499SOL    HW240918   1.091   4.783   3.099  0.4117  1.1500 -1.3300
 8500SOL     OW40919   1.412   0.794   0.977 -0.2367 -0.6489  0.5490
 8500SOL    HW140920   1.443   0.865   0.921  0.7766 -0.8997  0.7831
 8500SOL    HW240921   1.335   0.760   0.932  0.4828 -0.7592 -0.6341
 8501SOL     OW40922   0.206   2.203   2.010  0.4998 -0.0194 -0.4310
 8501SOL    HW140923   0.286   2.168   1.971  0.3033 -0.1579 -0.7167
 8501SOL    HW240924   0.136   2.147   1.976  0.3992 -0.6194  0.7358
 8502SOL     OW40925   2.856   5.358  12.260  0.0234 -0.0555  0.3014
 8502SOL    HW140926   2.867   5.268  12.230 -2.3338 -1.0494  2.1618
 8502SOL    HW240927   2.887   5.356  12.351 -1.2040  0.6762  0.7484
 8503SOL     OW40928   2.499   5.286  10.058  0.4577 -0.1603  0.5260
 8503SOL    HW140929   2.463   5.372  10.077 -0.2618 -0.5644  1.0580
 8503SOL    HW240930   2.435   5.245  10.001 -0.0595 -0.9697  1.6538
 8504SOL     OW40931   1.032   5.541  12.341  0.1873  0.0689 -0.3436
 8504SOL    HW140932   1.060   5.522  12.431  0.3415  1.8537  0.0101
 8504SOL    HW240933   0.956   5.599  12.352 -2.1066 -2.6371 -1.3270
 8505SOL     OW40934   1.328   1.324   2.987 -0.0630  0.0822  0.0289
 8505SOL    HW140935   1.364   1.380   2.919 -0.1857  2.2792  1.7188
 8505SOL    HW240936   1.233   1.331   2.977 -0.0856  0.5795  0.5287
 8506SOL     OW40937   1.793   1.898  10.332  0.1840 -0.0847 -0.0619
 8506SOL    HW140938   1.800   1.830  10.399  1.6276 -0.3299 -0.4214
 8506SOL    HW240939   1.769   1.850  10.252 -0.0209 -0.0103 -0.0428
 8507SOL     OW40940   3.806   4.285   3.297 -0.3805  0.1679 -0.6490
 8507SOL    HW140941   3.811   4.355   3.362 -0.6956 -0.5942  0.2220
 8507SOL    HW240942   3.884   4.295   3.243 -0.2904  1.0179 -0.3592
 8508SOL     OW40943   3.084   4.907   7.906 -0.0887  0.2143  0.1957
 8508SOL    HW140944   3.178   4.900   7.891 -0.5991 -3.2769 -1.9539
 8508SOL    HW240945   3.049   4.938   7.822 -1.1244 -1.5498 -0.0552
 8509SOL     OW40946   5.465   3.834   3.015  0.4010  0.1889 -0.4691
 8509SOL    HW140947   5.440   3.830   3.107 -2.6713  2.0270 -1.1626
 8509SOL    HW240948   5.509   3.919   3.006  1.7182 -0.4803 -0.4947
 8510SOL     OW40949   3.319   4.881   2.266  0.2222  0.3430 -0.1716
 8510SOL    HW140950   3.404   4.909   2.231 -0.2119  0.1110 -1.4550
 8510SOL    HW240951   3.270   4.852   2.189 -1.3347  1.2763  0.4408
 8511SOL     OW40952   0.291   3.553   9.407 -0.1409 -0.1463 -0.5220
 8511SOL    HW140953   0.324   3.534   9.319 -0.2133  0.8474 -0.7757
 8511SOL    HW240954   0.196   3.551   9.399 -0.1938  2.1905 -1.0123
 8512SOL     OW40955   5.922   2.674   1.558  0.2889  0.5393  0.3777
 8512SOL    HW140956   5.877   2.666   1.642 -0.0993  0.2292  0.1384
 8512SOL    HW240957   6.013   2.690   1.582  0.5088 -1.3533  0.8585
 8513SOL     OW40958   5.366   1.591   8.343  0.1406 -0.2044  0.3725
 8513SOL    HW140959   5.374   1.527   8.272 -0.2080  0.7522 -0.5568
 8513SOL    HW240960   5.419   1.665   8.314  1.0297 -0.2985  1.7157
 8514SOL     OW40961   5.914   5.803  12.240 -0.6699 -0.1296 -0.3402
 8514SOL    HW140962   5.902   5.709  12.253 -1.0327  0.1377  1.3171
 8514SOL    HW240963   5.979   5.828  12.305 -0.8617  0.8411 -0.5168
 8515SOL     OW40964   0.568   2.478  12.124  0.3554  0.1135 -0.1249
 8515SOL    HW140965   0.495   2.419  12.107 -0.1138  0.3792  0.9049
 8515SOL    HW240966   0.645   2.421  12.124 -0.1207 -0.5670  1.1320
 8516SOL     OW40967   2.764   3.691  12.049 -0.1402 -0.7202  0.0738
 8516SOL    HW140968   2.690   3.653  12.097  0.1076 -0.6011  0.5513
 8516SOL    HW240969   2.818   3.616  12.025  0.5822 -0.6362  1.4050
 8517SOL     OW40970   5.925   2.229   9.133  0.3358  0.3605  0.2766
 8517SOL    HW140971   6.001   2.252   9.185 -0.4715  0.7625  1.3006
 8517SOL    HW240972   5.862   2.193   9.196  0.1537 -1.1540 -0.7377
 8518SOL     OW40973   2.619   3.203  11.873  0.0379  0.3620 -0.1466
 8518SOL    HW140974   2.665   3.155  11.805  2.7237  1.0866  1.1051
 8518SOL    HW240975   2.566   3.268  11.826  0.4086 -0.3734 -1.5846
 8519SOL     OW40976   4.482   2.402   0.577  0.2831 -0.6083 -0.0614
 8519SOL    HW140977   4.511   2.459   0.648 -1.6131  1.1637 -0.6263
 8519SOL    HW240978   4.440   2.462   0.515  0.0197 -2.3923 -1.6575
 8520SOL     OW40979   1.034   0.285   3.485  0.4497 -0.0645  0.1976
 8520SOL    HW140980   1.089   0.287   3.406  0.1770 -1.1673 -0.0259
 8520SOL    HW240981   1.043   0.373   3.523  1.7325  0.0058 -0.2654
 8521SOL     OW40982   0.589   5.026   8.420 -0.1280  0.0354 -0.5046
 8521SOL    HW140983   0.557   5.042   8.331  1.7993 -0.2376 -1.2744
 8521SOL    HW240984   0.520   4.973   8.461 -0.4835 -0.8624 -2.2202
 8522SOL     OW40985   1.900   1.352  10.432 -0.3038  0.3122  0.7091
 8522SOL    HW140986   1.866   1.382  10.516 -1.2885 -2.2737  1.2924
 8522SOL    HW240987   1.826   1.308  10.390  1.0329 -1.2398 -0.0821
 8523SOL     OW40988   3.602   2.972   0.908  0.3055 -0.2383 -0.0970
 8523SOL    HW140989   3.533   2.934   0.963 -0.1623  1.0712  0.2385
 8523SOL    HW240990   3.577   3.064   0.897  1.0341 -0.1945 -1.5100
 8524SOL     OW40991   2.927   1.988   8.823  0.7544  0.1003  0.6566
 8524SOL    HW140992   2.873   1.928   8.875  1.8984 -0.2994  1.4202
 8524SOL    HW240993   2.879   1.999   8.741 -1.5965  1.5363  2.1810
 8525SOL     OW40994   1.683   4.766   9.685 -0.5898 -0.4933 -0.3648
 8525SOL    HW140995   1.713   4.840   9.633 -2.8522  0.4104 -0.4357
 8525SOL    HW240996   1.659   4.700   9.621 -0.3462 -0.5944 -0.3549
 8526SOL     OW40997   0.060   3.287   1.505 -0.0425  0.0647  0.1037
 8526SOL    HW140998   0.076   3.193   1.498  0.2372  0.1801 -0.9143
 8526SOL    HW240999   0.098   3.323   1.425 -0.6084  0.9817  0.2490
 8527SOL     OW41000   1.143   2.207  11.558 -0.1367 -0.4381 -0.1532
 8527SOL    HW141001   1.077   2.139  11.568  1.7294 -2.5309 -1.7200
 8527SOL    HW241002   1.129   2.241  11.470  0.7739 -0.7843 -0.4326
 8528SOL     OW41003   1.211   5.405   3.571 -0.1329  0.5784 -0.2212
 8528SOL    HW141004   1.224   5.414   3.665  1.7367  0.5501 -0.4641
 8528SOL    HW241005   1.233   5.491   3.535  1.6286 -0.1320 -0.8791
 8529SOL     OW41006   1.851   1.991   4.390  0.2646 -0.3604  1.1697
 8529SOL    HW141007   1.889   1.905   4.369  0.9156  0.0412  0.6708
 8529SOL    HW241008   1.873   2.045   4.315  1.0283  0.6183  2.0886
 8530SOL     OW41009   2.202   1.953   1.965 -0.1420  0.0797  0.3433
 8530SOL    HW141010   2.156   1.881   1.922 -1.4795  1.6145 -0.8626
 8530SOL    HW241011   2.287   1.958   1.920 -0.1473 -0.5840  0.2575
 8531SOL     OW41012   4.798   0.881   9.700 -0.6928  0.2236  1.1030
 8531SOL    HW141013   4.786   0.966   9.657  0.8421  0.6206  1.4010
 8531SOL    HW241014   4.788   0.901   9.793 -0.1337  0.1241  1.1871
 8532SOL     OW41015   2.249   4.509   3.552 -0.2139  0.4466 -0.1284
 8532SOL    HW141016   2.192   4.442   3.592  0.3370  0.8778  1.3861
 8532SOL    HW241017   2.233   4.588   3.603  1.9588  0.5075  0.5009
 8533SOL     OW41018   0.005   3.051   8.478  0.1538 -0.0490 -0.2465
 8533SOL    HW141019   0.038   2.961   8.478 -0.4687 -0.3028 -2.3448
 8533SOL    HW241020   0.040   3.089   8.398 -1.7199  0.7633 -0.6969
 8534SOL     OW41021   5.665   2.421   9.038 -0.1344 -0.5663  0.2000
 8534SOL    HW141022   5.746   2.371   9.029  1.1585  1.2968  1.1387
 8534SOL    HW241023   5.638   2.406   9.128 -0.4461 -0.5963  0.1029
 8535SOL     OW41024   4.737   5.622   2.301 -0.2329  0.5763  0.4685
 8535SOL    HW141025   4.785   5.692   2.256  1.2101  0.3612  1.6094
 8535SOL    HW241026   4.645   5.638   2.280  0.3369  0.9013 -1.9307
 8536SOL     OW41027   0.898   1.240  10.695  0.5592 -0.5719 -0.6464
 8536SOL    HW141028   0.942   1.185  10.761  1.4327  1.9917  0.9784
 8536SOL    HW241029   0.821   1.273  10.741  1.6865  2.0138 -0.5508
 8537SOL     OW41030   3.901   2.629   8.533 -0.0924 -0.1641  0.5913
 8537SOL    HW141031   3.888   2.579   8.452  2.5369  0.4690 -0.2648
 8537SOL    HW241032   3.957   2.702   8.508  0.0180  0.5551  2.8187
 8538SOL     OW41033   0.321   2.657   9.210 -0.1539 -0.4955  0.6565
 8538SOL    HW141034   0.325   2.566   9.181  0.3409 -0.7478  1.4939
 8538SOL    HW241035   0.406   2.673   9.251 -0.2865  0.3075  0.6271
 8539SOL     OW41036   0.551   2.756   2.216  0.0230  0.0079 -0.0959
 8539SOL    HW141037   0.549   2.680   2.274 -0.6276  0.7110  0.8155
 8539SOL    HW241038   0.614   2.816   2.257 -0.3036  0.4294 -0.2102
 8540SOL     OW41039   4.328   0.734   7.378 -0.3888 -0.3920 -0.2075
 8540SOL    HW141040   4.271   0.781   7.317 -1.1554 -3.3894 -1.9461
 8540SOL    HW241041   4.269   0.705   7.448 -0.5209 -1.3038 -0.6879
 8541SOL     OW41042   3.976   3.741  11.362 -0.2293  0.2957  0.0055
 8541SOL    HW141043   3.881   3.733  11.371 -0.5362  2.3053 -1.3625
 8541SOL    HW241044   4.002   3.663  11.313 -0.9403 -1.0531  1.7016
 8542SOL     OW41045   2.623   4.786   4.385 -0.0664  0.4825 -0.6479
 8542SOL    HW141046   2.707   4.772   4.340  0.5417  1.8005  0.0165
 8542SOL    HW241047   2.617   4.881   4.393 -0.5642  0.3150  1.2777
 8543SOL     OW41048   2.580   0.573   0.172  0.1654  0.1897  0.1708
 8543SOL    HW141049   2.567   0.655   0.220  1.6332  0.5376 -0.0012
 8543SOL    HW241050   2.538   0.507   0.226 -1.4620  1.1203  0.0751
 8544SOL     OW41051   4.554   1.217   9.769  0.2237 -0.6674  0.1223
 8544SOL    HW141052   4.540   1.311   9.784 -0.2581 -0.5922 -0.7480
 8544SOL    HW241053   4.482   1.174   9.814 -1.1456 -0.4519 -1.7852
 8545SOL     OW41054   4.925   4.476   0.259 -0.0778 -0.0639  0.2195
 8545SOL    HW141055   4.895   4.487   0.169 -0.1921  0.6085  0.3315
 8545SOL    HW241056   5.009   4.430   0.251  0.4849  1.0265 -0.3067
 8546SOL     OW41057   4.429   3.041   2.860 -0.5973 -0.2871  0.1691
 8546SOL    HW141058   4.472   2.991   2.929  0.2416  0.2348  0.0304
 8546SOL    HW241059   4.500   3.089   2.817 -1.1942 -0.1337 -0.6595
 8547SOL     OW41060   2.916   4.863   8.601 -0.1134 -0.0414  0.0121
 8547SOL    HW141061   2.997   4.890   8.558 -0.7764 -0.4948 -1.5545
 8547SOL    HW241062   2.906   4.771   8.576 -0.8574 -0.1219  0.5934
 8548SOL     OW41063   4.346   0.137  10.192  0.4279 -0.0195  0.3377
 8548SOL    HW141064   4.354   0.129  10.287  0.8151  0.7320  0.3713
 8548SOL    HW241065   4.286   0.210  10.178  0.1939 -0.2722  0.0080
 8549SOL     OW41066   5.498   3.755   2.713 -0.2931  0.0431  0.0006
 8549SOL    HW141067   5.412   3.779   2.747  0.2397  1.0593  0.6683
 8549SOL    HW241068   5.559   3.804   2.767  0.6869 -0.3594 -0.7335
 8550SOL     OW41069   5.282   4.871   0.864 -0.1790 -0.5730 -0.2255
 8550SOL    HW141070   5.263   4.779   0.881 -0.2976 -0.7630 -1.3457
 8550SOL    HW241071   5.222   4.919   0.921  0.8364 -1.1663  1.4137
 8551SOL     OW41072   3.793   1.601  10.182  0.0542  0.2258  0.7423
 8551SOL    HW141073   3.801   1.508  10.158  0.2813  0.1126  1.2509
 8551SOL    HW241074   3.729   1.602  10.252 -1.1493  0.6429 -0.3474
 8552SOL     OW41075   3.743   0.060   0.381 -0.1298  0.1464 -0.1519
 8552SOL    HW141076   3.711   0.142   0.344 -0.3170 -0.8579 -2.3087
 8552SOL    HW241077   3.833   0.053   0.351 -0.0509 -0.3504  0.1837
 8553SOL     OW41078   2.861   3.296  12.004  0.1011 -0.1003 -0.0928
 8553SOL    HW141079   2.771   3.291  11.972 -0.1182 -1.2462  0.6992
 8553SOL    HW241080   2.907   3.345  11.936 -0.8567 -0.5278 -1.0658
 8554SOL     OW41081   1.242   4.128  11.187 -0.1117 -0.1326  0.5713
 8554SOL    HW141082   1.237   4.118  11.283 -2.6042  3.3057  0.9030
 8554SOL    HW241083   1.203   4.048  11.153  1.0331 -1.5118  2.4282
 8555SOL     OW41084   4.466   2.311  10.802  0.4732  0.1224  0.0939
 8555SOL    HW141085   4.439   2.220  10.790  0.0855  0.4423 -1.6017
 8555SOL    HW241086   4.426   2.337  10.884  0.2251 -1.1100  0.3741
 8556SOL     OW41087   3.730   1.110  10.109 -0.9409  0.1791 -0.0670
 8556SOL    HW141088   3.819   1.088  10.084 -0.0262  0.4430  2.7449
 8556SOL    HW241089   3.690   1.026  10.132 -0.6481  0.2975  0.9221
 8557SOL     OW41090   4.799   3.717  11.795 -0.2719 -0.2753  0.3016
 8557SOL    HW141091   4.839   3.635  11.825 -1.6934 -1.4986 -1.0904
 8557SOL    HW241092   4.736   3.739  11.865 -0.5760 -0.8867  0.2271
 8558SOL     OW41093   3.867   0.599   2.363  0.3086  0.0687 -0.4662
 8558SOL    HW141094   3.954   0.605   2.324  0.3216  1.9326 -0.2256
 8558SOL    HW241095   3.810   0.646   2.302 -0.4279 -0.6694 -0.3495
 8559SOL     OW41096   3.164   0.511  10.719 -0.0809 -0.3869  0.2258
 8559SOL    HW141097   3.085   0.518  10.772 -0.4843 -1.0283 -0.2757
 8559SOL    HW241098   3.190   0.419  10.725 -0.4283 -0.5829 -1.0943
 8560SOL     OW41099   3.300   3.109   8.878 -0.3866 -0.1740 -0.1948
 8560SOL    HW141100   3.275   3.149   8.794  0.0954 -1.4102 -0.9406
 8560SOL    HW241101   3.238   3.036   8.889  0.0201 -0.4685  0.1641
 8561SOL     OW41102   4.704   2.985   9.819 -0.3141  0.3955 -0.2968
 8561SOL    HW141103   4.789   3.018   9.791 -0.9193  1.6803 -0.6651
 8561SOL    HW241104   4.654   3.064   9.842 -1.0315 -0.4105  0.9768
 8562SOL     OW41105   0.477   1.123   8.528  0.3809 -0.1834  0.2341
 8562SOL    HW141106   0.382   1.126   8.522  0.3665 -1.3361 -0.2773
 8562SOL    HW241107   0.505   1.214   8.513 -0.4299 -0.5449 -4.1779
 8563SOL     OW41108   4.407   5.322   0.968  0.6620  0.2892 -0.0167
 8563SOL    HW141109   4.453   5.249   0.927  0.5671  0.8167 -1.0856
 8563SOL    HW241110   4.470   5.394   0.966  1.2981 -0.1306  2.3733
 8564SOL     OW41111   1.988   3.567   3.940  0.2888  0.7474 -0.8580
 8564SOL    HW141112   2.037   3.601   4.015  1.4058 -1.4161 -0.5600
 8564SOL    HW241113   1.896   3.580   3.964  0.5918 -1.0356  1.4839
 8565SOL     OW41114   2.174   3.832   9.150  0.0936  0.2967  0.1396
 8565SOL    HW141115   2.113   3.848   9.223 -1.3516 -0.3507 -0.8928
 8565SOL    HW241116   2.244   3.779   9.189 -0.1414  0.7909  1.2807
 8566SOL     OW41117   3.835   4.833   8.428  0.2787  0.2634 -0.7434
 8566SOL    HW141118   3.893   4.772   8.474 -0.3684 -1.0303 -1.5993
 8566SOL    HW241119   3.776   4.867   8.496  0.8465  0.1666 -0.2085
 8567SOL     OW41120   3.917   4.663   0.199  0.6254  0.0733 -0.0107
 8567SOL    HW141121   3.965   4.740   0.169 -0.4454  1.4011  1.6228
 8567SOL    HW241122   3.951   4.647   0.287  0.1730 -0.7682  0.0140
 8568SOL     OW41123   3.739   4.024   9.065 -0.5872  0.0230 -0.4575
 8568SOL    HW141124   3.644   4.018   9.072 -0.5467  1.3391  1.6445
 8568SOL    HW241125   3.770   3.935   9.082 -1.3830 -0.2050 -0.1770
 8569SOL     OW41126   1.510   4.515  11.920 -0.3342  0.0408  0.2331
 8569SOL    HW141127   1.586   4.499  11.976  0.1667  2.5250  0.3300
 8569SOL    HW241128   1.533   4.474  11.837  2.0775  2.5854 -0.4232
 8570SOL     OW41129   1.960   0.547   8.394 -0.7407 -0.1367 -0.5987
 8570SOL    HW141130   1.951   0.558   8.299  0.5763 -1.7151 -0.9248
 8570SOL    HW241131   2.049   0.575   8.413 -0.6297 -0.8897  0.0101
 8571SOL     OW41132   1.617   2.235  10.350 -1.0162 -0.0497 -0.1460
 8571SOL    HW141133   1.604   2.330  10.349 -1.4077 -0.1063 -0.4665
 8571SOL    HW241134   1.708   2.224  10.378 -0.7470  0.4396 -0.8085
 8572SOL     OW41135   0.625   5.778   2.860  0.0491 -0.4556 -0.1163
 8572SOL    HW141136   0.580   5.812   2.783  0.5888 -0.9084 -0.6386
 8572SOL    HW241137   0.697   5.726   2.825 -0.0765 -1.1946  0.6786
 8573SOL     OW41138   4.489   4.450  11.663 -0.3407 -0.0665  0.8414
 8573SOL    HW141139   4.409   4.476  11.708 -0.5788  0.2171  0.2707
 8573SOL    HW241140   4.519   4.530  11.620  0.4085 -0.1016  1.2830
 8574SOL     OW41141   3.916   4.432   2.366  0.2245  0.1013  0.3038
 8574SOL    HW141142   3.966   4.350   2.368  0.4200  0.2087 -0.0508
 8574SOL    HW241143   3.858   4.422   2.291  0.5526  0.4647 -0.0024
 8575SOL     OW41144   3.698   0.453   0.064  0.1269  0.2968 -0.4379
 8575SOL    HW141145   3.622   0.498   0.100  1.2551 -0.1468  2.6179
 8575SOL    HW241146   3.685   0.361   0.087  1.7694  0.2774  0.4771
 8576SOL     OW41147   5.099   5.393   9.093  0.2736  0.6546 -0.0496
 8576SOL    HW141148   5.169   5.389   9.028  0.3821 -2.5606  0.1933
 8576SOL    HW241149   5.018   5.397   9.042  0.4560  0.3973 -0.3582
 8577SOL     OW41150   1.963   3.325  11.244  0.1070 -0.5968 -0.0889
 8577SOL    HW141151   1.970   3.355  11.335 -1.5417  0.8150 -0.4080
 8577SOL    HW241152   2.046   3.352  11.203  1.1702 -1.8902  1.1579
 8578SOL     OW41153   2.832   4.612  11.525 -0.0461 -0.1139 -0.0814
 8578SOL    HW141154   2.864   4.545  11.464  0.2209 -0.2945  0.2577
 8578SOL    HW241155   2.908   4.667  11.542  0.3332 -1.0999  1.4752
 8579SOL     OW41156   2.492   3.902   2.968 -0.0624  0.3428  0.2929
 8579SOL    HW141157   2.427   3.834   2.953  0.6780  0.0281 -1.7185
 8579SOL    HW241158   2.519   3.891   3.059 -2.0731 -0.1628  0.8441
 8580SOL     OW41159   1.502   4.930   9.177 -0.1455 -0.4810  0.1186
 8580SOL    HW141160   1.493   4.882   9.095 -0.4420  1.2645 -0.8927
 8580SOL    HW241161   1.413   4.939   9.210 -0.2202  0.3952 -0.3042
 8581SOL     OW41162   4.479   3.716   3.168  0.1089 -0.4052  0.1390
 8581SOL    HW141163   4.477   3.719   3.263  1.2536 -0.7022  0.1763
 8581SOL    HW241164   4.430   3.794   3.140 -1.3532 -1.0136  0.9501
 8582SOL     OW41165   5.336   1.031   2.419  0.4088  0.2249 -0.0135
 8582SOL    HW141166   5.316   1.089   2.346  1.2224 -0.6221 -0.9188
 8582SOL    HW241167   5.273   0.960   2.411  0.0472  0.4782  0.5229
 8583SOL     OW41168   5.277   4.081   2.618  0.2731 -0.3072 -0.4269
 8583SOL    HW141169   5.282   4.010   2.683 -3.9468 -0.6801 -0.3923
 8583SOL    HW241170   5.244   4.156   2.667  1.0633  0.6173 -1.2947
 8584SOL     OW41171   0.624   4.189   8.942 -0.4611  0.3432  0.3061
 8584SOL    HW141172   0.594   4.207   8.853 -0.4056  0.2434  0.2657
 8584SOL    HW241173   0.700   4.131   8.931 -0.1515  0.7292  0.3997
 8585SOL     OW41174   4.715   5.700   0.149  0.1484  0.1530  0.3856
 8585SOL    HW141175   4.715   5.649   0.230 -0.0422 -1.2942 -0.5217
 8585SOL    HW241176   4.635   5.673   0.104  1.1472 -0.3290 -1.1043
 8586SOL     OW41177   2.017   1.798   3.038  0.5729  0.1096  0.0547
 8586SOL    HW141178   2.051   1.708   3.033 -1.5888 -0.8157  1.3440
 8586SOL    HW241179   1.941   1.792   3.096  0.7709  2.9099  0.6879
 8587SOL     OW41180   0.592   2.107   3.122 -0.7180  0.6150  0.2852
 8587SOL    HW141181   0.566   2.050   3.194  3.3558 -1.9855 -0.1381
 8587SOL    HW241182   0.646   2.175   3.164  1.1980 -0.5832 -0.2132
 8588SOL     OW41183   3.072   4.253   2.324 -0.4625  0.4358 -0.0659
 8588SOL    HW141184   2.996   4.196   2.318 -0.2511  0.2345 -0.9066
 8588SOL    HW241185   3.036   4.341   2.309 -0.4195  0.2595 -1.3134
 8589SOL     OW41186   3.357   2.705   3.486  0.0876 -0.2349  0.1294
 8589SOL    HW141187   3.279   2.700   3.541 -0.5036  1.8245 -0.4964
 8589SOL    HW241188   3.417   2.762   3.534  0.3463 -0.0178 -0.4426
 8590SOL     OW41189   4.694   0.011  11.480 -0.3522  0.0355 -0.0062
 8590SOL    HW141190   4.612   0.061  11.473  0.1229  1.0782  1.6092
 8590SOL    HW241191   4.673  -0.059  11.541  0.0182  0.4391  0.5881
 8591SOL     OW41192   3.083   2.776   8.130  0.5894 -0.3859 -0.0654
 8591SOL    HW141193   3.151   2.832   8.167  1.6600 -2.6960  1.6056
 8591SOL    HW241194   3.112   2.760   8.040  0.7380  0.9787 -0.2750
 8592SOL     OW41195   0.771   3.227  11.261  0.2289 -0.0574  0.1203
 8592SOL    HW141196   0.801   3.139  11.236  0.5340  0.3315 -0.8931
 8592SOL    HW241197   0.737   3.265  11.179 -0.4435  0.5502  0.6750
 8593SOL     OW41198   3.714   3.490  12.302  0.2074  0.0332 -0.0044
 8593SOL    HW141199   3.737   3.550  12.374  0.6357  0.3032 -0.3651
 8593SOL    HW241200   3.796   3.476  12.255  0.0499 -0.6203 -0.0897
 8594SOL     OW41201   0.585   5.313   1.105 -0.2026 -0.4880 -0.0675
 8594SOL    HW141202   0.525   5.387   1.119  0.9768  0.5964 -0.6544
 8594SOL    HW241203   0.527   5.241   1.080 -1.2540  0.6274 -0.9714
 8595SOL     OW41204   4.895   1.702  10.109 -0.0600  0.0982 -0.0483
 8595SOL    HW141205   4.948   1.693  10.188 -1.0218 -1.0819  0.4800
 8595SOL    HW241206   4.958   1.695  10.037  1.0708  2.9354  0.6043
 8596SOL     OW41207   2.045   2.843   9.087 -0.3114  0.2977 -0.4311
 8596SOL    HW141208   1.968   2.899   9.103 -0.0198  0.7807 -0.7024
 8596SOL    HW241209   2.009   2.754   9.084 -0.4632  0.1988  2.4104
 8597SOL     OW41210   1.426   1.841   2.596  0.5961 -0.3907  0.0757
 8597SOL    HW141211   1.428   1.830   2.501 -1.0754  0.1781 -0.0336
 8597SOL    HW241212   1.481   1.918   2.612  0.8628 -0.4717 -0.4342
 8598SOL     OW41213   1.263   5.073   1.976  0.2359 -0.2013 -0.4261
 8598SOL    HW141214   1.271   5.162   2.010  1.5694 -0.5324  0.1831
 8598SOL    HW241215   1.225   5.083   1.889 -0.7439  0.8604  0.1246
 8599SOL     OW41216   5.897   2.581   3.507 -0.0401  0.5333  0.4106
 8599SOL    HW141217   5.943   2.645   3.452 -1.2421 -1.3381 -2.9403
 8599SOL    HW241218   5.807   2.614   3.511  0.4651  1.7128  3.0189
 8600SOL     OW41219   4.887   4.079   0.497  0.3958  0.0091  0.4711
 8600SOL    HW141220   4.950   4.072   0.569  0.8405 -1.0721 -0.0101
 8600SOL    HW241221   4.803   4.097   0.540  1.1381  2.1365  1.0729
 8601SOL     OW41222   0.232   3.547  11.328  0.4013 -0.6219 -0.1982
 8601SOL    HW141223   0.273   3.513  11.408 -1.4803 -0.8709  0.7056
 8601SOL    HW241224   0.245   3.642  11.333 -0.2893 -0.5698  0.7507
 8602SOL     OW41225   1.707   3.819   0.869  0.8213  0.0270 -0.4859
 8602SOL    HW141226   1.629   3.765   0.885  0.9405 -0.7698 -2.4694
 8602SOL    HW241227   1.749   3.827   0.955 -0.1027 -1.6371  0.1365
 8603SOL     OW41228   2.403   4.025   2.475  0.0148 -0.1979 -0.1496
 8603SOL    HW141229   2.361   3.941   2.491 -1.3056  0.5525  0.4422
 8603SOL    HW241230   2.393   4.040   2.381  2.0558 -1.6305 -0.6171
 8604SOL     OW41231   2.386   0.653   8.239 -0.1167  0.0850 -0.1134
 8604SOL    HW141232   2.478   0.654   8.210  0.2271 -1.8646  0.8658
 8604SOL    HW241233   2.355   0.565   8.219 -2.1591  1.0669 -1.5022
 8605SOL     OW41234   5.628   4.198   3.899 -0.0231 -0.3143 -0.3514
 8605SOL    HW141235   5.644   4.286   3.863 -0.0291 -0.5072 -0.8291
 8605SOL    HW241236   5.534   4.184   3.888 -0.1695 -0.0567  0.4732
 8606SOL     OW41237   0.860   5.157  10.686 -0.2744 -0.4323 -0.3009
 8606SOL    HW141238   0.779   5.130  10.729  0.2591  0.4301  1.2899
 8606SOL    HW241239   0.865   5.251  10.701  0.6966 -0.3691 -0.9603
 8607SOL     OW41240   3.795   2.973   8.966  0.2685 -0.2602  0.4218
 8607SOL    HW141241   3.705   2.993   8.939  0.1072 -2.0100 -0.3769
 8607SOL    HW241242   3.786   2.939   9.055  0.7222  4.7282  2.5908
 8608SOL     OW41243   5.690   4.971   1.642  0.1726  0.6759  0.2791
 8608SOL    HW141244   5.668   5.056   1.603  1.2584  0.9908  0.3108
 8608SOL    HW241245   5.716   4.992   1.732  1.1516  0.4185  0.0710
 8609SOL     OW41246   0.171   1.152  11.048  0.0009  0.4402 -0.2302
 8609SOL    HW141247   0.241   1.142  11.113 -0.5537  1.9345  0.6448
 8609SOL    HW241248   0.107   1.209  11.092 -0.6859  0.9390 -1.8581
 8610SOL     OW41249   4.274   5.574   0.960 -0.3635 -0.1629 -0.7331
 8610SOL    HW141250   4.262   5.489   0.918  0.5737 -0.7651  0.1794
 8610SOL    HW241251   4.283   5.636   0.887 -1.4790 -0.7805 -1.4001
 8611SOL     OW41252   3.511   2.299  10.677  0.1446  0.0117 -0.3998
 8611SOL    HW141253   3.562   2.275  10.755  0.9805 -0.1827 -0.9948
 8611SOL    HW241254   3.552   2.380  10.646  0.5040 -0.4782 -1.2349
 8612SOL     OW41255   3.736   0.166   3.259 -0.0712 -0.0916  0.0329
 8612SOL    HW141256   3.793   0.212   3.197 -0.8177  1.7376  0.6865
 8612SOL    HW241257   3.717   0.082   3.217  1.5864  0.0426 -1.0174
 8613SOL     OW41258   1.583   1.914   9.787 -0.4783  0.5252  0.2805
 8613SOL    HW141259   1.662   1.948   9.831 -0.5079 -1.7012  2.1480
 8613SOL    HW241260   1.611   1.832   9.747 -2.0991 -0.8926  1.9737
 8614SOL     OW41261   3.571   1.708   1.595  0.3627 -0.2793 -0.1376
 8614SOL    HW141262   3.552   1.797   1.563  0.3872 -0.7938 -1.6579
 8614SOL    HW241263   3.485   1.666   1.600  0.1572  0.3679  2.3293
 8615SOL     OW41264   1.405   4.696  10.027  0.3622  0.0250 -0.0550
 8615SOL    HW141265   1.458   4.703  10.106 -1.1061 -0.1464  0.9604
 8615SOL    HW241266   1.408   4.603  10.004 -1.9508 -0.5147  1.7331
 8616SOL     OW41267   3.328   0.316  12.022 -0.3976 -0.4612  0.1447
 8616SOL    HW141268   3.421   0.339  12.014  0.1431 -2.2877  0.9840
 8616SOL    HW241269   3.295   0.376  12.089  0.4250 -0.4655  0.5685
 8617SOL     OW41270   0.322   4.169  10.075  0.1771  0.0593  0.3943
 8617SOL    HW141271   0.397   4.115  10.054 -2.0799 -2.1698 -2.3020
 8617SOL    HW241272   0.311   4.227   9.999 -2.0745 -1.1462 -0.2513
 8618SOL     OW41273   2.138   5.901  10.025  0.0791  0.3123 -0.2663
 8618SOL    HW141274   2.048   5.902  10.058  0.2270  0.1679  0.1434
 8618SOL    HW241275   2.187   5.955  10.087  0.4630 -0.3869  0.0448
 8619SOL     OW41276   3.976   5.220   9.746 -0.1083  0.3431  0.5167
 8619SOL    HW141277   4.001   5.236   9.837  0.9869  1.8889 -0.0432
 8619SOL    HW241278   3.929   5.298   9.719  1.1040  0.6628 -0.7652
 8620SOL     OW41279   3.853   1.261   3.186 -0.4906 -0.3299 -0.6527
 8620SOL    HW141280   3.911   1.277   3.111  0.0398  0.3270 -0.1094
 8620SOL    HW241281   3.884   1.321   3.253 -0.0088 -1.9700  0.6266
 8621SOL     OW41282   2.513   3.460   2.838 -0.3015 -0.0703  0.9452
 8621SOL    HW141283   2.453   3.410   2.892 -0.6241 -1.8072 -0.9417
 8621SOL    HW241284   2.475   3.456   2.750  0.2052  2.6453  0.5569
 8622SOL     OW41285   4.648   3.884  12.094  0.0430  0.1782 -0.0610
 8622SOL    HW141286   4.675   3.974  12.074 -1.2772  0.3078 -1.3153
 8622SOL    HW241287   4.705   3.858  12.166  1.0509  1.7094 -0.2731
 8623SOL     OW41288   4.384   5.667   1.193 -0.1593  0.2852 -0.2035
 8623SOL    HW141289   4.332   5.635   1.119  0.8347 -1.5797 -0.1291
 8623SOL    HW241290   4.381   5.596   1.257  0.5517  1.1159  0.7717
 8624SOL     OW41291   5.031   2.907   9.112  0.2879  0.0799 -0.9664
 8624SOL    HW141292   5.102   2.887   9.050 -0.7057 -0.5361 -1.9403
 8624SOL    HW241293   4.964   2.950   9.058 -0.3540  0.0453 -0.2026
 8625SOL     OW41294   0.287   4.267  10.386 -0.2566 -0.1319  0.4285
 8625SOL    HW141295   0.380   4.244  10.387 -0.2148 -0.1524 -1.6193
 8625SOL    HW241296   0.285   4.356  10.352 -1.0341 -0.4389 -0.3501
 8626SOL     OW41297   2.391   0.576   2.543 -0.0141 -0.6757  0.3873
 8626SOL    HW141298   2.452   0.572   2.469 -0.5868 -1.8751 -0.0468
 8626SOL    HW241299   2.322   0.513   2.520 -2.0634  1.5467  0.2908
 8627SOL     OW41300   4.487   3.044  10.308  0.0995  0.1688  0.0298
 8627SOL    HW141301   4.517   3.034  10.398  2.3699 -0.6460 -0.7896
 8627SOL    HW241302   4.493   3.138  10.291  1.7160  0.0777  0.0475
 8628SOL     OW41303   1.815   0.000  11.673  0.0114  0.6902  0.2474
 8628SOL    HW141304   1.784   0.091  11.668 -3.1204 -0.2477  1.4989
 8628SOL    HW241305   1.773  -0.035  11.752  1.4476 -1.7614 -0.0362
 8629SOL     OW41306   3.527   5.112  10.868 -0.0521  0.0759  0.0678
 8629SOL    HW141307   3.584   5.034  10.866 -0.5456 -0.2985  0.4484
 8629SOL    HW241308   3.585   5.184  10.845  0.6204 -0.2767  0.6222
 8630SOL     OW41309   1.926   0.891   2.825 -0.1324 -0.1137  0.4273
 8630SOL    HW141310   1.917   0.906   2.731 -0.1465 -1.3704  0.2195
 8630SOL    HW241311   1.984   0.816   2.832  1.4423  1.1575  1.4875
 8631SOL     OW41312   0.791   0.349  11.700 -0.1125  0.0080 -0.2482
 8631SOL    HW141313   0.717   0.369  11.642  0.5460  0.9199 -0.7799
 8631SOL    HW241314   0.845   0.288  11.650  0.6507  1.0833 -0.7624
 8632SOL     OW41315   0.298   2.561   7.933 -0.3609 -0.6098  0.1039
 8632SOL    HW141316   0.247   2.628   7.980  0.1482 -0.8830  1.0614
 8632SOL    HW241317   0.247   2.544   7.854 -0.3234  1.1619 -0.3246
 8633SOL     OW41318   4.199   0.041   9.517 -0.3767 -0.0669  0.4070
 8633SOL    HW141319   4.270   0.100   9.491 -0.3470 -0.3377 -0.1166
 8633SOL    HW241320   4.244  -0.033   9.559 -0.3927  0.1113  0.7424
 8634SOL     OW41321   5.515   5.733  12.249 -0.2162  0.0511  0.2523
 8634SOL    HW141322   5.505   5.662  12.185 -1.8699  1.4105 -1.0640
 8634SOL    HW241323   5.582   5.790  12.211 -0.8790  0.6281 -0.0636
 8635SOL     OW41324   2.708   3.318   2.991 -0.3678 -0.2499 -0.4422
 8635SOL    HW141325   2.681   3.384   2.926 -1.3574 -0.3021 -0.0931
 8635SOL    HW241326   2.694   3.361   3.075  0.5090 -0.3384 -0.2456
 8636SOL     OW41327   1.397   1.524   3.378 -0.0615  0.0252  0.3145
 8636SOL    HW141328   1.411   1.609   3.420 -0.8993  0.1543  0.3413
 8636SOL    HW241329   1.387   1.463   3.451  3.0624 -0.5573  0.3327
 8637SOL     OW41330   4.173   1.867   8.962  0.1577 -0.0915  0.3694
 8637SOL    HW141331   4.195   1.850   8.870  2.3493  0.3874  0.7712
 8637SOL    HW241332   4.086   1.830   8.973 -0.0952 -0.2381 -1.8828
 8638SOL     OW41333   2.450   1.154   0.075  0.1861  0.1524 -0.1486
 8638SOL    HW141334   2.444   1.066   0.038  0.6338 -0.3688  0.9958
 8638SOL    HW241335   2.472   1.209   0.001 -5.2509  0.1580 -1.9473
 8639SOL     OW41336   4.084   1.548   7.477  0.3411 -0.3456  0.5072
 8639SOL    HW141337   4.151   1.611   7.502  0.0262  0.0940  0.2511
 8639SOL    HW241338   4.099   1.473   7.534  0.9134 -0.1635  0.5987
 8640SOL     OW41339   4.250   1.023   1.753  0.4055  0.9273  0.0148
 8640SOL    HW141340   4.233   1.102   1.805  1.3780  1.9007 -1.1054
 8640SOL    HW241341   4.208   1.039   1.669  1.7689  0.8614 -0.7043
 8641SOL     OW41342   4.591   5.051  12.022 -0.0366  0.0329  0.2712
 8641SOL    HW141343   4.606   4.980  11.960 -0.7867  1.2703 -1.3823
 8641SOL    HW241344   4.499   5.076  12.008  0.5843  2.1904 -0.1108
 8642SOL     OW41345   2.445   2.884   2.934  0.3160 -0.1756 -0.3985
 8642SOL    HW141346   2.508   2.854   2.868  0.4256 -0.8746  0.0172
 8642SOL    HW241347   2.373   2.821   2.928  0.8957 -1.0057  1.0213
 8643SOL     OW41348   5.085   3.419   9.192  0.7679 -0.2889 -0.2903
 8643SOL    HW141349   5.073   3.350   9.258 -0.4434 -0.5754 -0.8088
 8643SOL    HW241350   5.158   3.471   9.226  0.9110 -1.1160  0.7045
 8644SOL     OW41351   5.604   1.260   8.002  0.1032 -0.5483 -0.3549
 8644SOL    HW141352   5.677   1.198   7.997  0.0772 -0.4901 -1.7372
 8644SOL    HW241353   5.534   1.212   8.046  0.8710 -0.7083  0.6987
 8645SOL     OW41354   0.935   5.301   2.047  0.0062 -0.8701  0.0046
 8645SOL    HW141355   1.019   5.331   2.012 -0.8139  0.3081 -1.0098
 8645SOL    HW241356   0.871   5.359   2.007 -1.4017 -2.4469 -0.0839
 8646SOL     OW41357   5.001   2.055   8.758  0.1766 -0.2662  0.7739
 8646SOL    HW141358   5.026   2.148   8.761  0.6005 -0.3468 -0.1190
 8646SOL    HW241359   5.003   2.027   8.849 -0.9030  0.8575  1.1590
 8647SOL     OW41360   3.765   5.322   0.721  0.1734  0.0737 -0.3242
 8647SOL    HW141361   3.793   5.306   0.630  0.3496  0.9946 -0.4318
 8647SOL    HW241362   3.742   5.414   0.723 -1.0462 -0.2394  0.2605
 8648SOL     OW41363   4.251   5.863   0.480  0.5811  0.4040 -0.2263
 8648SOL    HW141364   4.273   5.848   0.388 -1.5768 -2.6862 -0.2849
 8648SOL    HW241365   4.191   5.938   0.478  2.3221  1.8437 -1.0423
 8649SOL     OW41366   1.423   1.334   2.345 -0.1091 -0.2029  0.0004
 8649SOL    HW141367   1.401   1.273   2.415  2.1108 -1.8217 -0.6461
 8649SOL    HW241368   1.367   1.308   2.271  0.3277 -1.0094 -0.0488
 8650SOL     OW41369   2.420   4.038   9.307 -0.4619 -0.0924 -0.1313
 8650SOL    HW141370   2.453   4.069   9.223 -2.0927  0.7970 -0.4733
 8650SOL    HW241371   2.390   3.949   9.290  0.3341 -0.3451 -0.1970
 8651SOL     OW41372   1.514   1.962   3.949  0.0641  0.4639 -0.1453
 8651SOL    HW141373   1.590   1.954   3.891  0.0600 -0.0672 -0.0834
 8651SOL    HW241374   1.539   2.030   4.012  0.4004  0.4549 -0.2655
 8652SOL     OW41375   4.461   0.930   1.360  0.3358  0.1891 -0.2172
 8652SOL    HW141376   4.511   1.011   1.352 -0.7785  1.0729  1.4768
 8652SOL    HW241377   4.376   0.957   1.394 -1.1742 -1.3465 -2.6153
 8653SOL     OW41378   1.398   0.496   9.682  0.1783  0.1129  0.0077
 8653SOL    HW141379   1.392   0.477   9.589 -0.9029  0.8185 -0.0709
 8653SOL    HW241380   1.370   0.587   9.690 -1.5538 -0.5161  1.2607
 8654SOL     OW41381   1.707   2.674   9.163 -0.5139 -0.0833 -0.0271
 8654SOL    HW141382   1.697   2.580   9.181 -2.2149  0.3490  1.3820
 8654SOL    HW241383   1.672   2.685   9.075 -0.4822 -0.7517 -0.1252
 8655SOL     OW41384   2.859   3.351  10.963 -0.1675 -0.2932 -0.4139
 8655SOL    HW141385   2.817   3.419  11.014 -0.8103  0.5922 -2.1000
 8655SOL    HW241386   2.809   3.272  10.981 -1.1847  0.2886 -0.6820
 8656SOL     OW41387   3.422   3.266   1.850  0.3457  0.2407 -0.8224
 8656SOL    HW141388   3.376   3.347   1.829 -0.5163 -0.0691 -0.1489
 8656SOL    HW241389   3.387   3.202   1.788 -1.4459 -0.4276  0.8556
 8657SOL     OW41390   0.237   2.926  10.073 -0.5323 -0.1239 -0.2849
 8657SOL    HW141391   0.247   2.893  10.162  0.1177  0.2109 -0.2346
 8657SOL    HW241392   0.175   2.999  10.082  0.1856  0.4651  0.0348
 8658SOL     OW41393   0.989   1.767   3.942 -0.5005 -0.9398 -0.4387
 8658SOL    HW141394   1.034   1.686   3.965 -0.8306 -1.4038 -1.3892
 8658SOL    HW241395   1.023   1.832   4.004  0.3003 -1.6323 -0.1414
 8659SOL     OW41396   5.081   0.588   8.699 -0.1318  0.0871  0.3461
 8659SOL    HW141397   5.066   0.510   8.645  0.8498  0.3187 -0.2814
 8659SOL    HW241398   5.020   0.579   8.772  0.1043 -1.3624  0.3794
 8660SOL     OW41399   3.215   4.481  12.262  0.4207 -0.0257 -0.3420
 8660SOL    HW141400   3.197   4.493  12.169 -0.3793  1.0744 -0.0548
 8660SOL    HW241401   3.140   4.431  12.295  0.5345 -0.1164 -0.2179
 8661SOL     OW41402   3.549   3.740   2.305  0.2466 -0.0997  0.1541
 8661SOL    HW141403   3.571   3.752   2.213  1.2273 -0.0388  0.3906
 8661SOL    HW241404   3.457   3.766   2.311  0.7399  1.8501 -0.4296
 8662SOL     OW41405   4.380   3.922   2.986  0.6417  0.1095 -0.3010
 8662SOL    HW141406   4.290   3.913   3.017 -0.1476  1.3265 -2.1014
 8662SOL    HW241407   4.396   4.017   2.986  0.6254  0.1675 -3.4184
 8663SOL     OW41408   2.018   2.591  11.641 -0.2651  0.2223  0.4547
 8663SOL    HW141409   2.024   2.636  11.557 -0.7472 -2.3906 -1.0406
 8663SOL    HW241410   2.106   2.559  11.658 -0.7704 -1.7681 -0.5392
 8664SOL     OW41411   0.821   2.139  10.532 -0.6208  0.1197 -0.0775
 8664SOL    HW141412   0.892   2.139  10.468  0.5346  3.3562  1.1105
 8664SOL    HW241413   0.750   2.186  10.489  0.1018  2.1610  0.8904
 8665SOL     OW41414   4.176   5.292  12.155  0.4889 -0.6035  0.2324
 8665SOL    HW141415   4.221   5.280  12.072  1.2253 -2.2377  0.8308
 8665SOL    HW241416   4.210   5.374  12.190  2.3836 -1.3938  0.2807
 8666SOL     OW41417   2.123   0.408   0.096 -0.4567 -0.1252 -0.6419
 8666SOL    HW141418   2.178   0.329   0.100 -0.1252  0.0594 -1.4504
 8666SOL    HW241419   2.109   0.432   0.187 -2.1168 -2.1985 -0.3074
 8667SOL     OW41420   1.524   4.032   1.689  0.6538 -0.8228  0.2458
 8667SOL    HW141421   1.568   4.090   1.627 -0.4872 -2.2795 -2.0448
 8667SOL    HW241422   1.440   4.074   1.706  1.0711 -0.2934  1.0298
 8668SOL     OW41423   1.822   4.345   1.712  0.4219 -0.4909 -0.2240
 8668SOL    HW141424   1.835   4.438   1.695  1.0504 -0.7556 -1.2610
 8668SOL    HW241425   1.732   4.339   1.745 -0.2446  0.2944 -1.8180
 8669SOL     OW41426   4.698   1.838   0.739 -0.5357 -0.1338 -0.2485
 8669SOL    HW141427   4.676   1.867   0.827  0.7260 -0.3089  0.1292
 8669SOL    HW241428   4.773   1.891   0.714 -0.7115 -0.2833 -1.1144
 8670SOL     OW41429   2.367   3.083   0.138  0.7426 -0.4262  0.1364
 8670SOL    HW141430   2.388   3.131   0.058  0.3806 -1.5449 -0.6431
 8670SOL    HW241431   2.298   3.134   0.179  2.5342  1.4106  0.9337
 8671SOL     OW41432   2.266   1.420  12.317 -0.7649  0.4680  0.2634
 8671SOL    HW141433   2.227   1.394  12.233 -0.4160  2.4579 -0.5394
 8671SOL    HW241434   2.334   1.355  12.333 -1.2881 -0.3278 -0.6388
 8672SOL     OW41435   2.800   4.535   7.719  0.6049 -0.3725  0.2073
 8672SOL    HW141436   2.879   4.546   7.772  2.5570  2.1030 -2.9905
 8672SOL    HW241437   2.741   4.604   7.749  0.7130 -0.5210  0.7734
 8673SOL     OW41438   5.656   1.816  11.989 -0.0149 -0.1155  0.3827
 8673SOL    HW141439   5.719   1.744  11.986 -0.8499 -0.8030 -1.6190
 8673SOL    HW241440   5.651   1.847  11.898 -1.2283  1.0909  0.8484
 8674SOL     OW41441   2.063   3.718  11.367 -0.5840  0.1351  0.0229
 8674SOL    HW141442   2.016   3.801  11.360 -1.7276 -0.5437 -0.4978
 8674SOL    HW241443   2.066   3.684  11.278 -2.4151 -1.6030  0.5857
 8675SOL     OW41444   5.530   3.305   0.767 -0.2555  0.0235 -0.0602
 8675SOL    HW141445   5.586   3.342   0.836  4.1368 -1.0806 -2.8680
 8675SOL    HW241446   5.492   3.382   0.724 -1.2009  0.7914  2.1009
 8676SOL     OW41447   4.239   2.423   2.897  0.1546 -0.2467  0.4150
 8676SOL    HW141448   4.193   2.375   2.828 -0.2021 -0.5465  0.8562
 8676SOL    HW241449   4.189   2.404   2.977  0.1301  0.6881  0.6324
 8677SOL     OW41450   0.838   1.936   0.187 -0.5888 -0.3155  0.6262
 8677SOL    HW141451   0.775   1.868   0.212 -2.2182  1.3392  1.1067
 8677SOL    HW241452   0.886   1.956   0.267 -1.1038  0.1330  0.8224
 8678SOL     OW41453   4.099   3.834   0.953  0.5134 -0.2878 -0.4097
 8678SOL    HW141454   4.194   3.822   0.961  0.7247  1.4615 -0.0970
 8678SOL    HW241455   4.085   3.863   0.863  0.5827  2.1378  0.3452
 8679SOL     OW41456   3.573   3.736   1.988  0.6155 -0.1133  0.2392
 8679SOL    HW141457   3.569   3.664   1.925  2.2934 -0.5740  0.6286
 8679SOL    HW241458   3.481   3.760   2.003  0.1716 -0.4051 -1.8990
 8680SOL     OW41459   0.913   3.441   1.010 -0.1481  0.0391 -0.1273
 8680SOL    HW141460   0.976   3.506   0.979  1.1029 -0.8993  0.3929
 8680SOL    HW241461   0.917   3.371   0.945 -1.1447  0.2603 -0.4370
 8681SOL     OW41462   1.092   5.134   3.683  0.1076 -0.4366 -0.0520
 8681SOL    HW141463   1.068   5.225   3.700  0.7631 -0.5117  1.3666
 8681SOL    HW241464   1.183   5.128   3.713 -0.7600 -2.2163  2.3685
 8682SOL     OW41465   2.701   4.766   8.223 -0.8387 -0.2507  0.1688
 8682SOL    HW141466   2.770   4.760   8.157 -2.0638  0.8987 -1.2179
 8682SOL    HW241467   2.707   4.683   8.271  0.2433 -0.9605 -1.1754
 8683SOL     OW41468   3.414   0.964  11.723  0.3976  0.5711  0.0617
 8683SOL    HW141469   3.466   0.890  11.692 -1.0368 -0.4371 -0.0423
 8683SOL    HW241470   3.408   0.951  11.818  0.8647  1.0424  0.1579
 8684SOL     OW41471   5.000   2.591  12.226  0.2580 -0.3837  0.1880
 8684SOL    HW141472   4.994   2.517  12.165  1.3155  1.3099 -2.0249
 8684SOL    HW241473   5.072   2.644  12.192 -0.6560  1.8066  1.6010
 8685SOL     OW41474   2.587   3.207   1.107  0.7324  0.6661  0.5895
 8685SOL    HW141475   2.573   3.127   1.157  1.2340  0.3630  0.2571
 8685SOL    HW241476   2.615   3.272   1.171  1.8165  0.1595  0.6327
 8686SOL     OW41477   2.785   2.524   9.395 -0.2870  0.4776 -0.0834
 8686SOL    HW141478   2.704   2.481   9.424  0.2161  0.1196  0.8284
 8686SOL    HW241479   2.849   2.454   9.392  0.4892  1.1134  1.2012
 8687SOL     OW41480   3.751   2.029   1.157 -0.6497 -0.4922  0.4289
 8687SOL    HW141481   3.714   1.943   1.138  0.5517 -0.7026 -1.0665
 8687SOL    HW241482   3.780   2.062   1.072 -0.7480  1.2250  1.0434
 8688SOL     OW41483   0.627   0.310   0.213 -0.0986 -0.4684  0.0108
 8688SOL    HW141484   0.626   0.216   0.231  1.1699 -0.4724  0.0834
 8688SOL    HW241485   0.695   0.321   0.146 -1.2008  0.2210 -1.0159
 8689SOL     OW41486   0.227   3.648   1.966 -0.3227 -0.0323  0.5812
 8689SOL    HW141487   0.207   3.563   2.004 -0.7947  1.2647  3.4073
 8689SOL    HW241488   0.165   3.658   1.894 -1.7588 -1.1361  1.6395
 8690SOL     OW41489   4.380   4.798  11.211 -0.2948 -0.0490 -0.3236
 8690SOL    HW141490   4.457   4.770  11.260 -1.3989 -0.3656  1.2798
 8690SOL    HW241491   4.329   4.719  11.198 -0.5584  0.2286 -1.0008
 8691SOL     OW41492   0.699   3.563   3.089 -0.3380  0.3724 -0.3144
 8691SOL    HW141493   0.725   3.624   3.157 -1.2160 -2.2194  2.4595
 8691SOL    HW241494   0.734   3.479   3.117  0.8377 -0.4574 -4.0256
 8692SOL     OW41495   0.878   4.682   9.081  0.1173 -0.1740 -0.8289
 8692SOL    HW141496   0.834   4.636   9.009 -0.9401  0.5814 -0.6789
 8692SOL    HW241497   0.927   4.752   9.039  0.6014 -0.5716 -0.9326
 8693SOL     OW41498   0.854   4.776   2.216 -0.0698  0.3187  0.4462
 8693SOL    HW141499   0.838   4.846   2.153 -3.3219 -0.8374 -0.1248
 8693SOL    HW241500   0.863   4.697   2.162  1.7878  0.0143  1.1767
 8694SOL     OW41501   2.759   5.302   1.776  0.3297  0.4099 -0.3348
 8694SOL    HW141502   2.818   5.288   1.702  1.6462  1.2543  0.5294
 8694SOL    HW241503   2.764   5.396   1.794  0.0772  0.2033  0.8609
 8695SOL     OW41504   5.281   0.340   9.693 -0.1472  0.4919  0.4347
 8695SOL    HW141505   5.267   0.376   9.780  0.3451 -0.8135  1.0612
 8695SOL    HW241506   5.196   0.348   9.650 -0.0937  2.1833  0.6419
 8696SOL     OW41507   0.476   5.238   9.529  0.3360 -0.1004  0.1471
 8696SOL    HW141508   0.489   5.143   9.535  0.2794 -0.1994 -1.1508
 8696SOL    HW241509   0.546   5.275   9.582 -0.2606 -0.8876  1.5265
 8697SOL     OW41510   2.865   1.952   2.244 -0.1793 -0.0433 -0.1133
 8697SOL    HW141511   2.771   1.947   2.261 -0.1298  0.9869  0.4741
 8697SOL    HW241512   2.902   1.986   2.325  1.3347 -5.2316  1.5700
 8698SOL     OW41513   1.962   0.668   1.285 -0.1149 -0.2285  0.4062
 8698SOL    HW141514   1.896   0.737   1.294 -0.0125 -0.1153  0.3075
 8698SOL    HW241515   1.926   0.593   1.333 -0.5360 -0.3253 -0.0508
 8699SOL     OW41516   4.640   2.394  -0.011  0.1269 -0.2250  0.2685
 8699SOL    HW141517   4.687   2.466  -0.053  0.2946 -0.2326  0.4389
 8699SOL    HW241518   4.625   2.424   0.079 -0.9504  0.1236 -0.0274
 8700SOL     OW41519   2.814   0.297   8.458  0.1031 -0.9866 -0.2545
 8700SOL    HW141520   2.805   0.344   8.541  0.2405  0.7500 -1.1876
 8700SOL    HW241521   2.831   0.207   8.483  0.9413 -0.3427  1.6199
 8701SOL     OW41522   3.989   1.668   3.069  0.2064  0.7181 -0.6235
 8701SOL    HW141523   3.990   1.573   3.058 -2.9289  0.8123 -2.2320
 8701SOL    HW241524   3.993   1.702   2.979 -2.0277  2.0362 -0.2451
 8702SOL     OW41525   5.300   1.339   9.453  0.2265  0.2123 -0.2762
 8702SOL    HW141526   5.333   1.399   9.519  0.2127  0.0877 -0.1546
 8702SOL    HW241527   5.353   1.357   9.375  1.6629 -1.0499  0.3624
 8703SOL     OW41528   4.475   2.798  12.372  0.2478 -0.5360 -0.4202
 8703SOL    HW141529   4.445   2.709  12.389  1.4047 -0.3048  3.1875
 8703SOL    HW241530   4.397   2.853  12.388  0.6028 -0.5780  1.6370
 8704SOL     OW41531   2.513   1.962   3.467  0.1008  0.5436 -0.6384
 8704SOL    HW141532   2.555   1.986   3.549 -1.5467 -1.8919  0.9655
 8704SOL    HW241533   2.424   1.997   3.473  0.2942  1.3121 -1.8835
 8705SOL     OW41534   0.083   2.519  11.213  0.5314 -0.5628  0.6369
 8705SOL    HW141535   0.050   2.582  11.276  0.1111  0.0455 -0.1900
 8705SOL    HW241536   0.159   2.479  11.257  0.8908  0.6106  1.1081
 8706SOL     OW41537   5.626   0.038   8.637  0.6221  0.1305 -0.2548
 8706SOL    HW141538   5.552   0.047   8.577 -1.1026 -1.5277  1.5885
 8706SOL    HW241539   5.610   0.103   8.705  0.6963 -0.4347  0.3091
 8707SOL     OW41540   5.306   3.840  11.135  0.1713 -0.2499  0.1910
 8707SOL    HW141541   5.366   3.910  11.111  0.0300 -0.5370 -1.0703
 8707SOL    HW241542   5.256   3.875  11.209 -0.6045  1.3933 -1.0770
 8708SOL     OW41543   2.968   2.172   0.841 -0.0847 -0.1033 -0.2534
 8708SOL    HW141544   2.922   2.115   0.903  0.5783  1.8264  2.0978
 8708SOL    HW241545   3.060   2.149   0.851  0.3200  2.2627  1.6893
 8709SOL     OW41546   5.890   3.734  11.129 -0.2753 -0.7657 -0.0753
 8709SOL    HW141547   5.982   3.725  11.155 -0.0058 -0.7220 -0.9948
 8709SOL    HW241548   5.849   3.781  11.202  0.5520 -0.2870  0.0834
 8710SOL     OW41549   3.234   2.345   8.566  0.3492 -1.2771 -0.0671
 8710SOL    HW141550   3.155   2.376   8.610  0.2124 -0.0386 -1.1464
 8710SOL    HW241551   3.248   2.257   8.602 -1.0196 -1.1769  0.7750
 8711SOL     OW41552   4.737   2.073   2.864 -0.1022 -0.4975 -0.8839
 8711SOL    HW141553   4.747   2.109   2.776  0.4200  1.1616 -0.1627
 8711SOL    HW241554   4.658   2.116   2.899  1.8796  1.8920  0.8711
 8712SOL     OW41555   5.889   5.704   3.154 -0.3913 -0.0622  0.7588
 8712SOL    HW141556   5.929   5.618   3.166 -0.4782 -0.2449 -0.1931
 8712SOL    HW241557   5.869   5.734   3.243  0.3752 -0.6701  1.1460
 8713SOL     OW41558   2.372   4.620   3.097 -0.1791 -0.3782 -0.6636
 8713SOL    HW141559   2.394   4.680   3.168  2.9722  0.3573 -2.1709
 8713SOL    HW241560   2.355   4.676   3.022  1.6514 -1.2779 -1.7930
 8714SOL     OW41561   1.223   1.370   0.568  0.2831  0.0962 -0.0632
 8714SOL    HW141562   1.171   1.322   0.503  0.3775 -1.3569  0.9015
 8714SOL    HW241563   1.277   1.302   0.609  1.6833  1.3156  0.1425
 8715SOL     OW41564   4.155   4.755  12.403 -0.2858 -0.1165 -0.3499
 8715SOL    HW141565   4.101   4.830  12.379  1.4004  1.4918  0.7273
 8715SOL    HW241566   4.098   4.679  12.389 -0.7666  0.9643 -5.3108
 8716SOL     OW41567   4.586   1.745   9.272 -0.3773  0.1904 -0.6722
 8716SOL    HW141568   4.523   1.804   9.232 -1.9854 -0.9140  0.1511
 8716SOL    HW241569   4.581   1.764   9.365 -1.1202 -1.3953 -0.3663
 8717SOL     OW41570   4.096   5.798  11.314 -0.0315  0.0524  0.5427
 8717SOL    HW141571   4.129   5.866  11.373 -0.0150 -0.9788  1.7638
 8717SOL    HW241572   4.160   5.794  11.243 -0.8964  2.4266 -0.3941
 8718SOL     OW41573   4.926   5.155   8.479 -0.0350  0.4143 -0.3047
 8718SOL    HW141574   4.983   5.217   8.433 -0.6247 -0.1964 -1.8920
 8718SOL    HW241575   4.838   5.176   8.449 -0.4439  0.0703  0.6381
 8719SOL     OW41576   1.342   3.211   9.584 -0.2380 -0.1203  0.2039
 8719SOL    HW141577   1.365   3.162   9.505  1.4253  1.7077 -0.5134
 8719SOL    HW241578   1.249   3.231   9.573 -0.8004 -2.5814  0.2556
 8720SOL     OW41579   0.444   2.196   3.490 -0.0935  0.5014 -0.0852
 8720SOL    HW141580   0.383   2.243   3.433 -0.8944  0.6572  0.8784
 8720SOL    HW241581   0.485   2.265   3.542 -0.1244  0.2713  0.2438
 8721SOL     OW41582   5.665   5.784   8.315  0.1289 -0.1277  0.6585
 8721SOL    HW141583   5.686   5.777   8.222  0.3271 -0.3037  0.7159
 8721SOL    HW241584   5.749   5.774   8.360 -0.0308 -0.4936  0.8806
 8722SOL     OW41585   5.621   0.651   3.794 -0.1816 -0.6509  0.4075
 8722SOL    HW141586   5.674   0.722   3.830 -0.0655 -0.2688 -0.5074
 8722SOL    HW241587   5.543   0.695   3.760  0.7551 -0.7260 -1.8737
 8723SOL     OW41588   5.960   4.953   1.591 -0.0560 -0.2226 -0.2481
 8723SOL    HW141589   5.865   4.957   1.599  0.1568  0.0852  2.6928
 8723SOL    HW241590   5.989   5.044   1.602  0.6976 -0.5995  0.9596
 8724SOL     OW41591   0.648   4.760   3.211 -0.3811  0.3507 -0.3890
 8724SOL    HW141592   0.728   4.716   3.239 -0.2894 -0.9526 -2.5871
 8724SOL    HW241593   0.577   4.703   3.240 -0.5853  1.6144  1.7566
 8725SOL     OW41594   2.289   3.462   0.921 -0.0783 -0.0528 -0.1173
 8725SOL    HW141595   2.302   3.400   0.993  1.4053  1.4758  0.9915
 8725SOL    HW241596   2.283   3.408   0.843  2.8166 -1.5425  0.6105
 8726SOL     OW41597   5.064   4.124   8.927  0.2698 -0.4063 -0.5919
 8726SOL    HW141598   5.143   4.171   8.902  0.5840 -1.5690 -1.8377
 8726SOL    HW241599   5.026   4.176   8.999  1.7790  0.5175 -0.4554
 8727SOL     OW41600   3.071   0.131   0.767 -0.3479  0.4669 -0.1072
 8727SOL    HW141601   3.059   0.108   0.675 -1.3489 -0.7361  0.3180
 8727SOL    HW241602   2.986   0.114   0.808  0.2000  0.6049  1.1180
 8728SOL     OW41603   5.804   0.386  12.363  0.0632 -0.0155 -0.1468
 8728SOL    HW141604   5.857   0.333  12.304 -0.2575 -1.1257  0.5337
 8728SOL    HW241605   5.776   0.461  12.310  1.0806 -0.1743 -0.9319
 8729SOL     OW41606   3.519   4.576   8.682 -0.5026  0.3653 -0.2923
 8729SOL    HW141607   3.522   4.505   8.746  0.5496  1.6367  1.1029
 8729SOL    HW241608   3.428   4.606   8.684 -0.5760  0.1178  0.2988
 8730SOL     OW41609   2.459   1.319   8.797  0.4509 -0.6442 -0.3349
 8730SOL    HW141610   2.486   1.257   8.864 -0.1889  1.3687  1.8565
 8730SOL    HW241611   2.364   1.308   8.790  0.5204 -0.8771 -0.9408
 8731SOL     OW41612   5.554   5.273   9.310 -0.1870  0.4026  0.4820
 8731SOL    HW141613   5.633   5.313   9.345 -0.2027 -0.0346  1.0168
 8731SOL    HW241614   5.518   5.339   9.251  0.8911  0.3779 -0.2174
 8732SOL     OW41615   5.699   4.152   1.170  0.7480 -0.9306 -0.6056
 8732SOL    HW141616   5.621   4.204   1.189  2.0482  0.5687  0.7631
 8732SOL    HW241617   5.688   4.125   1.079  0.1936  2.0250 -1.4605
 8733SOL     OW41618   1.624   5.354   9.342  0.3919 -0.0346 -0.0130
 8733SOL    HW141619   1.633   5.449   9.333 -0.3854 -0.0626 -1.0486
 8733SOL    HW241620   1.590   5.324   9.258  1.0704 -1.2913  0.1428
 8734SOL     OW41621   1.663   3.606   2.264 -0.5061 -0.2064 -0.1926
 8734SOL    HW141622   1.672   3.537   2.197  2.5132 -0.7386  0.6560
 8734SOL    HW241623   1.712   3.680   2.227  1.2342 -0.5232  1.3904
 8735SOL     OW41624   3.669   1.029   3.001  0.1469 -0.5270  0.2535
 8735SOL    HW141625   3.610   1.067   2.936 -0.4829 -1.5349  0.2282
 8735SOL    HW241626   3.652   1.079   3.081  2.4139  2.1402 -0.8256
 8736SOL     OW41627   3.361   3.834   8.778 -0.3114  0.2257 -0.2434
 8736SOL    HW141628   3.268   3.813   8.788  0.0740 -1.2722  0.3666
 8736SOL    HW241629   3.400   3.809   8.862  0.8861 -0.5108 -1.0067
 8737SOL     OW41630   3.848   4.498   8.148 -0.1725  0.2408 -0.2124
 8737SOL    HW141631   3.797   4.550   8.086  0.9596 -1.0412 -2.2829
 8737SOL    HW241632   3.854   4.411   8.107  1.7851 -0.2364  1.0214
 8738SOL     OW41633   1.170   5.100   9.487  0.6769 -0.5673 -0.0367
 8738SOL    HW141634   1.228   5.088   9.562 -0.3750  0.4068  0.9631
 8738SOL    HW241635   1.208   5.047   9.418  1.9185 -1.1198  1.0580
 8739SOL     OW41636   1.355   2.079   3.607  0.4777 -0.6008 -0.1157
 8739SOL    HW141637   1.401   2.039   3.533 -1.8487 -1.4498 -1.1579
 8739SOL    HW241638   1.303   2.008   3.645 -0.4402  0.4447  0.6423
 8740SOL     OW41639   5.351   0.272   0.935 -0.0446  0.5377  0.0659
 8740SOL    HW141640   5.358   0.315   1.020  1.6932 -1.3456  0.9143
 8740SOL    HW241641   5.316   0.186   0.954 -1.4566  0.7630 -1.3679
 8741SOL     OW41642   4.236   5.393  11.551  0.6516 -0.6916 -0.4062
 8741SOL    HW141643   4.192   5.337  11.615  0.9685 -0.8059 -0.2904
 8741SOL    HW241644   4.164   5.435  11.503  0.3903  0.2958  0.8124
 8742SOL     OW41645   3.105   1.975   1.485 -0.0297  0.1851  0.0921
 8742SOL    HW141646   3.154   2.054   1.466  3.7036 -2.0927 -0.2424
 8742SOL    HW241647   3.094   1.975   1.580  0.4269  0.7977  0.1442
 8743SOL     OW41648   5.883   2.348   8.507 -0.1398  0.0937 -0.0545
 8743SOL    HW141649   5.831   2.304   8.439 -0.2744  1.8552 -1.1167
 8743SOL    HW241650   5.951   2.394   8.459  0.1718  0.8206  1.0704
 8744SOL     OW41651   2.176   0.169  12.390  0.1700  0.2917 -0.1701
 8744SOL    HW141652   2.271   0.173  12.395  0.0473  1.1491  1.8513
 8744SOL    HW241653   2.150   0.111  12.461 -0.8778  1.0782  0.1081
 8745SOL     OW41654   3.600   1.621   8.875 -0.3298  0.0302  0.5838
 8745SOL    HW141655   3.561   1.569   8.946  1.1769  1.9133  2.8456
 8745SOL    HW241656   3.531   1.682   8.849 -0.4598  0.2051  1.3325
 8746SOL     OW41657   3.260   5.951   2.883  0.5568  0.1170  0.6725
 8746SOL    HW141658   3.167   5.927   2.872  0.9082 -2.0706  2.1403
 8746SOL    HW241659   3.300   5.928   2.799 -0.2824  1.4458 -0.1164
 8747SOL     OW41660   1.058   4.192  12.058  0.2451 -0.0162 -0.1400
 8747SOL    HW141661   1.043   4.282  12.029 -1.7782 -0.1944  0.2847
 8747SOL    HW241662   1.106   4.200  12.140 -0.0753  0.6926 -0.0224
 8748SOL     OW41663   1.916   1.230   8.681  0.1728 -0.0943  0.1195
 8748SOL    HW141664   2.007   1.237   8.709 -0.1864  0.3267  1.2143
 8748SOL    HW241665   1.911   1.281   8.600  0.6398  0.8798  0.6942
 8749SOL     OW41666   3.961   5.009   9.589  0.1298  0.3666  0.3521
 8749SOL    HW141667   3.982   4.928   9.636  0.4923 -0.4659 -1.2265
 8749SOL    HW241668   3.957   5.076   9.658  0.7565 -0.8116  1.5585
 8750SOL     OW41669   3.845   1.372  11.768  0.0432 -0.3371  0.2343
 8750SOL    HW141670   3.856   1.384  11.862 -0.6919 -1.4609  0.4771
 8750SOL    HW241671   3.881   1.285  11.750  1.0076  0.2355 -0.6804
 8751SOL     OW41672   5.678   0.823   9.520 -0.0326  0.1747 -0.2346
 8751SOL    HW141673   5.641   0.771   9.449  1.3409 -1.5556  0.2692
 8751SOL    HW241674   5.769   0.838   9.494  0.3057  0.0712  0.8566
 8752SOL     OW41675   5.324   5.565  10.014 -0.3041  0.1090 -0.3631
 8752SOL    HW141676   5.317   5.605  10.100  0.0363  1.2784 -0.8693
 8752SOL    HW241677   5.314   5.471  10.030  3.4597 -0.0717  1.4037
 8753SOL     OW41678   3.281   4.198   0.043  0.3394 -0.3536  0.3951
 8753SOL    HW141679   3.206   4.215  -0.015  2.1333  2.5134 -1.2395
 8753SOL    HW241680   3.348   4.162  -0.015  0.8046 -1.3181  1.5207
 8754SOL     OW41681   4.542   0.175  10.444 -0.5889  0.3434 -0.1313
 8754SOL    HW141682   4.632   0.149  10.427 -0.7978  0.4381 -1.4581
 8754SOL    HW241683   4.495   0.093  10.458 -0.7346  0.1426 -1.7056
 8755SOL     OW41684   3.509   4.509   3.329  0.1991  0.2364 -0.3511
 8755SOL    HW141685   3.511   4.594   3.372  1.0185  0.3252 -0.5392
 8755SOL    HW241686   3.601   4.481   3.329 -0.0773 -0.6637 -0.2476
 8756SOL     OW41687   5.756   4.991   9.399 -0.7570 -0.3641 -0.7615
 8756SOL    HW141688   5.718   4.919   9.450 -1.5875  0.6999  0.1711
 8756SOL    HW241689   5.846   4.964   9.382 -1.0655 -1.6328 -0.4599
 8757SOL     OW41690   0.506   4.802  10.019 -0.6315 -0.4787  0.2245
 8757SOL    HW141691   0.457   4.837  10.093 -1.0580 -1.1697  0.2754
 8757SOL    HW241692   0.502   4.870   9.952 -0.6184 -0.0312  0.6813
 8758SOL     OW41693   5.331   1.068  11.486  0.5583 -0.1925 -0.3353
 8758SOL    HW141694   5.384   1.135  11.530  1.8849 -1.8268  0.6091
 8758SOL    HW241695   5.347   1.084  11.393  2.2585 -0.2849 -0.0761
 8759SOL     OW41696   0.558   3.120  12.393  0.3954 -0.1269  0.5828
 8759SOL    HW141697   0.617   3.048  12.416  0.6886 -0.6353 -1.6971
 8759SOL    HW241698   0.617   3.192  12.369  0.0967 -0.1609 -0.2553
 8760SOL     OW41699   0.973   2.952   0.399 -0.2038  0.1496 -0.0939
 8760SOL    HW141700   0.989   2.919   0.311  1.3622 -1.8607  0.9056
 8760SOL    HW241701   0.904   2.895   0.434  1.0240 -0.7718  0.8897
 8761SOL     OW41702   2.071   0.354  11.913 -0.3166  0.5408 -0.5776
 8761SOL    HW141703   2.050   0.443  11.938 -2.2878 -0.5045  1.6174
 8761SOL    HW241704   2.112   0.315  11.990  0.1977 -0.5672 -1.3783
 8762SOL     OW41705   2.729   0.762  12.277 -0.1399 -0.0415 -0.3703
 8762SOL    HW141706   2.671   0.747  12.202  0.0921  0.0046 -0.5611
 8762SOL    HW241707   2.755   0.854  12.269  1.2334 -0.4952 -1.1911
 8763SOL     OW41708   4.793   2.092  11.549  0.6055  0.9880  0.1473
 8763SOL    HW141709   4.759   2.104  11.460  0.9832  0.3233 -0.0924
 8763SOL    HW241710   4.773   2.001  11.569  1.3477  0.8757  0.3925
 8764SOL     OW41711   3.224   5.846   7.695  0.0532  0.3265  0.9079
 8764SOL    HW141712   3.231   5.825   7.788 -0.6526  1.2466  1.1780
 8764SOL    HW241713   3.251   5.938   7.689  1.1133 -0.0207  0.0434
 8765SOL     OW41714   2.825   2.249   9.103 -0.3268 -0.1722  0.2267
 8765SOL    HW141715   2.791   2.286   9.021 -0.4601  0.0571  0.3810
 8765SOL    HW241716   2.920   2.252   9.092 -0.2651  2.0318  0.9944
 8766SOL     OW41717   5.496   2.372   1.287  0.2102 -0.0626  0.0155
 8766SOL    HW141718   5.590   2.353   1.294  0.0448 -0.4001  1.4180
 8766SOL    HW241719   5.482   2.444   1.349 -0.5955 -0.5074  0.3493
 8767SOL     OW41720   4.123   1.995   1.881  0.2192  0.0805  0.3333
 8767SOL    HW141721   4.214   2.008   1.907 -0.1109  1.4839  0.8750
 8767SOL    HW241722   4.118   2.032   1.793  0.1094  0.2875  0.4245
 8768SOL     OW41723   0.863   5.010   0.721  0.3236 -0.7487  0.3150
 8768SOL    HW141724   0.886   4.992   0.630 -1.0993  1.8963 -0.6329
 8768SOL    HW241725   0.946   5.010   0.768  1.4081  0.8284 -1.5579
 8769SOL     OW41726   4.047   5.364   2.189  0.3974  0.2609 -0.3000
 8769SOL    HW141727   3.955   5.341   2.185  0.5739 -0.3447 -1.0845
 8769SOL    HW241728   4.057   5.412   2.271 -0.8871  1.5212 -0.8652
 8770SOL     OW41729   0.023   2.272   3.048 -0.3879  0.4209  0.4132
 8770SOL    HW141730  -0.032   2.329   2.995 -0.1783  0.1522 -0.0972
 8770SOL    HW241731   0.110   2.312   3.043  0.3389 -1.3434 -2.0807
 8771SOL     OW41732   0.090   0.831   1.774  0.0291 -0.2971 -0.3079
 8771SOL    HW141733   0.104   0.748   1.730  0.0159 -0.6583  0.3656
 8771SOL    HW241734   0.033   0.880   1.714  1.4701 -0.0798 -1.5262
 8772SOL     OW41735   2.378   2.789  11.138 -0.1760  0.0474 -0.6307
 8772SOL    HW141736   2.337   2.839  11.067 -0.9708 -0.7248 -0.7398
 8772SOL    HW241737   2.331   2.705  11.137  0.0560 -0.1051  0.5740
 8773SOL     OW41738   2.024   1.442   3.256  0.4340 -0.0599 -0.9292
 8773SOL    HW141739   2.019   1.507   3.326 -1.1916 -0.5422 -0.5790
 8773SOL    HW241740   2.107   1.396   3.272  0.2771  0.1070  0.4472
 8774SOL     OW41741   5.278   0.104  11.312 -0.0140 -0.2719  0.0877
 8774SOL    HW141742   5.212   0.104  11.243  1.0791  0.7543 -0.9798
 8774SOL    HW241743   5.271   0.191  11.351  1.2353  0.1091 -0.5423
 8775SOL     OW41744   2.875   1.650  11.174  0.8187  0.7640 -0.2682
 8775SOL    HW141745   2.939   1.662  11.245 -0.8529 -0.4641  1.5033
 8775SOL    HW241746   2.870   1.555  11.162 -0.6826  0.8394 -0.3527
 8776SOL     OW41747   2.584   3.577   1.536  0.6846  0.6577 -0.5385
 8776SOL    HW141748   2.581   3.537   1.623  0.3832 -1.9160 -1.6804
 8776SOL    HW241749   2.676   3.601   1.524  0.7323  0.9922  0.4885
 8777SOL     OW41750   1.696   2.569   0.361 -0.7627 -0.2552  0.3434
 8777SOL    HW141751   1.752   2.622   0.417  1.4549 -0.8638 -1.2193
 8777SOL    HW241752   1.728   2.479   0.373  0.1882 -0.3252 -2.3108
 8778SOL     OW41753   4.247   4.680   1.059  0.4849 -0.0354 -0.6533
 8778SOL    HW141754   4.164   4.657   1.017  0.1699  0.8451 -0.5206
 8778SOL    HW241755   4.266   4.769   1.029  1.2579 -0.1371 -0.4853
 8779SOL     OW41756   5.287   4.014  12.009  0.2618 -0.6294  0.4163
 8779SOL    HW141757   5.364   3.958  12.000  1.3227  1.1673 -2.3755
 8779SOL    HW241758   5.306   4.070  12.084  0.9388 -1.3151  0.7631
 8780SOL     OW41759   3.062   5.182  11.493  0.3289 -0.3051 -0.2845
 8780SOL    HW141760   2.979   5.227  11.474  0.7765  1.0423  0.8339
 8780SOL    HW241761   3.063   5.174  11.589  1.0472 -1.1851 -0.3613
 8781SOL     OW41762   2.553   4.949   9.859  0.1388  0.3665  0.2708
 8781SOL    HW141763   2.465   4.974   9.831 -0.4662 -0.8940  1.0182
 8781SOL    HW241764   2.604   5.029   9.849 -1.6267  1.7695  2.0121
 8782SOL     OW41765   3.310   1.262   9.788 -0.0217 -0.0551 -0.4307
 8782SOL    HW141766   3.274   1.174   9.785  1.4790 -0.6901 -0.2466
 8782SOL    HW241767   3.383   1.256   9.850 -0.0372  1.3602 -0.2553
 8783SOL     OW41768   2.542   1.036   2.674  0.5394 -0.3333 -0.2836
 8783SOL    HW141769   2.574   1.024   2.763 -2.5840  1.0932  1.1100
 8783SOL    HW241770   2.487   0.959   2.659  0.1079  0.0228 -0.5288
 8784SOL     OW41771   2.664   2.040   3.715  0.1099  0.6198 -0.2945
 8784SOL    HW141772   2.717   2.113   3.684 -1.0480  1.6438  0.1118
 8784SOL    HW241773   2.638   2.065   3.804 -0.7399 -0.0382 -0.3502
 8785SOL     OW41774   2.197   1.665   4.389  0.2801 -0.1731 -0.0155
 8785SOL    HW141775   2.273   1.722   4.400 -1.3244  2.0423  0.0929
 8785SOL    HW241776   2.168   1.682   4.299 -1.5560  0.9832  0.7386
 8786SOL     OW41777   1.720   5.083   0.143 -0.7114  0.4735 -0.0251
 8786SOL    HW141778   1.676   5.139   0.080 -0.8457  0.5260  0.1139
 8786SOL    HW241779   1.667   5.090   0.223 -0.7285  0.1521 -0.0060
 8787SOL     OW41780   1.452   5.510  12.102  0.4147  0.0028 -0.0299
 8787SOL    HW141781   1.389   5.453  12.147  0.8685  0.2371  0.9174
 8787SOL    HW241782   1.488   5.456  12.032  0.9146 -0.9185  0.9222
 8788SOL     OW41783   3.132   5.342   3.716  0.9709  0.7996 -0.4415
 8788SOL    HW141784   3.126   5.249   3.694  0.2999  0.4304  1.2171
 8788SOL    HW241785   3.225   5.358   3.728  1.0264  0.1397  0.0522
 8789SOL     OW41786   0.693   0.075  12.461  0.0369  0.0389 -0.1951
 8789SOL    HW141787   0.700   0.170  12.471 -0.5485  0.2424 -1.5508
 8789SOL    HW241788   0.745   0.055  12.383  1.0296 -0.9080  0.6806
 8790SOL     OW41789   5.720   1.335  11.512 -0.3268  0.6855 -0.7903
 8790SOL    HW141790   5.715   1.283  11.432 -3.6684  0.6056 -0.5995
 8790SOL    HW241791   5.718   1.426  11.481  0.7316  0.6903 -0.8803
 8791SOL     OW41792   3.233   5.857  11.328 -0.4366  0.5653  0.2061
 8791SOL    HW141793   3.310   5.862  11.385 -0.3085 -0.9470  0.1620
 8791SOL    HW241794   3.220   5.764  11.313 -0.6020  0.9467 -2.0770
 8792SOL     OW41795   4.323   1.174   7.769  0.0963  0.2968 -0.4201
 8792SOL    HW141796   4.293   1.087   7.743 -0.8119 -0.2720  2.4230
 8792SOL    HW241797   4.404   1.159   7.817 -0.0049  1.0088 -0.0048
 8793SOL     OW41798   5.108   0.355   9.448 -0.1261  0.2819 -0.3525
 8793SOL    HW141799   5.085   0.262   9.440 -0.7081  0.3323  0.6247
 8793SOL    HW241800   5.024   0.399   9.463  0.4185  0.6579  1.7919
 8794SOL     OW41801   2.888   2.554  11.727  0.2446  0.2546  0.3818
 8794SOL    HW141802   2.932   2.559  11.642 -1.9007 -1.7100 -0.8939
 8794SOL    HW241803   2.804   2.598  11.713 -0.0912 -0.0020  1.5385
 8795SOL     OW41804   2.134   1.781   3.746 -0.2362 -0.1105 -0.3059
 8795SOL    HW141805   2.165   1.859   3.791 -0.8003  0.3541 -0.7025
 8795SOL    HW241806   2.044   1.770   3.777 -0.1612 -0.5999 -0.2579
 8796SOL     OW41807   0.641   4.353  11.617 -0.2172  0.1595  0.3175
 8796SOL    HW141808   0.700   4.283  11.647 -1.0436 -0.7621 -0.1695
 8796SOL    HW241809   0.620   4.328  11.527 -1.5755  0.3292  0.5861
 8797SOL     OW41810   1.257   4.414  11.321  0.0531  0.0958 -0.4597
 8797SOL    HW141811   1.250   4.419  11.225 -0.0034  1.0840 -0.4026
 8797SOL    HW241812   1.349   4.394  11.337  0.1124  0.1591 -0.7086
 8798SOL     OW41813   3.257   2.566  11.621  0.3559  0.0032  0.3975
 8798SOL    HW141814   3.245   2.491  11.679 -2.5263  1.7867  2.2577
 8798SOL    HW241815   3.286   2.637  11.680 -0.2246  1.2094 -0.7517
 8799SOL     OW41816   1.642   1.310   0.891 -0.5334  0.0697 -0.0188
 8799SOL    HW141817   1.644   1.265   0.806  1.2049  0.7706 -0.3740
 8799SOL    HW241818   1.600   1.394   0.872 -2.4328 -0.7652  0.3466
 8800SOL     OW41819   2.052   0.928  10.589 -0.1118 -0.1098 -0.0945
 8800SOL    HW141820   2.079   0.938  10.498 -0.9517  1.6811 -0.1522
 8800SOL    HW241821   2.048   1.017  10.624  0.3303 -0.7741  1.7437
 8801SOL     OW41822   2.553   2.412   2.559  0.2238  0.0916  0.1011
 8801SOL    HW141823   2.614   2.453   2.498 -0.4065 -0.5260 -0.9428
 8801SOL    HW241824   2.471   2.460   2.547 -0.9164 -2.2880 -2.0916
 8802SOL     OW41825   2.249   5.349   1.966 -0.3028 -0.4381 -0.0840
 8802SOL    HW141826   2.311   5.344   2.038 -0.9028  0.1523  0.4844
 8802SOL    HW241827   2.302   5.375   1.890  0.1630 -0.0371  0.3769
 8803SOL     OW41828   4.866   0.172   2.529 -0.0683 -0.1398 -0.1554
 8803SOL    HW141829   4.879   0.078   2.514 -0.2104  0.0609 -1.6363
 8803SOL    HW241830   4.777   0.189   2.497 -1.5825 -0.2317  3.7458
 8804SOL     OW41831   0.351   1.931   4.333 -0.4341  0.4149 -0.1107
 8804SOL    HW141832   0.375   1.859   4.274  1.1921 -0.2615  1.3210
 8804SOL    HW241833   0.265   1.960   4.302 -0.5287 -1.2829 -1.5280
 8805SOL     OW41834   2.930   1.575  11.683  0.6668  0.0817  0.5418
 8805SOL    HW141835   2.978   1.538  11.757 -0.3221 -0.6989  0.8185
 8805SOL    HW241836   2.874   1.503  11.653  0.9239  0.4381 -0.8598
 8806SOL     OW41837   4.766   2.949   3.619 -0.2025  0.7107  0.4509
 8806SOL    HW141838   4.696   2.907   3.570 -1.9478  1.3236  2.3858
 8806SOL    HW241839   4.778   3.034   3.576 -0.0433  0.2764 -0.3883
 8807SOL     OW41840   3.093   0.303   0.307 -0.1963 -0.6778  0.0896
 8807SOL    HW141841   3.109   0.227   0.252  0.8079 -0.8075  0.5565
 8807SOL    HW241842   3.006   0.288   0.344 -0.9050 -0.5807 -1.4652
 8808SOL     OW41843   0.915   5.088   9.378  0.4933 -0.7733 -0.4734
 8808SOL    HW141844   1.001   5.048   9.384  1.8026  1.6032 -2.3027
 8808SOL    HW241845   0.856   5.016   9.356  2.6246 -1.8807 -2.7905
 8809SOL     OW41846   0.082   1.539   3.272 -0.0483  0.0134  0.2348
 8809SOL    HW141847   0.148   1.607   3.255 -2.7420  2.1056 -2.4502
 8809SOL    HW241848   0.091   1.478   3.200 -1.3168  0.5874 -0.4368
 8810SOL     OW41849   1.305   4.058   2.056  0.5851 -0.6441  0.0738
 8810SOL    HW141850   1.262   4.094   1.978  0.5913 -0.6989  0.0442
 8810SOL    HW241851   1.396   4.046   2.029  0.9293  0.7471  0.5551
 8811SOL     OW41852   1.366   0.356   8.543  0.0277 -0.7732 -0.2472
 8811SOL    HW141853   1.288   0.411   8.534 -0.3909 -1.5852 -1.7009
 8811SOL    HW241854   1.403   0.382   8.627 -0.1982  1.7011 -0.8558
 8812SOL     OW41855   4.857   2.820   7.795  0.0940 -0.2032 -0.6980
 8812SOL    HW141856   4.813   2.736   7.777  0.6032 -0.5084 -0.5128
 8812SOL    HW241857   4.941   2.796   7.832 -1.0116  0.4118  2.3815
 8813SOL     OW41858   5.895   5.367   3.020  0.0225 -0.4056 -0.1371
 8813SOL    HW141859   5.910   5.296   3.082  1.2490  0.1110  0.1746
 8813SOL    HW241860   5.960   5.434   3.043 -1.7905  1.2844  0.2791
 8814SOL     OW41861   2.397   3.464   4.108 -0.2036  0.5663  0.2426
 8814SOL    HW141862   2.393   3.380   4.153  0.2265 -1.0315 -2.6028
 8814SOL    HW241863   2.482   3.501   4.134 -0.0115 -0.2692  0.8263
 8815SOL     OW41864   3.214   2.477   0.730  0.3087 -0.1133  0.2315
 8815SOL    HW141865   3.140   2.511   0.781  0.5553 -2.2585  2.1042
 8815SOL    HW241866   3.254   2.555   0.692 -2.1482  1.2083  0.2135
 8816SOL     OW41867   2.797   4.752   1.343  0.2632  0.2857 -0.0353
 8816SOL    HW141868   2.757   4.759   1.256  0.0940  0.7812  0.0807
 8816SOL    HW241869   2.789   4.839   1.380 -1.0439 -0.2917  1.0882
 8817SOL     OW41870   2.946   1.026   9.885 -0.0553 -0.1088  0.1287
 8817SOL    HW141871   3.039   1.010   9.901  0.6594  1.7989 -1.7480
 8817SOL    HW241872   2.933   1.000   9.794 -0.5583  2.6248 -0.6421
 8818SOL     OW41873   2.994   1.261   8.589 -0.7063  0.1221 -0.4140
 8818SOL    HW141874   3.060   1.330   8.587  0.8213 -1.2555  0.9962
 8818SOL    HW241875   2.958   1.265   8.677 -0.9870 -0.5412 -0.4942
 8819SOL     OW41876   4.657   1.799   2.705 -0.1568 -0.3321 -0.0572
 8819SOL    HW141877   4.726   1.758   2.652 -0.2822 -0.3157 -0.2362
 8819SOL    HW241878   4.701   1.825   2.786 -0.0710 -0.7994  0.0474
 8820SOL     OW41879   5.659   5.513  10.164 -0.6604 -0.1948  0.1030
 8820SOL    HW141880   5.608   5.473  10.095 -0.1644  0.0156 -0.3917
 8820SOL    HW241881   5.747   5.477  10.153 -0.3727  0.5063  0.0803
 8821SOL     OW41882   1.309   2.870   2.784 -0.0848 -0.4983  0.2178
 8821SOL    HW141883   1.216   2.873   2.808  0.0474  1.7187  0.6250
 8821SOL    HW241884   1.312   2.817   2.704 -1.4584 -2.0241  1.1437
 8822SOL     OW41885   2.208   0.433   4.606 -0.0389  0.0460  0.3365
 8822SOL    HW141886   2.214   0.385   4.524  0.1468 -1.2909  1.1295
 8822SOL    HW241887   2.164   0.374   4.667  0.2334  0.8417  1.3398
 8823SOL     OW41888   1.223   1.556   1.364  0.0862  0.7167 -0.6938
 8823SOL    HW141889   1.132   1.583   1.351 -0.9878 -2.3672  0.0060
 8823SOL    HW241890   1.237   1.484   1.303  1.4985  0.0188  0.3994
 8824SOL     OW41891   3.900   3.253   2.313 -0.0666  0.5236  0.3685
 8824SOL    HW141892   3.845   3.267   2.235 -0.6863 -0.9082  0.5352
 8824SOL    HW241893   3.983   3.295   2.291 -0.1076 -0.1863 -1.2244
 8825SOL     OW41894   5.345   4.859   9.923 -0.1161  0.5612  0.7538
 8825SOL    HW141895   5.302   4.806   9.855  0.3856 -0.2743  1.0732
 8825SOL    HW241896   5.273   4.901   9.970 -0.4933  0.6978  0.0661
 8826SOL     OW41897   5.619   5.454   3.014 -0.0361 -0.5575 -0.0155
 8826SOL    HW141898   5.634   5.381   3.074 -1.4154  0.8097  2.0323
 8826SOL    HW241899   5.707   5.485   2.991  0.5213 -2.0210  0.1117
 8827SOL     OW41900   1.812   0.117  10.959  0.2843 -0.3866  0.1652
 8827SOL    HW141901   1.846   0.103  10.871 -1.1578  0.6854 -0.5848
 8827SOL    HW241902   1.826   0.211  10.976 -0.2787 -0.3942  0.7041
 8828SOL     OW41903   3.602   4.298   9.015  0.0966  0.4203 -0.1473
 8828SOL    HW141904   3.563   4.274   8.931 -1.5360 -2.4765  1.3716
 8828SOL    HW241905   3.540   4.360   9.054  0.2232  0.7762 -0.5072
 8829SOL     OW41906   0.900   1.791   3.548  0.3923  0.0934  0.5444
 8829SOL    HW141907   0.976   1.838   3.584 -0.0490  1.5712 -0.4225
 8829SOL    HW241908   0.929   1.762   3.461 -0.1881  0.7583  0.1289
 8830SOL     OW41909   1.590   1.971   8.170 -0.3213 -0.1672  0.6714
 8830SOL    HW141910   1.525   2.022   8.121  1.6777  0.5468 -1.2966
 8830SOL    HW241911   1.656   1.947   8.105  1.6015 -0.5359  2.6989
 8831SOL     OW41912   3.580   2.555  10.937  0.1240  0.2159  0.7069
 8831SOL    HW141913   3.617   2.496  11.002 -1.7141 -0.8656  0.7966
 8831SOL    HW241914   3.511   2.602  10.983 -1.2951 -0.6671 -0.5070
 8832SOL     OW41915   5.312   5.892   8.794 -0.1787  0.1729  0.3913
 8832SOL    HW141916   5.303   5.874   8.700  1.1936  0.6037  0.1598
 8832SOL    HW241917   5.375   5.826   8.825 -0.9369 -0.2262  1.0954
 8833SOL     OW41918   0.195   5.308   2.663  0.9926 -0.0533 -0.1173
 8833SOL    HW141919   0.217   5.402   2.663 -0.0632  0.2726  4.1528
 8833SOL    HW241920   0.108   5.305   2.623  1.2607  0.7165 -0.7857
 8834SOL     OW41921   1.701   5.549  12.229  0.2242 -0.9329 -0.1469
 8834SOL    HW141922   1.617   5.559  12.184  0.1471 -1.5594 -0.1548
 8834SOL    HW241923   1.766   5.572  12.163  0.1007 -1.5703 -0.4994
 8835SOL     OW41924   4.867   3.886  11.430  0.1534  0.3308  0.0854
 8835SOL    HW141925   4.832   3.803  11.464  0.8720 -0.2848 -0.6771
 8835SOL    HW241926   4.830   3.953  11.489  0.1914 -0.5925  1.1824
 8836SOL     OW41927   5.077   4.285   3.109  0.6521  0.3720  0.1275
 8836SOL    HW141928   5.162   4.293   3.066  1.0439 -1.2083  0.5784
 8836SOL    HW241929   5.079   4.199   3.151 -1.2209  0.2578  0.0307
 8837SOL     OW41930   0.837   3.824   1.555 -0.6710  0.4668  0.2652
 8837SOL    HW141931   0.865   3.738   1.524 -2.2217  0.0709 -0.0621
 8837SOL    HW241932   0.743   3.826   1.539 -0.7604  1.9645  0.9037
 8838SOL     OW41933   4.202   2.003  10.588 -0.5781  0.6620  0.4026
 8838SOL    HW141934   4.278   1.962  10.630  1.0627  0.0038 -3.0241
 8838SOL    HW241935   4.132   1.939  10.597  0.1483 -0.0696  0.9122
 8839SOL     OW41936   5.139   0.582  11.084  0.4444 -0.5802  0.0460
 8839SOL    HW141937   5.098   0.507  11.126 -0.3185 -0.3705 -0.3183
 8839SOL    HW241938   5.101   0.585  10.997  1.6754 -0.7358 -0.5144
 8840SOL     OW41939   4.025   0.531   8.259 -0.3822  0.1328 -0.5203
 8840SOL    HW141940   4.044   0.545   8.167 -2.5382 -0.2406 -1.0538
 8840SOL    HW241941   3.989   0.442   8.263  0.5332 -0.1942  0.8187
 8841SOL     OW41942   2.907   2.961  11.456  0.0048 -0.1564 -0.2044
 8841SOL    HW141943   2.929   2.978  11.364 -0.1537  0.4616 -0.1240
 8841SOL    HW241944   2.820   2.923  11.452  0.1921 -0.5830 -0.3464
 8842SOL     OW41945   0.308   5.424  11.464 -0.3232  0.6256 -0.3460
 8842SOL    HW141946   0.248   5.408  11.537 -0.2678  2.2419  0.0798
 8842SOL    HW241947   0.377   5.479  11.502  1.5115 -1.2793 -0.7968
 8843SOL     OW41948   0.226   5.156  11.535  0.1163 -0.3279 -0.0725
 8843SOL    HW141949   0.231   5.062  11.553  0.6822  0.1682  2.6735
 8843SOL    HW241950   0.313   5.179  11.504 -0.2754 -0.8412 -1.6068
 8844SOL     OW41951   3.474   4.431   2.463 -0.3375 -0.3088 -0.9231
 8844SOL    HW141952   3.528   4.357   2.435  1.6216  1.0113 -0.7761
 8844SOL    HW241953   3.464   4.484   2.384  0.5001  0.5997 -0.4292
 8845SOL     OW41954   3.143   0.124  12.041 -0.1925  0.1930 -0.0609
 8845SOL    HW141955   3.189   0.050  12.081  0.2561  0.4773 -0.0415
 8845SOL    HW241956   3.213   0.185  12.016 -0.4677  0.0336 -1.2459
 8846SOL     OW41957   1.713   3.748  11.419  0.3892  0.2233 -0.7380
 8846SOL    HW141958   1.736   3.685  11.350 -1.8592  0.3580 -1.6546
 8846SOL    HW241959   1.652   3.700  11.475  1.3561  0.4821  0.5782
 8847SOL     OW41960   4.971   0.303   8.914 -0.9199 -0.1858 -0.2873
 8847SOL    HW141961   4.921   0.319   8.994  1.1548 -2.6796  1.6104
 8847SOL    HW241962   5.049   0.358   8.923 -0.8247 -0.2416 -0.7462
 8848SOL     OW41963   4.039   3.929   1.397  0.2782 -0.5873 -0.0163
 8848SOL    HW141964   4.094   3.963   1.467  1.6595 -2.3634 -0.2190
 8848SOL    HW241965   4.098   3.876   1.343 -1.1251 -0.6197 -1.5656
 8849SOL     OW41966   4.918   3.078   7.861 -0.2513  0.5466 -0.1035
 8849SOL    HW141967   4.920   2.992   7.819 -2.2864  0.8318 -0.8394
 8849SOL    HW241968   4.825   3.096   7.875  0.2938  1.1774  3.0765
 8850SOL     OW41969   3.841   2.495   3.422 -0.2553  0.2266  0.1358
 8850SOL    HW141970   3.860   2.401   3.421 -0.9447  0.0548  1.6694
 8850SOL    HW241971   3.926   2.537   3.407 -0.0132 -0.6283 -0.9736
 8851SOL     OW41972   2.282   0.129   3.930  0.0572 -0.1225 -0.2778
 8851SOL    HW141973   2.345   0.201   3.927  1.0837 -1.0660 -1.7645
 8851SOL    HW241974   2.298   0.079   3.850 -2.1365 -0.7597 -0.3658
 8852SOL     OW41975   5.271   3.604   9.371  0.6163 -0.1031  0.1190
 8852SOL    HW141976   5.366   3.597   9.369  0.8992  2.6818  1.4570
 8852SOL    HW241977   5.250   3.667   9.302 -0.1406  0.4368  0.8402
 8853SOL     OW41978   2.756   3.475  12.478  0.3815  0.4241  0.2957
 8853SOL    HW141979   2.815   3.535  12.431  0.5461  1.4079  1.7067
 8853SOL    HW241980   2.790   3.388  12.459  1.1297  0.8727 -0.4676
 8854SOL     OW41981   1.595   5.664   0.777 -0.0061 -0.6332  0.4837
 8854SOL    HW141982   1.685   5.690   0.756 -0.0536 -0.1328  0.8718
 8854SOL    HW241983   1.603   5.617   0.860  0.0909 -1.9486 -0.2629
 8855SOL     OW41984   3.399   4.724   2.841 -0.4564 -0.5778  0.3842
 8855SOL    HW141985   3.353   4.673   2.774  1.0855 -0.0583 -1.1152
 8855SOL    HW241986   3.387   4.674   2.922 -0.4390 -2.4258 -0.7259
 8856SOL     OW41987   5.215   1.605   3.647 -0.1231  0.1390  0.5175
 8856SOL    HW141988   5.251   1.629   3.562  0.0629 -1.1654  0.2168
 8856SOL    HW241989   5.214   1.509   3.647 -0.6818  0.1275  1.7472
 8857SOL     OW41990   0.006   3.656   2.232 -0.8766 -0.6092 -0.5599
 8857SOL    HW141991  -0.032   3.621   2.312  0.5339 -0.8747  0.0151
 8857SOL    HW241992   0.092   3.613   2.225 -0.5966  0.0928 -1.7226
 8858SOL     OW41993   1.225   3.219   8.396 -0.0584  0.2569  0.4435
 8858SOL    HW141994   1.246   3.193   8.306  2.0471  1.3920  0.6013
 8858SOL    HW241995   1.191   3.139   8.436 -2.6901  0.1386 -1.8244
 8859SOL     OW41996   3.836   2.104  12.452 -0.4100 -0.4135  0.3779
 8859SOL    HW141997   3.821   2.075  12.542  0.7018  2.9757  1.7379
 8859SOL    HW241998   3.925   2.074  12.432 -0.8917 -1.7324  0.1306
 8860SOL     OW41999   3.707   3.910   2.517  0.0285 -0.4589 -0.5515
 8860SOL    HW142000   3.618   3.905   2.552 -0.5334  2.7647 -1.3750
 8860SOL    HW242001   3.696   3.902   2.422  0.4792  1.2432 -0.7567
 8861SOL     OW42002   4.898   1.262   0.013 -0.3075 -0.0888  0.1865
 8861SOL    HW142003   4.886   1.337   0.071 -1.4878 -0.0998 -0.0212
 8861SOL    HW242004   4.823   1.205   0.031 -0.0946 -0.6154 -0.5462
 8862SOL     OW42005   1.230   2.432   9.836 -0.1757  0.3547  0.5361
 8862SOL    HW142006   1.212   2.347   9.876 -1.2987  0.5502  0.4667
 8862SOL    HW242007   1.225   2.416   9.742 -0.1582  0.4481  0.5181
 8863SOL     OW42008   3.726   0.510   2.083 -0.3467  0.1875  0.0392
 8863SOL    HW142009   3.678   0.431   2.108  2.4146 -1.7366 -0.5219
 8863SOL    HW242010   3.805   0.508   2.136  0.9711  1.2193 -1.8472
 8864SOL     OW42011   3.238   0.203  11.452  0.2264 -0.0337  0.7678
 8864SOL    HW142012   3.253   0.216  11.546  1.2068  1.8237  0.3845
 8864SOL    HW242013   3.278   0.119  11.433  1.8512  0.5239  1.6370
 8865SOL     OW42014   1.633   0.288   3.876 -0.0960  0.0386  0.7033
 8865SOL    HW142015   1.667   0.371   3.909  0.8248 -0.1402  0.2028
 8865SOL    HW242016   1.543   0.285   3.908  0.2220  0.7046  1.6783
 8866SOL     OW42017   2.669   1.012   1.033  0.1343  0.3491  0.2293
 8866SOL    HW142018   2.727   1.084   1.006  0.5345 -0.3633 -0.8439
 8866SOL    HW242019   2.647   0.967   0.952  0.9822 -1.5580  1.0227
 8867SOL     OW42020   4.010   2.768   2.508 -0.2803 -0.3377  0.0520
 8867SOL    HW142021   4.055   2.850   2.528 -2.8320  1.8177 -2.7336
 8867SOL    HW242022   3.953   2.789   2.434 -1.4376 -4.4876 -0.3403
 8868SOL     OW42023   2.759   0.548   1.268 -0.3972  0.2903 -0.6093
 8868SOL    HW142024   2.846   0.523   1.238 -0.5281  0.3285 -1.0255
 8868SOL    HW242025   2.771   0.634   1.307 -0.2825  0.3754 -0.8321
 8869SOL     OW42026   1.514   4.180   0.386  0.4328 -0.2933  0.1078
 8869SOL    HW142027   1.596   4.226   0.364  0.6840 -0.2638  1.1093
 8869SOL    HW242028   1.542   4.096   0.422 -0.0146 -0.9099 -0.9357
 8870SOL     OW42029   0.457   1.457   9.619  0.1780 -0.3787 -0.7750
 8870SOL    HW142030   0.456   1.455   9.714 -2.7858 -3.2270 -0.7632
 8870SOL    HW242031   0.465   1.365   9.593 -0.3950  0.2246 -3.2539
 8871SOL     OW42032   1.677   3.025   1.800  0.3351 -0.1170 -0.2387
 8871SOL    HW142033   1.627   3.104   1.784 -1.9569 -1.5255 -0.2894
 8871SOL    HW242034   1.652   2.997   1.888  1.7847 -0.3301  0.1279
 8872SOL     OW42035   0.417   4.659   8.303  0.0099 -0.1415  0.2510
 8872SOL    HW142036   0.397   4.729   8.365 -1.8947  0.7651 -1.3235
 8872SOL    HW242037   0.338   4.605   8.303  0.5390 -0.9167 -0.3560
 8873SOL     OW42038   5.523   2.082   0.356  0.0370 -0.4099 -0.0985
 8873SOL    HW142039   5.573   2.049   0.282  0.8721 -0.4003  0.4475
 8873SOL    HW242040   5.516   2.007   0.415 -1.0544 -0.5547 -0.4079
 8874SOL     OW42041   1.718   3.109   2.596  0.3627 -0.2688 -0.2501
 8874SOL    HW142042   1.692   3.166   2.669 -1.8712 -1.9603  0.3583
 8874SOL    HW242043   1.727   3.168   2.522  0.9085  1.2514  0.9889
 8875SOL     OW42044   1.502   1.840   3.454  0.1198  0.0512  0.3409
 8875SOL    HW142045   1.512   1.770   3.519 -0.6118 -1.3554 -1.0431
 8875SOL    HW242046   1.589   1.850   3.416 -0.4901 -2.6462 -1.9835
 8876SOL     OW42047   3.315   0.971   7.963  0.0608 -0.1549 -0.6860
 8876SOL    HW142048   3.329   0.886   7.922  0.1666 -0.8398  0.7403
 8876SOL    HW242049   3.224   0.967   7.995  0.2869  0.0013 -0.0143
 8877SOL     OW42050   4.205   3.094   3.041  0.0120  0.0105  0.4774
 8877SOL    HW142051   4.287   3.074   2.997 -0.0442 -1.4382  1.0050
 8877SOL    HW242052   4.163   3.159   2.985  0.2586 -1.2661 -1.2387
 8878SOL     OW42053   1.176   2.141   9.831 -0.1497  0.1930  0.5219
 8878SOL    HW142054   1.204   2.126   9.921 -0.4952 -2.0165  0.3000
 8878SOL    HW242055   1.242   2.097   9.777 -0.6991  0.2977 -0.2479
 8879SOL     OW42056   4.374   1.083   8.832  0.2089 -0.1698 -0.1306
 8879SOL    HW142057   4.418   1.150   8.885 -0.4978  1.2776 -1.3304
 8879SOL    HW242058   4.445   1.034   8.790  0.7229  0.1657  0.3486
 8880SOL     OW42059   4.009   4.607   0.941  0.0945  0.1755  0.1370
 8880SOL    HW142060   3.934   4.549   0.951  0.5291 -0.2217  1.1694
 8880SOL    HW242061   3.988   4.683   0.995  0.8929 -0.4034  1.2858
 8881SOL     OW42062   3.700   0.339   7.974 -0.2559  0.3689  0.4167
 8881SOL    HW142063   3.786   0.306   7.947 -0.2458 -1.6087  2.7329
 8881SOL    HW242064   3.637   0.287   7.923 -0.1230  1.7307 -1.1878
 8882SOL     OW42065   4.310   4.976  10.477 -0.0081  0.0257  0.0019
 8882SOL    HW142066   4.395   4.945  10.444 -0.1676  0.8100 -1.1580
 8882SOL    HW242067   4.331   5.054  10.529  0.0996 -0.4497  0.6851
 8883SOL     OW42068   4.021   3.395  11.550 -0.1708 -0.4848 -0.0208
 8883SOL    HW142069   4.069   3.314  11.529  1.9534  0.7886 -0.1680
 8883SOL    HW242070   4.006   3.436  11.465  1.5151  0.8118  0.2977
 8884SOL     OW42071   1.381   5.784   9.804 -0.4761 -0.1442 -0.4200
 8884SOL    HW142072   1.302   5.741   9.771 -0.2602 -0.1919 -0.8829
 8884SOL    HW242073   1.453   5.736   9.763 -0.0915 -2.2381  2.5617
 8885SOL     OW42074   0.628   0.336   3.565  0.2810 -0.4122  0.2508
 8885SOL    HW142075   0.703   0.340   3.624  0.8467 -0.5562 -0.4379
 8885SOL    HW242076   0.593   0.247   3.576 -0.7512  0.1578  1.7168
 8886SOL     OW42077   2.467   1.799  10.263  0.2701 -0.6683 -0.6882
 8886SOL    HW142078   2.408   1.838  10.199 -0.8218  0.3037  0.8798
 8886SOL    HW242079   2.475   1.707  10.236 -0.4907 -0.3678 -1.9644
 8887SOL     OW42080   0.181   2.608  10.203 -0.7313  0.5950 -0.4696
 8887SOL    HW142081   0.192   2.693  10.246 -0.5931 -0.3623  1.4512
 8887SOL    HW242082   0.098   2.575  10.236  0.2061 -0.9202  0.4361
 8888SOL     OW42083   4.482   3.561   8.305 -0.3197  0.5103  0.2322
 8888SOL    HW142084   4.547   3.563   8.235  0.2926  1.3221  0.8153
 8888SOL    HW242085   4.423   3.634   8.286 -0.1225  0.7656  0.5917
 8889SOL     OW42086   1.171   4.870   0.645  0.1077 -0.0755  0.2324
 8889SOL    HW142087   1.200   4.789   0.686  0.3479 -1.0685 -1.8466
 8889SOL    HW242088   1.133   4.921   0.717  0.3329 -1.8377  1.6348
 8890SOL     OW42089   5.139   5.203   1.755 -0.0868 -0.6016 -0.5142
 8890SOL    HW142090   5.202   5.210   1.683  0.3266 -2.8703 -0.3992
 8890SOL    HW242091   5.064   5.256   1.726  0.2775 -1.0779 -2.3797
 8891SOL     OW42092   5.209   4.077   8.473 -0.5546 -0.2432 -0.1227
 8891SOL    HW142093   5.288   4.039   8.511 -1.4044 -0.5023  1.4465
 8891SOL    HW242094   5.209   4.047   8.383  0.9949 -0.4650 -0.0561
 8892SOL     OW42095   3.138   0.397   9.925  0.5717 -0.4201 -0.1549
 8892SOL    HW142096   3.202   0.367   9.860  0.1012  0.7710 -1.1911
 8892SOL    HW242097   3.184   0.465   9.973  0.9084 -1.2796  0.7683
 8893SOL     OW42098   0.327   5.413   9.425  0.3441  0.3623 -0.0292
 8893SOL    HW142099   0.356   5.334   9.471  2.1798  0.8736 -0.3017
 8893SOL    HW242100   0.384   5.482   9.457 -0.5739  1.3880 -0.5861
 8894SOL     OW42101   1.383   2.699  11.708 -0.3334 -0.7269  0.0589
 8894SOL    HW142102   1.347   2.786  11.723  1.1485 -0.2492  0.9275
 8894SOL    HW242103   1.313   2.651  11.665 -1.0707  0.9796 -0.6801
 8895SOL     OW42104   4.297   0.405   8.086 -0.1259 -0.4391 -0.2647
 8895SOL    HW142105   4.259   0.405   7.999 -1.5939  0.3114  0.3692
 8895SOL    HW242106   4.392   0.411   8.071 -0.3486 -0.5817 -1.7921
 8896SOL     OW42107   2.909   3.505   9.488 -0.1530 -0.0102 -0.3029
 8896SOL    HW142108   2.967   3.432   9.464 -1.4480 -0.1987 -3.0000
 8896SOL    HW242109   2.954   3.583   9.455 -0.3289  0.0878 -0.3114
 8897SOL     OW42110   3.477   4.786   3.468  0.1373 -0.4527  0.0543
 8897SOL    HW142111   3.506   4.870   3.503 -2.0281 -0.2032  1.3117
 8897SOL    HW242112   3.409   4.807   3.405 -0.5991 -1.2541  0.5595
 8898SOL     OW42113   5.365   4.000   2.153  0.3861 -0.3309 -0.1122
 8898SOL    HW142114   5.300   3.988   2.223  0.7894 -0.7218  0.1974
 8898SOL    HW242115   5.444   4.031   2.199  0.6968 -0.7272 -0.3743
 8899SOL     OW42116   4.801   2.240   9.328  0.3967  0.4046  0.3958
 8899SOL    HW142117   4.848   2.324   9.325  1.1107  0.0309  0.9372
 8899SOL    HW242118   4.711   2.263   9.307  0.1939  1.6260  2.3992
 8900SOL     OW42119   5.596   1.842   2.065 -0.2516 -0.5284 -0.8507
 8900SOL    HW142120   5.572   1.902   2.135  1.6660 -0.3885 -0.2792
 8900SOL    HW242121   5.513   1.821   2.022 -1.0695  1.8024 -0.4987
 8901SOL     OW42122   2.144   2.320   9.781  0.1829  0.1754 -0.0789
 8901SOL    HW142123   2.099   2.317   9.865 -0.0652 -2.3344 -0.2773
 8901SOL    HW242124   2.084   2.276   9.720  1.7600 -0.9141 -0.8885
 8902SOL     OW42125   1.170   3.187  11.895  0.6136 -0.3809 -0.5051
 8902SOL    HW142126   1.116   3.180  11.817 -0.3021  1.8450 -0.1048
 8902SOL    HW242127   1.173   3.098  11.929 -0.9545 -0.9586 -1.7741
 8903SOL     OW42128   5.406   2.204  11.970  0.4695 -0.4146  0.5191
 8903SOL    HW142129   5.371   2.258  11.900  0.2566  0.5155  1.3257
 8903SOL    HW242130   5.373   2.116  11.951 -0.7334  0.0846  0.2111
 8904SOL     OW42131   4.274   4.059   1.027 -0.4885 -0.1580  0.2955
 8904SOL    HW142132   4.335   4.004   0.977  1.1125  0.9279  1.0033
 8904SOL    HW242133   4.225   3.997   1.082  0.1315 -1.0349 -0.1310
 8905SOL     OW42134   3.627   1.606   2.011  0.5444 -0.3260 -0.4565
 8905SOL    HW142135   3.714   1.586   1.977  1.1906 -0.1735  1.0653
 8905SOL    HW242136   3.629   1.700   2.029  0.0642 -0.3165 -0.4415
 8906SOL     OW42137   2.146   4.877   1.284  0.7900 -0.4534 -0.3875
 8906SOL    HW142138   2.101   4.846   1.206 -0.5555  0.0767  0.1771
 8906SOL    HW242139   2.224   4.822   1.290  0.1291 -1.4897 -1.2645
 8907SOL     OW42140   0.541   2.057   2.245  0.3072 -0.1282  0.4283
 8907SOL    HW142141   0.559   2.121   2.176  0.5084 -1.4685 -0.7821
 8907SOL    HW242142   0.606   2.076   2.313  1.3654 -0.0380 -0.5913
 8908SOL     OW42143   1.015   0.458   8.250 -0.7673 -0.3020 -0.2817
 8908SOL    HW142144   0.940   0.514   8.230 -0.3159 -0.6007 -2.9737
 8908SOL    HW242145   0.976   0.375   8.278 -1.4531 -0.0947 -0.6072
 8909SOL     OW42146   1.002   1.688   2.706  0.2048 -0.5390  1.2244
 8909SOL    HW142147   1.092   1.661   2.688 -0.0114 -0.1784 -0.5202
 8909SOL    HW242148   0.948   1.623   2.660 -0.3818  0.5379  0.3785
 8910SOL     OW42149   4.003   3.232  10.871 -0.2410  0.2668 -0.5876
 8910SOL    HW142150   3.911   3.209  10.859  0.3618 -1.6508 -1.7929
 8910SOL    HW242151   4.031   3.265  10.785  0.4983 -0.2893 -0.5655
 8911SOL     OW42152   0.099   4.572  10.987  0.2527  0.1565 -0.8869
 8911SOL    HW142153   0.008   4.553  10.966 -0.2234  1.6834 -0.2791
 8911SOL    HW242154   0.107   4.667  10.977  1.0490  0.4159  1.7324
 8912SOL     OW42155   2.060   2.883  11.108  0.1443 -0.0034 -0.2078
 8912SOL    HW142156   1.999   2.926  11.168 -0.3970  0.1887 -0.8960
 8912SOL    HW242157   2.012   2.876  11.025  0.4092 -1.4365 -0.2656
 8913SOL     OW42158   3.600   2.003   9.924 -0.1904  0.3825 -1.1511
 8913SOL    HW142159   3.636   1.955   9.998 -2.6688  0.2551  0.0238
 8913SOL    HW242160   3.666   1.993   9.855  1.5126 -0.6693  0.5805
 8914SOL     OW42161   3.133   4.016   0.836  0.2108 -0.4815 -0.0041
 8914SOL    HW142162   3.052   4.056   0.806  0.0604  0.1903  1.2556
 8914SOL    HW242163   3.200   4.049   0.775 -0.1574  0.4861  0.1056
 8915SOL     OW42164   0.461   1.013  11.693  0.2248 -0.1312 -0.2987
 8915SOL    HW142165   0.406   1.077  11.739  0.9413 -0.3069  0.8254
 8915SOL    HW242166   0.443   0.930  11.736  1.4047 -0.1817  0.1207
 8916SOL     OW42167   4.683   1.117   0.072  0.2409 -0.0132 -0.1064
 8916SOL    HW142168   4.674   1.172   0.150 -1.1798  1.0379 -0.9956
 8916SOL    HW242169   4.614   1.052   0.081  0.7473 -0.5423  0.0195
 8917SOL     OW42170   1.855   1.249   2.386 -0.1182  0.2120 -0.1353
 8917SOL    HW142171   1.799   1.229   2.461  0.8024 -2.6004 -0.1584
 8917SOL    HW242172   1.895   1.166   2.362  0.8927  1.3795 -2.7359
 8918SOL     OW42173   0.921   2.665   8.169  0.5535 -0.0750  0.2610
 8918SOL    HW142174   1.001   2.613   8.174 -0.6521 -1.7770  2.9433
 8918SOL    HW242175   0.851   2.601   8.170 -0.8935  1.4854  0.1116
 8919SOL     OW42176   1.700   0.883   0.643  0.6929 -0.1074  0.0063
 8919SOL    HW142177   1.703   0.974   0.674  1.1802 -0.4837  1.0794
 8919SOL    HW242178   1.777   0.874   0.588 -0.4336  0.7072 -1.7701
 8920SOL     OW42179   4.320   1.707  11.026 -0.3440 -0.3305  0.5005
 8920SOL    HW142180   4.368   1.769  11.080  0.2770 -1.1467  0.9030
 8920SOL    HW242181   4.286   1.759  10.953 -0.2222  0.5595  1.0814
 8921SOL     OW42182   4.875   3.829   9.153 -0.3899  0.0839  0.1180
 8921SOL    HW142183   4.906   3.839   9.063  0.8810 -1.1723  0.4007
 8921SOL    HW242184   4.867   3.734   9.166 -0.5575  0.2490  1.3312
 8922SOL     OW42185   4.736   4.126  11.490 -0.0891  0.4264  0.9646
 8922SOL    HW142186   4.734   4.159  11.580  0.5415 -0.2829  1.2459
 8922SOL    HW242187   4.644   4.111  11.467 -0.2267  0.3250  1.5906
 8923SOL     OW42188   3.667   0.872  12.004  0.4866  0.0900 -0.0471
 8923SOL    HW142189   3.613   0.819  11.946 -0.4996 -0.9339  1.7458
 8923SOL    HW242190   3.609   0.893  12.078  1.9449  0.6429  0.9656
 8924SOL     OW42191   1.270   4.381   0.938  0.1471 -0.2125  0.1269
 8924SOL    HW142192   1.203   4.449   0.938  1.0179  0.7007 -1.7005
 8924SOL    HW242193   1.247   4.324   1.011 -3.0074 -0.2881 -0.8396
 8925SOL     OW42194   3.832   0.249  11.280 -0.6610  0.4225  0.0386
 8925SOL    HW142195   3.738   0.252  11.297 -0.6508  1.7200 -0.0472
 8925SOL    HW242196   3.845   0.169  11.229 -1.7036  0.1880  0.1221
 8926SOL     OW42197   2.665   1.886  11.472 -0.5336  0.5713 -0.2874
 8926SOL    HW142198   2.607   1.884  11.548 -1.4484  2.7148 -0.8753
 8926SOL    HW242199   2.637   1.963  11.423  0.2306 -0.5990 -2.6569
 8927SOL     OW42200   4.702   0.733   2.898 -1.3997 -0.1114  0.8512
 8927SOL    HW142201   4.765   0.804   2.889 -2.4489  0.5489 -1.6306
 8927SOL    HW242202   4.752   0.654   2.879 -1.0450  0.2981  0.0668
 8928SOL     OW42203   3.016   2.997   3.884 -0.4833 -0.6764  0.1044
 8928SOL    HW142204   2.970   3.077   3.859  0.0863 -0.6629 -0.9232
 8928SOL    HW242205   3.089   2.990   3.823 -0.4134 -1.8870  0.2980
 8929SOL     OW42206   4.925   2.610   0.497 -0.0762 -0.3374  0.3387
 8929SOL    HW142207   4.938   2.580   0.587 -1.0950 -0.6494  0.3913
 8929SOL    HW242208   5.001   2.577   0.449  1.0268  0.7463  1.3012
 8930SOL     OW42209   3.566   1.521  11.009 -0.4970  0.3076  0.0267
 8930SOL    HW142210   3.555   1.591  10.945 -0.3094 -0.7956 -1.2362
 8930SOL    HW242211   3.618   1.560  11.079 -0.2193  1.3797 -0.7613
 8931SOL     OW42212   2.787   4.915  11.228  0.4683 -0.0452  0.0792
 8931SOL    HW142213   2.714   4.975  11.242  1.4417  1.5583 -1.3294
 8931SOL    HW242214   2.765   4.870  11.146 -0.0094 -1.2620  0.8604
 8932SOL     OW42215   0.919   1.392   8.519 -0.1773  0.6534  0.4200
 8932SOL    HW142216   0.925   1.297   8.531  0.4857  0.8067  1.3821
 8932SOL    HW242217   0.992   1.412   8.460  0.3203  0.6940  1.0383
 8933SOL     OW42218   5.025   0.793   3.080  0.6033 -1.6590 -0.3904
 8933SOL    HW142219   5.090   0.830   3.139 -0.8495 -0.6003  0.6052
 8933SOL    HW242220   4.952   0.769   3.138 -1.2871  0.3842 -1.8281
 8934SOL     OW42221   5.457   0.261  12.415  0.5380 -0.0246 -0.2757
 8934SOL    HW142222   5.458   0.167  12.434 -2.4065 -0.6107 -2.7472
 8934SOL    HW242223   5.497   0.267  12.328  0.3279  0.9913 -0.2978
 8935SOL     OW42224   4.435   5.061  11.182  0.5815  0.0902  0.3526
 8935SOL    HW142225   4.468   5.066  11.272  0.2923  0.4575  0.4357
 8935SOL    HW242226   4.424   4.967  11.166  2.3874 -0.1010  0.0644
 8936SOL     OW42227   0.994   3.146   2.622  0.1131 -0.6171  0.4472
 8936SOL    HW142228   1.026   3.063   2.586  2.3436  0.0277  0.8767
 8936SOL    HW242229   0.961   3.194   2.546 -1.3585 -1.9248  0.2163
 8937SOL     OW42230   0.198   0.623   0.569  0.1612  0.1979 -0.2257
 8937SOL    HW142231   0.145   0.663   0.500  1.3290  1.4029 -0.4383
 8937SOL    HW242232   0.138   0.616   0.643 -0.3460  1.4966 -0.4890
 8938SOL     OW42233   2.137   3.875   9.852  0.1928 -0.0405 -0.0877
 8938SOL    HW142234   2.135   3.932   9.929  2.7369 -0.2946  0.2240
 8938SOL    HW242235   2.118   3.787   9.886  1.1803 -0.1321  0.2518
 8939SOL     OW42236   0.641   5.180   2.150  0.3025  0.0162  0.1550
 8939SOL    HW142237   0.631   5.263   2.196  2.4654 -0.5013  1.6447
 8939SOL    HW242238   0.724   5.189   2.104 -1.1897  0.0178 -2.6595
 8940SOL     OW42239   0.915   0.533  11.341 -0.1497 -0.2765 -0.2585
 8940SOL    HW142240   0.825   0.563  11.326  0.1892  0.2905 -1.1955
 8940SOL    HW242241   0.965   0.613  11.356  0.3111 -0.5456 -0.3293
 8941SOL     OW42242   4.872   2.386   2.218 -0.6593 -0.5838  0.4640
 8941SOL    HW142243   4.810   2.391   2.292  0.9645 -0.0303  1.8091
 8941SOL    HW242244   4.937   2.322   2.246 -0.2143 -0.6253 -0.6521
 8942SOL     OW42245   1.550   1.692  10.914  0.4246 -0.0474  0.3025
 8942SOL    HW142246   1.502   1.757  10.863  0.2714 -0.3461  0.0634
 8942SOL    HW242247   1.521   1.608  10.879  1.4037 -0.2227 -0.1020
 8943SOL     OW42248   1.433   2.678  12.243  0.3725 -0.4174 -0.3010
 8943SOL    HW142249   1.347   2.647  12.215 -0.2148  0.7088  0.2096
 8943SOL    HW242250   1.470   2.605  12.294 -0.5152 -0.7005 -0.0509
 8944SOL     OW42251   1.868   4.028   8.600 -0.7628 -0.0972  0.0091
 8944SOL    HW142252   1.900   4.040   8.690 -1.6774 -0.5628  0.4044
 8944SOL    HW242253   1.817   4.107   8.582 -2.0077 -0.7633  0.5316
 8945SOL     OW42254   5.325   5.934  12.165 -0.6023  0.0160 -0.3498
 8945SOL    HW142255   5.353   5.855  12.212 -0.9917 -0.0411 -0.2177
 8945SOL    HW242256   5.379   6.004  12.202 -1.0104 -0.0008  0.2899
 8946SOL     OW42257   4.464   0.655   7.860 -0.6854 -0.1713  0.2726
 8946SOL    HW142258   4.493   0.695   7.779  0.5643 -1.2708  0.1583
 8946SOL    HW242259   4.372   0.633   7.844 -0.2688 -0.9904 -1.0874
 8947SOL     OW42260   1.576   5.632   9.634 -0.0098  0.6982 -0.0035
 8947SOL    HW142261   1.525   5.602   9.559  2.1614  1.2419 -1.7499
 8947SOL    HW242262   1.621   5.553   9.665 -0.2648  0.6375  0.2187
 8948SOL     OW42263   1.709   4.635   1.046 -0.1908  0.1541  0.3024
 8948SOL    HW142264   1.777   4.573   1.073  0.3622  0.2314 -0.8387
 8948SOL    HW242265   1.643   4.580   1.002  0.0258  0.2979 -0.2093
 8949SOL     OW42266   1.338   0.170   4.208 -0.1376  0.1492  0.0142
 8949SOL    HW142267   1.313   0.241   4.267  0.1518  1.2280 -1.1326
 8949SOL    HW242268   1.430   0.153   4.228  0.3704  1.4832 -1.0578
 8950SOL     OW42269   5.747   4.165   0.646 -0.0418 -0.0216 -0.6042
 8950SOL    HW142270   5.651   4.163   0.636 -0.2745 -0.9742  1.5104
 8950SOL    HW242271   5.780   4.156   0.557 -1.9234 -0.5503 -1.2892
 8951SOL     OW42272   5.453   3.315   0.338 -0.5640  0.1063  0.0524
 8951SOL    HW142273   5.365   3.285   0.360 -0.4882  0.3811  0.7424
 8951SOL    HW242274   5.440   3.375   0.264 -0.9160 -0.1443 -0.0921
 8952SOL     OW42275   2.927   4.428   0.197  0.5500  0.1857  0.2697
 8952SOL    HW142276   2.997   4.367   0.218  0.6447  0.2091  0.0205
 8952SOL    HW242277   2.936   4.445   0.103  0.9620  1.1397  0.4690
 8953SOL     OW42278   2.803   1.828   9.047  0.1124 -0.0469  0.4588
 8953SOL    HW142279   2.774   1.741   9.075  1.5459 -0.1257  1.7467
 8953SOL    HW242280   2.727   1.884   9.063 -0.6272 -0.9390  0.1713
 8954SOL     OW42281   2.501   5.905  10.326 -0.3662 -0.0336  0.1868
 8954SOL    HW142282   2.545   5.990  10.330 -1.0302  0.3561 -0.6549
 8954SOL    HW242283   2.450   5.908  10.245 -0.3521 -1.2570  0.1213
 8955SOL     OW42284   5.862   1.276  10.341  0.2875 -0.1163 -0.0557
 8955SOL    HW142285   5.882   1.183  10.341  0.3161 -0.1107  0.0159
 8955SOL    HW242286   5.788   1.285  10.281 -0.3411 -0.3170  0.6964
 8956SOL     OW42287   0.236   5.236   1.333 -0.7927  0.3119  0.0214
 8956SOL    HW142288   0.282   5.302   1.385 -1.5605 -0.3397  1.5468
 8956SOL    HW242289   0.302   5.167   1.320 -1.5195 -0.9969  2.9007
 8957SOL     OW42290   0.101   2.710   8.055  0.2764 -0.8110  0.7972
 8957SOL    HW142291   0.019   2.754   8.074  0.7773  1.0501 -1.1454
 8957SOL    HW242292   0.082   2.617   8.067 -1.8363 -0.3464  1.2679
 8958SOL     OW42293   3.758   1.534   0.075 -0.1874  0.1406 -0.4079
 8958SOL    HW142294   3.789   1.622   0.052 -0.3910  0.4249  0.4068
 8958SOL    HW242295   3.767   1.530   0.170 -0.2214 -0.7085 -0.4410
 8959SOL     OW42296   4.098   5.196   0.964  0.4075  0.5427  0.0720
 8959SOL    HW142297   4.145   5.211   0.881  0.4510 -1.7485 -0.3589
 8959SOL    HW242298   4.156   5.231   1.031  0.2112  2.7723 -0.8677
 8960SOL     OW42299   0.166   0.185   9.045  0.0247 -0.0447  0.1026
 8960SOL    HW142300   0.257   0.185   9.076  0.1709 -1.0007 -0.2937
 8960SOL    HW242301   0.132   0.271   9.069  0.7853  0.0131  0.9995
 8961SOL     OW42302   3.281   1.936  12.111  0.1935 -0.1930 -0.1040
 8961SOL    HW142303   3.334   2.015  12.102 -3.3702  2.4420  0.7491
 8961SOL    HW242304   3.229   1.933  12.031  0.3836 -1.7753 -0.1826
 8962SOL     OW42305   1.966   1.720   0.178  0.3127  0.0773 -0.3818
 8962SOL    HW142306   2.018   1.716   0.098 -0.5432 -0.2862 -0.9187
 8962SOL    HW242307   1.951   1.628   0.201  1.0385  0.1696  0.5149
 8963SOL     OW42308   3.834   2.178  11.501  0.0649  0.0341 -0.1785
 8963SOL    HW142309   3.834   2.106  11.439  0.9276 -0.2260  0.1267
 8963SOL    HW242310   3.765   2.237  11.469 -0.7698 -1.0083 -0.3188
 8964SOL     OW42311   4.960   3.471  11.374 -0.0640  0.5085 -0.3108
 8964SOL    HW142312   4.954   3.389  11.422  0.2219 -0.4443 -1.8618
 8964SOL    HW242313   4.964   3.445  11.282  0.7605  2.2233 -0.7878
 8965SOL     OW42314   0.468   1.022   1.658 -0.0059  0.5278 -0.0920
 8965SOL    HW142315   0.427   1.012   1.744 -3.4056 -0.7676 -1.7809
 8965SOL    HW242316   0.405   1.073   1.607  0.6989 -1.0249 -2.6088
 8966SOL     OW42317   2.022   4.384  10.604  0.6721 -0.5028 -0.1761
 8966SOL    HW142318   2.034   4.470  10.562 -0.6849 -0.3897 -0.3589
 8966SOL    HW242319   1.939   4.352  10.570 -0.2527 -0.6055  2.0916
 8967SOL     OW42320   2.418   4.786   0.347  0.3082 -0.5261  0.0912
 8967SOL    HW142321   2.499   4.829   0.322 -0.6426  1.7536  0.8315
 8967SOL    HW242322   2.352   4.856   0.348 -1.7473 -2.3662 -0.8236
 8968SOL     OW42323   4.238   0.400  10.144  0.0473 -0.5803  0.1416
 8968SOL    HW142324   4.158   0.441  10.179 -0.6926 -1.1565 -0.8424
 8968SOL    HW242325   4.307   0.428  10.204 -0.7706  0.5224  0.6004
 8969SOL     OW42326   4.092   2.818   8.463  0.5064 -0.3800  0.4070
 8969SOL    HW142327   4.085   2.901   8.417  0.7855 -0.5632  0.0313
 8969SOL    HW242328   4.118   2.842   8.552 -0.7667  0.0273  0.6894
 8970SOL     OW42329   5.412   3.278   1.465 -0.2317 -0.4726 -0.0944
 8970SOL    HW142330   5.439   3.351   1.520  0.5471 -0.5733 -0.3323
 8970SOL    HW242331   5.418   3.201   1.522 -3.2159 -0.0918  0.8248
 8971SOL     OW42332   0.292   0.466   9.065 -0.3312 -0.9536 -0.0313
 8971SOL    HW142333   0.208   0.481   9.109  0.5306  0.2776  1.2438
 8971SOL    HW242334   0.279   0.500   8.977 -0.3785  1.6850  0.9484
 8972SOL     OW42335   2.287   3.262  11.941  0.7268  0.0303  0.0853
 8972SOL    HW142336   2.232   3.298  12.011 -0.1383 -1.0122 -0.0280
 8972SOL    HW242337   2.314   3.338  11.890 -0.5694  0.5809  0.1833
 8973SOL     OW42338   1.853   1.291   0.340  0.1845  0.4171 -0.2033
 8973SOL    HW142339   1.912   1.235   0.390 -0.9063 -0.6707 -0.1003
 8973SOL    HW242340   1.765   1.259   0.362 -0.3929  1.2208 -1.2728
 8974SOL     OW42341   0.318   4.657   1.910  0.7883  0.2615  0.3650
 8974SOL    HW142342   0.288   4.567   1.894 -0.2631  0.5482  0.6448
 8974SOL    HW242343   0.244   4.711   1.881  0.5777  0.9551  2.1630
 8975SOL     OW42344   1.291   3.566   1.255 -0.1902  0.6666  0.1046
 8975SOL    HW142345   1.216   3.507   1.252 -0.9170  1.6251 -0.9504
 8975SOL    HW242346   1.267   3.632   1.320  0.0309  0.5814  0.2739
 8976SOL     OW42347   4.895   5.286   9.940 -0.6290 -0.4133 -0.5332
 8976SOL    HW142348   4.810   5.252   9.912 -0.6376  0.7277 -1.9467
 8976SOL    HW242349   4.879   5.378   9.961  0.1348 -0.3372 -0.2735
 8977SOL     OW42350   2.861   1.395  10.706  0.3670  0.7595  0.1617
 8977SOL    HW142351   2.820   1.309  10.716  2.2731 -0.1521  0.4441
 8977SOL    HW242352   2.844   1.440  10.789  0.8040  0.0071  0.6667
 8978SOL     OW42353   0.174   2.156  11.075 -0.3479 -0.0277  0.3443
 8978SOL    HW142354   0.097   2.211  11.095 -0.3144 -0.0489  0.5367
 8978SOL    HW242355   0.137   2.071  11.052 -0.3354 -0.3456  1.4781
 8979SOL     OW42356   0.968   3.043   1.173 -0.3000 -0.1611 -0.0217
 8979SOL    HW142357   0.929   3.067   1.089 -0.5829 -0.3047  0.0672
 8979SOL    HW242358   1.062   3.059   1.161 -0.3589 -0.0186 -0.3079
 8980SOL     OW42359   3.325   1.027   3.243 -0.3119 -0.2267 -0.3259
 8980SOL    HW142360   3.379   1.095   3.202  1.1491 -1.4220 -0.4712
 8980SOL    HW242361   3.339   0.950   3.188 -1.9047 -0.6617 -0.1376
 8981SOL     OW42362   4.159   1.158   2.737  0.1041  0.2445  0.1173
 8981SOL    HW142363   4.115   1.127   2.658  1.6682  0.7233 -0.9663
 8981SOL    HW242364   4.246   1.120   2.733  0.3358  0.6037  1.4154
 8982SOL     OW42365   1.548   3.228   2.305 -0.1704 -0.6176 -0.5440
 8982SOL    HW142366   1.474   3.169   2.313 -0.5735 -0.1429 -0.7698
 8982SOL    HW242367   1.529   3.282   2.228 -0.5286  0.8234  0.5145
 8983SOL     OW42368   3.510   5.891  10.197 -0.5795 -0.3325 -0.5135
 8983SOL    HW142369   3.598   5.917  10.222 -1.0206  1.3627 -0.6850
 8983SOL    HW242370   3.457   5.906  10.275 -0.6124 -1.9729 -0.1971
 8984SOL     OW42371   3.495   0.010  12.251  0.1258  0.3719 -0.4665
 8984SOL    HW142372   3.525   0.100  12.251  0.2624  0.3253 -0.8353
 8984SOL    HW242373   3.575  -0.043  12.247 -0.0421  0.2582 -3.3577
 8985SOL     OW42374   0.118   4.190   1.660 -0.0806 -0.0224  0.1945
 8985SOL    HW142375   0.062   4.160   1.731 -1.5126 -0.6012 -1.1514
 8985SOL    HW242376   0.084   4.146   1.582  1.4446  0.6122 -0.8545
 8986SOL     OW42377   5.319   2.178   9.672  0.2920 -0.1761 -0.3190
 8986SOL    HW142378   5.377   2.206   9.743  1.2760 -0.5556 -0.9638
 8986SOL    HW242379   5.353   2.093   9.645 -1.0793 -0.7874 -0.1420
 8987SOL     OW42380   2.263   1.565   2.005  0.0634  0.0616  0.1343
 8987SOL    HW142381   2.252   1.642   1.950 -0.9478  0.0711  0.3273
 8987SOL    HW242382   2.200   1.501   1.969 -0.0217 -0.2181  0.7608
 8988SOL     OW42383   1.113   3.895   4.442 -0.5796  0.0275 -0.2123
 8988SOL    HW142384   1.043   3.857   4.495 -1.9363  2.2711 -0.3218
 8988SOL    HW242385   1.133   3.978   4.485  2.9289 -1.1471  0.5357
 8989SOL     OW42386   5.613   1.518   2.742  0.1193  0.1299  0.1105
 8989SOL    HW142387   5.607   1.433   2.786  1.2887 -0.0591 -0.0840
 8989SOL    HW242388   5.705   1.542   2.749 -0.2635  1.5325  0.4232
 8990SOL     OW42389   2.066   5.762   8.737  0.2116  0.2182  0.1489
 8990SOL    HW142390   2.112   5.834   8.779 -0.5679  0.8980 -0.1460
 8990SOL    HW242391   2.123   5.736   8.664 -0.1701  1.4765 -0.6041
 8991SOL     OW42392   1.004   1.143   0.690 -0.7078 -0.1744  0.5441
 8991SOL    HW142393   0.911   1.136   0.710 -1.3402  2.7261 -1.0058
 8991SOL    HW242394   1.007   1.191   0.607  2.1096 -2.5657 -0.8142
 8992SOL     OW42395   0.909   1.807  11.411  0.5680  0.9998  0.0357
 8992SOL    HW142396   0.972   1.823  11.341  1.5643  1.0361  0.9259
 8992SOL    HW242397   0.944   1.732  11.459 -2.1754 -1.6109 -1.8716
 8993SOL     OW42398   3.166   1.798   0.679  0.1101 -0.1695 -0.2317
 8993SOL    HW142399   3.136   1.801   0.588  1.0122  0.3139 -0.5099
 8993SOL    HW242400   3.097   1.843   0.729  0.1116  0.4513 -0.7979
 8994SOL     OW42401   1.556   2.827   3.837 -0.2271 -0.0417  0.2716
 8994SOL    HW142402   1.542   2.736   3.813 -2.0040 -0.0789  1.3376
 8994SOL    HW242403   1.643   2.828   3.877 -0.3387 -1.3291  0.5703
 8995SOL     OW42404   5.270   1.583   9.217 -0.5935 -0.3151  0.0121
 8995SOL    HW142405   5.314   1.501   9.199  2.2021  1.0762  0.2667
 8995SOL    HW242406   5.246   1.617   9.130  0.2611 -0.3315 -0.2362
 8996SOL     OW42407   5.582   5.088  12.471  0.2091  0.4023 -0.2215
 8996SOL    HW142408   5.507   5.135  12.435 -0.0164  1.8163  2.0462
 8996SOL    HW242409   5.549   5.000  12.489 -0.4603  0.5507 -0.6985
 8997SOL     OW42410   5.406   0.639   9.225  0.2702  0.2324 -0.6766
 8997SOL    HW142411   5.343   0.710   9.231  0.8340  0.6413  0.6243
 8997SOL    HW242412   5.390   0.587   9.304  0.2789 -0.7377 -1.3067
 8998SOL     OW42413   0.790   1.005   3.588 -0.3423  0.3566  0.6710
 8998SOL    HW142414   0.773   1.009   3.494  1.0660  0.2329  0.3916
 8998SOL    HW242415   0.712   0.963   3.625 -1.9077  2.4604 -0.1452
 8999SOL     OW42416   4.421   2.140  10.251 -0.1084  0.0696  0.2861
 8999SOL    HW142417   4.382   2.077  10.190 -0.0633  0.7107 -0.4191
 8999SOL    HW242418   4.508   2.158  10.214  0.9545 -1.5155  1.9574
 9000SOL     OW42419   2.565   5.163  12.332 -0.0287  0.6413  0.1483
 9000SOL    HW142420   2.542   5.245  12.376  0.6672  0.9602 -0.0699
 9000SOL    HW242421   2.622   5.118  12.395 -0.9407  0.0214  0.5419
 9001SOL     OW42422   5.764   5.681   0.968  0.0979 -0.4144  0.0063
 9001SOL    HW142423   5.698   5.646   0.908  1.0618 -0.1664 -1.2239
 9001SOL    HW242424   5.845   5.680   0.918  0.3664  2.5894  0.2851
 9002SOL     OW42425   5.869   3.908   8.752 -0.1697 -0.8362  0.6933
 9002SOL    HW142426   5.954   3.881   8.717  1.1821  2.5835  1.1234
 9002SOL    HW242427   5.888   3.942   8.839 -1.7880  1.0025  0.3763
 9003SOL     OW42428   5.454   3.584   9.021  0.7702  0.0930 -0.3698
 9003SOL    HW142429   5.465   3.493   9.047  2.4988  0.5562  0.6447
 9003SOL    HW242430   5.418   3.627   9.098 -0.8974  0.1239 -1.1369
 9004SOL     OW42431   2.038   5.582   0.469 -0.3883  0.2066 -0.1709
 9004SOL    HW142432   1.969   5.592   0.403 -0.8069  0.2312  0.2607
 9004SOL    HW242433   1.990   5.573   0.552  0.1125 -0.5353  0.0389
 9005SOL     OW42434   0.254   0.512   9.905 -0.3902 -0.0671  0.1566
 9005SOL    HW142435   0.310   0.436   9.888 -2.2397 -1.3707 -0.2416
 9005SOL    HW242436   0.294   0.553   9.982  1.1660 -0.9010 -0.1675
 9006SOL     OW42437   0.294   3.410   9.952  0.7228  0.1579 -0.0783
 9006SOL    HW142438   0.231   3.343   9.926  0.2845  0.4814  0.1329
 9006SOL    HW242439   0.278   3.483   9.892  0.7138  0.3415  0.1424
 9007SOL     OW42440   1.633   1.723   8.602 -0.6075  0.5333  0.3344
 9007SOL    HW142441   1.718   1.679   8.596 -0.9411 -0.2222  1.0779
 9007SOL    HW242442   1.603   1.730   8.512  0.1983  0.7246  0.0736
 9008SOL     OW42443   1.106   4.672   9.998  0.0926  0.4017 -0.1013
 9008SOL    HW142444   1.200   4.673   9.979  0.4356 -2.1990  1.2802
 9008SOL    HW242445   1.066   4.635   9.919  0.5500 -1.3697  0.4842
 9009SOL     OW42446   3.829   2.375   2.249 -0.0186  0.4233 -0.2229
 9009SOL    HW142447   3.909   2.426   2.238  0.4386 -0.3163 -0.3337
 9009SOL    HW242448   3.850   2.289   2.212 -1.3372  0.6874 -1.6371
 9010SOL     OW42449   0.034   0.132   3.860 -0.0363  0.0220  0.0627
 9010SOL    HW142450   0.056   0.039   3.851  0.1862  0.1034 -0.2343
 9010SOL    HW242451  -0.036   0.147   3.797 -1.5976 -0.4522  1.6481
 9011SOL     OW42452   3.540   2.838   2.377 -0.3155  0.4320 -0.2754
 9011SOL    HW142453   3.612   2.870   2.431  0.3825 -0.2281 -0.8055
 9011SOL    HW242454   3.560   2.869   2.289 -1.2224  1.1304 -0.2466
 9012SOL     OW42455   2.146   4.899   2.006 -0.1248  0.0813  0.2647
 9012SOL    HW142456   2.238   4.925   2.008 -0.0885 -0.1097  2.1480
 9012SOL    HW242457   2.097   4.981   2.009 -0.0167  0.2059 -1.3071
 9013SOL     OW42458   4.048   3.153   3.369 -0.1417 -0.2630 -0.2938
 9013SOL    HW142459   3.997   3.226   3.333  0.4655  0.3622  0.1134
 9013SOL    HW242460   4.134   3.162   3.330  1.0460  1.4154  2.5836
 9014SOL     OW42461   1.084   1.953   2.628 -0.2154  0.2630  0.5015
 9014SOL    HW142462   1.055   1.876   2.677 -0.1124 -1.0836 -1.5141
 9014SOL    HW242463   1.169   1.975   2.666 -1.3694  0.9393  2.7826
 9015SOL     OW42464   4.910   2.965  12.155 -0.0648 -0.2461  0.3624
 9015SOL    HW142465   4.963   2.926  12.086  2.4523 -0.0266  2.1186
 9015SOL    HW242466   4.838   3.008  12.108 -0.3376 -2.9894 -1.8882
 9016SOL     OW42467   3.966   2.476   7.947 -0.1379  0.5404  0.1728
 9016SOL    HW142468   4.032   2.544   7.963  0.3894 -0.0209  0.4033
 9016SOL    HW242469   4.006   2.395   7.980 -0.6186  0.0506 -0.4260
 9017SOL     OW42470   2.285   0.396   0.879  0.0694  0.0296  0.3795
 9017SOL    HW142471   2.297   0.491   0.878 -1.1460  0.1882 -0.5196
 9017SOL    HW242472   2.191   0.384   0.890  0.1275 -1.0643 -0.2730
 9018SOL     OW42473   0.221   0.784   9.054  0.7798  0.2675 -0.0570
 9018SOL    HW142474   0.134   0.822   9.065  0.5785 -0.2992  0.3502
 9018SOL    HW242475   0.241   0.745   9.140  0.5800 -1.3855 -0.7546
 9019SOL     OW42476   1.010   2.700   2.242  0.2271  0.3286  0.8152
 9019SOL    HW142477   1.058   2.628   2.201  0.5118 -0.3587  2.2946
 9019SOL    HW242478   0.985   2.758   2.170  2.5310  0.2455 -0.0927
 9020SOL     OW42479   3.150   1.104   0.600  0.2541 -0.0478 -0.1530
 9020SOL    HW142480   3.128   1.194   0.577  0.5730 -0.4612 -2.1693
 9020SOL    HW242481   3.222   1.081   0.542 -0.4809 -1.9267 -0.3738
 9021SOL     OW42482   0.178   2.431   3.563 -1.2301  0.3713  0.0477
 9021SOL    HW142483   0.239   2.437   3.490  1.3581 -0.6352  2.0108
 9021SOL    HW242484   0.092   2.447   3.525 -0.0524 -0.9418 -3.3159
 9022SOL     OW42485   1.736   1.368   9.569  0.6073 -0.1509 -0.2989
 9022SOL    HW142486   1.765   1.347   9.658  1.5709 -0.2364 -0.6288
 9022SOL    HW242487   1.731   1.283   9.524 -1.9292 -0.3458  0.2623
 9023SOL     OW42488   2.154   4.274   4.079  0.3328 -0.9246 -0.0689
 9023SOL    HW142489   2.174   4.276   4.173 -1.0343  0.0863  0.2168
 9023SOL    HW242490   2.227   4.319   4.038  0.3752 -0.3519  0.6162
 9024SOL     OW42491   1.842   4.961   1.782  0.6434 -0.2040  0.9572
 9024SOL    HW142492   1.918   5.006   1.818  0.0413  1.0158  0.7557
 9024SOL    HW242493   1.862   4.948   1.690  0.1485  1.1756  0.6346
 9025SOL     OW42494   2.630   4.341   8.881 -0.9847  0.3949  0.0277
 9025SOL    HW142495   2.701   4.292   8.923  1.6779  2.3476 -2.0270
 9025SOL    HW242496   2.605   4.406   8.946  0.4913  0.9543  0.0696
 9026SOL     OW42497   5.488   1.810  10.399  0.4573  0.5845  0.4461
 9026SOL    HW142498   5.544   1.842  10.329  0.3686  0.8267  0.4828
 9026SOL    HW242499   5.544   1.753  10.452  0.8670  1.4122  0.9109
 9027SOL     OW42500   1.105   4.154   2.511  0.0676 -0.2136  0.3290
 9027SOL    HW142501   1.084   4.078   2.564  1.7879 -0.0022  1.3397
 9027SOL    HW242502   1.147   4.119   2.433 -0.8173 -0.4048 -0.0692
 9028SOL     OW42503   3.576   1.906   0.764  0.4044 -0.4449  0.4736
 9028SOL    HW142504   3.528   1.830   0.798  1.3325 -1.1197  0.2989
 9028SOL    HW242505   3.530   1.982   0.800 -0.2683 -1.0941  1.0043
 9029SOL     OW42506   0.682   5.697   9.359  0.0534 -0.1690 -0.0874
 9029SOL    HW142507   0.690   5.629   9.427  1.0295 -0.1564 -0.1750
 9029SOL    HW242508   0.625   5.763   9.397 -1.7234 -1.5072 -0.3802
 9030SOL     OW42509   4.608   2.497  10.653  0.2866  0.5257 -0.0580
 9030SOL    HW142510   4.588   2.417  10.703  0.2625 -0.4011 -1.4952
 9030SOL    HW242511   4.599   2.568  10.716  1.0409 -0.6792  1.4452
 9031SOL     OW42512   3.233   1.586  11.929 -0.3114  0.2486 -0.2313
 9031SOL    HW142513   3.206   1.662  11.878 -0.6011 -0.0666 -0.5508
 9031SOL    HW242514   3.211   1.511  11.874 -1.6492 -0.1425  0.8111
 9032SOL     OW42515   0.269   0.581   1.730 -0.2226 -0.1408 -0.7028
 9032SOL    HW142516   0.294   0.661   1.685 -0.1260  0.3321  0.1902
 9032SOL    HW242517   0.264   0.515   1.661 -0.4146  0.6590 -1.4511
 9033SOL     OW42518   2.567   2.001  12.137 -0.1545  0.2133 -0.0165
 9033SOL    HW142519   2.528   2.016  12.224 -0.5492  1.1284 -0.3449
 9033SOL    HW242520   2.507   2.043  12.076  0.3842  0.0073 -0.6961
 9034SOL     OW42521   5.443   2.943   9.242  0.3780 -0.1391  0.0743
 9034SOL    HW142522   5.379   2.896   9.295  1.6490 -1.0249  0.8550
 9034SOL    HW242523   5.522   2.944   9.296 -0.1035  4.4860  0.8261
 9035SOL     OW42524   0.427   5.510   1.158 -0.1454  0.9302  0.0249
 9035SOL    HW142525   0.343   5.547   1.132 -1.5282  0.5486  3.6057
 9035SOL    HW242526   0.421   5.503   1.254  1.6981 -4.4384 -0.0933
 9036SOL     OW42527   3.062   2.168   8.993 -0.1992  0.0087  0.1189
 9036SOL    HW142528   3.035   2.109   8.923 -0.4489  0.0758  0.1566
 9036SOL    HW242529   3.108   2.240   8.949 -1.2895  0.5930 -0.0717
 9037SOL     OW42530   2.220   0.744  11.793 -0.3544  0.2449 -0.4073
 9037SOL    HW142531   2.240   0.674  11.731 -0.7680 -1.0380  0.8826
 9037SOL    HW242532   2.125   0.740  11.804 -0.1529 -0.4248  1.2950
 9038SOL     OW42533   1.051   0.778   9.002 -0.0859  0.0198  1.3449
 9038SOL    HW142534   0.968   0.824   8.994  0.1643  0.0172 -1.5973
 9038SOL    HW242535   1.044   0.703   8.943  2.4692  0.7567 -0.0061
 9039SOL     OW42536   5.835   0.855  12.226  0.1204  0.1521  0.3084
 9039SOL    HW142537   5.807   0.935  12.268  1.9360  0.7440  0.4294
 9039SOL    HW242538   5.765   0.834  12.165  0.2863  2.6407 -0.7993
 9040SOL     OW42539   4.997   3.169   9.374 -0.1467 -0.0029 -0.5637
 9040SOL    HW142540   5.082   3.138   9.405  0.0387 -1.8981 -2.8257
 9040SOL    HW242541   4.944   3.180   9.453  0.7854 -3.1937  0.5509
 9041SOL     OW42542   4.219   3.734  11.504 -0.7083 -0.4565 -0.4006
 9041SOL    HW142543   4.137   3.764  11.466 -0.4696  1.3230  0.4549
 9041SOL    HW242544   4.285   3.792  11.466 -0.3707  0.8440  2.0793
 9042SOL     OW42545   0.662   2.587   1.287 -0.6024  0.0018 -0.3472
 9042SOL    HW142546   0.622   2.674   1.285  1.1327  0.8193 -0.2013
 9042SOL    HW242547   0.702   2.578   1.201  1.4797  0.4487  0.5478
 9043SOL     OW42548   5.136   4.281   1.519  0.2583  0.0959 -0.8325
 9043SOL    HW142549   5.089   4.224   1.581  1.0044 -0.9964 -1.2481
 9043SOL    HW242550   5.166   4.354   1.573  0.5887 -0.6633  0.0338
 9044SOL     OW42551   1.781   0.400  10.386 -0.0361  0.0769 -0.0872
 9044SOL    HW142552   1.803   0.322  10.336  1.1507  1.1047 -1.2025
 9044SOL    HW242553   1.842   0.467  10.355 -1.1015  1.4813  0.7614
 9045SOL     OW42554   4.761   1.664   3.019  0.6600 -0.4676  0.1351
 9045SOL    HW142555   4.839   1.613   3.043  1.9241  0.9621 -0.8229
 9045SOL    HW242556   4.709   1.604   2.966  1.9997 -0.8714 -0.7667
 9046SOL     OW42557   4.146   0.877   7.940  0.0741 -0.2947  0.5399
 9046SOL    HW142558   4.240   0.881   7.956 -0.0724  0.2570  1.2759
 9046SOL    HW242559   4.136   0.901   7.848  0.6343 -0.1419  0.5163
 9047SOL     OW42560   1.313   3.150   8.696  0.2798 -0.3866 -0.2382
 9047SOL    HW142561   1.270   3.179   8.776  1.2982 -1.1304  0.6010
 9047SOL    HW242562   1.247   3.097   8.651 -0.3098  0.0601  0.0973
 9048SOL     OW42563   5.847   1.210  11.955 -0.1334 -0.0761  0.9670
 9048SOL    HW142564   5.872   1.229  11.865 -0.1127 -0.0984  0.9668
 9048SOL    HW242565   5.929   1.209  12.004 -0.1942  0.4876  1.0890
 9049SOL     OW42566   5.076   1.127  11.628  0.3237 -0.8494 -0.1467
 9049SOL    HW142567   5.098   1.061  11.694  0.0932 -0.7087  0.0704
 9049SOL    HW242568   5.155   1.132  11.573  0.5844 -0.8374  0.2241
 9050SOL     OW42569   1.392   1.119  10.841  0.1346 -0.0346 -0.0219
 9050SOL    HW142570   1.466   1.104  10.899  0.3853 -0.3075 -0.4128
 9050SOL    HW242571   1.330   1.170  10.894  0.3076 -0.3859  0.5247
 9051SOL     OW42572   2.799   1.340  12.287 -0.2968  0.0634 -0.2451
 9051SOL    HW142573   2.894   1.333  12.281 -0.3870 -0.0167 -1.9760
 9051SOL    HW242574   2.780   1.427  12.252 -0.8468  0.1686  0.3114
 9052SOL     OW42575   1.451   0.486   2.445  0.4676 -0.2384 -0.3718
 9052SOL    HW142576   1.507   0.555   2.410  0.3000  0.6390  1.0646
 9052SOL    HW242577   1.510   0.414   2.466  0.6331 -0.5871 -1.9609
 9053SOL     OW42578   5.120   4.914  10.039 -0.1717 -0.9792  0.5321
 9053SOL    HW142579   5.076   4.985  10.085  0.4037 -0.3564  0.1341
 9053SOL    HW242580   5.057   4.842  10.040 -0.5421 -0.6425  1.4133
 9054SOL     OW42581   0.789   2.355  10.956  0.0480  0.0050  0.3008
 9054SOL    HW142582   0.863   2.304  10.923 -1.5143 -0.7384 -2.2651
 9054SOL    HW242583   0.719   2.291  10.969 -1.5707  1.2522 -1.8138
 9055SOL     OW42584   3.803   4.067  11.220  0.0100 -0.3745 -0.2843
 9055SOL    HW142585   3.798   4.125  11.145  0.0280  0.1086  0.0802
 9055SOL    HW242586   3.749   4.110  11.287 -0.0342 -0.8141 -0.0367
 9056SOL     OW42587   1.358   1.370   3.599 -0.2450  0.3289  0.3651
 9056SOL    HW142588   1.338   1.418   3.679  1.2102 -0.3387  1.1562
 9056SOL    HW242589   1.358   1.278   3.626 -0.0095  0.0815 -0.4639
 9057SOL     OW42590   0.061   4.773   2.589 -0.2973 -0.1165 -0.0223
 9057SOL    HW142591   0.123   4.792   2.659 -2.5863  1.2979  1.7191
 9057SOL    HW242592   0.021   4.690   2.615  2.2298 -2.1109 -2.2031
 9058SOL     OW42593   1.487   4.417   1.600 -0.3978  0.7221 -0.3112
 9058SOL    HW142594   1.511   4.422   1.692 -0.7049 -1.7230 -0.0722
 9058SOL    HW242595   1.391   4.428   1.599 -0.3052  1.6296 -0.4533
 9059SOL     OW42596   1.761   1.996   9.974  0.2713 -0.6225  0.4834
 9059SOL    HW142597   1.770   2.056  10.049  0.5040  0.1620 -0.1697
 9059SOL    HW242598   1.733   1.913  10.014  1.0583 -0.4060  1.5083
 9060SOL     OW42599   4.301   0.269   3.451 -0.0109  0.5932  0.0119
 9060SOL    HW142600   4.269   0.355   3.425 -1.9812 -0.0230  0.2839
 9060SOL    HW242601   4.317   0.223   3.368 -0.6599  0.6211 -0.1330
 9061SOL     OW42602   5.358   5.083   0.198  0.2324 -0.3153  0.9240
 9061SOL    HW142603   5.391   5.165   0.234 -0.6852  0.0065  1.0563
 9061SOL    HW242604   5.428   5.051   0.141  1.0262  0.0131  1.7062
 9062SOL     OW42605   5.469   2.603   1.447  0.0908 -0.2537 -0.2137
 9062SOL    HW142606   5.382   2.634   1.471  0.1957 -0.5245  0.5096
 9062SOL    HW242607   5.512   2.681   1.411  0.0728  0.2515  0.8477
 9063SOL     OW42608   3.390   4.300   1.784  0.0422  0.2924 -0.8790
 9063SOL    HW142609   3.431   4.216   1.802 -0.6027  0.2698  0.5360
 9063SOL    HW242610   3.428   4.360   1.848  0.5430  1.1052 -1.9177
 9064SOL     OW42611   3.629   1.191  11.358 -0.2167 -0.2069 -0.0332
 9064SOL    HW142612   3.655   1.282  11.372 -0.1983 -0.3352  0.7876
 9064SOL    HW242613   3.567   1.195  11.285 -1.3331  0.6602  0.9309
 9065SOL     OW42614   4.557   0.265  12.476 -0.3385 -0.5492  0.0624
 9065SOL    HW142615   4.486   0.322  12.445 -1.5319 -2.0728 -0.1047
 9065SOL    HW242616   4.633   0.322  12.480 -1.4856  1.0543 -0.1210
 9066SOL     OW42617   5.173   3.739   1.338  0.0461 -0.2823 -0.2742
 9066SOL    HW142618   5.209   3.800   1.273  1.8317  0.9686  1.7953
 9066SOL    HW242619   5.156   3.659   1.288  0.6184  0.8818 -2.4428
 9067SOL     OW42620   3.695   5.570   3.243 -0.1743 -0.3928  0.0296
 9067SOL    HW142621   3.692   5.664   3.226 -0.3324 -0.5551 -0.8637
 9067SOL    HW242622   3.751   5.535   3.173 -1.1960 -1.1357 -0.4311
 9068SOL     OW42623   0.696   1.745   8.240  0.6037  0.2380  0.2172
 9068SOL    HW142624   0.715   1.836   8.264  0.5841 -0.0871  1.4863
 9068SOL    HW242625   0.781   1.706   8.223  0.6622  0.3125  0.3345
 9069SOL     OW42626   4.222   0.749   3.175 -0.0165  0.1252  0.0565
 9069SOL    HW142627   4.281   0.791   3.113  0.5205  0.0864  0.5356
 9069SOL    HW242628   4.271   0.748   3.257 -0.5906 -0.1294  0.3964
 9070SOL     OW42629   5.496   4.564   9.449  0.8355  0.2239  0.1519
 9070SOL    HW142630   5.512   4.536   9.359 -0.5142 -2.8524  0.8024
 9070SOL    HW242631   5.401   4.581   9.453  0.4870 -1.8792  1.5313
 9071SOL     OW42632   0.530   0.254   8.741  0.0049 -0.1980  0.3262
 9071SOL    HW142633   0.471   0.179   8.748 -0.6934  0.2350 -0.7566
 9071SOL    HW242634   0.615   0.222   8.773 -0.6476 -1.0150  1.2546
 9072SOL     OW42635   2.449   4.429   7.623 -0.1046 -0.1327  0.9302
 9072SOL    HW142636   2.541   4.455   7.622  0.0204 -0.5353 -1.3781
 9072SOL    HW242637   2.446   4.350   7.569 -2.0026  0.6251 -0.1165
 9073SOL     OW42638   5.591   2.666  11.135 -0.0473  0.2202 -0.2304
 9073SOL    HW142639   5.629   2.685  11.220 -0.2567  1.2097 -0.3413
 9073SOL    HW242640   5.514   2.613  11.154 -0.9537  1.7045  0.3330
 9074SOL     OW42641   1.390   4.105   0.895 -0.1624 -0.1940  0.3542
 9074SOL    HW142642   1.375   4.012   0.914  0.0347 -0.4966 -0.9302
 9074SOL    HW242643   1.349   4.119   0.810 -1.2916  1.2151  1.1118
 9075SOL     OW42644   1.893   3.540   1.778 -0.4319 -0.0724  0.3075
 9075SOL    HW142645   1.924   3.620   1.736 -1.2673 -0.1983 -0.5723
 9075SOL    HW242646   1.912   3.470   1.715  1.2220 -0.7360  1.4897
 9076SOL     OW42647   4.473   3.698  12.006  0.2990  0.1501 -0.2174
 9076SOL    HW142648   4.464   3.643  12.084  2.9868 -0.7685 -0.5021
 9076SOL    HW242649   4.533   3.768  12.033 -0.7940  1.2992 -0.7287
 9077SOL     OW42650   1.628   5.710   7.980  0.4322 -0.8096 -0.6486
 9077SOL    HW142651   1.638   5.654   7.903 -0.1942 -1.0116 -0.5833
 9077SOL    HW242652   1.669   5.793   7.954  0.7441 -1.0649 -0.9909
 9078SOL     OW42653   5.016   2.288   1.281 -0.3027 -0.0901  0.8464
 9078SOL    HW142654   4.953   2.226   1.319  0.0472  0.2186  1.9385
 9078SOL    HW242655   4.974   2.317   1.199 -1.2460 -0.4504  1.1951
 9079SOL     OW42656   4.989   3.696  11.233  0.0139  0.0086 -0.4717
 9079SOL    HW142657   4.990   3.640  11.311 -1.2647  0.5435 -0.0527
 9079SOL    HW242658   4.965   3.783  11.267 -0.8644  0.1835 -1.5105
 9080SOL     OW42659   3.891   5.291   1.966  0.0302  0.5696  0.8540
 9080SOL    HW142660   3.876   5.368   1.912 -0.7668  0.9231  1.5635
 9080SOL    HW242661   3.923   5.225   1.905  0.0439  1.2475  0.1163
 9081SOL     OW42662   3.341   0.550   9.323  0.5152 -0.4626  0.5838
 9081SOL    HW142663   3.260   0.584   9.361  0.4206  0.5247 -0.5054
 9081SOL    HW242664   3.312   0.490   9.254  0.7015 -1.4514  1.3510
 9082SOL     OW42665   3.160   0.771   0.262  0.6329  0.1241 -0.1271
 9082SOL    HW142666   3.141   0.855   0.220 -0.4381 -0.1611 -0.2404
 9082SOL    HW242667   3.233   0.789   0.322  0.9530  0.9441 -0.7574
 9083SOL     OW42668   5.269   0.596  10.192 -0.3525 -0.7271 -0.0200
 9083SOL    HW142669   5.290   0.647  10.113  1.1611  1.5361  1.7750
 9083SOL    HW242670   5.331   0.524  10.192  0.7234  0.1818 -0.0908
 9084SOL     OW42671   0.575   0.870   3.664  0.1194 -0.0810  0.3214
 9084SOL    HW142672   0.482   0.885   3.677 -0.2666 -1.7926 -0.2895
 9084SOL    HW242673   0.579   0.797   3.602  1.8660  0.3088 -0.0541
 9085SOL     OW42674   5.308   4.507   3.730  0.0481 -0.2140  0.6294
 9085SOL    HW142675   5.326   4.536   3.819 -0.9041  0.8129  0.5030
 9085SOL    HW242676   5.380   4.544   3.678 -0.6369  1.1363  0.6215
 9086SOL     OW42677   1.232   1.945   3.906  0.1768  0.0937  0.2502
 9086SOL    HW142678   1.192   1.944   3.993  0.6441  0.1087  0.4655
 9086SOL    HW242679   1.326   1.935   3.922  0.1151 -1.4788 -0.3513
 9087SOL     OW42680   4.359   1.706   0.530 -0.1097 -0.3469  0.1318
 9087SOL    HW142681   4.421   1.635   0.509 -1.3002 -0.9825 -1.3435
 9087SOL    HW242682   4.398   1.784   0.492  1.1914 -0.1884  1.7230
 9088SOL     OW42683   5.343   5.372  11.302  0.1416  0.1860  0.4412
 9088SOL    HW142684   5.379   5.446  11.351 -0.1518 -0.3629  1.5194
 9088SOL    HW242685   5.360   5.296  11.359 -0.1765 -0.4702 -0.3326
 9089SOL     OW42686   2.441   0.560   9.581  0.1041  0.7184 -0.5435
 9089SOL    HW142687   2.385   0.632   9.608 -0.1664  0.7739 -1.2334
 9089SOL    HW242688   2.384   0.483   9.579  0.3752  0.4955  0.1223
 9090SOL     OW42689   1.327   5.314   0.447 -0.2500 -0.1608 -0.1280
 9090SOL    HW142690   1.419   5.305   0.421 -0.3259 -0.3986 -0.3227
 9090SOL    HW242691   1.308   5.407   0.433  0.0628 -0.0386  0.2582
 9091SOL     OW42692   2.511   0.332   3.105  0.0826  0.1794 -0.6755
 9091SOL    HW142693   2.582   0.273   3.133 -0.1492 -0.4006 -1.2952
 9091SOL    HW242694   2.459   0.279   3.045 -1.6371  0.1620  0.7978
 9092SOL     OW42695   0.312   2.666  11.642 -0.5989  0.1808 -0.3225
 9092SOL    HW142696   0.346   2.677  11.553 -0.7389 -3.4404 -0.8934
 9092SOL    HW242697   0.391   2.664  11.697 -0.4590  1.3082 -0.4532
 9093SOL     OW42698   4.675   1.418   8.682 -0.0507  0.6314 -0.5368
 9093SOL    HW142699   4.764   1.431   8.650 -0.6637  0.8524 -2.1924
 9093SOL    HW242700   4.642   1.344   8.631 -0.4339 -0.2005  0.8769
 9094SOL     OW42701   2.522   1.172  11.542  0.1624  0.0255  0.4133
 9094SOL    HW142702   2.464   1.115  11.491 -0.2127  0.3837  0.4385
 9094SOL    HW242703   2.580   1.111  11.588 -1.0689 -0.3978  1.4390
 9095SOL     OW42704   4.904   0.212   1.678  0.2396  0.0309  0.1307
 9095SOL    HW142705   4.877   0.287   1.624 -0.0993  0.1062  0.4083
 9095SOL    HW242706   4.832   0.199   1.739 -0.8710 -2.1344 -1.5494
 9096SOL     OW42707   5.582   3.835   8.288  0.3670 -0.1410  0.2971
 9096SOL    HW142708   5.582   3.749   8.329 -1.3455 -0.2542  0.0892
 9096SOL    HW242709   5.639   3.888   8.344  0.4088 -1.0590  1.1407
 9097SOL     OW42710   4.166   3.493  10.112 -0.2533  0.1368 -0.1868
 9097SOL    HW142711   4.145   3.409  10.071 -2.4192  0.6554 -0.2259
 9097SOL    HW242712   4.134   3.484  10.202  1.0577  0.3298  0.3117
 9098SOL     OW42713   4.675   2.696   2.353  0.1290 -0.1975  0.2075
 9098SOL    HW142714   4.580   2.711   2.355 -0.1146 -1.8395  2.4269
 9098SOL    HW242715   4.697   2.669   2.442  2.6798  0.0049 -0.3218
 9099SOL     OW42716   4.148   1.697   2.124 -0.8845 -0.1517 -0.8757
 9099SOL    HW142717   4.137   1.699   2.219 -2.0812  1.0012 -1.0195
 9099SOL    HW242718   4.065   1.730   2.090  0.1403  1.0910 -2.2613
 9100SOL     OW42719   0.195   3.269   9.374  0.3695 -0.2445 -0.3050
 9100SOL    HW142720   0.197   3.180   9.407  1.1340  0.4923  1.6889
 9100SOL    HW242721   0.278   3.279   9.326  0.5011 -0.4483 -0.1195
 9101SOL     OW42722   3.387   3.933  11.619  0.4223  0.3916 -0.6753
 9101SOL    HW142723   3.394   3.932  11.523  1.2807  1.2648 -0.6394
 9101SOL    HW242724   3.461   3.879  11.648  0.3638  0.4049 -0.5040
 9102SOL     OW42725   4.963   3.382   9.856  0.0631  0.1699 -0.5471
 9102SOL    HW142726   5.023   3.378   9.782 -0.7683  0.7176 -1.2607
 9102SOL    HW242727   4.958   3.292   9.888  3.1796  0.5248  1.0812
 9103SOL     OW42728   5.660   4.970   0.383  0.4574  0.1424  0.2388
 9103SOL    HW142729   5.654   4.874   0.379  2.0541 -0.0893  2.3775
 9103SOL    HW242730   5.717   4.993   0.310 -2.8377 -0.1539 -2.5612
 9104SOL     OW42731   2.938   3.892   1.546  0.2977 -0.0509  0.0694
 9104SOL    HW142732   3.004   3.898   1.616  2.3462  0.1924 -1.8014
 9104SOL    HW242733   2.889   3.974   1.552  0.9871  0.3157  0.7340
 9105SOL     OW42734   1.205   2.987  11.391  0.1590  0.0508 -0.1729
 9105SOL    HW142735   1.251   3.071  11.386 -1.0381  0.7471  0.2542
 9105SOL    HW242736   1.205   2.965  11.484 -1.8726  0.9282  0.0637
 9106SOL     OW42737   2.413   5.300   9.450 -0.1675  0.2008  0.3593
 9106SOL    HW142738   2.422   5.319   9.357 -1.7020 -0.4709  0.0684
 9106SOL    HW242739   2.476   5.229   9.466 -0.3901 -0.1590 -0.3182
 9107SOL     OW42740   0.403   3.319   8.841 -0.4199 -0.3006 -0.0643
 9107SOL    HW142741   0.490   3.322   8.881 -0.8617  0.4398  0.8787
 9107SOL    HW242742   0.409   3.251   8.774  0.6480 -0.8073  0.5368
 9108SOL     OW42743   2.599   5.536   8.485 -0.4212  0.2249  0.4453
 9108SOL    HW142744   2.531   5.555   8.421 -1.9123  0.1450  1.9838
 9108SOL    HW242745   2.606   5.440   8.485  0.9572  0.2969 -0.9773
 9109SOL     OW42746   0.488   2.619  10.291  0.2688 -0.4183 -0.4048
 9109SOL    HW142747   0.404   2.585  10.259  1.0133 -0.8968 -1.8849
 9109SOL    HW242748   0.542   2.628  10.213  0.7529  2.3724  0.2120
 9110SOL     OW42749   3.158   3.224   0.864  0.5749 -0.6662 -0.3703
 9110SOL    HW142750   3.216   3.297   0.882 -1.5309  0.7731  0.7492
 9110SOL    HW242751   3.182   3.196   0.775  2.4437  0.3521 -0.2143
 9111SOL     OW42752   1.149   3.297   8.894 -0.2439 -0.2239 -0.1307
 9111SOL    HW142753   1.143   3.377   8.840 -2.8771 -0.5672 -0.4212
 9111SOL    HW242754   1.064   3.291   8.937  1.7887  0.0540  4.1891
 9112SOL     OW42755   2.924   1.685   7.805 -0.2613  0.3033 -0.1115
 9112SOL    HW142756   2.829   1.695   7.809 -0.1929  1.9918 -1.8342
 9112SOL    HW242757   2.958   1.761   7.852  0.2310  0.4725 -0.7282
 9113SOL     OW42758   5.914   5.428   3.357  0.7423  0.6238 -0.4272
 9113SOL    HW142759   5.991   5.402   3.406  0.9778  0.8050 -0.6962
 9113SOL    HW242760   5.885   5.348   3.313 -0.2435  0.1517  1.0345
 9114SOL     OW42761   0.968   4.212   9.603 -0.1466 -0.2898  0.1257
 9114SOL    HW142762   1.027   4.220   9.528 -0.4661 -1.9302 -0.3333
 9114SOL    HW242763   1.026   4.205   9.678  0.2524 -1.4958 -0.2815
 9115SOL     OW42764   5.712   4.749   2.997 -0.2683 -0.1775  0.1824
 9115SOL    HW142765   5.754   4.685   2.940 -0.6292 -1.7816  1.6614
 9115SOL    HW242766   5.778   4.817   3.009  0.8577 -1.2369  0.1422
 9116SOL     OW42767   0.057   1.589   9.743  0.3077  0.0585 -0.7112
 9116SOL    HW142768   0.113   1.638   9.803 -0.2612 -0.3026  0.1403
 9116SOL    HW242769   0.022   1.655   9.683  1.5863  0.2893 -1.2053
 9117SOL     OW42770   5.499   2.906   0.362  0.0590  0.2543 -0.2851
 9117SOL    HW142771   5.555   2.961   0.418 -0.6832 -1.4298  2.1859
 9117SOL    HW242772   5.557   2.837   0.331 -0.0938 -0.1199  0.2751
 9118SOL     OW42773   3.687   0.403   7.507 -0.2503 -0.3629  0.1791
 9118SOL    HW142774   3.701   0.490   7.545 -0.3622  0.0395 -0.6747
 9118SOL    HW242775   3.592   0.390   7.510 -0.3415  0.0387 -0.7410
 9119SOL     OW42776   4.483   5.624   9.427 -0.3832  0.0375  0.3598
 9119SOL    HW142777   4.532   5.664   9.356  0.7972  1.2133  1.7826
 9119SOL    HW242778   4.448   5.543   9.391  0.8335  0.2413 -1.3099
 9120SOL     OW42779   5.145   2.339   9.068  0.8523 -0.0340  0.1578
 9120SOL    HW142780   5.200   2.413   9.093  0.7811 -0.2914  1.1024
 9120SOL    HW242781   5.132   2.291   9.150 -0.1923 -0.3621 -0.1997
 9121SOL     OW42782   5.633   1.071  12.043  0.0852  0.0439  0.2909
 9121SOL    HW142783   5.712   1.113  12.011 -0.8442  1.7636  0.1765
 9121SOL    HW242784   5.562   1.127  12.010 -1.1887 -1.6526  0.0897
 9122SOL     OW42785   0.910   0.610   3.066  0.3158  0.1548  0.6280
 9122SOL    HW142786   0.842   0.657   3.019 -0.3400 -0.9907  0.4021
 9122SOL    HW242787   0.863   0.563   3.135  0.9953  0.0768  1.0441
 9123SOL     OW42788   0.431   4.569   8.035  0.0026 -0.1331 -0.1519
 9123SOL    HW142789   0.351   4.578   7.983 -1.0286 -0.6845  1.3108
 9123SOL    HW242790   0.412   4.614   8.117  0.7375 -1.3499  0.7056
 9124SOL     OW42791   5.902   1.779   3.437  0.0659 -0.2957 -0.4734
 9124SOL    HW142792   5.845   1.750   3.508 -2.1449 -0.4585 -2.2429
 9124SOL    HW242793   5.990   1.775   3.473 -0.7925 -2.6950  1.4844
 9125SOL     OW42794   1.086   2.745   9.609  0.3648  0.6964  0.0596
 9125SOL    HW142795   1.167   2.738   9.560  1.9895 -1.6944  2.9006
 9125SOL    HW242796   1.023   2.691   9.560  1.9512 -1.6185  0.4646
 9126SOL     OW42797   1.066   3.907   2.627  0.0412  0.7317 -0.0231
 9126SOL    HW142798   1.103   3.931   2.712  0.3713 -2.6635  0.8785
 9126SOL    HW242799   0.974   3.886   2.647 -0.8624  3.3565 -1.1883
 9127SOL     OW42800   5.861   0.781   8.703 -0.1805  0.4575 -0.3571
 9127SOL    HW142801   5.918   0.775   8.626 -0.9167 -1.1124 -0.7949
 9127SOL    HW242802   5.836   0.873   8.707 -0.9941  0.3596 -2.6244
 9128SOL     OW42803   2.482   3.358   8.958 -0.2279 -0.1379  0.1548
 9128SOL    HW142804   2.427   3.307   8.899 -0.3138  0.6261 -0.4514
 9128SOL    HW242805   2.435   3.360   9.041 -0.9224  0.1735 -0.2410
 9129SOL     OW42806   1.296   4.535   1.883 -0.1874  0.9805 -0.1232
 9129SOL    HW142807   1.224   4.570   1.832 -1.7077 -0.8286  0.7342
 9129SOL    HW242808   1.293   4.583   1.966 -0.4715  0.8096 -0.0358
 9130SOL     OW42809   0.623   2.529  12.491  0.4985  0.5917 -0.3042
 9130SOL    HW142810   0.580   2.568  12.415 -0.0268  0.7321  0.0611
 9130SOL    HW242811   0.572   2.450  12.509 -0.3881  1.4189  0.9055
 9131SOL     OW42812   5.039   0.314  10.071  0.5732 -0.4856  0.6487
 9131SOL    HW142813   4.972   0.382  10.066  0.2213 -0.6509  2.4690
 9131SOL    HW242814   5.016   0.251  10.003 -1.5751 -0.9167  1.7285
 9132SOL     OW42815   5.097   1.912  11.035  0.8541  0.5989  0.0628
 9132SOL    HW142816   5.030   1.923  10.967 -0.8448 -1.7457  1.2619
 9132SOL    HW242817   5.065   1.964  11.109 -0.0252 -1.0467  0.8677
 9133SOL     OW42818   4.130   3.772   1.888  0.4240 -0.8205  0.3859
 9133SOL    HW142819   4.158   3.839   1.949 -1.6200 -0.3332  0.8137
 9133SOL    HW242820   4.133   3.815   1.802 -0.9288 -0.1713  0.6642
 9134SOL     OW42821   0.815   3.120   1.419 -0.1616  0.3236  0.7050
 9134SOL    HW142822   0.742   3.058   1.426  0.5184 -0.2946  3.0525
 9134SOL    HW242823   0.872   3.082   1.352 -1.9630  0.7946 -1.1226
 9135SOL     OW42824   3.210   3.084   1.429  0.0022 -0.8170 -0.0232
 9135SOL    HW142825   3.125   3.069   1.388  0.7422  1.1620 -2.4170
 9135SOL    HW242826   3.213   3.178   1.445  1.7690 -0.8510 -0.0352
 9136SOL     OW42827   3.206   1.405   8.646 -0.2002 -0.0927  0.5224
 9136SOL    HW142828   3.139   1.458   8.689 -0.0899  0.3860  0.1079
 9136SOL    HW242829   3.288   1.430   8.690  0.0006  0.8267 -0.3451
 9137SOL     OW42830   2.216   2.412  12.049  0.2854  0.0119 -0.2924
 9137SOL    HW142831   2.121   2.419  12.041  0.2434  2.2808  1.5385
 9137SOL    HW242832   2.248   2.498  12.022  1.7893 -0.5584 -0.3667
 9138SOL     OW42833   3.911   1.128   9.388 -0.0360 -0.4157  0.0685
 9138SOL    HW142834   3.927   1.111   9.296 -1.9057 -0.4520 -0.2761
 9138SOL    HW242835   3.854   1.057   9.416  1.7841 -1.2860  1.6770
 9139SOL     OW42836   2.551   0.252   8.608  0.4458 -0.8527 -0.0378
 9139SOL    HW142837   2.525   0.223   8.520  3.4074  0.7561 -1.5288
 9139SOL    HW242838   2.527   0.180   8.665 -0.8412 -2.2712 -2.2718
 9140SOL     OW42839   5.047   2.935  11.686  0.4865 -0.0407 -0.5272
 9140SOL    HW142840   5.139   2.912  11.705  0.1241  0.5072  2.1800
 9140SOL    HW242841   5.045   3.030  11.694 -0.4067 -0.0915 -0.1159
 9141SOL     OW42842   2.180   3.223   0.310  0.3931  0.1441 -0.6783
 9141SOL    HW142843   2.114   3.286   0.336  0.2318  0.3344 -1.5546
 9141SOL    HW242844   2.229   3.205   0.391 -0.8023 -0.1056  0.0046
 9142SOL     OW42845   0.108   4.300   9.264 -0.1345  0.1679 -0.6731
 9142SOL    HW142846   0.159   4.245   9.324 -0.1706  1.5199  0.6179
 9142SOL    HW242847   0.125   4.262   9.177  3.3320  0.7669 -0.3317
 9143SOL     OW42848   5.020   1.378  12.295 -0.6941  0.1493  0.6778
 9143SOL    HW142849   4.943   1.365  12.240 -0.1249  0.2763 -0.1605
 9143SOL    HW242850   5.009   1.316  12.367 -1.4497 -0.0075  0.4381
 9144SOL     OW42851   4.757   3.366   0.439  0.2724 -0.0422 -0.3494
 9144SOL    HW142852   4.818   3.304   0.480  1.8163  0.6262 -1.5991
 9144SOL    HW242853   4.732   3.324   0.357 -1.3236 -0.5052  0.3478
 9145SOL     OW42854   3.038   0.954   8.028 -0.6954 -0.5462 -0.3892
 9145SOL    HW142855   2.974   0.998   7.972  1.1619  3.7206  0.5923
 9145SOL    HW242856   2.998   0.953   8.115 -0.6051 -0.4683 -0.3453
 9146SOL     OW42857   5.851   0.927   0.365  0.0302 -0.6862  0.7250
 9146SOL    HW142858   5.942   0.915   0.391  1.4750  3.4173 -1.9528
 9146SOL    HW242859   5.853   0.924   0.269 -2.7280 -0.9918  0.6371
 9147SOL     OW42860   5.414   4.778   8.532  0.3124 -0.7662 -0.5325
 9147SOL    HW142861   5.477   4.753   8.600  0.6544 -0.4805 -0.7380
 9147SOL    HW242862   5.466   4.830   8.470 -0.1585 -0.4136 -0.6334
 9148SOL     OW42863   5.759   0.897   4.004 -0.1690 -0.3416  0.0582
 9148SOL    HW142864   5.812   0.884   4.083 -0.9764 -0.9940  0.5031
 9148SOL    HW242865   5.670   0.911   4.037 -0.7899 -2.1442 -0.7641
 9149SOL     OW42866   5.211   4.637   9.479  0.1790 -0.2042 -0.2211
 9149SOL    HW142867   5.241   4.728   9.478  0.1784 -0.2022 -0.0690
 9149SOL    HW242868   5.128   4.639   9.431  0.8369 -0.3532 -1.3991
 9150SOL     OW42869   1.434   3.228  11.654  0.0856  0.0631  0.3658
 9150SOL    HW142870   1.445   3.229  11.749  0.4659  1.3190  0.3062
 9150SOL    HW242871   1.521   3.247  11.619 -0.7095  2.9243 -0.1762
 9151SOL     OW42872   0.984   2.258   2.390 -0.1117 -0.0781  0.1117
 9151SOL    HW142873   0.958   2.350   2.387  2.6953  0.7074 -1.5138
 9151SOL    HW242874   1.008   2.242   2.481 -1.2496  0.5997  0.5346
 9152SOL     OW42875   2.589   2.417  12.005  0.3414 -0.1500  0.4045
 9152SOL    HW142876   2.674   2.461  12.007  0.2282  0.0404  1.4827
 9152SOL    HW242877   2.594   2.359  11.928  1.9364 -1.1125  1.1835
 9153SOL     OW42878   2.487   3.691  10.797 -0.1317  0.0081  0.3881
 9153SOL    HW142879   2.507   3.725  10.884  1.9149  0.5026 -0.2297
 9153SOL    HW242880   2.491   3.596  10.806 -1.2039  0.0222  1.1009
 9154SOL     OW42881   0.859   3.972   4.230 -0.2087 -0.4249 -0.0459
 9154SOL    HW142882   0.841   3.971   4.324 -0.5516 -0.6272 -0.1103
 9154SOL    HW242883   0.817   4.053   4.199 -0.9349 -0.8441 -0.1812
 9155SOL     OW42884   5.641   4.114   8.799 -0.0919  0.0614  0.1872
 9155SOL    HW142885   5.582   4.039   8.804 -0.7190  0.4517 -1.1276
 9155SOL    HW242886   5.721   4.080   8.758 -1.0143  0.4704 -2.0169
 9156SOL     OW42887   0.369   1.559   2.654  0.6787 -0.2834 -0.3212
 9156SOL    HW142888   0.303   1.522   2.597  0.7791 -0.1959 -0.4974
 9156SOL    HW242889   0.327   1.636   2.693  0.4413 -0.6375  0.1120
 9157SOL     OW42890   0.435   5.107   2.886 -0.1185  0.1313 -0.4539
 9157SOL    HW142891   0.490   5.091   2.810  0.5409 -0.0369  0.0562
 9157SOL    HW242892   0.493   5.096   2.961 -0.9228 -0.3569  0.1034
 9158SOL     OW42893   2.519   0.310   8.224 -0.1732 -0.0795 -0.4014
 9158SOL    HW142894   2.424   0.307   8.209 -0.4026 -0.5078  1.0484
 9158SOL    HW242895   2.553   0.361   8.151 -1.3853 -0.9072 -1.5598
 9159SOL     OW42896   2.040   2.264   3.032  0.2888 -0.1273  0.2496
 9159SOL    HW142897   2.123   2.248   3.079  0.7746 -3.6157 -1.6304
 9159SOL    HW242898   1.975   2.274   3.102  1.9146  0.5043  1.7260
 9160SOL     OW42899   5.327   5.022  10.702  0.3122  0.4049  0.6317
 9160SOL    HW142900   5.307   5.108  10.739  0.1688  0.4946  0.3480
 9160SOL    HW242901   5.243   4.991  10.667  0.2134 -0.1354  1.3252
 9161SOL     OW42902   0.302   5.725   3.201 -0.2391 -0.2575  0.3382
 9161SOL    HW142903   0.255   5.644   3.180  0.3165 -0.6716  0.6709
 9161SOL    HW242904   0.252   5.794   3.157 -1.1095 -0.7010  0.6245
 9162SOL     OW42905   2.495   1.048   8.073  0.0842  0.0940  0.0945
 9162SOL    HW142906   2.531   1.100   8.001 -0.0842 -0.4971 -0.4206
 9162SOL    HW242907   2.479   0.962   8.034  1.5231 -0.7236  1.2551
 9163SOL     OW42908   4.038   4.048   2.886 -0.1355  0.7282  0.0272
 9163SOL    HW142909   4.132   4.062   2.873 -0.0208  0.4928  0.5360
 9163SOL    HW242910   4.027   4.052   2.981 -0.4685 -0.2749  0.0405
 9164SOL     OW42911   2.146   2.214   1.914  0.6525 -0.1289  0.2996
 9164SOL    HW142912   2.174   2.129   1.948 -0.1282 -0.5497 -0.0764
 9164SOL    HW242913   2.181   2.217   1.825  0.7348 -0.0282  0.3350
 9165SOL     OW42914   5.709   1.195   2.114 -0.0050 -0.6001 -0.1667
 9165SOL    HW142915   5.615   1.185   2.099  0.1832 -0.5898 -1.4081
 9165SOL    HW242916   5.716   1.210   2.208 -1.2665 -0.3706 -0.0914
 9166SOL     OW42917   4.305   3.936  12.460 -1.0765  0.2314  0.3755
 9166SOL    HW142918   4.336   3.932  12.550  0.5606 -1.4569 -0.2461
 9166SOL    HW242919   4.255   4.018  12.456  1.0876  1.6725  2.0918
 9167SOL     OW42920   5.124   3.626   3.453 -0.4252 -0.5368  0.1422
 9167SOL    HW142921   5.195   3.562   3.447 -1.7156 -1.9873 -0.0669
 9167SOL    HW242922   5.161   3.699   3.504  0.3760 -2.4299  2.3641
 9168SOL     OW42923   2.802   5.843  12.288  0.1776 -0.0628 -0.3611
 9168SOL    HW142924   2.894   5.825  12.308 -0.1681  1.7325  3.1838
 9168SOL    HW242925   2.774   5.767  12.236  3.1326 -1.5692  0.1188
 9169SOL     OW42926   0.971   1.906  12.422 -0.1639  0.4094  0.2413
 9169SOL    HW142927   0.908   1.853  12.373 -0.7305  1.3615 -0.0782
 9169SOL    HW242928   0.926   1.926  12.505 -1.0687  2.6581 -0.7338
 9170SOL     OW42929   4.743   1.663  12.313 -0.1101  0.2657 -0.1275
 9170SOL    HW142930   4.767   1.578  12.275 -1.1947 -0.1854  0.1730
 9170SOL    HW242931   4.814   1.682  12.375 -0.4941 -1.0325  0.7418
 9171SOL     OW42932   3.140   3.044  10.378 -0.4565 -0.2742  0.1954
 9171SOL    HW142933   3.136   3.134  10.346 -2.7285 -0.5785 -0.5178
 9171SOL    HW242934   3.062   3.002  10.340 -0.9879 -1.7592  2.8002
 9172SOL     OW42935   1.980   4.799   3.509 -0.3432 -0.0672  1.0417
 9172SOL    HW142936   2.019   4.862   3.570  0.1254  0.6939 -0.0062
 9172SOL    HW242937   1.950   4.727   3.564  0.6814  0.2906  2.0975
 9173SOL     OW42938   3.271   3.556   4.035  0.1583  0.0378 -0.1520
 9173SOL    HW142939   3.216   3.498   3.982  0.5806 -1.0589  0.5965
 9173SOL    HW242940   3.356   3.555   3.991  0.0600  0.4071 -0.3570
 9174SOL     OW42941   2.737   5.227   2.682 -0.4198 -0.0469 -0.1602
 9174SOL    HW142942   2.808   5.291   2.694 -0.5553 -0.1901  1.6188
 9174SOL    HW242943   2.692   5.226   2.767 -2.2015 -0.3851 -1.0995
 9175SOL     OW42944   2.530   1.259  10.979  0.5797 -0.3762  0.1765
 9175SOL    HW142945   2.442   1.264  10.941  0.2142  1.1262  1.1725
 9175SOL    HW242946   2.573   1.341  10.952  1.9383 -1.4291 -0.9161
 9176SOL     OW42947   4.693   2.491   3.686  0.1159 -0.2490  0.2337
 9176SOL    HW142948   4.687   2.575   3.731 -0.1762 -0.8334  1.3017
 9176SOL    HW242949   4.784   2.486   3.657  0.4017 -0.0159  1.0677
 9177SOL     OW42950   5.817   2.890   2.400 -0.1678 -0.0047 -0.6379
 9177SOL    HW142951   5.887   2.932   2.350  0.3210 -2.3666 -2.0245
 9177SOL    HW242952   5.857   2.869   2.484  0.0023  0.9451 -0.4652
 9178SOL     OW42953   1.027   5.800   2.142  0.2510 -0.3579 -0.0535
 9178SOL    HW142954   1.120   5.782   2.131  0.2364 -1.3614  1.3543
 9178SOL    HW242955   0.985   5.755   2.068  1.0295  1.7670 -1.8379
 9179SOL     OW42956   5.368   2.890  10.546  0.0467 -0.9719 -0.1531
 9179SOL    HW142957   5.403   2.840  10.619  1.6161 -0.4644 -0.5461
 9179SOL    HW242958   5.317   2.960  10.587  2.1215  0.1832  0.5143
 9180SOL     OW42959   1.281   4.521  12.126  0.1412  0.0069 -0.7525
 9180SOL    HW142960   1.327   4.551  12.048  2.8041 -1.3908  0.2310
 9180SOL    HW242961   1.322   4.569  12.198 -1.4622  0.3922 -0.0871
 9181SOL     OW42962   0.905   3.228   9.005  0.1434 -0.3609 -0.2547
 9181SOL    HW142963   0.876   3.193   9.089  1.3416 -0.8753 -0.0453
 9181SOL    HW242964   0.873   3.165   8.940 -0.9796  0.1538 -0.2271
 9182SOL     OW42965   5.573  -0.015   3.367 -0.4158 -0.6454 -0.2937
 9182SOL    HW142966   5.533   0.008   3.451 -0.9429 -2.0962 -0.1420
 9182SOL    HW242967   5.556   0.061   3.311 -2.0729 -0.6024  0.2245
 9183SOL     OW42968   3.677   3.849  11.127  0.2722 -0.7560  0.5315
 9183SOL    HW142969   3.722   3.780  11.175  3.8975  0.7360 -0.5667
 9183SOL    HW242970   3.702   3.929  11.173  0.1717  0.2603 -1.1526
 9184SOL     OW42971   0.161   5.373   1.655 -0.0790 -0.1518 -0.0131
 9184SOL    HW142972   0.097   5.431   1.697 -2.3196 -1.1126 -1.9750
 9184SOL    HW242973   0.195   5.424   1.582  0.1122 -0.2574  0.0013
 9185SOL     OW42974   4.467   3.259   1.352  0.5952  0.6750 -0.1272
 9185SOL    HW142975   4.421   3.176   1.352  2.0143 -0.1473  1.2011
 9185SOL    HW242976   4.457   3.293   1.263 -2.2442  0.3810  0.0543
 9186SOL     OW42977   2.086   1.637   9.870 -0.4956 -0.1670  0.6640
 9186SOL    HW142978   2.132   1.608   9.792 -0.0776  0.9242  0.5025
 9186SOL    HW242979   1.993   1.628   9.848 -0.3776 -0.3531  0.2372
 9187SOL     OW42980   3.637   0.061   0.102  0.1422 -0.2112  0.0593
 9187SOL    HW142981   3.587  -0.005   0.151 -0.2138 -0.8255 -1.1105
 9187SOL    HW242982   3.575   0.132   0.088  0.3121  0.0688  0.6878
 9188SOL     OW42983   3.356   2.356   0.351 -0.3186 -0.2872  0.1781
 9188SOL    HW142984   3.292   2.306   0.403 -1.4904  1.8287  0.8489
 9188SOL    HW242985   3.440   2.334   0.391 -0.8769 -1.1276  0.9482
 9189SOL     OW42986   0.064   2.662   4.204  0.5024  0.1650  0.5815
 9189SOL    HW142987   0.159   2.670   4.214  0.8161 -1.4271 -0.8415
 9189SOL    HW242988   0.037   2.745   4.166  1.3657  0.5534  0.8032
 9190SOL     OW42989   3.282   3.107   0.606 -0.0313  0.0789 -0.0614
 9190SOL    HW142990   3.240   3.109   0.520  0.1496  1.3638 -0.1347
 9190SOL    HW242991   3.375   3.106   0.587  0.0043 -0.2417  0.1215
 9191SOL     OW42992   0.088   5.127   2.367 -0.6333  0.2248 -0.0270
 9191SOL    HW142993   0.181   5.126   2.391 -0.6740 -0.0612  0.1283
 9191SOL    HW242994   0.051   5.201   2.415 -0.3156  0.8512 -0.7370
 9192SOL     OW42995   5.385   1.530   9.657 -0.2728 -0.3108  0.1438
 9192SOL    HW142996   5.365   1.595   9.590  1.2580 -0.1561 -0.1936
 9192SOL    HW242997   5.412   1.581   9.733 -0.2410 -0.5207  0.2746
 9193SOL     OW42998   2.253   0.425   9.024  0.1725  0.5680 -0.5243
 9193SOL    HW142999   2.281   0.472   9.103 -2.8346  0.2592  0.8216
 9193SOL    HW243000   2.284   0.335   9.037  1.1785  0.9127 -0.5137
 9194SOL     OW43001   1.194   0.435   3.915 -0.8818 -0.0244 -0.4482
 9194SOL    HW143002   1.282   0.457   3.944 -0.6599  0.5759 -1.5398
 9194SOL    HW243003   1.138   0.456   3.989  0.0182 -1.6013  0.7189
 9195SOL     OW43004   1.739   0.237   9.415  0.3586 -0.0205 -0.6240
 9195SOL    HW143005   1.725   0.307   9.352 -0.7003 -0.2005 -0.6097
 9195SOL    HW243006   1.652   0.201   9.430  0.8656 -1.1929 -0.4584
 9196SOL     OW43007   1.252   5.298  10.966  0.5509 -0.0954 -0.0780
 9196SOL    HW143008   1.285   5.261  11.048  1.4336  0.1937 -0.3007
 9196SOL    HW243009   1.310   5.263  10.898  0.2660  0.2362 -0.4996
 9197SOL     OW43010   3.765   3.612   9.588  0.1929 -0.2227  0.7064
 9197SOL    HW143011   3.813   3.694   9.573  0.3144 -0.2091  1.1632
 9197SOL    HW243012   3.674   3.639   9.596  0.1377 -0.2158  0.1275
 9198SOL     OW43013   0.653   5.328   2.653 -0.2083 -0.3547 -0.0537
 9198SOL    HW143014   0.658   5.233   2.644  0.8872 -0.5045  1.7878
 9198SOL    HW243015   0.739   5.359   2.625 -0.5446  0.1006 -0.6021
 9199SOL     OW43016   4.283   0.306   8.358  0.4456  0.1909 -0.2373
 9199SOL    HW143017   4.253   0.360   8.285 -1.5917 -0.0434  0.3925
 9199SOL    HW243018   4.262   0.216   8.331 -0.2310  0.0984  0.6044
 9200SOL     OW43019   0.919   5.734   3.589  0.1392 -0.3020 -0.0771
 9200SOL    HW143020   0.985   5.743   3.658  1.7871 -1.8838 -1.3704
 9200SOL    HW243021   0.935   5.808   3.531 -1.6878  1.4120  1.5437
 9201SOL     OW43022   0.669   0.626   9.120  0.5388  0.2836 -0.0901
 9201SOL    HW143023   0.630   0.696   9.067 -0.2709  0.9390  1.3624
 9201SOL    HW243024   0.715   0.671   9.190  1.4062 -0.6009 -0.0674
 9202SOL     OW43025   3.673   4.500  11.367  0.2528  0.4417 -0.0736
 9202SOL    HW143026   3.722   4.471  11.443  0.5135 -0.8421 -0.7195
 9202SOL    HW243027   3.601   4.437  11.359  0.9239 -0.1658 -1.5923
 9203SOL     OW43028   5.234   4.693  12.185 -0.3140 -0.2897 -0.2733
 9203SOL    HW143029   5.323   4.727  12.196 -0.4783  0.6715 -1.8074
 9203SOL    HW243030   5.235   4.652  12.099 -0.7900 -2.1321  0.5775
 9204SOL     OW43031   4.973   4.541  11.322 -0.3675 -0.5033 -0.5173
 9204SOL    HW143032   4.961   4.502  11.409 -0.0156  0.2173 -0.1378
 9204SOL    HW243033   5.024   4.620  11.338 -1.5169  0.3910 -1.2262
 9205SOL     OW43034   0.922   2.238   0.735  0.0979  0.3293  0.4408
 9205SOL    HW143035   0.826   2.241   0.734  0.1144  0.6635 -0.5394
 9205SOL    HW243036   0.943   2.159   0.786 -0.6857  0.6053  1.1985
 9206SOL     OW43037   5.321   4.313   8.284  0.4114  0.5037  0.0667
 9206SOL    HW143038   5.296   4.370   8.211 -1.3630  1.3005  1.2694
 9206SOL    HW243039   5.249   4.321   8.347  1.8017 -0.3527  1.8064
 9207SOL     OW43040   3.901   5.679   8.498  0.3283  0.1810 -0.6583
 9207SOL    HW143041   3.952   5.615   8.448  2.7118  1.4410  0.0834
 9207SOL    HW243042   3.813   5.673   8.461  0.5798 -3.1979 -0.8954
 9208SOL     OW43043   1.785   4.809   1.259  0.5704  0.2047  0.5697
 9208SOL    HW143044   1.698   4.841   1.283  0.9896  1.4507  0.4654
 9208SOL    HW243045   1.768   4.742   1.193 -0.2225  1.6745 -0.7370
 9209SOL     OW43046   1.596   1.492   8.386 -0.2940 -0.2466  0.1436
 9209SOL    HW143047   1.553   1.573   8.361 -0.2394  0.1949  1.4414
 9209SOL    HW243048   1.586   1.435   8.310 -0.1220  1.0467 -0.8697
 9210SOL     OW43049   3.155   0.518   0.138  0.7808  0.2332  0.5464
 9210SOL    HW143050   3.130   0.595   0.190  1.5846 -0.0612  1.3807
 9210SOL    HW243051   3.130   0.443   0.192 -0.2139 -0.1025 -0.3669
 9211SOL     OW43052   1.165   1.150  12.341 -0.3865  0.3658 -0.3699
 9211SOL    HW143053   1.157   1.060  12.307  1.3256  0.0095  0.1541
 9211SOL    HW243054   1.258   1.160  12.361 -0.6096  2.1925 -0.2089
 9212SOL     OW43055   4.267   5.195   1.821  0.2747 -0.1147 -0.1346
 9212SOL    HW143056   4.272   5.259   1.892  2.9491 -1.3117  0.7890
 9212SOL    HW243057   4.180   5.156   1.830 -0.6935  2.0692  0.4000
 9213SOL     OW43058   5.539   5.235   1.521  0.1923  0.0279  0.4232
 9213SOL    HW143059   5.559   5.214   1.430 -0.6428  1.8883 -0.2171
 9213SOL    HW243060   5.568   5.325   1.532 -2.8535  0.9874  0.9901
 9214SOL     OW43061   1.417   5.550   1.288  0.7804 -0.9955 -0.3114
 9214SOL    HW143062   1.375   5.530   1.205  1.1225 -0.0139 -0.7234
 9214SOL    HW243063   1.350   5.532   1.354  0.4940 -1.7262 -0.7961
 9215SOL     OW43064   4.206   5.676   0.683 -0.0704 -0.2714  0.2565
 9215SOL    HW143065   4.215   5.768   0.659  0.0330 -0.3695 -0.0720
 9215SOL    HW243066   4.224   5.628   0.603 -0.5775 -0.5642  0.3123
 9216SOL     OW43067   2.702   0.786  11.625  0.4531  0.2147 -0.2008
 9216SOL    HW143068   2.620   0.803  11.671  0.6904 -2.4765  1.3080
 9216SOL    HW243069   2.677   0.783  11.532 -1.1339 -0.3186  0.2313
 9217SOL     OW43070   5.822   5.809   3.392 -0.3539 -0.5146  0.3884
 9217SOL    HW143071   5.865   5.882   3.437 -0.9158 -0.0123  0.1143
 9217SOL    HW243072   5.738   5.844   3.364 -0.5748 -1.2317  0.1376
 9218SOL     OW43073   4.515   0.430   9.561  0.3152 -0.6388 -0.0008
 9218SOL    HW143074   4.554   0.427   9.649 -1.6395  0.7930  0.9689
 9218SOL    HW243075   4.542   0.515   9.526  1.0721 -1.1978 -0.7905
 9219SOL     OW43076   4.015   4.185   3.135 -0.1320 -0.1217  0.6676
 9219SOL    HW143077   4.041   4.155   3.222  0.2874  0.2003  0.6527
 9219SOL    HW243078   4.087   4.241   3.106  0.8543 -2.0769 -0.8356
 9220SOL     OW43079   2.335   5.393   1.509 -0.4895 -0.8169  0.0435
 9220SOL    HW143080   2.269   5.429   1.568 -2.0758 -0.2186 -2.0730
 9220SOL    HW243081   2.358   5.308   1.548 -2.5717 -1.0888  0.7398
 9221SOL     OW43082   0.045   2.600   3.060  0.1161 -0.2677  0.0469
 9221SOL    HW143083   0.027   2.693   3.043 -0.3562 -0.1691  1.0253
 9221SOL    HW243084   0.134   2.599   3.095 -0.0526 -0.1192  0.4935
 9222SOL     OW43085   2.161   3.625   9.983 -0.3213 -0.1320  0.6297
 9222SOL    HW143086   2.143   3.664  10.068  1.2135 -2.4040  2.0377
 9222SOL    HW243087   2.247   3.659   9.958 -1.8063  2.4448 -1.1962
 9223SOL     OW43088   1.082   2.427   1.493  0.0133  0.3649 -0.0026
 9223SOL    HW143089   1.143   2.499   1.477 -0.4319  0.5277 -1.0160
 9223SOL    HW243090   0.995   2.464   1.479 -0.3608  0.2364  1.8547
 9224SOL     OW43091   1.675   1.813  11.738 -0.0818 -0.2520  0.2606
 9224SOL    HW143092   1.674   1.791  11.644 -0.9469  1.0776 -0.0610
 9224SOL    HW243093   1.623   1.744  11.779 -3.0844  1.2551 -0.7854
 9225SOL     OW43094   1.229   2.139  11.976  0.0230  0.0964  0.5368
 9225SOL    HW143095   1.311   2.090  11.987 -0.1597  0.0402  1.8331
 9225SOL    HW243096   1.239   2.216  12.032 -0.7846  0.1011  0.6917
 9226SOL     OW43097   1.512   5.827   1.598 -0.4397  0.2891  0.2572
 9226SOL    HW143098   1.504   5.855   1.507 -0.4756 -1.0330 -0.1489
 9226SOL    HW243099   1.432   5.859   1.640 -1.5320 -1.1331 -0.7161
 9227SOL     OW43100   5.009   1.985   8.507 -0.2361 -0.2670  0.0544
 9227SOL    HW143101   5.006   2.017   8.597 -0.0755 -1.5239  0.5173
 9227SOL    HW243102   5.035   2.061   8.455 -0.5356  0.5206  1.0399
 9228SOL     OW43103   2.734   1.656  10.115  0.4689 -0.0818  0.5251
 9228SOL    HW143104   2.789   1.684  10.041  1.7742 -1.0796  1.1021
 9228SOL    HW243105   2.706   1.737  10.157  3.7585  0.4236  1.8623
 9229SOL     OW43106   4.289   1.464   9.965 -0.1042  0.5442 -0.9225
 9229SOL    HW143107   4.272   1.501   9.879 -0.6013  0.5942 -0.8042
 9229SOL    HW243108   4.223   1.504  10.022 -1.4120 -1.4305 -1.0296
 9230SOL     OW43109   3.225   1.403   3.200 -0.8729  0.1197 -0.4218
 9230SOL    HW143110   3.259   1.475   3.147  1.1907 -0.7018 -0.2806
 9230SOL    HW243111   3.222   1.438   3.289 -0.6889  0.3013 -0.4861
 9231SOL     OW43112   0.417   3.592   9.665 -0.0182 -0.6159  0.7154
 9231SOL    HW143113   0.435   3.685   9.680  2.2300 -1.0822  1.1529
 9231SOL    HW243114   0.367   3.590   9.583  2.3601  0.8229 -0.8442
 9232SOL     OW43115   4.451   5.215   1.442  0.2151 -0.1817  0.3072
 9232SOL    HW143116   4.499   5.184   1.365 -1.8245 -2.3448 -0.1650
 9232SOL    HW243117   4.514   5.210   1.514  1.8273  0.8358 -0.9779
 9233SOL     OW43118   0.156   1.480   0.257 -0.5253 -0.7020  0.9301
 9233SOL    HW143119   0.116   1.560   0.223 -0.7265 -1.0000  0.4654
 9233SOL    HW243120   0.083   1.419   0.269 -0.5394 -0.3989  2.4697
 9234SOL     OW43121   4.787   1.737   0.321  0.2559  0.6872  0.6345
 9234SOL    HW143122   4.694   1.721   0.338  0.2520  0.4506  0.3997
 9234SOL    HW243123   4.789   1.820   0.273  0.0917  0.2373 -0.1689
 9235SOL     OW43124   1.852   0.819   0.137  0.0331  0.2613 -0.3269
 9235SOL    HW143125   1.789   0.804   0.207  0.9473  1.1320  0.7145
 9235SOL    HW243126   1.834   0.750   0.072 -2.2778  0.7772 -0.2867
 9236SOL     OW43127   3.981   0.160  10.150 -0.0664 -0.5348 -0.3897
 9236SOL    HW143128   4.008   0.251  10.142 -1.7693 -0.1833 -2.5164
 9236SOL    HW243129   4.021   0.117  10.074 -0.2072 -1.3318 -0.0182
 9237SOL     OW43130   5.895   5.834  11.956  0.1996  0.2159 -0.7060
 9237SOL    HW143131   5.844   5.753  11.949 -0.6703  0.6316  0.5933
 9237SOL    HW243132   5.931   5.832  12.044 -0.9987  1.8908 -0.1501
 9238SOL     OW43133   3.124   3.071  12.199  0.7934  0.1035  0.3841
 9238SOL    HW143134   3.074   3.108  12.126 -0.3579 -1.1559  0.5038
 9238SOL    HW243135   3.160   3.147  12.245 -1.7694  1.1168  0.8010
 9239SOL     OW43136   2.334   2.289  10.885 -0.1772 -0.1057 -0.1236
 9239SOL    HW143137   2.282   2.261  10.960 -1.0599  1.7665 -0.0266
 9239SOL    HW243138   2.402   2.345  10.922 -0.8701  1.1711 -0.7589
 9240SOL     OW43139   5.430   1.241  12.383 -0.1390  0.6235 -0.1548
 9240SOL    HW143140   5.364   1.257  12.450  1.1515 -1.1102  1.5882
 9240SOL    HW243141   5.389   1.179  12.323  0.2654 -1.2901  1.5205
 9241SOL     OW43142   1.954   1.785  12.267  0.3267 -0.5116 -0.4913
 9241SOL    HW143143   2.011   1.728  12.318  1.0425 -0.9958 -1.8239
 9241SOL    HW243144   2.013   1.831  12.207 -0.4431  0.4223 -0.5529
 9242SOL     OW43145   0.404   4.683  11.094  0.2532  0.5870  0.2341
 9242SOL    HW143146   0.472   4.670  11.160 -0.9911 -1.3632  1.2113
 9242SOL    HW243147   0.413   4.607  11.036  1.9312  2.7512 -2.4498
 9243SOL     OW43148   2.310   1.172   0.446 -0.4807 -0.0342 -0.3068
 9243SOL    HW143149   2.300   1.248   0.388 -0.0009 -0.3984 -0.8685
 9243SOL    HW243150   2.228   1.169   0.496 -0.3742  1.0535 -0.0442
 9244SOL     OW43151   3.835   4.043   9.419 -0.0298 -0.1532  0.0824
 9244SOL    HW143152   3.748   4.003   9.417  0.5215 -1.3397  0.0396
 9244SOL    HW243153   3.831   4.110   9.350 -1.0688  0.1568  0.4192
 9245SOL     OW43154   0.657   3.649  11.438  0.6050 -0.0885 -0.1993
 9245SOL    HW143155   0.737   3.656  11.386  1.1483 -0.3755  0.5846
 9245SOL    HW243156   0.682   3.594  11.512  0.1574  1.2028  0.9447
 9246SOL     OW43157   1.531   4.385   9.031 -0.2375 -0.1754 -0.0038
 9246SOL    HW143158   1.540   4.290   9.032 -1.9692 -0.4100 -2.7287
 9246SOL    HW243159   1.522   4.407   8.939  1.1250  2.7516  0.5215
 9247SOL     OW43160   1.601   4.449   8.225 -1.0431  0.8707 -0.0606
 9247SOL    HW143161   1.506   4.455   8.210 -1.1230 -0.2896 -0.0683
 9247SOL    HW243162   1.634   4.402   8.149 -0.8035 -0.8724  1.0894
 9248SOL     OW43163   4.653   1.229   3.374  0.4904  0.0472  0.3203
 9248SOL    HW143164   4.712   1.239   3.300 -2.9658  1.4515 -2.4146
 9248SOL    HW243165   4.639   1.318   3.407  0.3706 -0.3285  1.3071
 9249SOL     OW43166   0.505   5.894   3.918  0.2542  0.2558 -0.3098
 9249SOL    HW143167   0.596   5.877   3.943  0.5664  0.6686 -1.1715
 9249SOL    HW243168   0.464   5.807   3.916  0.5883  0.0808  0.1870
 9250SOL     OW43169   3.125   1.661  10.705  0.2834 -0.5647 -0.3178
 9250SOL    HW143170   3.142   1.711  10.626 -0.9255  1.0198  0.3793
 9250SOL    HW243171   3.181   1.584  10.698  1.4523  0.4043 -1.8862
 9251SOL     OW43172   0.501   2.546  11.123  0.1312  0.0996  0.2157
 9251SOL    HW143173   0.478   2.621  11.068  2.4486  0.4406 -0.3599
 9251SOL    HW243174   0.473   2.470  11.072  1.1341  0.4572 -0.9007
 9252SOL     OW43175   0.865   1.983   1.971 -0.0502  0.0589 -0.0928
 9252SOL    HW143176   0.925   1.927   2.020 -1.8977 -0.0871  2.1225
 9252SOL    HW243177   0.836   2.048   2.035 -3.2057 -0.6683 -0.6615
 9253SOL     OW43178   3.880   5.396   2.668 -0.5332  0.3097  0.3293
 9253SOL    HW143179   3.891   5.491   2.659 -0.2825  0.3656  1.1774
 9253SOL    HW243180   3.798   5.385   2.715 -1.5257  0.0363 -1.4005
 9254SOL     OW43181   3.523   2.619   0.092  0.2082  0.4347  0.0680
 9254SOL    HW143182   3.535   2.526   0.073 -0.5570  0.1203  1.0619
 9254SOL    HW243183   3.492   2.657   0.009 -0.6063 -0.4157 -0.0230
 9255SOL     OW43184   0.153   4.495   0.275 -0.3633 -0.3838 -0.1172
 9255SOL    HW143185   0.059   4.494   0.255 -0.5297  0.2725  0.6335
 9255SOL    HW243186   0.162   4.435   0.349 -0.1343 -0.7272 -0.4207
 9256SOL     OW43187   4.029   5.571   1.183 -0.2854 -0.2382 -0.0119
 9256SOL    HW143188   3.964   5.508   1.152 -0.2958 -0.7712  1.0728
 9256SOL    HW243189   4.079   5.524   1.250  0.7484  0.4032 -0.3202
 9257SOL     OW43190   2.395   1.075   2.084 -0.5663 -0.6234 -0.8347
 9257SOL    HW143191   2.384   1.150   2.026 -0.9467 -0.3997 -0.4751
 9257SOL    HW243192   2.444   1.011   2.031  0.4401  0.1692 -0.8867
 9258SOL     OW43193   3.047   3.087   3.069 -0.3570 -0.1176  0.2612
 9258SOL    HW143194   3.127   3.039   3.048 -0.6889 -1.0273  0.9871
 9258SOL    HW243195   2.979   3.019   3.072 -0.2220 -0.2148  4.7342
 9259SOL     OW43196   2.282   1.281  10.182  0.0627 -0.0518  0.1323
 9259SOL    HW143197   2.199   1.305  10.222 -1.5209 -2.0469 -1.8194
 9259SOL    HW243198   2.276   1.314  10.092  1.3529 -0.2589 -0.0440
 9260SOL     OW43199   5.515   0.388   0.224  0.3384 -0.2507 -0.5149
 9260SOL    HW143200   5.482   0.318   0.168 -1.3371 -1.4706  1.9397
 9260SOL    HW243201   5.455   0.461   0.208 -1.5054 -1.3254  1.3139
 9261SOL     OW43202   1.016   3.594   3.733 -0.8612 -0.0612 -0.3011
 9261SOL    HW143203   0.953   3.528   3.761 -1.1778  0.7498  0.9530
 9261SOL    HW243204   1.100   3.546   3.729 -1.1913 -0.6774 -0.0001
 9262SOL     OW43205   2.193   0.310   4.354  0.6819 -0.2019  0.1141
 9262SOL    HW143206   2.250   0.239   4.324 -0.6240 -1.5094  0.6772
 9262SOL    HW243207   2.106   0.270   4.359  0.2861  0.9083  2.3927
 9263SOL     OW43208   2.889   3.826  10.369 -0.0306 -0.4684 -0.1198
 9263SOL    HW143209   2.811   3.875  10.392 -0.4356 -1.0427 -0.2514
 9263SOL    HW243210   2.868   3.735  10.392  0.6230 -0.6184 -0.0823
 9264SOL     OW43211   4.352   1.299   2.008  0.0013  0.3614 -0.2971
 9264SOL    HW143212   4.372   1.207   1.990  0.5136  0.7732 -1.9701
 9264SOL    HW243213   4.368   1.343   1.925 -0.1913  1.9799  0.5087
 9265SOL     OW43214   2.181   4.794  10.231 -0.2834  0.0522 -0.0822
 9265SOL    HW143215   2.250   4.735  10.260  1.1980  1.8653  0.2084
 9265SOL    HW243216   2.160   4.846  10.308 -0.5027  0.9289 -0.7229
 9266SOL     OW43217   0.415   5.326  10.978  0.1206 -0.0450 -0.5091
 9266SOL    HW143218   0.440   5.395  10.916 -0.2166 -0.1252 -0.7375
 9266SOL    HW243219   0.324   5.347  11.002  0.5085  0.4525  0.5858
 9267SOL     OW43220   3.285   4.121   2.445 -0.5151  0.2522  0.4684
 9267SOL    HW143221   3.262   4.164   2.527 -0.0152 -0.9130  1.2292
 9267SOL    HW243222   3.214   4.144   2.385  0.2382  2.9318  0.5561
 9268SOL     OW43223   4.790   4.522   2.895  0.6850 -0.2296  1.0585
 9268SOL    HW143224   4.800   4.461   2.968 -1.2482 -1.6574  0.1598
 9268SOL    HW243225   4.716   4.577   2.921  0.5443 -0.1807  0.5553
 9269SOL     OW43226   5.097   0.496  10.401 -0.2441 -0.2539  0.0106
 9269SOL    HW143227   5.121   0.572  10.454  1.7786 -0.3776 -0.6942
 9269SOL    HW243228   5.109   0.524  10.311 -0.4389 -1.0880 -0.2830
 9270SOL     OW43229   4.605   2.594   1.486 -0.1023  0.3773  0.3158
 9270SOL    HW143230   4.677   2.632   1.434 -1.4495  2.0792 -0.3410
 9270SOL    HW243231   4.599   2.504   1.455  2.6527 -0.2255  1.3556
 9271SOL     OW43232   4.299   0.471   8.559 -0.0203 -0.1619  0.5543
 9271SOL    HW143233   4.256   0.435   8.637  0.8156 -0.3365  0.9493
 9271SOL    HW243234   4.280   0.408   8.490 -3.2150  1.4299 -0.1147
 9272SOL     OW43235   4.319   5.839   2.669  0.0070  0.1108  0.3258
 9272SOL    HW143236   4.303   5.901   2.741 -0.4062 -0.8278  1.0515
 9272SOL    HW243237   4.348   5.759   2.712 -1.6777 -0.9365 -0.4539
 9273SOL     OW43238   0.395   2.942   0.327  0.1939  0.5593 -0.3914
 9273SOL    HW143239   0.354   2.856   0.327  1.4899 -0.0814  0.5843
 9273SOL    HW243240   0.449   2.943   0.248  1.2541 -0.0689  0.3118
 9274SOL     OW43241   5.718   0.012  11.009  0.4587 -0.5940  0.2762
 9274SOL    HW143242   5.810   0.008  11.036  0.5080  1.9474  0.5653
 9274SOL    HW243243   5.673   0.053  11.083 -0.4883  0.5097 -0.8835
 9275SOL     OW43244   5.249   1.523   1.943  0.4941  0.7777  0.0817
 9275SOL    HW143245   5.218   1.610   1.916  0.2929  0.8304  0.4786
 9275SOL    HW243246   5.180   1.463   1.915  0.5803  0.7598 -0.0910
 9276SOL     OW43247   3.754   2.099   0.214  0.2674  0.4072 -0.0333
 9276SOL    HW143248   3.844   2.077   0.238  0.6567  0.5607 -1.3033
 9276SOL    HW243249   3.700   2.051   0.276  1.2372  0.5547  0.9286
 9277SOL     OW43250   1.179   2.973  10.671 -0.4220  0.6550  0.3032
 9277SOL    HW143251   1.192   3.035  10.599  0.4421  0.8053  0.5740
 9277SOL    HW243252   1.242   2.903  10.653 -1.1464  0.0206  0.1894
 9278SOL     OW43253   1.559   2.520   4.130 -0.1985  0.2191 -0.3928
 9278SOL    HW143254   1.541   2.581   4.201 -1.7385 -1.8437  1.0859
 9278SOL    HW243255   1.622   2.565   4.074  1.0716  1.8971  2.2817
 9279SOL     OW43256   4.022   1.308   1.351 -0.4924  0.2483 -0.4502
 9279SOL    HW143257   4.022   1.350   1.437  1.8861  1.4953 -1.0107
 9279SOL    HW243258   4.107   1.265   1.345 -1.2643 -1.1896 -1.5542
 9280SOL     OW43259   2.909   1.488  10.430  0.1162 -0.0368 -0.0246
 9280SOL    HW143260   2.984   1.548  10.427  1.3376 -1.3594  2.3430
 9280SOL    HW243261   2.918   1.444  10.515 -2.7298 -1.0362 -0.2127
 9281SOL     OW43262   2.143   0.993   3.583  0.0049 -0.5283  0.3962
 9281SOL    HW143263   2.135   0.984   3.678  0.9573 -2.1278  0.3343
 9281SOL    HW243264   2.084   1.065   3.561 -1.3534 -1.1182  2.0028
 9282SOL     OW43265   2.945   1.576   4.267  0.1301  0.6760 -0.3300
 9282SOL    HW143266   2.925   1.663   4.299  0.3573  0.6336 -0.0654
 9282SOL    HW243267   2.861   1.531   4.263  0.0928  0.6968  0.1616
 9283SOL     OW43268   2.304   5.614  12.186  0.0689 -0.3935  0.1679
 9283SOL    HW143269   2.230   5.579  12.236 -0.3317  1.5987  0.9868
 9283SOL    HW243270   2.293   5.575  12.099 -0.7502 -1.7567  0.8485
 9284SOL     OW43271   2.053   5.770   0.853  0.7590 -0.3958  0.5462
 9284SOL    HW143272   2.061   5.773   0.948  0.2821 -0.3554  0.5866
 9284SOL    HW243273   2.140   5.747   0.822  0.8242 -0.7723  1.0115
 9285SOL     OW43274   5.398   5.834  10.662 -0.6152 -0.2298  0.2492
 9285SOL    HW143275   5.329   5.768  10.662 -2.5036  1.6996 -0.2461
 9285SOL    HW243276   5.433   5.832  10.751  2.0944 -4.6081 -0.7633
 9286SOL     OW43277   4.589   5.849   0.378 -0.3072 -0.0111  0.4951
 9286SOL    HW143278   4.677   5.876   0.404 -1.0367  1.0136  2.0171
 9286SOL    HW243279   4.566   5.906   0.305  0.4898 -0.6407 -0.2543
 9287SOL     OW43280   5.675   4.118   9.294 -0.4365  0.3423  0.5729
 9287SOL    HW143281   5.732   4.148   9.224  1.5146 -0.7931  1.6461
 9287SOL    HW243282   5.685   4.183   9.363 -0.2852  0.0292  0.8466
 9288SOL     OW43283   1.808   4.803   7.596  0.0695 -0.0069  0.2417
 9288SOL    HW143284   1.798   4.898   7.603  0.2672 -0.1292  2.5985
 9288SOL    HW243285   1.764   4.780   7.514 -0.4280  2.0504 -0.0924
 9289SOL     OW43286   3.103   4.332  10.131 -0.7921 -0.4085  0.4705
 9289SOL    HW143287   3.034   4.356  10.193 -0.7256  0.0663  0.3622
 9289SOL    HW243288   3.185   4.347  10.179 -0.7594 -0.7116  0.5067
 9290SOL     OW43289   1.385   1.932   0.197 -0.1782 -0.7802  0.2878
 9290SOL    HW143290   1.446   1.996   0.234 -0.3066 -0.4935  0.0034
 9290SOL    HW243291   1.403   1.932   0.103 -1.2538 -0.0112  0.0809
 9291SOL     OW43292   5.557   2.773   2.354  0.3362  0.0177 -0.0818
 9291SOL    HW143293   5.574   2.773   2.260  1.6638  0.4183  0.1343
 9291SOL    HW243294   5.643   2.792   2.393 -0.1921 -0.1938  1.2047
 9292SOL     OW43295   2.738   0.905   7.733 -0.2681 -0.4427 -0.2846
 9292SOL    HW143296   2.764   0.985   7.778  0.7166 -0.7854 -0.2334
 9292SOL    HW243297   2.664   0.871   7.784 -0.4732  0.2468 -0.1137
 9293SOL     OW43298   3.532   0.201   7.834  0.5681  0.4874  0.2721
 9293SOL    HW143299   3.447   0.209   7.790  0.7617 -0.8780 -0.3979
 9293SOL    HW243300   3.594   0.186   7.763  0.8133 -2.2044  0.9958
 9294SOL     OW43301   5.114   0.209   1.306  0.0281 -0.1357  0.2917
 9294SOL    HW143302   5.153   0.246   1.385 -0.6324 -0.5684  0.8180
 9294SOL    HW243303   5.157   0.124   1.295 -0.0426 -0.1725  0.3000
 9295SOL     OW43304   0.233   0.451  11.533  0.7146  0.3391 -0.1295
 9295SOL    HW143305   0.325   0.433  11.552  1.7630  2.3228 -3.0067
 9295SOL    HW243306   0.204   0.376  11.480  0.7405 -0.1366  0.5205
 9296SOL     OW43307   3.511   0.540   3.112 -0.1597 -0.2256  0.7021
 9296SOL    HW143308   3.482   0.454   3.083 -0.9072  0.3488 -0.2513
 9296SOL    HW243309   3.518   0.531   3.208  0.6508 -1.6016  0.5418
 9297SOL     OW43310   4.728   0.644   7.533 -0.2976 -0.6494  0.5152
 9297SOL    HW143311   4.704   0.685   7.450  1.1111 -2.1149 -0.6446
 9297SOL    HW243312   4.656   0.583   7.552  0.7745 -2.5116 -1.1956
 9298SOL     OW43313   0.045   3.676   9.712 -0.3475  0.4850 -0.2636
 9298SOL    HW143314  -0.017   3.749   9.701  0.0042  0.9382  0.7011
 9298SOL    HW243315   0.071   3.681   9.804  0.4090 -0.2810 -0.4354
 9299SOL     OW43316   4.728   1.419   9.396  0.3678  0.2759  0.3068
 9299SOL    HW143317   4.822   1.427   9.380  0.6132 -1.9312  0.4588
 9299SOL    HW243318   4.703   1.500   9.440  1.9939  1.3238 -0.6786
 9300SOL     OW43319   3.562   3.620   2.587 -0.4977 -0.1267 -0.6066
 9300SOL    HW143320   3.564   3.683   2.514  0.8836 -0.2329 -0.6734
 9300SOL    HW243321   3.642   3.568   2.576 -0.9166 -0.9709  0.2678
 9301SOL     OW43322   2.259   3.633   1.527 -0.1044 -0.1722 -0.2390
 9301SOL    HW143323   2.352   3.612   1.538  0.4298  1.1603 -1.9805
 9301SOL    HW243324   2.238   3.693   1.598  0.3051 -0.6285  0.2713
 9302SOL     OW43325   0.536   0.898   9.715  0.2446 -0.1170 -0.2604
 9302SOL    HW143326   0.443   0.881   9.701  0.1917  0.2679 -0.3891
 9302SOL    HW243327   0.558   0.850   9.795 -0.0377 -0.2951 -0.2871
 9303SOL     OW43328   4.772   0.501  10.087  1.1224 -0.4263 -0.1330
 9303SOL    HW143329   4.731   0.453  10.016 -0.5785  1.4116 -0.4411
 9303SOL    HW243330   4.724   0.475  10.165 -1.2395  2.2165 -0.5799
 9304SOL     OW43331   3.891   4.088   0.728  0.1253 -0.1504 -0.0216
 9304SOL    HW143332   3.838   4.075   0.650 -0.6278 -0.2903  0.5114
 9304SOL    HW243333   3.842   4.046   0.798  0.3063  0.8525  0.7181
 9305SOL     OW43334   1.875   2.462   1.182  0.6186 -0.2813  0.3579
 9305SOL    HW143335   1.814   2.448   1.255 -1.1579  1.5629 -0.7084
 9305SOL    HW243336   1.904   2.553   1.193  0.0824  0.1130 -1.3841
 9306SOL     OW43337   3.061   1.102   8.384  0.7636  0.5233  0.4026
 9306SOL    HW143338   3.004   1.137   8.453  1.0422 -0.5696  1.2235
 9306SOL    HW243339   3.148   1.100   8.424  1.4703  2.5632 -0.9876
 9307SOL     OW43340   2.357   1.641   8.595 -0.3327  0.3744  0.5490
 9307SOL    HW143341   2.405   1.718   8.565  1.8460 -0.9008  0.5681
 9307SOL    HW243342   2.388   1.627   8.685  0.2694 -1.2000  0.1317
 9308SOL     OW43343   2.275   5.154  12.436  0.1844 -0.0171  0.9515
 9308SOL    HW143344   2.334   5.191  12.371  0.7278 -0.6211  1.0932
 9308SOL    HW243345   2.332   5.124  12.507 -0.3823  0.4277  1.6109
 9309SOL     OW43346   4.256   5.386   2.014 -0.8070 -0.1355 -0.0110
 9309SOL    HW143347   4.309   5.314   2.051  0.0109  0.8209  0.7268
 9309SOL    HW243348   4.180   5.392   2.072 -0.5425  0.0283  0.3217
 9310SOL     OW43349   3.751   5.704   0.090 -0.1313 -0.0853 -0.6947
 9310SOL    HW143350   3.746   5.792   0.053  1.2061  0.6018  0.6913
 9310SOL    HW243351   3.834   5.669   0.057  0.0082 -0.2947 -0.1312
 9311SOL     OW43352   1.675   3.421   1.069  0.9305 -0.4944  0.0700
 9311SOL    HW143353   1.695   3.351   1.006  0.8538  0.5212 -1.0834
 9311SOL    HW243354   1.758   3.435   1.115  0.8272 -1.6684  0.6489
 9312SOL     OW43355   1.763   5.045   9.159 -0.2118 -0.5859  0.3180
 9312SOL    HW143356   1.675   5.008   9.165  0.0451 -1.1148  0.8795
 9312SOL    HW243357   1.819   4.984   9.208  0.1484  0.7603  1.6369
 9313SOL     OW43358   4.165   2.113   8.350  0.4365  0.4402  0.0577
 9313SOL    HW143359   4.092   2.090   8.292  0.6529 -1.3450  0.4624
 9313SOL    HW243360   4.123   2.158   8.423 -0.0329  1.1670 -0.6488
 9314SOL     OW43361   3.453   3.659   9.883  0.3385 -0.4463  0.0940
 9314SOL    HW143362   3.508   3.591   9.922 -0.1095 -1.2200 -0.6295
 9314SOL    HW243363   3.471   3.654   9.789 -0.8527 -0.5925 -0.1265
 9315SOL     OW43364   2.214   3.588   9.699 -0.8105 -0.5791 -0.9706
 9315SOL    HW143365   2.138   3.605   9.643 -1.5477  0.2887  0.2687
 9315SOL    HW243366   2.178   3.583   9.787  0.4990 -0.7483 -0.4371
 9316SOL     OW43367   3.017   4.975   0.799 -0.1718 -0.1027  0.0506
 9316SOL    HW143368   2.927   5.003   0.783 -0.2268  0.0539  0.6146
 9316SOL    HW243369   3.009   4.893   0.847 -0.0372  1.0578  2.1306
 9317SOL     OW43370   5.681   0.425  10.752  0.5582 -0.3461  0.6469
 9317SOL    HW143371   5.681   0.330  10.766  1.8401 -0.5425 -0.5412
 9317SOL    HW243372   5.603   0.440  10.698 -1.1071 -0.3461  2.9685
 9318SOL     OW43373   4.207   2.165   1.360  0.2684 -0.6380  0.1947
 9318SOL    HW143374   4.191   2.140   1.269  2.6419 -0.8186 -0.2133
 9318SOL    HW243375   4.218   2.260   1.357 -2.8265 -0.2368  0.8115
 9319SOL     OW43376   1.048   4.928   0.884  0.5476 -0.3000 -0.4245
 9319SOL    HW143377   1.046   4.834   0.903  0.8773  0.1372  1.7961
 9319SOL    HW243378   1.058   4.970   0.969 -0.7255  1.8076 -1.2717
 9320SOL     OW43379   4.172   1.620   1.356 -0.6249 -0.0283 -0.4979
 9320SOL    HW143380   4.248   1.671   1.384 -1.4550  0.8071  0.2561
 9320SOL    HW243381   4.199   1.529   1.366 -0.2391  0.2583  1.1713
 9321SOL     OW43382   4.092   1.483   9.694 -0.2670  0.1439  0.6266
 9321SOL    HW143383   4.148   1.468   9.618 -0.1623 -2.0620  1.0830
 9321SOL    HW243384   4.028   1.411   9.691 -1.6657  1.3158  1.3790
 9322SOL     OW43385   5.051   4.373   0.816  0.5949  0.4867  0.3950
 9322SOL    HW143386   5.044   4.409   0.727  1.3367  1.2753  0.6490
 9322SOL    HW243387   4.988   4.423   0.867 -0.1079 -0.2304  0.2267
 9323SOL     OW43388   1.449   0.464   4.035 -0.1157 -0.0987  0.4219
 9323SOL    HW143389   1.542   0.470   4.059  0.1986 -1.0132 -0.5194
 9323SOL    HW243390   1.405   0.444   4.118  0.5132  0.3478  0.8810
 9324SOL     OW43391   0.282   4.183   2.091  0.4485 -0.3483  0.2493
 9324SOL    HW143392   0.334   4.213   2.165 -1.3618 -1.0712  1.8710
 9324SOL    HW243393   0.196   4.223   2.105 -0.0392 -0.8384 -1.2469
 9325SOL     OW43394   4.843   2.862   1.710  0.1017  0.9559  0.1289
 9325SOL    HW143395   4.835   2.942   1.761 -1.9249  1.4042 -0.8279
 9325SOL    HW243396   4.865   2.891   1.621  0.3213  0.3964 -0.0070
 9326SOL     OW43397   1.613   2.390   9.287  0.0682  0.3304 -0.0404
 9326SOL    HW143398   1.549   2.350   9.228  0.3107  0.7990 -0.6307
 9326SOL    HW243399   1.578   2.374   9.375 -0.3092 -0.3543 -0.3094
 9327SOL     OW43400   2.764   4.878   2.858  0.2252 -0.7900  0.2705
 9327SOL    HW143401   2.766   4.973   2.846  2.0318 -1.0359 -1.5724
 9327SOL    HW243402   2.812   4.864   2.940  1.1472 -0.2270 -0.1734
 9328SOL     OW43403   5.718   5.817   0.604 -0.8507 -0.1421  0.1320
 9328SOL    HW143404   5.790   5.754   0.604 -0.3749  0.3531  1.7504
 9328SOL    HW243405   5.644   5.769   0.568  0.4733 -0.4036 -2.3728
 9329SOL     OW43406   4.450   3.583  12.286 -0.1614 -0.1347 -0.1012
 9329SOL    HW143407   4.523   3.579  12.348  0.1724 -0.1266 -0.4877
 9329SOL    HW243408   4.406   3.499  12.295  0.9336 -0.8250 -1.1088
 9330SOL     OW43409   2.590   2.384   0.696  0.0987 -0.1494  0.1354
 9330SOL    HW143410   2.503   2.368   0.731  0.0872  1.0230  0.6715
 9330SOL    HW243411   2.575   2.441   0.620  0.4781  1.1193  0.9838
 9331SOL     OW43412   5.655   1.240   0.230 -0.3154 -0.3893  0.4997
 9331SOL    HW143413   5.628   1.331   0.242  0.0232 -0.1136 -0.7987
 9331SOL    HW243414   5.584   1.201   0.179 -1.0982 -1.2121  2.1601
 9332SOL     OW43415   5.804   3.912   3.115 -0.4576 -0.1699 -0.2666
 9332SOL    HW143416   5.871   3.979   3.116 -3.2486  2.7378  2.6642
 9332SOL    HW243417   5.762   3.921   3.029  0.5885  0.3136 -0.7340
 9333SOL     OW43418   0.516   2.631   3.509  0.5499 -0.2651 -0.1957
 9333SOL    HW143419   0.464   2.651   3.587  1.8821  0.8590  0.4382
 9333SOL    HW243420   0.534   2.537   3.515 -1.4152 -0.6750 -0.4513
 9334SOL     OW43421   2.319   1.187  10.762 -0.0610 -0.3818 -0.4227
 9334SOL    HW143422   2.242   1.229  10.724 -0.0325 -0.3748 -0.4742
 9334SOL    HW243423   2.390   1.249  10.746 -0.3222  0.2984  0.9658
 9335SOL     OW43424   0.634   4.294   3.604  0.1849 -0.7156 -0.4665
 9335SOL    HW143425   0.691   4.229   3.564  0.7282 -0.3943 -0.2233
 9335SOL    HW243426   0.576   4.243   3.661 -0.8343 -1.2174 -1.9059
 9336SOL     OW43427   2.350   1.823   2.224 -0.1221  0.1644  0.3716
 9336SOL    HW143428   2.287   1.784   2.284 -0.3434  1.3336  0.9029
 9336SOL    HW243429   2.297   1.867   2.158  0.0721 -2.6332 -1.7585
 9337SOL     OW43430   3.603   3.224   1.415 -0.0263 -0.3406 -0.0982
 9337SOL    HW143431   3.557   3.297   1.457 -2.1990 -0.1982 -2.5811
 9337SOL    HW243432   3.673   3.201   1.477  0.1465  3.2212  1.1764
 9338SOL     OW43433   0.933   5.485   2.267  0.5777  0.3355 -0.5277
 9338SOL    HW143434   0.923   5.413   2.204  0.0764  0.8857 -1.0828
 9338SOL    HW243435   0.883   5.557   2.229 -0.6503  0.3461  1.0273
 9339SOL     OW43436   4.061   1.383   2.018 -0.0026 -0.1952 -0.7181
 9339SOL    HW143437   4.150   1.412   2.000  0.2612 -0.3355  0.3421
 9339SOL    HW243438   4.071   1.309   2.078 -0.7525 -1.4163 -2.0661
 9340SOL     OW43439   4.671   2.636   8.868 -0.0867  0.1866 -0.3451
 9340SOL    HW143440   4.645   2.676   8.951  1.6376 -1.3223  0.9620
 9340SOL    HW243441   4.758   2.673   8.850  0.9809 -1.9511  0.2379
 9341SOL     OW43442   3.636   5.186   9.712 -0.1102 -0.3318 -0.2591
 9341SOL    HW143443   3.651   5.277   9.739  0.9084 -0.2034 -1.2214
 9341SOL    HW243444   3.706   5.167   9.650  0.4225 -2.2022  0.8688
 9342SOL     OW43445   2.338   2.718   3.267 -0.0340 -0.2128  0.0324
 9342SOL    HW143446   2.370   2.641   3.220 -0.0042 -0.0860 -0.1612
 9342SOL    HW243447   2.331   2.690   3.358  0.4354 -0.3021  0.0442
 9343SOL     OW43448   4.589   0.773   1.206 -0.5822  0.5249 -0.2121
 9343SOL    HW143449   4.538   0.817   1.275  0.7538  0.6816  0.7044
 9343SOL    HW243450   4.635   0.843   1.161  3.0579  0.0067  2.4818
 9344SOL     OW43451   3.761   0.142   7.693 -0.0173 -0.6633  0.4809
 9344SOL    HW143452   3.776   0.212   7.630 -1.1162 -0.7798  0.0941
 9344SOL    HW243453   3.832   0.153   7.757 -0.4399  1.0739  0.6791
 9345SOL     OW43454   1.011   3.471   1.914  0.2946  0.4545  0.2086
 9345SOL    HW143455   0.975   3.546   1.867 -0.4676  0.2812  0.5004
 9345SOL    HW243456   0.965   3.471   1.998  2.9925  1.9058  1.7626
 9346SOL     OW43457   2.589   1.006   2.970 -0.7606 -0.6154  0.2589
 9346SOL    HW143458   2.651   0.999   3.043  2.0369  0.9978 -1.8390
 9346SOL    HW243459   2.508   1.037   3.011  0.6019 -0.1558  2.7486
 9347SOL     OW43460   5.097   5.635   9.775  0.6547  0.5898  0.0425
 9347SOL    HW143461   5.163   5.613   9.841 -0.2215 -1.2909  0.3122
 9347SOL    HW243462   5.121   5.582   9.699  0.5496  1.3269 -0.5159
 9348SOL     OW43463   4.015   4.615   3.250  0.2068 -0.1095  0.8416
 9348SOL    HW143464   4.110   4.628   3.258  0.2824 -1.1827  1.7568
 9348SOL    HW243465   3.990   4.669   3.175  1.4963  0.4098  0.7736
 9349SOL     OW43466   0.236   4.664   0.845 -0.3218  0.6131 -0.1324
 9349SOL    HW143467   0.209   4.740   0.794  0.0570  0.7732 -0.0982
 9349SOL    HW243468   0.172   4.659   0.916 -0.4793  0.7643 -0.2634
 9350SOL     OW43469   5.351   4.683   4.173 -0.1621  0.0428  0.0852
 9350SOL    HW143470   5.391   4.699   4.258  1.4003  0.3061 -0.6722
 9350SOL    HW243471   5.280   4.622   4.190  0.0535  0.2131  1.6002
 9351SOL     OW43472   1.527   5.634  11.294  0.2983 -0.3558  0.0576
 9351SOL    HW143473   1.559   5.697  11.359  0.0814 -0.0800 -0.0984
 9351SOL    HW243474   1.604   5.581  11.272  0.1813 -0.9952  1.1513
 9352SOL     OW43475   2.283   0.235   8.429  0.0159  0.1766 -0.0048
 9352SOL    HW143476   2.218   0.275   8.488 -1.4425  0.4593 -1.7473
 9352SOL    HW243477   2.289   0.296   8.355 -0.7101 -1.7873 -1.7481
 9353SOL     OW43478   3.698   4.774   2.621  0.3808 -0.6679 -0.2348
 9353SOL    HW143479   3.717   4.723   2.542  2.6521 -1.2666  0.6632
 9353SOL    HW243480   3.678   4.708   2.688 -2.7473 -0.1337 -0.5402
 9354SOL     OW43481   1.600   4.137   9.841  0.1592 -0.0874  0.0531
 9354SOL    HW143482   1.602   4.042   9.834  3.3423 -0.2810  2.3281
 9354SOL    HW243483   1.691   4.162   9.850 -0.6835  3.1469  0.2074
 9355SOL     OW43484   2.341   1.956  10.075  0.1640  0.1807  0.0481
 9355SOL    HW143485   2.412   2.017  10.056 -1.1291  2.0719  1.2167
 9355SOL    HW243486   2.269   1.983  10.019 -0.1741 -0.7476  0.0161
 9356SOL     OW43487   2.959   3.443   0.360 -0.5750  0.2988 -0.3095
 9356SOL    HW143488   2.925   3.495   0.432  0.2374  0.3841  0.0274
 9356SOL    HW243489   2.924   3.355   0.374 -2.0713  0.7739 -0.9605
 9357SOL     OW43490   5.460   0.882   3.140 -0.0072  0.3131  0.4092
 9357SOL    HW143491   5.540   0.903   3.092  0.0657  0.0651  0.4192
 9357SOL    HW243492   5.399   0.850   3.073  0.3268 -0.6910  0.5823
 9358SOL     OW43493   4.688   2.503   0.229 -0.5910 -0.4307  0.4937
 9358SOL    HW143494   4.733   2.531   0.308  0.0190  2.2200 -0.7417
 9358SOL    HW243495   4.596   2.523   0.245 -0.4851 -0.0073  0.6003
 9359SOL     OW43496   0.690   2.210  12.461  0.3368  0.7372 -0.0868
 9359SOL    HW143497   0.665   2.120  12.438 -0.2798  0.8625  0.0995
 9359SOL    HW243498   0.608   2.259  12.460  0.2394  0.6870  2.6678
 9360SOL     OW43499   5.544   1.482   3.182  0.3286  0.4587  0.4693
 9360SOL    HW143500   5.576   1.496   3.093  0.1324  0.8335  0.4562
 9360SOL    HW243501   5.623   1.485   3.237  0.2360  2.0634  0.5191
 9361SOL     OW43502   5.511   3.703   2.085 -0.1721 -0.0433 -0.1889
 9361SOL    HW143503   5.454   3.770   2.047 -1.4130 -0.4584  0.9080
 9361SOL    HW243504   5.516   3.726   2.177 -0.2582 -1.2138  0.1098
 9362SOL     OW43505   4.154   3.257   3.608 -0.9845 -0.5908  0.0003
 9362SOL    HW143506   4.146   3.206   3.689 -1.6714 -1.0271 -0.3404
 9362SOL    HW243507   4.112   3.203   3.541  2.2512 -1.6065 -1.2929
 9363SOL     OW43508   5.596   0.878   0.716  0.1230  0.5003 -0.9990
 9363SOL    HW143509   5.551   0.818   0.658 -0.8203 -0.1016  0.3277
 9363SOL    HW243510   5.689   0.857   0.705 -0.2499 -1.9506  0.2299
 9364SOL     OW43511   3.127   2.907   8.914 -0.3148  0.3769  0.3825
 9364SOL    HW143512   3.040   2.927   8.948 -0.2588  0.5133  0.4492
 9364SOL    HW243513   3.111   2.861   8.832 -0.4497  0.0834  0.5755
 9365SOL     OW43514   3.241   4.042   9.382 -0.0250  0.1019  0.0166
 9365SOL    HW143515   3.249   3.994   9.300  0.7036 -0.0042  0.1428
 9365SOL    HW243516   3.150   4.073   9.384 -0.5485 -1.3976  0.0034
 9366SOL     OW43517   2.692   4.534  11.082  0.1330  0.0689  0.3182
 9366SOL    HW143518   2.783   4.506  11.084 -0.4257 -1.8060  0.7586
 9366SOL    HW243519   2.660   4.506  10.996  0.2511  1.7127 -0.2862
 9367SOL     OW43520   1.014   1.688  12.167 -0.5239 -0.1843 -0.6430
 9367SOL    HW143521   1.084   1.744  12.201 -0.8695  0.5825 -1.1799
 9367SOL    HW243522   1.023   1.606  12.216 -0.2399  0.4650  0.4064
 9368SOL     OW43523   1.743   2.263   2.598 -0.3370 -0.6378  0.3442
 9368SOL    HW143524   1.821   2.251   2.544 -1.6743  3.2918 -2.8088
 9368SOL    HW243525   1.774   2.308   2.677  0.6723  0.8983 -0.8885
 9369SOL     OW43526   4.409   5.643   9.969 -0.3134 -0.0117 -0.4610
 9369SOL    HW143527   4.372   5.726   9.939 -0.7625 -0.6337 -1.6473
 9369SOL    HW243528   4.383   5.579   9.902  0.9419 -0.9007 -0.1150
 9370SOL     OW43529   5.060   1.527   0.611 -0.1619  0.0667  0.3530
 9370SOL    HW143530   5.126   1.462   0.586 -2.3501 -2.2248  0.3035
 9370SOL    HW243531   4.993   1.476   0.657 -1.0273  2.6219  2.0291
 9371SOL     OW43532   4.855   0.885   2.428 -0.1303  0.2343  0.0976
 9371SOL    HW143533   4.857   0.849   2.340  0.5631  0.1051  0.1626
 9371SOL    HW243534   4.873   0.811   2.485  3.6789  1.0522  0.1047
 9372SOL     OW43535   1.520   1.235   1.826  0.1233 -0.0180 -0.0964
 9372SOL    HW143536   1.556   1.309   1.875 -0.9108 -0.0596  0.7472
 9372SOL    HW243537   1.502   1.169   1.893  0.5370 -0.8343 -0.7790
 9373SOL     OW43538   4.307   2.055   0.352 -0.2766 -0.7523 -0.0860
 9373SOL    HW143539   4.298   1.975   0.301  0.5926  0.0861 -1.6074
 9373SOL    HW243540   4.373   2.034   0.418  0.5494 -1.0458 -0.9917
 9374SOL     OW43541   3.078   5.008  11.257  1.1520  0.0099 -0.1824
 9374SOL    HW143542   3.066   5.101  11.238  1.9506  0.3351  0.9018
 9374SOL    HW243543   2.995   4.981  11.298 -0.0234 -0.3539 -2.6905
 9375SOL     OW43544   4.606   2.758   9.145  0.2286  0.0153  0.1965
 9375SOL    HW143545   4.516   2.739   9.119  0.2992 -1.4589  0.9686
 9375SOL    HW243546   4.599   2.834   9.202 -0.4571  0.3203 -0.2929
 9376SOL     OW43547   1.125   5.456  10.776 -0.5828  0.5871 -0.0595
 9376SOL    HW143548   1.179   5.526  10.740 -0.8370 -0.2560 -2.1518
 9376SOL    HW243549   1.186   5.403  10.828  0.1925  0.7074 -0.8413
 9377SOL     OW43550   3.378   4.212   1.493  0.4134 -0.2772 -0.0709
 9377SOL    HW143551   3.282   4.211   1.486  0.4769 -0.0991 -1.0637
 9377SOL    HW243552   3.395   4.244   1.582 -0.4536 -0.9468  0.3419
 9378SOL     OW43553   3.513   0.858   0.684 -0.0868 -0.2973  0.2090
 9378SOL    HW143554   3.573   0.932   0.677 -2.0445  1.3280  0.4652
 9378SOL    HW243555   3.571   0.781   0.682  1.8655  1.1530 -1.3571
 9379SOL     OW43556   2.349   0.932  10.678  0.5428  0.2238 -0.0306
 9379SOL    HW143557   2.333   1.023  10.705  0.6579  0.0488  0.6390
 9379SOL    HW243558   2.263   0.901  10.649  0.7000  0.8487 -1.2051
 9380SOL     OW43559   4.735   4.950  10.180 -0.0404  0.2577  0.1776
 9380SOL    HW143560   4.817   4.994  10.203 -0.2555  1.0363 -0.4980
 9380SOL    HW243561   4.759   4.859  10.165  0.4942  0.2371  1.1537
 9381SOL     OW43562   3.270   0.358   0.676 -0.4249  0.3784  0.1463
 9381SOL    HW143563   3.201   0.355   0.742  1.6345 -0.0012  2.3698
 9381SOL    HW243564   3.246   0.430   0.619 -3.2549 -0.4867  0.1718
 9382SOL     OW43565   2.830   3.706   1.405  0.2115  0.6971  0.0927
 9382SOL    HW143566   2.804   3.764   1.333  2.3589 -0.5678 -1.8025
 9382SOL    HW243567   2.891   3.758   1.457  0.9492  0.6721 -0.7277
 9383SOL     OW43568   4.660   2.949   2.581 -0.4791  0.3703 -0.1809
 9383SOL    HW143569   4.683   2.863   2.616  1.7100  0.9733 -0.0530
 9383SOL    HW243570   4.565   2.954   2.591 -0.3076 -0.8221  2.6015
 9384SOL     OW43571   0.294   4.482   2.689 -0.2273 -0.4945 -0.2032
 9384SOL    HW143572   0.237   4.416   2.650 -1.4719  1.1037 -1.1533
 9384SOL    HW243573   0.305   4.548   2.620  2.3674 -0.4984  0.1292
 9385SOL     OW43574   5.584   1.909  11.481  0.6413  0.4642  0.1704
 9385SOL    HW143575   5.644   1.899  11.407  1.5151  3.8538  0.3330
 9385SOL    HW243576   5.507   1.952  11.444  0.2454  0.3481  0.8488
 9386SOL     OW43577   2.846   5.114   3.116 -0.6446  0.2878 -0.4400
 9386SOL    HW143578   2.875   5.059   3.189  0.3721 -0.4996 -1.4164
 9386SOL    HW243579   2.912   5.100   3.049 -1.1878  1.5750 -1.2443
 9387SOL     OW43580   5.214   0.179   8.398  0.0059  0.0638  0.3096
 9387SOL    HW143581   5.228   0.085   8.392  1.0593  0.1396  1.4860
 9387SOL    HW243582   5.222   0.211   8.308 -2.9334 -1.2906 -0.5142
 9388SOL     OW43583   2.880   1.040   2.237 -0.0246  0.1440  0.0081
 9388SOL    HW143584   2.805   1.092   2.264 -1.7918 -1.6804 -1.2433
 9388SOL    HW243585   2.936   1.101   2.189 -1.9015  0.9713 -1.1573
 9389SOL     OW43586   1.157   0.271   1.492 -0.1524 -0.6384 -0.0960
 9389SOL    HW143587   1.062   0.280   1.484  0.0765  0.9480 -1.2179
 9389SOL    HW243588   1.182   0.332   1.561  0.4582  1.6700 -2.2844
 9390SOL     OW43589   1.259   1.796   8.644 -0.1197  0.0632 -0.3109
 9390SOL    HW143590   1.174   1.798   8.690 -0.6429 -1.0061 -1.2024
 9390SOL    HW243591   1.316   1.747   8.702 -0.5122 -0.4600 -0.3651
 9391SOL     OW43592   3.967   3.343   1.778  0.5809  0.2016 -0.0440
 9391SOL    HW143593   3.954   3.437   1.767 -1.7419  0.2002  2.1851
 9391SOL    HW243594   3.884   3.311   1.813  1.5345 -2.5919 -0.1941
 9392SOL     OW43595   5.162   1.353  10.118 -0.1161  0.0627 -0.3067
 9392SOL    HW143596   5.147   1.324  10.028  0.5882 -1.2509 -0.0203
 9392SOL    HW243597   5.166   1.272  10.168 -0.3272  0.7843  0.8825
 9393SOL     OW43598   5.089   5.890   3.716 -0.4019 -0.0134 -0.1870
 9393SOL    HW143599   5.065   5.813   3.665 -0.8646  0.9238 -1.4000
 9393SOL    HW243600   5.177   5.912   3.687 -1.2124  1.3838 -1.6770
 9394SOL     OW43601   0.374   5.204   0.216  0.1064 -0.1284  0.0015
 9394SOL    HW143602   0.313   5.172   0.283 -0.7011 -0.5162 -0.8996
 9394SOL    HW243603   0.449   5.145   0.223  0.0804 -0.0992  0.6323
 9395SOL     OW43604   5.834   5.634   1.275 -0.3584  0.3334  0.1953
 9395SOL    HW143605   5.920   5.674   1.286 -0.8305  1.2131  0.7632
 9395SOL    HW243606   5.775   5.708   1.262 -0.8662 -0.3151 -1.3187
 9396SOL     OW43607   3.289   1.113  11.498  0.3484 -0.1458  0.4971
 9396SOL    HW143608   3.295   1.055  11.574 -2.4353 -0.6007  0.4045
 9396SOL    HW243609   3.293   1.055  11.423  0.7909  0.0966  0.3302
 9397SOL     OW43610   4.693   0.002  -0.025 -0.0586  0.0985  0.4977
 9397SOL    HW143611   4.651   0.086  -0.007 -0.3787  0.0673 -0.0929
 9397SOL    HW243612   4.683  -0.048   0.056 -0.2343  0.4751  0.7092
 9398SOL     OW43613   4.702   2.069   0.325  0.3537 -0.0610 -0.8487
 9398SOL    HW143614   4.793   2.075   0.295 -0.0180  0.1413 -1.9664
 9398SOL    HW243615   4.650   2.087   0.247 -0.6536 -0.4392 -0.2720
 9399SOL     OW43616   0.953   1.092   8.385 -0.4765 -0.4926 -0.5157
 9399SOL    HW143617   0.858   1.086   8.373 -0.1847 -2.4314 -2.1262
 9399SOL    HW243618   0.973   1.021   8.447  0.2221 -1.8645 -2.2624
 9400SOL     OW43619   2.376   3.836   8.098  0.2656 -0.3645  0.2989
 9400SOL    HW143620   2.406   3.918   8.059 -2.4977  0.9349  0.8453
 9400SOL    HW243621   2.370   3.775   8.024 -0.1177  0.6495 -0.5233
 9401SOL     OW43622   2.257   3.775   2.495  0.7352 -0.8184  0.2114
 9401SOL    HW143623   2.304   3.714   2.439  1.2130 -0.5124  0.2765
 9401SOL    HW243624   2.230   3.723   2.570  0.1124 -1.2263 -0.2910
 9402SOL     OW43625   0.309   5.527   9.788  0.0991 -0.5387 -0.4465
 9402SOL    HW143626   0.327   5.539   9.881  1.0750 -0.3636 -0.6565
 9402SOL    HW243627   0.392   5.499   9.751 -0.2670 -0.5262 -1.2909
 9403SOL     OW43628   4.848   5.422   8.951 -0.5199 -0.0110  0.0230
 9403SOL    HW143629   4.757   5.404   8.973 -0.3017 -0.5365  0.5206
 9403SOL    HW243630   4.864   5.370   8.872 -0.2287 -1.0936  0.7846
 9404SOL     OW43631   1.068   1.541  10.639 -0.0720  0.2129  0.1282
 9404SOL    HW143632   1.034   1.508  10.722  0.1968  0.9271  0.5324
 9404SOL    HW243633   1.005   1.512  10.574 -0.9383  0.6780  0.7483
 9405SOL     OW43634   0.909   4.539   1.368  0.0920 -0.1196 -0.1963
 9405SOL    HW143635   0.992   4.569   1.332 -0.5208 -0.7143 -2.1540
 9405SOL    HW243636   0.883   4.467   1.310 -1.1373 -0.8061  1.1852
 9406SOL     OW43637   4.143   5.237   2.812 -0.1464 -0.0421 -0.5894
 9406SOL    HW143638   4.120   5.252   2.903  0.7999  1.5511 -0.5942
 9406SOL    HW243639   4.090   5.300   2.763  0.9224  0.5833 -0.9570
 9407SOL     OW43640   4.449   1.144  11.300 -0.2371 -0.0856  0.1883
 9407SOL    HW143641   4.459   1.088  11.223  1.7383 -0.1175  0.4468
 9407SOL    HW243642   4.364   1.186  11.288 -0.0960 -0.3307 -1.8487
 9408SOL     OW43643   1.516   1.449   9.249  0.8616 -0.2834  0.1829
 9408SOL    HW143644   1.449   1.516   9.267  1.3074 -0.3664  2.3530
 9408SOL    HW243645   1.496   1.417   9.161 -0.5801  1.2820 -0.0843
 9409SOL     OW43646   1.136   2.339  10.235  0.3172 -0.2678  0.0218
 9409SOL    HW143647   1.109   2.363  10.324  1.2788  0.1105  0.2163
 9409SOL    HW243648   1.055   2.311  10.192 -0.3794  0.8074  0.6054
 9410SOL     OW43649   1.531   5.737  11.782 -0.3092 -0.1544  0.2430
 9410SOL    HW143650   1.457   5.693  11.741  0.1874 -0.7988  0.0188
 9410SOL    HW243651   1.592   5.666  11.803 -0.2305  0.2464  1.4100
 9411SOL     OW43652   2.235   5.884   0.467  0.6258 -0.2385 -0.0713
 9411SOL    HW143653   2.319   5.902   0.510 -0.4165  0.7382  1.5963
 9411SOL    HW243654   2.225   5.789   0.474  0.7015 -0.1490  1.4344
 9412SOL     OW43655   1.317   5.617   1.034  0.0101 -0.7978  0.0701
 9412SOL    HW143656   1.321   5.632   0.940 -0.2873 -2.1047 -0.1620
 9412SOL    HW243657   1.225   5.634   1.057 -0.2259 -1.7823 -0.1155
 9413SOL     OW43658   2.982   2.138   3.966  0.1182 -0.4624  0.0081
 9413SOL    HW143659   3.000   2.232   3.962 -0.7492 -0.2183  1.8209
 9413SOL    HW243660   2.888   2.132   3.981 -0.2043 -1.6719 -2.2426
 9414SOL     OW43661   0.700   4.064   1.168 -0.0634 -0.0056  0.4801
 9414SOL    HW143662   0.687   3.984   1.116  1.0214 -0.1718  0.4363
 9414SOL    HW243663   0.619   4.074   1.217 -0.2044 -1.1533  0.5054
 9415SOL     OW43664   4.075   4.945   9.349  0.4295 -0.7920  0.5019
 9415SOL    HW143665   4.111   4.857   9.362  0.0671 -0.7273  2.0488
 9415SOL    HW243666   4.046   4.972   9.436  1.2513  1.1728  0.2066
 9416SOL     OW43667   3.284   0.802   9.676  0.1401  0.2153  0.1167
 9416SOL    HW143668   3.235   0.839   9.602 -1.8165  0.8281  1.6905
 9416SOL    HW243669   3.346   0.741   9.635 -0.4809  0.9932 -2.0769
 9417SOL     OW43670   1.647   2.860  11.399 -0.2863  0.4565 -0.1796
 9417SOL    HW143671   1.642   2.930  11.334 -0.5648 -0.0259 -0.6826
 9417SOL    HW243672   1.590   2.792  11.365 -0.9830  0.4786  0.9170
 9418SOL     OW43673   2.592   5.056   1.145  0.2459  0.2046  0.2069
 9418SOL    HW143674   2.594   5.056   1.241  0.8566 -1.7746  0.2141
 9418SOL    HW243675   2.500   5.040   1.123  0.2798 -0.3743  0.4779
 9419SOL     OW43676   4.359   1.487  12.087  0.2259 -0.0834  0.5042
 9419SOL    HW143677   4.331   1.467  12.176 -1.1491 -0.9785 -0.1010
 9419SOL    HW243678   4.278   1.510  12.041  0.8195 -0.2721 -0.6676
 9420SOL     OW43679   5.084   2.822   1.155  0.2360  0.6117  0.0315
 9420SOL    HW143680   5.138   2.885   1.107  0.8402 -0.5894 -0.8793
 9420SOL    HW243681   5.085   2.855   1.246  1.8012  1.0693 -0.1283
 9421SOL     OW43682   5.916   0.212   2.242  0.1337 -0.1064  0.1282
 9421SOL    HW143683   5.869   0.183   2.320 -0.0870  0.6301  0.2731
 9421SOL    HW243684   5.847   0.239   2.181  0.3335  0.1235 -0.0004
 9422SOL     OW43685   4.922   2.951  10.637 -0.3420 -0.3020 -0.6977
 9422SOL    HW143686   4.831   2.923  10.622 -0.5117  0.0829 -0.3908
 9422SOL    HW243687   4.930   3.033  10.588 -0.1009 -0.4343 -0.8832
 9423SOL     OW43688   2.490   1.320   2.730  0.2745  0.9111  0.6587
 9423SOL    HW143689   2.540   1.241   2.712  0.5518  1.4820 -1.1527
 9423SOL    HW243690   2.458   1.348   2.645 -2.7897  0.8028  1.6919
 9424SOL     OW43691   4.196   5.095  11.065  0.2486 -0.3587 -0.1412
 9424SOL    HW143692   4.281   5.095  11.110  0.7875 -1.7099 -1.1327
 9424SOL    HW243693   4.148   5.023  11.106  0.3723 -0.9543 -1.0285
 9425SOL     OW43694   4.748   4.945   0.834  0.0425 -0.3868 -0.3111
 9425SOL    HW143695   4.692   4.872   0.808 -0.2079 -0.0582 -0.7218
 9425SOL    HW243696   4.835   4.908   0.845  0.0822 -0.5953 -1.3064
 9426SOL     OW43697   5.126   2.081  10.216  0.1908 -0.5129  0.2287
 9426SOL    HW143698   5.148   2.130  10.295 -0.0968 -0.0465  0.0190
 9426SOL    HW243699   5.122   2.147  10.147  0.7045 -0.9545 -0.2276
 9427SOL     OW43700   2.886   5.715   9.886 -0.3224  0.1363 -0.3036
 9427SOL    HW143701   2.981   5.727   9.889 -0.0959 -1.0156 -1.9731
 9427SOL    HW243702   2.862   5.737   9.796 -1.0722 -3.1968 -0.9883
 9428SOL     OW43703   5.502   1.906  10.711 -0.4101  0.5900  0.5216
 9428SOL    HW143704   5.439   1.907  10.783 -0.6324  3.8217  0.3828
 9428SOL    HW243705   5.451   1.880  10.634 -1.1979  1.4346  0.7473
 9429SOL     OW43706   0.198   3.807   0.378 -0.1607  0.2420 -0.1546
 9429SOL    HW143707   0.206   3.900   0.398 -0.8254  0.4859 -0.9757
 9429SOL    HW243708   0.266   3.790   0.313  0.6870 -0.1007  0.8095
 9430SOL     OW43709   2.433   2.986  11.347 -0.3506  0.0377  0.4196
 9430SOL    HW143710   2.418   2.929  11.272  0.4170  0.3032  0.0572
 9430SOL    HW243711   2.388   2.943  11.420 -0.0170 -0.8825  0.0899
 9431SOL     OW43712   1.655   5.218   2.723  0.1461  0.9930 -0.2870
 9431SOL    HW143713   1.702   5.294   2.687 -0.0247  1.1289 -0.2256
 9431SOL    HW243714   1.572   5.216   2.674  0.2446  0.7140 -0.4446
 9432SOL     OW43715   2.720   3.904  12.377  0.6860  0.0891  0.2774
 9432SOL    HW143716   2.784   3.833  12.374  1.2261  0.5250  1.2432
 9432SOL    HW243717   2.636   3.861  12.389  1.0797 -0.3572  1.4992
 9433SOL     OW43718   3.461   4.880   8.227  0.1124  0.1915 -0.6904
 9433SOL    HW143719   3.407   4.819   8.176  2.4468 -1.2551 -1.4976
 9433SOL    HW243720   3.532   4.904   8.169  0.1209  2.4232  0.2096
 9434SOL     OW43721   2.988   1.654   1.741  0.4701 -0.1850  0.1538
 9434SOL    HW143722   3.018   1.643   1.831 -1.2391 -1.6542  0.5631
 9434SOL    HW243723   2.992   1.748   1.726 -1.5235  0.3536  2.5971
 9435SOL     OW43724   4.386   4.119   0.318 -0.0046 -0.0924 -0.7096
 9435SOL    HW143725   4.337   4.142   0.239 -0.5911  0.7141 -0.1237
 9435SOL    HW243726   4.424   4.202   0.348 -0.5407 -0.2126  0.3571
 9436SOL     OW43727   0.222   5.365   0.599 -0.5650  0.4512  0.4279
 9436SOL    HW143728   0.160   5.379   0.671 -1.8636 -0.9958 -0.3885
 9436SOL    HW243729   0.218   5.447   0.549 -3.7171 -0.5126 -1.0293
 9437SOL     OW43730   2.321   2.397  12.496 -0.0360  0.0019 -0.6537
 9437SOL    HW143731   2.234   2.432  12.516 -0.8175 -2.1168 -0.1986
 9437SOL    HW243732   2.366   2.468  12.451 -1.8219  1.3115 -0.4163
 9438SOL     OW43733   4.809   2.017   9.026 -0.0351 -0.4765 -0.0690
 9438SOL    HW143734   4.833   1.946   9.085 -2.8403  0.5539  2.4299
 9438SOL    HW243735   4.865   2.091   9.053  2.2343 -1.3743 -2.0745
 9439SOL     OW43736   3.279   1.089   1.214 -0.8107  0.6864 -0.1447
 9439SOL    HW143737   3.232   1.095   1.297  0.4704 -1.7241  0.8148
 9439SOL    HW243738   3.213   1.062   1.150 -1.5112  1.1260  0.3857
 9440SOL     OW43739   2.446   3.543   8.072 -0.2517 -0.0214 -0.2460
 9440SOL    HW143740   2.438   3.574   7.982 -0.5616 -0.9971 -0.5634
 9440SOL    HW243741   2.399   3.459   8.073 -1.5211  0.6791  1.1814
 9441SOL     OW43742   3.645   2.169   3.285  0.8920  0.1975 -0.0662
 9441SOL    HW143743   3.715   2.228   3.257 -0.1453  0.7534 -1.5693
 9441SOL    HW243744   3.575   2.228   3.314  0.9767 -0.3524  1.3393
 9442SOL     OW43745   0.115   2.406  10.674 -0.7001  0.9122  0.2435
 9442SOL    HW143746   0.185   2.465  10.646  0.5921 -0.8346 -0.2927
 9442SOL    HW243747   0.105   2.426  10.768  1.5984  0.1391  0.6979
 9443SOL     OW43748   3.835   1.473   8.693  0.2648  0.0924 -0.3846
 9443SOL    HW143749   3.837   1.509   8.782 -0.6927 -1.7227  0.4062
 9443SOL    HW243750   3.795   1.541   8.640 -2.5178 -0.1900  1.2817
 9444SOL     OW43751   1.526   4.959   2.587 -0.6272 -0.4197  0.3069
 9444SOL    HW143752   1.433   4.978   2.574 -0.4188  0.2841 -0.1618
 9444SOL    HW243753   1.531   4.929   2.678 -1.2254  0.0841  0.5147
 9445SOL     OW43754   2.593   3.205  10.236 -0.4454 -0.2037 -0.2283
 9445SOL    HW143755   2.540   3.246  10.168 -0.7836  0.5122  0.4546
 9445SOL    HW243756   2.564   3.113  10.238  0.8272 -0.6748 -2.2675
 9446SOL     OW43757   2.893   3.443   1.377  0.2936  0.2916 -0.5868
 9446SOL    HW143758   2.862   3.534   1.383  1.8025  0.7418  0.6095
 9446SOL    HW243759   2.826   3.392   1.423  0.6805  1.1031  0.9092
 9447SOL     OW43760   0.283   5.841   2.103  0.0679 -0.3870 -0.1395
 9447SOL    HW143761   0.342   5.843   2.178  0.3388  1.1563 -0.3909
 9447SOL    HW243762   0.195   5.837   2.142  0.1111  2.2910  0.3024
 9448SOL     OW43763   3.569   1.206   1.818 -0.8531 -0.1739  0.2986
 9448SOL    HW143764   3.529   1.293   1.827 -0.2221 -0.0394  1.9459
 9448SOL    HW243765   3.663   1.222   1.826 -0.7397 -1.0225  0.6978
 9449SOL     OW43766   2.450   3.143   8.339 -0.0190  0.2852  0.5184
 9449SOL    HW143767   2.397   3.103   8.269  2.1832  1.1845 -1.7191
 9449SOL    HW243768   2.438   3.084   8.414 -1.0404 -1.6759 -1.1304
 9450SOL     OW43769   5.359   4.719   2.856 -0.5649 -0.2526  1.0084
 9450SOL    HW143770   5.392   4.666   2.784 -1.0287 -2.4601  2.3915
 9450SOL    HW243771   5.422   4.792   2.862 -0.0150 -0.5216 -1.0063
 9451SOL     OW43772   4.852   4.520   0.950  0.5654 -0.1343  0.1078
 9451SOL    HW143773   4.766   4.511   0.991 -0.1691  0.6329 -1.2180
 9451SOL    HW243774   4.834   4.562   0.866  2.3239  0.6962  0.1230
 9452SOL     OW43775   1.662   1.115   1.626 -0.0899 -0.2728 -0.8041
 9452SOL    HW143776   1.727   1.164   1.678 -0.9087 -0.2324  0.2002
 9452SOL    HW243777   1.583   1.116   1.680 -0.4929 -1.6095 -1.3513
 9453SOL     OW43778   0.421   0.780   0.743 -0.1896 -0.1022  0.6759
 9453SOL    HW143779   0.399   0.789   0.835  0.7501  0.3660  0.8596
 9453SOL    HW243780   0.369   0.706   0.713  0.2014 -0.8328  1.8010
 9454SOL     OW43781   5.872   1.613   2.715  0.3198  0.3597  0.1092
 9454SOL    HW143782   5.870   1.680   2.646 -0.1925 -0.7168 -0.9379
 9454SOL    HW243783   5.907   1.659   2.792  0.6502  1.6397 -0.7883
 9455SOL     OW43784   2.118   3.406  12.094  0.7028  0.3799 -0.4447
 9455SOL    HW143785   2.069   3.440  12.019  1.8986  1.3704 -0.7984
 9455SOL    HW243786   2.054   3.356  12.143 -0.5100  1.1062 -1.2427
 9456SOL     OW43787   0.999   5.198   8.731 -0.2238 -0.4436 -0.0210
 9456SOL    HW143788   1.034   5.129   8.673  0.8617  1.1857 -1.3705
 9456SOL    HW243789   0.913   5.218   8.695 -0.5959 -1.1734  0.4515
 9457SOL     OW43790   1.540   4.873   2.856  0.1677  0.3531 -0.0393
 9457SOL    HW143791   1.597   4.940   2.895  0.7484  0.6697 -1.4223
 9457SOL    HW243792   1.581   4.790   2.880  1.7834  0.5943 -1.8472
 9458SOL     OW43793   3.851   2.285   1.960 -0.2630  0.3307 -0.1354
 9458SOL    HW143794   3.926   2.280   2.018  0.8001  1.9164 -1.3122
 9458SOL    HW243795   3.888   2.301   1.873 -1.9116  0.3724 -0.8662
 9459SOL     OW43796   5.821   3.806  12.455  0.2555 -0.0734  0.0784
 9459SOL    HW143797   5.752   3.871  12.445  0.9531  0.4986 -1.0455
 9459SOL    HW243798   5.887   3.849  12.510  0.5560  0.0424 -0.3701
 9460SOL     OW43799   3.114   1.294  10.604 -0.5769  0.4374  0.5333
 9460SOL    HW143800   3.192   1.335  10.640 -0.0214 -0.3368  0.2292
 9460SOL    HW243801   3.043   1.323  10.661 -0.0550  1.0746  0.8648
 9461SOL     OW43802   5.231   2.142   1.168 -0.0038 -0.1813  0.3544
 9461SOL    HW143803   5.160   2.197   1.202  0.3893 -0.1994  1.2171
 9461SOL    HW243804   5.311   2.190   1.189  0.2321  0.0001 -0.9181
 9462SOL     OW43805   1.469   4.464   8.778 -0.0808  0.3589  0.3690
 9462SOL    HW143806   1.522   4.537   8.746 -1.2631  0.8640 -0.4605
 9462SOL    HW243807   1.460   4.406   8.703 -0.5242  0.1517  0.5799
 9463SOL     OW43808   1.115   2.898   8.758  0.3109  0.2549  0.0361
 9463SOL    HW143809   1.037   2.855   8.723  2.0520 -1.8620 -1.4608
 9463SOL    HW243810   1.101   2.901   8.853 -2.4831  1.8536 -0.3914
 9464SOL     OW43811   0.729   2.123   1.121  1.0416 -0.0436  0.9721
 9464SOL    HW143812   0.797   2.058   1.134  0.1795 -1.8686 -2.7789
 9464SOL    HW243813   0.776   2.200   1.089  1.3809 -1.5120 -2.2593
 9465SOL     OW43814   0.416   0.885   4.193 -0.2983 -0.3037  0.2116
 9465SOL    HW143815   0.494   0.836   4.219  0.6152  0.3648 -1.1968
 9465SOL    HW243816   0.358   0.819   4.154  0.0565 -0.5961  0.1771
 9466SOL     OW43817   1.014   4.206   3.008  0.0552 -0.2031  0.3767
 9466SOL    HW143818   0.936   4.231   2.959 -0.4675 -0.6325  0.9829
 9466SOL    HW243819   1.067   4.286   3.011 -0.4897  0.1689  0.2171
 9467SOL     OW43820   5.589   1.945   7.929  0.2444  0.2602 -0.1843
 9467SOL    HW143821   5.557   1.973   8.015 -2.5777  0.7992 -1.3629
 9467SOL    HW243822   5.612   2.026   7.884  0.6052  0.0607 -0.3608
 9468SOL     OW43823   1.606   3.741  10.295  0.1127  0.3752  0.2589
 9468SOL    HW143824   1.556   3.672  10.252  0.1066 -0.8390  2.1435
 9468SOL    HW243825   1.551   3.819  10.288 -1.9313 -0.8540  2.0399
 9469SOL     OW43826   2.630   0.390   8.855  0.2247 -0.3648 -0.2788
 9469SOL    HW143827   2.704   0.352   8.904  0.0743 -0.7744 -0.3633
 9469SOL    HW243828   2.627   0.339   8.774 -1.0121 -1.2635  0.3159
 9470SOL     OW43829   0.963   4.498   7.626  0.2878  0.1958 -0.8487
 9470SOL    HW143830   1.024   4.564   7.660  0.3358 -0.6134  0.6849
 9470SOL    HW243831   0.879   4.544   7.621 -0.1063 -0.1257  2.0594
 9471SOL     OW43832   2.531   0.060   8.794 -0.5930 -0.4583  0.2082
 9471SOL    HW143833   2.515  -0.029   8.764  0.7953 -0.7586  0.2891
 9471SOL    HW243834   2.571   0.049   8.880 -0.7670  0.2558  0.3791
 9472SOL     OW43835   1.904   3.788  10.382  0.4321  0.2698  0.3058
 9472SOL    HW143836   1.820   3.812  10.421  1.3658  0.9533  1.9649
 9472SOL    HW243837   1.925   3.703  10.420 -0.3771 -0.7712 -1.5390
 9473SOL     OW43838   5.604   5.352   2.482  0.2670 -0.1004  0.3339
 9473SOL    HW143839   5.523   5.347   2.431  0.1245 -1.2152  0.6574
 9473SOL    HW243840   5.577   5.390   2.566  0.4419  1.4109 -0.2805
 9474SOL     OW43841   5.638   5.274   3.224  0.0500  0.1023  0.0808
 9474SOL    HW143842   5.628   5.179   3.220  1.9127 -0.1184  0.2079
 9474SOL    HW243843   5.597   5.298   3.307  1.2032 -0.8310  0.9392
 9475SOL     OW43844   4.969   2.194  11.075  0.0458 -0.8889 -0.9505
 9475SOL    HW143845   4.909   2.138  11.124  0.3784 -1.0456 -0.7148
 9475SOL    HW243846   4.915   2.234  11.007 -0.6137 -0.0211  0.0505
 9476SOL     OW43847   5.830   4.805   9.837  0.4165  0.1534 -0.1743
 9476SOL    HW143848   5.881   4.743   9.783  1.4640  1.7790 -1.1026
 9476SOL    HW243849   5.896   4.854   9.886 -0.4323  0.2003  0.9518
 9477SOL     OW43850   5.137   1.595  11.315  0.3122 -0.6904 -0.5952
 9477SOL    HW143851   5.139   1.513  11.365 -1.2428 -0.3756  0.0222
 9477SOL    HW243852   5.099   1.571  11.231  0.3418 -0.6967 -0.6066
 9478SOL     OW43853   0.474   2.025  10.804  0.3998 -0.0892 -0.5216
 9478SOL    HW143854   0.448   2.090  10.738 -0.7852  0.6555  0.6370
 9478SOL    HW243855   0.528   2.074  10.866  3.5342 -1.3192 -2.1644
 9479SOL     OW43856   0.940   5.324   1.656  0.1048  0.5387 -0.0700
 9479SOL    HW143857   0.904   5.383   1.722 -0.6105 -1.2613  1.1809
 9479SOL    HW243858   0.865   5.300   1.602  0.3132  0.4175 -0.3086
 9480SOL     OW43859   4.602   4.949   0.205  0.1815 -0.0209  0.2866
 9480SOL    HW143860   4.667   4.883   0.178 -0.4126 -1.1112  1.4699
 9480SOL    HW243861   4.518   4.904   0.197 -0.3244  0.9580  0.0592
 9481SOL     OW43862   3.017   0.258  12.232 -0.2865 -0.0610  0.1780
 9481SOL    HW143863   3.062   0.343  12.241  0.7725 -0.6316  0.3789
 9481SOL    HW243864   3.067   0.212  12.165  0.2135 -1.2095  1.3176
 9482SOL     OW43865   5.151   4.924   3.434  0.3229 -0.5955  0.4100
 9482SOL    HW143866   5.243   4.900   3.425  0.0680 -1.0477 -1.2123
 9482SOL    HW243867   5.149   5.019   3.419  0.5620 -0.5325  0.7715
 9483SOL     OW43868   1.356   0.321   9.896  0.2593 -0.0749  0.0071
 9483SOL    HW143869   1.383   0.369   9.818 -0.6775  0.0691 -0.2291
 9483SOL    HW243870   1.406   0.239   9.891  0.2922 -0.0212 -0.6921
 9484SOL     OW43871   3.629   3.394   9.896 -0.0659  0.1842 -0.3560
 9484SOL    HW143872   3.646   3.365   9.806  0.3729 -0.4640 -0.0691
 9484SOL    HW243873   3.699   3.456   9.915 -0.8183  1.1944 -0.8574
 9485SOL     OW43874   3.634   3.129  11.860  0.0418 -0.3582  0.6947
 9485SOL    HW143875   3.622   3.039  11.888 -2.0613  0.3835  2.3327
 9485SOL    HW243876   3.676   3.172  11.934 -0.3860  0.3498  0.5325
 9486SOL     OW43877   1.669   2.328   9.874  0.1113 -0.6430 -0.6330
 9486SOL    HW143878   1.758   2.342   9.904  0.4337 -3.3527 -0.2683
 9486SOL    HW243879   1.677   2.266   9.801 -1.6324 -2.7926  0.9251
 9487SOL     OW43880   0.398   5.161   0.974  0.9631  0.4667 -0.0067
 9487SOL    HW143881   0.431   5.220   0.906  0.4009  3.8477  2.4822
 9487SOL    HW243882   0.311   5.194   0.994  0.4179 -1.5781  1.0825
 9488SOL     OW43883   2.872   4.051   9.764  0.3721  0.2770 -0.1060
 9488SOL    HW143884   2.825   4.008   9.835  1.8930  0.0092  0.7496
 9488SOL    HW243885   2.915   4.126   9.804  2.4571 -0.7159 -0.4157
 9489SOL     OW43886   4.336   4.772   2.931  0.3859 -0.7900 -0.9150
 9489SOL    HW143887   4.263   4.716   2.906 -1.7135  1.1619  0.5699
 9489SOL    HW243888   4.314   4.858   2.894  0.6786  0.4108  1.5574
 9490SOL     OW43889   2.605   4.039  11.203 -0.2971 -0.3015  0.1015
 9490SOL    HW143890   2.550   4.088  11.264  0.6962  2.4147 -1.1148
 9490SOL    HW243891   2.665   3.990  11.260 -0.8006  0.5063  1.3544
 9491SOL     OW43892   1.979   0.389   9.541 -0.5446 -0.0692 -0.4440
 9491SOL    HW143893   1.884   0.392   9.545 -0.5523  2.7805 -1.7374
 9491SOL    HW243894   2.001   0.409   9.450  1.3293  3.0713  0.6079
 9492SOL     OW43895   2.795   1.091   9.137 -0.8174 -0.1962  0.0065
 9492SOL    HW143896   2.879   1.126   9.108 -0.4487 -2.0459 -1.2208
 9492SOL    HW243897   2.771   1.146   9.212  0.2404  1.9732 -1.1972
 9493SOL     OW43898   5.063   1.944   1.075  0.0654 -0.2434 -0.2733
 9493SOL    HW143899   5.146   1.991   1.087 -1.8645  3.1432  0.4313
 9493SOL    HW243900   5.055   1.890   1.153  1.3982 -0.2577 -0.1244
 9494SOL     OW43901   3.079   4.202   8.411  0.2851  0.0344 -0.0926
 9494SOL    HW143902   3.099   4.179   8.502  2.6193  0.8780 -0.3683
 9494SOL    HW243903   3.093   4.121   8.362  1.2638  0.1410 -0.0048
 9495SOL     OW43904   2.969   2.337   8.700 -0.1593 -0.2409  0.2054
 9495SOL    HW143905   2.883   2.346   8.742 -0.6936  1.6347 -1.2228
 9495SOL    HW243906   3.032   2.343   8.772 -1.1276  1.0215  0.9505
 9496SOL     OW43907   0.520   0.073   3.612 -0.6294 -0.4574  0.3854
 9496SOL    HW143908   0.458   0.016   3.567  0.6945 -0.8338 -0.9993
 9496SOL    HW243909   0.567   0.015   3.671 -0.1784 -0.5694 -0.0767
 9497SOL     OW43910   5.797   3.331   3.164 -0.0744 -0.1002 -0.0539
 9497SOL    HW143911   5.795   3.236   3.173 -0.2214 -0.2055 -1.1269
 9497SOL    HW243912   5.710   3.354   3.133  0.8145  0.0851 -2.4899
 9498SOL     OW43913   3.879   0.556   8.528 -0.0397 -0.5766 -0.1279
 9498SOL    HW143914   3.938   0.560   8.453  0.8634  0.2868  0.6245
 9498SOL    HW243915   3.804   0.609   8.502  1.8829  2.8771  0.9641
 9499SOL     OW43916   3.079   0.024   3.584 -0.4239 -0.0320 -0.3212
 9499SOL    HW143917   3.101   0.016   3.676 -1.3646 -0.6161 -0.1413
 9499SOL    HW243918   3.155  -0.010   3.537 -0.0414  0.0563  0.2369
 9500SOL     OW43919   5.820   5.728   9.748  1.1521 -1.0436 -0.5653
 9500SOL    HW143920   5.793   5.809   9.790 -2.4243 -2.2477 -0.3793
 9500SOL    HW243921   5.908   5.746   9.716  0.4999  2.8576 -0.4069
 9501SOL     OW43922   1.179   2.773   3.199 -0.2959 -0.9527 -0.0584
 9501SOL    HW143923   1.155   2.684   3.228 -1.0849 -1.4447 -2.1124
 9501SOL    HW243924   1.153   2.775   3.107  1.4365  0.8096 -0.5214
 9502SOL     OW43925   2.509   2.135   0.541  0.4310  0.5823  0.2657
 9502SOL    HW143926   2.576   2.202   0.558  0.1289  1.1949 -0.8427
 9502SOL    HW243927   2.557   2.063   0.500  0.3878  1.1623 -0.8532
 9503SOL     OW43928   3.368   5.250  11.039  0.2607  0.2060  0.1962
 9503SOL    HW143929   3.376   5.323  10.978 -0.6425 -1.4905 -2.0182
 9503SOL    HW243930   3.423   5.181  11.001 -0.5516 -0.9859  1.1287
 9504SOL     OW43931   3.029   0.534   3.666  0.6486 -0.3578  1.2298
 9504SOL    HW143932   3.021   0.460   3.726  0.4228 -2.3679 -1.1973
 9504SOL    HW243933   3.055   0.495   3.583  0.6495  2.3222 -0.0904
 9505SOL     OW43934   1.120   1.049   3.860  0.6889 -0.1494  0.4681
 9505SOL    HW143935   1.045   1.096   3.896  1.4129 -0.8640  2.9850
 9505SOL    HW243936   1.081   0.981   3.804 -0.4518  0.9542 -0.1032
 9506SOL     OW43937   5.891   1.748   9.997  0.0871 -0.4527 -0.1564
 9506SOL    HW143938   5.892   1.832  10.044  1.2544  0.6295 -2.0552
 9506SOL    HW243939   5.978   1.742   9.958 -0.8642 -1.3309 -2.1694
 9507SOL     OW43940   5.067   3.604  12.282  0.0416  0.4945 -0.0940
 9507SOL    HW143941   5.085   3.671  12.216  0.6094  0.2998 -0.1366
 9507SOL    HW243942   5.051   3.653  12.362 -0.5828  0.7324 -0.3584
 9508SOL     OW43943   4.154   4.057   9.325 -0.3550  0.0479  0.0879
 9508SOL    HW143944   4.218   4.005   9.374 -0.6309 -1.2320 -0.9077
 9508SOL    HW243945   4.072   4.046   9.373 -0.6593 -1.3253 -0.7183
 9509SOL     OW43946   0.844   2.150   2.185 -0.5001  0.5714 -0.1937
 9509SOL    HW143947   0.891   2.173   2.266 -2.0410 -0.3349  0.9852
 9509SOL    HW243948   0.800   2.231   2.160 -1.3750  0.4246  0.8251
 9510SOL     OW43949   4.186   1.270   0.205 -0.5796  0.4707  0.3856
 9510SOL    HW143950   4.161   1.246   0.294  2.0832 -1.8836  0.5538
 9510SOL    HW243951   4.149   1.201   0.151  2.7266 -1.3306  0.3214
 9511SOL     OW43952   1.445   0.303   9.221  0.4205 -0.1645 -0.1699
 9511SOL    HW143953   1.489   0.375   9.175 -0.4222 -0.2539 -1.1235
 9511SOL    HW243954   1.353   0.313   9.197  0.1471 -0.9261  0.5603
 9512SOL     OW43955   4.793   1.436   1.755  0.8132 -0.3061  0.3235
 9512SOL    HW143956   4.785   1.353   1.708 -2.0081 -0.3397  0.7764
 9512SOL    HW243957   4.791   1.503   1.687 -2.2119 -0.3982  0.2907
 9513SOL     OW43958   0.813   3.239   8.689  0.3117  0.1257 -0.0294
 9513SOL    HW143959   0.854   3.164   8.732  1.5253  1.5514  1.3594
 9513SOL    HW243960   0.872   3.262   8.618 -0.2268 -0.4051 -0.6663
 9514SOL     OW43961   4.026   4.736   1.710 -0.2027  0.5862 -0.6701
 9514SOL    HW143962   3.980   4.664   1.667 -1.1315  1.6545 -1.5110
 9514SOL    HW243963   4.076   4.777   1.640 -1.9020  2.4821 -0.8335
 9515SOL     OW43964   2.796   1.272   3.781  0.3165 -0.4881 -0.5662
 9515SOL    HW143965   2.799   1.192   3.833 -1.5875 -0.0352  0.3167
 9515SOL    HW243966   2.774   1.243   3.693 -0.3011 -0.9451 -0.2664
 9516SOL     OW43967   0.701   5.633  12.146  0.3061  0.4647 -0.4600
 9516SOL    HW143968   0.712   5.562  12.083 -2.0074 -0.1557 -0.2113
 9516SOL    HW243969   0.710   5.590  12.231 -2.6672  0.1389 -0.2724
 9517SOL     OW43970   3.449   0.344   8.771  0.1064 -0.5947  0.2859
 9517SOL    HW143971   3.518   0.403   8.799  0.3582 -0.2528 -1.0217
 9517SOL    HW243972   3.401   0.393   8.705 -1.5399 -0.7360  1.3340
 9518SOL     OW43973   3.888   2.866   9.607 -0.5535 -0.4370  0.2284
 9518SOL    HW143974   3.899   2.954   9.571  0.3650 -0.5493  0.2236
 9518SOL    HW243975   3.925   2.871   9.695 -1.4635 -0.5466  0.6257
 9519SOL     OW43976   0.034   4.116   1.896  0.2817 -0.2182  0.3212
 9519SOL    HW143977   0.010   4.030   1.932 -1.0231 -0.2618 -0.6136
 9519SOL    HW243978   0.044   4.172   1.973 -0.4032 -0.8238  0.8617
 9520SOL     OW43979   1.995   0.299   3.388  0.3333 -0.4026 -0.1581
 9520SOL    HW143980   1.980   0.356   3.312  0.5120  0.0533  0.1469
 9520SOL    HW243981   1.938   0.223   3.372 -1.6643  0.8877  0.5424
 9521SOL     OW43982   1.869   5.860   3.502  0.0581  0.5531 -0.4630
 9521SOL    HW143983   1.788   5.850   3.553  0.4422  0.4383  0.1341
 9521SOL    HW243984   1.900   5.948   3.525  1.6368 -0.4778  1.5881
 9522SOL     OW43985   1.746   1.701  11.213 -0.1815  0.2485 -0.1400
 9522SOL    HW143986   1.833   1.662  11.201 -0.0972  0.2850  0.3610
 9522SOL    HW243987   1.697   1.636  11.263 -0.4506  0.2179 -0.4418
 9523SOL     OW43988   4.483   0.408   2.206  0.6674 -0.3454 -0.0807
 9523SOL    HW143989   4.398   0.452   2.207  0.4761 -0.7185  0.2678
 9523SOL    HW243990   4.524   0.437   2.125  0.3938  0.1929 -0.0319
 9524SOL     OW43991   5.801   2.727   0.741  0.3199  0.6060 -0.0371
 9524SOL    HW143992   5.835   2.814   0.722  1.1079  0.6007  1.2523
 9524SOL    HW243993   5.722   2.720   0.688 -0.0246  2.2933  0.2106
 9525SOL     OW43994   1.844   0.813   9.401  0.3177  0.3097 -0.0742
 9525SOL    HW143995   1.752   0.788   9.393 -0.0258  1.8330 -1.2504
 9525SOL    HW243996   1.889   0.757   9.339 -0.2779  1.7491 -1.8442
 9526SOL     OW43997   5.528   5.639  11.759  0.3917 -0.1883 -0.3797
 9526SOL    HW143998   5.620   5.637  11.731  0.3635  0.8235 -0.5848
 9526SOL    HW243999   5.508   5.732  11.767 -0.3466 -0.4254  0.5724
 9527SOL     OW44000   1.687   5.147  12.044 -0.0237  0.1481  0.3065
 9527SOL    HW144001   1.663   5.194  12.124 -1.3625 -1.6208  0.9548
 9527SOL    HW244002   1.605   5.140  11.995  0.5458  0.1029 -0.6515
 9528SOL     OW44003   3.721   2.407   0.599 -0.4367  0.1324  0.4936
 9528SOL    HW144004   3.735   2.491   0.556 -0.9313 -0.4319 -0.7709
 9528SOL    HW244005   3.637   2.417   0.644  0.3350  0.9049  1.8051
 9529SOL     OW44006   0.710   4.534  11.807 -0.1178 -0.6004  0.0786
 9529SOL    HW144007   0.683   4.494  11.724 -0.1237  0.3964 -0.4074
 9529SOL    HW244008   0.668   4.620  11.807  0.8475 -0.1189  0.5691
 9530SOL     OW44009   3.828   5.314   2.382  0.5968  0.0432  0.3252
 9530SOL    HW144010   3.744   5.356   2.398  0.2434  0.4851 -2.5521
 9530SOL    HW244011   3.877   5.328   2.464 -2.3301 -0.8890  2.3200
 9531SOL     OW44012   2.689   3.408   8.713  0.3097  0.2053  0.2082
 9531SOL    HW144013   2.644   3.373   8.635 -0.3896  0.8264  0.3264
 9531SOL    HW244014   2.630   3.474   8.747  0.8757  0.3342  0.9541
 9532SOL     OW44015   2.658   0.837   9.641  0.8093  0.1387  0.2007
 9532SOL    HW144016   2.636   0.794   9.723  0.8506  0.4269  0.3654
 9532SOL    HW244017   2.594   0.804   9.578  2.3268 -2.0190 -0.2521
 9533SOL     OW44018   2.569   0.060  10.946 -0.1384  0.1056  0.5062
 9533SOL    HW144019   2.617   0.001  11.003 -1.8341 -0.6058  1.2421
 9533SOL    HW244020   2.620   0.063  10.865 -0.3644 -2.9016  0.2005
 9534SOL     OW44021   1.501   2.518  11.969  0.5212  0.4453  0.3610
 9534SOL    HW144022   1.581   2.567  11.992 -0.2904  1.2102  1.5882
 9534SOL    HW244023   1.445   2.583  11.927 -0.8787  0.7652  2.6981
 9535SOL     OW44024   3.001   1.051   3.886  0.2051  0.0478  0.7979
 9535SOL    HW144025   2.925   0.996   3.901  1.2002 -1.5832 -0.0598
 9535SOL    HW244026   3.068   1.017   3.946  1.7018 -1.4927 -1.6563
 9536SOL     OW44027   2.540   2.501   3.690 -0.3523 -0.2609 -0.2257
 9536SOL    HW144028   2.583   2.444   3.755  0.3960  1.2705  0.6540
 9536SOL    HW244029   2.593   2.491   3.611  0.5983  0.2654  0.3362
 9537SOL     OW44030   0.994   5.117   2.409 -0.3597 -0.2335  0.3009
 9537SOL    HW144031   1.020   5.113   2.317 -1.8050  2.0356 -0.2431
 9537SOL    HW244032   0.982   5.026   2.434  2.7788 -1.0563 -0.9347
 9538SOL     OW44033   5.788   4.786   2.079 -0.1731 -0.3885 -0.3103
 9538SOL    HW144034   5.744   4.841   2.014  0.9674 -0.4572 -1.1504
 9538SOL    HW244035   5.829   4.848   2.140 -0.8997 -0.3254  0.1265
 9539SOL     OW44036   3.664   0.543   9.278 -0.1821 -0.0462 -0.2244
 9539SOL    HW144037   3.643   0.481   9.349 -1.4390  1.3426  0.6366
 9539SOL    HW244038   3.585   0.545   9.224  0.5813 -0.6947 -1.3808
 9540SOL     OW44039   5.041   1.741   8.620 -0.1538 -0.0208 -0.0271
 9540SOL    HW144040   5.136   1.742   8.632 -0.2371 -1.5826  0.9082
 9540SOL    HW244041   5.021   1.826   8.580  1.4350  0.9795  1.2314
 9541SOL     OW44042   0.191   4.340   9.838  0.5952 -0.3230 -0.0234
 9541SOL    HW144043   0.147   4.350   9.753 -0.6555  0.0729  0.6638
 9541SOL    HW244044   0.232   4.425   9.853 -0.7093  0.2176  0.6015
 9542SOL     OW44045   3.035   0.602   9.674 -0.2304 -0.2150 -0.3454
 9542SOL    HW144046   2.981   0.627   9.749  0.3710 -3.1504  1.1145
 9542SOL    HW244047   3.119   0.644   9.691 -0.4660  0.1294 -0.0018
 9543SOL     OW44048   5.923   2.083   3.698  0.0730  0.3651  0.3083
 9543SOL    HW144049   5.886   2.068   3.786  1.2868  0.5386  0.8516
 9543SOL    HW244050   5.846   2.093   3.642 -0.7643 -1.6973  1.0003
 9544SOL     OW44051   5.079   4.977  11.598  0.6300 -0.0909 -0.5446
 9544SOL    HW144052   5.058   5.065  11.631  0.5968 -0.7914  1.3488
 9544SOL    HW244053   5.157   4.951  11.647 -0.9691 -2.2276  0.9614
 9545SOL     OW44054   3.403   3.948   0.990  0.0638 -0.0540 -0.8049
 9545SOL    HW144055   3.358   4.029   0.965 -0.0163 -0.1435 -0.9502
 9545SOL    HW244056   3.496   3.970   0.985  0.0491 -0.0704 -1.1723
 9546SOL     OW44057   2.025   1.568   1.703 -0.3399  0.1754  0.1034
 9546SOL    HW144058   2.078   1.506   1.754 -0.0790  1.0313  0.9007
 9546SOL    HW244059   1.950   1.587   1.759 -0.8028  0.0082 -0.4559
 9547SOL     OW44060   5.647   4.016   3.569  0.2602  0.1747  0.0941
 9547SOL    HW144061   5.718   3.956   3.594  0.2949 -1.0486 -2.7480
 9547SOL    HW244062   5.567   3.971   3.598  0.4308 -0.0988  0.1498
 9548SOL     OW44063   5.520   2.625   8.994 -0.4866 -0.3222 -0.2798
 9548SOL    HW144064   5.569   2.701   8.963 -1.3317  0.2970 -0.1415
 9548SOL    HW244065   5.584   2.554   8.997  0.5711  0.6573  0.6504
 9549SOL     OW44066   2.978   5.033   4.056  0.1708  0.4714  0.4861
 9549SOL    HW144067   2.943   4.953   4.017 -1.8688  1.2066  0.7761
 9549SOL    HW244068   3.071   5.014   4.067 -0.1597 -1.6405  0.0052
 9550SOL     OW44069   1.983   0.135   9.268  0.1945  0.1107 -0.3775
 9550SOL    HW144070   1.936   0.165   9.346  1.0053  1.4792 -0.4004
 9550SOL    HW244071   2.006   0.044   9.288 -2.0773 -0.4582 -0.2031
 9551SOL     OW44072   2.569   5.109   3.476  0.1502  0.2836 -0.4030
 9551SOL    HW144073   2.577   5.154   3.560 -2.4912 -0.4342  0.2900
 9551SOL    HW244074   2.590   5.175   3.410  0.7311  1.2610  0.7491
 9552SOL     OW44075   1.405   5.071  11.969  0.1697 -0.3251 -0.0622
 9552SOL    HW144076   1.405   5.098  11.877  1.4793 -0.0562 -0.0003
 9552SOL    HW244077   1.335   5.006  11.975 -0.1682 -0.0815 -1.1658
 9553SOL     OW44078   5.527   1.674   7.928 -0.2450  0.2958  0.0727
 9553SOL    HW144079   5.595   1.637   7.872  1.6378 -0.0975  2.5472
 9553SOL    HW244080   5.546   1.768   7.931  1.9890 -0.1979  3.0642
 9554SOL     OW44081   0.888   1.997   9.116 -0.5336  0.4708 -0.0324
 9554SOL    HW144082   0.911   1.916   9.070  2.3733  0.5035  1.1971
 9554SOL    HW244083   0.843   1.968   9.195  1.8203 -0.0977  1.1532
 9555SOL     OW44084   4.942   2.668   3.514 -0.3720 -0.5498  0.0697
 9555SOL    HW144085   5.030   2.682   3.479 -0.5974  0.8963  0.0409
 9555SOL    HW244086   4.927   2.574   3.505  0.8684 -0.6917 -0.6397
 9556SOL     OW44087   2.028   5.039   8.990 -0.2434 -0.5253  0.0852
 9556SOL    HW144088   1.960   5.027   9.056 -1.5543  4.2502 -0.2301
 9556SOL    HW244089   1.986   5.019   8.907 -1.0198  1.3292 -0.0007
 9557SOL     OW44090   0.959   4.065   1.651 -0.0794  0.2098  0.6685
 9557SOL    HW144091   0.923   3.982   1.620  1.5775 -0.0523 -0.6386
 9557SOL    HW244092   0.917   4.131   1.597  0.5726 -0.0130 -0.1329
 9558SOL     OW44093   2.911   3.059   3.468 -0.2637  0.1473 -0.2524
 9558SOL    HW144094   2.964   2.980   3.461 -0.1060  0.1537  0.7758
 9558SOL    HW244095   2.857   3.060   3.389 -1.3558 -1.7904  0.4364
 9559SOL     OW44096   2.407   2.274   9.757 -0.3609  0.1810  0.1441
 9559SOL    HW144097   2.320   2.307   9.780  0.0228 -0.2688  2.3075
 9559SOL    HW244098   2.398   2.179   9.757 -0.6531  0.1451 -2.9048
 9560SOL     OW44099   5.004   1.079  10.066 -0.0452 -0.5983 -0.2127
 9560SOL    HW144100   4.919   1.036  10.074  0.4464 -1.2666  1.7491
 9560SOL    HW244101   5.068   1.008  10.069  0.5995 -0.0758 -1.3056
 9561SOL     OW44102   0.724   4.579   9.306 -0.1817 -0.0685  0.0706
 9561SOL    HW144103   0.759   4.494   9.334 -1.5899 -1.0439 -1.0279
 9561SOL    HW244104   0.773   4.600   9.227 -0.3913 -0.2759 -0.1197
 9562SOL     OW44105   1.137   1.387   1.111  0.2828  0.7119  0.6611
 9562SOL    HW144106   1.232   1.386   1.124  0.0314  1.2316  2.5779
 9562SOL    HW244107   1.123   1.455   1.045  1.2304  0.5620  0.2842
 9563SOL     OW44108   4.906   2.686   9.244 -0.5575 -0.0864 -0.0460
 9563SOL    HW144109   4.942   2.750   9.183  0.2359 -0.0508  0.4517
 9563SOL    HW244110   4.812   2.693   9.233 -0.5030  1.6136  0.4730
 9564SOL     OW44111   0.616   1.950  12.337  0.1709 -0.1410  0.2580
 9564SOL    HW144112   0.656   1.866  12.316  0.5819  0.1237 -0.0347
 9564SOL    HW244113   0.536   1.928  12.386 -0.1067 -0.7238 -0.4504
 9565SOL     OW44114   4.014   2.425   1.127 -0.2815 -0.4416 -0.0198
 9565SOL    HW144115   4.036   2.415   1.220 -0.3426 -2.5462 -0.2017
 9565SOL    HW244116   3.922   2.451   1.127 -0.1160  0.1429  0.5294
 9566SOL     OW44117   1.870   4.988   8.695 -0.0312  0.6933  0.3033
 9566SOL    HW144118   1.863   4.908   8.644  1.6833  1.2248 -0.8123
 9566SOL    HW244119   1.798   5.043   8.665 -0.9860 -0.2652  0.8024
 9567SOL     OW44120   4.878   1.389  10.212  0.6774  0.3871  0.1042
 9567SOL    HW144121   4.791   1.426  10.225  0.1314 -0.4929 -0.9804
 9567SOL    HW244122   4.898   1.406  10.120  1.7111  0.7062  0.3833
 9568SOL     OW44123   1.560   3.750   1.516 -0.3813 -0.8526 -0.2872
 9568SOL    HW144124   1.574   3.726   1.424 -1.7286  0.6009 -0.9088
 9568SOL    HW244125   1.530   3.841   1.512  1.3082 -0.1721  1.7357
 9569SOL     OW44126   5.541   3.074   0.592  0.1471 -0.2537  0.0354
 9569SOL    HW144127   5.550   3.147   0.653  0.6626 -1.4484  1.4504
 9569SOL    HW244128   5.601   3.007   0.627  1.6518 -0.3835 -2.6978
 9570SOL     OW44129   5.677   0.181  11.551 -0.4315 -0.1752 -0.6848
 9570SOL    HW144130   5.727   0.261  11.565 -1.2283  0.5032 -1.6268
 9570SOL    HW244131   5.737   0.110  11.575  0.4265  0.6852 -0.2808
 9571SOL     OW44132   5.696   0.921   9.224  0.3127  0.4266  0.2875
 9571SOL    HW144133   5.786   0.948   9.239  0.4056  1.2927 -1.7826
 9571SOL    HW244134   5.697   0.826   9.241  1.2683  0.6781  1.7234
 9572SOL     OW44135   2.020   3.100   1.091 -0.0219 -0.2879 -0.5424
 9572SOL    HW144136   2.023   3.063   1.179 -0.5291  0.5379 -0.1783
 9572SOL    HW244137   2.102   3.149   1.083 -0.8837  1.3101  0.2112
 9573SOL     OW44138   1.756   0.490   8.585  0.1168 -0.1195  0.0919
 9573SOL    HW144139   1.810   0.436   8.642 -0.4428  0.3206  1.0496
 9573SOL    HW244140   1.811   0.507   8.508  0.5802 -1.3837  0.1314
 9574SOL     OW44141   1.653   2.144   9.647 -0.3318 -0.3346  0.2751
 9574SOL    HW144142   1.611   2.060   9.665 -3.2673  1.3213  1.6409
 9574SOL    HW244143   1.591   2.189   9.589  0.1851  1.6553  1.2277
 9575SOL     OW44144   1.243   2.351   2.070 -0.4504 -0.2448  0.3537
 9575SOL    HW144145   1.293   2.432   2.067 -0.6834 -0.1126  0.0035
 9575SOL    HW244146   1.168   2.367   2.013 -1.2085 -0.2362  1.3387
 9576SOL     OW44147   3.685   5.967   9.365  0.1069  0.5609 -0.0365
 9576SOL    HW144148   3.695   5.873   9.349  3.0099  0.9994 -1.0881
 9576SOL    HW244149   3.748   5.986   9.434 -0.3713  1.7823  0.0755
 9577SOL     OW44150   1.858   4.413   1.166 -0.0792  0.1570 -0.4925
 9577SOL    HW144151   1.828   4.408   1.257  0.3811 -0.0554 -0.3467
 9577SOL    HW244152   1.857   4.323   1.135  0.7976  0.0862 -0.3479
 9578SOL     OW44153   3.129   5.647  11.893  0.6008  0.1390  0.0111
 9578SOL    HW144154   3.206   5.674  11.843  0.8776 -0.1269  0.2913
 9578SOL    HW244155   3.098   5.729  11.933  0.0166  0.4593 -1.0740
 9579SOL     OW44156   2.836   4.091   2.226 -0.3725 -1.0329 -0.2009
 9579SOL    HW144157   2.821   4.037   2.148 -1.9731 -1.0790  0.1141
 9579SOL    HW244158   2.757   4.144   2.234 -0.5062 -1.4575  1.7118
 9580SOL     OW44159   2.846   5.605   1.900  0.2475  0.0222 -0.2423
 9580SOL    HW144160   2.901   5.609   1.822 -2.1795 -1.5002 -2.1145
 9580SOL    HW244161   2.788   5.680   1.892  1.4329  1.1300  1.2820
 9581SOL     OW44162   3.175   2.691  10.231  0.1207  0.1603 -0.0354
 9581SOL    HW144163   3.112   2.751  10.271 -1.8200 -3.4290  2.4689
 9581SOL    HW244164   3.125   2.643  10.165  0.5956 -1.6166  0.8689
 9582SOL     OW44165   4.400   5.742  12.403  0.0792 -0.6861 -0.3592
 9582SOL    HW144166   4.354   5.825  12.395  2.0959  0.4913 -0.0415
 9582SOL    HW244167   4.431   5.740  12.494  0.2421 -1.6711 -0.4237
 9583SOL     OW44168   1.731   3.581  11.212  0.2444  0.4097  0.0644
 9583SOL    HW144169   1.824   3.585  11.188 -0.1241  0.6846 -1.3563
 9583SOL    HW244170   1.690   3.535  11.138 -0.6757 -0.1240  0.9029
 9584SOL     OW44171   0.828   0.684   2.762  0.4007 -0.0421 -0.0539
 9584SOL    HW144172   0.856   0.711   2.675 -1.9373 -0.1369 -0.8697
 9584SOL    HW244173   0.802   0.766   2.805 -0.7607 -0.2751 -0.3089
 9585SOL     OW44174   0.617   0.134  12.133  0.3052 -0.1700 -0.0911
 9585SOL    HW144175   0.633   0.222  12.169  1.4135 -0.4092  0.0410
 9585SOL    HW244176   0.696   0.085  12.157 -0.0390 -1.0264 -0.7152
 9586SOL     OW44177   2.132   2.101   7.781 -0.3667 -0.0145 -0.5693
 9586SOL    HW144178   2.187   2.040   7.731 -0.4437 -0.4704 -0.1094
 9586SOL    HW244179   2.137   2.069   7.871 -1.1290  0.1322 -0.4702
 9587SOL     OW44180   0.587   3.735   9.381  0.3013 -0.0933 -0.4152
 9587SOL    HW144181   0.629   3.722   9.296  1.9301 -0.8730  0.4966
 9587SOL    HW244182   0.517   3.670   9.383  1.5139 -1.4244 -0.3626
 9588SOL     OW44183   3.125   3.607   1.587  0.4615 -0.3922  0.0495
 9588SOL    HW144184   3.143   3.690   1.632 -0.2867 -0.2759  0.1281
 9588SOL    HW244185   3.099   3.633   1.499 -0.2004 -0.5287  0.2081
 9589SOL     OW44186   5.108   4.337   3.964  0.4409  0.4470 -0.1212
 9589SOL    HW144187   5.061   4.255   3.981 -1.9355  2.6431  4.6644
 9589SOL    HW244188   5.048   4.389   3.911 -0.1513  1.0039  1.0835
 9590SOL     OW44189   5.772   2.581  10.897 -0.1179  0.2836  0.0794
 9590SOL    HW144190   5.701   2.547  10.951 -0.2740 -0.8478 -0.8008
 9590SOL    HW244191   5.741   2.666  10.866 -1.0766 -0.1876 -0.2692
 9591SOL     OW44192   4.154   3.151  11.475 -0.1149 -0.1378 -0.5600
 9591SOL    HW144193   4.217   3.079  11.474  0.6275  0.4412  2.3945
 9591SOL    HW244194   4.200   3.223  11.432  0.4147 -0.3643 -0.3801
 9592SOL     OW44195   2.708   5.308   0.696  0.4501 -0.6767 -0.2981
 9592SOL    HW144196   2.628   5.259   0.716  0.0956 -1.0924 -2.5683
 9592SOL    HW244197   2.742   5.266   0.617  2.2693  0.2804 -0.0440
 9593SOL     OW44198   3.929   5.725   2.474 -0.1531 -0.2748  0.3434
 9593SOL    HW144199   3.886   5.721   2.389  0.3640 -0.4213  0.0809
 9593SOL    HW244200   3.865   5.765   2.532 -1.4428 -2.3837  0.4579
 9594SOL     OW44201   4.432   2.922   3.115  0.1541  0.7187 -0.3121
 9594SOL    HW144202   4.481   2.893   3.192  1.8471  0.8679 -1.2974
 9594SOL    HW244203   4.363   2.856   3.104  2.1140 -1.2997 -0.7538
 9595SOL     OW44204   3.954  -0.029   2.905  0.3040 -0.7079 -0.0127
 9595SOL    HW144205   3.976   0.050   2.855 -1.6448 -0.2249 -0.1518
 9595SOL    HW244206   3.978  -0.007   2.995  0.3547 -0.1983 -0.1466
 9596SOL     OW44207   4.998   2.278  12.244  0.6544  0.3892  0.0989
 9596SOL    HW144208   5.061   2.207  12.232  0.3236  0.0185  0.5009
 9596SOL    HW244209   4.952   2.256  12.325  0.2687  0.8514  0.0146
 9597SOL     OW44210   1.174   5.589   9.725  0.0134  0.1232 -0.0750
 9597SOL    HW144211   1.093   5.640   9.725 -0.5167 -0.6926 -0.9418
 9597SOL    HW244212   1.155   5.515   9.783  0.7896  0.9081  1.2117
 9598SOL     OW44213   1.030   1.303   8.120  0.3679  0.3177 -1.1080
 9598SOL    HW144214   1.120   1.310   8.150  0.3646 -2.1834 -0.4074
 9598SOL    HW244215   0.982   1.366   8.174  1.2396 -0.3681  0.5206
 9599SOL     OW44216   1.617   2.310   4.307  0.2878  0.5236  0.1584
 9599SOL    HW144217   1.592   2.361   4.231  1.5545 -3.1367 -2.8727
 9599SOL    HW244218   1.534   2.277   4.343 -0.2266  1.1157 -0.4814
 9600SOL     OW44219   3.499   1.220   9.553  0.1247 -0.3376  0.2683
 9600SOL    HW144220   3.429   1.250   9.611 -0.7252  2.6383 -2.2113
 9600SOL    HW244221   3.573   1.278   9.572  0.0705  0.1842 -1.1257
 9601SOL     OW44222   0.693   2.578   4.085  0.1653  0.1044  0.3552
 9601SOL    HW144223   0.685   2.486   4.061 -1.3394  0.0813  0.9139
 9601SOL    HW244224   0.786   2.598   4.073  0.5123 -1.4982  0.3063
 9602SOL     OW44225   4.296   4.904   3.482  0.1923  0.1207  0.4630
 9602SOL    HW144226   4.348   4.870   3.410 -2.2723 -1.0880 -0.8353
 9602SOL    HW244227   4.244   4.974   3.443  0.4252  0.9383  1.5962
 9603SOL     OW44228   4.664   5.192   1.615 -0.0170  0.0273  0.0958
 9603SOL    HW144229   4.667   5.103   1.580 -2.3757  0.0047 -0.1376
 9603SOL    HW244230   4.732   5.194   1.682  2.3399 -0.9148 -2.1787
 9604SOL     OW44231   3.703   5.389   0.457  0.3765  0.2462  0.1350
 9604SOL    HW144232   3.689   5.482   0.440  1.4104  0.6722  1.4595
 9604SOL    HW244233   3.780   5.366   0.406  0.9206  0.4591  0.8491
 9605SOL     OW44234   3.345   5.762   1.091  0.0642 -0.2858 -0.3224
 9605SOL    HW144235   3.388   5.735   1.173 -3.1538 -0.1051  1.4954
 9605SOL    HW244236   3.374   5.853   1.078  1.9164 -0.8490 -0.3226
 9606SOL     OW44237   4.294   1.726   9.409  0.2968 -0.6875 -0.1526
 9606SOL    HW144238   4.383   1.748   9.435  0.0602 -0.9664  0.8959
 9606SOL    HW244239   4.287   1.632   9.425 -0.2486 -0.6313 -0.0531
 9607SOL     OW44240   4.561   1.052   0.821 -0.0658  0.1362 -0.4309
 9607SOL    HW144241   4.479   1.008   0.796 -0.1347  0.8959 -1.6049
 9607SOL    HW244242   4.550   1.142   0.789  1.0115  0.3812 -0.1115
 9608SOL     OW44243   4.528   2.418   8.891 -0.1029 -0.4357 -0.0161
 9608SOL    HW144244   4.566   2.347   8.943  0.4215  0.6715  1.1293
 9608SOL    HW244245   4.595   2.486   8.891 -0.6246  0.0755 -1.0654
 9609SOL     OW44246   2.119   5.912  10.822 -0.2446  0.1695  0.3917
 9609SOL    HW144247   2.188   5.928  10.757  1.2613 -1.4427  1.5506
 9609SOL    HW244248   2.041   5.952  10.784  1.1921  1.5676 -1.2049
 9610SOL     OW44249   5.226   5.229   9.816 -0.2406 -0.1169 -0.0183
 9610SOL    HW144250   5.247   5.228   9.910  2.7191  1.4769 -0.6012
 9610SOL    HW244251   5.144   5.278   9.810 -0.7795 -0.7697  1.7848
 9611SOL     OW44252   4.882   0.402   8.413 -0.2046  0.1162  0.2420
 9611SOL    HW144253   4.790   0.396   8.387 -0.0275 -0.2877 -0.3074
 9611SOL    HW244254   4.928   0.431   8.334  0.3311 -1.0191  0.1167
 9612SOL     OW44255   1.429   2.062   2.879 -0.4689  0.1588  0.0638
 9612SOL    HW144256   1.475   2.068   2.963 -0.4143 -0.6735  0.1021
 9612SOL    HW244257   1.379   1.981   2.886  0.5336 -0.5812 -1.1946
 9613SOL     OW44258   3.363   4.446  10.674  0.1236  0.0463  0.7127
 9613SOL    HW144259   3.451   4.438  10.712  0.3951 -0.3446  0.0235
 9613SOL    HW244260   3.363   4.530  10.629  1.2777 -1.4010 -2.1046
 9614SOL     OW44261   5.703   0.031  12.134  0.6149  0.1170 -0.4466
 9614SOL    HW144262   5.714   0.015  12.041 -2.6819 -1.4647 -0.6358
 9614SOL    HW244263   5.780  -0.010  12.174  0.5947 -1.8047 -2.2671
 9615SOL     OW44264   1.057   5.560   0.365 -0.0686  0.4439  0.7761
 9615SOL    HW144265   1.023   5.530   0.449  0.4192  1.0614  1.2028
 9615SOL    HW244266   1.133   5.614   0.388 -0.9204  2.0046  0.0316
 9616SOL     OW44267   2.023   1.707  10.169 -0.0179 -0.3393  0.5740
 9616SOL    HW144268   2.061   1.657  10.241  1.0816 -0.0915  0.1718
 9616SOL    HW244269   2.054   1.663  10.090  1.2590  1.1881  0.2103
 9617SOL     OW44270   4.367   1.630   0.816  0.1995  0.1318 -0.1191
 9617SOL    HW144271   4.331   1.716   0.839 -0.1172  0.2508 -1.0656
 9617SOL    HW244272   4.451   1.649   0.775  0.3196 -0.0355  0.0464
 9618SOL     OW44273   5.793   5.638  11.619 -0.5048 -0.6277 -0.3125
 9618SOL    HW144274   5.852   5.603  11.553  1.4261 -1.7699  1.9256
 9618SOL    HW244275   5.827   5.725  11.639  1.2402 -1.7634  1.8642
 9619SOL     OW44276   1.264   5.469   3.854 -0.2284  0.4687  0.1461
 9619SOL    HW144277   1.350   5.497   3.821  0.1155 -0.0899  0.5607
 9619SOL    HW244278   1.284   5.414   3.930 -0.9402 -0.1242 -0.0925
 9620SOL     OW44279   0.792   2.823  11.859  0.2746  0.0556 -0.4156
 9620SOL    HW144280   0.842   2.832  11.941  0.9144  0.0138 -0.7940
 9620SOL    HW244281   0.857   2.792  11.795  0.5518  3.1819 -1.7341
 9621SOL     OW44282   5.723   4.959   2.520 -0.8598 -0.3437  0.1698
 9621SOL    HW144283   5.808   4.915   2.520 -1.3089 -1.3158  2.3410
 9621SOL    HW244284   5.744   5.052   2.519  0.1517 -0.5665 -2.3914
 9622SOL     OW44285   0.353   3.465   0.311 -0.3377 -0.2632  0.6800
 9622SOL    HW144286   0.387   3.412   0.239  0.5761  0.8014  0.3061
 9622SOL    HW244287   0.370   3.556   0.284 -2.9226  0.2878  0.7775
 9623SOL     OW44288   5.857   0.885  10.884 -0.3007 -0.1492 -0.2120
 9623SOL    HW144289   5.929   0.907  10.826 -0.2152 -0.2005 -0.1251
 9623SOL    HW244290   5.843   0.791  10.870  1.6037 -0.7992  1.9732
 9624SOL     OW44291   4.588   3.632  11.126 -0.5649  0.9056  0.1509
 9624SOL    HW144292   4.606   3.724  11.147 -0.4092  1.0836 -0.7304
 9624SOL    HW244293   4.497   3.632  11.098 -0.9363  0.5777  1.3115
 9625SOL     OW44294   5.222   5.293  10.812 -0.2404  0.3801 -0.0782
 9625SOL    HW144295   5.158   5.348  10.766 -1.1268 -1.2815 -0.8731
 9625SOL    HW244296   5.214   5.319  10.904 -2.6798 -0.3804 -0.0459
 9626SOL     OW44297   4.603   4.167   2.740 -0.1402  0.6367  0.5066
 9626SOL    HW144298   4.597   4.259   2.766  2.3896  0.6006  1.3262
 9626SOL    HW244299   4.622   4.120   2.822 -2.2562 -0.7457  0.2458
 9627SOL     OW44300   1.785   4.865   2.518  0.1819  0.5865 -0.1355
 9627SOL    HW144301   1.707   4.920   2.510  1.1019  2.1468  1.3170
 9627SOL    HW244302   1.847   4.902   2.455  0.5538  0.7680  0.3355
 9628SOL     OW44303   0.755   4.539   8.900  0.3504  0.2853  0.1801
 9628SOL    HW144304   0.688   4.501   8.843 -0.3592  1.7700  0.0085
 9628SOL    HW244305   0.838   4.511   8.861 -0.1450 -1.4486  0.3115
 9629SOL     OW44306   2.564   4.480  10.855 -0.0036 -0.1481  0.6053
 9629SOL    HW144307   2.486   4.434  10.886  0.2249 -0.1456  1.1927
 9629SOL    HW244308   2.534   4.531  10.780 -0.0715 -1.9883 -0.6769
 9630SOL     OW44309   1.433   1.343   1.121  0.7631  0.1896 -0.0783
 9630SOL    HW144310   1.507   1.320   1.064  0.3660 -1.5501  0.0878
 9630SOL    HW244311   1.419   1.265   1.174 -0.9427  0.6592  0.1787
 9631SOL     OW44312   3.475   1.544   9.440 -0.2290  0.2754  0.3344
 9631SOL    HW144313   3.449   1.512   9.526  0.8037 -0.8538  0.2363
 9631SOL    HW244314   3.504   1.634   9.455  1.1610 -0.3320  1.3999
 9632SOL     OW44315   4.037   2.315   1.684  0.4038 -0.5038  0.2804
 9632SOL    HW144316   3.960   2.325   1.628  0.0608 -0.7670  0.7032
 9632SOL    HW244317   4.080   2.236   1.652  0.9365  0.0825 -0.4727
 9633SOL     OW44318   3.440   0.562   8.597  0.1169  0.4940 -0.3226
 9633SOL    HW144319   3.498   0.567   8.521  0.1139  2.4631 -0.2269
 9633SOL    HW244320   3.411   0.652   8.610 -0.0080  0.1388  1.9184
 9634SOL     OW44321   0.793   3.911  11.078 -0.1451  0.1535  0.3982
 9634SOL    HW144322   0.884   3.935  11.097 -0.0457  0.6655 -0.7311
 9634SOL    HW244323   0.778   3.941  10.989 -0.7472 -1.9196 -0.2170
 9635SOL     OW44324   3.258   1.380  10.330  1.0994  0.3209 -0.3402
 9635SOL    HW144325   3.236   1.290  10.353 -0.7694  0.7369 -0.4657
 9635SOL    HW244326   3.179   1.430  10.349  1.7082  1.7384 -1.4462
 9636SOL     OW44327   0.053   4.950   8.843  0.1610  0.4302 -0.3714
 9636SOL    HW144328   0.002   5.027   8.818  0.3150  0.7750  0.3573
 9636SOL    HW244329   0.114   4.937   8.771 -0.6464  0.2915 -1.0415
 9637SOL     OW44330   4.220   2.821   9.503 -0.5651  0.4347 -0.0742
 9637SOL    HW144331   4.233   2.726   9.504 -1.1158  0.3579  1.7485
 9637SOL    HW244332   4.144   2.834   9.446 -0.7854 -0.2780  0.0444
 9638SOL     OW44333   5.057   5.157   0.932  0.3651 -0.0142  0.0649
 9638SOL    HW144334   5.117   5.085   0.949 -2.0142 -2.0510  0.1578
 9638SOL    HW244335   5.095   5.232   0.978  1.6166 -1.7993  2.0070
 9639SOL     OW44336   1.655   3.678   9.938 -0.5028  0.2546 -0.1523
 9639SOL    HW144337   1.706   3.752   9.970 -0.8257 -0.5625  2.3215
 9639SOL    HW244338   1.578   3.674   9.996 -0.4119 -2.0894 -0.1330
 9640SOL     OW44339   1.292   3.145   9.939  0.5021 -0.0439 -0.1437
 9640SOL    HW144340   1.269   3.061   9.898  4.0658 -0.6641 -1.0668
 9640SOL    HW244341   1.316   3.201   9.865 -0.4810  1.3344  0.5760
 9641SOL     OW44342   0.267   3.312  12.082 -0.2939  0.6390 -0.2834
 9641SOL    HW144343   0.243   3.403  12.070 -1.0041  0.4812 -0.1180
 9641SOL    HW244344   0.253   3.296  12.176  0.2051  0.4679 -0.2376
 9642SOL     OW44345   5.869   2.732   8.812 -0.1492 -0.2369 -0.7006
 9642SOL    HW144346   5.945   2.713   8.867 -1.6579  0.9309  1.8927
 9642SOL    HW244347   5.852   2.651   8.765  0.4776 -1.6703  1.4878
 9643SOL     OW44348   4.292   4.572  12.218 -0.2592  0.1797  0.3309
 9643SOL    HW144349   4.333   4.622  12.148  0.2542  1.1577  1.3117
 9643SOL    HW244350   4.256   4.638  12.278 -2.4104 -0.6627  0.0006
 9644SOL     OW44351   0.918   0.285   0.696  0.8558 -0.4910 -0.1274
 9644SOL    HW144352   0.926   0.359   0.636  1.1591  0.1607  0.7137
 9644SOL    HW244353   0.858   0.225   0.651  0.1069  0.5429 -0.5301
 9645SOL     OW44354   3.052   5.378   9.934  0.3479  0.2165 -0.7515
 9645SOL    HW144355   3.083   5.456   9.887 -0.3004  1.6271  1.1197
 9645SOL    HW244356   3.103   5.307   9.896  2.2628  1.7972 -1.2861
 9646SOL     OW44357   3.572   3.080  12.176 -0.3513  0.3484 -0.0230
 9646SOL    HW144358   3.589   2.998  12.130  0.3478 -0.0490  0.9322
 9646SOL    HW244359   3.643   3.088  12.239 -1.0174  1.1427  0.6455
 9647SOL     OW44360   5.751   5.588   0.401  0.0009 -0.3823 -0.5929
 9647SOL    HW144361   5.774   5.508   0.353 -1.5398 -0.3606 -1.3961
 9647SOL    HW244362   5.710   5.644   0.335 -1.2293  0.0574  0.5396
 9648SOL     OW44363   4.711   5.719   8.894 -0.4941  0.1190  0.0877
 9648SOL    HW144364   4.641   5.730   8.829 -1.3955  0.0932  1.0416
 9648SOL    HW244365   4.772   5.657   8.853 -1.1436 -0.0435 -0.6578
 9649SOL     OW44366   4.279   0.186   0.334  0.0545  0.5718 -0.3044
 9649SOL    HW144367   4.193   0.217   0.362 -0.0030  0.8393 -0.7747
 9649SOL    HW244368   4.340   0.246   0.378 -0.0370  1.0154 -0.7679
 9650SOL     OW44369   0.544   2.659   1.576 -0.1591 -0.1140  0.4405
 9650SOL    HW144370   0.546   2.673   1.482 -0.2329  0.1235  0.4716
 9650SOL    HW244371   0.571   2.743   1.613  0.4484 -0.3851  0.6182
 9651SOL     OW44372   0.749   1.838   8.892  0.9500  0.4953 -0.0588
 9651SOL    HW144373   0.703   1.920   8.909 -0.0994 -0.0179 -0.3859
 9651SOL    HW244374   0.681   1.778   8.860  2.4204  0.7742 -3.9518
 9652SOL     OW44375   1.416   3.569   9.079 -0.5761  0.1891  0.1548
 9652SOL    HW144376   1.463   3.511   9.138 -0.5104 -0.3920 -0.4649
 9652SOL    HW244377   1.324   3.561   9.106 -0.3446  1.2748  1.3203
 9653SOL     OW44378   3.453   4.279   7.801  0.3213 -0.3942 -0.8276
 9653SOL    HW144379   3.360   4.280   7.825  0.1602 -0.1583 -1.4383
 9653SOL    HW244380   3.478   4.371   7.802  0.7899 -0.5319  0.2427
 9654SOL     OW44381   5.826   2.496   8.702 -0.8896 -0.1212 -0.1607
 9654SOL    HW144382   5.839   2.440   8.625 -0.0166  0.5430 -0.5113
 9654SOL    HW244383   5.876   2.453   8.772  0.0683  0.3977 -0.5190
 9655SOL     OW44384   1.500   0.681  10.031 -0.0384 -0.7429  0.3120
 9655SOL    HW144385   1.543   0.691  10.116  1.1847 -2.0313 -0.1336
 9655SOL    HW244386   1.490   0.771   9.998 -1.6633 -0.1552  2.3555
 9656SOL     OW44387   2.831   3.693   2.800 -0.2253  0.1204  0.4043
 9656SOL    HW144388   2.922   3.666   2.810 -0.1240  0.9083  1.6985
 9656SOL    HW244389   2.825   3.722   2.709  0.5650 -0.8482  0.0336
 9657SOL     OW44390   2.059   3.757  10.811 -0.0468  0.4959 -0.5765
 9657SOL    HW144391   2.116   3.684  10.784  1.2355  1.7424 -1.3087
 9657SOL    HW244392   2.119   3.822  10.848 -1.2353  0.9853  0.5520
 9658SOL     OW44393   4.099   1.679   2.394 -0.5936  0.5911  0.0412
 9658SOL    HW144394   4.119   1.681   2.488 -1.8582  0.9643  0.3160
 9658SOL    HW244395   4.103   1.586   2.371 -0.0278  0.5192  0.4086
 9659SOL     OW44396   5.652   1.559   2.249 -0.6629  0.6420 -0.0934
 9659SOL    HW144397   5.559   1.556   2.225 -0.6741 -1.6523  0.1391
 9659SOL    HW244398   5.651   1.587   2.341 -1.2701 -1.4639  0.5687
 9660SOL     OW44399   5.908   3.948  10.442 -0.3087  0.1387  0.1272
 9660SOL    HW144400   5.904   4.002  10.521  0.8920 -1.6640  1.4322
 9660SOL    HW244401   5.967   3.996  10.384  1.3805 -0.1627  1.5877
 9661SOL     OW44402   5.259   5.280   2.747 -0.0218 -0.0943  0.7851
 9661SOL    HW144403   5.277   5.203   2.800 -0.5533 -0.9255 -0.2291
 9661SOL    HW244404   5.166   5.296   2.756 -0.3470 -0.9507 -0.8150
 9662SOL     OW44405   1.999   2.277   7.956 -0.4163  0.3109  0.2042
 9662SOL    HW144406   2.003   2.367   7.922 -0.7115 -0.3656 -1.6745
 9662SOL    HW244407   2.045   2.225   7.891 -2.3082 -1.2612  0.0831
 9663SOL     OW44408   3.842   3.652   0.287  0.1218 -0.4999  0.2172
 9663SOL    HW144409   3.761   3.649   0.338  0.6880 -0.4925  1.1414
 9663SOL    HW244410   3.906   3.605   0.342  1.0417  0.5397  0.0492
 9664SOL     OW44411   1.294   4.628   3.489 -0.0020 -0.1737 -0.6453
 9664SOL    HW144412   1.234   4.697   3.460 -1.1090 -0.0720  1.7689
 9664SOL    HW244413   1.362   4.674   3.538  0.7855 -0.5322 -1.3867
 9665SOL     OW44414   1.429   2.586   0.490  0.2017  0.5574 -0.0278
 9665SOL    HW144415   1.350   2.536   0.472  1.0899 -1.0785  0.5345
 9665SOL    HW244416   1.496   2.547   0.435  0.9762  0.9577  0.6116
 9666SOL     OW44417   2.395   0.479   8.623  0.2743 -0.1784  0.3714
 9666SOL    HW144418   2.451   0.402   8.625  1.8471  0.9323 -0.4574
 9666SOL    HW244419   2.410   0.521   8.708  0.7480  0.1490  0.1287
 9667SOL     OW44420   4.240   5.582   3.411  0.7740  0.1490 -0.5036
 9667SOL    HW144421   4.155   5.607   3.446  1.1806  1.1288 -0.1920
 9667SOL    HW244422   4.303   5.611   3.477  1.3346 -0.8193 -0.6008
 9668SOL     OW44423   1.441   2.808   3.460 -0.2843  0.1362 -0.6362
 9668SOL    HW144424   1.349   2.824   3.438 -1.2636 -2.2716  1.5815
 9668SOL    HW244425   1.460   2.871   3.529 -0.1427  0.8840 -1.3482
 9669SOL     OW44426   3.430   5.061   9.852 -0.4141  0.5041 -0.1601
 9669SOL    HW144427   3.470   4.978   9.829 -0.6745  0.2281  0.3548
 9669SOL    HW244428   3.483   5.127   9.807 -0.1027  0.0722 -0.4298
 9670SOL     OW44429   2.302   2.177  12.130  0.5627  0.3964 -0.0034
 9670SOL    HW144430   2.265   2.261  12.104 -0.6709 -0.1018  0.1080
 9670SOL    HW244431   2.321   2.132  12.048  1.8976  1.0520 -0.0770
 9671SOL     OW44432   2.440   3.756  11.845 -0.1728 -0.3227  0.2954
 9671SOL    HW144433   2.445   3.851  11.858  1.1400 -0.5546  1.5448
 9671SOL    HW244434   2.357   3.731  11.885 -2.5342  0.8283 -3.5617
 9672SOL     OW44435   3.904   5.639   2.814  0.1487 -0.1092  1.2109
 9672SOL    HW144436   3.942   5.726   2.828  0.0376  0.1981 -0.3140
 9672SOL    HW244437   3.810   5.655   2.805 -0.0308 -0.5463  2.2664
 9673SOL     OW44438   1.441   1.454   9.879  0.4460  0.2420  1.3290
 9673SOL    HW144439   1.476   1.440   9.967 -1.2468  0.9393  2.1473
 9673SOL    HW244440   1.347   1.465   9.893  0.1144 -0.0173 -0.6201
 9674SOL     OW44441   4.045   3.062  12.239 -0.5683 -0.0884  0.0799
 9674SOL    HW144442   4.043   3.154  12.265 -1.9373 -0.0194 -0.1901
 9674SOL    HW244443   4.103   3.060  12.163  2.4964 -0.0948  2.3654
 9675SOL     OW44444   1.045   2.630   1.036  0.4823 -0.1676 -0.1518
 9675SOL    HW144445   1.116   2.693   1.040 -0.6723  1.1905 -0.4025
 9675SOL    HW244446   1.046   2.598   0.945 -0.0109  0.7875 -0.4990
 9676SOL     OW44447   0.757   2.903   3.031  0.1953  0.1634 -0.2183
 9676SOL    HW144448   0.764   2.811   3.004 -0.2173 -0.0350  0.3205
 9676SOL    HW244449   0.841   2.942   3.007  0.3817 -0.3602 -0.4313
 9677SOL     OW44450   1.684   5.533   1.671  0.1821 -0.4237 -0.2063
 9677SOL    HW144451   1.620   5.599   1.644  1.0374  0.7460  0.5429
 9677SOL    HW244452   1.644   5.489   1.745 -0.5792 -1.0415 -0.9851
 9678SOL     OW44453   3.304   0.301   1.185 -0.6627 -0.6815  0.0060
 9678SOL    HW144454   3.340   0.219   1.151  1.4288 -0.8239  2.4316
 9678SOL    HW244455   3.217   0.277   1.217 -1.2601 -1.2811 -1.9829
 9679SOL     OW44456   2.894   1.273   8.845 -0.0234  0.1674 -0.5715
 9679SOL    HW144457   2.828   1.339   8.826 -0.8173 -0.2250  0.7898
 9679SOL    HW244458   2.959   1.318   8.899 -0.3644 -0.0663  0.0312
 9680SOL     OW44459   0.897   4.784   3.342  0.0139  0.1161  0.3328
 9680SOL    HW144460   0.894   4.876   3.366  3.7609  0.6993 -1.0874
 9680SOL    HW244461   0.931   4.739   3.419  0.6805  0.3037  0.1507
 9681SOL     OW44462   1.451   1.680   1.411  0.2238 -0.1743  0.5183
 9681SOL    HW144463   1.488   1.649   1.494  0.5429 -4.0201 -0.9465
 9681SOL    HW244464   1.372   1.628   1.400  0.1042  0.4096 -1.5093
 9682SOL     OW44465   3.726   0.678   7.876  0.4356 -0.1976  0.2178
 9682SOL    HW144466   3.740   0.707   7.786  1.7840 -0.1399  0.4391
 9682SOL    HW244467   3.746   0.585   7.875 -1.5938 -0.6642  0.0213
 9683SOL     OW44468   1.920   0.633  10.720 -0.7347 -0.2913  0.4839
 9683SOL    HW144469   1.866   0.560  10.690  0.3951 -0.6370 -0.7175
 9683SOL    HW244470   1.919   0.695  10.647  0.1615 -0.1122  0.6200
 9684SOL     OW44471   4.357   5.772   9.610 -0.1353  1.0349  0.1109
 9684SOL    HW144472   4.421   5.722   9.559 -0.2317  2.3776 -1.3787
 9684SOL    HW244473   4.338   5.717   9.686  0.5801 -0.6897 -0.9274
 9685SOL     OW44474   1.067   4.999  10.435 -0.1635  0.0499  0.2706
 9685SOL    HW144475   1.061   5.010  10.340  1.6081 -2.4160 -0.2017
 9685SOL    HW244476   0.981   4.966  10.461 -0.7593  1.0352 -0.4216
 9686SOL     OW44477   1.661   0.634   2.361  0.2133 -0.1764 -0.5906
 9686SOL    HW144478   1.684   0.674   2.445 -0.7864 -0.9499  0.0577
 9686SOL    HW244479   1.670   0.706   2.298  2.3495  0.0519 -0.0509
 9687SOL     OW44480   5.726   3.653  10.920 -0.1422 -0.3965 -0.1929
 9687SOL    HW144481   5.769   3.599  10.854 -0.1132  0.3885 -0.8381
 9687SOL    HW244482   5.797   3.693  10.969 -0.1000  1.1548 -1.4683
 9688SOL     OW44483   2.316   5.307   2.732  0.0194 -0.4553  0.3447
 9688SOL    HW144484   2.300   5.261   2.649 -2.0139 -0.9456  0.9784
 9688SOL    HW244485   2.269   5.256   2.797 -0.3748  1.2522  1.4275
 9689SOL     OW44486   1.257   0.336  12.360  0.0852  0.2131 -0.2977
 9689SOL    HW144487   1.239   0.293  12.277  0.3785  1.8690 -1.2591
 9689SOL    HW244488   1.349   0.317  12.378 -0.4782 -1.7230  0.6250
 9690SOL     OW44489   4.678   3.167   7.768 -0.1172 -0.1371  0.6234
 9690SOL    HW144490   4.718   3.228   7.707  0.9056 -1.9893 -0.6029
 9690SOL    HW244491   4.601   3.134   7.723 -0.2633 -0.3053  0.9892
 9691SOL     OW44492   5.420   4.535   2.645 -0.5130 -0.6013 -0.0594
 9691SOL    HW144493   5.370   4.478   2.587 -0.5958 -1.7454  1.1221
 9691SOL    HW244494   5.454   4.604   2.587 -1.2810 -1.2601 -1.3134
 9692SOL     OW44495   3.079   0.880  10.184 -0.2367 -0.1210  0.0842
 9692SOL    HW144496   3.086   0.972  10.160 -0.3468 -0.1460 -0.0402
 9692SOL    HW244497   3.080   0.880  10.280  1.3232 -0.1026  0.0822
 9693SOL     OW44498   2.977   5.536  10.143 -0.5448  0.5290 -0.1785
 9693SOL    HW144499   2.936   5.596  10.080 -0.5585  1.3966  0.6303
 9693SOL    HW244500   3.008   5.463  10.091 -2.2597  0.3140 -0.9529
 9694SOL     OW44501   4.216   1.263  11.246  0.2916  0.5933 -0.3360
 9694SOL    HW144502   4.176   1.248  11.161  2.7514 -0.0610 -1.4122
 9694SOL    HW244503   4.150   1.312  11.295 -1.1882  0.9246 -2.5899
 9695SOL     OW44504   5.224   1.533   2.441  0.0721 -0.0019  0.3516
 9695SOL    HW144505   5.171   1.603   2.404  0.7372 -0.1451 -0.9085
 9695SOL    HW244506   5.311   1.570   2.449  0.6146 -0.8963 -1.0703
 9696SOL     OW44507   0.763   2.924   2.624 -0.1326  0.8253  0.5006
 9696SOL    HW144508   0.736   3.009   2.659 -0.5083  0.6447  0.6582
 9696SOL    HW244509   0.823   2.888   2.689  1.2021  1.6204 -0.2672
 9697SOL     OW44510   5.828   2.284  10.530  0.2624 -0.8844 -0.0915
 9697SOL    HW144511   5.810   2.196  10.496  0.9442 -0.4248 -1.7110
 9697SOL    HW244512   5.909   2.274  10.580  0.0812 -1.2788  0.1259
 9698SOL     OW44513   1.095   4.464   2.196 -0.1773 -0.2484 -0.2812
 9698SOL    HW144514   1.025   4.454   2.261 -0.0725 -1.5755 -0.3563
 9698SOL    HW244515   1.116   4.375   2.170  0.5843  0.2157 -1.2949
 9699SOL     OW44516   5.151   2.548   2.496  0.6095  0.1977  0.2117
 9699SOL    HW144517   5.120   2.633   2.462 -2.2109 -0.6102  0.6004
 9699SOL    HW244518   5.240   2.540   2.463  0.1378  2.3112 -1.7148
 9700SOL     OW44519   4.306   2.827  11.820  0.6856 -0.4012  0.0638
 9700SOL    HW144520   4.264   2.745  11.846 -0.4259  0.3128  0.5850
 9700SOL    HW244521   4.238   2.875  11.773  1.8915 -0.5574 -1.8936
 9701SOL     OW44522   5.889   0.938   9.715  0.3308  0.1989 -0.2123
 9701SOL    HW144523   5.877   0.936   9.620  1.9808  1.0664 -0.4651
 9701SOL    HW244524   5.863   1.027   9.741  0.7776  0.2675  0.0107
 9702SOL     OW44525   5.950   4.858  10.234  0.2316 -0.0906 -0.0793
 9702SOL    HW144526   5.885   4.882  10.301 -1.3933 -0.5189 -1.4494
 9702SOL    HW244527   5.942   4.763  10.226  0.0430  0.0139 -1.2249
 9703SOL     OW44528   0.332   2.345   1.092 -0.0085  0.1508 -0.5849
 9703SOL    HW144529   0.406   2.332   1.033  1.6192  0.0267  1.3891
 9703SOL    HW244530   0.279   2.266   1.083  2.4504 -1.7876  1.1514
 9704SOL     OW44531   3.170   5.449   2.966  0.0371 -0.6587  0.9372
 9704SOL    HW144532   3.146   5.542   2.962 -0.1095 -0.7246 -0.0296
 9704SOL    HW244533   3.088   5.403   2.947  0.6683 -0.9163 -1.3642
 9705SOL     OW44534   1.548   2.963   0.634  0.7230  0.0165  0.4038
 9705SOL    HW144535   1.556   2.880   0.682 -1.2186  0.4056  1.4731
 9705SOL    HW244536   1.521   2.938   0.546 -2.3513 -0.4211  1.4077
 9706SOL     OW44537   4.172   4.026   2.475 -0.0086 -0.0726 -0.1919
 9706SOL    HW144538   4.224   4.073   2.540 -0.2292 -1.1514  0.7805
 9706SOL    HW244539   4.132   4.094   2.422 -1.0234  0.8725  1.7359
 9707SOL     OW44540   3.092   3.903   8.925 -0.5457 -0.4517  0.2920
 9707SOL    HW144541   3.028   3.975   8.925  0.9861  0.9391 -0.3124
 9707SOL    HW244542   3.060   3.843   8.858 -0.4859  0.9103 -0.9782
 9708SOL     OW44543   1.455   0.807  11.553  0.5609  0.4659  0.1785
 9708SOL    HW144544   1.471   0.771  11.465  0.0456 -0.5428  0.4880
 9708SOL    HW244545   1.403   0.740  11.597  0.3952  1.1869  1.0952
 9709SOL     OW44546   1.576   5.066   3.922  0.1085  0.0604 -0.1495
 9709SOL    HW144547   1.662   5.066   3.965  0.5602  0.9189 -1.0334
 9709SOL    HW244548   1.567   4.978   3.887 -0.8873 -1.1228  2.8901
 9710SOL     OW44549   5.691   3.744   9.065 -0.0239  0.3448  0.3892
 9710SOL    HW144550   5.618   3.687   9.041  0.8804 -1.1044  1.0416
 9710SOL    HW244551   5.674   3.768   9.156 -0.3420  1.0315  0.1515
 9711SOL     OW44552   4.142   0.844  10.378  0.0431 -0.3861  0.1970
 9711SOL    HW144553   4.138   0.788  10.300 -0.3735 -1.0464  0.6911
 9711SOL    HW244554   4.186   0.924  10.347 -1.2072 -0.1444 -1.0100
 9712SOL     OW44555   0.140   5.638   9.516  0.1860 -0.1461  0.0805
 9712SOL    HW144556   0.188   5.557   9.534 -1.1438 -0.9766 -0.0468
 9712SOL    HW244557   0.085   5.618   9.440  1.1894  1.4401 -1.0988
 9713SOL     OW44558   0.295   1.468  11.955 -0.1673 -0.3247  0.0590
 9713SOL    HW144559   0.379   1.458  11.912  0.5937  1.6367  1.0514
 9713SOL    HW244560   0.312   1.441  12.046  0.1418  2.8629  0.9861
 9714SOL     OW44561   4.732   0.423   3.450 -0.1276  0.0869  0.2510
 9714SOL    HW144562   4.684   0.417   3.367 -1.2606  1.7669  0.7570
 9714SOL    HW244563   4.671   0.388   3.515  0.6986 -1.0826  0.4064
 9715SOL     OW44564   5.387   1.249   1.051  0.4823 -0.2024 -0.6244
 9715SOL    HW144565   5.467   1.283   1.091 -0.0304  0.6464 -0.3220
 9715SOL    HW244566   5.379   1.160   1.087  1.2684 -0.2864 -0.6408
 9716SOL     OW44567   4.670   5.825   9.308 -0.0630  0.3875  0.4503
 9716SOL    HW144568   4.619   5.906   9.315 -0.4365  0.0856  1.3938
 9716SOL    HW244569   4.621   5.770   9.248 -0.6045  0.2870  0.9774
 9717SOL     OW44570   4.650   3.178   2.754  0.8264  0.2665  0.1750
 9717SOL    HW144571   4.723   3.124   2.725  0.2553 -1.1298  1.2453
 9717SOL    HW244572   4.677   3.211   2.840  0.0229 -0.7014  0.8271
 9718SOL     OW44573   0.977   4.951  11.589  0.2494 -0.0621 -0.1831
 9718SOL    HW144574   0.897   4.904  11.564  0.4039  0.1455 -1.0861
 9718SOL    HW244575   0.952   5.001  11.667 -0.2402 -0.7204  0.0893
 9719SOL     OW44576   0.283   0.821   0.999  0.3674 -0.1675  0.0298
 9719SOL    HW144577   0.197   0.858   0.984  0.0567 -1.4023 -1.3037
 9719SOL    HW244578   0.274   0.729   0.977  2.2407 -0.1336 -0.9795
 9720SOL     OW44579   3.374   0.873   3.681 -0.1494 -0.4937 -0.3237
 9720SOL    HW144580   3.467   0.874   3.661 -0.1414  0.4656 -0.2631
 9720SOL    HW244581   3.369   0.858   3.775 -0.0785 -1.3972 -0.4658
 9721SOL     OW44582   5.282   5.502  11.789  0.2014  0.1692 -0.0935
 9721SOL    HW144583   5.220   5.542  11.728 -0.1809  1.5368  1.1551
 9721SOL    HW244584   5.366   5.543  11.768  0.4434 -0.6967 -0.8874
 9722SOL     OW44585   0.576   3.873  11.813  0.2856  0.0855 -0.5737
 9722SOL    HW144586   0.545   3.793  11.855 -0.8565 -0.3684 -2.2493
 9722SOL    HW244587   0.669   3.876  11.835 -0.1783 -0.3811  1.5669
 9723SOL     OW44588   5.224   3.222   8.462  0.2340  0.2387  0.0903
 9723SOL    HW144589   5.221   3.136   8.503  0.7402  0.1156 -0.1250
 9723SOL    HW244590   5.140   3.262   8.485 -0.5414 -0.7964 -0.8823
 9724SOL     OW44591   2.492   0.717  12.101 -0.2317 -0.4875  0.2338
 9724SOL    HW144592   2.411   0.681  12.138 -0.2134 -1.0103 -0.2284
 9724SOL    HW244593   2.466   0.800  12.061 -0.6380 -0.8958 -0.3541
 9725SOL     OW44594   1.028   3.019   9.347 -0.5209  0.2082  0.0121
 9725SOL    HW144595   1.071   3.091   9.393 -0.1929 -0.0384  0.1008
 9725SOL    HW244596   1.099   2.957   9.329 -1.1361 -1.0058  1.6950
 9726SOL     OW44597   4.705   3.014   9.263 -0.1565 -0.4076 -0.3616
 9726SOL    HW144598   4.645   3.080   9.227  0.5491 -0.0001 -0.8063
 9726SOL    HW244599   4.701   3.027   9.357 -1.3111 -0.8559 -0.3382
 9727SOL     OW44600   4.719   2.965   8.049 -0.5193  0.3818  0.2228
 9727SOL    HW144601   4.674   2.882   8.069 -0.1309  0.1514  0.1491
 9727SOL    HW244602   4.808   2.939   8.025 -0.7335  0.7276 -0.9877
 9728SOL     OW44603   0.778   2.262   0.240 -0.2545 -0.6878  0.4515
 9728SOL    HW144604   0.782   2.234   0.148  0.9429  0.2680  0.2043
 9728SOL    HW244605   0.803   2.354   0.238 -0.6256 -0.5552  1.7010
 9729SOL     OW44606   2.756   5.057   8.430 -0.6487  0.4925 -0.0686
 9729SOL    HW144607   2.800   5.110   8.364 -0.6631 -0.3594 -0.7679
 9729SOL    HW244608   2.813   4.982   8.442 -1.3898 -0.0949 -0.2027
 9730SOL     OW44609   4.905   2.398   7.777  0.0478  0.0325  0.4940
 9730SOL    HW144610   4.863   2.464   7.722  0.7990  1.0575  1.1271
 9730SOL    HW244611   4.834   2.361   7.828 -0.9628 -2.1518 -2.3284
 9731SOL     OW44612   5.329   4.138  10.427  0.4668  0.1835  0.1609
 9731SOL    HW144613   5.375   4.222  10.428  0.6521  0.0787  0.7165
 9731SOL    HW244614   5.261   4.149  10.361 -0.7243  1.4295  1.5707
 9732SOL     OW44615   0.025   2.016   1.934 -0.1715  0.4178 -0.0073
 9732SOL    HW144616  -0.065   1.985   1.927 -0.2473  0.9574 -1.7882
 9732SOL    HW244617   0.078   1.948   1.892 -0.1516  1.7709 -2.2698
 9733SOL     OW44618   2.461   5.328   1.761  0.1254 -0.3936  0.0555
 9733SOL    HW144619   2.550   5.297   1.775  0.2854  0.1491  0.2327
 9733SOL    HW244620   2.413   5.250   1.731  0.7486 -0.5903 -0.4271
 9734SOL     OW44621   4.957   0.744   0.258  0.4062  0.6910 -0.1404
 9734SOL    HW144622   4.933   0.711   0.344  3.8478 -0.2891  0.5185
 9734SOL    HW244623   4.942   0.838   0.263 -0.4145  0.5057  1.1313
 9735SOL     OW44624   0.605   5.433   1.591 -0.3457  0.0338 -0.4347
 9735SOL    HW144625   0.549   5.373   1.641 -1.5630  0.6753 -0.9830
 9735SOL    HW244626   0.622   5.387   1.509 -0.9505  0.2581 -0.6934
 9736SOL     OW44627   1.802   5.559   0.292  0.6362  0.2937  0.5006
 9736SOL    HW144628   1.749   5.607   0.229  1.0112  1.0999  0.7903
 9736SOL    HW244629   1.813   5.473   0.253 -1.6153 -0.1754  0.8507
 9737SOL     OW44630   4.220   5.025   8.947 -0.3890  0.2853 -0.2302
 9737SOL    HW144631   4.174   4.964   8.889 -0.0501 -1.3749  1.2207
 9737SOL    HW244632   4.155   5.049   9.013  0.2055 -0.4392  0.6222
 9738SOL     OW44633   2.939   3.140   1.625  0.3361 -0.0649  0.0336
 9738SOL    HW144634   2.922   3.105   1.537  1.1409 -0.2293 -0.0573
 9738SOL    HW244635   2.964   3.063   1.676  1.6407  0.3034 -0.0445
 9739SOL     OW44636   2.589   0.396  11.398 -0.5927 -0.4933 -0.3095
 9739SOL    HW144637   2.564   0.395  11.490  2.4356 -0.3885  0.5852
 9739SOL    HW244638   2.661   0.332  11.393  0.1053  0.4215 -2.3364
 9740SOL     OW44639   0.913   2.162  11.173 -0.2866 -0.0446 -0.2835
 9740SOL    HW144640   1.001   2.135  11.151  0.1065  0.3306  0.7674
 9740SOL    HW244641   0.861   2.145  11.094  1.4223  3.1100 -2.1709
 9741SOL     OW44642   2.875   4.259   8.236  0.0603 -0.3990  0.0294
 9741SOL    HW144643   2.950   4.226   8.285 -0.0222 -0.8657 -0.1645
 9741SOL    HW244644   2.801   4.207   8.267  0.1539 -1.2916 -1.2368
 9742SOL     OW44645   5.010   5.626   1.625  0.0482 -0.1187 -0.3248
 9742SOL    HW144646   4.958   5.702   1.600  1.2132  0.9609  0.4320
 9742SOL    HW244647   5.060   5.603   1.547 -0.7588 -0.4971 -0.7358
 9743SOL     OW44648   1.961   4.589  11.407  0.0864 -0.2355 -0.4462
 9743SOL    HW144649   2.012   4.627  11.479  0.9570 -2.4218  0.1372
 9743SOL    HW244650   1.870   4.594  11.437  0.1822  1.2629 -0.3472
 9744SOL     OW44651   4.143   3.990   0.352 -0.1314  0.1113  0.7736
 9744SOL    HW144652   4.139   3.937   0.273 -1.8156  1.8226 -0.3435
 9744SOL    HW244653   4.226   4.037   0.345 -0.9167  1.3211 -0.7277
 9745SOL     OW44654   4.374   4.346   9.624  0.2947  0.4159  0.3736
 9745SOL    HW144655   4.464   4.347   9.590  0.8670  0.0874  1.8269
 9745SOL    HW244656   4.347   4.437   9.622  1.3693  0.7880  1.7180
 9746SOL     OW44657   5.497   4.551  11.545 -0.1286  0.0709 -0.1021
 9746SOL    HW144658   5.583   4.586  11.520 -0.0630  0.2520  0.3695
 9746SOL    HW244659   5.434   4.616  11.514  0.1031  1.7077  2.6236
 9747SOL     OW44660   0.193   0.450   3.318 -0.4098 -0.0200 -0.2940
 9747SOL    HW144661   0.261   0.498   3.271  0.0200 -0.4839 -0.1388
 9747SOL    HW244662   0.153   0.393   3.252 -0.6851  0.2880 -0.3966
 9748SOL     OW44663   2.405   2.330   8.675 -0.4785 -0.6069 -0.0607
 9748SOL    HW144664   2.407   2.349   8.769 -2.6758  0.5503 -0.2207
 9748SOL    HW244665   2.409   2.235   8.670 -0.5641 -0.6953  1.2067
 9749SOL     OW44666   0.312   2.982  11.874 -0.3804  0.1498  0.5469
 9749SOL    HW144667   0.362   3.033  11.939 -0.3495 -0.8749  1.3273
 9749SOL    HW244668   0.354   2.896  11.873  0.0347  0.3438 -1.3123
 9750SOL     OW44669   3.844   0.855   2.630  0.3906 -0.1242 -0.2222
 9750SOL    HW144670   3.778   0.901   2.577  2.6721  1.7507 -1.5266
 9750SOL    HW244671   3.869   0.779   2.577  1.5086  0.8770 -1.1679
 9751SOL     OW44672   3.904   2.678   2.734  0.5460  0.4093 -0.0267
 9751SOL    HW144673   3.943   2.676   2.647  1.2185  0.5566  0.2702
 9751SOL    HW244674   3.970   2.717   2.790  0.9379 -1.5523  0.9480
 9752SOL     OW44675   2.509   0.127   9.345 -0.2364 -0.1197  0.8340
 9752SOL    HW144676   2.579   0.159   9.403 -0.2520  1.5398 -0.0481
 9752SOL    HW244677   2.488   0.040   9.380  0.7273  0.2714  2.4668
 9753SOL     OW44678   0.908   1.336   9.275 -0.5221 -0.1682 -0.1269
 9753SOL    HW144679   0.891   1.287   9.195 -0.4788 -0.5299  0.0880
 9753SOL    HW244680   0.933   1.271   9.340 -0.8041  0.0940  0.2553
 9754SOL     OW44681   1.735   0.106   8.773 -0.4869  0.0565 -0.0092
 9754SOL    HW144682   1.666   0.132   8.834  0.4005 -0.9266  1.4591
 9754SOL    HW244683   1.738   0.011   8.781  0.0523 -0.0254 -1.1588
 9755SOL     OW44684   1.998   4.776   8.086  0.2299 -0.3165 -0.6635
 9755SOL    HW144685   1.922   4.747   8.136  0.7871 -1.9111 -0.7123
 9755SOL    HW244686   1.980   4.748   7.996 -0.2208  1.4679 -1.1512
 9756SOL     OW44687   2.512   4.960   7.799  0.5155  0.1532 -0.0090
 9756SOL    HW144688   2.419   4.983   7.808  0.4972  0.2157 -0.3494
 9756SOL    HW244689   2.544   5.016   7.728  0.8919  0.3630  0.3259
 9757SOL     OW44690   5.120   5.288  10.318 -0.0483 -0.1625  0.6474
 9757SOL    HW144691   5.200   5.285  10.370 -0.0019 -2.1129  0.4908
 9757SOL    HW244692   5.087   5.377  10.332  1.1304  0.0691  2.2297
 9758SOL     OW44693   4.595   0.685   7.280 -0.2897  0.0936 -0.1661
 9758SOL    HW144694   4.583   0.712   7.190 -1.7958  1.8907  0.5500
 9758SOL    HW244695   4.510   0.697   7.321 -0.2324 -2.7961  0.9860
 9759SOL     OW44696   2.759   2.443   1.609 -0.3177 -0.1022  0.1180
 9759SOL    HW144697   2.741   2.436   1.515  2.0111  0.8633 -0.4353
 9759SOL    HW244698   2.733   2.532   1.632 -0.9857 -0.3712  0.4360
 9760SOL     OW44699   2.180   1.314   8.685  0.2497 -0.0843 -0.5991
 9760SOL    HW144700   2.203   1.242   8.626 -3.0491 -1.0787 -0.7420
 9760SOL    HW244701   2.145   1.382   8.628  0.2893  0.3544 -0.1080
 9761SOL     OW44702   0.170   5.282   3.967 -0.6822  0.1836  0.0591
 9761SOL    HW144703   0.197   5.207   3.915 -0.0841 -1.0393  2.0819
 9761SOL    HW244704   0.075   5.271   3.978 -0.5582 -0.4180  0.5618
 9762SOL     OW44705   0.501   3.338   9.729 -0.1868 -0.4967  0.1312
 9762SOL    HW144706   0.513   3.377   9.815 -1.5653 -0.6517  0.4097
 9762SOL    HW244707   0.451   3.404   9.680 -0.8644 -1.1099 -0.0058
 9763SOL     OW44708   4.875   0.727   8.205  0.0396  0.2784 -0.5597
 9763SOL    HW144709   4.839   0.736   8.117  0.0135 -0.6074 -0.6378
 9763SOL    HW244710   4.912   0.639   8.208 -1.6058 -0.4063  0.9070
 9764SOL     OW44711   4.007   0.863  12.028  0.4533  0.3862 -0.8149
 9764SOL    HW144712   3.939   0.918  11.988  0.2174  0.9666  0.3587
 9764SOL    HW244713   4.089   0.908  12.006  0.3180  0.7763 -0.5355
 9765SOL     OW44714   3.230   1.806   2.276 -0.2814 -0.7845  0.6070
 9765SOL    HW144715   3.287   1.742   2.318 -0.8693 -3.0039 -1.8661
 9765SOL    HW244716   3.149   1.759   2.258 -2.0203  1.6300  1.7905
 9766SOL     OW44717   2.057   2.097   8.149  0.1575  0.2085  0.0506
 9766SOL    HW144718   2.102   2.019   8.115  0.7073  0.4940  0.1193
 9766SOL    HW244719   2.021   2.140   8.071  0.9706  0.5837 -0.1245
 9767SOL     OW44720   5.910   5.036   3.822  0.8251  0.8416  0.0171
 9767SOL    HW144721   6.005   5.033   3.808  0.5311 -1.2452 -1.8478
 9767SOL    HW244722   5.877   5.091   3.752  0.6717  1.8098  0.8404
 9768SOL     OW44723   4.081   1.064   3.508  0.4455  1.1571 -0.3200
 9768SOL    HW144724   4.013   1.126   3.535  1.7278  2.5709 -0.2130
 9768SOL    HW244725   4.118   1.032   3.591 -0.4463 -0.0276 -0.3731
 9769SOL     OW44726   4.143   2.144  10.051 -0.0646 -0.0879 -0.4582
 9769SOL    HW144727   4.221   2.198  10.054 -1.2837  1.6452  1.3537
 9769SOL    HW244728   4.071   2.206  10.044 -1.2931 -1.6512 -2.1000
 9770SOL     OW44729   1.637   0.791   3.981 -0.2554  0.2472 -1.0257
 9770SOL    HW144730   1.685   0.723   4.029 -0.8159 -0.6224 -1.6788
 9770SOL    HW244731   1.701   0.860   3.968  0.0749  0.2319  0.4393
 9771SOL     OW44732   2.331   2.742   1.177  0.3013 -0.2642 -0.3905
 9771SOL    HW144733   2.357   2.677   1.112 -0.1949  0.5306 -1.4051
 9771SOL    HW244734   2.406   2.749   1.236  1.2890  0.0004 -1.6785
 9772SOL     OW44735   0.822   5.286  11.160 -0.5850 -0.1607  0.0600
 9772SOL    HW144736   0.733   5.273  11.194 -0.7582 -1.1112 -0.7102
 9772SOL    HW244737   0.812   5.350  11.091 -0.7473 -0.6013 -0.3269
 9773SOL     OW44738   2.640   4.871   1.670 -0.2790 -0.6901 -0.5785
 9773SOL    HW144739   2.635   4.782   1.705 -0.1710 -0.1291  0.9077
 9773SOL    HW244740   2.665   4.925   1.745 -0.6415  0.6409 -1.3930
 9774SOL     OW44741   2.986   3.284   8.726 -0.1990  0.5388  0.4299
 9774SOL    HW144742   2.902   3.273   8.771 -0.6934 -0.3889 -0.6966
 9774SOL    HW244743   3.028   3.198   8.732  1.0338  1.2073  1.6777
 9775SOL     OW44744   5.234   2.121   1.768  0.3948  0.1344  0.4714
 9775SOL    HW144745   5.220   2.132   1.673 -1.7008  1.3015  0.8810
 9775SOL    HW244746   5.174   2.183   1.808  1.3698 -0.2552  2.5928
 9776SOL     OW44747   5.102   3.381   9.613 -0.1387  0.7638 -0.1376
 9776SOL    HW144748   5.165   3.312   9.592 -0.6241  0.3508 -0.2530
 9776SOL    HW244749   5.112   3.445   9.542 -1.5770 -0.4857 -1.5093
 9777SOL     OW44750   1.810   2.840   3.156  0.1513  0.3515 -0.0219
 9777SOL    HW144751   1.882   2.896   3.186  0.2125  0.2011  0.1163
 9777SOL    HW244752   1.735   2.898   3.147  0.1650  0.4181  0.3027
 9778SOL     OW44753   5.915   1.294   0.174 -0.0006 -0.8461  0.4259
 9778SOL    HW144754   5.830   1.257   0.199 -0.2919  0.0626  0.7783
 9778SOL    HW244755   5.925   1.270   0.082 -1.1986  0.0780  0.0360
 9779SOL     OW44756   4.787   4.525  10.902  0.1534 -0.3120 -0.3124
 9779SOL    HW144757   4.799   4.430  10.898  0.3422 -0.2865 -0.3964
 9779SOL    HW244758   4.755   4.549  10.815  2.2336 -0.0157 -1.0371
 9780SOL     OW44759   3.007   0.598  11.203  0.3942  0.7071 -0.3882
 9780SOL    HW144760   2.912   0.605  11.214  0.1151 -0.5752 -1.8465
 9780SOL    HW244761   3.026   0.652  11.126  1.0303  1.9343  0.6058
 9781SOL     OW44762   4.463   2.992   2.146  0.2838  0.8601 -0.0151
 9781SOL    HW144763   4.402   3.006   2.073  1.3481 -0.8874 -1.2981
 9781SOL    HW244764   4.415   3.019   2.224 -1.6133  0.8552 -1.1593
 9782SOL     OW44765   2.531   5.866   1.393  0.0018  0.0549  0.1915
 9782SOL    HW144766   2.446   5.831   1.366 -0.0710  0.5725 -0.2795
 9782SOL    HW244767   2.514   5.959   1.410  0.2912 -0.0280  0.9501
 9783SOL     OW44768   1.652   4.958   8.272 -0.2908 -0.2876  0.4368
 9783SOL    HW144769   1.572   4.948   8.324  0.2485  3.3387  2.1454
 9783SOL    HW244770   1.633   5.030   8.213  1.5346  0.2934  0.5397
 9784SOL     OW44771   2.225   2.871  11.490 -0.2171 -0.1170 -0.0537
 9784SOL    HW144772   2.174   2.815  11.431 -0.9988  0.0348  0.4854
 9784SOL    HW244773   2.169   2.946  11.508 -0.2875 -0.5199  1.4974
 9785SOL     OW44774   2.933   5.646   8.760  0.3358 -0.0192 -0.4747
 9785SOL    HW144775   2.915   5.593   8.837 -0.7685  1.0170  0.0042
 9785SOL    HW244776   3.019   5.685   8.777  0.2973 -0.1528  0.0343
 9786SOL     OW44777   2.267   5.278   7.831 -0.3145  0.2234 -0.3459
 9786SOL    HW144778   2.309   5.325   7.759  1.4862  0.5971  0.9132
 9786SOL    HW244779   2.270   5.186   7.806 -0.0333  0.3874 -0.9075
 9787SOL     OW44780   2.689   4.244   1.724  0.1207  0.2603 -0.2809
 9787SOL    HW144781   2.705   4.334   1.753 -0.1498  0.2145  0.0034
 9787SOL    HW244782   2.631   4.253   1.648 -1.8680  0.1856  1.2131
 9788SOL     OW44783   2.755   2.393   1.924  0.7273  0.1831 -0.2662
 9788SOL    HW144784   2.796   2.436   1.999 -1.0395  1.3492  0.0421
 9788SOL    HW244785   2.756   2.300   1.946 -1.5835  0.6751  2.1591
 9789SOL     OW44786   0.539   2.782  11.741  0.7024  0.3270 -0.3156
 9789SOL    HW144787   0.621   2.826  11.763  0.8596 -0.2535  0.2492
 9789SOL    HW244788   0.519   2.812  11.652  0.9902  1.2726 -0.0720
 9790SOL     OW44789   0.040   4.890   9.096 -0.0110  0.1360 -0.0617
 9790SOL    HW144790   0.074   4.964   9.146 -0.8877  0.6450 -0.2207
 9790SOL    HW244791   0.054   4.915   9.005  1.8714 -0.9214 -0.0953
 9791SOL     OW44792   0.584   1.418   1.603  0.3387 -0.0503  0.1740
 9791SOL    HW144793   0.572   1.407   1.509 -1.1160  0.3703  0.3018
 9791SOL    HW244794   0.568   1.512   1.619  0.9430 -0.0436  0.7887
 9792SOL     OW44795   3.976   5.292  11.892 -0.0036  0.3663  0.0399
 9792SOL    HW144796   3.944   5.226  11.954 -0.2434  0.7131  0.2865
 9792SOL    HW244797   3.901   5.349  11.877  0.3178  0.8088  0.1153
 9793SOL     OW44798   3.344   2.892   0.319  0.2232  0.4081  0.1961
 9793SOL    HW144799   3.418   2.913   0.263 -1.5349 -0.6451 -2.6506
 9793SOL    HW244800   3.325   2.800   0.300 -2.0303  0.7635  0.5149
 9794SOL     OW44801   3.968   3.564  10.821 -0.3048  0.2082 -0.3945
 9794SOL    HW144802   4.049   3.522  10.853 -1.0988 -1.6612 -0.7569
 9794SOL    HW244803   3.913   3.491  10.793 -1.7382  1.5286 -1.0830
 9795SOL     OW44804   2.795   2.599  12.096 -0.4508  0.1911 -0.0209
 9795SOL    HW144805   2.805   2.609  12.191  1.4068 -0.0782 -0.1563
 9795SOL    HW244806   2.884   2.607  12.063 -1.2864  1.9185 -1.9219
 9796SOL     OW44807   1.009   5.039   2.115 -0.1198 -0.1331  0.0419
 9796SOL    HW144808   0.979   5.119   2.073  0.1999 -0.5385 -0.9587
 9796SOL    HW244809   1.104   5.042   2.108 -0.0592 -0.1835  0.7715
 9797SOL     OW44810   5.485   4.787  12.231 -0.3239  0.0274 -0.2491
 9797SOL    HW144811   5.553   4.755  12.289  0.2826  2.4004  0.4081
 9797SOL    HW244812   5.524   4.784  12.144 -0.1997 -0.7708 -0.1685
 9798SOL     OW44813   2.119   5.216   9.292 -0.2946  0.1848 -0.5213
 9798SOL    HW144814   2.173   5.192   9.216  1.7644  0.0823  0.9426
 9798SOL    HW244815   2.130   5.143   9.353 -1.4203  0.5771  0.1526
 9799SOL     OW44816   4.759   4.326   8.466  0.2586  0.3165 -0.1600
 9799SOL    HW144817   4.848   4.290   8.466 -0.2558 -0.9922  1.5736
 9799SOL    HW244818   4.768   4.411   8.422  2.1895 -0.2030 -0.8150
 9800SOL     OW44819   0.998   3.649  10.584  0.3076  0.5383 -0.3428
 9800SOL    HW144820   1.022   3.633  10.675  2.2241 -0.2882 -0.9826
 9800SOL    HW244821   1.081   3.653  10.537 -0.6482  1.2255 -2.0231
 9801SOL     OW44822   3.990   4.790   9.722 -0.0765  0.0809  0.4134
 9801SOL    HW144823   3.944   4.708   9.707 -1.1660  0.8627 -0.5885
 9801SOL    HW244824   4.016   4.787   9.814 -2.6936 -0.1034  1.1839
 9802SOL     OW44825   5.860   3.148   4.162 -0.0221  0.3398  0.4740
 9802SOL    HW144826   5.889   3.207   4.231 -0.2332  0.2808  0.6141
 9802SOL    HW244827   5.877   3.195   4.081 -0.6896  0.8104  0.6015
 9803SOL     OW44828   5.786   4.226   0.143 -0.8041 -0.6944  0.3740
 9803SOL    HW144829   5.701   4.196   0.113 -0.4662 -1.8248  0.5245
 9803SOL    HW244830   5.835   4.243   0.062 -0.5349 -1.9155  0.2580
 9804SOL     OW44831   5.611   0.175  10.442 -0.0341 -0.3772  0.0588
 9804SOL    HW144832   5.569   0.164  10.527  0.3613 -0.9426  0.1896
 9804SOL    HW244833   5.614   0.086  10.405  1.6722 -0.4637  0.3611
 9805SOL     OW44834   0.705   2.714  10.506 -0.0153 -0.2653  0.3276
 9805SOL    HW144835   0.786   2.753  10.539 -0.3301 -0.2810  1.1196
 9805SOL    HW244836   0.660   2.787  10.463  1.0420 -0.5530 -1.3278
 9806SOL     OW44837   1.551   1.011  11.953  0.3785 -0.3901 -0.0243
 9806SOL    HW144838   1.577   1.027  12.044 -0.6284  0.8591  0.0582
 9806SOL    HW244839   1.591   0.927  11.931  0.0647 -1.0373  1.7942
 9807SOL     OW44840   5.410   1.305   8.385 -0.2338 -0.1209  0.3690
 9807SOL    HW144841   5.333   1.249   8.375 -0.5867  0.6879 -1.9184
 9807SOL    HW244842   5.375   1.394   8.391  0.4454  0.1131  0.8982
 9808SOL     OW44843   3.701   2.470   2.751 -0.2357 -0.1177 -0.6590
 9808SOL    HW144844   3.730   2.437   2.836 -2.0534 -1.4033 -0.5086
 9808SOL    HW244845   3.768   2.534   2.726  0.8713 -0.4920  1.2412
 9809SOL     OW44846   3.760   5.024   2.845 -0.1135  0.6624 -0.3290
 9809SOL    HW144847   3.825   4.997   2.780 -0.1837  2.8950 -1.3724
 9809SOL    HW244848   3.729   4.942   2.883 -0.0098 -0.7066 -3.0594
 9810SOL     OW44849   5.462   5.660   0.546  0.1093 -0.1542  0.4942
 9810SOL    HW144850   5.400   5.674   0.474  0.3886  0.7160  0.4172
 9810SOL    HW244851   5.520   5.592   0.514  1.3727  1.5100 -0.8778
 9811SOL     OW44852   3.753   2.898   9.216 -0.2875  0.3281 -0.5234
 9811SOL    HW144853   3.665   2.890   9.254  0.7613 -0.6587  1.7952
 9811SOL    HW244854   3.809   2.847   9.275  2.0045  1.7472 -1.4255
 9812SOL     OW44855   3.351   2.825   2.596  0.0235  0.2227  0.5743
 9812SOL    HW144856   3.399   2.745   2.619 -1.5968 -1.6212 -2.1202
 9812SOL    HW244857   3.403   2.866   2.527 -0.1424  0.4385  0.5752
 9813SOL     OW44858   5.842   4.679   3.903 -0.4879 -0.1800 -0.6384
 9813SOL    HW144859   5.914   4.688   3.966  1.3604 -1.7859 -2.4625
 9813SOL    HW244860   5.770   4.729   3.942  2.3006  3.3995  0.1860
 9814SOL     OW44861   3.571   0.588   8.867 -0.6498  0.0264 -0.0226
 9814SOL    HW144862   3.656   0.589   8.911 -1.1863  1.7818  1.0009
 9814SOL    HW244863   3.583   0.648   8.793 -1.4068  1.4202  0.9573
 9815SOL     OW44864   4.255   5.927   2.184 -0.4242 -0.0547  0.0483
 9815SOL    HW144865   4.209   5.851   2.149 -1.2179 -0.2482  1.4867
 9815SOL    HW244866   4.229   5.931   2.275  2.2957 -0.0740  0.8815
 9816SOL     OW44867   1.284   0.121   3.632 -0.0300 -0.2711  0.3727
 9816SOL    HW144868   1.314   0.136   3.722  1.4720  1.2193 -0.3426
 9816SOL    HW244869   1.227   0.196   3.614  0.7777  0.1689 -0.3778
 9817SOL     OW44870   0.906   4.125   0.934 -0.1953 -0.2765 -0.3107
 9817SOL    HW144871   0.884   4.068   0.860  1.4780 -0.6856 -0.5132
 9817SOL    HW244872   0.943   4.066   1.000 -0.3069  0.2940  0.2673
 9818SOL     OW44873   0.922   3.409   8.250 -0.4047 -0.1049 -0.0245
 9818SOL    HW144874   0.845   3.440   8.298  0.7669  0.3056  1.6198
 9818SOL    HW244875   0.950   3.485   8.199 -1.1816 -0.3079 -0.7734
 9819SOL     OW44876   0.184   4.589   8.545  0.0900  0.2744 -0.2109
 9819SOL    HW144877   0.192   4.672   8.591  0.5783  0.0509  0.1015
 9819SOL    HW244878   0.188   4.613   8.452 -0.9146  0.7229 -0.1474
 9820SOL     OW44879   3.437   0.862   8.504 -0.1003  0.1881 -0.2115
 9820SOL    HW144880   3.365   0.918   8.534 -2.0028 -1.4000 -1.6025
 9820SOL    HW244881   3.424   0.856   8.409  2.0886  0.1372 -0.5227
 9821SOL     OW44882   3.750   2.465   1.111 -0.1427 -0.0083 -0.2870
 9821SOL    HW144883   3.732   2.516   1.190  0.4224 -1.3342  0.7187
 9821SOL    HW244884   3.676   2.404   1.104 -1.3162  1.5375 -2.0241
 9822SOL     OW44885   3.398   3.364   1.032 -0.2420 -0.8187 -0.3418
 9822SOL    HW144886   3.368   3.387   1.119 -0.0747 -1.1105 -0.2056
 9822SOL    HW244887   3.384   3.443   0.980 -1.8105 -1.1539 -0.4340
 9823SOL     OW44888   3.665   5.870   1.045 -0.4057 -0.0989  0.8662
 9823SOL    HW144889   3.758   5.874   1.068  0.2646 -2.2261 -1.3038
 9823SOL    HW244890   3.640   5.779   1.063 -1.2089 -0.4046 -1.6155
 9824SOL     OW44891   2.717   5.680  10.277 -0.3312  0.3448  0.4720
 9824SOL    HW144892   2.805   5.715  10.262  0.1483 -0.7098  0.7753
 9824SOL    HW244893   2.662   5.757  10.287  0.8195  1.0088  1.7906
 9825SOL     OW44894   5.663   4.462   0.529 -0.1197 -0.3864 -0.3010
 9825SOL    HW144895   5.677   4.378   0.574  0.5531  0.0477  0.3123
 9825SOL    HW244896   5.569   4.477   0.535 -0.1271 -0.6736  0.3395
 9826SOL     OW44897   0.537   2.294  11.814  0.2543 -0.1354 -0.0398
 9826SOL    HW144898   0.611   2.353  11.799  0.3460  0.2530  1.7239
 9826SOL    HW244899   0.550   2.222  11.753 -0.1641  1.9182 -2.6817
 9827SOL     OW44900   1.660   3.891   1.165 -0.1394 -0.2800 -0.1659
 9827SOL    HW144901   1.598   3.955   1.131  1.1935  0.3913 -1.3716
 9827SOL    HW244902   1.607   3.834   1.221 -1.5250  1.2580  0.1343
 9828SOL     OW44903   0.752   3.310  10.089  0.2886  0.3740  0.5197
 9828SOL    HW144904   0.668   3.338  10.054 -0.0274 -0.5857  0.4790
 9828SOL    HW244905   0.731   3.238  10.148  1.2442 -1.3061 -1.1173
 9829SOL     OW44906   0.502   5.061   0.585 -0.4903 -0.0946 -0.1514
 9829SOL    HW144907   0.507   4.988   0.647 -2.9601 -0.4919 -0.3541
 9829SOL    HW244908   0.437   5.033   0.520 -0.8944  1.9677 -0.6781
 9830SOL     OW44909   3.640   1.719   2.558 -0.0748 -0.1931  0.3657
 9830SOL    HW144910   3.602   1.803   2.583  0.2656 -0.3556  1.4552
 9830SOL    HW244911   3.710   1.742   2.496  0.4830  0.3912  1.1936
 9831SOL     OW44912   1.568   3.325   7.852 -0.1334 -0.1800 -0.2331
 9831SOL    HW144913   1.551   3.268   7.928 -0.5658  0.5006  0.1861
 9831SOL    HW244914   1.664   3.327   7.845 -0.1206 -1.3139 -0.5246
 9832SOL     OW44915   0.377   4.623   3.424 -0.0546  0.3153  0.0457
 9832SOL    HW144916   0.366   4.714   3.449  1.2527  0.3187  0.6174
 9832SOL    HW244917   0.369   4.622   3.329  3.1099  1.4922 -0.2642
 9833SOL     OW44918   1.378   0.791   8.031 -0.2067  0.3139  0.1217
 9833SOL    HW144919   1.444   0.733   7.994 -1.5439 -0.8930 -0.4061
 9833SOL    HW244920   1.367   0.860   7.965  0.9451  0.8639  0.4810
 9834SOL     OW44921   1.535   4.844  11.747 -0.1860 -0.4195  0.2954
 9834SOL    HW144922   1.524   4.867  11.839 -1.4892  0.5097 -0.0640
 9834SOL    HW244923   1.469   4.776  11.731 -0.6280  0.1040 -0.1653
 9835SOL     OW44924   1.322   0.817   8.298  0.3222 -0.1329  0.3523
 9835SOL    HW144925   1.290   0.906   8.280  3.8270  1.1757  0.2508
 9835SOL    HW244926   1.330   0.776   8.212  0.2689  0.0275  0.2686
 9836SOL     OW44927   1.482   4.376  10.250 -0.0181 -0.2005  0.2159
 9836SOL    HW144928   1.495   4.406  10.160  0.4619 -1.9656 -0.3346
 9836SOL    HW244929   1.567   4.388  10.292 -0.5566  1.7077  0.7734
 9837SOL     OW44930   4.906   1.282   1.081  0.1037  0.0463 -0.5573
 9837SOL    HW144931   4.982   1.249   1.128 -0.0488  0.0837 -0.2791
 9837SOL    HW244932   4.939   1.305   0.994  0.1900 -0.9316 -0.7828
 9838SOL     OW44933   2.525   3.673  10.253 -0.2445 -0.0471 -0.0406
 9838SOL    HW144934   2.565   3.759  10.261 -0.4262 -0.0096  0.5080
 9838SOL    HW244935   2.590   3.619  10.209 -0.7961  0.8219 -1.9354
 9839SOL     OW44936   3.022   5.037   7.661 -0.1024  0.2133  0.6849
 9839SOL    HW144937   3.049   5.120   7.700  3.1729 -0.4810  0.0434
 9839SOL    HW244938   2.984   5.061   7.577 -1.3494  1.2231  1.5190
 9840SOL     OW44939   5.127   2.105   0.816  0.3834  0.1019 -0.0978
 9840SOL    HW144940   5.164   2.017   0.827  0.9930  0.4113  0.3570
 9840SOL    HW244941   5.167   2.157   0.885 -1.8376  0.1636  1.1746
 9841SOL     OW44942   1.992   3.684   2.318 -0.5121  0.5797  0.1937
 9841SOL    HW144943   1.955   3.736   2.247 -1.3533  0.3736  0.4725
 9841SOL    HW244944   1.993   3.743   2.394  0.5331  0.8518 -0.0115
 9842SOL     OW44945   5.872   3.066   2.722  0.3616 -0.1110  0.0731
 9842SOL    HW144946   5.845   2.980   2.688 -4.0878  2.1420 -2.6664
 9842SOL    HW244947   5.798   3.095   2.775  0.9562  2.7862 -0.5725
 9843SOL     OW44948   4.419   3.755   8.656 -0.0015 -0.2543  0.6174
 9843SOL    HW144949   4.387   3.716   8.737 -1.4595 -1.3553 -0.4388
 9843SOL    HW244950   4.347   3.812   8.627 -0.6381 -1.9092 -1.2364
 9844SOL     OW44951   3.713   3.378   0.105  0.5831  0.3554  0.7423
 9844SOL    HW144952   3.748   3.468   0.107  3.0200 -0.4696 -1.1595
 9844SOL    HW244953   3.774   3.327   0.158 -1.6955  0.0553  3.1631
 9845SOL     OW44954   0.681   3.412   1.803 -0.5417  0.2197  0.6579
 9845SOL    HW144955   0.684   3.319   1.827  0.6434 -0.1948 -0.9963
 9845SOL    HW244956   0.710   3.414   1.712  2.7334  2.5591  1.6646
 9846SOL     OW44957   4.040   2.967   9.246  0.0367  0.2324  0.2725
 9846SOL    HW144958   4.025   3.052   9.289 -2.3094 -0.6025  1.1631
 9846SOL    HW244959   4.030   2.986   9.153  0.6821  1.1546  0.3769
 9847SOL     OW44960   3.898   1.471   2.504  0.0063  0.0669 -0.5360
 9847SOL    HW144961   3.813   1.428   2.492  0.6133 -1.2768 -0.1330
 9847SOL    HW244962   3.890   1.517   2.587  0.0044 -0.8702 -0.0132
 9848SOL     OW44963   1.979   1.955   2.218  0.1294  0.2025  0.4297
 9848SOL    HW144964   2.025   1.981   2.298  1.9982 -1.6066 -0.0100
 9848SOL    HW244965   1.886   1.968   2.238  0.7507  3.4783  1.5158
 9849SOL     OW44966   4.961   5.767   0.112  0.3158 -0.3767  0.2540
 9849SOL    HW144967   5.001   5.685   0.083  0.6748  0.9358 -3.1374
 9849SOL    HW244968   4.867   5.751   0.109  0.4092 -1.3452  1.7950
 9850SOL     OW44969   4.314   3.383   3.177  0.2064  0.1479  0.1915
 9850SOL    HW144970   4.329   3.417   3.089  0.6539  0.9792  0.5779
 9850SOL    HW244971   4.306   3.288   3.165 -1.7244  0.4446 -0.9804
 9851SOL     OW44972   0.507   0.715   2.931  0.6744  0.1124 -0.4619
 9851SOL    HW144973   0.432   0.749   2.979 -0.1578  0.0447 -1.6880
 9851SOL    HW244974   0.574   0.782   2.939  0.9283 -0.3593  1.6724
 9852SOL     OW44975   2.997   0.459  11.639  0.4001  0.1599 -0.3156
 9852SOL    HW144976   2.940   0.408  11.697 -1.4633  2.4989 -0.0179
 9852SOL    HW244977   3.079   0.470  11.688 -1.2123  2.2453  2.0048
 9853SOL     OW44978   4.324   3.698  10.435 -0.1721  0.2622 -0.5736
 9853SOL    HW144979   4.316   3.630  10.501  0.6491  1.4059  0.7272
 9853SOL    HW244980   4.380   3.658  10.367  1.4118  0.0912  0.7996
 9854SOL     OW44981   4.139   0.647   9.654  0.1132 -0.0842  0.3700
 9854SOL    HW144982   4.152   0.571   9.597  0.1198  1.2935 -1.4974
 9854SOL    HW244983   4.224   0.690   9.655 -0.1299  0.3889  0.6914
 9855SOL     OW44984   0.770   4.859   9.334  0.5479 -0.1562 -0.1758
 9855SOL    HW144985   0.755   4.768   9.308  0.5435 -0.3849  0.6053
 9855SOL    HW244986   0.822   4.853   9.414 -2.2526  0.4286  1.7773
 9856SOL     OW44987   5.091   0.303   8.601 -0.5023  0.1075  0.2099
 9856SOL    HW144988   5.007   0.325   8.560  0.1201  1.0853 -0.5465
 9856SOL    HW244989   5.142   0.262   8.531  0.9369  2.6816 -0.2936
 9857SOL     OW44990   3.333   5.456  10.567  0.0055  0.0770 -0.2369
 9857SOL    HW144991   3.382   5.414  10.497 -0.6709 -0.2866 -0.4974
 9857SOL    HW244992   3.356   5.549  10.561  0.1062  0.0124 -0.8096
 9858SOL     OW44993   3.056   4.423   2.637  0.3056 -0.2811  0.0313
 9858SOL    HW144994   3.107   4.352   2.676  0.8266  1.5534  2.8337
 9858SOL    HW244995   3.120   4.491   2.618 -0.8254  1.3399  1.9113
 9859SOL     OW44996   5.032   5.540  10.946  0.7412 -0.3196 -0.2297
 9859SOL    HW144997   4.989   5.606  11.002 -1.4701 -1.3403 -0.6872
 9859SOL    HW244998   5.054   5.469  11.006  0.3722 -0.4528 -0.2457
 9860SOL     OW44999   0.188   4.516   8.250  0.0978 -0.1625 -0.4227
 9860SOL    HW145000   0.115   4.500   8.190  0.6034 -0.6049 -0.9357
 9860SOL    HW245001   0.230   4.430   8.259 -1.6606 -0.7434  2.8475
 9861SOL     OW45002   0.918   5.522  10.502  0.1856 -0.1918 -0.2463
 9861SOL    HW145003   0.904   5.438  10.460 -0.4181  0.7720 -2.0333
 9861SOL    HW245004   0.833   5.545  10.540 -0.5073  1.0120 -2.4296
 9862SOL     OW45005   1.204   3.151  10.464 -0.2436  0.2338 -0.0464
 9862SOL    HW145006   1.214   3.135  10.370  0.6071  0.6886 -0.0367
 9862SOL    HW245007   1.207   3.247  10.472  0.4530  0.1676  0.5246
 9863SOL     OW45008   5.738   5.455   1.479  0.0060 -0.3249 -0.2729
 9863SOL    HW145009   5.746   5.503   1.397 -0.0543 -1.4801 -0.9811
 9863SOL    HW245010   5.828   5.441   1.508 -0.0261  1.5482  0.7436
 9864SOL     OW45011   3.268   2.845  12.139  0.4517 -0.2232  0.1006
 9864SOL    HW145012   3.188   2.882  12.177 -0.9609 -1.1836 -1.8484
 9864SOL    HW245013   3.310   2.919  12.094  0.1101  0.0470  0.2213
 9865SOL     OW45014   5.183   1.858  12.193 -0.2676  0.6451 -0.5247
 9865SOL    HW145015   5.127   1.783  12.172  0.4837  0.0895 -0.5379
 9865SOL    HW245016   5.238   1.869  12.116  0.4084  0.4952 -0.0633
 9866SOL     OW45017   0.937   0.671   1.344  0.0124  0.1837 -0.1896
 9866SOL    HW145018   0.922   0.649   1.436  0.9096 -3.3067 -0.8097
 9866SOL    HW245019   0.996   0.747   1.347 -2.2983  1.9673  2.0926
 9867SOL     OW45020   4.702   2.921   0.716 -0.6576  0.6372  0.2259
 9867SOL    HW145021   4.641   2.910   0.644 -0.3187  0.3061 -0.0142
 9867SOL    HW245022   4.730   3.012   0.711 -1.0140  0.7496  0.2479
 9868SOL     OW45023   0.603   1.489  11.625  0.0981  0.0737 -0.3875
 9868SOL    HW145024   0.585   1.542  11.547 -0.6036  0.8455  0.2915
 9868SOL    HW245025   0.689   1.518  11.654 -0.0135  0.4098 -0.3786
 9869SOL     OW45026   2.775   0.786   2.657 -0.1154  0.1017 -0.7839
 9869SOL    HW145027   2.699   0.742   2.695 -0.7864  1.7763 -0.1705
 9869SOL    HW245028   2.840   0.786   2.727 -1.4601  3.4743  0.5833
 9870SOL     OW45029   5.161   0.450  11.897 -0.5094 -0.0647  0.3988
 9870SOL    HW145030   5.076   0.417  11.926 -0.1698 -1.4048 -0.1033
 9870SOL    HW245031   5.225   0.399  11.946  0.0226  0.4872  0.2918
 9871SOL     OW45032   0.147   2.330   9.315 -0.3759  0.0747  0.6582
 9871SOL    HW145033   0.128   2.374   9.397 -1.3766 -0.8500  0.9421
 9871SOL    HW245034   0.166   2.400   9.253  1.7393  0.7330  2.0049
 9872SOL     OW45035   5.840   5.168   3.575 -0.0059 -0.0547  0.2982
 9872SOL    HW145036   5.795   5.249   3.596 -0.4354 -0.1131 -0.3766
 9872SOL    HW245037   5.780   5.121   3.518  1.8946  0.9486 -2.6278
 9873SOL     OW45038   1.674   0.427   9.765 -0.1829  0.0878 -0.0026
 9873SOL    HW145039   1.690   0.332   9.766 -1.0657 -0.0645  2.3102
 9873SOL    HW245040   1.589   0.436   9.723 -0.3049 -0.2010  0.1743
 9874SOL     OW45041   3.580   0.978   3.959 -0.0304 -0.6406  0.1226
 9874SOL    HW145042   3.499   0.928   3.950 -1.2567  1.6330 -2.2604
 9874SOL    HW245043   3.604   0.968   4.051 -2.4219 -2.2720  0.6275
 9875SOL     OW45044   5.533   2.034  11.021 -0.1537  0.1026  0.3263
 9875SOL    HW145045   5.595   2.089  10.973 -2.8248  1.9380 -1.1782
 9875SOL    HW245046   5.520   2.079  11.104 -0.0181  0.0851  0.3579
 9876SOL     OW45047   5.467   1.287  10.073  0.0172 -0.6179  1.5294
 9876SOL    HW145048   5.414   1.230  10.129 -0.7533  2.9617  4.6944
 9876SOL    HW245049   5.403   1.345  10.031  1.0137  0.4362  1.4366
 9877SOL     OW45050   5.638   1.131  10.485  0.6059  0.1763 -0.0297
 9877SOL    HW145051   5.606   1.201  10.429  2.7578  1.8027  0.6933
 9877SOL    HW245052   5.656   1.174  10.569  1.4312 -1.3502  0.6019
 9878SOL     OW45053   3.028   1.542   8.766  0.4435 -0.3388 -0.5718
 9878SOL    HW145054   2.952   1.593   8.737  0.8874 -0.3239 -1.7254
 9878SOL    HW245055   3.022   1.543   8.862  0.2715  1.6217 -0.5744
 9879SOL     OW45056   3.350   0.339   9.619 -0.1885  0.2423 -0.3211
 9879SOL    HW145057   3.361   0.429   9.588 -1.6498  0.3673 -0.5326
 9879SOL    HW245058   3.357   0.285   9.539 -1.2036  0.3338 -0.4791
 9880SOL     OW45059   5.033   5.454   0.657 -0.1972  0.5288  0.4695
 9880SOL    HW145060   5.034   5.494   0.744  1.2337 -0.4015  0.8986
 9880SOL    HW245061   4.977   5.512   0.605  0.3055  2.0502  1.5618
 9881SOL     OW45062   3.999   5.764   1.830  0.1348  0.0849  0.0747
 9881SOL    HW145063   3.950   5.809   1.762 -0.7365 -1.1191 -0.1113
 9881SOL    HW245064   4.072   5.822   1.850  0.3754  0.4632 -1.8566
 9882SOL     OW45065   1.303   4.216   8.889 -0.3501 -0.3375 -0.0812
 9882SOL    HW145066   1.329   4.303   8.920  1.4725 -1.2952  1.1004
 9882SOL    HW245067   1.349   4.206   8.806 -1.8295  0.4576 -1.0242
 9883SOL     OW45068   5.304   3.917  10.825 -0.3319  0.4596  0.0076
 9883SOL    HW145069   5.368   3.853  10.856 -0.4360  0.0294 -0.6448
 9883SOL    HW245070   5.355   3.996  10.806 -0.1474  0.4507  0.4629
 9884SOL     OW45071   3.883   4.792   1.115  0.0001 -0.0743 -0.2546
 9884SOL    HW145072   3.796   4.810   1.079  0.2282  0.5032 -0.5397
 9884SOL    HW245073   3.866   4.742   1.195 -0.5903 -0.0204 -0.3389
 9885SOL     OW45074   2.669   0.106   9.105 -0.2606 -0.3559 -0.3499
 9885SOL    HW145075   2.616   0.072   9.177  0.8746  1.2088  1.2909
 9885SOL    HW245076   2.633   0.194   9.088  0.2899 -0.2152 -0.8196
 9886SOL     OW45077   1.462   2.189   2.108  0.8160 -0.3449  0.0650
 9886SOL    HW145078   1.526   2.256   2.085  1.2585 -0.7693  0.0510
 9886SOL    HW245079   1.385   2.211   2.055  0.6825  0.6060  0.6367
 9887SOL     OW45080   2.039   1.488   9.259 -0.4758 -0.3521 -0.4627
 9887SOL    HW145081   1.947   1.505   9.281 -0.5407 -2.0241  0.6992
 9887SOL    HW245082   2.074   1.446   9.338  0.7560 -1.5830 -1.6553
 9888SOL     OW45083   5.493   5.472   9.116 -0.0477  0.1101  0.2308
 9888SOL    HW145084   5.451   5.535   9.175 -0.9762  0.9005 -1.2420
 9888SOL    HW245085   5.434   5.468   9.041  1.8294  0.1825 -1.2687
 9889SOL     OW45086   4.840   4.233  12.160  0.1214  0.2158  0.3473
 9889SOL    HW145087   4.804   4.179  12.089 -0.3069  1.0152 -0.0524
 9889SOL    HW245088   4.926   4.260  12.127 -0.5936  1.6190 -0.4099
 9890SOL     OW45089   2.744   0.304   1.371  0.3062 -0.7520 -0.1711
 9890SOL    HW145090   2.758   0.249   1.294  3.7988 -1.6481  0.9846
 9890SOL    HW245091   2.730   0.392   1.336  0.4747 -1.3953 -1.8747
 9891SOL     OW45092   3.718   2.026   3.533  0.0005 -0.1985 -0.4011
 9891SOL    HW145093   3.800   1.978   3.525  0.7693  0.8356  1.0075
 9891SOL    HW245094   3.689   2.041   3.442  1.3593 -0.5763 -0.8997
 9892SOL     OW45095   5.804   2.350   1.847 -0.9431  0.1301 -0.3612
 9892SOL    HW145096   5.838   2.286   1.785  0.2390  0.5559 -0.1613
 9892SOL    HW245097   5.866   2.349   1.920 -1.6050  0.5826  0.2148
 9893SOL     OW45098   5.390   3.597  11.201  0.7505 -0.6151 -0.2308
 9893SOL    HW145099   5.380   3.692  11.189 -0.1486 -0.6882 -0.0901
 9893SOL    HW245100   5.375   3.583  11.294 -0.5768 -1.0734 -0.5006
 9894SOL     OW45101   1.998   4.448   9.622  0.1064 -0.3881 -0.3504
 9894SOL    HW145102   2.069   4.387   9.639  0.0943  0.0592  1.3687
 9894SOL    HW245103   1.994   4.504   9.700 -2.0757 -0.3643 -0.4342
 9895SOL     OW45104   3.810   3.182  12.336 -0.0858  0.2996  0.3507
 9895SOL    HW145105   3.773   3.266  12.361  1.0323  1.3061 -1.2489
 9895SOL    HW245106   3.887   3.171  12.392  1.2172  1.5584 -1.1478
 9896SOL     OW45107   3.685   4.769   2.983 -0.6798 -0.5344 -0.2011
 9896SOL    HW145108   3.601   4.759   2.938 -0.2579 -0.6219 -0.9702
 9896SOL    HW245109   3.719   4.680   2.991 -0.3502 -0.4340 -0.4837
 9897SOL     OW45110   4.402   4.323   1.455  0.0261  0.8452  0.3566
 9897SOL    HW145111   4.479   4.270   1.434 -0.9101 -0.6492  0.6318
 9897SOL    HW245112   4.394   4.384   1.381  1.3251  0.8480  0.2099
 9898SOL     OW45113   4.150   5.179  11.693  0.2189 -0.0638  0.4269
 9898SOL    HW145114   4.081   5.209  11.752 -0.4653  2.5517 -1.6000
 9898SOL    HW245115   4.130   5.087  11.678 -1.2439 -0.0380  2.0109
 9899SOL     OW45116   3.020   2.658  11.524  0.0720  0.3269  0.0047
 9899SOL    HW145117   3.038   2.750  11.503  1.0693  0.2303  0.3845
 9899SOL    HW245118   3.104   2.624  11.555 -0.3941 -0.6051  0.2640
 9900SOL     OW45119   4.296   3.786  11.783 -0.2918  0.5423 -0.0537
 9900SOL    HW145120   4.343   3.757  11.862 -1.5152  1.7929  1.1674
 9900SOL    HW245121   4.235   3.715  11.764  0.6147 -0.1554 -0.4004
 9901SOL     OW45122   5.786   3.553   9.497 -0.3546 -0.1769 -0.3716
 9901SOL    HW145123   5.850   3.538   9.428 -1.1315  2.0688 -1.6286
 9901SOL    HW245124   5.834   3.602   9.564  0.6557 -3.1554  1.1790
 9902SOL     OW45125   2.753   5.768  11.849  0.3318  0.0183  0.3714
 9902SOL    HW145126   2.685   5.737  11.909 -0.8141  1.7376  0.0110
 9902SOL    HW245127   2.830   5.716  11.871 -0.3025  0.0254  2.7661
 9903SOL     OW45128   2.587   1.639   0.283 -0.0514  0.0175  0.0361
 9903SOL    HW145129   2.547   1.553   0.300 -3.0655  1.3478  0.0805
 9903SOL    HW245130   2.585   1.648   0.187  0.8903 -0.2468 -0.0086
 9904SOL     OW45131   3.955   2.647   0.923  0.0443  0.1158 -0.3738
 9904SOL    HW145132   4.028   2.588   0.902 -1.1693 -0.9005 -1.8181
 9904SOL    HW245133   3.956   2.653   1.019 -0.5107 -3.1948 -0.0984
 9905SOL     OW45134   3.734   3.953   2.212 -0.0538  0.1500 -0.0119
 9905SOL    HW145135   3.652   4.001   2.226  0.6134  1.2338  0.2470
 9905SOL    HW245136   3.726   3.918   2.123 -0.8598  0.1095  0.0671
 9906SOL     OW45137   4.203   1.705   2.667 -0.3027 -0.0990 -0.2956
 9906SOL    HW145138   4.252   1.649   2.608  0.1716  0.7519 -0.7142
 9906SOL    HW245139   4.261   1.719   2.742  0.1450  0.9784 -0.8288
 9907SOL     OW45140   2.890   2.459   3.283 -0.0054  0.1697  0.8578
 9907SOL    HW145141   2.907   2.447   3.190  1.7737  2.3001  0.8577
 9907SOL    HW245142   2.976   2.480   3.320 -0.9854  1.1818  2.6438
 9908SOL     OW45143   3.390   4.872   7.939 -0.1111  0.6177  0.9173
 9908SOL    HW145144   3.401   4.938   7.871 -0.8671  1.9435  2.0629
 9908SOL    HW245145   3.473   4.872   7.986 -0.3580  1.2400  1.3504
 9909SOL     OW45146   2.615   2.636  10.450  0.1799  0.0963  0.4205
 9909SOL    HW145147   2.624   2.730  10.460 -2.4494  0.5675 -1.0794
 9909SOL    HW245148   2.694   2.599  10.489  1.1015  2.8940  1.2702
 9910SOL     OW45149   3.170   0.490  11.830 -0.3092  0.5099  0.4336
 9910SOL    HW145150   3.081   0.485  11.864 -0.3547  1.0557  0.4015
 9910SOL    HW245151   3.224   0.451  11.898 -0.5218  0.5951  0.6546
 9911SOL     OW45152   3.795   4.624   8.719 -0.3192 -0.4105  0.5157
 9911SOL    HW145153   3.796   4.623   8.814  0.2822  1.3698  0.5378
 9911SOL    HW245154   3.702   4.616   8.696 -0.3239 -2.5729  1.1990
 9912SOL     OW45155   3.656   4.079   1.963 -0.3473  0.3375 -0.7019
 9912SOL    HW145156   3.672   4.102   1.871 -2.7998 -0.1638 -1.3054
 9912SOL    HW245157   3.567   4.044   1.963  0.9902 -3.2386  1.2692
 9913SOL     OW45158   0.104   4.717   3.284  0.2047 -0.2398  0.3642
 9913SOL    HW145159   0.181   4.764   3.314  0.4200  0.2608 -0.9268
 9913SOL    HW245160   0.098   4.737   3.191 -1.7691  0.1398  0.5455
 9914SOL     OW45161   2.941   0.526  10.902 -0.6529 -0.0613 -0.1049
 9914SOL    HW145162   2.886   0.601  10.926 -0.7849 -0.1900 -0.0026
 9914SOL    HW245163   2.880   0.453  10.894 -0.6179 -0.0058 -0.9217
 9915SOL     OW45164   4.352   1.632   9.751  0.1401  0.0872 -0.3477
 9915SOL    HW145165   4.309   1.717   9.757 -0.0911  0.1085 -2.0467
 9915SOL    HW245166   4.371   1.622   9.658 -0.8595 -2.2073 -0.3382
   5.94889   5.94889  12.49083
