UNNAMED in water
 2649
    1ALA      N    1   1.057   1.514   2.000
    1ALA     H1    2   0.979   1.536   1.936
    1ALA     H2    3   1.057   1.412   2.020
    1ALA     H3    4   1.048   1.566   2.090
    1ALA     CA    5   1.184   1.550   1.935
    1ALA     HA    6   1.198   1.494   1.844
    1ALA     CB    7   1.178   1.701   1.908
    1ALA    HB1    8   1.272   1.735   1.860
    1ALA    HB2    9   1.094   1.727   1.840
    1ALA    HB3   10   1.163   1.758   2.003
    1ALA      C   11   1.298   1.521   2.031
    1ALA    OT1   12   1.293   1.568   2.146
    1ALA    OT2   13   1.393   1.449   1.989
    2LYS      N   14   1.350   1.310   1.326
    2LYS     H1   15   1.328   1.273   1.232
    2LYS     H2   16   1.316   1.240   1.396
    2LYS     H3   17   1.303   1.401   1.346
    2LYS     CA   18   1.493   1.327   1.354
    2LYS     HA   19   1.544   1.231   1.349
    2LYS     CB   20   1.550   1.431   1.253
    2LYS    HB1   21   1.526   1.399   1.150
    2LYS    HB2   22   1.501   1.530   1.271
    2LYS     CG   23   1.702   1.448   1.261
    2LYS    HG1   24   1.729   1.480   1.365
    2LYS    HG2   25   1.745   1.348   1.243
    2LYS     CD   26   1.760   1.548   1.158
    2LYS    HD1   27   1.739   1.507   1.057
    2LYS    HD2   28   1.706   1.645   1.166
    2LYS     CE   29   1.912   1.571   1.175
    2LYS    HE1   30   1.937   1.609   1.276
    2LYS    HE2   31   1.963   1.473   1.161
    2LYS     NZ   32   1.970   1.661   1.073
    2LYS    HZ1   33   2.074   1.652   1.077
    2LYS    HZ2   34   1.940   1.626   0.978
    2LYS    HZ3   35   1.942   1.759   1.083
    2LYS      C   36   1.497   1.379   1.499
    2LYS    OT1   37   1.437   1.487   1.524
    2LYS    OT2   38   1.547   1.307   1.587
    3SOL     OW   39   0.235   0.660   0.104
    3SOL    HW1   40   0.169   0.614   0.156
    3SOL    HW2   41   0.248   0.605   0.027
    4SOL     OW   42   0.205   0.270   1.000
    4SOL    HW1   43   0.242   0.248   1.085
    4SOL    HW2   44   0.112   0.252   1.009
    5SOL     OW   45   0.008   0.382   0.656
    5SOL    HW1   46   2.926   0.426   0.683
    5SOL    HW2   47   2.979   0.310   0.600
    6SOL     OW   48   0.569   1.282   1.171
    6SOL    HW1   49   0.480   1.276   1.138
    6SOL    HW2   50   0.576   1.370   1.206
    7SOL     OW   51   1.558   1.513   0.700
    7SOL    HW1   52   1.511   1.493   0.780
    7SOL    HW2   53   1.490   1.518   0.633
    8SOL     OW   54   1.131   0.700   0.703
    8SOL    HW1   55   1.181   0.781   0.692
    8SOL    HW2   56   1.082   0.714   0.784
    9SOL     OW   57   1.759   0.596   0.232
    9SOL    HW1   58   1.747   0.578   0.139
    9SOL    HW2   59   1.726   0.518   0.276
   10SOL     OW   60   0.766   1.147   1.040
   10SOL    HW1   61   0.692   1.177   1.093
   10SOL    HW2   62   0.793   1.225   0.991
   11SOL     OW   63   0.856   0.784   1.820
   11SOL    HW1   64   0.855   0.854   1.885
   11SOL    HW2   65   0.884   0.827   1.739
   12SOL     OW   66   0.687   1.008   0.650
   12SOL    HW1   67   0.749   0.993   0.722
   12SOL    HW2   68   0.615   1.057   0.691
   13SOL     OW   69   0.703   1.147   1.805
   13SOL    HW1   70   0.752   1.225   1.830
   13SOL    HW2   71   0.619   1.180   1.773
   14SOL     OW   72   0.331   1.432   1.071
   14SOL    HW1   73   0.266   1.383   1.021
   14SOL    HW2   74   0.382   1.478   1.004
   15SOL     OW   75   0.450   0.401   1.494
   15SOL    HW1   76   0.524   0.340   1.497
   15SOL    HW2   77   0.373   0.346   1.506
   16SOL     OW   78   1.611   0.455   0.735
   16SOL    HW1   79   1.536   0.483   0.682
   16SOL    HW2   80   1.633   0.532   0.787
   17SOL     OW   81   0.219   1.716   0.480
   17SOL    HW1   82   0.242   1.797   0.525
   17SOL    HW2   83   0.287   1.704   0.413
   18SOL     OW   84   1.133   1.327   1.670
   18SOL    HW1   85   1.206   1.314   1.730
   18SOL    HW2   86   1.073   1.255   1.690
   19SOL     OW   87   0.248   1.449   0.533
   19SOL    HW1   88   0.208   1.536   0.526
   19SOL    HW2   89   0.186   1.399   0.585
   20SOL     OW   90   0.263   1.085   0.897
   20SOL    HW1   91   0.251   0.996   0.933
   20SOL    HW2   92   0.197   1.138   0.943
   21SOL     OW   93   0.617   1.790   1.432
   21SOL    HW1   94   0.533   1.772   1.475
   21SOL    HW2   95   0.638   1.880   1.456
   22SOL     OW   96   0.592   0.975   0.147
   22SOL    HW1   97   0.606   1.048   0.087
   22SOL    HW2   98   0.633   1.003   0.229
   23SOL     OW   99   1.550   0.143   1.462
   23SOL    HW1  100   1.589   0.213   1.411
   23SOL    HW2  101   1.616   0.118   1.526
   24SOL     OW  102   0.133   0.625   0.574
   24SOL    HW1  103   0.080   0.553   0.608
   24SOL    HW2  104   0.121   0.695   0.638
   25SOL     OW  105   1.843   1.762   0.340
   25SOL    HW1  106   1.904   1.729   0.406
   25SOL    HW2  107   1.871   1.852   0.324
   26SOL     OW  108   0.020   1.599   0.116
   26SOL    HW1  109   0.020   1.505   0.131
   26SOL    HW2  110   2.990   1.636   0.199
   27SOL     OW  111   1.694   0.923   0.640
   27SOL    HW1  112   1.775   0.877   0.618
   27SOL    HW2  113   1.671   0.969   0.559
   28SOL     OW  114   1.646   1.108   0.432
   28SOL    HW1  115   1.731   1.113   0.389
   28SOL    HW2  116   1.653   1.168   0.506
   29SOL     OW  117   0.127   0.746   1.592
   29SOL    HW1  118   0.221   0.757   1.600
   29SOL    HW2  119   0.093   0.836   1.586
   30SOL     OW  120   0.612   1.380   0.735
   30SOL    HW1  121   0.565   1.298   0.743
   30SOL    HW2  122   0.595   1.409   0.646
   31SOL     OW  123   0.819   0.011   0.510
   31SOL    HW1  124   0.847   0.101   0.497
   31SOL    HW2  125   0.724   0.013   0.499
   32SOL     OW  126   0.189   0.959   1.274
   32SOL    HW1  127   0.272   0.919   1.250
   32SOL    HW2  128   0.124   0.914   1.220
   33SOL     OW  129   1.506   1.008   0.208
   33SOL    HW1  130   1.444   0.944   0.244
   33SOL    HW2  131   1.562   1.031   0.282
   34SOL     OW  132   1.179   1.813   1.613
   34SOL    HW1  133   1.205   1.869   1.540
   34SOL    HW2  134   1.186   1.724   1.579
   35SOL     OW  135   0.330   0.253   1.795
   35SOL    HW1  136   0.381   0.329   1.820
   35SOL    HW2  137   0.247   0.263   1.841
   36SOL     OW  138   1.439   1.425   0.926
   36SOL    HW1  139   1.390   1.427   1.008
   36SOL    HW2  140   1.440   1.333   0.900
   37SOL     OW  141   1.665   1.731   0.580
   37SOL    HW1  142   1.642   1.709   0.489
   37SOL    HW2  143   1.631   1.657   0.631
   38SOL     OW  144   0.592   0.720   0.265
   38SOL    HW1  145   0.602   0.802   0.216
   38SOL    HW2  146   0.529   0.741   0.334
   39SOL     OW  147   1.285   0.342   0.931
   39SOL    HW1  148   1.194   0.315   0.938
   39SOL    HW2  149   1.331   0.292   0.998
   40SOL     OW  150   1.583   1.668   0.310
   40SOL    HW1  151   1.672   1.703   0.301
   40SOL    HW2  152   1.557   1.646   0.221
   41SOL     OW  153   0.794   0.618   1.456
   41SOL    HW1  154   0.765   0.595   1.544
   41SOL    HW2  155   0.752   0.553   1.399
   42SOL     OW  156   1.396   0.477   1.677
   42SOL    HW1  157   1.396   0.520   1.762
   42SOL    HW2  158   1.456   0.402   1.688
   43SOL     OW  159   0.962   0.888   1.580
   43SOL    HW1  160   1.014   0.815   1.547
   43SOL    HW2  161   0.911   0.918   1.504
   44SOL     OW  162   0.994   0.423   1.230
   44SOL    HW1  163   0.917   0.436   1.285
   44SOL    HW2  164   0.963   0.370   1.157
   45SOL     OW  165   1.047   0.705   0.425
   45SOL    HW1  166   1.064   0.695   0.519
   45SOL    HW2  167   0.968   0.654   0.409
   46SOL     OW  168   0.103   0.820   0.760
   46SOL    HW1  169   0.178   0.815   0.820
   46SOL    HW2  170   0.036   0.866   0.810
   47SOL     OW  171   0.139   1.833   1.572
   47SOL    HW1  172   0.125   1.813   1.664
   47SOL    HW2  173   0.053   1.861   1.540
   48SOL     OW  174   0.929   0.338   0.220
   48SOL    HW1  175   0.935   0.400   0.147
   48SOL    HW2  176   0.881   0.263   0.183
   49SOL     OW  177   1.713   0.580   1.829
   49SOL    HW1  178   1.675   0.657   1.788
   49SOL    HW2  179   1.732   0.521   1.756
   50SOL     OW  180   1.375   1.143   0.543
   50SOL    HW1  181   1.452   1.126   0.488
   50SOL    HW2  182   1.323   1.204   0.492
   51SOL     OW  183   0.517   0.192   0.914
   51SOL    HW1  184   0.536   0.211   1.006
   51SOL    HW2  185   0.544   0.271   0.867
   52SOL     OW  186   1.012   1.451   0.477
   52SOL    HW1  187   0.967   1.517   0.424
   52SOL    HW2  188   0.987   1.472   0.567
   53SOL     OW  189   0.353   1.805   0.854
   53SOL    HW1  190   0.400   1.722   0.866
   53SOL    HW2  191   0.420   1.872   0.870
   54SOL     OW  192   1.799   1.067   0.868
   54SOL    HW1  193   1.749   1.043   0.790
   54SOL    HW2  194   1.736   1.061   0.940
   55SOL     OW  195   1.189   1.569   1.497
   55SOL    HW1  196   1.260   1.519   1.537
   55SOL    HW2  197   1.132   1.503   1.459
   56SOL     OW  198   0.320   0.951   0.232
   56SOL    HW1  199   0.412   0.957   0.205
   56SOL    HW2  200   0.293   0.863   0.204
   57SOL     OW  201   1.473   0.740   0.729
   57SOL    HW1  202   1.463   0.690   0.810
   57SOL    HW2  203   1.553   0.792   0.743
   58SOL     OW  204   0.464   1.261   1.735
   58SOL    HW1  205   0.435   1.267   1.644
   58SOL    HW2  206   0.384   1.266   1.787
   59SOL     OW  207   1.111   1.776   0.226
   59SOL    HW1  208   1.050   1.727   0.282
   59SOL    HW2  209   1.140   1.712   0.161
   60SOL     OW  210   0.201   0.296   1.496
   60SOL    HW1  211   0.117   0.343   1.490
   60SOL    HW2  212   0.185   0.225   1.557
   61SOL     OW  213   1.627   1.364   0.085
   61SOL    HW1  214   1.599   1.455   0.075
   61SOL    HW2  215   1.546   1.313   0.077
   62SOL     OW  216   0.467   1.726   0.333
   62SOL    HW1  217   0.500   1.794   0.392
   62SOL    HW2  218   0.533   1.721   0.264
   63SOL     OW  219   1.409   0.106   0.436
   63SOL    HW1  220   1.389   0.081   0.346
   63SOL    HW2  221   1.502   0.127   0.435
   64SOL     OW  222   0.263   1.797   1.234
   64SOL    HW1  223   0.302   1.724   1.283
   64SOL    HW2  224   0.230   1.756   1.153
   65SOL     OW  225   0.938   1.697   0.900
   65SOL    HW1  226   1.017   1.644   0.913
   65SOL    HW2  227   0.889   1.651   0.832
   66SOL     OW  228   0.392   0.692   0.474
   66SOL    HW1  229   0.423   0.603   0.489
   66SOL    HW2  230   0.300   0.691   0.501
   67SOL     OW  231   1.539   0.246   1.733
   67SOL    HW1  232   1.543   0.257   1.829
   67SOL    HW2  233   1.482   0.171   1.720
   68SOL     OW  234   0.610   0.109   0.108
   68SOL    HW1  235   0.705   0.110   0.120
   68SOL    HW2  236   0.597   0.140   0.018
   69SOL     OW  237   0.766   0.270   1.748
   69SOL    HW1  238   0.840   0.212   1.767
   69SOL    HW2  239   0.721   0.278   1.832
   70SOL     OW  240   0.882   1.524   1.188
   70SOL    HW1  241   0.859   1.488   1.102
   70SOL    HW2  242   0.942   1.459   1.226
   71SOL     OW  243   1.344   0.589   1.433
   71SOL    HW1  244   1.372   0.555   1.518
   71SOL    HW2  245   1.378   0.678   1.431
   72SOL     OW  246   0.813   1.399   0.934
   72SOL    HW1  247   0.895   1.392   0.885
   72SOL    HW2  248   0.745   1.396   0.867
   73SOL     OW  249   0.927   0.511   0.902
   73SOL    HW1  250   0.905   0.502   0.810
   73SOL    HW2  251   0.959   0.424   0.927
   74SOL     OW  252   0.540   0.048   0.496
   74SOL    HW1  253   0.455   0.040   0.538
   74SOL    HW2  254   0.534   0.127   0.443
   75SOL     OW  255   1.413   1.210   0.049
   75SOL    HW1  256   1.435   1.134   0.103
   75SOL    HW2  257   1.323   1.230   0.073
   76SOL     OW  258   0.300   0.080   0.196
   76SOL    HW1  259   0.380   0.133   0.187
   76SOL    HW2  260   0.332   2.990   0.204
   77SOL     OW  261   0.944   0.251   0.474
   77SOL    HW1  262   0.918   0.289   0.389
   77SOL    HW2  263   1.039   0.259   0.476
   78SOL     OW  264   1.080   0.678   1.458
   78SOL    HW1  265   1.009   0.614   1.467
   78SOL    HW2  266   1.159   0.625   1.453
   79SOL     OW  267   1.220   1.578   0.800
   79SOL    HW1  268   1.235   1.640   0.728
   79SOL    HW2  269   1.304   1.574   0.845
   80SOL     OW  270   0.468   1.147   0.739
   80SOL    HW1  271   0.396   1.128   0.799
   80SOL    HW2  272   0.431   1.133   0.652
   81SOL     OW  273   1.272   1.796   0.606
   81SOL    HW1  274   1.315   1.857   0.546
   81SOL    HW2  275   1.205   1.849   0.650
   82SOL     OW  276   1.043   0.502   0.028
   82SOL    HW1  277   0.999   0.587   0.016
   82SOL    HW2  278   1.110   0.519   0.094
   83SOL     OW  279   0.082   0.561   1.393
   83SOL    HW1  280   0.171   0.560   1.357
   83SOL    HW2  281   0.084   0.628   1.460
   84SOL     OW  282   0.578   0.216   1.176
   84SOL    HW1  283   0.610   0.161   1.247
   84SOL    HW2  284   0.485   0.228   1.195
   85SOL     OW  285   0.877   0.469   0.638
   85SOL    HW1  286   0.820   0.515   0.576
   85SOL    HW2  287   0.885   0.381   0.602
   86SOL     OW  288   1.000   0.053   0.766
   86SOL    HW1  289   0.963   0.062   0.678
   86SOL    HW2  290   0.976   2.964   0.793
   87SOL     OW  291   1.435   1.163   0.860
   87SOL    HW1  292   1.370   1.093   0.855
   87SOL    HW2  293   1.464   1.175   0.770
   88SOL     OW  294   1.469   0.602   0.983
   88SOL    HW1  295   1.421   0.519   0.988
   88SOL    HW2  296   1.530   0.598   1.056
   89SOL     OW  297   1.841   0.821   0.386
   89SOL    HW1  298   1.901   0.764   0.435
   89SOL    HW2  299   1.819   0.770   0.308
   90SOL     OW  300   0.490   1.405   0.155
   90SOL    HW1  301   0.423   1.375   0.217
   90SOL    HW2  302   0.444   1.411   0.071
   91SOL     OW  303   1.667   1.265   0.656
   91SOL    HW1  304   1.763   1.270   0.662
   91SOL    HW2  305   1.637   1.355   0.668
   92SOL     OW  306   1.412   0.578   0.098
   92SOL    HW1  307   1.340   0.566   0.160
   92SOL    HW2  308   1.463   0.497   0.105
   93SOL     OW  309   0.529   0.263   0.326
   93SOL    HW1  310   0.567   0.212   0.255
   93SOL    HW2  311   0.505   0.346   0.285
   94SOL     OW  312   1.790   1.195   1.556
   94SOL    HW1  313   1.878   1.209   1.591
   94SOL    HW2  314   1.736   1.261   1.600
   95SOL     OW  315   1.065   1.346   1.365
   95SOL    HW1  316   0.971   1.331   1.377
   95SOL    HW2  317   1.106   1.308   1.442
   96SOL     OW  318   1.633   1.658   1.656
   96SOL    HW1  319   1.587   1.647   1.573
   96SOL    HW2  320   1.681   1.576   1.668
   97SOL     OW  321   1.134   1.214   1.112
   97SOL    HW1  322   1.063   1.239   1.171
   97SOL    HW2  323   1.100   1.231   1.024
   98SOL     OW  324   1.629   1.094   1.075
   98SOL    HW1  325   1.632   1.169   1.135
   98SOL    HW2  326   1.549   1.108   1.023
   99SOL     OW  327   0.902   0.108   1.391
   99SOL    HW1  328   0.941   0.090   1.305
   99SOL    HW2  329   0.967   0.161   1.436
  100SOL     OW  330   0.978   1.115   1.717
  100SOL    HW1  331   0.886   1.123   1.742
  100SOL    HW2  332   0.982   1.034   1.667
  101SOL     OW  333   0.704   1.063   0.377
  101SOL    HW1  334   0.689   1.050   0.471
  101SOL    HW2  335   0.784   1.013   0.359
  102SOL     OW  336   0.419   0.812   1.248
  102SOL    HW1  337   0.486   0.823   1.315
  102SOL    HW2  338   0.382   0.726   1.265
  103SOL     OW  339   1.272   0.388   1.259
  103SOL    HW1  340   1.300   0.459   1.317
  103SOL    HW2  341   1.178   0.402   1.247
  104SOL     OW  342   0.067   1.571   1.312
  104SOL    HW1  343   0.029   1.657   1.329
  104SOL    HW2  344   0.155   1.576   1.350
  105SOL     OW  345   0.366   1.108   0.490
  105SOL    HW1  346   0.349   1.181   0.431
  105SOL    HW2  347   0.355   1.030   0.436
  106SOL     OW  348   0.555   0.541   0.863
  106SOL    HW1  349   0.574   0.596   0.786
  106SOL    HW2  350   0.618   0.570   0.929
  107SOL     OW  351   1.248   1.345   0.396
  107SOL    HW1  352   1.302   1.419   0.422
  107SOL    HW2  353   1.160   1.369   0.426
  108SOL     OW  354   1.584   0.627   0.478
  108SOL    HW1  355   1.540   0.688   0.537
  108SOL    HW2  356   1.633   0.682   0.417
  109SOL     OW  357   0.351   1.527   1.322
  109SOL    HW1  358   0.331   1.485   1.238
  109SOL    HW2  359   0.446   1.537   1.322
  110SOL     OW  360   0.410   0.742   1.602
  110SOL    HW1  361   0.467   0.791   1.543
  110SOL    HW2  362   0.457   0.660   1.617
  111SOL     OW  363   1.593   0.772   1.675
  111SOL    HW1  364   1.508   0.815   1.671
  111SOL    HW2  365   1.646   0.819   1.611
  112SOL     OW  366   1.002   0.108   1.762
  112SOL    HW1  367   1.044   0.191   1.737
  112SOL    HW2  368   1.028   0.047   1.693
  113SOL     OW  369   0.502   0.051   1.749
  113SOL    HW1  370   0.470   2.993   1.680
  113SOL    HW2  371   0.433   0.117   1.759
  114SOL     OW  372   0.586   0.870   1.033
  114SOL    HW1  373   0.605   0.964   1.025
  114SOL    HW2  374   0.525   0.865   1.106
  115SOL     OW  375   1.360   0.858   1.034
  115SOL    HW1  376   1.281   0.849   0.980
  115SOL    HW2  377   1.399   0.770   1.035
  116SOL     OW  378   1.206   0.531   0.272
  116SOL    HW1  379   1.214   0.450   0.322
  116SOL    HW2  380   1.165   0.593   0.333
  117SOL     OW  381   0.324   0.206   1.248
  117SOL    HW1  382   0.289   0.250   1.326
  117SOL    HW2  383   0.273   0.126   1.241
  118SOL     OW  384   0.035   1.305   1.279
  118SOL    HW1  385   0.069   1.259   1.357
  118SOL    HW2  386   0.045   1.398   1.301
  119SOL     OW  387   0.729   0.633   1.062
  119SOL    HW1  388   0.798   0.614   0.999
  119SOL    HW2  389   0.698   0.721   1.039
  120SOL     OW  390   1.738   0.955   1.854
  120SOL    HW1  391   1.685   0.917   1.784
  120SOL    HW2  392   1.676   0.968   1.926
  121SOL     OW  393   0.310   0.066   0.641
  121SOL    HW1  394   0.303   0.154   0.678
  121SOL    HW2  395   0.286   0.008   0.713
  122SOL     OW  396   1.612   0.372   0.369
  122SOL    HW1  397   1.645   0.309   0.433
  122SOL    HW2  398   1.588   0.449   0.421
  123SOL     OW  399   1.027   0.760   0.964
  123SOL    HW1  400   1.027   0.776   1.058
  123SOL    HW2  401   1.000   0.669   0.955
  124SOL     OW  402   0.963   1.552   1.708
  124SOL    HW1  403   0.955   1.606   1.629
  124SOL    HW2  404   1.022   1.481   1.682
  125SOL     OW  405   1.876   1.501   1.590
  125SOL    HW1  406   1.875   1.576   1.532
  125SOL    HW2  407   1.944   1.521   1.654
  126SOL     OW  408   0.355   0.914   1.808
  126SOL    HW1  409   0.436   0.933   1.854
  126SOL    HW2  410   0.379   0.852   1.740
  127SOL     OW  411   1.504   0.299   0.125
  127SOL    HW1  412   1.465   0.214   0.142
  127SOL    HW2  413   1.561   0.315   0.200
  128SOL     OW  414   1.294   0.825   0.035
  128SOL    HW1  415   1.335   0.740   0.049
  128SOL    HW2  416   1.324   0.852   2.948
  129SOL     OW  417   1.072   1.333   0.855
  129SOL    HW1  418   1.068   1.260   0.793
  129SOL    HW2  419   1.126   1.398   0.811
  130SOL     OW  420   0.311   0.809   0.949
  130SOL    HW1  421   0.404   0.828   0.943
  130SOL    HW2  422   0.306   0.722   0.988
  131SOL     OW  423   0.337   0.512   1.017
  131SOL    HW1  424   0.295   0.431   0.989
  131SOL    HW2  425   0.410   0.523   0.955
  132SOL     OW  426   1.140   0.384   1.696
  132SOL    HW1  427   1.096   0.437   1.762
  132SOL    HW2  428   1.228   0.421   1.690
  133SOL     OW  429   1.101   0.255   1.470
  133SOL    HW1  430   1.123   0.305   1.549
  133SOL    HW2  431   1.185   0.238   1.428
  134SOL     OW  432   0.008   1.315   0.174
  134SOL    HW1  433   2.915   1.330   0.153
  134SOL    HW2  434   0.007   1.238   0.230
  135SOL     OW  435   0.097   1.807   0.964
  135SOL    HW1  436   0.056   1.739   0.910
  135SOL    HW2  437   0.183   1.821   0.924
  136SOL     OW  438   0.498   1.572   0.903
  136SOL    HW1  439   0.567   1.634   0.928
  136SOL    HW2  440   0.543   1.506   0.850
  137SOL     OW  441   0.990   0.799   1.230
  137SOL    HW1  442   1.040   0.768   1.306
  137SOL    HW2  443   0.904   0.759   1.240
  138SOL     OW  444   0.046   0.560   1.109
  138SOL    HW1  445   0.132   0.529   1.083
  138SOL    HW2  446   0.041   0.542   1.203
  139SOL     OW  447   0.194   0.517   1.719
  139SOL    HW1  448   0.265   0.493   1.659
  139SOL    HW2  449   0.156   0.596   1.681
  140SOL     OW  450   1.379   0.947   1.666
  140SOL    HW1  451   1.405   1.037   1.684
  140SOL    HW2  452   1.387   0.938   1.571
  141SOL     OW  453   0.819   0.577   0.346
  141SOL    HW1  454   0.821   0.497   0.293
  141SOL    HW2  455   0.736   0.619   0.322
  142SOL     OW  456   1.645   0.604   1.191
  142SOL    HW1  457   1.630   0.544   1.264
  142SOL    HW2  458   1.731   0.579   1.157
  143SOL     OW  459   0.281   1.560   1.748
  143SOL    HW1  460   0.220   1.617   1.795
  143SOL    HW2  461   0.251   1.472   1.767
  144SOL     OW  462   0.693   0.457   1.265
  144SOL    HW1  463   0.647   0.380   1.232
  144SOL    HW2  464   0.694   0.518   1.191
  145SOL     OW  465   0.917   1.681   1.467
  145SOL    HW1  466   0.896   1.656   1.377
  145SOL    HW2  467   0.930   1.775   1.463
  146SOL     OW  468   0.448   0.495   0.200
  146SOL    HW1  469   0.512   0.564   0.218
  146SOL    HW2  470   0.364   0.541   0.191
  147SOL     OW  471   0.162   1.143   1.466
  147SOL    HW1  472   0.147   1.094   1.546
  147SOL    HW2  473   0.169   1.077   1.397
  148SOL     OW  474   1.332   1.051   1.215
  148SOL    HW1  475   1.358   0.982   1.154
  148SOL    HW2  476   1.247   1.081   1.183
  149SOL     OW  477   1.305   0.851   0.312
  149SOL    HW1  478   1.226   0.820   0.357
  149SOL    HW2  479   1.285   0.841   0.219
  150SOL     OW  480   1.242   1.742   1.119
  150SOL    HW1  481   1.322   1.749   1.066
  150SOL    HW2  482   1.237   1.649   1.143
  151SOL     OW  483   0.093   1.246   1.027
  151SOL    HW1  484   0.076   1.260   1.120
  151SOL    HW2  485   0.007   1.255   0.985
  152SOL     OW  486   0.679   1.665   1.725
  152SOL    HW1  487   0.624   1.743   1.721
  152SOL    HW2  488   0.738   1.673   1.650
  153SOL     OW  489   0.884   0.082   0.141
  153SOL    HW1  490   0.943   0.065   0.067
  153SOL    HW2  491   0.919   0.029   0.212
  154SOL     OW  492   1.716   0.140   0.508
  154SOL    HW1  493   1.785   0.139   0.442
  154SOL    HW2  494   1.727   0.059   0.557
  155SOL     OW  495   1.391   1.569   0.484
  155SOL    HW1  496   1.451   1.598   0.415
  155SOL    HW2  497   1.343   1.648   0.509
  156SOL     OW  498   0.124   1.799   1.843
  156SOL    HW1  499   0.082   1.729   1.894
  156SOL    HW2  500   0.182   1.842   1.906
  157SOL     OW  501   1.278   0.926   0.673
  157SOL    HW1  502   1.350   0.863   0.676
  157SOL    HW2  503   1.312   0.998   0.619
  158SOL     OW  504   0.816   1.278   1.424
  158SOL    HW1  505   0.794   1.311   1.511
  158SOL    HW2  506   0.736   1.292   1.372
  159SOL     OW  507   0.674   1.608   0.158
  159SOL    HW1  508   0.671   1.627   0.064
  159SOL    HW2  509   0.618   1.531   0.169
  160SOL     OW  510   1.649   1.740   1.386
  160SOL    HW1  511   1.695   1.776   1.310
  160SOL    HW2  512   1.619   1.817   1.434
  161SOL     OW  513   1.849   0.157   0.968
  161SOL    HW1  514   1.856   0.077   0.916
  161SOL    HW2  515   1.766   0.197   0.940
  162SOL     OW  516   0.269   0.336   0.744
  162SOL    HW1  517   0.181   0.368   0.726
  162SOL    HW2  518   0.265   0.304   0.834
  163SOL     OW  519   1.203   1.606   0.034
  163SOL    HW1  520   1.197   1.516   0.065
  163SOL    HW2  521   1.153   1.606   2.952
  164SOL     OW  522   0.824   1.007   1.374
  164SOL    HW1  523   0.860   1.002   1.285
  164SOL    HW2  524   0.824   1.100   1.395
  165SOL     OW  525   0.920   0.926   0.305
  165SOL    HW1  526   0.984   0.960   0.243
  165SOL    HW2  527   0.966   0.857   0.353
  166SOL     OW  528   1.489   1.602   0.051
  166SOL    HW1  529   1.394   1.616   0.052
  166SOL    HW2  530   1.516   1.632   2.964
  167SOL     OW  531   0.375   1.303   1.489
  167SOL    HW1  532   0.355   1.383   1.441
  167SOL    HW2  533   0.299   1.247   1.476
  168SOL     OW  534   1.048   1.106   0.708
  168SOL    HW1  535   0.976   1.054   0.745
  168SOL    HW2  536   1.106   1.041   0.668
  169SOL     OW  537   1.018   0.242   0.965
  169SOL    HW1  538   1.011   0.191   0.884
  169SOL    HW2  539   1.018   0.177   1.035
  170SOL     OW  540   0.602   1.493   0.485
  170SOL    HW1  541   0.639   1.440   0.415
  170SOL    HW2  542   0.536   1.548   0.442
  171SOL     OW  543   1.718   0.391   1.379
  171SOL    HW1  544   1.790   0.454   1.377
  171SOL    HW2  545   1.746   0.321   1.321
  172SOL     OW  546   0.264   1.338   0.293
  172SOL    HW1  547   0.174   1.341   0.260
  172SOL    HW2  548   0.260   1.382   0.378
  173SOL     OW  549   0.125   1.015   1.710
  173SOL    HW1  550   0.049   0.973   1.751
  173SOL    HW2  551   0.200   0.978   1.756
  174SOL     OW  552   0.664   0.208   1.493
  174SOL    HW1  553   0.747   0.180   1.453
  174SOL    HW2  554   0.687   0.224   1.585
  175SOL     OW  555   0.071   0.318   0.049
  175SOL    HW1  556   2.976   0.324   0.033
  175SOL    HW2  557   0.105   0.403   0.021
  176SOL     OW  558   1.433   0.864   1.405
  176SOL    HW1  559   1.386   0.916   1.339
  176SOL    HW2  560   1.523   0.863   1.373
  177SOL     OW  561   0.040   0.186   0.293
  177SOL    HW1  562   0.046   0.247   0.219
  177SOL    HW2  563   0.128   0.149   0.301
  178SOL     OW  564   1.184   1.350   0.124
  178SOL    HW1  565   1.091   1.330   0.113
  178SOL    HW2  566   1.201   1.337   0.217
  179SOL     OW  567   0.617   0.832   1.433
  179SOL    HW1  568   0.672   0.908   1.419
  179SOL    HW2  569   0.678   0.759   1.441
  180SOL     OW  570   1.483   1.766   0.970
  180SOL    HW1  571   1.498   1.822   0.895
  180SOL    HW2  572   1.564   1.769   1.020
  181SOL     OW  573   0.715   0.565   1.708
  181SOL    HW1  574   0.751   0.631   1.768
  181SOL    HW2  575   0.759   0.484   1.733
  182SOL     OW  576   0.388   1.738   1.564
  182SOL    HW1  577   0.301   1.776   1.551
  182SOL    HW2  578   0.371   1.656   1.610
  183SOL     OW  579   1.669   0.882   1.255
  183SOL    HW1  580   1.664   0.793   1.219
  183SOL    HW2  581   1.666   0.939   1.179
  184SOL     OW  582   1.226   0.317   0.453
  184SOL    HW1  583   1.288   0.244   0.453
  184SOL    HW2  584   1.249   0.367   0.532
  185SOL     OW  585   0.594   0.742   0.665
  185SOL    HW1  586   0.631   0.829   0.649
  185SOL    HW2  587   0.520   0.736   0.604
  186SOL     OW  588   1.767   0.351   1.644
  186SOL    HW1  589   1.745   0.375   1.554
  186SOL    HW2  590   1.685   0.316   1.680
  187SOL     OW  591   1.738   0.933   1.517
  187SOL    HW1  592   1.754   1.025   1.535
  187SOL    HW2  593   1.729   0.928   1.421
  188SOL     OW  594   0.904   1.386   0.061
  188SOL    HW1  595   0.829   1.388   0.120
  188SOL    HW2  596   0.869   1.419   2.978
  189SOL     OW  597   0.658   1.794   0.949
  189SOL    HW1  598   0.634   1.883   0.925
  189SOL    HW2  599   0.754   1.792   0.940
  190SOL     OW  600   0.866   0.965   0.857
  190SOL    HW1  601   0.914   0.893   0.898
  190SOL    HW2  602   0.832   1.016   0.931
  191SOL     OW  603   1.101   1.022   0.097
  191SOL    HW1  604   1.063   1.052   0.015
  191SOL    HW2  605   1.165   0.956   0.072
  192SOL     OW  606   1.855   1.553   0.847
  192SOL    HW1  607   1.796   1.562   0.772
  192SOL    HW2  608   1.864   1.458   0.859
  193SOL     OW  609   0.225   1.304   1.855
  193SOL    HW1  610   0.174   1.227   1.830
  193SOL    HW2  611   0.209   1.314   1.949
  194SOL     OW  612   0.127   1.251   0.667
  194SOL    HW1  613   0.069   1.187   0.710
  194SOL    HW2  614   0.171   1.201   0.599
  195SOL     OW  615   0.681   1.399   1.628
  195SOL    HW1  616   0.600   1.354   1.652
  195SOL    HW2  617   0.669   1.489   1.658
  196SOL     OW  618   1.797   0.178   1.235
  196SOL    HW1  619   1.842   0.101   1.271
  196SOL    HW2  620   1.823   0.181   1.143
  197SOL     OW  621   0.463   0.431   0.545
  197SOL    HW1  622   0.453   0.370   0.471
  197SOL    HW2  623   0.401   0.400   0.610
  198SOL     OW  624   0.331   0.554   1.290
  198SOL    HW1  625   0.386   0.497   1.344
  198SOL    HW2  626   0.350   0.526   1.200
  199SOL     OW  627   0.826   1.576   0.679
  199SOL    HW1  628   0.820   1.624   0.596
  199SOL    HW2  629   0.745   1.524   0.682
  200SOL     OW  630   1.428   0.215   1.127
  200SOL    HW1  631   1.454   0.146   1.188
  200SOL    HW2  632   1.378   0.277   1.180
  201SOL     OW  633   1.013   0.028   1.151
  201SOL    HW1  634   0.937   2.989   1.108
  201SOL    HW2  635   1.084   2.965   1.137
  202SOL     OW  636   0.764   1.329   0.314
  202SOL    HW1  637   0.731   1.241   0.327
  202SOL    HW2  638   0.853   1.327   0.349
  203SOL     OW  639   0.623   1.558   1.284
  203SOL    HW1  640   0.623   1.639   1.336
  203SOL    HW2  641   0.709   1.556   1.243
  204SOL     OW  642   1.356   0.055   0.172
  204SOL    HW1  643   1.411   2.987   0.134
  204SOL    HW2  644   1.266   0.024   0.158
  205SOL     OW  645   1.298   0.460   0.683
  205SOL    HW1  646   1.242   0.537   0.691
  205SOL    HW2  647   1.296   0.419   0.769
  206SOL     OW  648   1.605   0.230   0.887
  206SOL    HW1  649   1.524   0.227   0.937
  206SOL    HW2  650   1.595   0.305   0.829
  207SOL     OW  651   0.070   1.089   0.342
  207SOL    HW1  652   0.145   1.048   0.299
  207SOL    HW2  653   0.002   1.023   0.340
  208SOL     OW  654   0.881   1.651   0.345
  208SOL    HW1  655   0.811   1.628   0.284
  208SOL    HW2  656   0.846   1.725   0.395
  209SOL     OW  657   0.238   0.647   1.972
  209SOL    HW1  658   0.170   0.609   2.027
  209SOL    HW2  659   0.227   0.604   1.887
  210SOL     OW  660   0.235   0.247   2.850
  210SOL    HW1  661   0.251   0.239   2.944
  210SOL    HW2  662   0.141   0.239   2.841
  211SOL     OW  663   0.008   0.384   2.521
  211SOL    HW1  664   2.924   0.423   2.547
  211SOL    HW2  665   2.983   0.312   2.462
  212SOL     OW  666   1.571   1.509   2.581
  212SOL    HW1  667   1.517   1.492   2.657
  212SOL    HW2  668   1.509   1.524   2.510
  213SOL     OW  669   1.132   0.698   2.566
  213SOL    HW1  670   1.182   0.778   2.551
  213SOL    HW2  671   1.083   0.716   2.647
  214SOL     OW  672   1.765   0.607   2.094
  214SOL    HW1  673   1.746   0.599   2.000
  214SOL    HW2  674   1.730   0.526   2.132
  215SOL     OW  675   0.752   1.145   2.894
  215SOL    HW1  676   0.685   1.190   2.946
  215SOL    HW2  677   0.803   1.216   2.855
  216SOL     OW  678   0.685   1.009   2.511
  216SOL    HW1  679   0.749   0.993   2.579
  216SOL    HW2  680   0.614   1.057   2.554
  217SOL     OW  681   0.331   1.453   2.933
  217SOL    HW1  682   0.276   1.389   2.887
  217SOL    HW2  683   0.386   1.490   2.864
  218SOL     OW  684   1.615   0.455   2.592
  218SOL    HW1  685   1.539   0.481   2.540
  218SOL    HW2  686   1.621   0.522   2.660
  219SOL     OW  687   0.221   1.712   2.347
  219SOL    HW1  688   0.243   1.795   2.388
  219SOL    HW2  689   0.279   1.707   2.271
  220SOL     OW  690   0.248   1.446   2.389
  220SOL    HW1  691   0.215   1.536   2.389
  220SOL    HW2  692   0.187   1.397   2.445
  221SOL     OW  693   0.239   1.084   2.748
  221SOL    HW1  694   0.256   1.004   2.796
  221SOL    HW2  695   0.194   1.141   2.811
  222SOL     OW  696   0.588   0.979   1.994
  222SOL    HW1  697   0.630   1.031   1.926
  222SOL    HW2  698   0.632   1.006   2.075
  223SOL     OW  699   0.131   0.625   2.436
  223SOL    HW1  700   0.083   0.550   2.473
  223SOL    HW2  701   0.122   0.694   2.501
  224SOL     OW  702   1.847   1.763   2.196
  224SOL    HW1  703   1.899   1.733   2.271
  224SOL    HW2  704   1.874   1.854   2.183
  225SOL     OW  705   0.031   1.598   1.997
  225SOL    HW1  706   0.021   1.503   2.006
  225SOL    HW2  707   2.978   1.634   2.068
  226SOL     OW  708   1.689   0.917   2.497
  226SOL    HW1  709   1.776   0.882   2.479
  226SOL    HW2  710   1.667   0.969   2.420
  227SOL     OW  711   1.645   1.107   2.293
  227SOL    HW1  712   1.729   1.119   2.248
  227SOL    HW2  713   1.649   1.168   2.367
  228SOL     OW  714   0.610   1.379   2.593
  228SOL    HW1  715   0.563   1.296   2.602
  228SOL    HW2  716   0.593   1.407   2.503
  229SOL     OW  717   0.820   0.009   2.367
  229SOL    HW1  718   0.848   0.099   2.353
  229SOL    HW2  719   0.724   0.012   2.360
  230SOL     OW  720   1.537   0.989   2.060
  230SOL    HW1  721   1.464   0.934   2.087
  230SOL    HW2  722   1.572   1.025   2.141
  231SOL     OW  723   1.434   1.422   2.806
  231SOL    HW1  724   1.411   1.416   2.898
  231SOL    HW2  725   1.444   1.331   2.777
  232SOL     OW  726   1.665   1.732   2.438
  232SOL    HW1  727   1.631   1.706   2.353
  232SOL    HW2  728   1.641   1.660   2.496
  233SOL     OW  729   0.595   0.723   2.125
  233SOL    HW1  730   0.606   0.803   2.073
  233SOL    HW2  731   0.531   0.746   2.192
  234SOL     OW  732   1.294   0.334   2.807
  234SOL    HW1  733   1.199   0.322   2.802
  234SOL    HW2  734   1.318   0.297   2.892
  235SOL     OW  735   1.590   1.677   2.176
  235SOL    HW1  736   1.679   1.707   2.163
  235SOL    HW2  737   1.557   1.658   2.087
  236SOL     OW  738   1.048   0.699   2.290
  236SOL    HW1  739   1.063   0.692   2.384
  236SOL    HW2  740   0.966   0.651   2.275
  237SOL     OW  741   0.103   0.817   2.624
  237SOL    HW1  742   0.182   0.812   2.679
  237SOL    HW2  743   0.046   0.879   2.670
  238SOL     OW  744   0.872   0.352   2.048
  238SOL    HW1  745   0.933   0.410   2.002
  238SOL    HW2  746   0.903   0.264   2.028
  239SOL     OW  747   1.378   1.137   2.409
  239SOL    HW1  748   1.454   1.126   2.351
  239SOL    HW2  749   1.325   1.204   2.365
  240SOL     OW  750   0.555   0.196   2.828
  240SOL    HW1  751   0.506   0.264   2.874
  240SOL    HW2  752   0.571   0.232   2.741
  241SOL     OW  753   1.002   1.447   2.331
  241SOL    HW1  754   0.961   1.524   2.293
  241SOL    HW2  755   1.004   1.464   2.425
  242SOL     OW  756   0.353   1.800   2.712
  242SOL    HW1  757   0.400   1.718   2.728
  242SOL    HW2  758   0.415   1.868   2.736
  243SOL     OW  759   1.804   1.061   2.721
  243SOL    HW1  760   1.744   1.047   2.648
  243SOL    HW2  761   1.748   1.061   2.799
  244SOL     OW  762   0.315   0.949   2.106
  244SOL    HW1  763   0.399   0.975   2.066
  244SOL    HW2  764   0.295   0.864   2.067
  245SOL     OW  765   1.472   0.741   2.589
  245SOL    HW1  766   1.469   0.688   2.669
  245SOL    HW2  767   1.553   0.793   2.597
  246SOL     OW  768   1.644   1.374   1.934
  246SOL    HW1  769   1.599   1.457   1.948
  246SOL    HW2  770   1.574   1.313   1.909
  247SOL     OW  771   0.467   1.740   2.182
  247SOL    HW1  772   0.504   1.795   2.252
  247SOL    HW2  773   0.543   1.717   2.128
  248SOL     OW  774   1.408   0.108   2.296
  248SOL    HW1  775   1.392   0.078   2.206
  248SOL    HW2  776   1.502   0.128   2.298
  249SOL     OW  777   0.264   1.798   0.099
  249SOL    HW1  778   0.301   1.727   0.152
  249SOL    HW2  779   0.207   1.754   0.036
  250SOL     OW  780   0.943   1.692   2.759
  250SOL    HW1  781   1.023   1.640   2.761
  250SOL    HW2  782   0.887   1.649   2.694
  251SOL     OW  783   0.391   0.693   2.337
  251SOL    HW1  784   0.424   0.605   2.351
  251SOL    HW2  785   0.299   0.689   2.362
  252SOL     OW  786   0.623   0.121   1.975
  252SOL    HW1  787   0.713   0.088   1.971
  252SOL    HW2  788   0.587   0.102   1.889
  253SOL     OW  789   0.805   1.402   2.789
  253SOL    HW1  790   0.891   1.393   2.750
  253SOL    HW2  791   0.744   1.393   2.716
  254SOL     OW  792   0.920   0.518   2.759
  254SOL    HW1  793   0.903   0.498   2.667
  254SOL    HW2  794   0.952   0.435   2.796
  255SOL     OW  795   0.544   0.059   2.365
  255SOL    HW1  796   0.456   0.043   2.400
  255SOL    HW2  797   0.532   0.131   2.303
  256SOL     OW  798   1.401   1.171   1.893
  256SOL    HW1  799   1.452   1.111   1.947
  256SOL    HW2  800   1.383   1.245   1.950
  257SOL     OW  801   0.292   0.034   2.048
  257SOL    HW1  802   0.343   0.110   2.020
  257SOL    HW2  803   0.356   2.973   2.085
  258SOL     OW  804   0.938   0.252   2.326
  258SOL    HW1  805   0.909   0.297   2.247
  258SOL    HW2  806   1.033   0.263   2.327
  259SOL     OW  807   1.218   1.586   2.672
  259SOL    HW1  808   1.243   1.637   2.595
  259SOL    HW2  809   1.301   1.566   2.715
  260SOL     OW  810   0.462   1.146   2.602
  260SOL    HW1  811   0.389   1.129   2.662
  260SOL    HW2  812   0.426   1.129   2.515
  261SOL     OW  813   1.263   1.799   2.465
  261SOL    HW1  814   1.312   1.857   2.407
  261SOL    HW2  815   1.207   1.858   2.516
  262SOL     OW  816   1.023   0.549   1.883
  262SOL    HW1  817   0.985   0.635   1.864
  262SOL    HW2  818   1.089   0.567   1.950
  263SOL     OW  819   0.875   0.467   2.498
  263SOL    HW1  820   0.823   0.515   2.433
  263SOL    HW2  821   0.885   0.379   2.460
  264SOL     OW  822   1.000   0.048   2.625
  264SOL    HW1  823   0.964   0.055   2.536
  264SOL    HW2  824   0.977   2.959   2.652
  265SOL     OW  825   1.438   1.161   2.714
  265SOL    HW1  826   1.365   1.099   2.706
  265SOL    HW2  827   1.464   1.179   2.624
  266SOL     OW  828   1.489   0.585   2.821
  266SOL    HW1  829   1.425   0.514   2.829
  266SOL    HW2  830   1.512   0.607   2.911
  267SOL     OW  831   1.850   0.819   2.244
  267SOL    HW1  832   1.905   0.764   2.300
  267SOL    HW2  833   1.818   0.759   2.176
  268SOL     OW  834   0.493   1.411   2.024
  268SOL    HW1  835   0.418   1.383   2.076
  268SOL    HW2  836   0.465   1.398   1.933
  269SOL     OW  837   1.669   1.264   2.513
  269SOL    HW1  838   1.763   1.271   2.523
  269SOL    HW2  839   1.635   1.351   2.533
  270SOL     OW  840   1.393   0.571   1.932
  270SOL    HW1  841   1.333   0.553   2.005
  270SOL    HW2  842   1.478   0.539   1.963
  271SOL     OW  843   0.526   0.264   2.184
  271SOL    HW1  844   0.564   0.211   2.114
  271SOL    HW2  845   0.510   0.349   2.144
  272SOL     OW  846   1.646   1.102   2.932
  272SOL    HW1  847   1.647   1.170   2.999
  272SOL    HW2  848   1.561   1.112   2.889
  273SOL     OW  849   0.708   1.060   2.234
  273SOL    HW1  850   0.695   1.047   2.328
  273SOL    HW2  851   0.784   1.007   2.212
  274SOL     OW  852   0.354   1.106   2.355
  274SOL    HW1  853   0.356   1.179   2.293
  274SOL    HW2  854   0.358   1.028   2.300
  275SOL     OW  855   0.549   0.544   2.730
  275SOL    HW1  856   0.570   0.593   2.650
  275SOL    HW2  857   0.617   0.568   2.792
  276SOL     OW  858   1.246   1.333   2.281
  276SOL    HW1  859   1.292   1.411   2.249
  276SOL    HW2  860   1.157   1.365   2.300
  277SOL     OW  861   1.585   0.627   2.338
  277SOL    HW1  862   1.540   0.686   2.400
  277SOL    HW2  863   1.627   0.686   2.276
  278SOL     OW  864   0.576   0.871   2.880
  278SOL    HW1  865   0.617   0.954   2.857
  278SOL    HW2  866   0.548   0.881   2.971
  279SOL     OW  867   1.210   0.533   2.133
  279SOL    HW1  868   1.215   0.453   2.185
  279SOL    HW2  869   1.167   0.596   2.191
  280SOL     OW  870   0.731   0.641   2.919
  280SOL    HW1  871   0.797   0.615   2.855
  280SOL    HW2  872   0.699   0.726   2.886
  281SOL     OW  873   0.310   0.067   2.504
  281SOL    HW1  874   0.300   0.154   2.544
  281SOL    HW2  875   0.283   0.006   2.573
  282SOL     OW  876   1.606   0.372   2.233
  282SOL    HW1  877   1.645   0.312   2.295
  282SOL    HW2  878   1.588   0.451   2.284
  283SOL     OW  879   1.021   0.763   2.820
  283SOL    HW1  880   1.026   0.771   2.915
  283SOL    HW2  881   0.996   0.673   2.804
  284SOL     OW  882   1.531   0.274   1.993
  284SOL    HW1  883   1.469   0.208   2.023
  284SOL    HW2  884   1.565   0.312   2.074
  285SOL     OW  885   1.293   0.826   1.897
  285SOL    HW1  886   1.337   0.741   1.899
  285SOL    HW2  887   1.325   0.868   1.817
  286SOL     OW  888   1.052   1.347   2.698
  286SOL    HW1  889   1.064   1.264   2.651
  286SOL    HW2  890   1.130   1.398   2.675
  287SOL     OW  891   0.311   0.811   2.811
  287SOL    HW1  892   0.404   0.830   2.809
  287SOL    HW2  893   0.306   0.723   2.848
  288SOL     OW  894   0.322   0.518   2.872
  288SOL    HW1  895   0.291   0.430   2.848
  288SOL    HW2  896   0.401   0.531   2.819
  289SOL     OW  897   2.996   1.319   2.041
  289SOL    HW1  898   2.902   1.324   2.023
  289SOL    HW2  899   0.006   1.238   2.092
  290SOL     OW  900   0.093   1.818   2.808
  290SOL    HW1  901   0.056   1.739   2.770
  290SOL    HW2  902   0.184   1.820   2.777
  291SOL     OW  903   0.504   1.574   2.761
  291SOL    HW1  904   0.574   1.635   2.785
  291SOL    HW2  905   0.549   1.505   2.711
  292SOL     OW  906   0.980   0.755   0.088
  292SOL    HW1  907   1.028   0.751   0.170
  292SOL    HW2  908   0.889   0.772   0.114
  293SOL     OW  909   0.814   0.569   2.215
  293SOL    HW1  910   0.817   0.494   2.154
  293SOL    HW2  911   0.739   0.620   2.185
  294SOL     OW  912   0.700   0.439   0.093
  294SOL    HW1  913   0.605   0.426   0.097
  294SOL    HW2  914   0.711   0.516   0.037
  295SOL     OW  915   0.467   0.494   2.049
  295SOL    HW1  916   0.528   0.567   2.067
  295SOL    HW2  917   0.381   0.536   2.044
  296SOL     OW  918   1.309   0.854   2.170
  296SOL    HW1  919   1.230   0.827   2.217
  296SOL    HW2  920   1.288   0.842   2.077
  297SOL     OW  921   1.735   1.767   2.972
  297SOL    HW1  922   1.814   1.789   2.921
  297SOL    HW2  923   1.759   1.687   0.020
  298SOL     OW  924   0.076   1.251   2.901
  298SOL    HW1  925   0.048   1.272   2.990
  298SOL    HW2  926   0.001   1.273   2.846
  299SOL     OW  927   1.720   0.142   2.369
  299SOL    HW1  928   1.784   0.135   2.298
  299SOL    HW2  929   1.729   0.060   2.417
  300SOL     OW  930   1.411   1.578   2.383
  300SOL    HW1  931   1.428   1.573   2.289
  300SOL    HW2  932   1.346   1.647   2.392
  301SOL     OW  933   1.276   0.924   2.533
  301SOL    HW1  934   1.349   0.862   2.538
  301SOL    HW2  935   1.310   0.997   2.481
  302SOL     OW  936   0.677   1.610   2.012
  302SOL    HW1  937   0.673   1.626   1.918
  302SOL    HW2  938   0.618   1.536   2.026
  303SOL     OW  939   1.853   0.162   2.815
  303SOL    HW1  940   1.853   0.076   2.773
  303SOL    HW2  941   1.767   0.199   2.795
  304SOL     OW  942   0.271   0.336   2.601
  304SOL    HW1  943   0.182   0.369   2.590
  304SOL    HW2  944   0.273   0.302   2.691
  305SOL     OW  945   0.914   0.909   2.151
  305SOL    HW1  946   0.976   0.940   2.085
  305SOL    HW2  947   0.960   0.839   2.196
  306SOL     OW  948   1.515   1.673   1.902
  306SOL    HW1  949   1.462   1.594   1.916
  306SOL    HW2  950   1.552   1.661   1.814
  307SOL     OW  951   1.048   1.104   2.570
  307SOL    HW1  952   0.977   1.050   2.605
  307SOL    HW2  953   1.108   1.041   2.530
  308SOL     OW  954   1.014   0.245   2.812
  308SOL    HW1  955   1.009   0.182   2.739
  308SOL    HW2  956   1.041   0.192   2.887
  309SOL     OW  957   0.603   1.492   2.343
  309SOL    HW1  958   0.636   1.438   2.271
  309SOL    HW2  959   0.532   1.542   2.304
  310SOL     OW  960   0.255   1.347   2.145
  310SOL    HW1  961   0.161   1.344   2.128
  310SOL    HW2  962   0.263   1.385   2.232
  311SOL     OW  963   0.096   0.327   1.912
  311SOL    HW1  964   0.012   0.298   1.878
  311SOL    HW2  965   0.111   0.412   1.871
  312SOL     OW  966   0.024   0.214   2.148
  312SOL    HW1  967   0.065   0.262   2.076
  312SOL    HW2  968   0.086   0.144   2.169
  313SOL     OW  969   1.502   1.782   2.832
  313SOL    HW1  970   1.519   1.828   2.750
  313SOL    HW2  971   1.584   1.789   2.881
  314SOL     OW  972   1.720   0.855   0.069
  314SOL    HW1  973   1.640   0.809   0.095
  314SOL    HW2  974   1.691   0.943   0.047
  315SOL     OW  975   1.223   0.317   2.316
  315SOL    HW1  976   1.286   0.245   2.316
  315SOL    HW2  977   1.245   0.368   2.394
  316SOL     OW  978   0.592   0.742   2.527
  316SOL    HW1  979   0.632   0.827   2.511
  316SOL    HW2  980   0.521   0.737   2.464
  317SOL     OW  981   0.849   1.363   1.885
  317SOL    HW1  982   0.795   1.389   1.960
  317SOL    HW2  983   0.840   1.436   1.823
  318SOL     OW  984   0.661   1.797   2.822
  318SOL    HW1  985   0.638   1.884   2.790
  318SOL    HW2  986   0.755   1.790   2.805
  319SOL     OW  987   0.861   0.963   2.716
  319SOL    HW1  988   0.913   0.894   2.756
  319SOL    HW2  989   0.832   1.017   2.790
  320SOL     OW  990   1.074   0.982   1.946
  320SOL    HW1  991   1.062   1.040   1.871
  320SOL    HW2  992   1.156   0.935   1.929
  321SOL     OW  993   1.854   1.559   2.712
  321SOL    HW1  994   1.778   1.545   2.654
  321SOL    HW2  995   1.861   1.478   2.762
  322SOL     OW  996   0.125   1.250   2.524
  322SOL    HW1  997   0.087   1.186   2.584
  322SOL    HW2  998   0.180   1.198   2.465
  323SOL     OW  999   1.806   0.191   0.080
  323SOL    HW1 1000   1.833   0.111   0.125
  323SOL    HW2 1001   1.829   0.176   2.988
  324SOL     OW 1002   0.461   0.434   2.401
  324SOL    HW1 1003   0.454   0.370   2.331
  324SOL    HW2 1004   0.405   0.399   2.471
  325SOL     OW 1005   0.817   1.585   2.542
  325SOL    HW1 1006   0.817   1.620   2.453
  325SOL    HW2 1007   0.742   1.526   2.545
  326SOL     OW 1008   0.775   1.331   2.168
  326SOL    HW1 1009   0.738   1.243   2.175
  326SOL    HW2 1010   0.853   1.329   2.223
  327SOL     OW 1011   1.347   0.048   2.030
  327SOL    HW1 1012   1.409   2.989   1.987
  327SOL    HW2 1013   1.266   2.998   2.037
  328SOL     OW 1014   1.297   0.456   2.548
  328SOL    HW1 1015   1.243   0.535   2.555
  328SOL    HW2 1016   1.296   0.417   2.635
  329SOL     OW 1017   1.600   0.234   2.750
  329SOL    HW1 1018   1.510   0.228   2.781
  329SOL    HW2 1019   1.600   0.308   2.689
  330SOL     OW 1020   0.063   1.083   2.164
  330SOL    HW1 1021   0.151   1.045   2.163
  330SOL    HW2 1022   0.007   1.014   2.200
  331SOL     OW 1023   0.879   1.648   2.199
  331SOL    HW1 1024   0.802   1.631   2.145
  331SOL    HW2 1025   0.856   1.725   2.251
  332SOL     OW 1026   0.234   2.517   0.099
  332SOL    HW1 1027   0.168   2.471   0.152
  332SOL    HW2 1028   0.247   2.460   0.023
  333SOL     OW 1029   0.212   2.137   0.990
  333SOL    HW1 1030   0.247   2.108   1.074
  333SOL    HW2 1031   0.127   2.095   0.983
  334SOL     OW 1032   0.015   2.247   0.645
  334SOL    HW1 1033   2.929   2.281   0.671
  334SOL    HW2 1034   2.997   2.165   0.600
  335SOL     OW 1035   1.135   2.567   0.705
  335SOL    HW1 1036   1.180   2.650   0.694
  335SOL    HW2 1037   1.081   2.579   0.783
  336SOL     OW 1038   1.762   2.456   0.229
  336SOL    HW1 1039   1.746   2.440   0.136
  336SOL    HW2 1040   1.726   2.379   0.273
  337SOL     OW 1041   0.760   0.010   1.033
  337SOL    HW1 1042   0.677   0.041   1.068
  337SOL    HW2 1043   0.785   0.077   0.969
  338SOL     OW 1044   0.865   2.641   1.821
  338SOL    HW1 1045   0.843   2.706   1.888
  338SOL    HW2 1046   0.887   2.693   1.744
  339SOL     OW 1047   0.652   2.850   0.709
  339SOL    HW1 1048   0.747   2.857   0.723
  339SOL    HW2 1049   0.628   2.934   0.669
  340SOL     OW 1050   0.472   2.271   1.490
  340SOL    HW1 1051   0.540   2.204   1.493
  340SOL    HW2 1052   0.390   2.222   1.505
  341SOL     OW 1053   1.613   2.311   0.738
  341SOL    HW1 1054   1.537   2.337   0.687
  341SOL    HW2 1055   1.636   2.389   0.789
  342SOL     OW 1056   0.219   0.312   0.467
  342SOL    HW1 1057   0.210   0.389   0.523
  342SOL    HW2 1058   0.189   0.240   0.521
  343SOL     OW 1059   0.233   2.945   0.878
  343SOL    HW1 1060   0.257   2.865   0.925
  343SOL    HW2 1061   0.200   0.004   0.945
  344SOL     OW 1062   0.615   2.832   0.147
  344SOL    HW1 1063   0.600   2.924   0.123
  344SOL    HW2 1064   0.674   2.836   0.222
  345SOL     OW 1065   1.599   1.990   1.466
  345SOL    HW1 1066   1.584   2.074   1.423
  345SOL    HW2 1067   1.589   2.007   1.559
  346SOL     OW 1068   0.121   2.496   0.566
  346SOL    HW1 1069   0.094   2.411   0.602
  346SOL    HW2 1070   0.115   2.556   0.640
  347SOL     OW 1071   1.697   2.804   0.622
  347SOL    HW1 1072   1.776   2.750   0.629
  347SOL    HW2 1073   1.690   2.823   0.528
  348SOL     OW 1074   0.127   2.608   1.588
  348SOL    HW1 1075   0.221   2.620   1.600
  348SOL    HW2 1076   0.089   2.695   1.605
  349SOL     OW 1077   0.659   0.239   0.683
  349SOL    HW1 1078   0.595   0.177   0.718
  349SOL    HW2 1079   0.608   0.296   0.625
  350SOL     OW 1080   1.302   0.051   1.445
  350SOL    HW1 1081   1.328   2.996   1.371
  350SOL    HW2 1082   1.382   0.099   1.468
  351SOL     OW 1083   0.812   1.861   0.508
  351SOL    HW1 1084   0.851   1.947   0.492
  351SOL    HW2 1085   0.718   1.878   0.515
  352SOL     OW 1086   0.191   2.835   1.257
  352SOL    HW1 1087   0.274   2.789   1.249
  352SOL    HW2 1088   0.125   2.771   1.231
  353SOL     OW 1089   1.524   2.840   0.203
  353SOL    HW1 1090   1.453   2.796   0.250
  353SOL    HW2 1091   1.586   2.865   0.271
  354SOL     OW 1092   0.334   2.112   1.805
  354SOL    HW1 1093   0.382   2.193   1.823
  354SOL    HW2 1094   0.249   2.125   1.845
  355SOL     OW 1095   0.593   2.582   0.268
  355SOL    HW1 1096   0.600   2.662   0.215
  355SOL    HW2 1097   0.528   2.603   0.334
  356SOL     OW 1098   1.282   2.207   0.932
  356SOL    HW1 1099   1.191   2.176   0.939
  356SOL    HW2 1100   1.329   2.155   0.998
  357SOL     OW 1101   0.795   2.477   1.454
  357SOL    HW1 1102   0.766   2.456   1.543
  357SOL    HW2 1103   0.751   2.412   1.399
  358SOL     OW 1104   1.394   2.335   1.678
  358SOL    HW1 1105   1.394   2.380   1.762
  358SOL    HW2 1106   1.457   2.263   1.689
  359SOL     OW 1107   0.962   2.758   1.589
  359SOL    HW1 1108   1.014   2.686   1.552
  359SOL    HW2 1109   0.910   2.790   1.515
  360SOL     OW 1110   0.993   2.275   1.240
  360SOL    HW1 1111   0.911   2.299   1.283
  360SOL    HW2 1112   0.965   2.227   1.162
  361SOL     OW 1113   1.048   2.567   0.423
  361SOL    HW1 1114   1.062   2.559   0.518
  361SOL    HW2 1115   0.968   2.518   0.407
  362SOL     OW 1116   0.101   2.670   0.769
  362SOL    HW1 1117   0.179   2.675   0.824
  362SOL    HW2 1118   0.049   2.746   0.795
  363SOL     OW 1119   0.928   2.194   0.221
  363SOL    HW1 1120   0.932   2.258   0.149
  363SOL    HW2 1121   0.893   2.115   0.180
  364SOL     OW 1122   1.712   2.439   1.828
  364SOL    HW1 1123   1.675   2.517   1.785
  364SOL    HW2 1124   1.733   2.380   1.756
  365SOL     OW 1125   0.548   2.046   0.892
  365SOL    HW1 1126   0.552   2.073   0.984
  365SOL    HW2 1127   0.551   2.128   0.843
  366SOL     OW 1128   1.796   2.907   0.867
  366SOL    HW1 1129   1.738   2.895   0.792
  366SOL    HW2 1130   1.737   2.918   0.942
  367SOL     OW 1131   1.480   2.597   0.727
  367SOL    HW1 1132   1.460   2.549   0.807
  367SOL    HW2 1133   1.550   2.658   0.751
  368SOL     OW 1134   0.233   2.163   1.507
  368SOL    HW1 1135   0.152   2.209   1.483
  368SOL    HW2 1136   0.203   2.088   1.559
  369SOL     OW 1137   1.402   1.968   0.430
  369SOL    HW1 1138   1.388   1.947   0.337
  369SOL    HW2 1139   1.497   1.980   0.437
  370SOL     OW 1140   0.388   2.556   0.474
  370SOL    HW1 1141   0.413   2.464   0.483
  370SOL    HW2 1142   0.295   2.558   0.498
  371SOL     OW 1143   1.539   2.087   1.725
  371SOL    HW1 1144   1.547   2.111   1.817
  371SOL    HW2 1145   1.476   2.014   1.725
  372SOL     OW 1146   0.626   1.984   0.117
  372SOL    HW1 1147   0.719   1.961   0.117
  372SOL    HW2 1148   0.591   1.940   0.040
  373SOL     OW 1149   0.770   2.137   1.751
  373SOL    HW1 1150   0.840   2.073   1.763
  373SOL    HW2 1151   0.716   2.129   1.830
  374SOL     OW 1152   1.342   2.449   1.432
  374SOL    HW1 1153   1.372   2.417   1.517
  374SOL    HW2 1154   1.378   2.538   1.427
  375SOL     OW 1155   0.928   2.371   0.902
  375SOL    HW1 1156   0.904   2.362   0.810
  375SOL    HW2 1157   0.960   2.285   0.927
  376SOL     OW 1158   0.548   1.924   0.507
  376SOL    HW1 1159   0.467   1.926   0.556
  376SOL    HW2 1160   0.544   2.001   0.450
  377SOL     OW 1161   0.940   2.103   0.472
  377SOL    HW1 1162   0.913   2.141   0.389
  377SOL    HW2 1163   1.035   2.115   0.475
  378SOL     OW 1164   1.079   2.544   1.458
  378SOL    HW1 1165   1.007   2.482   1.468
  378SOL    HW2 1166   1.157   2.489   1.454
  379SOL     OW 1167   1.050   2.363   0.024
  379SOL    HW1 1168   0.998   2.443   0.012
  379SOL    HW2 1169   1.109   2.383   0.097
  380SOL     OW 1170   0.086   2.416   1.398
  380SOL    HW1 1171   0.171   2.421   1.356
  380SOL    HW2 1172   0.086   2.487   1.462
  381SOL     OW 1173   0.562   2.088   1.163
  381SOL    HW1 1174   0.598   2.007   1.199
  381SOL    HW2 1175   0.470   2.088   1.190
  382SOL     OW 1176   0.871   2.322   0.639
  382SOL    HW1 1177   0.821   2.376   0.579
  382SOL    HW2 1178   0.889   2.242   0.590
  383SOL     OW 1179   1.016   1.913   0.753
  383SOL    HW1 1180   0.956   1.909   0.679
  383SOL    HW2 1181   0.993   1.837   0.807
  384SOL     OW 1182   1.427   2.995   0.872
  384SOL    HW1 1183   1.359   2.939   0.833
  384SOL    HW2 1184   1.447   0.058   0.803
  385SOL     OW 1185   1.468   2.464   0.982
  385SOL    HW1 1186   1.421   2.380   0.987
  385SOL    HW2 1187   1.529   2.461   1.055
  386SOL     OW 1188   1.833   2.667   0.391
  386SOL    HW1 1189   1.897   2.617   0.442
  386SOL    HW2 1190   1.818   2.613   0.313
  387SOL     OW 1191   1.413   2.439   0.099
  387SOL    HW1 1192   1.340   2.428   0.160
  387SOL    HW2 1193   1.462   2.357   0.105
  388SOL     OW 1194   0.522   2.124   0.326
  388SOL    HW1 1195   0.557   2.073   0.253
  388SOL    HW2 1196   0.504   2.210   0.288
  389SOL     OW 1197   1.780   0.076   1.593
  389SOL    HW1 1198   1.869   0.044   1.577
  389SOL    HW2 1199   1.793   0.162   1.633
  390SOL     OW 1200   1.626   2.957   1.076
  390SOL    HW1 1201   1.641   0.040   1.120
  390SOL    HW2 1202   1.550   2.972   1.020
  391SOL     OW 1203   0.919   1.961   1.401
  391SOL    HW1 1204   0.940   1.943   1.309
  391SOL    HW2 1205   0.998   2.000   1.436
  392SOL     OW 1206   0.415   2.678   1.253
  392SOL    HW1 1207   0.485   2.684   1.317
  392SOL    HW2 1208   0.380   2.589   1.264
  393SOL     OW 1209   1.268   2.243   1.269
  393SOL    HW1 1210   1.299   2.319   1.318
  393SOL    HW2 1211   1.178   2.264   1.245
  394SOL     OW 1212   0.557   2.399   0.862
  394SOL    HW1 1213   0.573   2.454   0.785
  394SOL    HW2 1214   0.619   2.431   0.927
  395SOL     OW 1215   1.583   2.487   0.475
  395SOL    HW1 1216   1.541   2.545   0.540
  395SOL    HW2 1217   1.635   2.546   0.421
  396SOL     OW 1218   0.411   2.600   1.602
  396SOL    HW1 1219   0.469   2.650   1.544
  396SOL    HW2 1220   0.458   2.518   1.619
  397SOL     OW 1221   1.593   2.634   1.676
  397SOL    HW1 1222   1.507   2.676   1.669
  397SOL    HW2 1223   1.647   2.679   1.611
  398SOL     OW 1224   1.000   1.977   1.760
  398SOL    HW1 1225   1.043   2.056   1.726
  398SOL    HW2 1226   1.049   1.904   1.723
  399SOL     OW 1227   0.501   1.905   1.745
  399SOL    HW1 1228   0.459   1.849   1.679
  399SOL    HW2 1229   0.439   1.977   1.758
  400SOL     OW 1230   0.592   2.729   1.039
  400SOL    HW1 1231   0.597   2.821   1.012
  400SOL    HW2 1232   0.525   2.728   1.107
  401SOL     OW 1233   1.350   2.714   1.035
  401SOL    HW1 1234   1.282   2.708   0.969
  401SOL    HW2 1235   1.394   2.629   1.033
  402SOL     OW 1236   1.207   2.395   0.273
  402SOL    HW1 1237   1.211   2.310   0.318
  402SOL    HW2 1238   1.161   2.453   0.334
  403SOL     OW 1239   0.300   2.065   1.242
  403SOL    HW1 1240   0.281   2.095   1.331
  403SOL    HW2 1241   0.284   1.971   1.244
  404SOL     OW 1242   0.056   0.170   1.269
  404SOL    HW1 1243   0.084   0.137   1.354
  404SOL    HW2 1244   0.016   0.255   1.289
  405SOL     OW 1245   0.730   2.494   1.062
  405SOL    HW1 1246   0.798   2.477   0.997
  405SOL    HW2 1247   0.698   2.582   1.041
  406SOL     OW 1248   1.736   2.817   1.846
  406SOL    HW1 1249   1.683   2.767   1.784
  406SOL    HW2 1250   1.680   2.826   1.923
  407SOL     OW 1251   0.302   1.932   0.622
  407SOL    HW1 1252   0.286   2.022   0.649
  407SOL    HW2 1253   0.307   1.882   0.703
  408SOL     OW 1254   1.616   2.233   0.371
  408SOL    HW1 1255   1.641   2.170   0.439
  408SOL    HW2 1256   1.589   2.311   0.419
  409SOL     OW 1257   1.027   2.619   0.966
  409SOL    HW1 1258   1.028   2.634   1.061
  409SOL    HW2 1259   1.000   2.527   0.957
  410SOL     OW 1260   0.355   2.785   1.798
  410SOL    HW1 1261   0.421   2.785   1.868
  410SOL    HW2 1262   0.381   2.713   1.741
  411SOL     OW 1263   1.507   2.164   0.126
  411SOL    HW1 1264   1.470   2.077   0.138
  411SOL    HW2 1265   1.561   2.179   0.204
  412SOL     OW 1266   1.295   2.686   0.037
  412SOL    HW1 1267   1.336   2.600   0.049
  412SOL    HW2 1268   1.326   2.715   2.951
  413SOL     OW 1269   0.313   2.678   0.953
  413SOL    HW1 1270   0.407   2.688   0.936
  413SOL    HW2 1271   0.304   2.589   0.987
  414SOL     OW 1272   0.337   2.378   1.014
  414SOL    HW1 1273   0.296   2.295   0.991
  414SOL    HW2 1274   0.411   2.385   0.953
  415SOL     OW 1275   1.134   2.241   1.679
  415SOL    HW1 1276   1.089   2.296   1.742
  415SOL    HW2 1277   1.224   2.276   1.676
  416SOL     OW 1278   1.161   2.068   1.468
  416SOL    HW1 1279   1.152   2.129   1.541
  416SOL    HW2 1280   1.196   2.122   1.397
  417SOL     OW 1281   0.986   2.667   1.232
  417SOL    HW1 1282   1.038   2.636   1.306
  417SOL    HW2 1283   0.903   2.620   1.241
  418SOL     OW 1284   0.047   2.437   1.114
  418SOL    HW1 1285   0.122   2.390   1.077
  418SOL    HW2 1286   0.036   2.399   1.201
  419SOL     OW 1287   0.197   2.380   1.720
  419SOL    HW1 1288   0.265   2.354   1.659
  419SOL    HW2 1289   0.159   2.459   1.682
  420SOL     OW 1290   1.379   2.807   1.661
  420SOL    HW1 1291   1.403   2.900   1.660
  420SOL    HW2 1292   1.371   2.783   1.569
  421SOL     OW 1293   0.819   2.437   0.348
  421SOL    HW1 1294   0.818   2.360   0.291
  421SOL    HW2 1295   0.739   2.484   0.326
  422SOL     OW 1296   1.644   2.463   1.189
  422SOL    HW1 1297   1.631   2.406   1.265
  422SOL    HW2 1298   1.730   2.440   1.155
  423SOL     OW 1299   0.697   2.315   1.262
  423SOL    HW1 1300   0.644   2.241   1.231
  423SOL    HW2 1301   0.695   2.377   1.190
  424SOL     OW 1302   0.440   2.358   0.208
  424SOL    HW1 1303   0.512   2.421   0.220
  424SOL    HW2 1304   0.364   2.413   0.190
  425SOL     OW 1305   0.162   0.007   1.469
  425SOL    HW1 1306   0.151   2.954   1.548
  425SOL    HW2 1307   0.173   2.943   1.399
  426SOL     OW 1308   1.352   2.908   1.221
  426SOL    HW1 1309   1.365   2.846   1.150
  426SOL    HW2 1310   1.276   2.961   1.194
  427SOL     OW 1311   1.301   2.721   0.313
  427SOL    HW1 1312   1.227   2.679   0.357
  427SOL    HW2 1313   1.289   2.700   0.221
  428SOL     OW 1314   0.898   1.937   0.125
  428SOL    HW1 1315   0.956   1.926   0.049
  428SOL    HW2 1316   0.947   1.898   0.198
  429SOL     OW 1317   1.719   2.002   0.518
  429SOL    HW1 1318   1.794   1.994   0.460
  429SOL    HW2 1319   1.704   1.914   0.551
  430SOL     OW 1320   1.292   2.794   0.682
  430SOL    HW1 1321   1.359   2.726   0.678
  430SOL    HW2 1322   1.306   2.846   0.603
  431SOL     OW 1323   1.839   1.991   0.969
  431SOL    HW1 1324   1.875   1.961   0.885
  431SOL    HW2 1325   1.756   2.032   0.945
  432SOL     OW 1326   0.268   2.180   0.722
  432SOL    HW1 1327   0.185   2.218   0.693
  432SOL    HW2 1328   0.258   2.169   0.816
  433SOL     OW 1329   0.813   2.858   1.373
  433SOL    HW1 1330   0.867   2.840   1.296
  433SOL    HW2 1331   0.832   2.949   1.395
  434SOL     OW 1332   0.901   2.787   0.287
  434SOL    HW1 1333   0.980   2.817   0.240
  434SOL    HW2 1334   0.935   2.734   0.359
  435SOL     OW 1335   1.021   2.102   0.965
  435SOL    HW1 1336   1.014   2.054   0.882
  435SOL    HW2 1337   1.013   2.035   1.032
  436SOL     OW 1338   1.716   2.258   1.380
  436SOL    HW1 1339   1.788   2.321   1.382
  436SOL    HW2 1340   1.747   2.187   1.323
  437SOL     OW 1341   0.116   2.865   1.696
  437SOL    HW1 1342   0.046   2.843   1.758
  437SOL    HW2 1343   0.197   2.851   1.746
  438SOL     OW 1344   0.673   2.058   1.498
  438SOL    HW1 1345   0.757   2.040   1.456
  438SOL    HW2 1346   0.696   2.084   1.587
  439SOL     OW 1347   0.056   2.174   0.051
  439SOL    HW1 1348   2.967   2.197   0.023
  439SOL    HW2 1349   0.111   2.244   0.016
  440SOL     OW 1350   1.435   2.717   1.403
  440SOL    HW1 1351   1.391   2.776   1.342
  440SOL    HW2 1352   1.527   2.721   1.379
  441SOL     OW 1353   0.064   2.059   0.322
  441SOL    HW1 1354   0.051   2.100   0.236
  441SOL    HW2 1355   0.128   1.989   0.306
  442SOL     OW 1356   1.142   0.211   0.096
  442SOL    HW1 1357   1.068   0.249   0.144
  442SOL    HW2 1358   1.217   0.223   0.155
  443SOL     OW 1359   0.613   2.690   1.435
  443SOL    HW1 1360   0.670   2.766   1.418
  443SOL    HW2 1361   0.674   2.616   1.443
  444SOL     OW 1362   0.716   2.428   1.707
  444SOL    HW1 1363   0.752   2.492   1.768
  444SOL    HW2 1364   0.755   2.345   1.734
  445SOL     OW 1365   1.677   2.745   1.254
  445SOL    HW1 1366   1.664   2.659   1.213
  445SOL    HW2 1367   1.660   2.807   1.183
  446SOL     OW 1368   1.220   2.181   0.459
  446SOL    HW1 1369   1.286   2.111   0.448
  446SOL    HW2 1370   1.250   2.230   0.536
  447SOL     OW 1371   0.593   2.588   0.662
  447SOL    HW1 1372   0.619   2.680   0.669
  447SOL    HW2 1373   0.521   2.589   0.598
  448SOL     OW 1374   1.767   2.218   1.646
  448SOL    HW1 1375   1.745   2.234   1.554
  448SOL    HW2 1376   1.696   2.164   1.679
  449SOL     OW 1377   1.733   2.796   1.516
  449SOL    HW1 1378   1.752   2.887   1.535
  449SOL    HW2 1379   1.728   2.792   1.420
  450SOL     OW 1380   0.887   2.831   0.863
  450SOL    HW1 1381   0.921   2.750   0.900
  450SOL    HW2 1382   0.827   2.864   0.929
  451SOL     OW 1383   1.110   2.888   0.085
  451SOL    HW1 1384   1.062   2.889   0.002
  451SOL    HW2 1385   1.170   2.814   0.076
  452SOL     OW 1386   1.814   2.057   1.235
  452SOL    HW1 1387   1.828   1.970   1.273
  452SOL    HW2 1388   1.824   2.044   1.141
  453SOL     OW 1389   0.430   2.295   0.527
  453SOL    HW1 1390   0.459   2.224   0.469
  453SOL    HW2 1391   0.385   2.251   0.598
  454SOL     OW 1392   0.333   2.416   1.289
  454SOL    HW1 1393   0.391   2.361   1.342
  454SOL    HW2 1394   0.349   2.388   1.199
  455SOL     OW 1395   1.431   2.082   1.122
  455SOL    HW1 1396   1.457   2.008   1.178
  455SOL    HW2 1397   1.378   2.137   1.179
  456SOL     OW 1398   1.005   1.886   1.146
  456SOL    HW1 1399   0.951   1.816   1.109
  456SOL    HW2 1400   1.094   1.849   1.148
  457SOL     OW 1401   1.354   1.913   0.164
  457SOL    HW1 1402   1.380   1.866   0.085
  457SOL    HW2 1403   1.268   1.878   0.186
  458SOL     OW 1404   1.301   2.323   0.685
  458SOL    HW1 1405   1.244   2.400   0.691
  458SOL    HW2 1406   1.295   2.282   0.771
  459SOL     OW 1407   1.597   2.075   0.886
  459SOL    HW1 1408   1.522   2.089   0.944
  459SOL    HW2 1409   1.593   2.148   0.825
  460SOL     OW 1410   0.002   2.885   0.285
  460SOL    HW1 1411   0.087   2.922   0.259
  460SOL    HW2 1412   0.018   2.851   0.373
  461SOL     OW 1413   0.228   2.506   1.969
  461SOL    HW1 1414   0.165   2.459   2.023
  461SOL    HW2 1415   0.223   2.463   1.884
  462SOL     OW 1416   0.235   2.124   2.838
  462SOL    HW1 1417   0.270   2.103   2.924
  462SOL    HW2 1418   0.147   2.087   2.837
  463SOL     OW 1419   0.015   2.247   2.506
  463SOL    HW1 1420   2.930   2.281   2.533
  463SOL    HW2 1421   2.996   2.161   2.468
  464SOL     OW 1422   1.135   2.567   2.566
  464SOL    HW1 1423   1.182   2.650   2.556
  464SOL    HW2 1424   1.082   2.580   2.645
  465SOL     OW 1425   1.762   2.467   2.092
  465SOL    HW1 1426   1.744   2.458   1.999
  465SOL    HW2 1427   1.729   2.386   2.131
  466SOL     OW 1428   0.777   0.011   2.878
  466SOL    HW1 1429   0.687   0.027   2.907
  466SOL    HW2 1430   0.799   0.089   2.826
  467SOL     OW 1431   0.652   2.847   2.564
  467SOL    HW1 1432   0.744   2.851   2.590
  467SOL    HW2 1433   0.631   2.936   2.536
  468SOL     OW 1434   1.617   2.311   2.594
  468SOL    HW1 1435   1.539   2.337   2.544
  468SOL    HW2 1436   1.626   2.379   2.661
  469SOL     OW 1437   0.215   0.311   2.328
  469SOL    HW1 1438   0.218   0.386   2.387
  469SOL    HW2 1439   0.195   0.237   2.385
  470SOL     OW 1440   0.233   2.947   2.743
  470SOL    HW1 1441   0.256   2.863   2.784
  470SOL    HW2 1442   0.207   0.002   2.817
  471SOL     OW 1443   0.609   2.824   1.990
  471SOL    HW1 1444   0.597   2.908   1.947
  471SOL    HW2 1445   0.664   2.843   2.066
  472SOL     OW 1446   0.122   2.494   2.427
  472SOL    HW1 1447   0.094   2.411   2.466
  472SOL    HW2 1448   0.119   2.557   2.499
  473SOL     OW 1449   1.697   2.804   2.483
  473SOL    HW1 1450   1.776   2.751   2.495
  473SOL    HW2 1451   1.692   2.819   2.389
  474SOL     OW 1452   0.634   0.243   2.568
  474SOL    HW1 1453   0.591   0.159   2.552
  474SOL    HW2 1454   0.611   0.297   2.492
  475SOL     OW 1455   0.812   1.859   2.361
  475SOL    HW1 1456   0.852   1.945   2.350
  475SOL    HW2 1457   0.719   1.877   2.376
  476SOL     OW 1458   0.213   2.807   0.099
  476SOL    HW1 1459   0.277   2.736   0.101
  476SOL    HW2 1460   0.128   2.762   0.094
  477SOL     OW 1461   1.538   2.838   2.045
  477SOL    HW1 1462   1.468   2.787   2.086
  477SOL    HW2 1463   1.589   2.871   2.119
  478SOL     OW 1464   0.596   2.580   2.126
  478SOL    HW1 1465   0.604   2.659   2.073
  478SOL    HW2 1466   0.531   2.604   2.193
  479SOL     OW 1467   1.296   2.197   2.807
  479SOL    HW1 1468   1.202   2.181   2.801
  479SOL    HW2 1469   1.322   2.161   2.891
  480SOL     OW 1470   1.051   2.562   2.289
  480SOL    HW1 1471   1.062   2.557   2.384
  480SOL    HW2 1472   0.968   2.517   2.273
  481SOL     OW 1473   0.105   2.672   2.626
  481SOL    HW1 1474   0.181   2.673   2.684
  481SOL    HW2 1475   0.047   2.739   2.662
  482SOL     OW 1476   0.884   2.207   2.055
  482SOL    HW1 1477   0.929   2.270   1.998
  482SOL    HW2 1478   0.904   2.122   2.017
  483SOL     OW 1479   0.553   2.049   2.765
  483SOL    HW1 1480   0.519   2.080   2.849
  483SOL    HW2 1481   0.559   2.127   2.710
  484SOL     OW 1482   1.797   2.911   2.728
  484SOL    HW1 1483   1.736   2.893   2.656
  484SOL    HW2 1484   1.741   2.915   2.806
  485SOL     OW 1485   1.478   2.601   2.586
  485SOL    HW1 1486   1.464   2.546   2.663
  485SOL    HW2 1487   1.554   2.656   2.609
  486SOL     OW 1488   1.403   1.972   2.293
  486SOL    HW1 1489   1.397   1.945   2.201
  486SOL    HW2 1490   1.497   1.974   2.312
  487SOL     OW 1491   0.394   2.555   2.337
  487SOL    HW1 1492   0.412   2.462   2.351
  487SOL    HW2 1493   0.301   2.565   2.356
  488SOL     OW 1494   0.627   1.988   1.969
  488SOL    HW1 1495   0.704   1.932   1.979
  488SOL    HW2 1496   0.582   1.954   1.891
  489SOL     OW 1497   0.922   2.380   2.758
  489SOL    HW1 1498   0.902   2.358   2.667
  489SOL    HW2 1499   0.958   2.300   2.795
  490SOL     OW 1500   0.548   1.924   2.368
  490SOL    HW1 1501   0.467   1.926   2.419
  490SOL    HW2 1502   0.544   2.003   2.314
  491SOL     OW 1503   0.291   1.905   2.042
  491SOL    HW1 1504   0.350   1.975   2.013
  491SOL    HW2 1505   0.348   1.841   2.085
  492SOL     OW 1506   0.937   2.103   2.325
  492SOL    HW1 1507   0.906   2.150   2.248
  492SOL    HW2 1508   1.031   2.119   2.328
  493SOL     OW 1509   1.027   2.408   1.880
  493SOL    HW1 1510   0.983   2.491   1.860
  493SOL    HW2 1511   1.089   2.430   1.950
  494SOL     OW 1512   0.870   2.319   2.499
  494SOL    HW1 1513   0.823   2.376   2.439
  494SOL    HW2 1514   0.886   2.239   2.449
  495SOL     OW 1515   1.010   1.913   2.615
  495SOL    HW1 1516   0.954   1.903   2.538
  495SOL    HW2 1517   0.994   1.834   2.667
  496SOL     OW 1518   1.422   2.999   2.736
  496SOL    HW1 1519   1.355   2.943   2.698
  496SOL    HW2 1520   1.448   0.057   2.665
  497SOL     OW 1521   1.487   2.448   2.820
  497SOL    HW1 1522   1.423   2.378   2.831
  497SOL    HW2 1523   1.513   2.471   2.910
  498SOL     OW 1524   1.839   2.669   2.253
  498SOL    HW1 1525   1.899   2.618   2.307
  498SOL    HW2 1526   1.817   2.610   2.181
  499SOL     OW 1527   1.393   2.434   1.934
  499SOL    HW1 1528   1.335   2.414   2.006
  499SOL    HW2 1529   1.479   2.400   1.961
  500SOL     OW 1530   0.527   2.124   2.184
  500SOL    HW1 1531   0.565   2.074   2.111
  500SOL    HW2 1532   0.510   2.211   2.147
  501SOL     OW 1533   1.626   2.965   2.936
  501SOL    HW1 1534   1.634   0.042   2.992
  501SOL    HW2 1535   1.551   2.984   2.880
  502SOL     OW 1536   0.555   2.396   2.725
  502SOL    HW1 1537   0.570   2.452   2.649
  502SOL    HW2 1538   0.615   2.430   2.792
  503SOL     OW 1539   1.578   2.488   2.334
  503SOL    HW1 1540   1.542   2.545   2.401
  503SOL    HW2 1541   1.634   2.546   2.281
  504SOL     OW 1542   0.574   2.726   2.883
  504SOL    HW1 1543   0.615   2.808   2.855
  504SOL    HW2 1544   0.555   2.740   2.976
  505SOL     OW 1545   1.208   2.391   2.132
  505SOL    HW1 1546   1.217   2.313   2.186
  505SOL    HW2 1547   1.163   2.455   2.189
  506SOL     OW 1548   0.326   2.062   0.081
  506SOL    HW1 1549   0.310   2.105   0.165
  506SOL    HW2 1550   0.302   1.971   0.096
  507SOL     OW 1551   0.730   2.501   2.916
  507SOL    HW1 1552   0.796   2.479   2.851
  507SOL    HW2 1553   0.696   2.586   2.888
  508SOL     OW 1554   0.303   1.931   2.483
  508SOL    HW1 1555   0.285   2.021   2.510
  508SOL    HW2 1556   0.306   1.882   2.564
  509SOL     OW 1557   1.613   2.233   2.231
  509SOL    HW1 1558   1.640   2.170   2.298
  509SOL    HW2 1559   1.590   2.311   2.282
  510SOL     OW 1560   1.024   2.622   2.822
  510SOL    HW1 1561   1.028   2.628   2.918
  510SOL    HW2 1562   0.996   2.532   2.805
  511SOL     OW 1563   1.533   2.143   1.987
  511SOL    HW1 1564   1.472   2.073   2.011
  511SOL    HW2 1565   1.566   2.175   2.071
  512SOL     OW 1566   1.293   2.687   1.895
  512SOL    HW1 1567   1.336   2.602   1.901
  512SOL    HW2 1568   1.325   2.725   1.813
  513SOL     OW 1569   0.311   2.674   2.809
  513SOL    HW1 1570   0.405   2.692   2.809
  513SOL    HW2 1571   0.303   2.586   2.846
  514SOL     OW 1572   0.323   2.384   2.867
  514SOL    HW1 1573   0.292   2.295   2.852
  514SOL    HW2 1574   0.402   2.391   2.814
  515SOL     OW 1575   0.984   2.617   0.088
  515SOL    HW1 1576   1.027   2.609   0.173
  515SOL    HW2 1577   0.893   2.637   0.109
  516SOL     OW 1578   0.816   2.430   2.215
  516SOL    HW1 1579   0.815   2.356   2.155
  516SOL    HW2 1580   0.742   2.484   2.189
  517SOL     OW 1581   0.704   2.310   0.103
  517SOL    HW1 1582   0.620   2.266   0.091
  517SOL    HW2 1583   0.704   2.381   0.039
  518SOL     OW 1584   0.466   2.356   2.048
  518SOL    HW1 1585   0.527   2.426   2.069
  518SOL    HW2 1586   0.380   2.398   2.047
  519SOL     OW 1587   1.303   2.725   2.170
  519SOL    HW1 1588   1.229   2.686   2.217
  519SOL    HW2 1589   1.287   2.703   2.079
  520SOL     OW 1590   1.717   2.002   2.376
  520SOL    HW1 1591   1.791   1.990   2.316
  520SOL    HW2 1592   1.703   1.916   2.414
  521SOL     OW 1593   1.293   2.797   2.543
  521SOL    HW1 1594   1.358   2.727   2.543
  521SOL    HW2 1595   1.308   2.845   2.462
  522SOL     OW 1596   1.840   2.040   2.823
  522SOL    HW1 1597   1.870   1.953   2.798
  522SOL    HW2 1598   1.751   2.046   2.789
  523SOL     OW 1599   0.270   2.181   2.577
  523SOL    HW1 1600   0.186   2.220   2.554
  523SOL    HW2 1601   0.265   2.167   2.672
  524SOL     OW 1602   0.905   2.758   2.116
  524SOL    HW1 1603   0.979   2.808   2.083
  524SOL    HW2 1604   0.940   2.710   2.192
  525SOL     OW 1605   1.033   2.104   2.810
  525SOL    HW1 1606   1.020   2.052   2.731
  525SOL    HW2 1607   1.007   2.047   2.882
  526SOL     OW 1608   0.092   2.184   1.917
  526SOL    HW1 1609   0.009   2.155   1.880
  526SOL    HW2 1610   0.107   2.270   1.879
  527SOL     OW 1611   0.065   2.057   2.177
  527SOL    HW1 1612   0.071   2.107   2.095
  527SOL    HW2 1613   0.133   1.990   2.169
  528SOL     OW 1614   1.133   0.245   1.998
  528SOL    HW1 1615   1.101   0.160   1.968
  528SOL    HW2 1616   1.211   0.224   2.051
  529SOL     OW 1617   1.727   2.709   0.055
  529SOL    HW1 1618   1.651   2.666   0.094
  529SOL    HW2 1619   1.702   2.800   0.046
  530SOL     OW 1620   1.219   2.181   2.319
  530SOL    HW1 1621   1.285   2.112   2.309
  530SOL    HW2 1622   1.246   2.230   2.397
  531SOL     OW 1623   0.595   2.586   2.524
  531SOL    HW1 1624   0.622   2.678   2.532
  531SOL    HW2 1625   0.523   2.587   2.461
  532SOL     OW 1626   0.880   2.825   2.717
  532SOL    HW1 1627   0.923   2.750   2.758
  532SOL    HW2 1628   0.843   2.874   2.790
  533SOL     OW 1629   1.102   2.873   1.953
  533SOL    HW1 1630   1.061   2.898   1.870
  533SOL    HW2 1631   1.158   2.799   1.930
  534SOL     OW 1632   1.825   2.050   0.096
  534SOL    HW1 1633   1.798   1.959   0.103
  534SOL    HW2 1634   1.830   2.066   0.002
  535SOL     OW 1635   0.427   2.293   2.382
  535SOL    HW1 1636   0.458   2.219   2.330
  535SOL    HW2 1637   0.383   2.253   2.457
  536SOL     OW 1638   1.369   1.924   2.022
  536SOL    HW1 1639   1.414   1.855   1.973
  536SOL    HW2 1640   1.284   1.885   2.044
  537SOL     OW 1641   1.297   2.319   2.548
  537SOL    HW1 1642   1.243   2.398   2.557
  537SOL    HW2 1643   1.297   2.280   2.635
  538SOL     OW 1644   1.585   2.076   2.740
  538SOL    HW1 1645   1.501   2.093   2.783
  538SOL    HW2 1646   1.596   2.149   2.680
  539SOL     OW 1647   0.019   2.929   2.152
  539SOL    HW1 1648   0.114   2.925   2.143
  539SOL    HW2 1649   0.000   2.873   2.228
  540SOL     OW 1650   2.092   0.640   0.116
  540SOL    HW1 1651   1.999   0.626   0.138
  540SOL    HW2 1652   2.103   0.600   0.030
  541SOL     OW 1653   2.079   0.284   1.005
  541SOL    HW1 1654   2.111   0.250   1.089
  541SOL    HW2 1655   1.994   0.242   0.994
  542SOL     OW 1656   1.865   0.379   0.646
  542SOL    HW1 1657   1.782   0.404   0.686
  542SOL    HW2 1658   1.843   0.307   0.587
  543SOL     OW 1659   2.430   1.281   1.172
  543SOL    HW1 1660   2.341   1.280   1.139
  543SOL    HW2 1661   2.441   1.370   1.207
  544SOL     OW 1662   2.622   1.143   1.038
  544SOL    HW1 1663   2.554   1.179   1.095
  544SOL    HW2 1664   2.658   1.218   0.992
  545SOL     OW 1665   2.719   0.780   1.818
  545SOL    HW1 1666   2.712   0.850   1.882
  545SOL    HW2 1667   2.742   0.825   1.736
  546SOL     OW 1668   2.565   1.060   0.651
  546SOL    HW1 1669   2.608   0.989   0.699
  546SOL    HW2 1670   2.478   1.066   0.690
  547SOL     OW 1671   2.568   1.153   1.809
  547SOL    HW1 1672   2.616   1.233   1.832
  547SOL    HW2 1673   2.484   1.184   1.776
  548SOL     OW 1674   2.185   1.446   1.055
  548SOL    HW1 1675   2.143   1.381   1.000
  548SOL    HW2 1676   2.255   1.483   1.001
  549SOL     OW 1677   2.311   0.401   1.491
  549SOL    HW1 1678   2.386   0.341   1.495
  549SOL    HW2 1679   2.235   0.345   1.504
  550SOL     OW 1680   2.081   1.715   0.474
  550SOL    HW1 1681   2.107   1.790   0.527
  550SOL    HW2 1682   2.153   1.702   0.413
  551SOL     OW 1683   2.981   1.347   1.688
  551SOL    HW1 1684   0.030   1.346   1.770
  551SOL    HW2 1685   2.936   1.262   1.686
  552SOL     OW 1686   2.088   1.442   0.533
  552SOL    HW1 1687   2.071   1.536   0.542
  552SOL    HW2 1688   2.028   1.401   0.595
  553SOL     OW 1689   2.106   1.087   0.891
  553SOL    HW1 1690   2.119   1.001   0.931
  553SOL    HW2 1691   2.053   1.136   0.953
  554SOL     OW 1692   2.476   1.791   1.431
  554SOL    HW1 1693   2.394   1.773   1.477
  554SOL    HW2 1694   2.500   1.880   1.457
  555SOL     OW 1695   2.457   0.977   0.146
  555SOL    HW1 1696   2.476   1.053   0.091
  555SOL    HW2 1697   2.494   0.999   0.231
  556SOL     OW 1698   1.971   0.644   0.565
  556SOL    HW1 1699   1.934   0.560   0.591
  556SOL    HW2 1700   1.968   0.698   0.644
  557SOL     OW 1701   1.876   1.589   0.121
  557SOL    HW1 1702   1.889   1.498   0.148
  557SOL    HW2 1703   1.879   1.639   0.203
  558SOL     OW 1704   1.983   0.742   1.585
  558SOL    HW1 1705   2.075   0.761   1.604
  558SOL    HW2 1706   1.938   0.825   1.597
  559SOL     OW 1707   2.471   1.383   0.735
  559SOL    HW1 1708   2.434   1.295   0.742
  559SOL    HW2 1709   2.457   1.408   0.644
  560SOL     OW 1710   2.680   0.012   0.513
  560SOL    HW1 1711   2.707   0.103   0.499
  560SOL    HW2 1712   2.585   0.013   0.501
  561SOL     OW 1713   2.050   0.969   1.258
  561SOL    HW1 1714   2.136   0.928   1.251
  561SOL    HW2 1715   1.989   0.901   1.232
  562SOL     OW 1716   2.187   0.253   1.799
  562SOL    HW1 1717   2.238   0.332   1.821
  562SOL    HW2 1718   2.102   0.268   1.840
  563SOL     OW 1719   2.455   0.719   0.260
  563SOL    HW1 1720   2.461   0.805   0.219
  563SOL    HW2 1721   2.399   0.734   0.336
  564SOL     OW 1722   2.656   0.625   1.455
  564SOL    HW1 1723   2.628   0.599   1.543
  564SOL    HW2 1724   2.616   0.560   1.397
  565SOL     OW 1725   2.832   0.883   1.573
  565SOL    HW1 1726   2.858   0.797   1.541
  565SOL    HW2 1727   2.783   0.922   1.501
  566SOL     OW 1728   2.844   0.376   1.259
  566SOL    HW1 1729   2.773   0.433   1.288
  566SOL    HW2 1730   2.838   0.377   1.164
  567SOL     OW 1731   2.895   0.712   0.412
  567SOL    HW1 1732   2.916   0.707   0.505
  567SOL    HW2 1733   2.817   0.657   0.402
  568SOL     OW 1734   1.951   0.817   0.778
  568SOL    HW1 1735   2.036   0.808   0.821
  568SOL    HW2 1736   1.916   0.900   0.811
  569SOL     OW 1737   1.979   1.824   1.570
  569SOL    HW1 1738   1.991   1.810   1.664
  569SOL    HW2 1739   1.888   1.853   1.561
  570SOL     OW 1740   2.785   0.341   0.215
  570SOL    HW1 1741   2.762   0.397   0.141
  570SOL    HW2 1742   2.769   0.252   0.184
  571SOL     OW 1743   2.381   0.198   0.909
  571SOL    HW1 1744   2.399   0.213   1.002
  571SOL    HW2 1745   2.401   0.281   0.867
  572SOL     OW 1746   2.870   1.447   0.470
  572SOL    HW1 1747   2.830   1.521   0.424
  572SOL    HW2 1748   2.860   1.468   0.563
  573SOL     OW 1749   2.212   1.804   0.868
  573SOL    HW1 1750   2.260   1.722   0.867
  573SOL    HW2 1751   2.279   1.872   0.875
  574SOL     OW 1752   2.175   0.956   0.232
  574SOL    HW1 1753   2.265   0.966   0.201
  574SOL    HW2 1754   2.155   0.864   0.217
  575SOL     OW 1755   2.326   1.262   1.740
  575SOL    HW1 1756   2.299   1.269   1.649
  575SOL    HW2 1757   2.244   1.261   1.789
  576SOL     OW 1758   2.062   0.293   1.497
  576SOL    HW1 1759   1.980   0.342   1.497
  576SOL    HW2 1760   2.051   0.229   1.567
  577SOL     OW 1761   2.327   1.727   0.332
  577SOL    HW1 1762   2.363   1.793   0.391
  577SOL    HW2 1763   2.394   1.716   0.265
  578SOL     OW 1764   2.800   1.695   0.901
  578SOL    HW1 1765   2.864   1.629   0.926
  578SOL    HW2 1766   2.751   1.654   0.829
  579SOL     OW 1767   2.233   0.682   0.438
  579SOL    HW1 1768   2.300   0.650   0.498
  579SOL    HW2 1769   2.153   0.682   0.490
  580SOL     OW 1770   2.477   0.104   0.105
  580SOL    HW1 1771   2.571   0.112   0.120
  580SOL    HW2 1772   2.463   0.146   0.020
  581SOL     OW 1773   2.634   0.275   1.751
  581SOL    HW1 1774   2.701   0.209   1.771
  581SOL    HW2 1775   2.578   0.276   1.829
  582SOL     OW 1776   2.741   1.517   1.194
  582SOL    HW1 1777   2.721   1.483   1.106
  582SOL    HW2 1778   2.802   1.454   1.231
  583SOL     OW 1779   2.667   1.406   0.936
  583SOL    HW1 1780   2.752   1.390   0.894
  583SOL    HW2 1781   2.603   1.394   0.866
  584SOL     OW 1782   2.786   0.505   0.907
  584SOL    HW1 1783   2.758   0.500   0.816
  584SOL    HW2 1784   2.825   0.420   0.926
  585SOL     OW 1785   2.399   0.044   0.493
  585SOL    HW1 1786   2.315   0.039   0.537
  585SOL    HW2 1787   2.396   0.127   0.445
  586SOL     OW 1788   0.319   1.155   0.045
  586SOL    HW1 1789   0.310   1.099   0.122
  586SOL    HW2 1790   0.248   1.220   0.055
  587SOL     OW 1791   2.163   0.086   0.181
  587SOL    HW1 1792   2.243   0.138   0.195
  587SOL    HW2 1793   2.188   2.997   0.205
  588SOL     OW 1794   2.823   0.245   0.467
  588SOL    HW1 1795   2.779   0.294   0.398
  588SOL    HW2 1796   2.900   0.208   0.424
  589SOL     OW 1797   0.084   1.585   0.799
  589SOL    HW1 1798   0.110   1.619   0.714
  589SOL    HW2 1799   0.164   1.551   0.837
  590SOL     OW 1800   2.319   1.152   0.740
  590SOL    HW1 1801   2.248   1.125   0.798
  590SOL    HW2 1802   2.287   1.131   0.652
  591SOL     OW 1803   2.902   0.518   0.018
  591SOL    HW1 1804   2.845   0.594   0.005
  591SOL    HW2 1805   2.944   0.534   0.102
  592SOL     OW 1806   1.937   0.556   1.391
  592SOL    HW1 1807   2.028   0.552   1.363
  592SOL    HW2 1808   1.934   0.626   1.456
  593SOL     OW 1809   2.429   0.216   1.177
  593SOL    HW1 1810   2.461   0.162   1.249
  593SOL    HW2 1811   2.336   0.229   1.198
  594SOL     OW 1812   2.747   0.471   0.637
  594SOL    HW1 1813   2.674   0.527   0.610
  594SOL    HW2 1814   2.730   0.387   0.595
  595SOL     OW 1815   2.864   0.054   0.762
  595SOL    HW1 1816   2.823   0.060   0.676
  595SOL    HW2 1817   2.837   2.968   0.795
  596SOL     OW 1818   2.353   1.402   0.152
  596SOL    HW1 1819   2.287   1.374   0.214
  596SOL    HW2 1820   2.307   1.409   0.069
  597SOL     OW 1821   2.389   0.258   0.320
  597SOL    HW1 1822   2.432   0.212   0.248
  597SOL    HW2 1823   2.368   0.345   0.284
  598SOL     OW 1824   2.780   0.111   1.403
  598SOL    HW1 1825   2.806   0.096   1.312
  598SOL    HW2 1826   2.843   0.175   1.435
  599SOL     OW 1827   2.841   1.109   1.728
  599SOL    HW1 1828   2.748   1.130   1.738
  599SOL    HW2 1829   2.843   1.042   1.660
  600SOL     OW 1830   2.563   1.062   0.378
  600SOL    HW1 1831   2.551   1.056   0.473
  600SOL    HW2 1832   2.645   1.016   0.362
  601SOL     OW 1833   2.273   0.816   1.258
  601SOL    HW1 1834   2.347   0.824   1.317
  601SOL    HW2 1835   2.243   0.726   1.270
  602SOL     OW 1836   2.207   1.110   0.495
  602SOL    HW1 1837   2.218   1.176   0.426
  602SOL    HW2 1838   2.221   1.026   0.450
  603SOL     OW 1839   2.420   0.526   0.876
  603SOL    HW1 1840   2.431   0.575   0.795
  603SOL    HW2 1841   2.484   0.564   0.936
  604SOL     OW 1842   2.208   1.514   1.318
  604SOL    HW1 1843   2.201   1.476   1.230
  604SOL    HW2 1844   2.300   1.537   1.327
  605SOL     OW 1845   2.274   0.745   1.602
  605SOL    HW1 1846   2.334   0.792   1.543
  605SOL    HW2 1847   2.316   0.660   1.616
  606SOL     OW 1848   2.868   0.115   1.762
  606SOL    HW1 1849   2.898   0.191   1.713
  606SOL    HW2 1850   2.903   0.040   1.715
  607SOL     OW 1851   2.365   0.054   1.749
  607SOL    HW1 1852   2.331   2.992   1.684
  607SOL    HW2 1853   2.294   0.118   1.759
  608SOL     OW 1854   2.448   0.869   1.039
  608SOL    HW1 1855   2.477   0.959   1.022
  608SOL    HW2 1856   2.384   0.877   1.110
  609SOL     OW 1857   0.064   0.534   0.271
  609SOL    HW1 1858   0.082   0.451   0.316
  609SOL    HW2 1859   0.028   0.591   0.339
  610SOL     OW 1860   2.161   0.200   1.250
  610SOL    HW1 1861   2.131   0.241   1.331
  610SOL    HW2 1862   2.138   0.108   1.259
  611SOL     OW 1863   1.961   1.276   1.286
  611SOL    HW1 1864   1.982   1.213   1.355
  611SOL    HW2 1865   1.936   1.355   1.333
  612SOL     OW 1866   2.594   0.635   1.065
  612SOL    HW1 1867   2.663   0.618   1.000
  612SOL    HW2 1868   2.560   0.721   1.040
  613SOL     OW 1869   2.167   0.061   0.640
  613SOL    HW1 1870   2.171   0.152   0.669
  613SOL    HW2 1871   2.152   0.011   0.720
  614SOL     OW 1872   2.874   0.768   0.973
  614SOL    HW1 1873   2.901   0.770   1.065
  614SOL    HW2 1874   2.870   0.675   0.951
  615SOL     OW 1875   2.832   1.569   1.704
  615SOL    HW1 1876   2.826   1.608   1.617
  615SOL    HW2 1877   2.888   1.492   1.692
  616SOL     OW 1878   2.217   0.912   1.811
  616SOL    HW1 1879   2.301   0.934   1.852
  616SOL    HW2 1880   2.239   0.853   1.739
  617SOL     OW 1881   2.905   1.344   0.835
  617SOL    HW1 1882   2.906   1.264   0.782
  617SOL    HW2 1883   2.981   1.394   0.804
  618SOL     OW 1884   2.175   0.814   0.950
  618SOL    HW1 1885   2.267   0.830   0.930
  618SOL    HW2 1886   2.173   0.725   0.984
  619SOL     OW 1887   2.193   0.525   1.012
  619SOL    HW1 1888   2.157   0.438   0.996
  619SOL    HW2 1889   2.271   0.530   0.957
  620SOL     OW 1890   2.967   0.367   1.665
  620SOL    HW1 1891   2.912   0.432   1.709
  620SOL    HW2 1892   0.054   0.406   1.666
  621SOL     OW 1893   1.870   1.322   0.192
  621SOL    HW1 1894   1.780   1.333   0.162
  621SOL    HW2 1895   1.872   1.234   0.230
  622SOL     OW 1896   2.364   1.573   0.903
  622SOL    HW1 1897   2.434   1.633   0.929
  622SOL    HW2 1898   2.407   1.507   0.848
  623SOL     OW 1899   2.864   0.795   1.253
  623SOL    HW1 1900   2.902   0.728   1.309
  623SOL    HW2 1901   2.775   0.764   1.236
  624SOL     OW 1902   1.898   0.539   1.116
  624SOL    HW1 1903   1.980   0.527   1.068
  624SOL    HW2 1904   1.926   0.550   1.207
  625SOL     OW 1905   2.050   0.518   1.724
  625SOL    HW1 1906   2.110   0.484   1.657
  625SOL    HW2 1907   2.005   0.590   1.681
  626SOL     OW 1908   2.682   0.578   0.333
  626SOL    HW1 1909   2.671   0.493   0.290
  626SOL    HW2 1910   2.595   0.618   0.329
  627SOL     OW 1911   2.112   1.555   1.735
  627SOL    HW1 1912   2.084   1.614   1.804
  627SOL    HW2 1913   2.109   1.468   1.775
  628SOL     OW 1914   2.551   0.461   1.266
  628SOL    HW1 1915   2.510   0.383   1.230
  628SOL    HW2 1916   2.557   0.521   1.191
  629SOL     OW 1917   2.799   1.688   1.462
  629SOL    HW1 1918   2.772   1.642   1.383
  629SOL    HW2 1919   2.776   1.780   1.444
  630SOL     OW 1920   2.319   0.494   0.195
  630SOL    HW1 1921   2.374   0.567   0.222
  630SOL    HW2 1922   2.230   0.531   0.191
  631SOL     OW 1923   2.050   1.118   1.481
  631SOL    HW1 1924   2.026   1.066   1.558
  631SOL    HW2 1925   2.049   1.056   1.408
  632SOL     OW 1926   1.929   1.275   1.010
  632SOL    HW1 1927   1.940   1.258   1.104
  632SOL    HW2 1928   1.876   1.202   0.979
  633SOL     OW 1929   2.537   1.663   1.726
  633SOL    HW1 1930   2.491   1.746   1.719
  633SOL    HW2 1931   2.604   1.667   1.658
  634SOL     OW 1932   2.764   0.084   0.139
  634SOL    HW1 1933   2.813   0.046   0.066
  634SOL    HW2 1934   2.805   0.048   0.217
  635SOL     OW 1935   1.999   1.799   1.841
  635SOL    HW1 1936   1.946   1.734   1.888
  635SOL    HW2 1937   2.048   1.845   1.909
  636SOL     OW 1938   2.682   1.270   1.426
  636SOL    HW1 1939   2.670   1.314   1.510
  636SOL    HW2 1940   2.607   1.296   1.373
  637SOL     OW 1941   2.529   1.611   0.160
  637SOL    HW1 1942   2.536   1.626   0.066
  637SOL    HW2 1943   2.479   1.530   0.168
  638SOL     OW 1944   2.132   0.337   0.748
  638SOL    HW1 1945   2.044   0.368   0.729
  638SOL    HW2 1946   2.129   0.311   0.840
  639SOL     OW 1947   2.688   1.006   1.375
  639SOL    HW1 1948   2.729   0.999   1.289
  639SOL    HW2 1949   2.690   1.100   1.395
  640SOL     OW 1950   2.790   0.942   0.310
  640SOL    HW1 1951   2.839   0.948   0.228
  640SOL    HW2 1952   2.819   0.860   0.349
  641SOL     OW 1953   2.240   1.305   1.495
  641SOL    HW1 1954   2.217   1.378   1.438
  641SOL    HW2 1955   2.170   1.241   1.481
  642SOL     OW 1956   2.916   1.086   0.719
  642SOL    HW1 1957   2.838   1.049   0.761
  642SOL    HW2 1958   2.931   1.030   0.642
  643SOL     OW 1959   2.881   0.238   0.969
  643SOL    HW1 1960   2.876   0.188   0.888
  643SOL    HW2 1961   2.870   0.173   1.038
  644SOL     OW 1962   2.461   1.490   0.483
  644SOL    HW1 1963   2.503   1.437   0.416
  644SOL    HW2 1964   2.402   1.548   0.435
  645SOL     OW 1965   2.130   1.340   0.293
  645SOL    HW1 1966   2.042   1.341   0.255
  645SOL    HW2 1967   2.120   1.380   0.379
  646SOL     OW 1968   1.976   1.008   1.721
  646SOL    HW1 1969   1.899   0.991   1.775
  646SOL    HW2 1970   2.050   0.977   1.772
  647SOL     OW 1971   2.527   0.206   1.492
  647SOL    HW1 1972   2.611   0.183   1.451
  647SOL    HW2 1973   2.549   0.222   1.584
  648SOL     OW 1974   1.910   0.194   0.329
  648SOL    HW1 1975   1.892   0.240   0.247
  648SOL    HW2 1976   1.999   0.161   0.319
  649SOL     OW 1977   2.479   0.834   1.432
  649SOL    HW1 1978   2.534   0.911   1.417
  649SOL    HW2 1979   2.541   0.761   1.438
  650SOL     OW 1980   2.578   0.564   1.706
  650SOL    HW1 1981   2.611   0.629   1.768
  650SOL    HW2 1982   2.618   0.481   1.733
  651SOL     OW 1983   2.244   1.742   1.565
  651SOL    HW1 1984   2.154   1.774   1.554
  651SOL    HW2 1985   2.233   1.655   1.604
  652SOL     OW 1986   2.764   1.378   0.061
  652SOL    HW1 1987   2.691   1.385   0.123
  652SOL    HW2 1988   2.735   1.428   2.985
  653SOL     OW 1989   2.519   1.797   0.952
  653SOL    HW1 1990   2.499   1.886   0.922
  653SOL    HW2 1991   2.614   1.788   0.939
  654SOL     OW 1992   2.728   0.964   0.860
  654SOL    HW1 1993   2.769   0.887   0.901
  654SOL    HW2 1994   2.689   1.012   0.933
  655SOL     OW 1995   2.964   1.018   0.075
  655SOL    HW1 1996   2.923   1.046   2.993
  655SOL    HW2 1997   0.011   0.938   0.052
  656SOL     OW 1998   2.085   1.306   1.855
  656SOL    HW1 1999   2.015   1.246   1.827
  656SOL    HW2 2000   2.069   1.320   1.949
  657SOL     OW 2001   1.946   1.240   0.665
  657SOL    HW1 2002   1.950   1.182   0.741
  657SOL    HW2 2003   2.012   1.205   0.605
  658SOL     OW 2004   2.540   1.401   1.623
  658SOL    HW1 2005   2.461   1.356   1.652
  658SOL    HW2 2006   2.535   1.487   1.665
  659SOL     OW 2007   2.344   0.408   0.557
  659SOL    HW1 2008   2.318   0.368   0.475
  659SOL    HW2 2009   2.267   0.399   0.614
  660SOL     OW 2010   2.186   0.550   1.290
  660SOL    HW1 2011   2.246   0.499   1.345
  660SOL    HW2 2012   2.211   0.528   1.200
  661SOL     OW 2013   2.681   1.585   0.681
  661SOL    HW1 2014   2.682   1.615   0.590
  661SOL    HW2 2015   2.607   1.524   0.685
  662SOL     OW 2016   2.853   0.017   1.152
  662SOL    HW1 2017   2.818   2.948   1.096
  662SOL    HW2 2018   2.946   2.995   1.162
  663SOL     OW 2019   2.628   1.329   0.313
  663SOL    HW1 2020   2.598   1.239   0.331
  663SOL    HW2 2021   2.713   1.334   0.357
  664SOL     OW 2022   2.480   1.561   1.279
  664SOL    HW1 2023   2.485   1.641   1.332
  664SOL    HW2 2024   2.568   1.550   1.244
  665SOL     OW 2025   1.903   1.075   0.305
  665SOL    HW1 2026   1.997   1.066   0.285
  665SOL    HW2 2027   1.875   0.986   0.326
  666SOL     OW 2028   2.737   1.648   0.348
  666SOL    HW1 2029   2.668   1.631   0.284
  666SOL    HW2 2030   2.708   1.727   0.394
  667SOL     OW 2031   2.093   0.623   1.983
  667SOL    HW1 2032   2.003   0.624   2.016
  667SOL    HW2 2033   2.085   0.596   1.891
  668SOL     OW 2034   2.089   0.275   2.877
  668SOL    HW1 2035   2.105   0.240   2.964
  668SOL    HW2 2036   2.003   0.241   2.853
  669SOL     OW 2037   1.866   0.379   2.505
  669SOL    HW1 2038   1.785   0.409   2.547
  669SOL    HW2 2039   1.839   0.305   2.451
  670SOL     OW 2040   2.616   1.147   2.892
  670SOL    HW1 2041   2.553   1.188   2.952
  670SOL    HW2 2042   2.663   1.221   2.853
  671SOL     OW 2043   2.548   1.009   2.510
  671SOL    HW1 2044   2.608   0.991   2.583
  671SOL    HW2 2045   2.476   1.058   2.550
  672SOL     OW 2046   2.202   1.434   2.931
  672SOL    HW1 2047   2.125   1.399   2.885
  672SOL    HW2 2048   2.248   1.485   2.864
  673SOL     OW 2049   2.084   1.712   2.339
  673SOL    HW1 2050   2.108   1.789   2.390
  673SOL    HW2 2051   2.150   1.707   2.270
  674SOL     OW 2052   2.093   1.439   2.396
  674SOL    HW1 2053   2.075   1.533   2.402
  674SOL    HW2 2054   2.029   1.399   2.456
  675SOL     OW 2055   2.115   1.091   2.753
  675SOL    HW1 2056   2.111   1.005   2.793
  675SOL    HW2 2057   2.056   1.146   2.806
  676SOL     OW 2058   2.455   0.977   1.993
  676SOL    HW1 2059   2.494   1.033   1.926
  676SOL    HW2 2060   2.494   1.008   2.075
  677SOL     OW 2061   1.981   0.644   2.425
  677SOL    HW1 2062   1.934   0.564   2.449
  677SOL    HW2 2063   1.973   0.700   2.502
  678SOL     OW 2064   1.894   1.597   1.984
  678SOL    HW1 2065   1.874   1.505   2.003
  678SOL    HW2 2066   1.869   1.644   2.063
  679SOL     OW 2067   2.471   1.379   2.593
  679SOL    HW1 2068   2.424   1.297   2.601
  679SOL    HW2 2069   2.455   1.408   2.503
  680SOL     OW 2070   2.683   0.012   2.370
  680SOL    HW1 2071   2.706   0.104   2.358
  680SOL    HW2 2072   2.588   0.009   2.363
  681SOL     OW 2073   2.458   0.725   2.126
  681SOL    HW1 2074   2.464   0.804   2.072
  681SOL    HW2 2075   2.392   0.746   2.192
  682SOL     OW 2076   2.892   0.707   2.282
  682SOL    HW1 2077   2.918   0.694   2.373
  682SOL    HW2 2078   2.816   0.651   2.270
  683SOL     OW 2079   1.952   0.819   2.635
  683SOL    HW1 2080   2.032   0.810   2.687
  683SOL    HW2 2081   1.908   0.896   2.672
  684SOL     OW 2082   2.736   0.344   2.050
  684SOL    HW1 2083   2.790   0.405   2.001
  684SOL    HW2 2084   2.776   0.258   2.035
  685SOL     OW 2085   2.415   0.200   2.822
  685SOL    HW1 2086   2.366   0.261   2.877
  685SOL    HW2 2087   2.425   0.245   2.739
  686SOL     OW 2088   2.865   1.442   2.332
  686SOL    HW1 2089   2.828   1.518   2.286
  686SOL    HW2 2090   2.865   1.467   2.424
  687SOL     OW 2091   2.216   1.803   2.715
  687SOL    HW1 2092   2.260   1.719   2.728
  687SOL    HW2 2093   2.284   1.868   2.734
  688SOL     OW 2094   2.185   0.953   2.110
  688SOL    HW1 2095   2.265   0.975   2.063
  688SOL    HW2 2096   2.152   0.874   2.068
  689SOL     OW 2097   2.329   1.741   2.182
  689SOL    HW1 2098   2.368   1.794   2.251
  689SOL    HW2 2099   2.402   1.712   2.128
  690SOL     OW 2100   2.124   1.799   0.104
  690SOL    HW1 2101   2.168   1.730   0.153
  690SOL    HW2 2102   2.081   1.754   0.031
  691SOL     OW 2103   2.795   1.699   2.759
  691SOL    HW1 2104   2.860   1.638   2.795
  691SOL    HW2 2105   2.754   1.650   2.688
  692SOL     OW 2106   2.255   0.692   2.340
  692SOL    HW1 2107   2.284   0.602   2.353
  692SOL    HW2 2108   2.161   0.690   2.361
  693SOL     OW 2109   2.486   0.122   1.974
  693SOL    HW1 2110   2.575   0.088   1.971
  693SOL    HW2 2111   2.449   0.101   1.888
  694SOL     OW 2112   2.661   1.405   2.789
  694SOL    HW1 2113   2.748   1.395   2.749
  694SOL    HW2 2114   2.600   1.395   2.716
  695SOL     OW 2115   2.783   0.519   2.756
  695SOL    HW1 2116   2.757   0.494   2.667
  695SOL    HW2 2117   2.814   0.437   2.795
  696SOL     OW 2118   2.404   0.057   2.362
  696SOL    HW1 2119   2.317   0.043   2.400
  696SOL    HW2 2120   2.393   0.132   2.303
  697SOL     OW 2121   2.153   0.035   2.056
  697SOL    HW1 2122   2.197   0.110   2.018
  697SOL    HW2 2123   2.224   2.977   2.083
  698SOL     OW 2124   2.815   0.251   2.324
  698SOL    HW1 2125   2.762   0.290   2.255
  698SOL    HW2 2126   2.893   0.218   2.279
  699SOL     OW 2127   0.083   1.577   2.661
  699SOL    HW1 2128   0.114   1.623   2.582
  699SOL    HW2 2129   0.164   1.555   2.708
  700SOL     OW 2130   2.328   1.146   2.599
  700SOL    HW1 2131   2.257   1.129   2.661
  700SOL    HW2 2132   2.290   1.128   2.513
  701SOL     OW 2133   2.889   0.552   1.876
  701SOL    HW1 2134   2.842   0.633   1.856
  701SOL    HW2 2135   2.938   0.571   1.955
  702SOL     OW 2136   2.744   0.467   2.494
  702SOL    HW1 2137   2.678   0.518   2.446
  702SOL    HW2 2138   2.740   0.380   2.455
  703SOL     OW 2139   2.861   0.052   2.619
  703SOL    HW1 2140   2.821   0.051   2.532
  703SOL    HW2 2141   2.839   2.967   2.657
  704SOL     OW 2142   2.355   1.413   2.024
  704SOL    HW1 2143   2.280   1.383   2.076
  704SOL    HW2 2144   2.333   1.388   1.935
  705SOL     OW 2145   2.393   0.266   2.184
  705SOL    HW1 2146   2.427   0.211   2.113
  705SOL    HW2 2147   2.372   0.349   2.143
  706SOL     OW 2148   2.569   1.061   2.234
  706SOL    HW1 2149   2.554   1.047   2.327
  706SOL    HW2 2150   2.647   1.009   2.214
  707SOL     OW 2151   2.219   1.105   2.354
  707SOL    HW1 2152   2.218   1.179   2.294
  707SOL    HW2 2153   2.216   1.028   2.297
  708SOL     OW 2154   2.416   0.539   2.728
  708SOL    HW1 2155   2.435   0.594   2.651
  708SOL    HW2 2156   2.478   0.570   2.794
  709SOL     OW 2157   2.437   0.870   2.880
  709SOL    HW1 2158   2.480   0.953   2.861
  709SOL    HW2 2159   2.413   0.876   2.973
  710SOL     OW 2160   0.057   0.531   2.134
  710SOL    HW1 2161   0.083   0.454   2.183
  710SOL    HW2 2162   0.026   0.593   2.201
  711SOL     OW 2163   2.598   0.645   2.920
  711SOL    HW1 2164   2.660   0.620   2.852
  711SOL    HW2 2165   2.560   0.727   2.889
  712SOL     OW 2166   2.173   0.061   2.505
  712SOL    HW1 2167   2.163   0.152   2.534
  712SOL    HW2 2168   2.151   0.009   2.582
  713SOL     OW 2169   2.875   0.776   2.830
  713SOL    HW1 2170   2.884   0.769   2.925
  713SOL    HW2 2171   2.867   0.685   2.801
  714SOL     OW 2172   2.906   1.343   2.697
  714SOL    HW1 2173   2.912   1.267   2.639
  714SOL    HW2 2174   2.977   1.401   2.669
  715SOL     OW 2175   2.171   0.811   2.809
  715SOL    HW1 2176   2.265   0.832   2.810
  715SOL    HW2 2177   2.167   0.722   2.844
  716SOL     OW 2178   2.184   0.532   2.866
  716SOL    HW1 2179   2.151   0.442   2.863
  716SOL    HW2 2180   2.264   0.530   2.812
  717SOL     OW 2181   1.870   1.322   2.058
  717SOL    HW1 2182   1.785   1.335   2.016
  717SOL    HW2 2183   1.867   1.232   2.091
  718SOL     OW 2184   1.952   1.795   2.795
  718SOL    HW1 2185   1.919   1.713   2.759
  718SOL    HW2 2186   2.043   1.800   2.766
  719SOL     OW 2187   2.366   1.576   2.764
  719SOL    HW1 2188   2.437   1.637   2.786
  719SOL    HW2 2189   2.408   1.507   2.714
  720SOL     OW 2190   2.848   0.763   0.104
  720SOL    HW1 2191   2.887   0.741   0.189
  720SOL    HW2 2192   2.754   0.769   0.122
  721SOL     OW 2193   2.672   0.566   2.212
  721SOL    HW1 2194   2.671   0.489   2.155
  721SOL    HW2 2195   2.596   0.618   2.184
  722SOL     OW 2196   2.559   0.429   0.080
  722SOL    HW1 2197   2.468   0.433   0.110
  722SOL    HW2 2198   2.571   0.512   0.033
  723SOL     OW 2199   2.331   0.494   2.050
  723SOL    HW1 2200   2.386   0.570   2.070
  723SOL    HW2 2201   2.243   0.531   2.040
  724SOL     OW 2202   1.942   1.269   2.884
  724SOL    HW1 2203   1.932   1.271   2.979
  724SOL    HW2 2204   1.870   1.213   2.853
  725SOL     OW 2205   2.533   1.617   2.016
  725SOL    HW1 2206   2.542   1.626   1.922
  725SOL    HW2 2207   2.480   1.538   2.028
  726SOL     OW 2208   2.133   0.332   2.613
  726SOL    HW1 2209   2.047   0.367   2.591
  726SOL    HW2 2210   2.127   0.310   2.706
  727SOL     OW 2211   2.784   0.920   2.156
  727SOL    HW1 2212   2.834   0.930   2.075
  727SOL    HW2 2213   2.819   0.840   2.196
  728SOL     OW 2214   2.911   1.081   2.583
  728SOL    HW1 2215   2.833   1.040   2.619
  728SOL    HW2 2216   2.933   1.028   2.506
  729SOL     OW 2217   2.880   0.236   2.821
  729SOL    HW1 2218   2.873   0.190   2.737
  729SOL    HW2 2219   2.877   0.167   2.887
  730SOL     OW 2220   2.462   1.489   2.343
  730SOL    HW1 2221   2.501   1.438   2.272
  730SOL    HW2 2222   2.396   1.543   2.300
  731SOL     OW 2223   2.121   1.348   2.149
  731SOL    HW1 2224   2.028   1.345   2.127
  731SOL    HW2 2225   2.123   1.384   2.238
  732SOL     OW 2226   1.940   0.338   1.899
  732SOL    HW1 2227   1.851   0.318   1.872
  732SOL    HW2 2228   1.965   0.412   1.843
  733SOL     OW 2229   1.901   0.204   2.162
  733SOL    HW1 2230   1.921   0.266   2.091
  733SOL    HW2 2231   1.974   0.142   2.160
  734SOL     OW 2232   2.458   0.741   2.526
  734SOL    HW1 2233   2.494   0.828   2.511
  734SOL    HW2 2234   2.384   0.734   2.465
  735SOL     OW 2235   2.728   1.369   1.894
  735SOL    HW1 2236   2.681   1.400   1.972
  735SOL    HW2 2237   2.747   1.449   1.845
  736SOL     OW 2238   2.525   1.799   2.823
  736SOL    HW1 2239   2.503   1.885   2.788
  736SOL    HW2 2240   2.618   1.788   2.805
  737SOL     OW 2241   2.714   0.960   2.719
  737SOL    HW1 2242   2.767   0.892   2.759
  737SOL    HW2 2243   2.688   1.016   2.792
  738SOL     OW 2244   2.934   0.952   1.932
  738SOL    HW1 2245   2.908   1.028   1.880
  738SOL    HW2 2246   0.027   0.966   1.950
  739SOL     OW 2247   1.946   1.238   2.526
  739SOL    HW1 2248   1.944   1.184   2.605
  739SOL    HW2 2249   2.014   1.199   2.472
  740SOL     OW 2250   2.330   0.430   2.407
  740SOL    HW1 2251   2.319   0.372   2.331
  740SOL    HW2 2252   2.263   0.401   2.469
  741SOL     OW 2253   2.682   1.582   2.539
  741SOL    HW1 2254   2.683   1.615   2.449
  741SOL    HW2 2255   2.604   1.527   2.543
  742SOL     OW 2256   2.635   1.332   2.170
  742SOL    HW1 2257   2.602   1.243   2.180
  742SOL    HW2 2258   2.715   1.335   2.224
  743SOL     OW 2259   1.906   1.074   2.167
  743SOL    HW1 2260   2.000   1.063   2.150
  743SOL    HW2 2261   1.875   0.986   2.190
  744SOL     OW 2262   2.737   1.645   2.209
  744SOL    HW1 2263   2.668   1.631   2.145
  744SOL    HW2 2264   2.712   1.726   2.254
  745SOL     OW 2265   2.088   2.500   0.112
  745SOL    HW1 2266   1.998   2.477   0.134
  745SOL    HW2 2267   2.104   2.458   0.028
  746SOL     OW 2268   2.080   2.139   0.990
  746SOL    HW1 2269   2.115   2.116   1.076
  746SOL    HW2 2270   1.991   2.104   0.990
  747SOL     OW 2271   1.868   2.241   0.644
  747SOL    HW1 2272   1.782   2.266   0.678
  747SOL    HW2 2273   1.851   2.167   0.586
  748SOL     OW 2274   2.601   0.002   1.022
  748SOL    HW1 2275   2.530   0.047   1.067
  748SOL    HW2 2276   2.645   0.071   0.972
  749SOL     OW 2277   2.718   2.641   1.817
  749SOL    HW1 2278   2.718   2.701   1.891
  749SOL    HW2 2279   2.750   2.693   1.743
  750SOL     OW 2280   2.514   2.849   0.708
  750SOL    HW1 2281   2.608   2.856   0.724
  750SOL    HW2 2282   2.490   2.934   0.670
  751SOL     OW 2283   2.305   2.258   1.489
  751SOL    HW1 2284   2.383   2.204   1.496
  751SOL    HW2 2285   2.232   2.198   1.506
  752SOL     OW 2286   2.105   0.308   0.474
  752SOL    HW1 2287   2.074   0.393   0.504
  752SOL    HW2 2288   2.051   0.245   0.522
  753SOL     OW 2289   2.106   2.948   0.882
  753SOL    HW1 2290   2.122   2.863   0.923
  753SOL    HW2 2291   2.062   3.000   0.950
  754SOL     OW 2292   2.477   2.831   0.146
  754SOL    HW1 2293   2.462   2.923   0.124
  754SOL    HW2 2294   2.539   2.833   0.219
  755SOL     OW 2295   1.978   2.509   0.562
  755SOL    HW1 2296   1.948   2.421   0.584
  755SOL    HW2 2297   1.969   2.559   0.643
  756SOL     OW 2298   1.984   2.605   1.584
  756SOL    HW1 2299   2.076   2.621   1.605
  756SOL    HW2 2300   1.940   2.688   1.603
  757SOL     OW 2301   2.524   0.238   0.675
  757SOL    HW1 2302   2.462   0.183   0.723
  757SOL    HW2 2303   2.469   0.303   0.630
  758SOL     OW 2304   2.674   1.864   0.504
  758SOL    HW1 2305   2.711   1.951   0.492
  758SOL    HW2 2306   2.580   1.880   0.515
  759SOL     OW 2307   2.057   2.841   1.256
  759SOL    HW1 2308   2.139   2.792   1.249
  759SOL    HW2 2309   1.989   2.778   1.233
  760SOL     OW 2310   2.189   2.116   1.797
  760SOL    HW1 2311   2.239   2.194   1.823
  760SOL    HW2 2312   2.103   2.129   1.837
  761SOL     OW 2313   2.454   2.581   0.267
  761SOL    HW1 2314   2.466   2.661   0.215
  761SOL    HW2 2315   2.390   2.605   0.334
  762SOL     OW 2316   2.654   2.487   1.453
  762SOL    HW1 2317   2.630   2.462   1.542
  762SOL    HW2 2318   2.615   2.419   1.397
  763SOL     OW 2319   2.828   2.747   1.580
  763SOL    HW1 2320   2.860   2.664   1.545
  763SOL    HW2 2321   2.777   2.785   1.508
  764SOL     OW 2322   2.846   2.238   1.258
  764SOL    HW1 2323   2.772   2.292   1.287
  764SOL    HW2 2324   2.834   2.231   1.163
  765SOL     OW 2325   2.890   2.578   0.412
  765SOL    HW1 2326   2.926   2.564   0.499
  765SOL    HW2 2327   2.816   2.518   0.406
  766SOL     OW 2328   1.946   2.679   0.778
  766SOL    HW1 2329   2.032   2.673   0.820
  766SOL    HW2 2330   1.911   2.762   0.809
  767SOL     OW 2331   2.789   2.194   0.217
  767SOL    HW1 2332   2.782   2.262   0.150
  767SOL    HW2 2333   2.757   2.115   0.175
  768SOL     OW 2334   2.405   2.048   0.890
  768SOL    HW1 2335   2.415   2.073   0.982
  768SOL    HW2 2336   2.415   2.130   0.842
  769SOL     OW 2337   2.057   2.138   1.496
  769SOL    HW1 2338   1.983   2.200   1.496
  769SOL    HW2 2339   2.050   2.092   1.580
  770SOL     OW 2340   2.249   2.557   0.476
  770SOL    HW1 2341   2.275   2.465   0.484
  770SOL    HW2 2342   2.156   2.557   0.497
  771SOL     OW 2343   2.486   1.983   0.114
  771SOL    HW1 2344   2.579   1.965   0.118
  771SOL    HW2 2345   2.455   1.938   0.035
  772SOL     OW 2346   2.631   2.140   1.753
  772SOL    HW1 2347   2.701   2.077   1.767
  772SOL    HW2 2348   2.573   2.128   1.828
  773SOL     OW 2349   2.785   2.365   0.904
  773SOL    HW1 2350   2.760   2.355   0.812
  773SOL    HW2 2351   2.825   2.281   0.927
  774SOL     OW 2352   2.409   1.924   0.507
  774SOL    HW1 2353   2.328   1.926   0.558
  774SOL    HW2 2354   2.404   2.001   0.451
  775SOL     OW 2355   2.808   2.102   0.467
  775SOL    HW1 2356   2.773   2.149   0.391
  775SOL    HW2 2357   2.895   2.074   0.440
  776SOL     OW 2358   2.887   2.381   0.030
  776SOL    HW1 2359   2.845   2.464   0.008
  776SOL    HW2 2360   2.944   2.401   0.104
  777SOL     OW 2361   1.938   2.418   1.391
  777SOL    HW1 2362   2.029   2.416   1.363
  777SOL    HW2 2363   1.934   2.488   1.456
  778SOL     OW 2364   2.426   2.089   1.161
  778SOL    HW1 2365   2.465   2.010   1.199
  778SOL    HW2 2366   2.336   2.090   1.195
  779SOL     OW 2367   2.741   2.320   0.636
  779SOL    HW1 2368   2.686   2.379   0.585
  779SOL    HW2 2369   2.744   2.239   0.584
  780SOL     OW 2370   2.857   1.923   0.757
  780SOL    HW1 2371   2.812   1.901   0.675
  780SOL    HW2 2372   2.852   1.842   0.809
  781SOL     OW 2373   2.380   2.122   0.324
  781SOL    HW1 2374   2.420   2.072   0.253
  781SOL    HW2 2375   2.367   2.209   0.288
  782SOL     OW 2376   2.756   1.950   1.391
  782SOL    HW1 2377   2.782   1.934   1.301
  782SOL    HW2 2378   2.832   1.993   1.431
  783SOL     OW 2379   2.274   2.677   1.255
  783SOL    HW1 2380   2.347   2.685   1.317
  783SOL    HW2 2381   2.241   2.588   1.268
  784SOL     OW 2382   2.418   2.400   0.862
  784SOL    HW1 2383   2.434   2.456   0.786
  784SOL    HW2 2384   2.482   2.429   0.927
  785SOL     OW 2385   2.275   2.603   1.602
  785SOL    HW1 2386   2.335   2.650   1.544
  785SOL    HW2 2387   2.320   2.520   1.621
  786SOL     OW 2388   2.857   1.987   1.770
  786SOL    HW1 2389   2.899   2.043   1.705
  786SOL    HW2 2390   2.900   1.902   1.760
  787SOL     OW 2391   2.362   1.909   1.745
  787SOL    HW1 2392   2.320   1.851   1.681
  787SOL    HW2 2393   2.299   1.980   1.758
  788SOL     OW 2394   2.450   2.730   1.035
  788SOL    HW1 2395   2.468   2.821   1.014
  788SOL    HW2 2396   2.386   2.734   1.107
  789SOL     OW 2397   0.063   2.398   0.272
  789SOL    HW1 2398   0.080   2.318   0.322
  789SOL    HW2 2399   0.033   2.461   0.338
  790SOL     OW 2400   2.161   2.067   1.244
  790SOL    HW1 2401   2.130   2.110   1.324
  790SOL    HW2 2402   2.153   1.974   1.262
  791SOL     OW 2403   2.589   2.492   1.061
  791SOL    HW1 2404   2.665   2.478   1.005
  791SOL    HW2 2405   2.561   2.582   1.042
  792SOL     OW 2406   2.162   1.925   0.627
  792SOL    HW1 2407   2.150   2.017   0.651
  792SOL    HW2 2408   2.167   1.879   0.711
  793SOL     OW 2409   2.857   2.625   0.983
  793SOL    HW1 2410   2.908   2.624   1.064
  793SOL    HW2 2411   2.866   2.537   0.947
  794SOL     OW 2412   2.221   2.785   1.801
  794SOL    HW1 2413   2.290   2.782   1.867
  794SOL    HW2 2414   2.244   2.715   1.740
  795SOL     OW 2415   2.174   2.675   0.950
  795SOL    HW1 2416   2.267   2.694   0.936
  795SOL    HW2 2417   2.174   2.585   0.985
  796SOL     OW 2418   2.195   2.383   1.010
  796SOL    HW1 2419   2.159   2.296   0.990
  796SOL    HW2 2420   2.272   2.391   0.954
  797SOL     OW 2421   2.970   2.242   1.666
  797SOL    HW1 2422   2.914   2.302   1.716
  797SOL    HW2 2423   0.057   2.279   1.672
  798SOL     OW 2424   2.979   2.062   1.472
  798SOL    HW1 2425   2.966   2.134   1.534
  798SOL    HW2 2426   2.986   2.105   1.387
  799SOL     OW 2427   2.860   2.667   1.263
  799SOL    HW1 2428   2.908   2.599   1.310
  799SOL    HW2 2429   2.778   2.626   1.237
  800SOL     OW 2430   1.899   2.397   1.116
  800SOL    HW1 2431   1.982   2.394   1.069
  800SOL    HW2 2432   1.924   2.410   1.208
  801SOL     OW 2433   2.049   2.379   1.721
  801SOL    HW1 2434   2.114   2.352   1.657
  801SOL    HW2 2435   2.002   2.451   1.679
  802SOL     OW 2436   2.670   2.427   0.356
  802SOL    HW1 2437   2.673   2.358   0.289
  802SOL    HW2 2438   2.597   2.482   0.329
  803SOL     OW 2439   2.550   2.320   1.265
  803SOL    HW1 2440   2.509   2.242   1.230
  803SOL    HW2 2441   2.555   2.380   1.191
  804SOL     OW 2442   2.305   2.356   0.209
  804SOL    HW1 2443   2.373   2.423   0.221
  804SOL    HW2 2444   2.226   2.406   0.187
  805SOL     OW 2445   2.017   2.996   1.473
  805SOL    HW1 2446   2.024   2.939   1.550
  805SOL    HW2 2447   2.034   2.938   1.399
  806SOL     OW 2448   2.761   1.936   0.125
  806SOL    HW1 2449   2.819   1.912   0.052
  806SOL    HW2 2450   2.804   1.898   0.202
  807SOL     OW 2451   2.127   2.176   0.718
  807SOL    HW1 2452   2.045   2.217   0.692
  807SOL    HW2 2453   2.122   2.171   0.814
  808SOL     OW 2454   2.673   2.866   1.374
  808SOL    HW1 2455   2.728   2.845   1.298
  808SOL    HW2 2456   2.698   2.955   1.399
  809SOL     OW 2457   2.747   2.782   0.288
  809SOL    HW1 2458   2.825   2.833   0.267
  809SOL    HW2 2459   2.777   2.719   0.354
  810SOL     OW 2460   2.878   2.102   0.967
  810SOL    HW1 2461   2.875   2.053   0.885
  810SOL    HW2 2462   2.869   2.036   1.035
  811SOL     OW 2463   1.973   2.862   1.709
  811SOL    HW1 2464   1.898   2.856   1.768
  811SOL    HW2 2465   2.049   2.845   1.765
  812SOL     OW 2466   2.527   2.061   1.499
  812SOL    HW1 2467   2.609   2.041   1.453
  812SOL    HW2 2468   2.555   2.088   1.587
  813SOL     OW 2469   1.938   2.021   0.340
  813SOL    HW1 2470   1.902   2.068   0.265
  813SOL    HW2 2471   2.027   1.998   0.313
  814SOL     OW 2472   2.475   2.693   1.433
  814SOL    HW1 2473   2.532   2.769   1.417
  814SOL    HW2 2474   2.536   2.619   1.441
  815SOL     OW 2475   2.577   2.426   1.704
  815SOL    HW1 2476   2.610   2.492   1.764
  815SOL    HW2 2477   2.615   2.344   1.735
  816SOL     OW 2478   2.455   2.588   0.661
  816SOL    HW1 2479   2.483   2.679   0.671
  816SOL    HW2 2480   2.384   2.591   0.597
  817SOL     OW 2481   2.750   2.836   0.862
  817SOL    HW1 2482   2.779   2.752   0.899
  817SOL    HW2 2483   2.683   2.867   0.922
  818SOL     OW 2484   2.292   2.295   0.527
  818SOL    HW1 2485   2.320   2.226   0.468
  818SOL    HW2 2486   2.247   2.248   0.598
  819SOL     OW 2487   2.187   2.413   1.289
  819SOL    HW1 2488   2.244   2.361   1.346
  819SOL    HW2 2489   2.213   2.388   1.200
  820SOL     OW 2490   2.866   1.880   1.147
  820SOL    HW1 2491   2.813   1.812   1.105
  820SOL    HW2 2492   2.956   1.858   1.123
  821SOL     OW 2493   1.870   2.916   0.304
  821SOL    HW1 2494   1.956   2.923   0.262
  821SOL    HW2 2495   1.866   2.826   0.336
  822SOL     OW 2496   2.094   2.471   1.982
  822SOL    HW1 2497   2.006   2.491   2.015
  822SOL    HW2 2498   2.081   2.453   1.889
  823SOL     OW 2499   2.090   2.141   2.846
  823SOL    HW1 2500   2.117   2.115   2.934
  823SOL    HW2 2501   2.000   2.109   2.838
  824SOL     OW 2502   1.870   2.244   2.498
  824SOL    HW1 2503   1.787   2.268   2.539
  824SOL    HW2 2504   1.851   2.162   2.452
  825SOL     OW 2505   2.639   0.014   2.879
  825SOL    HW1 2506   2.555   0.023   2.924
  825SOL    HW2 2507   2.646   0.092   2.824
  826SOL     OW 2508   2.515   2.844   2.559
  826SOL    HW1 2509   2.605   2.849   2.592
  826SOL    HW2 2510   2.491   2.935   2.541
  827SOL     OW 2511   2.097   0.301   2.337
  827SOL    HW1 2512   2.059   0.385   2.364
  827SOL    HW2 2513   2.045   0.235   2.383
  828SOL     OW 2514   2.110   2.952   2.748
  828SOL    HW1 2515   2.123   2.864   2.784
  828SOL    HW2 2516   2.058   2.997   2.815
  829SOL     OW 2517   2.466   2.825   1.993
  829SOL    HW1 2518   2.461   2.908   1.946
  829SOL    HW2 2519   2.528   2.841   2.065
  830SOL     OW 2520   1.978   2.509   2.424
  830SOL    HW1 2521   1.948   2.421   2.445
  830SOL    HW2 2522   1.970   2.558   2.505
  831SOL     OW 2523   2.510   0.246   2.557
  831SOL    HW1 2524   2.459   0.165   2.562
  831SOL    HW2 2525   2.465   0.300   2.492
  832SOL     OW 2526   2.673   1.862   2.363
  832SOL    HW1 2527   2.712   1.949   2.354
  832SOL    HW2 2528   2.580   1.880   2.378
  833SOL     OW 2529   2.060   2.807   0.115
  833SOL    HW1 2530   2.131   2.743   0.105
  833SOL    HW2 2531   1.981   2.758   0.092
  834SOL     OW 2532   2.458   2.581   2.127
  834SOL    HW1 2533   2.467   2.659   2.072
  834SOL    HW2 2534   2.393   2.605   2.193
  835SOL     OW 2535   2.896   2.577   2.276
  835SOL    HW1 2536   2.924   2.567   2.367
  835SOL    HW2 2537   2.818   2.523   2.268
  836SOL     OW 2538   1.947   2.682   2.638
  836SOL    HW1 2539   2.030   2.670   2.685
  836SOL    HW2 2540   1.910   2.763   2.674
  837SOL     OW 2541   2.746   2.204   2.059
  837SOL    HW1 2542   2.788   2.267   2.001
  837SOL    HW2 2543   2.758   2.119   2.016
  838SOL     OW 2544   2.413   2.049   2.763
  838SOL    HW1 2545   2.384   2.082   2.848
  838SOL    HW2 2546   2.419   2.128   2.709
  839SOL     OW 2547   2.249   2.556   2.337
  839SOL    HW1 2548   2.275   2.464   2.348
  839SOL    HW2 2549   2.156   2.557   2.359
  840SOL     OW 2550   2.493   1.990   1.967
  840SOL    HW1 2551   2.563   1.927   1.984
  840SOL    HW2 2552   2.446   1.955   1.891
  841SOL     OW 2553   2.785   2.376   2.757
  841SOL    HW1 2554   2.760   2.354   2.667
  841SOL    HW2 2555   2.815   2.293   2.795
  842SOL     OW 2556   2.409   1.925   2.369
  842SOL    HW1 2557   2.329   1.926   2.420
  842SOL    HW2 2558   2.404   2.004   2.314
  843SOL     OW 2559   2.156   1.909   2.043
  843SOL    HW1 2560   2.216   1.977   2.014
  843SOL    HW2 2561   2.212   1.844   2.086
  844SOL     OW 2562   2.803   2.103   2.321
  844SOL    HW1 2563   2.765   2.149   2.246
  844SOL    HW2 2564   2.891   2.078   2.291
  845SOL     OW 2565   2.888   2.414   1.876
  845SOL    HW1 2566   2.841   2.495   1.855
  845SOL    HW2 2567   2.936   2.435   1.957
  846SOL     OW 2568   2.742   2.318   2.495
  846SOL    HW1 2569   2.684   2.378   2.448
  846SOL    HW2 2570   2.741   2.238   2.443
  847SOL     OW 2571   2.856   1.924   2.612
  847SOL    HW1 2572   2.807   1.896   2.534
  847SOL    HW2 2573   2.855   1.848   2.670
  848SOL     OW 2574   2.389   2.124   2.183
  848SOL    HW1 2575   2.428   2.075   2.111
  848SOL    HW2 2576   2.371   2.211   2.147
  849SOL     OW 2577   2.419   2.395   2.724
  849SOL    HW1 2578   2.433   2.453   2.649
  849SOL    HW2 2579   2.477   2.429   2.791
  850SOL     OW 2580   2.433   2.729   2.884
  850SOL    HW1 2581   2.480   2.808   2.856
  850SOL    HW2 2582   2.419   2.741   2.978
  851SOL     OW 2583   0.056   2.391   2.138
  851SOL    HW1 2584   0.089   2.318   2.191
  851SOL    HW2 2585   0.020   2.452   2.202
  852SOL     OW 2586   2.157   2.069   0.092
  852SOL    HW1 2587   2.187   2.102   0.177
  852SOL    HW2 2588   2.152   1.974   0.103
  853SOL     OW 2589   2.590   2.499   2.914
  853SOL    HW1 2590   2.662   2.480   2.854
  853SOL    HW2 2591   2.561   2.587   2.890
  854SOL     OW 2592   2.164   1.929   2.483
  854SOL    HW1 2593   2.146   2.019   2.510
  854SOL    HW2 2594   2.167   1.880   2.566
  855SOL     OW 2595   2.870   2.633   2.825
  855SOL    HW1 2596   2.894   2.635   2.918
  855SOL    HW2 2597   2.868   2.540   2.803
  856SOL     OW 2598   2.171   2.672   2.810
  856SOL    HW1 2599   2.264   2.695   2.811
  856SOL    HW2 2600   2.168   2.581   2.840
  857SOL     OW 2601   2.186   2.394   2.866
  857SOL    HW1 2602   2.150   2.306   2.858
  857SOL    HW2 2603   2.266   2.392   2.813
  858SOL     OW 2604   2.875   2.641   0.095
  858SOL    HW1 2605   2.915   2.635   0.182
  858SOL    HW2 2606   2.785   2.668   0.111
  859SOL     OW 2607   2.674   2.428   2.215
  859SOL    HW1 2608   2.672   2.353   2.157
  859SOL    HW2 2609   2.600   2.482   2.188
  860SOL     OW 2610   2.566   2.309   0.103
  860SOL    HW1 2611   2.481   2.268   0.090
  860SOL    HW2 2612   2.569   2.381   0.039
  861SOL     OW 2613   2.332   2.353   2.050
  861SOL    HW1 2614   2.386   2.429   2.072
  861SOL    HW2 2615   2.244   2.389   2.039
  862SOL     OW 2616   0.167   2.703   2.167
  862SOL    HW1 2617   0.103   2.649   2.213
  862SOL    HW2 2618   0.192   2.650   2.091
  863SOL     OW 2619   2.128   2.180   2.578
  863SOL    HW1 2620   2.043   2.217   2.553
  863SOL    HW2 2621   2.122   2.171   2.674
  864SOL     OW 2622   2.761   2.761   2.115
  864SOL    HW1 2623   2.836   2.815   2.090
  864SOL    HW2 2624   2.794   2.705   2.185
  865SOL     OW 2625   2.876   2.100   2.820
  865SOL    HW1 2626   2.872   2.056   2.735
  865SOL    HW2 2627   2.893   2.029   2.883
  866SOL     OW 2628   1.940   2.196   1.897
  866SOL    HW1 2629   1.851   2.178   1.866
  866SOL    HW2 2630   1.967   2.273   1.847
  867SOL     OW 2631   1.934   2.022   2.177
  867SOL    HW1 2632   1.918   2.101   2.126
  867SOL    HW2 2633   2.018   1.989   2.146
  868SOL     OW 2634   2.457   2.585   2.521
  868SOL    HW1 2635   2.485   2.676   2.530
  868SOL    HW2 2636   2.383   2.589   2.460
  869SOL     OW 2637   2.739   2.831   2.713
  869SOL    HW1 2638   2.782   2.754   2.751
  869SOL    HW2 2639   2.705   2.879   2.788
  870SOL     OW 2640   2.948   2.831   1.899
  870SOL    HW1 2641   2.915   2.920   1.907
  870SOL    HW2 2642   0.011   2.823   1.972
  871SOL     OW 2643   2.293   2.294   2.386
  871SOL    HW1 2644   2.318   2.221   2.330
  871SOL    HW2 2645   2.245   2.253   2.458
  872SOL     OW 2646   1.885   2.919   2.171
  872SOL    HW1 2647   1.973   2.929   2.133
  872SOL    HW2 2648   1.880   2.826   2.194
  873CL      CL 2649   2.481   0.727   0.654
   3.00000   3.00000   3.00000
